<event>
 7    1  0.4230786E-006  0.1297059E+03  0.7546771E-02  0.1241257E+00
         -2   -1    0    0    0  501 -0.00000000000E+00  0.00000000000E+00  0.33346089946E+03  0.33346089946E+03  0.00000000000E+00 0.  1.
          2   -1    0    0  501    0  0.00000000000E+00 -0.00000000000E+00 -0.52828579663E+02  0.52828579663E+02  0.00000000000E+00 0. -1.
         23    2    1    2    0    0 -0.30550620135E+02  0.16295651235E+02  0.25226889837E+03  0.28366039758E+03  0.12499894171E+03 0.  0.
          5    1    3    3  502    0  0.46892345990E+02  0.20603388954E+02  0.87729468805E+02  0.10169533640E+03  0.47000000000E+01 0.  1.
         -5    1    3    3    0  502 -0.77442966125E+02 -0.43077377190E+01  0.16453942957E+03  0.18196506118E+03  0.47000000000E+01 0.  1.
        -11    1    1    2    0    0  0.18538823028E+01 -0.15209830406E+02  0.58811634671E+02  0.60774864815E+02  0.00000000000E+00 0.  1.
         11    1    1    2    0    0  0.28696737832E+02 -0.10858208295E+01 -0.30448213241E+02  0.41854216737E+02  0.00000000000E+00 0. -1.
<mgrwt>
<rscale>  0 0.12112231E+03</rscale>
<asrwt>0</asrwt>
<pdfrwt beam="2">  1        2 0.81274740E-02 0.12970591E+03</pdfrwt>
<pdfrwt beam="1">  1       -2 0.51301675E-01 0.12970591E+03</pdfrwt>
<totfact> 0.29063885E+03</totfact>
</mgrwt>
</event>
<event>
 7    1  0.4230786E-006  0.1978936E+03  0.7546771E-02  0.1155585E+00
          1   -1    0    0  501    0  0.00000000000E+00  0.00000000000E+00  0.30268057734E+03  0.30268057734E+03  0.00000000000E+00 0. -1.
         -1   -1    0    0    0  501 -0.00000000000E+00 -0.00000000000E+00 -0.12895481915E+03  0.12895481915E+03  0.00000000000E+00 0.  1.
         23    2    1    2    0    0 -0.14801583788E+03  0.40326632996E+02  0.27431270013E+02  0.19978575282E+03  0.12500778721E+03 0.  0.
          5    1    3    3  502    0 -0.13615157176E+03  0.91847264113E+01  0.63385968063E+02  0.15053730647E+03  0.47000000000E+01 0.  1.
         -5    1    3    3    0  502 -0.11864266125E+02  0.31141906585E+02 -0.35954698051E+02  0.49248446354E+02  0.47000000000E+01 0.  1.
        -11    1    1    2    0    0  0.76942117291E+02 -0.53545636360E+02  0.36932643841E+02  0.10075338589E+03  0.00000000000E+00 0.  1.
         11    1    1    2    0    0  0.71073720593E+02  0.13219003363E+02  0.10936184433E+03  0.13109625778E+03  0.00000000000E+00 0. -1.
<mgrwt>
<rscale>  0 0.19322430E+03</rscale>
<asrwt>0</asrwt>
<pdfrwt beam="1">  1        1 0.46566242E-01 0.19789359E+03</pdfrwt>
<pdfrwt beam="2">  1       -1 0.19839203E-01 0.19789359E+03</pdfrwt>
<totfact> 0.17548995E+03</totfact>
</mgrwt>
</event>
<event>
 7    1  0.4230786E-006  0.1526673E+03  0.7546771E-02  0.1205732E+00
         -1   -1    0    0    0  501 -0.00000000000E+00  0.00000000000E+00  0.29081143983E+03  0.29081143983E+03  0.00000000000E+00 0.  1.
          1   -1    0    0  501    0  0.00000000000E+00 -0.00000000000E+00 -0.96475740535E+02  0.96475740535E+02  0.00000000000E+00 0. -1.
         23    2    1    2    0    0  0.64670146348E+02  0.59152218362E+02  0.20967789380E+03  0.25936867350E+03  0.12500430744E+03 0.  0.
          5    1    3    3  502    0  0.44328539475E+02  0.40744477590E+02  0.14358002048E+02  0.62075551459E+02  0.47000000000E+01 0.  1.
         -5    1    3    3    0  502  0.20341606873E+02  0.18407740772E+02  0.19531989175E+03  0.19729312204E+03  0.47000000000E+01 0.  1.
        -11    1    1    2    0    0 -0.60694547196E+02 -0.48006267979E+02  0.28531335753E+02  0.82477069204E+02  0.00000000000E+00 0.  1.
         11    1    1    2    0    0 -0.39755991520E+01 -0.11145950383E+02 -0.43873530263E+02  0.45441437657E+02  0.00000000000E+00 0. -1.
<mgrwt>
<rscale>  0 0.14579955E+03</rscale>
<asrwt>0</asrwt>
<pdfrwt beam="2">  1        1 0.14842422E-01 0.15266725E+03</pdfrwt>
<pdfrwt beam="1">  1       -1 0.44740221E-01 0.15266725E+03</pdfrwt>
<totfact> 0.18658906E+03</totfact>
</mgrwt>
</event>
<event>
 7    1  0.4230786E-006  0.1687184E+03  0.7546771E-02  0.1186069E+00
          1   -1    0    0  501    0  0.00000000000E+00  0.00000000000E+00  0.22853286041E+02  0.22853286041E+02  0.00000000000E+00 0. -1.
         -1   -1    0    0    0  501 -0.00000000000E+00 -0.00000000000E+00 -0.11529395518E+04  0.11529395518E+04  0.00000000000E+00 0.  1.
         23    2    1    2    0    0  0.57592752073E+02  0.97601394757E+02 -0.75864281812E+03  0.77717747279E+03  0.12499176528E+03 0.  0.
          5    1    3    3  502    0  0.10199890981E+02  0.83435290662E+02 -0.67236283350E+03  0.67761298347E+03  0.47000000000E+01 0.  1.
         -5    1    3    3    0  502  0.47392861092E+02  0.14166104095E+02 -0.86279984621E+02  0.99564489321E+02  0.47000000000E+01 0.  1.
        -11    1    1    2    0    0 -0.18376941255E+02 -0.13145237122E+02 -0.88658776071E+01  0.24271650430E+02  0.00000000000E+00 0. -1.
         11    1    1    2    0    0 -0.39215810818E+02 -0.84456157636E+02 -0.36257757004E+03  0.37434371462E+03  0.00000000000E+00 0.  1.
<mgrwt>
<rscale>  0 0.16235003E+03</rscale>
<asrwt>0</asrwt>
<pdfrwt beam="1">  1        1 0.35158910E-02 0.16871840E+03</pdfrwt>
<pdfrwt beam="2">  1       -1 0.17737527E+00 0.16871840E+03</pdfrwt>
<totfact> 0.64596083E+02</totfact>
</mgrwt>
</event>
<event>
 7    1  0.4230786E-006  0.2045700E+03  0.7546771E-02  0.1149527E+00
          1   -1    0    0  501    0  0.00000000000E+00  0.00000000000E+00  0.71089819020E+02  0.71089819020E+02  0.00000000000E+00 0. -1.
         -1   -1    0    0    0  501 -0.00000000000E+00 -0.00000000000E+00 -0.56830467894E+03  0.56830467894E+03  0.00000000000E+00 0.  1.
         23    2    1    2    0    0  0.14435505600E+03 -0.73379723789E+02 -0.32807723078E+03  0.38663102431E+03  0.12500365413E+03 0.  0.
          5    1    3    3  502    0  0.40649181845E+02  0.35329767544E+02 -0.94337001869E+02  0.10872951936E+03  0.47000000000E+01 0. -1.
         -5    1    3    3    0  502  0.10370587416E+03 -0.10870949133E+03 -0.23374022891E+03  0.27790150495E+03  0.47000000000E+01 0. -1.
        -11    1    1    2    0    0 -0.45304602207E+02  0.57119318326E+02 -0.24906196598E+02  0.77041820696E+02  0.00000000000E+00 0. -1.
         11    1    1    2    0    0 -0.99050453797E+02  0.16260405463E+02 -0.14423143254E+03  0.17572165295E+03  0.00000000000E+00 0.  1.
<mgrwt>
<rscale>  0 0.20025130E+03</rscale>
<asrwt>0</asrwt>
<pdfrwt beam="1">  1        1 0.10936895E-01 0.20456999E+03</pdfrwt>
<pdfrwt beam="2">  1       -1 0.87431487E-01 0.20456999E+03</pdfrwt>
<totfact> 0.76639734E+02</totfact>
</mgrwt>
</event>
<event>
 7    1  0.4230786E-006  0.2025759E+03  0.7546771E-02  0.1151732E+00
         -2   -1    0    0    0  501 -0.00000000000E+00  0.00000000000E+00  0.49105441035E+03  0.49105441035E+03  0.00000000000E+00 0.  1.
          2   -1    0    0  501    0  0.00000000000E+00 -0.00000000000E+00 -0.87887083912E+02  0.87887083912E+02  0.00000000000E+00 0. -1.
         23    2    1    2    0    0  0.13325260005E+03 -0.87501315072E+02  0.31682858784E+03  0.37605499647E+03  0.12499708293E+03 0.  0.
          5    1    3    3  502    0  0.21076963940E+02  0.13769471361E+02  0.14470054835E+03  0.14694956768E+03  0.47000000000E+01 0.  1.
         -5    1    3    3    0  502  0.11217563611E+03 -0.10127078643E+03  0.17212803949E+03  0.22910542879E+03  0.47000000000E+01 0.  1.
        -11    1    1    2    0    0 -0.11895147483E+03  0.38201203635E+02  0.85784194838E+02  0.15155102576E+03  0.00000000000E+00 0.  1.
         11    1    1    2    0    0 -0.14301125214E+02  0.49300111438E+02  0.55454376218E+00  0.51335472034E+02  0.00000000000E+00 0. -1.
<mgrwt>
<rscale>  0 0.19765527E+03</rscale>
<asrwt>0</asrwt>
<pdfrwt beam="2">  1        2 0.13521090E-01 0.20257593E+03</pdfrwt>
<pdfrwt beam="1">  1       -2 0.75546831E-01 0.20257593E+03</pdfrwt>
<totfact> 0.70976157E+02</totfact>
</mgrwt>
</event>
<event>
 7    1  0.4230786E-006  0.1657347E+03  0.7546771E-02  0.1188841E+00
         -1   -1    0    0    0  501 -0.00000000000E+00  0.00000000000E+00  0.10182738571E+03  0.10182738571E+03  0.00000000000E+00 0.  1.
          1   -1    0    0  501    0  0.00000000000E+00 -0.00000000000E+00 -0.23869709338E+03  0.23869709338E+03  0.00000000000E+00 0. -1.
         23    2    1    2    0    0 -0.73435709018E+02 -0.80316408574E+02 -0.51512077964E+02  0.17355546481E+03  0.12499790536E+03 0.  0.
          5    1    3    3  502    0 -0.22525668996E+02  0.10856831195E+02  0.31200304850E+02  0.40259478015E+02  0.47000000000E+01 0.  1.
         -5    1    3    3    0  502 -0.50910040023E+02 -0.91173239769E+02 -0.82712382815E+02  0.13329598680E+03  0.47000000000E+01 0.  1.
        -11    1    1    2    0    0 -0.90141203458E+01  0.57068552678E+02 -0.36773849842E+02  0.68486422761E+02  0.00000000000E+00 0. -1.
         11    1    1    2    0    0  0.82449829364E+02  0.23247855896E+02 -0.48583779870E+02  0.98482591519E+02  0.00000000000E+00 0.  1.
<mgrwt>
<rscale>  0 0.15987273E+03</rscale>
<asrwt>0</asrwt>
<pdfrwt beam="2">  1        1 0.36722630E-01 0.16573474E+03</pdfrwt>
<pdfrwt beam="1">  1       -1 0.15665752E-01 0.16573474E+03</pdfrwt>
<totfact> 0.34217566E+03</totfact>
</mgrwt>
</event>
<event>
 7    1  0.4230786E-006  0.1263044E+03  0.7546771E-02  0.1247749E+00
         -1   -1    0    0    0  501 -0.00000000000E+00  0.00000000000E+00  0.32287449451E+02  0.32287449451E+02  0.00000000000E+00 0.  1.
          1   -1    0    0  501    0  0.00000000000E+00 -0.00000000000E+00 -0.40403344304E+03  0.40403344304E+03  0.00000000000E+00 0. -1.
         23    2    1    2    0    0 -0.49689175227E+01 -0.17641249718E+02 -0.15335409197E+03  0.19867131497E+03  0.12496763595E+03 0.  0.
          5    1    3    3  502    0 -0.36815143224E+02  0.20805957520E+02 -0.59382475680E+01  0.42960393657E+02  0.47000000000E+01 0.  1.
         -5    1    3    3    0  502  0.31846225702E+02 -0.38447207238E+02 -0.14741584440E+03  0.15571092131E+03  0.47000000000E+01 0.  1.
        -11    1    1    2    0    0 -0.16885786371E+02 -0.29140831229E+02 -0.13840608992E+03  0.14244494920E+03  0.00000000000E+00 0. -1.
         11    1    1    2    0    0  0.21854703893E+02  0.46782080946E+02 -0.79985811700E+02  0.95204628318E+02  0.00000000000E+00 0.  1.
<mgrwt>
<rscale>  0 0.11722359E+03</rscale>
<asrwt>0</asrwt>
<pdfrwt beam="2">  1        1 0.62158995E-01 0.12630445E+03</pdfrwt>
<pdfrwt beam="1">  1       -1 0.49672996E-02 0.12630445E+03</pdfrwt>
<totfact> 0.10035932E+04</totfact>
</mgrwt>
</event>
<event>
 7    1  0.4230786E-006  0.1580892E+03  0.7546771E-02  0.1198880E+00
         -1   -1    0    0    0  501 -0.00000000000E+00  0.00000000000E+00  0.48898138413E+03  0.48898138413E+03  0.00000000000E+00 0.  1.
          1   -1    0    0  501    0  0.00000000000E+00 -0.00000000000E+00 -0.44880812219E+02  0.44880812219E+02  0.00000000000E+00 0. -1.
         23    2    1    2    0    0 -0.67136390858E+02 -0.69717666512E+02  0.29199291693E+03  0.33204227188E+03  0.12499743509E+03 0.  0.
          5    1    3    3  502    0 -0.14115383052E+01  0.32924491397E+02  0.39678816375E+02  0.51792982566E+02  0.47000000000E+01 0. -1.
         -5    1    3    3    0  502 -0.65724852553E+02 -0.10264215791E+03  0.25231410056E+03  0.28024928932E+03  0.47000000000E+01 0. -1.
        -11    1    1    2    0    0  0.61575324240E+02  0.90488660999E+02  0.13785825443E+03  0.17602447739E+03  0.00000000000E+00 0.  1.
         11    1    1    2    0    0  0.55610666180E+01 -0.20770994488E+02  0.14249400548E+02  0.25795447077E+02  0.00000000000E+00 0. -1.
<mgrwt>
<rscale>  0 0.15130350E+03</rscale>
<asrwt>0</asrwt>
<pdfrwt beam="2">  1        1 0.69047407E-02 0.15808924E+03</pdfrwt>
<pdfrwt beam="1">  1       -1 0.75227901E-01 0.15808924E+03</pdfrwt>
<totfact> 0.19294698E+03</totfact>
</mgrwt>
</event>
<event>
 7    1  0.4230786E-006  0.1353611E+03  0.7546771E-02  0.1230668E+00
         -2   -1    0    0    0  501 -0.00000000000E+00  0.00000000000E+00  0.82710014186E+02  0.82710014186E+02  0.00000000000E+00 0.  1.
          2   -1    0    0  501    0  0.00000000000E+00 -0.00000000000E+00 -0.17898421286E+03  0.17898421286E+03  0.00000000000E+00 0. -1.
         23    2    1    2    0    0 -0.10750363559E+02  0.50812224561E+02 -0.59177496876E+02  0.14773152776E+03  0.12500070270E+03 0.  0.
          5    1    3    3  502    0 -0.60515222565E+02  0.52437371586E+02 -0.55587521016E+02  0.97590125492E+02  0.47000000000E+01 0.  1.
         -5    1    3    3    0  502  0.49764859005E+02 -0.16251470255E+01 -0.35899758600E+01  0.50141402267E+02  0.47000000000E+01 0.  1.
        -11    1    1    2    0    0  0.49812640003E+02 -0.43193713764E+02 -0.33631055221E+02  0.74013808766E+02  0.00000000000E+00 0. -1.
         11    1    1    2    0    0 -0.39062276444E+02 -0.76185107970E+01 -0.34656465805E+01  0.39948890523E+02  0.00000000000E+00 0.  1.
<mgrwt>
<rscale>  0 0.12785881E+03</rscale>
<asrwt>0</asrwt>
<pdfrwt beam="2">  1        2 0.27536033E-01 0.13536110E+03</pdfrwt>
<pdfrwt beam="1">  1       -2 0.12724617E-01 0.13536110E+03</pdfrwt>
<totfact> 0.81989659E+03</totfact>
</mgrwt>
</event>
<event>
 7    1  0.4230786E-006  0.3326603E+03  0.7546771E-02  0.1106643E+00
         -2   -1    0    0    0  501 -0.00000000000E+00  0.00000000000E+00  0.43799993228E+02  0.43799993228E+02  0.00000000000E+00 0.  1.
          2   -1    0    0  501    0  0.00000000000E+00 -0.00000000000E+00 -0.12081183202E+04  0.12081183202E+04  0.00000000000E+00 0. -1.
         23    2    1    2    0    0  0.11506775817E+02  0.32144089866E+02 -0.27363372507E+03  0.30113866875E+03  0.12101005711E+03 0.  0.
          5    1    3    3  502    0  0.65530927251E+02  0.74697962837E+01 -0.14045085441E+03  0.15523734341E+03  0.47000000000E+01 0. -1.
         -5    1    3    3    0  502 -0.54024151434E+02  0.24674293582E+02 -0.13318287065E+03  0.14590132535E+03  0.47000000000E+01 0.  1.
        -11    1    1    2    0    0 -0.16049333787E+03 -0.29741504348E+02 -0.62708533903E+03  0.64798047116E+03  0.00000000000E+00 0.  1.
         11    1    1    2    0    0  0.14898656205E+03 -0.24025855182E+01 -0.26359926283E+03  0.30279917347E+03  0.00000000000E+00 0. -1.
<mgrwt>
<rscale>  0 0.26083392E+03</rscale>
<asrwt>0</asrwt>
<pdfrwt beam="2">  1        2 0.18586435E+00 0.33266030E+03</pdfrwt>
<pdfrwt beam="1">  1       -2 0.67384607E-02 0.33266030E+03</pdfrwt>
<totfact> 0.24445820E+03</totfact>
</mgrwt>
</event>
<event>
 7    1  0.4230786E-006  0.1348492E+03  0.7546771E-02  0.1232985E+00
         -3   -1    0    0    0  501 -0.00000000000E+00  0.00000000000E+00  0.11047606345E+03  0.11047606345E+03  0.00000000000E+00 0.  1.
          3   -1    0    0  501    0  0.00000000000E+00 -0.00000000000E+00 -0.22298873909E+03  0.22298873909E+03  0.00000000000E+00 0. -1.
         23    2    1    2    0    0  0.41825429897E+02  0.28441089589E+02  0.47245468436E+02  0.14288608110E+03  0.12500414281E+03 0.  0.
          5    1    3    3  502    0  0.61416418021E+02  0.50611247590E+01  0.77864743753E+02  0.99411265489E+02  0.47000000000E+01 0.  1.
         -5    1    3    3    0  502 -0.19590988124E+02  0.23379964830E+02 -0.30619275317E+02  0.43474815607E+02  0.47000000000E+01 0.  1.
        -11    1    1    2    0    0 -0.23173133884E+02 -0.58121267657E+02 -0.13122688651E+03  0.14538078151E+03  0.00000000000E+00 0.  1.
         11    1    1    2    0    0 -0.18652296013E+02  0.29680178068E+02 -0.28531257562E+02  0.45197939939E+02  0.00000000000E+00 0. -1.
<mgrwt>
<rscale>  0 0.12634325E+03</rscale>
<asrwt>0</asrwt>
<pdfrwt beam="2">  1        3 0.34305960E-01 0.13484917E+03</pdfrwt>
<pdfrwt beam="1">  1       -3 0.16996317E-01 0.13484917E+03</pdfrwt>
<totfact> 0.57705904E+02</totfact>
</mgrwt>
</event>
<event>
 7    1  0.4230786E-006  0.1354571E+03  0.7546771E-02  0.1232411E+00
         -2   -1    0    0    0  501 -0.00000000000E+00  0.00000000000E+00  0.25826190986E+03  0.25826190986E+03  0.00000000000E+00 0. -1.
          2   -1    0    0  501    0  0.00000000000E+00 -0.00000000000E+00 -0.55553465571E+02  0.55553465571E+02  0.00000000000E+00 0.  1.
         23    2    1    2    0    0  0.47628967965E+02  0.21271148054E+02  0.12339067272E+03  0.18323174613E+03  0.12501053694E+03 0.  0.
          5    1    3    3  502    0  0.88630750321E+02  0.13742610122E+01  0.90990699562E+02  0.12711685924E+03  0.47000000000E+01 0.  1.
         -5    1    3    3    0  502 -0.41001782356E+02  0.19896887042E+02  0.32399973160E+02  0.56114886894E+02  0.47000000000E+01 0.  1.
        -11    1    1    2    0    0 -0.10257189505E+02  0.31445961790E+02  0.49211808809E+02  0.59294692644E+02  0.00000000000E+00 0. -1.
         11    1    1    2    0    0 -0.37371778460E+02 -0.52717109845E+02  0.30105962757E+02  0.71288936653E+02  0.00000000000E+00 0.  1.
<mgrwt>
<rscale>  0 0.12671606E+03</rscale>
<asrwt>0</asrwt>
<pdfrwt beam="2">  1        2 0.85466871E-02 0.13545706E+03</pdfrwt>
<pdfrwt beam="1">  1       -2 0.39732601E-01 0.13545706E+03</pdfrwt>
<totfact> 0.44904492E+03</totfact>
</mgrwt>
</event>
<event>
 7    1  0.4230786E-006  0.1487341E+03  0.7546771E-02  0.1211891E+00
          2   -1    0    0  501    0  0.00000000000E+00  0.00000000000E+00  0.30974361453E+03  0.30974361453E+03  0.00000000000E+00 0. -1.
         -2   -1    0    0    0  501 -0.00000000000E+00 -0.00000000000E+00 -0.68084047002E+02  0.68084047002E+02  0.00000000000E+00 0.  1.
         23    2    1    2    0    0 -0.56673992439E+02 -0.57464624604E+02  0.61048491703E+02  0.16077548367E+03  0.12493083411E+03 0.  0.
          5    1    3    3  502    0 -0.63314486261E+02 -0.87594917103E+02  0.21336673333E+02  0.11026757140E+03  0.47000000000E+01 0.  1.
         -5    1    3    3    0  502  0.66404938216E+01  0.30130292499E+02  0.39711818370E+02  0.50507912277E+02  0.47000000000E+01 0.  1.
        -11    1    1    2    0    0 -0.83206067062E+01  0.47020036687E+02  0.41957254321E+02  0.63565144035E+02  0.00000000000E+00 0.  1.
         11    1    1    2    0    0  0.64994599146E+02  0.10444587917E+02  0.13865382151E+03  0.15348703383E+03  0.00000000000E+00 0. -1.
<mgrwt>
<rscale>  0 0.14107379E+03</rscale>
<asrwt>0</asrwt>
<pdfrwt beam="1">  1        2 0.47652863E-01 0.14873412E+03</pdfrwt>
<pdfrwt beam="2">  1       -2 0.10474469E-01 0.14873412E+03</pdfrwt>
<totfact> 0.62474621E+03</totfact>
</mgrwt>
</event>
<event>
 7    1  0.4230786E-006  0.1279497E+03  0.7546771E-02  0.1245811E+00
         -3   -1    0    0    0  501 -0.00000000000E+00  0.00000000000E+00  0.23974299170E+03  0.23974299170E+03  0.00000000000E+00 0.  1.
          3   -1    0    0  501    0  0.00000000000E+00 -0.00000000000E+00 -0.52624030583E+02  0.52624030583E+02  0.00000000000E+00 0. -1.
         23    2    1    2    0    0 -0.58021623364E+01 -0.26723496649E+02  0.13105019174E+03  0.18315371859E+03  0.12499328588E+03 0.  0.
          5    1    3    3  502    0  0.46445150105E+02 -0.21926313676E+02  0.11815531908E+03  0.12892123420E+03  0.47000000000E+01 0. -1.
         -5    1    3    3    0  502 -0.52247312441E+02 -0.47971829731E+01  0.12894872658E+02  0.54232484386E+02  0.47000000000E+01 0. -1.
        -11    1    1    2    0    0  0.31559287772E+02 -0.15716470281E+00  0.63809983482E+02  0.71187971859E+02  0.00000000000E+00 0.  1.
         11    1    1    2    0    0 -0.25757125436E+02  0.26880661352E+02 -0.77412141084E+01  0.38025331837E+02  0.00000000000E+00 0. -1.
<mgrwt>
<rscale>  0 0.11836957E+03</rscale>
<asrwt>0</asrwt>
<pdfrwt beam="2">  1        3 0.80960049E-02 0.12794972E+03</pdfrwt>
<pdfrwt beam="1">  1       -3 0.36883536E-01 0.12794972E+03</pdfrwt>
<totfact> 0.17265325E+03</totfact>
</mgrwt>
</event>
<event>
 7    1  0.4230786E-006  0.1583596E+03  0.7546771E-02  0.1198769E+00
          1   -1    0    0  501    0  0.00000000000E+00  0.00000000000E+00  0.87471931500E+03  0.87471931500E+03  0.00000000000E+00 0. -1.
         -1   -1    0    0    0  501 -0.00000000000E+00 -0.00000000000E+00 -0.27511560910E+02  0.27511560910E+02  0.00000000000E+00 0.  1.
         23    2    1    2    0    0 -0.62983398503E+02  0.74061476930E+02  0.29967046612E+03  0.33893974741E+03  0.12500301301E+03 0.  0.
          5    1    3    3  502    0  0.34928638667E+02  0.23052851560E+01  0.49209525107E+02  0.60572200720E+02  0.47000000000E+01 0.  1.
         -5    1    3    3    0  502 -0.97912037170E+02  0.71756191774E+02  0.25046094101E+03  0.27836754669E+03  0.47000000000E+01 0.  1.
        -11    1    1    2    0    0 -0.15936183705E+02 -0.20202488744E+02  0.45762721971E+02  0.52500754516E+02  0.00000000000E+00 0.  1.
         11    1    1    2    0    0  0.78919582208E+02 -0.53858988186E+02  0.50177456600E+03  0.51079037398E+03  0.00000000000E+00 0. -1.
<mgrwt>
<rscale>  0 0.15139533E+03</rscale>
<asrwt>0</asrwt>
<pdfrwt beam="1">  1        1 0.13457218E+00 0.15835960E+03</pdfrwt>
<pdfrwt beam="2">  1       -1 0.42325485E-02 0.15835960E+03</pdfrwt>
<totfact> 0.44366165E+03</totfact>
</mgrwt>
</event>
<event>
 7    1  0.4230786E-006  0.1535044E+03  0.7546771E-02  0.1204853E+00
          1   -1    0    0  501    0  0.00000000000E+00  0.00000000000E+00  0.29652461370E+03  0.29652461370E+03  0.00000000000E+00 0. -1.
         -1   -1    0    0    0  501 -0.00000000000E+00 -0.00000000000E+00 -0.70984152220E+02  0.70984152220E+02  0.00000000000E+00 0.  1.
         23    2    1    2    0    0  0.89033607657E+02 -0.32767912175E+01  0.76552784585E+02  0.17153406286E+03  0.12500354091E+03 0.  0.
          5    1    3    3  502    0  0.25697022056E+02 -0.35902388828E+02  0.88620227565E+02  0.99120901932E+02  0.47000000000E+01 0. -1.
         -5    1    3    3    0  502  0.63336585600E+02  0.32625597610E+02 -0.12067442980E+02  0.72413160924E+02  0.47000000000E+01 0. -1.
        -11    1    1    2    0    0 -0.82188736896E+02 -0.15020644149E+02  0.55116264337E+02  0.10009201176E+03  0.00000000000E+00 0.  1.
         11    1    1    2    0    0 -0.68448707610E+01  0.18297435366E+02  0.93871412557E+02  0.95882691307E+02  0.00000000000E+00 0. -1.
<mgrwt>
<rscale>  0 0.14649047E+03</rscale>
<asrwt>0</asrwt>
<pdfrwt beam="1">  1        1 0.45619171E-01 0.15350442E+03</pdfrwt>
<pdfrwt beam="2">  1       -1 0.10920639E-01 0.15350442E+03</pdfrwt>
<totfact> 0.45686444E+03</totfact>
</mgrwt>
</event>
<event>
 7    1  0.4230786E-006  0.1467693E+03  0.7546771E-02  0.1214120E+00
         -2   -1    0    0    0  501 -0.00000000000E+00  0.00000000000E+00  0.23780181786E+02  0.23780181786E+02  0.00000000000E+00 0. -1.
          2   -1    0    0  501    0  0.00000000000E+00 -0.00000000000E+00 -0.87263716990E+03  0.87263716990E+03  0.00000000000E+00 0.  1.
         23    2    1    2    0    0 -0.66624209843E+01 -0.76606761795E+02 -0.29111689690E+03  0.32602188402E+03  0.12501294890E+03 0.  0.
          5    1    3    3  502    0  0.33728640581E+02  0.79516384050E+01 -0.16593350037E+03  0.16957849596E+03  0.47000000000E+01 0.  1.
         -5    1    3    3    0  502 -0.40391061565E+02 -0.84558400200E+02 -0.12518339654E+03  0.15644338806E+03  0.47000000000E+01 0.  1.
        -11    1    1    2    0    0  0.33957363488E+01  0.97865431503E+02 -0.45055928695E+03  0.46107791615E+03  0.00000000000E+00 0.  1.
         11    1    1    2    0    0  0.32666846355E+01 -0.21258669708E+02 -0.10718080427E+03  0.10931755152E+03  0.00000000000E+00 0. -1.
<mgrwt>
<rscale>  0 0.13941385E+03</rscale>
<asrwt>0</asrwt>
<pdfrwt beam="2">  1        2 0.13425185E+00 0.14676928E+03</pdfrwt>
<pdfrwt beam="1">  1       -2 0.36584901E-02 0.14676928E+03</pdfrwt>
<totfact> 0.96251533E+03</totfact>
</mgrwt>
</event>
<event>
 7    1  0.4230786E-006  0.1283490E+03  0.7546771E-02  0.1244502E+00
         -2   -1    0    0    0  501 -0.00000000000E+00  0.00000000000E+00  0.31237799341E+03  0.31237799341E+03  0.00000000000E+00 0.  1.
          2   -1    0    0  501    0  0.00000000000E+00 -0.00000000000E+00 -0.45097646416E+02  0.45097646416E+02  0.00000000000E+00 0. -1.
         23    2    1    2    0    0  0.14343538561E+02 -0.25349105632E+02  0.21041886467E+03  0.24647425619E+03  0.12500058441E+03 0.  0.
          5    1    3    3  502    0  0.62919783700E+02 -0.34122681937E+02  0.16199740383E+03  0.17716801476E+03  0.47000000000E+01 0.  1.
         -5    1    3    3    0  502 -0.48576245139E+02  0.87735763056E+01  0.48421460834E+02  0.69306241438E+02  0.47000000000E+01 0.  1.
        -11    1    1    2    0    0 -0.26330160458E+01  0.17619060797E+02 -0.23463436428E+02  0.29460090392E+02  0.00000000000E+00 0. -1.
         11    1    1    2    0    0 -0.11710522515E+02  0.77300448343E+01  0.80324918753E+02  0.81541293241E+02  0.00000000000E+00 0.  1.
<mgrwt>
<rscale>  0 0.11915255E+03</rscale>
<asrwt>0</asrwt>
<pdfrwt beam="2">  1        2 0.69380996E-02 0.12834898E+03</pdfrwt>
<pdfrwt beam="1">  1       -2 0.48058152E-01 0.12834898E+03</pdfrwt>
<totfact> 0.40331021E+03</totfact>
</mgrwt>
</event>
<event>
 7    1  0.4230786E-006  0.1213585E+03  0.7546771E-02  0.1257261E+00
         -1   -1    0    0    0  501 -0.00000000000E+00  0.00000000000E+00  0.38302444361E+02  0.38302444361E+02  0.00000000000E+00 0.  1.
          1   -1    0    0  501    0  0.00000000000E+00 -0.00000000000E+00 -0.35263936451E+03  0.35263936451E+03  0.00000000000E+00 0. -1.
         23    2    1    2    0    0 -0.81093420910E+01 -0.37788100985E+02 -0.92787643450E+02  0.15276590203E+03  0.11503987152E+03 0.  0.
          5    1    3    3  502    0 -0.15752778162E+02  0.34916439526E+02 -0.57755714757E+01  0.39022493448E+02  0.47000000000E+01 0. -1.
         -5    1    3    3    0  502  0.76434360706E+01 -0.72704540512E+02 -0.87012071974E+02  0.11374340858E+03  0.47000000000E+01 0.  1.
        -11    1    1    2    0    0  0.27301071214E+02  0.53953565032E+02 -0.17702898654E+03  0.18707110345E+03  0.00000000000E+00 0. -1.
         11    1    1    2    0    0 -0.19191729123E+02 -0.16165464047E+02 -0.44520290163E+02  0.51104803402E+02  0.00000000000E+00 0.  1.
<mgrwt>
<rscale>  0 0.11180606E+03</rscale>
<asrwt>0</asrwt>
<pdfrwt beam="2">  1        1 0.54252213E-01 0.12135845E+03</pdfrwt>
<pdfrwt beam="1">  1       -1 0.58926834E-02 0.12135845E+03</pdfrwt>
<totfact> 0.92113980E+03</totfact>
</mgrwt>
</event>
<event>
 7    1  0.4230786E-006  0.1451334E+03  0.7546771E-02  0.1219143E+00
         -2   -1    0    0    0  501 -0.00000000000E+00  0.00000000000E+00  0.57884644694E+02  0.57884644694E+02  0.00000000000E+00 0.  1.
          2   -1    0    0  501    0  0.00000000000E+00 -0.00000000000E+00 -0.38956824009E+03  0.38956824009E+03  0.00000000000E+00 0. -1.
         23    2    1    2    0    0 -0.40110765503E+02 -0.67003246716E+02 -0.65949919461E+02  0.15941486567E+03  0.12233314735E+03 0.  0.
          5    1    3    3  502    0  0.39705598548E+01 -0.93118492235E+02 -0.47839109515E+02  0.10486891504E+03  0.47000000000E+01 0. -1.
         -5    1    3    3    0  502 -0.44081325357E+02  0.26115245520E+02 -0.18110809946E+02  0.54545950636E+02  0.47000000000E+01 0.  1.
        -11    1    1    2    0    0  0.55187201055E+02  0.19098874556E+02 -0.17282243480E+03  0.18242255381E+03  0.00000000000E+00 0. -1.
         11    1    1    2    0    0 -0.15076435552E+02  0.47904372159E+02 -0.92911241135E+02  0.10561546530E+03  0.00000000000E+00 0.  1.
<mgrwt>
<rscale>  0 0.13576586E+03</rscale>
<asrwt>0</asrwt>
<pdfrwt beam="2">  1        2 0.59933573E-01 0.14513341E+03</pdfrwt>
<pdfrwt beam="1">  1       -2 0.89053304E-02 0.14513341E+03</pdfrwt>
<totfact> 0.63043645E+03</totfact>
</mgrwt>
</event>
<event>
 6    1  0.4230786E-006  0.3317626E+03  0.7546771E-02  0.1118748E+00
          1   -1    0    0  501    0  0.00000000000E+00  0.00000000000E+00  0.73742906084E+03  0.73742906084E+03  0.00000000000E+00 0. -1.
         -1   -1    0    0    0  501 -0.00000000000E+00 -0.00000000000E+00 -0.14167341979E+03  0.14167341979E+03  0.00000000000E+00 0.  1.
          5    1    1    2  502    0  0.45608939390E+02 -0.12929162027E+03  0.12270802174E+03  0.18405392423E+03  0.47000000000E+01 0. -1.
         -5    1    1    2    0  502 -0.59655939878E+02  0.12781180921E+03 -0.60400295876E+02  0.15350887752E+03  0.47000000000E+01 0.  1.
        -11    1    1    2    0    0  0.97665991946E+01  0.46734149668E+02  0.28343556290E+03  0.28742857464E+03  0.00000000000E+00 0.  1.
         11    1    1    2    0    0  0.42804012935E+01 -0.45254338609E+02  0.25001235229E+03  0.25411110423E+03  0.00000000000E+00 0. -1.
<mgrwt>
<rscale>  0 0.24157465E+03</rscale>
<asrwt>0</asrwt>
<pdfrwt beam="1">  1        1 0.11345062E+00 0.33176255E+03</pdfrwt>
<pdfrwt beam="2">  1       -1 0.21795911E-01 0.33176255E+03</pdfrwt>
<totfact> 0.45724063E+02</totfact>
</mgrwt>
</event>
<event>
 7    1  0.4230786E-006  0.1324392E+03  0.7546771E-02  0.1237499E+00
         -4   -1    0    0    0  501 -0.00000000000E+00  0.00000000000E+00  0.23244605366E+03  0.23244605366E+03  0.00000000000E+00 0.  1.
          4   -1    0    0  501    0  0.00000000000E+00 -0.00000000000E+00 -0.73364905363E+02  0.73364905363E+02  0.00000000000E+00 0. -1.
         23    2    1    2    0    0 -0.43100933140E+02 -0.75690101038E+01  0.15751398356E+03  0.20579311974E+03  0.12500069106E+03 0.  0.
          5    1    3    3  502    0 -0.64604913799E+02 -0.30002079735E+02  0.35365842218E+02  0.79666507839E+02  0.47000000000E+01 0. -1.
         -5    1    3    3    0  502  0.21503980659E+02  0.22433069631E+02  0.12214814134E+03  0.12612661190E+03  0.47000000000E+01 0. -1.
        -11    1    1    2    0    0  0.24271259233E+02  0.48894718684E+02  0.13432348535E+01  0.54603954251E+02  0.00000000000E+00 0. -1.
         11    1    1    2    0    0  0.18829673907E+02 -0.41325708580E+02  0.22392988545E+00  0.45413885032E+02  0.00000000000E+00 0.  1.
<mgrwt>
<rscale>  0 0.12345781E+03</rscale>
<asrwt>0</asrwt>
<pdfrwt beam="2">  1        4 0.11286909E-01 0.13243924E+03</pdfrwt>
<pdfrwt beam="1">  1       -4 0.35760931E-01 0.13243924E+03</pdfrwt>
<totfact> 0.77027894E+02</totfact>
</mgrwt>
</event>
<event>
 7    1  0.4230786E-006  0.1411724E+03  0.7546771E-02  0.1222526E+00
         -1   -1    0    0    0  501 -0.00000000000E+00  0.00000000000E+00  0.32151053309E+03  0.32151053309E+03  0.00000000000E+00 0.  1.
          1   -1    0    0  501    0  0.00000000000E+00 -0.00000000000E+00 -0.50076331056E+02  0.50076331056E+02  0.00000000000E+00 0. -1.
         23    2    1    2    0    0 -0.21426849046E+02 -0.62017043220E+02  0.14555742561E+03  0.20277229488E+03  0.12499766363E+03 0.  0.
          5    1    3    3  502    0 -0.16348806464E+02 -0.51957465317E+02 -0.20026367709E+01  0.54707972262E+02  0.47000000000E+01 0. -1.
         -5    1    3    3    0  502 -0.50780425815E+01 -0.10059577902E+02  0.14756006238E+03  0.14806432262E+03  0.47000000000E+01 0. -1.
        -11    1    1    2    0    0 -0.24023502400E+01  0.34235564180E+02 -0.33704003492E+01  0.34484847976E+02  0.00000000000E+00 0. -1.
         11    1    1    2    0    0  0.23829199286E+02  0.27781479039E+02  0.12924717677E+03  0.13432972128E+03  0.00000000000E+00 0.  1.
<mgrwt>
<rscale>  0 0.13337922E+03</rscale>
<asrwt>0</asrwt>
<pdfrwt beam="2">  1        1 0.77040511E-02 0.14117237E+03</pdfrwt>
<pdfrwt beam="1">  1       -1 0.49463158E-01 0.14117237E+03</pdfrwt>
<totfact> 0.36926367E+03</totfact>
</mgrwt>
</event>
<event>
 7    1  0.4230786E-006  0.1326185E+03  0.7546771E-02  0.1236681E+00
          1   -1    0    0  501    0  0.00000000000E+00  0.00000000000E+00  0.31134626471E+03  0.31134626471E+03  0.00000000000E+00 0. -1.
         -1   -1    0    0    0  501 -0.00000000000E+00 -0.00000000000E+00 -0.44554550493E+02  0.44554550493E+02  0.00000000000E+00 0.  1.
         23    2    1    2    0    0 -0.24852864623E+02 -0.36677619541E+02  0.13010788519E+03  0.18578410758E+03  0.12499904074E+03 0.  0.
          5    1    3    3  502    0 -0.36794460569E+02  0.37880959174E+02  0.32119495633E+02  0.61988316611E+02  0.47000000000E+01 0.  1.
         -5    1    3    3    0  502  0.11941595946E+02 -0.74558578716E+02  0.97988389559E+02  0.12379579097E+03  0.47000000000E+01 0.  1.
        -11    1    1    2    0    0 -0.11793292090E+02  0.42819558467E+02  0.22000855712E+02  0.49564442675E+02  0.00000000000E+00 0.  1.
         11    1    1    2    0    0  0.36646156713E+02 -0.61419389257E+01  0.11468297331E+03  0.12055226495E+03  0.00000000000E+00 0. -1.
<mgrwt>
<rscale>  0 0.12397436E+03</rscale>
<asrwt>0</asrwt>
<pdfrwt beam="1">  1        1 0.47899424E-01 0.13261852E+03</pdfrwt>
<pdfrwt beam="2">  1       -1 0.68545464E-02 0.13261852E+03</pdfrwt>
<totfact> 0.86379107E+03</totfact>
</mgrwt>
</event>
<event>
 7    1  0.4230786E-006  0.1268382E+03  0.7546771E-02  0.1264297E+00
         -2   -1    0    0    0  501 -0.00000000000E+00  0.00000000000E+00  0.57126546509E+02  0.57126546509E+02  0.00000000000E+00 0.  1.
          2   -1    0    0  501    0  0.00000000000E+00 -0.00000000000E+00 -0.21503921566E+03  0.21503921566E+03  0.00000000000E+00 0. -1.
         23    2    1    2    0    0  0.11487386705E+02  0.18166802071E+02 -0.33798536554E+02  0.13126413993E+03  0.12500376237E+03 0.  0.
          5    1    3    3  502    0 -0.81470649643E+01 -0.18392975992E+02  0.40821880733E+02  0.45751417245E+02  0.47000000000E+01 0. -1.
         -5    1    3    3    0  502  0.19634451669E+02  0.36559778063E+02 -0.74620417287E+02  0.85512722681E+02  0.47000000000E+01 0. -1.
        -11    1    1    2    0    0 -0.26732751423E+02  0.78857094412E+01 -0.94847015925E+02  0.98857376264E+02  0.00000000000E+00 0. -1.
         11    1    1    2    0    0  0.15245364718E+02 -0.26052511512E+02 -0.29267116673E+02  0.42044245978E+02  0.00000000000E+00 0.  1.
<mgrwt>
<rscale>  0 0.10801145E+03</rscale>
<asrwt>0</asrwt>
<pdfrwt beam="2">  1        2 0.33082957E-01 0.12683822E+03</pdfrwt>
<pdfrwt beam="1">  1       -2 0.87886994E-02 0.12683822E+03</pdfrwt>
<totfact> 0.11992745E+04</totfact>
</mgrwt>
</event>
<event>
 7    1  0.4230786E-006  0.1430704E+03  0.7546771E-02  0.1219868E+00
          1   -1    0    0  501    0  0.00000000000E+00  0.00000000000E+00  0.41255039946E+03  0.41255039946E+03  0.00000000000E+00 0. -1.
         -1   -1    0    0    0  501 -0.00000000000E+00 -0.00000000000E+00 -0.11723655798E+03  0.11723655798E+03  0.00000000000E+00 0.  1.
         23    2    1    2    0    0  0.47424638462E+02  0.50940380325E+02 -0.61051665784E+02  0.15555205315E+03  0.12500046665E+03 0.  0.
          5    1    3    3  502    0 -0.26115800536E+01 -0.27619573624E+02 -0.55381933937E+02  0.62120123987E+02  0.47000000000E+01 0. -1.
         -5    1    3    3    0  502  0.50036218516E+02  0.78559953949E+02 -0.56697318471E+01  0.93431929163E+02  0.47000000000E+01 0. -1.
        -11    1    1    2    0    0 -0.39524529228E+02  0.18990986880E+02  0.14125090972E+03  0.14790086372E+03  0.00000000000E+00 0.  1.
         11    1    1    2    0    0 -0.79001092346E+01 -0.69931367206E+02  0.21511459755E+03  0.22633404058E+03  0.00000000000E+00 0. -1.
<mgrwt>
<rscale>  0 0.13524962E+03</rscale>
<asrwt>0</asrwt>
<pdfrwt beam="1">  1        1 0.63469291E-01 0.14307039E+03</pdfrwt>
<pdfrwt beam="2">  1       -1 0.18036394E-01 0.14307039E+03</pdfrwt>
<totfact> 0.13751560E+03</totfact>
</mgrwt>
</event>
<event>
 7    1  0.4413854E-006  0.2709313E+03  0.7546771E-02  0.1102715E+00
         -1   -1    0    0    0  501 -0.00000000000E+00  0.00000000000E+00  0.11477913713E+03  0.11477913713E+03  0.00000000000E+00 0.  1.
          1   -1    0    0  501    0  0.00000000000E+00 -0.00000000000E+00 -0.64987895519E+03  0.64987895519E+03  0.00000000000E+00 0. -1.
         23    2    1    2    0    0  0.47085863377E+02  0.23571694062E+03 -0.17711556930E+03  0.32368763915E+03  0.12499683285E+03 0.  0.
          5    1    3    3  502    0  0.16749154786E+02  0.65524732725E+02 -0.12645460399E+03  0.14348129375E+03  0.47000000000E+01 0.  1.
         -5    1    3    3    0  502  0.30336708591E+02  0.17019220789E+03 -0.50660965304E+02  0.18020634540E+03  0.47000000000E+01 0.  1.
        -11    1    1    2    0    0  0.19959990671E+02 -0.92085333528E+02 -0.17598988344E+03  0.19962602273E+03  0.00000000000E+00 0.  1.
         11    1    1    2    0    0 -0.67045854048E+02 -0.14363160709E+03 -0.18199436532E+03  0.24134443045E+03  0.00000000000E+00 0. -1.
<mgrwt>
<rscale>  0 0.26750714E+03</rscale>
<asrwt>0</asrwt>
<pdfrwt beam="2">  1        1 0.99981377E-01 0.27093129E+03</pdfrwt>
<pdfrwt beam="1">  1       -1 0.17658329E-01 0.27093129E+03</pdfrwt>
<totfact> 0.77836740E+02</totfact>
</mgrwt>
</event>
<event>
 6    1  0.4230786E-006  0.3505386E+03  0.7546771E-02  0.1110273E+00
         -1   -1    0    0    0  501 -0.00000000000E+00  0.00000000000E+00  0.60913697510E+02  0.60913697510E+02  0.00000000000E+00 0.  1.
          1   -1    0    0  501    0  0.00000000000E+00 -0.00000000000E+00 -0.90569807194E+03  0.90569807194E+03  0.00000000000E+00 0. -1.
          5    1    1    2  502    0  0.59569470238E+02  0.94677143617E+01 -0.52830323584E+03  0.53175610800E+03  0.47000000000E+01 0. -1.
         -5    1    1    2    0  502 -0.85795562703E+02 -0.35861730015E+02  0.10333940221E+02  0.93679360478E+02  0.47000000000E+01 0.  1.
        -11    1    1    2    0    0  0.71888658379E+01  0.49791361104E+02 -0.28618668852E+03  0.29057474102E+03  0.00000000000E+00 0. -1.
         11    1    1    2    0    0  0.19037226627E+02 -0.23397345451E+02 -0.40628390294E+02  0.50601559953E+02  0.00000000000E+00 0.  1.
<mgrwt>
<rscale>  0 0.25485737E+03</rscale>
<asrwt>0</asrwt>
<pdfrwt beam="2">  1        1 0.13933816E+00 0.35053863E+03</pdfrwt>
<pdfrwt beam="1">  1       -1 0.93713382E-02 0.35053863E+03</pdfrwt>
<totfact> 0.12742678E+03</totfact>
</mgrwt>
</event>
<event>
 7    1  0.4230786E-006  0.1283954E+03  0.7546771E-02  0.1243727E+00
          2   -1    0    0  501    0  0.00000000000E+00  0.00000000000E+00  0.21000239400E+03  0.21000239400E+03  0.00000000000E+00 0.  1.
         -2   -1    0    0    0  501 -0.00000000000E+00 -0.00000000000E+00 -0.68944144331E+02  0.68944144331E+02  0.00000000000E+00 0. -1.
         23    2    1    2    0    0  0.73194170227E+01 -0.28406984162E+02  0.30347887102E+02  0.13193321432E+03  0.12499939270E+03 0.  0.
          5    1    3    3  502    0  0.90951810823E+01 -0.71812730419E+02  0.45566556052E+02  0.85663245325E+02  0.47000000000E+01 0.  1.
         -5    1    3    3    0  502 -0.17757640596E+01  0.43405746257E+02 -0.15218668951E+02  0.46269968994E+02  0.47000000000E+01 0.  1.
        -11    1    1    2    0    0 -0.24926588731E+02 -0.28006647498E+02  0.39198283931E+02  0.54242166190E+02  0.00000000000E+00 0. -1.
         11    1    1    2    0    0  0.17607171708E+02  0.56413631661E+02  0.71512078638E+02  0.92771157823E+02  0.00000000000E+00 0.  1.
<mgrwt>
<rscale>  0 0.11961872E+03</rscale>
<asrwt>0</asrwt>
<pdfrwt beam="1">  1        2 0.32308060E-01 0.12839540E+03</pdfrwt>
<pdfrwt beam="2">  1       -2 0.10606792E-01 0.12839540E+03</pdfrwt>
<totfact> 0.91759049E+03</totfact>
</mgrwt>
</event>
<event>
 7    1  0.4230786E-006  0.1702061E+03  0.7546771E-02  0.1183708E+00
         -1   -1    0    0    0  501 -0.00000000000E+00  0.00000000000E+00  0.18203510092E+03  0.18203510092E+03  0.00000000000E+00 0.  1.
          1   -1    0    0  501    0  0.00000000000E+00 -0.00000000000E+00 -0.24150527457E+03  0.24150527457E+03  0.00000000000E+00 0. -1.
         23    2    1    2    0    0  0.10623507566E+03 -0.44498320007E+02  0.10654030168E+03  0.20080081964E+03  0.12531616617E+03 0.  0.
          5    1    3    3  502    0  0.38772876963E+02 -0.62065583065E+02  0.10843672395E+03  0.13090487268E+03  0.47000000000E+01 0. -1.
         -5    1    3    3    0  502  0.67462198698E+02  0.17567263058E+02 -0.18964222756E+01  0.69895946964E+02  0.47000000000E+01 0. -1.
        -11    1    1    2    0    0 -0.59760796209E+01  0.47751114860E+02 -0.50679376061E+02  0.69887635930E+02  0.00000000000E+00 0.  1.
         11    1    1    2    0    0 -0.10025899604E+03 -0.32527948532E+01 -0.11533109927E+03  0.15285191991E+03  0.00000000000E+00 0. -1.
<mgrwt>
<rscale>  0 0.16450002E+03</rscale>
<asrwt>0</asrwt>
<pdfrwt beam="2">  1        1 0.37154658E-01 0.17020615E+03</pdfrwt>
<pdfrwt beam="1">  1       -1 0.28005400E-01 0.17020615E+03</pdfrwt>
<totfact> 0.13145732E+03</totfact>
</mgrwt>
</event>
<event>
 7    1  0.4230786E-006  0.2105913E+03  0.7546771E-02  0.1142422E+00
          2   -1    0    0  501    0  0.00000000000E+00  0.00000000000E+00  0.10245754385E+04  0.10245754385E+04  0.00000000000E+00 0. -1.
         -2   -1    0    0    0  501 -0.00000000000E+00 -0.00000000000E+00 -0.41942079380E+02  0.41942079380E+02  0.00000000000E+00 0.  1.
         23    2    1    2    0    0 -0.15488523805E+03 -0.68466420763E+02  0.47996873749E+03  0.52152172619E+03  0.11374460068E+03 0.  0.
          5    1    3    3  502    0 -0.40862900558E+02 -0.44542195536E+02  0.30695231127E+03  0.31288271799E+03  0.47000000000E+01 0. -1.
         -5    1    3    3    0  502 -0.11402233749E+03 -0.23924225227E+02  0.17301642622E+03  0.20863900820E+03  0.47000000000E+01 0.  1.
        -11    1    1    2    0    0  0.19018708327E+02  0.63968614352E+02  0.24173532767E+03  0.25077811613E+03  0.00000000000E+00 0.  1.
         11    1    1    2    0    0  0.13586652972E+03  0.44978064117E+01  0.26092929394E+03  0.29421767553E+03  0.00000000000E+00 0. -1.
<mgrwt>
<rscale>  0 0.20892309E+03</rscale>
<asrwt>0</asrwt>
<pdfrwt beam="1">  1        2 0.15762697E+00 0.21059129E+03</pdfrwt>
<pdfrwt beam="2">  1       -2 0.64526284E-02 0.21059129E+03</pdfrwt>
<totfact> 0.33331537E+03</totfact>
</mgrwt>
</event>
<event>
 7    1  0.4230786E-006  0.2716074E+03  0.7546771E-02  0.1100503E+00
          2   -1    0    0  501    0  0.00000000000E+00  0.00000000000E+00  0.79197309912E+02  0.79197309912E+02  0.00000000000E+00 0. -1.
         -2   -1    0    0    0  501 -0.00000000000E+00 -0.00000000000E+00 -0.93245668545E+03  0.93245668545E+03  0.00000000000E+00 0.  1.
         23    2    1    2    0    0  0.22253927734E+03  0.92868639477E+02 -0.39282597016E+03  0.47758019532E+03  0.12498914341E+03 0.  0.
          5    1    3    3  502    0  0.18969481428E+03  0.10213245221E+03 -0.24722446572E+03  0.32795912369E+03  0.47000000000E+01 0. -1.
         -5    1    3    3    0  502  0.32844463058E+02 -0.92638127349E+01 -0.14560150444E+03  0.14962107163E+03  0.47000000000E+01 0. -1.
        -11    1    1    2    0    0 -0.28397814392E+02 -0.38608863134E+02 -0.24582563076E+02  0.53864483495E+02  0.00000000000E+00 0. -1.
         11    1    1    2    0    0 -0.19414146295E+03 -0.54259776343E+02 -0.43585084230E+03  0.48020931655E+03  0.00000000000E+00 0.  1.
<mgrwt>
<rscale>  0 0.27136057E+03</rscale>
<asrwt>0</asrwt>
<pdfrwt beam="1">  1        2 0.12184201E-01 0.27160744E+03</pdfrwt>
<pdfrwt beam="2">  1       -2 0.14345488E+00 0.27160744E+03</pdfrwt>
<totfact> 0.17866752E+02</totfact>
</mgrwt>
</event>
<event>
 7    1  0.4230786E-006  0.1385461E+03  0.7546771E-02  0.1226442E+00
          2   -1    0    0  501    0  0.00000000000E+00  0.00000000000E+00  0.38379795985E+03  0.38379795985E+03  0.00000000000E+00 0. -1.
         -2   -1    0    0    0  501 -0.00000000000E+00 -0.00000000000E+00 -0.61449822306E+02  0.61449822306E+02  0.00000000000E+00 0.  1.
         23    2    1    2    0    0  0.59451377005E+02 -0.59721232479E+01  0.42883243063E+02  0.14503097274E+03  0.12499951214E+03 0.  0.
          5    1    3    3  502    0 -0.17507825161E+02  0.38116692045E+02 -0.75729565342E+01  0.42881765647E+02  0.47000000000E+01 0. -1.
         -5    1    3    3    0  502  0.76959202166E+02 -0.44088815293E+02  0.50456199598E+02  0.10214920709E+03  0.47000000000E+01 0. -1.
        -11    1    1    2    0    0 -0.33153015286E+00  0.37488873212E+02  0.59963134357E+02  0.70718477139E+02  0.00000000000E+00 0.  1.
         11    1    1    2    0    0 -0.59119846852E+02 -0.31516749964E+02  0.21950176012E+03  0.22949833227E+03  0.00000000000E+00 0. -1.
<mgrwt>
<rscale>  0 0.13068526E+03</rscale>
<asrwt>0</asrwt>
<pdfrwt beam="1">  1        2 0.59045839E-01 0.13854606E+03</pdfrwt>
<pdfrwt beam="2">  1       -2 0.94538190E-02 0.13854606E+03</pdfrwt>
<totfact> 0.58188941E+03</totfact>
</mgrwt>
</event>
<event>
 7    1  0.4230786E-006  0.1289850E+03  0.7546771E-02  0.1239478E+00
         -3   -1    0    0    0  501 -0.00000000000E+00  0.00000000000E+00  0.18518343227E+03  0.18518343227E+03  0.00000000000E+00 0.  1.
          3   -1    0    0  501    0  0.00000000000E+00 -0.00000000000E+00 -0.81148573338E+02  0.81148573338E+02  0.00000000000E+00 0. -1.
         23    2    1    2    0    0 -0.52267578988E+02 -0.29552553318E+02  0.98333197397E+02  0.16219292085E+03  0.11415722773E+03 0.  0.
          5    1    3    3  502    0  0.27664020171E+02 -0.38452082215E+02  0.45510604248E+02  0.65857161628E+02  0.47000000000E+01 0. -1.
         -5    1    3    3    0  502 -0.79931599159E+02  0.88995288972E+01  0.52822593149E+02  0.96335759226E+02  0.47000000000E+01 0.  1.
        -11    1    1    2    0    0  0.41332841978E+02  0.28127513714E+02 -0.35609978724E+02  0.61381034843E+02  0.00000000000E+00 0. -1.
         11    1    1    2    0    0  0.10934737010E+02  0.14250396040E+01  0.41311640258E+02  0.42758049911E+02  0.00000000000E+00 0.  1.
<mgrwt>
<rscale>  0 0.12222072E+03</rscale>
<asrwt>0</asrwt>
<pdfrwt beam="2">  1        3 0.12484396E-01 0.12898498E+03</pdfrwt>
<pdfrwt beam="1">  1       -3 0.28489759E-01 0.12898498E+03</pdfrwt>
<totfact> 0.13691674E+03</totfact>
</mgrwt>
</event>
<event>
 7    1  0.4230786E-006  0.1592292E+03  0.7546771E-02  0.1197669E+00
         -3   -1    0    0    0  501 -0.00000000000E+00  0.00000000000E+00  0.35484432325E+02  0.35484432325E+02  0.00000000000E+00 0.  1.
          3   -1    0    0  501    0  0.00000000000E+00 -0.00000000000E+00 -0.61877880690E+03  0.61877880690E+03  0.00000000000E+00 0. -1.
         23    2    1    2    0    0 -0.17204571939E+02 -0.97148336091E+02 -0.26454310170E+03  0.30876688730E+03  0.12498056462E+03 0.  0.
          5    1    3    3  502    0 -0.31253807462E+02 -0.12287295555E+03 -0.23395623036E+03  0.26614314082E+03  0.47000000000E+01 0. -1.
         -5    1    3    3    0  502  0.14049235524E+02  0.25724619454E+02 -0.30586871348E+02  0.42623746477E+02  0.47000000000E+01 0. -1.
        -11    1    1    2    0    0 -0.24609136291E+01  0.10932822898E+03 -0.27626118513E+03  0.29711775470E+03  0.00000000000E+00 0.  1.
         11    1    1    2    0    0  0.19665485568E+02 -0.12179892888E+02 -0.42490087740E+02  0.48378597226E+02  0.00000000000E+00 0. -1.
<mgrwt>
<rscale>  0 0.15230486E+03</rscale>
<asrwt>0</asrwt>
<pdfrwt beam="2">  1        3 0.95196733E-01 0.15922920E+03</pdfrwt>
<pdfrwt beam="1">  1       -3 0.54591438E-02 0.15922920E+03</pdfrwt>
<totfact> 0.47689650E+02</totfact>
</mgrwt>
</event>
<event>
 6    1  0.4230786E-006  0.3718806E+03  0.7546771E-02  0.1096361E+00
          2   -1    0    0  501    0  0.00000000000E+00  0.00000000000E+00  0.41378405680E+02  0.41378405680E+02  0.00000000000E+00 0. -1.
         -2   -1    0    0    0  501 -0.00000000000E+00 -0.00000000000E+00 -0.14652250717E+04  0.14652250717E+04  0.00000000000E+00 0.  1.
          5    1    1    2  502    0  0.11550466082E+02 -0.70297510683E+02 -0.14239172440E+02  0.72801080395E+02  0.47000000000E+01 0. -1.
         -5    1    1    2    0  502 -0.66485105826E+01  0.88957947313E+01 -0.11359189901E+04  0.11359830016E+04  0.47000000000E+01 0.  1.
        -11    1    1    2    0    0  0.32655058305E+02  0.19683224007E+02 -0.20776624648E+03  0.21123587601E+03  0.00000000000E+00 0.  1.
         11    1    1    2    0    0 -0.37557013804E+02  0.41718491944E+02 -0.65922256948E+02  0.86583519315E+02  0.00000000000E+00 0. -1.
<mgrwt>
<rscale>  0 0.27877387E+03</rscale>
<asrwt>0</asrwt>
<pdfrwt beam="1">  1        2 0.63659092E-02 0.37188057E+03</pdfrwt>
<pdfrwt beam="2">  1       -2 0.22541922E+00 0.37188057E+03</pdfrwt>
<totfact> 0.11402564E+02</totfact>
</mgrwt>
</event>
<event>
 7    1  0.4230786E-006  0.1666827E+03  0.7546771E-02  0.1188222E+00
         -2   -1    0    0    0  501 -0.00000000000E+00  0.00000000000E+00  0.17615661906E+03  0.17615661906E+03  0.00000000000E+00 0.  1.
          2   -1    0    0  501    0  0.00000000000E+00 -0.00000000000E+00 -0.14425754672E+03  0.14425754672E+03  0.00000000000E+00 0. -1.
         23    2    1    2    0    0  0.81363988813E+02 -0.74335420408E+02  0.55054181005E+02  0.17553943281E+03  0.12504909525E+03 0.  0.
          5    1    3    3  502    0 -0.90207162187E+01  0.26359622497E+02  0.22931931592E+02  0.36389098722E+02  0.47000000000E+01 0. -1.
         -5    1    3    3    0  502  0.90384705032E+02 -0.10069504290E+03  0.32122249414E+02  0.13915033409E+03  0.47000000000E+01 0. -1.
        -11    1    1    2    0    0 -0.66991773094E+02  0.92888267890E+01 -0.36622531045E+02  0.76911570947E+02  0.00000000000E+00 0. -1.
         11    1    1    2    0    0 -0.14372215719E+02  0.65046593619E+02  0.13467422379E+02  0.67963162019E+02  0.00000000000E+00 0.  1.
<mgrwt>
<rscale>  0 0.16042104E+03</rscale>
<asrwt>0</asrwt>
<pdfrwt beam="2">  1        2 0.22193469E-01 0.16668272E+03</pdfrwt>
<pdfrwt beam="1">  1       -2 0.27101018E-01 0.16668272E+03</pdfrwt>
<totfact> 0.29529303E+03</totfact>
</mgrwt>
</event>
<event>
 7    1  0.4230786E-006  0.1286997E+03  0.7546771E-02  0.1242789E+00
          1   -1    0    0  501    0  0.00000000000E+00  0.00000000000E+00  0.28412756650E+02  0.28412756650E+02  0.00000000000E+00 0. -1.
         -1   -1    0    0    0  501 -0.00000000000E+00 -0.00000000000E+00 -0.61845985429E+03  0.61845985429E+03  0.00000000000E+00 0.  1.
         23    2    1    2    0    0 -0.12012592157E+02  0.28227886757E+02 -0.49113264022E+03  0.50771536066E+03  0.12499000439E+03 0.  0.
          5    1    3    3  502    0 -0.46954760351E+01  0.56350706586E+02 -0.96198407327E+02  0.11168559979E+03  0.47000000000E+01 0.  1.
         -5    1    3    3    0  502 -0.73171161222E+01 -0.28122819829E+02 -0.39493423290E+03  0.39602976087E+03  0.47000000000E+01 0.  1.
        -11    1    1    2    0    0 -0.13794105190E+02 -0.55381420597E+02 -0.76701482796E+02  0.95605944106E+02  0.00000000000E+00 0.  1.
         11    1    1    2    0    0  0.25806697347E+02  0.27153533839E+02 -0.22212974622E+02  0.43551306174E+02  0.00000000000E+00 0. -1.
<mgrwt>
<rscale>  0 0.12018705E+03</rscale>
<asrwt>0</asrwt>
<pdfrwt beam="1">  1        1 0.43711939E-02 0.12869972E+03</pdfrwt>
<pdfrwt beam="2">  1       -1 0.95147658E-01 0.12869972E+03</pdfrwt>
<totfact> 0.21849440E+03</totfact>
</mgrwt>
</event>
<event>
 7    1  0.4230786E-006  0.1278307E+03  0.7546771E-02  0.1240462E+00
         -3   -1    0    0    0  501 -0.00000000000E+00  0.00000000000E+00  0.10131926496E+04  0.10131926496E+04  0.00000000000E+00 0.  1.
          3   -1    0    0  501    0  0.00000000000E+00 -0.00000000000E+00 -0.14075145078E+02  0.14075145078E+02  0.00000000000E+00 0. -1.
         23    2    1    2    0    0  0.10285466919E+02 -0.24713142432E+02  0.66325114591E+03  0.67545746024E+03  0.12499667115E+03 0.  0.
          5    1    3    3  502    0  0.47589000784E+02  0.30177937070E+02  0.39761991739E+03  0.40162060403E+03  0.47000000000E+01 0.  1.
         -5    1    3    3    0  502 -0.37303533865E+02 -0.54891079502E+02  0.26563122852E+03  0.27383685620E+03  0.47000000000E+01 0.  1.
        -11    1    1    2    0    0  0.22299693621E+02  0.46631227953E+02  0.27175828191E+03  0.27663027951E+03  0.00000000000E+00 0.  1.
         11    1    1    2    0    0 -0.32585160540E+02 -0.21918085521E+02  0.64108076675E+02  0.75180054904E+02  0.00000000000E+00 0. -1.
<mgrwt>
<rscale>  0 0.12161135E+03</rscale>
<asrwt>0</asrwt>
<pdfrwt beam="2">  1        3 0.21654077E-02 0.12783074E+03</pdfrwt>
<pdfrwt beam="1">  1       -3 0.15587574E+00 0.12783074E+03</pdfrwt>
<totfact> 0.60397223E+02</totfact>
</mgrwt>
</event>
<event>
 6    1  0.4230786E-006  0.1519167E+03  0.7546771E-02  0.1219532E+00
          1   -1    0    0  501    0  0.00000000000E+00  0.00000000000E+00  0.33123265535E+02  0.33123265535E+02  0.00000000000E+00 0. -1.
         -1   -1    0    0    0  501 -0.00000000000E+00 -0.00000000000E+00 -0.47704903913E+03  0.47704903913E+03  0.00000000000E+00 0.  1.
          5    1    1    2  502    0  0.14958606872E+02  0.31206673462E+02 -0.20916180302E+01  0.34986872597E+02  0.47000000000E+01 0. -1.
         -5    1    1    2    0  502 -0.72727569387E+01 -0.35965123926E+02 -0.30910468576E+03  0.31131042368E+03  0.47000000000E+01 0.  1.
        -11    1    1    2    0    0 -0.30620975590E+02 -0.12319985933E+02 -0.13114616379E+03  0.13523587717E+03  0.00000000000E+00 0.  1.
         11    1    1    2    0    0  0.22935125657E+02  0.17078436398E+02 -0.15833060179E+01  0.28639131213E+02  0.00000000000E+00 0. -1.
<mgrwt>
<rscale>  0 0.13548799E+03</rscale>
<asrwt>0</asrwt>
<pdfrwt beam="1">  1        1 0.50958871E-02 0.15191668E+03</pdfrwt>
<pdfrwt beam="2">  1       -1 0.73392159E-01 0.15191668E+03</pdfrwt>
<totfact> 0.30622853E+03</totfact>
</mgrwt>
</event>
<event>
 7    1  0.4230786E-006  0.1298640E+03  0.7546771E-02  0.1243264E+00
         -3   -1    0    0    0  501 -0.00000000000E+00  0.00000000000E+00  0.19076467260E+03  0.19076467260E+03  0.00000000000E+00 0.  1.
          3   -1    0    0  501    0  0.00000000000E+00 -0.00000000000E+00 -0.66314012627E+02  0.66314012627E+02  0.00000000000E+00 0. -1.
         23    2    1    2    0    0 -0.14222777555E+02 -0.32207218154E+02  0.82182508456E+02  0.15368349910E+03  0.12500024359E+03 0.  0.
          5    1    3    3  502    0 -0.71736264269E+01  0.48200042625E+02  0.33161473684E+02  0.59131027067E+02  0.47000000000E+01 0. -1.
         -5    1    3    3    0  502 -0.70491511279E+01 -0.80407260779E+02  0.49021034772E+02  0.94552472034E+02  0.47000000000E+01 0. -1.
        -11    1    1    2    0    0 -0.20760292731E+02  0.77325831297E+01 -0.18681910258E+02  0.28979240277E+02  0.00000000000E+00 0. -1.
         11    1    1    2    0    0  0.34983070286E+02  0.24474635025E+02  0.60950061776E+02  0.74415945850E+02  0.00000000000E+00 0.  1.
<mgrwt>
<rscale>  0 0.11989870E+03</rscale>
<asrwt>0</asrwt>
<pdfrwt beam="2">  1        3 0.10202156E-01 0.12986398E+03</pdfrwt>
<pdfrwt beam="1">  1       -3 0.29348411E-01 0.12986398E+03</pdfrwt>
<totfact> 0.18170825E+03</totfact>
</mgrwt>
</event>
<event>
 7    1  0.4230786E-006  0.1328484E+03  0.7546771E-02  0.1236091E+00
         -1   -1    0    0    0  501 -0.00000000000E+00  0.00000000000E+00  0.33602631917E+03  0.33602631917E+03  0.00000000000E+00 0.  1.
          1   -1    0    0  501    0  0.00000000000E+00 -0.00000000000E+00 -0.46457661124E+02  0.46457661124E+02  0.00000000000E+00 0. -1.
         23    2    1    2    0    0 -0.44974116241E+02  0.65957189006E+00  0.22649150293E+03  0.26257780522E+03  0.12500238689E+03 0.  0.
          5    1    3    3  502    0  0.33957075505E+02  0.75842222396E-01  0.16209309092E+02  0.37919921283E+02  0.47000000000E+01 0. -1.
         -5    1    3    3    0  502 -0.78931191745E+02  0.58372966766E+00  0.21028219383E+03  0.22465788394E+03  0.47000000000E+01 0. -1.
        -11    1    1    2    0    0 -0.99758478767E+01  0.26232427248E+02 -0.48604445145E+01  0.28483007233E+02  0.00000000000E+00 0. -1.
         11    1    1    2    0    0  0.54949964118E+02 -0.26891999138E+02  0.67937599633E+02  0.91423167841E+02  0.00000000000E+00 0.  1.
<mgrwt>
<rscale>  0 0.12434834E+03</rscale>
<asrwt>0</asrwt>
<pdfrwt beam="2">  1        1 0.71473327E-02 0.13284842E+03</pdfrwt>
<pdfrwt beam="1">  1       -1 0.51696355E-01 0.13284842E+03</pdfrwt>
<totfact> 0.37544791E+03</totfact>
</mgrwt>
</event>
<event>
 6    1  0.4230786E-006  0.1916354E+03  0.7546771E-02  0.1178084E+00
         -1   -1    0    0    0  501 -0.00000000000E+00  0.00000000000E+00  0.34205626724E+02  0.34205626724E+02  0.00000000000E+00 0.  1.
          1   -1    0    0  501    0  0.00000000000E+00 -0.00000000000E+00 -0.77096446368E+03  0.77096446368E+03  0.00000000000E+00 0. -1.
          5    1    1    2  502    0  0.18336855814E+02 -0.30699867297E+02 -0.52760857753E+01  0.36450640794E+02  0.47000000000E+01 0. -1.
         -5    1    1    2    0  502 -0.27533210119E+01  0.11691603915E+03 -0.32450403928E+03  0.34496652373E+03  0.47000000000E+01 0.  1.
        -11    1    1    2    0    0 -0.33997013608E+02 -0.50814377475E+01 -0.13692378299E+03  0.14117273212E+03  0.00000000000E+00 0.  1.
         11    1    1    2    0    0  0.18413478806E+02 -0.81134734101E+02 -0.27005492891E+03  0.28258019376E+03  0.00000000000E+00 0. -1.
<mgrwt>
<rscale>  0 0.16977340E+03</rscale>
<asrwt>0</asrwt>
<pdfrwt beam="2">  1        1 0.11860992E+00 0.19163539E+03</pdfrwt>
<pdfrwt beam="1">  1       -1 0.52624040E-02 0.19163539E+03</pdfrwt>
<totfact> 0.39245981E+03</totfact>
</mgrwt>
</event>
<event>
 7    1  0.4230786E-006  0.1348092E+03  0.7546771E-02  0.1231697E+00
          1   -1    0    0  501    0  0.00000000000E+00  0.00000000000E+00  0.44133974703E+03  0.44133974703E+03  0.00000000000E+00 0. -1.
         -1   -1    0    0    0  501 -0.00000000000E+00 -0.00000000000E+00 -0.33138448051E+02  0.33138448051E+02  0.00000000000E+00 0.  1.
         23    2    1    2    0    0  0.17222257030E+02 -0.47442625127E+02  0.23877031936E+03  0.27419842601E+03  0.12500441034E+03 0.  0.
          5    1    3    3  502    0  0.14367646791E+01 -0.67843411000E+02  0.23846544902E+03  0.24797712210E+03  0.47000000000E+01 0. -1.
         -5    1    3    3    0  502  0.15785492351E+02  0.20400785873E+02  0.30487034355E+00  0.26221303914E+02  0.47000000000E+01 0. -1.
        -11    1    1    2    0    0  0.87161149301E+01  0.34945003254E+02  0.16760371612E+03  0.17142966362E+03  0.00000000000E+00 0. -1.
         11    1    1    2    0    0 -0.25938371960E+02  0.12497621873E+02  0.18272634958E+01  0.28850105447E+02  0.00000000000E+00 0.  1.
<mgrwt>
<rscale>  0 0.12718242E+03</rscale>
<asrwt>0</asrwt>
<pdfrwt beam="1">  1        1 0.67898418E-01 0.13480917E+03</pdfrwt>
<pdfrwt beam="2">  1       -1 0.50982231E-02 0.13480917E+03</pdfrwt>
<totfact> 0.86752074E+03</totfact>
</mgrwt>
</event>
<event>
 7    1  0.4230786E-006  0.1468055E+03  0.7546771E-02  0.1213958E+00
         -4   -1    0    0    0  501 -0.00000000000E+00  0.00000000000E+00  0.77555915961E+02  0.77555915961E+02  0.00000000000E+00 0.  1.
          4   -1    0    0  501    0  0.00000000000E+00 -0.00000000000E+00 -0.22996747873E+03  0.22996747873E+03  0.00000000000E+00 0. -1.
         23    2    1    2    0    0  0.43077835669E+02  0.63805584304E+02 -0.74679227375E+02  0.16470831046E+03  0.12499995207E+03 0.  0.
          5    1    3    3  502    0  0.61047847347E+02  0.66106269314E+02 -0.24979426651E+01  0.90139936908E+02  0.47000000000E+01 0.  1.
         -5    1    3    3    0  502 -0.17970011678E+02 -0.23006850096E+01 -0.72181284710E+02  0.74568373548E+02  0.47000000000E+01 0.  1.
        -11    1    1    2    0    0  0.26683016016E+02 -0.26624503921E+02 -0.10736380339E+02  0.39193333815E+02  0.00000000000E+00 0. -1.
         11    1    1    2    0    0 -0.69760851686E+02 -0.37181080383E+02 -0.66995955055E+02  0.10362175042E+03  0.00000000000E+00 0.  1.
<mgrwt>
<rscale>  0 0.13953322E+03</rscale>
<asrwt>0</asrwt>
<pdfrwt beam="2">  1        4 0.35379612E-01 0.14680545E+03</pdfrwt>
<pdfrwt beam="1">  1       -4 0.11931679E-01 0.14680545E+03</pdfrwt>
<totfact> 0.73010083E+02</totfact>
</mgrwt>
</event>
<event>
 7    1  0.4230786E-006  0.1927047E+03  0.7546771E-02  0.1160927E+00
          2   -1    0    0  501    0  0.00000000000E+00  0.00000000000E+00  0.17365668383E+03  0.17365668383E+03  0.00000000000E+00 0. -1.
         -2   -1    0    0    0  501 -0.00000000000E+00 -0.00000000000E+00 -0.19596938738E+03  0.19596938738E+03  0.00000000000E+00 0.  1.
         23    2    1    2    0    0  0.11801297430E+03  0.87091462777E+02 -0.39859318483E+02  0.19678383653E+03  0.12499251201E+03 0.  0.
          5    1    3    3  502    0  0.62610312765E+00 -0.19342452626E+02 -0.32465753499E+02  0.38087237088E+02  0.47000000000E+01 0.  1.
         -5    1    3    3    0  502  0.11738687118E+03  0.10643391540E+03 -0.73935649838E+01  0.15869659945E+03  0.47000000000E+01 0.  1.
        -11    1    1    2    0    0 -0.11044799463E+03 -0.76921246192E+02 -0.17356503917E+02  0.13570882750E+03  0.00000000000E+00 0.  1.
         11    1    1    2    0    0 -0.75649796766E+01 -0.10170216585E+02  0.34903118853E+02  0.37133407177E+02  0.00000000000E+00 0. -1.
<mgrwt>
<rscale>  0 0.18729206E+03</rscale>
<asrwt>0</asrwt>
<pdfrwt beam="1">  1        2 0.26716413E-01 0.19270473E+03</pdfrwt>
<pdfrwt beam="2">  1       -2 0.30149136E-01 0.19270473E+03</pdfrwt>
<totfact> 0.19951096E+03</totfact>
</mgrwt>
</event>
<event>
 6    1  0.4230786E-006  0.1800727E+03  0.7546771E-02  0.1176204E+00
          1   -1    0    0  501    0  0.00000000000E+00  0.00000000000E+00  0.33281940321E+03  0.33281940321E+03  0.00000000000E+00 0. -1.
         -1   -1    0    0    0  501 -0.00000000000E+00 -0.00000000000E+00 -0.83618287542E+02  0.83618287542E+02  0.00000000000E+00 0.  1.
          5    1    1    2  502    0  0.59928496549E+01 -0.97145017212E+02  0.80439700536E+02  0.12635546699E+03  0.47000000000E+01 0. -1.
         -5    1    1    2    0  502 -0.36069679553E+02  0.68086804864E+02  0.19614812845E+02  0.79647132168E+02  0.47000000000E+01 0.  1.
        -11    1    1    2    0    0 -0.30727297231E+01  0.39087676895E+02 -0.15518163234E+02  0.42167541346E+02  0.00000000000E+00 0.  1.
         11    1    1    2    0    0  0.33149559622E+02 -0.10029464547E+02  0.16466476552E+03  0.16826755025E+03  0.00000000000E+00 0. -1.
<mgrwt>
<rscale>  0 0.17158642E+03</rscale>
<asrwt>0</asrwt>
<pdfrwt beam="1">  1        1 0.51202984E-01 0.18007267E+03</pdfrwt>
<pdfrwt beam="2">  1       -1 0.12864352E-01 0.18007267E+03</pdfrwt>
<totfact> 0.30910607E+03</totfact>
</mgrwt>
</event>
<event>
 7    1  0.4230786E-006  0.1776200E+03  0.7546771E-02  0.1175932E+00
         -2   -1    0    0    0  501 -0.00000000000E+00  0.00000000000E+00  0.18680029161E+03  0.18680029161E+03  0.00000000000E+00 0.  1.
          2   -1    0    0  501    0  0.00000000000E+00 -0.00000000000E+00 -0.16520482233E+03  0.16520482233E+03  0.00000000000E+00 0. -1.
         23    2    1    2    0    0  0.19762607411E+02 -0.12464712799E+03  0.67061039468E+02  0.18985796069E+03  0.12498557939E+03 0.  0.
          5    1    3    3  502    0 -0.79223176138E+01  0.35841289655E+01  0.57387015830E+02  0.58232024545E+02  0.47000000000E+01 0. -1.
         -5    1    3    3    0  502  0.27684925025E+02 -0.12823125695E+03  0.96740236387E+01  0.13162593615E+03  0.47000000000E+01 0. -1.
        -11    1    1    2    0    0  0.11944249032E+00  0.12058564931E+03 -0.62347615496E+02  0.13575027898E+03  0.00000000000E+00 0. -1.
         11    1    1    2    0    0 -0.19882049901E+02  0.40614786798E+01  0.16882045311E+02  0.26396874270E+02  0.00000000000E+00 0.  1.
<mgrwt>
<rscale>  0 0.17185055E+03</rscale>
<asrwt>0</asrwt>
<pdfrwt beam="2">  1        2 0.25416126E-01 0.17761999E+03</pdfrwt>
<pdfrwt beam="1">  1       -2 0.28738507E-01 0.17761999E+03</pdfrwt>
<totfact> 0.22918057E+03</totfact>
</mgrwt>
</event>
<event>
 6    1  0.4230786E-006  0.2144374E+03  0.7546771E-02  0.1160170E+00
          1   -1    0    0  501    0  0.00000000000E+00  0.00000000000E+00  0.62454006295E+02  0.62454006295E+02  0.00000000000E+00 0. -1.
         -1   -1    0    0    0  501 -0.00000000000E+00 -0.00000000000E+00 -0.47363298487E+03  0.47363298487E+03  0.00000000000E+00 0.  1.
          5    1    1    2  502    0 -0.36722978548E+02  0.88013997153E+02 -0.30806866152E+02  0.10033042335E+03  0.47000000000E+01 0. -1.
         -5    1    1    2    0  502 -0.18010640443E+02 -0.18976504903E+02 -0.25808326549E+03  0.25944855527E+03  0.47000000000E+01 0.  1.
        -11    1    1    2    0    0 -0.52040929460E+01 -0.38654667530E+02 -0.26555734542E+01  0.39093707622E+02  0.00000000000E+00 0. -1.
         11    1    1    2    0    0  0.59937711937E+02 -0.30382824719E+02 -0.11963327348E+03  0.13721430492E+03  0.00000000000E+00 0.  1.
<mgrwt>
<rscale>  0 0.18811766E+03</rscale>
<asrwt>0</asrwt>
<pdfrwt beam="1">  1        1 0.96083086E-02 0.21443742E+03</pdfrwt>
<pdfrwt beam="2">  1       -1 0.72866614E-01 0.21443742E+03</pdfrwt>
<totfact> 0.13298164E+03</totfact>
</mgrwt>
</event>
<event>
 7    1  0.4230786E-006  0.2226744E+03  0.7546771E-02  0.1135808E+00
          1   -1    0    0  501    0  0.00000000000E+00  0.00000000000E+00  0.12194884349E+04  0.12194884349E+04  0.00000000000E+00 0. -1.
         -1   -1    0    0    0  501 -0.00000000000E+00 -0.00000000000E+00 -0.37085361567E+02  0.37085361567E+02  0.00000000000E+00 0.  1.
         23    2    1    2    0    0 -0.38262552453E+02  0.18027317993E+03  0.60028959821E+03  0.64025892120E+03  0.12498576775E+03 0.  0.
          5    1    3    3  502    0 -0.80024103277E+02  0.84357411665E+02  0.27765909927E+03  0.30105928887E+03  0.47000000000E+01 0. -1.
         -5    1    3    3    0  502  0.41761550824E+02  0.95915768263E+02  0.32263049894E+03  0.33919963233E+03  0.47000000000E+01 0. -1.
        -11    1    1    2    0    0 -0.10544310551E+02 -0.36075028374E+02  0.22484397384E+03  0.22796359957E+03  0.00000000000E+00 0. -1.
         11    1    1    2    0    0  0.48806863003E+02 -0.14419815155E+03  0.35726950133E+03  0.38835127574E+03  0.00000000000E+00 0.  1.
<mgrwt>
<rscale>  0 0.21743763E+03</rscale>
<asrwt>0</asrwt>
<pdfrwt beam="1">  1        1 0.18761357E+00 0.22267439E+03</pdfrwt>
<pdfrwt beam="2">  1       -1 0.57054412E-02 0.22267439E+03</pdfrwt>
<totfact> 0.16008036E+03</totfact>
</mgrwt>
</event>
<event>
 7    1  0.4230786E-006  0.1251283E+03  0.7546771E-02  0.1248340E+00
          1   -1    0    0  501    0  0.00000000000E+00  0.00000000000E+00  0.32170047074E+03  0.32170047074E+03  0.00000000000E+00 0. -1.
         -1   -1    0    0    0  501 -0.00000000000E+00 -0.00000000000E+00 -0.45208943281E+02  0.45208943281E+02  0.00000000000E+00 0.  1.
         23    2    1    2    0    0 -0.55444367663E+01 -0.53294955392E+00  0.79907034901E+02  0.14846624620E+03  0.12500426881E+03 0.  0.
          5    1    3    3  502    0 -0.20270590335E+02  0.59017850489E+02  0.49770300402E+02  0.79957340570E+02  0.47000000000E+01 0. -1.
         -5    1    3    3    0  502  0.14726153569E+02 -0.59550800043E+02  0.30136734499E+02  0.68508905632E+02  0.47000000000E+01 0. -1.
        -11    1    1    2    0    0  0.31390353747E+02  0.10033295637E+02  0.18607253372E+03  0.18896827547E+03  0.00000000000E+00 0. -1.
         11    1    1    2    0    0 -0.25845916981E+02 -0.95003460831E+01  0.10511958837E+02  0.29474892347E+02  0.00000000000E+00 0.  1.
<mgrwt>
<rscale>  0 0.11687706E+03</rscale>
<asrwt>0</asrwt>
<pdfrwt beam="1">  1        1 0.49492379E-01 0.12512830E+03</pdfrwt>
<pdfrwt beam="2">  1       -1 0.69552223E-02 0.12512830E+03</pdfrwt>
<totfact> 0.80817034E+03</totfact>
</mgrwt>
</event>
<event>
 7    1  0.4230786E-006  0.1578670E+03  0.7546771E-02  0.1199010E+00
         -2   -1    0    0    0  501 -0.00000000000E+00  0.00000000000E+00  0.29019537718E+02  0.29019537718E+02  0.00000000000E+00 0.  1.
          2   -1    0    0  501    0  0.00000000000E+00 -0.00000000000E+00 -0.77384518723E+03  0.77384518723E+03  0.00000000000E+00 0. -1.
         23    2    1    2    0    0  0.57621056724E+02 -0.77301017387E+02 -0.49994934307E+03  0.52428173575E+03  0.12500543725E+03 0.  0.
          5    1    3    3  502    0  0.56447023275E+02  0.78974418333E+01 -0.32065450840E+03  0.32571466006E+03  0.47000000000E+01 0. -1.
         -5    1    3    3    0  502  0.11740334495E+01 -0.85198459220E+02 -0.17929483468E+03  0.19856707569E+03  0.47000000000E+01 0. -1.
        -11    1    1    2    0    0 -0.15978409489E+02  0.86584388141E+02 -0.14030757079E+03  0.16564534482E+03  0.00000000000E+00 0.  1.
         11    1    1    2    0    0 -0.41642647235E+02 -0.92833707543E+01 -0.10456873565E+03  0.11293764438E+03  0.00000000000E+00 0. -1.
<mgrwt>
<rscale>  0 0.15119708E+03</rscale>
<asrwt>0</asrwt>
<pdfrwt beam="2">  1        2 0.11905310E+00 0.15786701E+03</pdfrwt>
<pdfrwt beam="1">  1       -2 0.44645447E-02 0.15786701E+03</pdfrwt>
<totfact> 0.83587763E+03</totfact>
</mgrwt>
</event>
<event>
 7    1  0.4230786E-006  0.1783615E+03  0.7546771E-02  0.1175448E+00
         -1   -1    0    0    0  501 -0.00000000000E+00  0.00000000000E+00  0.76000064115E+03  0.76000064115E+03  0.00000000000E+00 0.  1.
          1   -1    0    0  501    0  0.00000000000E+00 -0.00000000000E+00 -0.37753061598E+02  0.37753061598E+02  0.00000000000E+00 0. -1.
         23    2    1    2    0    0 -0.80359268826E+02  0.98625595504E+02  0.45343171320E+03  0.48725058087E+03  0.12501275871E+03 0.  0.
          5    1    3    3  502    0 -0.15333308002E+02 -0.36996215138E+01  0.24886999582E+03  0.24941363706E+03  0.47000000000E+01 0.  1.
         -5    1    3    3    0  502 -0.65025960824E+02  0.10232521702E+03  0.20456171738E+03  0.23783694380E+03  0.47000000000E+01 0.  1.
        -11    1    1    2    0    0  0.34899105185E+02 -0.85498489400E+01  0.18071079243E+02  0.40219539588E+02  0.00000000000E+00 0. -1.
         11    1    1    2    0    0  0.45460163641E+02 -0.90075746564E+02  0.25074478710E+03  0.27028358229E+03  0.00000000000E+00 0.  1.
<mgrwt>
<rscale>  0 0.17232207E+03</rscale>
<asrwt>0</asrwt>
<pdfrwt beam="2">  1        1 0.58081639E-02 0.17836146E+03</pdfrwt>
<pdfrwt beam="1">  1       -1 0.11692316E+00 0.17836146E+03</pdfrwt>
<totfact> 0.94259250E+02</totfact>
</mgrwt>
</event>
<event>
 7    1  0.4230786E-006  0.1406031E+03  0.7546771E-02  0.1223248E+00
         -1   -1    0    0    0  501 -0.00000000000E+00  0.00000000000E+00  0.80388786800E+02  0.80388786800E+02  0.00000000000E+00 0. -1.
          1   -1    0    0  501    0  0.00000000000E+00 -0.00000000000E+00 -0.28288626991E+03  0.28288626991E+03  0.00000000000E+00 0.  1.
         23    2    1    2    0    0 -0.55692511096E+02 -0.32281653178E+02 -0.10594032843E+02  0.14100164727E+03  0.12500188030E+03 0.  0.
          5    1    3    3  502    0  0.29051281972E+02  0.17421026315E+02 -0.23938012499E+02  0.41744312002E+02  0.47000000000E+01 0.  1.
         -5    1    3    3    0  502 -0.84743793067E+02 -0.49702679493E+02  0.13343979656E+02  0.99257335272E+02  0.47000000000E+01 0.  1.
        -11    1    1    2    0    0  0.32119207867E+02 -0.32573532768E+01 -0.17236832410E+03  0.17536559816E+03  0.00000000000E+00 0.  1.
         11    1    1    2    0    0  0.23573303228E+02  0.35539006455E+02 -0.19535126171E+02  0.46907811284E+02  0.00000000000E+00 0. -1.
<mgrwt>
<rscale>  0 0.13287703E+03</rscale>
<asrwt>0</asrwt>
<pdfrwt beam="2">  1        1 0.43520964E-01 0.14060310E+03</pdfrwt>
<pdfrwt beam="1">  1       -1 0.12367506E-01 0.14060310E+03</pdfrwt>
<totfact> 0.39791420E+03</totfact>
</mgrwt>
</event>
<event>
 7    1  0.4230786E-006  0.1354131E+03  0.7546771E-02  0.1231899E+00
         -2   -1    0    0    0  501 -0.00000000000E+00  0.00000000000E+00  0.46291588476E+02  0.46291588476E+02  0.00000000000E+00 0.  1.
          2   -1    0    0  501    0  0.00000000000E+00 -0.00000000000E+00 -0.31231444657E+03  0.31231444657E+03  0.00000000000E+00 0. -1.
         23    2    1    2    0    0  0.50003081664E+02 -0.14532693919E+02 -0.14401175244E+03  0.19767677126E+03  0.12500085474E+03 0.  0.
          5    1    3    3  502    0 -0.41227377921E+01 -0.23672794844E+02  0.15459864977E+02  0.28956788629E+02  0.47000000000E+01 0.  1.
         -5    1    3    3    0  502  0.54125819456E+02  0.91401009250E+01 -0.15947161741E+03  0.16871998263E+03  0.47000000000E+01 0.  1.
        -11    1    1    2    0    0 -0.66877480651E+02 -0.92548438467E+01 -0.11066704376E+03  0.12963581345E+03  0.00000000000E+00 0. -1.
         11    1    1    2    0    0  0.16874398987E+02  0.23787537766E+02 -0.11344061893E+02  0.31293450343E+02  0.00000000000E+00 0.  1.
<mgrwt>
<rscale>  0 0.12705054E+03</rscale>
<asrwt>0</asrwt>
<pdfrwt beam="2">  1        2 0.48048376E-01 0.13541315E+03</pdfrwt>
<pdfrwt beam="1">  1       -2 0.71217829E-02 0.13541315E+03</pdfrwt>
<totfact> 0.11212295E+04</totfact>
</mgrwt>
</event>
<event>
 6    1  0.4230786E-006  0.1554625E+03  0.7546771E-02  0.1205670E+00
         -4   -1    0    0    0  501 -0.00000000000E+00  0.00000000000E+00  0.10619821917E+04  0.10619821917E+04  0.00000000000E+00 0.  1.
          4   -1    0    0  501    0  0.00000000000E+00 -0.00000000000E+00 -0.17936678606E+02  0.17936678606E+02  0.00000000000E+00 0. -1.
          5    1    1    2  502    0  0.15726494878E+02 -0.31199448403E+02  0.23438286492E+03  0.23701929370E+03  0.47000000000E+01 0. -1.
         -5    1    1    2    0  502 -0.64858973624E+02  0.91204715985E+02  0.33656514269E+03  0.35471562124E+03  0.47000000000E+01 0.  1.
        -11    1    1    2    0    0 -0.25860534260E+02 -0.28582637536E+02  0.13076462308E+03  0.13632725718E+03  0.00000000000E+00 0.  1.
         11    1    1    2    0    0  0.74993013006E+02 -0.31422630045E+02  0.34233288239E+03  0.35185669817E+03  0.00000000000E+00 0. -1.
<mgrwt>
<rscale>  0 0.14584747E+03</rscale>
<asrwt>0</asrwt>
<pdfrwt beam="2">  1        4 0.27594898E-02 0.15546248E+03</pdfrwt>
<pdfrwt beam="1">  1       -4 0.16338183E+00 0.15546248E+03</pdfrwt>
<totfact> 0.26814029E+02</totfact>
</mgrwt>
</event>
<event>
 7    1  0.4230786E-006  0.2169441E+03  0.7546771E-02  0.1139706E+00
         -3   -1    0    0    0  501 -0.00000000000E+00  0.00000000000E+00  0.37125944483E+03  0.37125944483E+03  0.00000000000E+00 0.  1.
          3   -1    0    0  501    0  0.00000000000E+00 -0.00000000000E+00 -0.13557477641E+03  0.13557477641E+03  0.00000000000E+00 0. -1.
         23    2    1    2    0    0 -0.17182424217E+03 -0.43758050077E+02  0.21685532619E+03  0.30674249043E+03  0.12500554306E+03 0.  0.
          5    1    3    3  502    0 -0.50359293235E+02 -0.28360901730E+02  0.16280476484E+03  0.17282326410E+03  0.47000000000E+01 0.  1.
         -5    1    3    3    0  502 -0.12146494894E+03 -0.15397148347E+02  0.54050561348E+02  0.13391922633E+03  0.47000000000E+01 0.  1.
        -11    1    1    2    0    0  0.56349835203E+02 -0.23571426028E+02 -0.13528083113E+02  0.62561370550E+02  0.00000000000E+00 0. -1.
         11    1    1    2    0    0  0.11547440697E+03  0.67329476105E+02  0.32357425348E+02  0.13753036026E+03  0.00000000000E+00 0.  1.
<mgrwt>
<rscale>  0 0.21236612E+03</rscale>
<asrwt>0</asrwt>
<pdfrwt beam="2">  1        3 0.20857658E-01 0.21694405E+03</pdfrwt>
<pdfrwt beam="1">  1       -3 0.57116837E-01 0.21694405E+03</pdfrwt>
<totfact> 0.15619895E+02</totfact>
</mgrwt>
</event>
<event>
 6    1  0.4230786E-006  0.1691203E+03  0.7546771E-02  0.1185397E+00
          2   -1    0    0  501    0  0.00000000000E+00  0.00000000000E+00  0.28622065267E+03  0.28622065267E+03  0.00000000000E+00 0. -1.
         -2   -1    0    0    0  501 -0.00000000000E+00 -0.00000000000E+00 -0.98334593900E+02  0.98334593900E+02  0.00000000000E+00 0.  1.
          5    1    1    2  502    0  0.46441639725E+02 -0.50157058503E+02  0.42058732128E+02  0.80396413889E+02  0.47000000000E+01 0. -1.
         -5    1    1    2    0  502  0.60754013508E+02  0.68545085978E+02 -0.81980799257E+01  0.92080277386E+02  0.47000000000E+01 0.  1.
        -11    1    1    2    0    0 -0.97157127864E+00  0.27166340019E+02  0.14204582016E+02  0.30671226435E+02  0.00000000000E+00 0.  1.
         11    1    1    2    0    0 -0.10622408195E+03 -0.45554367493E+02  0.13982082455E+03  0.18140732885E+03  0.00000000000E+00 0. -1.
<mgrwt>
<rscale>  0 0.16295794E+03</rscale>
<asrwt>0</asrwt>
<pdfrwt beam="1">  1        2 0.44033946E-01 0.16912027E+03</pdfrwt>
<pdfrwt beam="2">  1       -2 0.15128399E-01 0.16912027E+03</pdfrwt>
<totfact> 0.37846995E+03</totfact>
</mgrwt>
</event>
<event>
 7    1  0.4230786E-006  0.2203833E+03  0.7546771E-02  0.1137025E+00
         -2   -1    0    0    0  501 -0.00000000000E+00  0.00000000000E+00  0.50089276772E+03  0.50089276772E+03  0.00000000000E+00 0.  1.
          2   -1    0    0  501    0  0.00000000000E+00 -0.00000000000E+00 -0.89468460999E+02  0.89468460999E+02  0.00000000000E+00 0. -1.
         23    2    1    2    0    0 -0.18115844539E+03  0.11244152943E+02  0.22440240740E+03  0.31452382153E+03  0.12499592213E+03 0.  0.
          5    1    3    3  502    0 -0.17423033298E+03  0.20914950301E+02  0.12794648692E+03  0.21722347385E+03  0.47000000000E+01 0.  1.
         -5    1    3    3    0  502 -0.69281124163E+01 -0.96707973586E+01  0.96455920475E+02  0.97300347676E+02  0.47000000000E+01 0.  1.
        -11    1    1    2    0    0  0.94447733368E+02  0.98592801437E+01  0.38297532144E+02  0.10239277666E+03  0.00000000000E+00 0. -1.
         11    1    1    2    0    0  0.86710712027E+02 -0.21103433086E+02  0.14872436718E+03  0.17344463053E+03  0.00000000000E+00 0.  1.
<mgrwt>
<rscale>  0 0.21583716E+03</rscale>
<asrwt>0</asrwt>
<pdfrwt beam="2">  1        2 0.13764379E-01 0.22038329E+03</pdfrwt>
<pdfrwt beam="1">  1       -2 0.77060424E-01 0.22038329E+03</pdfrwt>
<totfact> 0.66650110E+02</totfact>
</mgrwt>
</event>
<event>
 7    1  0.4230786E-006  0.1587109E+03  0.7546771E-02  0.1203032E+00
         -1   -1    0    0    0  501 -0.00000000000E+00  0.00000000000E+00  0.49322133842E+03  0.49322133842E+03  0.00000000000E+00 0.  1.
          1   -1    0    0  501    0  0.00000000000E+00 -0.00000000000E+00 -0.44511114285E+02  0.44511114285E+02  0.00000000000E+00 0. -1.
         23    2    1    2    0    0 -0.74607894614E+02  0.63225152628E+02  0.34306848708E+03  0.37800151578E+03  0.12500160496E+03 0.  0.
          5    1    3    3  502    0 -0.87019762414E+02  0.13014999967E+02  0.11945670687E+03  0.14843794694E+03  0.47000000000E+01 0. -1.
         -5    1    3    3    0  502  0.12411867800E+02  0.50210152661E+02  0.22361178021E+03  0.22956356885E+03  0.47000000000E+01 0. -1.
        -11    1    1    2    0    0  0.23560011158E+02 -0.28039541139E+02  0.87928717634E+02  0.95250980981E+02  0.00000000000E+00 0.  1.
         11    1    1    2    0    0  0.51047883456E+02 -0.35185611489E+02  0.17713019419E+02  0.64479955941E+02  0.00000000000E+00 0. -1.
<mgrwt>
<rscale>  0 0.14793672E+03</rscale>
<asrwt>0</asrwt>
<pdfrwt beam="2">  1        1 0.68478641E-02 0.15871093E+03</pdfrwt>
<pdfrwt beam="1">  1       -1 0.75880202E-01 0.15871093E+03</pdfrwt>
<totfact> 0.19177952E+03</totfact>
</mgrwt>
</event>
<event>
 7    1  0.4230786E-006  0.2325411E+03  0.7546771E-02  0.1127849E+00
          2   -1    0    0  501    0  0.00000000000E+00  0.00000000000E+00  0.31655980836E+03  0.31655980836E+03  0.00000000000E+00 0. -1.
         -2   -1    0    0    0  501 -0.00000000000E+00 -0.00000000000E+00 -0.17013330182E+03  0.17013330182E+03  0.00000000000E+00 0.  1.
         23    2    1    2    0    0 -0.32434560908E+02 -0.19338657363E+03  0.13204669147E+02  0.23291572428E+03  0.12500001493E+03 0.  0.
          5    1    3    3  502    0 -0.63198003134E+02 -0.11894425049E+03  0.50634667063E+02  0.14397111458E+03  0.47000000000E+01 0. -1.
         -5    1    3    3    0  502  0.30763442227E+02 -0.74442323139E+02 -0.37429997916E+02  0.88944609707E+02  0.47000000000E+01 0. -1.
        -11    1    1    2    0    0 -0.15981939700E+02  0.76155971858E+02  0.12760414536E+02  0.78854185845E+02  0.00000000000E+00 0.  1.
         11    1    1    2    0    0  0.48416500607E+02  0.11723060177E+03  0.12046142285E+03  0.17492320006E+03  0.00000000000E+00 0. -1.
<mgrwt>
<rscale>  0 0.22829005E+03</rscale>
<asrwt>0</asrwt>
<pdfrwt beam="1">  1        2 0.48701509E-01 0.23254112E+03</pdfrwt>
<pdfrwt beam="2">  1       -2 0.26174354E-01 0.23254112E+03</pdfrwt>
<totfact> 0.13464460E+03</totfact>
</mgrwt>
</event>
<event>
 7    1  0.4230786E-006  0.1495695E+03  0.7546771E-02  0.1209114E+00
          1   -1    0    0  501    0  0.00000000000E+00  0.00000000000E+00  0.61175949882E+02  0.61175949882E+02  0.00000000000E+00 0. -1.
         -1   -1    0    0    0  501 -0.00000000000E+00 -0.00000000000E+00 -0.39058383903E+03  0.39058383903E+03  0.00000000000E+00 0.  1.
         23    2    1    2    0    0  0.10281243031E+02  0.81484929454E+02 -0.27872136214E+03  0.31631727648E+03  0.12500209598E+03 0.  0.
          5    1    3    3  502    0  0.11425877570E+02  0.10823226730E+03 -0.15378755738E+03  0.18846081070E+03  0.47000000000E+01 0. -1.
         -5    1    3    3    0  502 -0.11446345393E+01 -0.26747337849E+02 -0.12493380476E+03  0.12785646578E+03  0.47000000000E+01 0. -1.
        -11    1    1    2    0    0 -0.44855859507E+01 -0.29504627458E+02 -0.72783105009E+02  0.78663993653E+02  0.00000000000E+00 0.  1.
         11    1    1    2    0    0 -0.57956570803E+01 -0.51980301995E+02  0.22096577995E+02  0.56778518786E+02  0.00000000000E+00 0. -1.
<mgrwt>
<rscale>  0 0.14317930E+03</rscale>
<asrwt>0</asrwt>
<pdfrwt beam="1">  1        1 0.94116846E-02 0.14956945E+03</pdfrwt>
<pdfrwt beam="2">  1       -1 0.60089821E-01 0.14956945E+03</pdfrwt>
<totfact> 0.19711396E+03</totfact>
</mgrwt>
</event>
<event>
 7    1  0.4230786E-006  0.1454291E+03  0.7546771E-02  0.1216331E+00
          1   -1    0    0  501    0  0.00000000000E+00  0.00000000000E+00  0.41173700003E+02  0.41173700003E+02  0.00000000000E+00 0. -1.
         -1   -1    0    0    0  501 -0.00000000000E+00 -0.00000000000E+00 -0.44965966266E+03  0.44965966266E+03  0.00000000000E+00 0.  1.
         23    2    1    2    0    0 -0.39742263246E+02 -0.62810036691E+02 -0.28861340996E+03  0.32318309393E+03  0.12500025439E+03 0.  0.
          5    1    3    3  502    0  0.61224037131E+01 -0.63577262250E+02 -0.53088327648E+02  0.83186613315E+02  0.47000000000E+01 0.  1.
         -5    1    3    3    0  502 -0.45864666959E+02  0.76722555849E+00 -0.23552508231E+03  0.23999648061E+03  0.47000000000E+01 0.  1.
        -11    1    1    2    0    0  0.64994843190E+02  0.52342341811E+02 -0.11108058301E+03  0.13893504349E+03  0.00000000000E+00 0. -1.
         11    1    1    2    0    0 -0.25252579944E+02  0.10467694880E+02 -0.87919696926E+01  0.28715225247E+02  0.00000000000E+00 0.  1.
<mgrwt>
<rscale>  0 0.13779251E+03</rscale>
<asrwt>0</asrwt>
<pdfrwt beam="1">  1        1 0.63344156E-02 0.14542906E+03</pdfrwt>
<pdfrwt beam="2">  1       -1 0.69178407E-01 0.14542906E+03</pdfrwt>
<totfact> 0.25537800E+03</totfact>
</mgrwt>
</event>
<event>
 7    1  0.4230786E-006  0.1275949E+03  0.7546771E-02  0.1241676E+00
         -1   -1    0    0    0  501 -0.00000000000E+00  0.00000000000E+00  0.54794830137E+02  0.54794830137E+02  0.00000000000E+00 0.  1.
          1   -1    0    0  501    0  0.00000000000E+00 -0.00000000000E+00 -0.24210787799E+03  0.24210787799E+03  0.00000000000E+00 0. -1.
         23    2    1    2    0    0 -0.13935569211E+02 -0.21504146828E+02 -0.10614396724E+03  0.16597291306E+03  0.12499535059E+03 0.  0.
          5    1    3    3  502    0 -0.36558334770E+02 -0.47125952564E+02 -0.60903620293E+01  0.60137756492E+02  0.47000000000E+01 0.  1.
         -5    1    3    3    0  502  0.22622765559E+02  0.25621805736E+02 -0.10005360521E+03  0.10583515657E+03  0.47000000000E+01 0.  1.
        -11    1    1    2    0    0  0.16285557892E+02 -0.32744947906E+02 -0.64469430170E+02  0.74119892308E+02  0.00000000000E+00 0. -1.
         11    1    1    2    0    0 -0.23499886811E+01  0.54249094734E+02 -0.16699650442E+02  0.56809902756E+02  0.00000000000E+00 0.  1.
<mgrwt>
<rscale>  0 0.12086573E+03</rscale>
<asrwt>0</asrwt>
<pdfrwt beam="2">  1        1 0.37247366E-01 0.12759493E+03</pdfrwt>
<pdfrwt beam="1">  1       -1 0.84299738E-02 0.12759493E+03</pdfrwt>
<totfact> 0.86095243E+03</totfact>
</mgrwt>
</event>
<event>
 6    1  0.4230786E-006  0.1667750E+03  0.7546771E-02  0.1206487E+00
          1   -1    0    0  501    0  0.00000000000E+00  0.00000000000E+00  0.93299561646E+03  0.93299561646E+03  0.00000000000E+00 0. -1.
         -1   -1    0    0    0  501 -0.00000000000E+00 -0.00000000000E+00 -0.19647396355E+02  0.19647396355E+02  0.00000000000E+00 0.  1.
          5    1    1    2  502    0  0.39525104629E+02  0.50969663373E+02  0.91071714734E+02  0.11169730393E+03  0.47000000000E+01 0. -1.
         -5    1    1    2    0  502 -0.25803178016E+02 -0.75950239627E+02  0.36960647278E+03  0.37823970920E+03  0.47000000000E+01 0.  1.
        -11    1    1    2    0    0  0.30496469514E+02  0.37551980393E+02  0.19115403446E+03  0.19718024945E+03  0.00000000000E+00 0. -1.
         11    1    1    2    0    0 -0.44218396128E+02 -0.12571404139E+02  0.26151599813E+03  0.26552575023E+03  0.00000000000E+00 0.  1.
<mgrwt>
<rscale>  0 0.14520881E+03</rscale>
<asrwt>0</asrwt>
<pdfrwt beam="1">  1        1 0.14353775E+00 0.16677495E+03</pdfrwt>
<pdfrwt beam="2">  1       -1 0.30226771E-02 0.16677495E+03</pdfrwt>
<totfact> 0.65749245E+03</totfact>
</mgrwt>
</event>
<event>
 7    1  0.4230786E-006  0.1309722E+03  0.7546771E-02  0.1239365E+00
         -4   -1    0    0    0  501 -0.00000000000E+00  0.00000000000E+00  0.17655890077E+03  0.17655890077E+03  0.00000000000E+00 0. -1.
          4   -1    0    0  501    0  0.00000000000E+00 -0.00000000000E+00 -0.79419169272E+02  0.79419169272E+02  0.00000000000E+00 0.  1.
         23    2    1    2    0    0 -0.31004672337E+02  0.23822590406E+02  0.83930168344E+02  0.15555705035E+03  0.12499966894E+03 0.  0.
          5    1    3    3  502    0 -0.41531714465E+02  0.59970875443E+02  0.11784928843E+02  0.74042985864E+02  0.47000000000E+01 0.  1.
         -5    1    3    3    0  502  0.10527042128E+02 -0.36148285037E+02  0.72145239501E+02  0.81514064490E+02  0.47000000000E+01 0.  1.
        -11    1    1    2    0    0  0.61819861513E+02 -0.28272518467E+01  0.12456062439E+02  0.63125605914E+02  0.00000000000E+00 0. -1.
         11    1    1    2    0    0 -0.30815189176E+02 -0.20995338560E+02  0.75350071444E+00  0.37295413774E+02  0.00000000000E+00 0.  1.
<mgrwt>
<rscale>  0 0.12229058E+03</rscale>
<asrwt>0</asrwt>
<pdfrwt beam="2">  1        4 0.12218334E-01 0.13097222E+03</pdfrwt>
<pdfrwt beam="1">  1       -4 0.27162908E-01 0.13097222E+03</pdfrwt>
<totfact> 0.11314160E+03</totfact>
</mgrwt>
</event>
<event>
 7    1  0.4230786E-006  0.1535434E+03  0.7546771E-02  0.1204133E+00
         -1   -1    0    0    0  501 -0.00000000000E+00  0.00000000000E+00  0.44762341462E+02  0.44762341462E+02  0.00000000000E+00 0.  1.
          1   -1    0    0  501    0  0.00000000000E+00 -0.00000000000E+00 -0.44976264673E+03  0.44976264673E+03  0.00000000000E+00 0. -1.
         23    2    1    2    0    0  0.41697410233E+02 -0.78816982476E+02 -0.19886703080E+03  0.25124426512E+03  0.12499917628E+03 0.  0.
          5    1    3    3  502    0  0.52029721828E+02  0.16930492080E+02 -0.93385825279E+02  0.10833621684E+03  0.47000000000E+01 0. -1.
         -5    1    3    3    0  502 -0.10332311595E+02 -0.95747474556E+02 -0.10548120552E+03  0.14290804828E+03  0.47000000000E+01 0. -1.
        -11    1    1    2    0    0  0.16725179266E+02  0.29265902846E+02 -0.13358986530E+03  0.13777690954E+03  0.00000000000E+00 0. -1.
         11    1    1    2    0    0 -0.58422589499E+02  0.49551079630E+02 -0.72543409177E+02  0.10550381354E+03  0.00000000000E+00 0.  1.
<mgrwt>
<rscale>  0 0.14706028E+03</rscale>
<asrwt>0</asrwt>
<pdfrwt beam="2">  1        1 0.69194255E-01 0.15354343E+03</pdfrwt>
<pdfrwt beam="1">  1       -1 0.68865139E-02 0.15354343E+03</pdfrwt>
<totfact> 0.54505596E+03</totfact>
</mgrwt>
</event>
<event>
 7    1  0.4230786E-006  0.1395816E+03  0.7546771E-02  0.1225330E+00
         -2   -1    0    0    0  501 -0.00000000000E+00  0.00000000000E+00  0.96629003409E+02  0.96629003409E+02  0.00000000000E+00 0.  1.
          2   -1    0    0  501    0  0.00000000000E+00 -0.00000000000E+00 -0.20699919077E+03  0.20699919077E+03  0.00000000000E+00 0. -1.
         23    2    1    2    0    0  0.43324505779E+02  0.44503683199E+02  0.10963099231E+02  0.14001142682E+03  0.12500167789E+03 0.  0.
          5    1    3    3  502    0 -0.29078505735E+02 -0.14216564150E+02 -0.23755284733E+02  0.40423678021E+02  0.47000000000E+01 0. -1.
         -5    1    3    3    0  502  0.72403011514E+02  0.58720247349E+02  0.34718383964E+02  0.99587748795E+02  0.47000000000E+01 0. -1.
        -11    1    1    2    0    0 -0.55822646577E+01  0.27681465666E+02 -0.33849409231E+02  0.44081829878E+02  0.00000000000E+00 0.  1.
         11    1    1    2    0    0 -0.37742241121E+02 -0.72185148865E+02 -0.87483877366E+02  0.11953493749E+03  0.00000000000E+00 0. -1.
<mgrwt>
<rscale>  0 0.13144330E+03</rscale>
<asrwt>0</asrwt>
<pdfrwt beam="2">  1        2 0.31846029E-01 0.13958155E+03</pdfrwt>
<pdfrwt beam="1">  1       -2 0.14866001E-01 0.13958155E+03</pdfrwt>
<totfact> 0.54544120E+03</totfact>
</mgrwt>
</event>
<event>
 7    1  0.4230786E-006  0.1603049E+03  0.7546771E-02  0.1195844E+00
          2   -1    0    0  501    0  0.00000000000E+00  0.00000000000E+00  0.60846448035E+02  0.60846448035E+02  0.00000000000E+00 0. -1.
         -2   -1    0    0    0  501 -0.00000000000E+00 -0.00000000000E+00 -0.39102424658E+03  0.39102424658E+03  0.00000000000E+00 0.  1.
         23    2    1    2    0    0  0.55295215321E+01 -0.10019188822E+03 -0.24047410434E+03  0.28900772163E+03  0.12501471204E+03 0.  0.
          5    1    3    3  502    0 -0.29302124853E+02 -0.11569938907E+03 -0.20177442855E+03  0.23447808675E+03  0.47000000000E+01 0.  1.
         -5    1    3    3    0  502  0.34831646385E+02  0.15507500855E+02 -0.38699675797E+02  0.54529634874E+02  0.47000000000E+01 0.  1.
        -11    1    1    2    0    0 -0.34154044303E+02  0.39651489906E+01 -0.13996632930E+02  0.37123131363E+02  0.00000000000E+00 0.  1.
         11    1    1    2    0    0  0.28624522771E+02  0.96226739225E+02 -0.75707061273E+02  0.12573984163E+03  0.00000000000E+00 0. -1.
<mgrwt>
<rscale>  0 0.15382992E+03</rscale>
<asrwt>0</asrwt>
<pdfrwt beam="1">  1        2 0.93609917E-02 0.16030492E+03</pdfrwt>
<pdfrwt beam="2">  1       -2 0.60157578E-01 0.16030492E+03</pdfrwt>
<totfact> 0.17863771E+03</totfact>
</mgrwt>
</event>
<event>
 7    1  0.4230786E-006  0.1743672E+03  0.7546771E-02  0.1180188E+00
          4   -1    0    0  501    0  0.00000000000E+00  0.00000000000E+00  0.55383761645E+03  0.55383761645E+03  0.00000000000E+00 0. -1.
         -4   -1    0    0    0  501 -0.00000000000E+00 -0.00000000000E+00 -0.48492265124E+02  0.48492265124E+02  0.00000000000E+00 0.  1.
         23    2    1    2    0    0  0.24587515584E+02 -0.11905319817E+03  0.22524203260E+03  0.28484715405E+03  0.12500287197E+03 0.  0.
          5    1    3    3  502    0 -0.32669353056E+02 -0.12980797902E+01  0.13158092626E+02  0.35555548678E+02  0.47000000000E+01 0. -1.
         -5    1    3    3    0  502  0.57256868640E+02 -0.11775511838E+03  0.21208393998E+03  0.24929160537E+03  0.47000000000E+01 0. -1.
        -11    1    1    2    0    0 -0.53607460501E+02  0.46119151432E+02  0.12368655279E+03  0.14247490759E+03  0.00000000000E+00 0. -1.
         11    1    1    2    0    0  0.29019944917E+02  0.72934046738E+02  0.15641676593E+03  0.17500781995E+03  0.00000000000E+00 0.  1.
<mgrwt>
<rscale>  0 0.16777519E+03</rscale>
<asrwt>0</asrwt>
<pdfrwt beam="1">  1        4 0.85205782E-01 0.17436722E+03</pdfrwt>
<pdfrwt beam="2">  1       -4 0.74603489E-02 0.17436722E+03</pdfrwt>
<totfact> 0.26647866E+02</totfact>
</mgrwt>
</event>
<event>
 7    1  0.4230786E-006  0.1876057E+03  0.7546771E-02  0.1165649E+00
         -2   -1    0    0    0  501 -0.00000000000E+00  0.00000000000E+00  0.98991042416E+02  0.98991042416E+02  0.00000000000E+00 0.  1.
          2   -1    0    0  501    0  0.00000000000E+00 -0.00000000000E+00 -0.32739365296E+03  0.32739365296E+03  0.00000000000E+00 0. -1.
         23    2    1    2    0    0  0.13376634370E+03  0.40966961664E+02 -0.83944895705E+02  0.20553012205E+03  0.12499663555E+03 0.  0.
          5    1    3    3  502    0  0.14945732061E+03  0.52521134732E+02 -0.92755385041E+02  0.18363445138E+03  0.47000000000E+01 0. -1.
         -5    1    3    3    0  502 -0.15690976913E+02 -0.11554173067E+02  0.88104893360E+01  0.21895670670E+02  0.47000000000E+01 0. -1.
        -11    1    1    2    0    0 -0.23414260296E+02 -0.41388627327E+02 -0.13157589104E+02  0.49339317064E+02  0.00000000000E+00 0.  1.
         11    1    1    2    0    0 -0.11035208340E+03  0.42166566315E+00 -0.13130012573E+03  0.17151525626E+03  0.00000000000E+00 0. -1.
<mgrwt>
<rscale>  0 0.18224345E+03</rscale>
<asrwt>0</asrwt>
<pdfrwt beam="2">  1        2 0.50368255E-01 0.18760567E+03</pdfrwt>
<pdfrwt beam="1">  1       -2 0.15229391E-01 0.18760567E+03</pdfrwt>
<totfact> 0.32572195E+03</totfact>
</mgrwt>
</event>
<event>
 7    1  0.4230786E-006  0.1509772E+03  0.7546771E-02  0.1209083E+00
         -1   -1    0    0    0  501 -0.00000000000E+00  0.00000000000E+00  0.46693923008E+02  0.46693923008E+02  0.00000000000E+00 0.  1.
          1   -1    0    0  501    0  0.00000000000E+00 -0.00000000000E+00 -0.42080398066E+03  0.42080398066E+03  0.00000000000E+00 0. -1.
         23    2    1    2    0    0 -0.62087730930E+02 -0.57574908702E+02 -0.15351230821E+03  0.21531405536E+03  0.12499742886E+03 0.  0.
          5    1    3    3  502    0  0.48879222100E+01  0.26604710372E+02 -0.80927801176E+02  0.85458185100E+02  0.47000000000E+01 0.  1.
         -5    1    3    3    0  502 -0.66975653140E+02 -0.84179619075E+02 -0.72584507031E+02  0.12985587026E+03  0.47000000000E+01 0.  1.
        -11    1    1    2    0    0  0.13697660336E+02 -0.18114993827E+02 -0.13450115388E+02  0.26394781757E+02  0.00000000000E+00 0.  1.
         11    1    1    2    0    0  0.48390070594E+02  0.75689902529E+02 -0.20714763405E+03  0.22578906654E+03  0.00000000000E+00 0. -1.
<mgrwt>
<rscale>  0 0.14320332E+03</rscale>
<asrwt>0</asrwt>
<pdfrwt beam="2">  1        1 0.64739074E-01 0.15097720E+03</pdfrwt>
<pdfrwt beam="1">  1       -1 0.71836804E-02 0.15097720E+03</pdfrwt>
<totfact> 0.55644339E+03</totfact>
</mgrwt>
</event>
<event>
 7    1  0.4230786E-006  0.1347080E+03  0.7546771E-02  0.1234562E+00
         -2   -1    0    0    0  501 -0.00000000000E+00  0.00000000000E+00  0.76448379523E+02  0.76448379523E+02  0.00000000000E+00 0.  1.
          2   -1    0    0  501    0  0.00000000000E+00 -0.00000000000E+00 -0.33051171575E+03  0.33051171575E+03  0.00000000000E+00 0. -1.
         23    2    1    2    0    0 -0.34678386754E+02 -0.36307252141E+02 -0.12121188505E+01  0.13471343607E+03  0.12500173423E+03 0.  0.
          5    1    3    3  502    0 -0.37993237382E+02 -0.30118370076E+02 -0.58887398389E+02  0.76422627486E+02  0.47000000000E+01 0. -1.
         -5    1    3    3    0  502  0.33148506277E+01 -0.61888820645E+01  0.57675279539E+02  0.58290808587E+02  0.47000000000E+01 0. -1.
        -11    1    1    2    0    0 -0.39840760507E+01  0.51005637944E+02 -0.83580283641E+02  0.97995468148E+02  0.00000000000E+00 0.  1.
         11    1    1    2    0    0  0.38662462805E+02 -0.14698385803E+02 -0.16927093373E+03  0.17425119105E+03  0.00000000000E+00 0. -1.
<mgrwt>
<rscale>  0 0.12532494E+03</rscale>
<asrwt>0</asrwt>
<pdfrwt beam="2">  1        2 0.50847956E-01 0.13470798E+03</pdfrwt>
<pdfrwt beam="1">  1       -2 0.11761289E-01 0.13470798E+03</pdfrwt>
<totfact> 0.48244392E+03</totfact>
</mgrwt>
</event>
<event>
 7    1  0.4230786E-006  0.1284374E+03  0.7546771E-02  0.1275594E+00
          1   -1    0    0  501    0  0.00000000000E+00  0.00000000000E+00  0.27052573383E+02  0.27052573383E+02  0.00000000000E+00 0. -1.
         -1   -1    0    0    0  501 -0.00000000000E+00 -0.00000000000E+00 -0.29977099587E+03  0.29977099587E+03  0.00000000000E+00 0.  1.
         23    2    1    2    0    0 -0.70105759028E+01 -0.12033240807E+02 -0.19149519581E+03  0.23057879572E+03  0.12768016274E+03 0.  0.
          5    1    3    3  502    0 -0.26607118881E+02 -0.48358385167E+02 -0.28349356859E+02  0.62227391280E+02  0.47000000000E+01 0. -1.
         -5    1    3    3    0  502  0.19596542979E+02  0.36325144360E+02 -0.16314583895E+03  0.16835140444E+03  0.47000000000E+01 0.  1.
        -11    1    1    2    0    0  0.21556577867E+02 -0.96971984921E+01 -0.25972041601E+02  0.35117924951E+02  0.00000000000E+00 0. -1.
         11    1    1    2    0    0 -0.14546001964E+02  0.21730439299E+02 -0.55251185070E+02  0.61126848577E+02  0.00000000000E+00 0.  1.
<mgrwt>
<rscale>  0 0.10226994E+03</rscale>
<asrwt>0</asrwt>
<pdfrwt beam="1">  1        1 0.41619344E-02 0.12843742E+03</pdfrwt>
<pdfrwt beam="2">  1       -1 0.46118615E-01 0.12843742E+03</pdfrwt>
<totfact> 0.96164486E+03</totfact>
</mgrwt>
</event>
<event>
 7    1  0.4230786E-006  0.1340017E+03  0.7546771E-02  0.1238536E+00
         -2   -1    0    0    0  501 -0.00000000000E+00  0.00000000000E+00  0.63752223141E+02  0.63752223141E+02  0.00000000000E+00 0.  1.
          2   -1    0    0  501    0  0.00000000000E+00 -0.00000000000E+00 -0.23714149287E+03  0.23714149287E+03  0.00000000000E+00 0. -1.
         23    2    1    2    0    0  0.47804390724E+02 -0.67899357106E+01 -0.44789749201E+02  0.14128903163E+03  0.12500042330E+03 0.  0.
          5    1    3    3  502    0 -0.20575007710E+02  0.39354154542E+02 -0.37551528211E+02  0.58346274028E+02  0.47000000000E+01 0. -1.
         -5    1    3    3    0  502  0.68379398434E+02 -0.46144090253E+02 -0.72382209902E+01  0.82942757602E+02  0.47000000000E+01 0. -1.
        -11    1    1    2    0    0  0.18467750151E+02  0.19454443993E+02 -0.31653598512E+02  0.41490763858E+02  0.00000000000E+00 0.  1.
         11    1    1    2    0    0 -0.66272140876E+02 -0.12664508282E+02 -0.96945922019E+02  0.11811392053E+03  0.00000000000E+00 0. -1.
<mgrwt>
<rscale>  0 0.12280743E+03</rscale>
<asrwt>0</asrwt>
<pdfrwt beam="2">  1        2 0.36483307E-01 0.13400175E+03</pdfrwt>
<pdfrwt beam="1">  1       -2 0.98080342E-02 0.13400175E+03</pdfrwt>
<totfact> 0.91408702E+03</totfact>
</mgrwt>
</event>
<event>
 7    1  0.4230786E-006  0.1462809E+03  0.7546771E-02  0.1214291E+00
         -4   -1    0    0    0  501 -0.00000000000E+00  0.00000000000E+00  0.22748981787E+03  0.22748981787E+03  0.00000000000E+00 0.  1.
          4   -1    0    0  501    0  0.00000000000E+00 -0.00000000000E+00 -0.78210271424E+02  0.78210271424E+02  0.00000000000E+00 0. -1.
         23    2    1    2    0    0 -0.59074564221E+02 -0.47741882924E+02  0.75437322377E+02  0.16458704244E+03  0.12501605260E+03 0.  0.
          5    1    3    3  502    0  0.44391547344E+01  0.35792478866E+02  0.20151807935E+01  0.36427442839E+02  0.47000000000E+01 0.  1.
         -5    1    3    3    0  502 -0.63513718955E+02 -0.83534361791E+02  0.73422141584E+02  0.12815959960E+03  0.47000000000E+01 0.  1.
        -11    1    1    2    0    0 -0.57430786496E+01  0.14956707388E+02 -0.17948282527E+02  0.24058821541E+02  0.00000000000E+00 0. -1.
         11    1    1    2    0    0  0.64817642870E+02  0.32785175536E+02  0.91790506591E+02  0.11705422531E+03  0.00000000000E+00 0.  1.
<mgrwt>
<rscale>  0 0.13928765E+03</rscale>
<asrwt>0</asrwt>
<pdfrwt beam="2">  1        4 0.12032350E-01 0.14628091E+03</pdfrwt>
<pdfrwt beam="1">  1       -4 0.34998433E-01 0.14628091E+03</pdfrwt>
<totfact> 0.73439080E+02</totfact>
</mgrwt>
</event>
<event>
 7    1  0.4230786E-006  0.1592700E+03  0.7546771E-02  0.1197333E+00
         -1   -1    0    0    0  501 -0.00000000000E+00  0.00000000000E+00  0.12156452727E+03  0.12156452727E+03  0.00000000000E+00 0.  1.
          1   -1    0    0  501    0  0.00000000000E+00 -0.00000000000E+00 -0.17879869507E+03  0.17879869507E+03  0.00000000000E+00 0. -1.
         23    2    1    2    0    0 -0.25241879348E+02 -0.95422366028E+02 -0.16339986513E+02  0.16010594367E+03  0.12499735049E+03 0.  0.
          5    1    3    3  502    0  0.98222377524E+01 -0.20124392882E+01  0.42676006579E+02  0.44089202804E+02  0.47000000000E+01 0. -1.
         -5    1    3    3    0  502 -0.35064117101E+02 -0.93409926740E+02 -0.59015993092E+02  0.11601674087E+03  0.47000000000E+01 0. -1.
        -11    1    1    2    0    0 -0.17216205985E+02  0.72890590214E+02  0.32902842426E+01  0.74968405750E+02  0.00000000000E+00 0.  1.
         11    1    1    2    0    0  0.42458085334E+02  0.22531775814E+02 -0.44184465528E+02  0.65288872908E+02  0.00000000000E+00 0. -1.
<mgrwt>
<rscale>  0 0.15258392E+03</rscale>
<asrwt>0</asrwt>
<pdfrwt beam="2">  1        1 0.27507491E-01 0.15926995E+03</pdfrwt>
<pdfrwt beam="1">  1       -1 0.18702235E-01 0.15926995E+03</pdfrwt>
<totfact> 0.36959463E+03</totfact>
</mgrwt>
</event>
<event>
 7    1  0.4230786E-006  0.1742553E+03  0.7546771E-02  0.1180433E+00
         -1   -1    0    0    0  501 -0.00000000000E+00  0.00000000000E+00  0.24208347606E+03  0.24208347606E+03  0.00000000000E+00 0.  1.
          1   -1    0    0  501    0  0.00000000000E+00 -0.00000000000E+00 -0.13902218583E+03  0.13902218583E+03  0.00000000000E+00 0. -1.
         23    2    1    2    0    0  0.62086430248E+02  0.10431410077E+03  0.14466783445E+03  0.22648113933E+03  0.12501506992E+03 0.  0.
          5    1    3    3  502    0  0.39125796638E+02  0.16382589016E+02  0.12673788365E+03  0.13373031944E+03  0.47000000000E+01 0.  1.
         -5    1    3    3    0  502  0.22960633610E+02  0.87931511756E+02  0.17929950805E+02  0.92750819896E+02  0.47000000000E+01 0.  1.
        -11    1    1    2    0    0 -0.39440959846E+02 -0.15699770536E+02  0.17293198891E+02  0.45838050093E+02  0.00000000000E+00 0.  1.
         11    1    1    2    0    0 -0.22645470402E+02 -0.88614330237E+02 -0.58899743112E+02  0.10878647247E+03  0.00000000000E+00 0. -1.
<mgrwt>
<rscale>  0 0.16754404E+03</rscale>
<asrwt>0</asrwt>
<pdfrwt beam="2">  1        1 0.21388029E-01 0.17425534E+03</pdfrwt>
<pdfrwt beam="1">  1       -1 0.37243611E-01 0.17425534E+03</pdfrwt>
<totfact> 0.16191105E+03</totfact>
</mgrwt>
</event>
<event>
 6    1  0.4230786E-006  0.6092966E+03  0.7546771E-02  0.1052059E+00
         -2   -1    0    0    0  501 -0.00000000000E+00  0.00000000000E+00  0.62151376506E+03  0.62151376506E+03  0.00000000000E+00 0.  1.
          2   -1    0    0  501    0  0.00000000000E+00 -0.00000000000E+00 -0.28609182864E+03  0.28609182864E+03  0.00000000000E+00 0. -1.
          5    1    1    2  502    0  0.21363784727E+02  0.29745240910E+03  0.12323668610E+03  0.32271305796E+03  0.47000000000E+01 0. -1.
         -5    1    1    2    0  502 -0.16309964285E+02 -0.28540241225E+03  0.33028731978E+03  0.43684362816E+03  0.47000000000E+01 0.  1.
        -11    1    1    2    0    0 -0.35982244642E+02 -0.17844802025E+02 -0.19694492544E+02  0.44732895339E+02  0.00000000000E+00 0.  1.
         11    1    1    2    0    0  0.30928424200E+02  0.57948051759E+01 -0.98407576916E+02  0.10331601224E+03  0.00000000000E+00 0. -1.
<mgrwt>
<rscale>  0 0.37696970E+03</rscale>
<asrwt>0</asrwt>
<pdfrwt beam="2">  1        2 0.44014128E-01 0.60929659E+03</pdfrwt>
<pdfrwt beam="1">  1       -2 0.95617502E-01 0.60929659E+03</pdfrwt>
<totfact> 0.10797717E+02</totfact>
</mgrwt>
</event>
<event>
 7    1  0.4230786E-006  0.1309915E+03  0.7546771E-02  0.1238714E+00
         -1   -1    0    0    0  501 -0.00000000000E+00  0.00000000000E+00  0.84613477288E+02  0.84613477288E+02  0.00000000000E+00 0.  1.
          1   -1    0    0  501    0  0.00000000000E+00 -0.00000000000E+00 -0.17214335817E+03  0.17214335817E+03  0.00000000000E+00 0. -1.
         23    2    1    2    0    0 -0.35923765744E+02  0.15582585759E+02 -0.13537454857E+02  0.13168919190E+03  0.12500178661E+03 0.  0.
          5    1    3    3  502    0 -0.76978875376E+02  0.49525089806E+01  0.17112713653E+02  0.79153076806E+02  0.47000000000E+01 0.  1.
         -5    1    3    3    0  502  0.41055109632E+02  0.10630076779E+02 -0.30650168510E+02  0.52536115092E+02  0.47000000000E+01 0.  1.
        -11    1    1    2    0    0  0.73637565545E+01  0.10648061102E+02  0.19753566228E+02  0.23617990909E+02  0.00000000000E+00 0.  1.
         11    1    1    2    0    0  0.28560009189E+02 -0.26230646861E+02 -0.93745992256E+02  0.10144965265E+03  0.00000000000E+00 0. -1.
<mgrwt>
<rscale>  0 0.12269637E+03</rscale>
<asrwt>0</asrwt>
<pdfrwt beam="2">  1        1 0.26483593E-01 0.13099153E+03</pdfrwt>
<pdfrwt beam="1">  1       -1 0.13017458E-01 0.13099153E+03</pdfrwt>
<totfact> 0.67781017E+03</totfact>
</mgrwt>
</event>
<event>
 7    1  0.4230786E-006  0.1337643E+03  0.7546771E-02  0.1234317E+00
          1   -1    0    0  501    0  0.00000000000E+00  0.00000000000E+00  0.75641723681E+03  0.75641723681E+03  0.00000000000E+00 0. -1.
         -1   -1    0    0    0  501 -0.00000000000E+00 -0.00000000000E+00 -0.21628507465E+02  0.21628507465E+02  0.00000000000E+00 0.  1.
         23    2    1    2    0    0 -0.32793955893E+02 -0.34598804226E+02  0.26351709921E+03  0.29552353067E+03  0.12498149786E+03 0.  0.
          5    1    3    3  502    0 -0.34762521746E+02  0.27259954162E+02  0.29289982407E+02  0.53212132906E+02  0.47000000000E+01 0. -1.
         -5    1    3    3    0  502  0.19685658531E+01 -0.61858758387E+02  0.23422711681E+03  0.24231139777E+03  0.47000000000E+01 0. -1.
        -11    1    1    2    0    0 -0.28948697384E+02 -0.40254928972E+01  0.17544123330E+03  0.17785909596E+03  0.00000000000E+00 0.  1.
         11    1    1    2    0    0  0.61742653277E+02  0.38624297123E+02  0.29583039683E+03  0.30466311764E+03  0.00000000000E+00 0. -1.
<mgrwt>
<rscale>  0 0.12548272E+03</rscale>
<asrwt>0</asrwt>
<pdfrwt beam="1">  1        1 0.11637186E+00 0.13376433E+03</pdfrwt>
<pdfrwt beam="2">  1       -1 0.33274633E-02 0.13376433E+03</pdfrwt>
<totfact> 0.78184569E+03</totfact>
</mgrwt>
</event>
<event>
 7    1  0.4230786E-006  0.1284535E+03  0.7546771E-02  0.1244050E+00
         -1   -1    0    0    0  501 -0.00000000000E+00  0.00000000000E+00  0.30091415393E+03  0.30091415393E+03  0.00000000000E+00 0.  1.
          1   -1    0    0  501    0  0.00000000000E+00 -0.00000000000E+00 -0.52493135179E+02  0.52493135179E+02  0.00000000000E+00 0. -1.
         23    2    1    2    0    0 -0.56591032450E+01  0.27610424510E+02  0.21746438431E+03  0.25256890667E+03  0.12532331461E+03 0.  0.
          5    1    3    3  502    0  0.31089377505E+02 -0.23700212939E+01  0.16717885762E+01  0.31576118691E+02  0.47000000000E+01 0. -1.
         -5    1    3    3    0  502 -0.36748480750E+02  0.29980445804E+02  0.21579259573E+03  0.22099278798E+03  0.47000000000E+01 0.  1.
        -11    1    1    2    0    0  0.10320728340E+02 -0.52918337472E+02 -0.76354555005E+01  0.54453356691E+02  0.00000000000E+00 0. -1.
         11    1    1    2    0    0 -0.46616250946E+01  0.25307912962E+02  0.38592089947E+02  0.46385025746E+02  0.00000000000E+00 0.  1.
<mgrwt>
<rscale>  0 0.11942417E+03</rscale>
<asrwt>0</asrwt>
<pdfrwt beam="2">  1        1 0.80758671E-02 0.12845347E+03</pdfrwt>
<pdfrwt beam="1">  1       -1 0.46294484E-01 0.12845347E+03</pdfrwt>
<totfact> 0.38855410E+03</totfact>
</mgrwt>
</event>
<event>
 7    1  0.4230786E-006  0.1528594E+03  0.7546771E-02  0.1211101E+00
          1   -1    0    0  501    0  0.00000000000E+00  0.00000000000E+00  0.59813792077E+02  0.59813792077E+02  0.00000000000E+00 0. -1.
         -1   -1    0    0    0  501 -0.00000000000E+00 -0.00000000000E+00 -0.30683719707E+03  0.30683719707E+03  0.00000000000E+00 0.  1.
         23    2    1    2    0    0  0.67227579612E+02 -0.56753549407E+02 -0.17714803890E+03  0.23398165117E+03  0.12500189027E+03 0.  0.
          5    1    3    3  502    0  0.33377536410E+02 -0.95453416819E+02 -0.11729275503E+03  0.15493577735E+03  0.47000000000E+01 0.  1.
         -5    1    3    3    0  502  0.33850043202E+02  0.38699867413E+02 -0.59855283865E+02  0.79045873827E+02  0.47000000000E+01 0.  1.
        -11    1    1    2    0    0  0.12098609915E+02 -0.28119486513E+01 -0.22805477075E+01  0.12628709948E+02  0.00000000000E+00 0. -1.
         11    1    1    2    0    0 -0.79326189527E+02  0.59565498058E+02 -0.67594818391E+02  0.12004062803E+03  0.00000000000E+00 0.  1.
<mgrwt>
<rscale>  0 0.14166870E+03</rscale>
<asrwt>0</asrwt>
<pdfrwt beam="1">  1        1 0.92021218E-02 0.15285936E+03</pdfrwt>
<pdfrwt beam="2">  1       -1 0.47205723E-01 0.15285936E+03</pdfrwt>
<totfact> 0.31816429E+03</totfact>
</mgrwt>
</event>
<event>
 7    1  0.4230786E-006  0.1322528E+03  0.7546771E-02  0.1236970E+00
         -2   -1    0    0    0  501 -0.00000000000E+00  0.00000000000E+00  0.48403791637E+02  0.48403791637E+02  0.00000000000E+00 0. -1.
          2   -1    0    0  501    0  0.00000000000E+00 -0.00000000000E+00 -0.36692725363E+03  0.36692725363E+03  0.00000000000E+00 0.  1.
         23    2    1    2    0    0  0.41062337690E+02  0.13385383519E+02 -0.76278621820E+02  0.15267358475E+03  0.12500204504E+03 0.  0.
          5    1    3    3  502    0  0.56287366350E+02 -0.26721158460E+02 -0.88024700052E+02  0.10794779173E+03  0.47000000000E+01 0.  1.
         -5    1    3    3    0  502 -0.15225028659E+02  0.40106541979E+02  0.11746078232E+02  0.44725793017E+02  0.47000000000E+01 0.  1.
        -11    1    1    2    0    0 -0.64142158676E+02 -0.51919362847E-01 -0.21571936422E+03  0.22505346768E+03  0.00000000000E+00 0.  1.
         11    1    1    2    0    0  0.23079820986E+02 -0.13333464156E+02 -0.26525475959E+02  0.37603992846E+02  0.00000000000E+00 0. -1.
<mgrwt>
<rscale>  0 0.12379179E+03</rscale>
<asrwt>0</asrwt>
<pdfrwt beam="2">  1        2 0.56450343E-01 0.13225277E+03</pdfrwt>
<pdfrwt beam="1">  1       -2 0.74467376E-02 0.13225277E+03</pdfrwt>
<totfact> 0.88098787E+03</totfact>
</mgrwt>
</event>
<event>
 7    1  0.4230786E-006  0.1254133E+03  0.7546771E-02  0.1250212E+00
          3   -1    0    0  501    0  0.00000000000E+00  0.00000000000E+00  0.24211205242E+03  0.24211205242E+03  0.00000000000E+00 0. -1.
         -3   -1    0    0    0  501 -0.00000000000E+00 -0.00000000000E+00 -0.50391225701E+02  0.50391225701E+02  0.00000000000E+00 0.  1.
         23    2    1    2    0    0 -0.95239927928E+00  0.10274621040E+02  0.81831675918E+02  0.14974951319E+03  0.12498807390E+03 0.  0.
          5    1    3    3  502    0  0.40418787298E+02  0.45144643779E+02  0.72564978745E+02  0.94654547534E+02  0.47000000000E+01 0.  1.
         -5    1    3    3    0  502 -0.41371186577E+02 -0.34870022739E+02  0.92666971729E+01  0.55094965661E+02  0.47000000000E+01 0.  1.
        -11    1    1    2    0    0 -0.35362174533E+02 -0.32550093042E+02  0.51099001770E+02  0.70150551863E+02  0.00000000000E+00 0.  1.
         11    1    1    2    0    0  0.36314573812E+02  0.22275472002E+02  0.58790149028E+02  0.72603213061E+02  0.00000000000E+00 0. -1.
<mgrwt>
<rscale>  0 0.11578762E+03</rscale>
<asrwt>0</asrwt>
<pdfrwt beam="1">  1        3 0.37248007E-01 0.12541329E+03</pdfrwt>
<pdfrwt beam="2">  1       -3 0.77524964E-02 0.12541329E+03</pdfrwt>
<totfact> 0.18120840E+03</totfact>
</mgrwt>
</event>
<event>
 7    1  0.4230786E-006  0.1274256E+03  0.7546771E-02  0.1244705E+00
         -2   -1    0    0    0  501 -0.00000000000E+00  0.00000000000E+00  0.23748812185E+02  0.23748812185E+02  0.00000000000E+00 0. -1.
          2   -1    0    0  501    0  0.00000000000E+00 -0.00000000000E+00 -0.63897878515E+03  0.63897878515E+03  0.00000000000E+00 0.  1.
         23    2    1    2    0    0 -0.80563943721E+01  0.23442110600E+02 -0.20658576910E+03  0.24272403657E+03  0.12499135928E+03 0.  0.
          5    1    3    3  502    0  0.54051428388E+02  0.16670644249E+02 -0.14113161077E+03  0.15211735223E+03  0.47000000000E+01 0. -1.
         -5    1    3    3    0  502 -0.62107822760E+02  0.67714663505E+01 -0.65454158334E+02  0.90606684344E+02  0.47000000000E+01 0. -1.
        -11    1    1    2    0    0  0.37511634949E+02 -0.44620490418E+02 -0.20385867620E+03  0.21202941018E+03  0.00000000000E+00 0. -1.
         11    1    1    2    0    0 -0.29455240577E+02  0.21178379818E+02 -0.20478552767E+03  0.20797415058E+03  0.00000000000E+00 0.  1.
<mgrwt>
<rscale>  0 0.11903041E+03</rscale>
<asrwt>0</asrwt>
<pdfrwt beam="2">  1        2 0.98304412E-01 0.12742558E+03</pdfrwt>
<pdfrwt beam="1">  1       -2 0.36536640E-02 0.12742558E+03</pdfrwt>
<totfact> 0.13959913E+04</totfact>
</mgrwt>
</event>
<event>
 7    1  0.4230786E-006  0.1741750E+03  0.7546771E-02  0.1179728E+00
          3   -1    0    0  501    0  0.00000000000E+00  0.00000000000E+00  0.33973082369E+02  0.33973082369E+02  0.00000000000E+00 0. -1.
         -3   -1    0    0    0  501 -0.00000000000E+00 -0.00000000000E+00 -0.90456163727E+03  0.90456163727E+03  0.00000000000E+00 0.  1.
         23    2    1    2    0    0  0.10673435579E+03 -0.57646421422E+02 -0.63482405016E+03  0.65828452234E+03  0.12498641959E+03 0.  0.
          5    1    3    3  502    0  0.29267625212E+01 -0.68283082219E+02 -0.21444361219E+03  0.22512063003E+03  0.47000000000E+01 0.  1.
         -5    1    3    3    0  502  0.10380759327E+03  0.10636660796E+02 -0.42038043797E+03  0.43316389231E+03  0.47000000000E+01 0.  1.
        -11    1    1    2    0    0  0.20639685414E+00  0.32620852885E+02 -0.20338218409E+02  0.38442239407E+02  0.00000000000E+00 0. -1.
         11    1    1    2    0    0 -0.10694075264E+03  0.25025568537E+02 -0.21542628634E+03  0.24180795790E+03  0.00000000000E+00 0.  1.
<mgrwt>
<rscale>  0 0.16820918E+03</rscale>
<asrwt>0</asrwt>
<pdfrwt beam="1">  1        3 0.52266279E-02 0.17417502E+03</pdfrwt>
<pdfrwt beam="2">  1       -3 0.13916333E+00 0.17417502E+03</pdfrwt>
<totfact> 0.21119527E+02</totfact>
</mgrwt>
</event>
<event>
 7    1  0.4230786E-006  0.1379436E+03  0.7546771E-02  0.1232744E+00
          2   -1    0    0  501    0  0.00000000000E+00  0.00000000000E+00  0.77852087755E+03  0.77852087755E+03  0.00000000000E+00 0. -1.
         -2   -1    0    0    0  501 -0.00000000000E+00 -0.00000000000E+00 -0.18032978484E+02  0.18032978484E+02  0.00000000000E+00 0.  1.
         23    2    1    2    0    0 -0.40634289506E+02 -0.41861463036E+02  0.48834242453E+03  0.50745124107E+03  0.12499964355E+03 0.  0.
          5    1    3    3  502    0  0.74214090304E+01  0.99343221592E+01  0.36489895858E+03  0.36513984724E+03  0.47000000000E+01 0. -1.
         -5    1    3    3    0  502 -0.48055698537E+02 -0.51795785196E+02  0.12344346595E+03  0.14231139383E+03  0.47000000000E+01 0. -1.
        -11    1    1    2    0    0  0.60757570553E+02  0.29463764104E+02  0.14730397794E+03  0.16204338213E+03  0.00000000000E+00 0.  1.
         11    1    1    2    0    0 -0.20123281046E+02  0.12397698932E+02  0.12484149660E+03  0.12705923285E+03  0.00000000000E+00 0. -1.
<mgrwt>
<rscale>  0 0.12649974E+03</rscale>
<asrwt>0</asrwt>
<pdfrwt beam="1">  1        2 0.11977242E+00 0.13794361E+03</pdfrwt>
<pdfrwt beam="2">  1       -2 0.27743050E-02 0.13794361E+03</pdfrwt>
<totfact> 0.16648777E+04</totfact>
</mgrwt>
</event>
<event>
 7    1  0.4230786E-006  0.1344758E+03  0.7546771E-02  0.1233667E+00
          3   -1    0    0  501    0  0.00000000000E+00  0.00000000000E+00  0.18360164796E+03  0.18360164796E+03  0.00000000000E+00 0. -1.
         -3   -1    0    0    0  501 -0.00000000000E+00 -0.00000000000E+00 -0.77218570054E+02  0.77218570054E+02  0.00000000000E+00 0.  1.
         23    2    1    2    0    0 -0.49573708025E+02 -0.18910875816E+01  0.67045223987E+02  0.15026241594E+03  0.12499041102E+03 0.  0.
          5    1    3    3  502    0 -0.79135756825E+01  0.58960051362E+02  0.21342195474E+02  0.63375796992E+02  0.47000000000E+01 0.  1.
         -5    1    3    3    0  502 -0.41660132343E+02 -0.60851138944E+02  0.45703028513E+02  0.86886618952E+02  0.47000000000E+01 0.  1.
        -11    1    1    2    0    0 -0.36485308666E+01 -0.20317027145E+02 -0.19338525728E+02  0.28285543071E+02  0.00000000000E+00 0.  1.
         11    1    1    2    0    0  0.53222238892E+02  0.22208114727E+02  0.58676379643E+02  0.82272258996E+02  0.00000000000E+00 0. -1.
<mgrwt>
<rscale>  0 0.12590178E+03</rscale>
<asrwt>0</asrwt>
<pdfrwt beam="1">  1        3 0.28246407E-01 0.13447577E+03</pdfrwt>
<pdfrwt beam="2">  1       -3 0.11879780E-01 0.13447577E+03</pdfrwt>
<totfact> 0.15225392E+03</totfact>
</mgrwt>
</event>
<event>
 7    1  0.4230786E-006  0.1615542E+03  0.7546771E-02  0.1193961E+00
          1   -1    0    0  501    0  0.00000000000E+00  0.00000000000E+00  0.34630385642E+03  0.34630385642E+03  0.00000000000E+00 0. -1.
         -1   -1    0    0    0  501 -0.00000000000E+00 -0.00000000000E+00 -0.65228909234E+02  0.65228909234E+02  0.00000000000E+00 0.  1.
         23    2    1    2    0    0  0.88953405728E+02  0.50619661641E+02  0.13794332548E+03  0.21243383380E+03  0.12499885665E+03 0.  0.
          5    1    3    3  502    0  0.32211932369E+02 -0.28957354284E+02  0.97056632589E+02  0.10638710863E+03  0.47000000000E+01 0. -1.
         -5    1    3    3    0  502  0.56741473359E+02  0.79577015925E+02  0.40886692890E+02  0.10604672516E+03  0.47000000000E+01 0. -1.
        -11    1    1    2    0    0 -0.17923955866E+02 -0.19960835173E+02 -0.91069329520E+01  0.28330890605E+02  0.00000000000E+00 0.  1.
         11    1    1    2    0    0 -0.71029449862E+02 -0.30658826468E+02  0.15223855466E+03  0.17076804125E+03  0.00000000000E+00 0. -1.
<mgrwt>
<rscale>  0 0.15542484E+03</rscale>
<asrwt>0</asrwt>
<pdfrwt beam="1">  1        1 0.53277516E-01 0.16155424E+03</pdfrwt>
<pdfrwt beam="2">  1       -1 0.10035217E-01 0.16155424E+03</pdfrwt>
<totfact> 0.42979660E+03</totfact>
</mgrwt>
</event>
<event>
 7    1  0.4230786E-006  0.1387514E+03  0.7546771E-02  0.1226427E+00
         -2   -1    0    0    0  501 -0.00000000000E+00  0.00000000000E+00  0.69039175275E+02  0.69039175275E+02  0.00000000000E+00 0.  1.
          2   -1    0    0  501    0  0.00000000000E+00 -0.00000000000E+00 -0.28630329466E+03  0.28630329466E+03  0.00000000000E+00 0. -1.
         23    2    1    2    0    0  0.59192358884E+02 -0.11086084811E+02 -0.35396885699E+02  0.14319523992E+03  0.12500120236E+03 0.  0.
          5    1    3    3  502    0 -0.26443831542E+02 -0.14235654270E+02 -0.47631493812E+02  0.56504683716E+02  0.47000000000E+01 0.  1.
         -5    1    3    3    0  502  0.85636190426E+02  0.31495694588E+01  0.12234608112E+02  0.86690556200E+02  0.47000000000E+01 0.  1.
        -11    1    1    2    0    0 -0.33151549882E+02  0.13644864612E+02 -0.18248564489E+03  0.18597370293E+03  0.00000000000E+00 0. -1.
         11    1    1    2    0    0 -0.26040809003E+02 -0.25587798003E+01  0.61841121104E+00  0.26173527084E+02  0.00000000000E+00 0.  1.
<mgrwt>
<rscale>  0 0.13069573E+03</rscale>
<asrwt>0</asrwt>
<pdfrwt beam="2">  1        2 0.44046661E-01 0.13875135E+03</pdfrwt>
<pdfrwt beam="1">  1       -2 0.10621412E-01 0.13875135E+03</pdfrwt>
<totfact> 0.66151874E+03</totfact>
</mgrwt>
</event>
<event>
 7    1  0.4230786E-006  0.2634174E+03  0.7546771E-02  0.1107406E+00
         -2   -1    0    0    0  501 -0.00000000000E+00  0.00000000000E+00  0.61705859574E+02  0.61705859574E+02  0.00000000000E+00 0.  1.
          2   -1    0    0  501    0  0.00000000000E+00 -0.00000000000E+00 -0.11544224827E+04  0.11544224827E+04  0.00000000000E+00 0. -1.
         23    2    1    2    0    0 -0.23037359611E+03 -0.26285098958E+02 -0.73403957096E+03  0.77987358788E+03  0.12500328448E+03 0.  0.
          5    1    3    3  502    0 -0.18453252036E+01  0.92474387754E+01 -0.30706101491E+00  0.10540618363E+02  0.47000000000E+01 0.  1.
         -5    1    3    3    0  502 -0.22852827091E+03 -0.35532537734E+02 -0.73373250994E+03  0.76933296952E+03  0.47000000000E+01 0.  1.
        -11    1    1    2    0    0  0.14360692567E+03  0.46770950896E+02 -0.16888801593E+03  0.22656926727E+03  0.00000000000E+00 0.  1.
         11    1    1    2    0    0  0.86766670441E+02 -0.20485851938E+02 -0.18978903622E+03  0.20968548709E+03  0.00000000000E+00 0. -1.
<mgrwt>
<rscale>  0 0.25956234E+03</rscale>
<asrwt>0</asrwt>
<pdfrwt beam="2">  1        2 0.17760345E+00 0.26341739E+03</pdfrwt>
<pdfrwt beam="1">  1       -2 0.94932094E-02 0.26341739E+03</pdfrwt>
<totfact> 0.15314391E+03</totfact>
</mgrwt>
</event>
<event>
 7    1  0.4230786E-006  0.1265004E+03  0.7546771E-02  0.1247711E+00
         -1   -1    0    0    0  501 -0.00000000000E+00  0.00000000000E+00  0.53761404331E+02  0.53761404331E+02  0.00000000000E+00 0.  1.
          1   -1    0    0  501    0  0.00000000000E+00 -0.00000000000E+00 -0.24231354017E+03  0.24231354017E+03  0.00000000000E+00 0. -1.
         23    2    1    2    0    0  0.11736925542E+02 -0.15490010859E+02 -0.68041963069E+02  0.14363865890E+03  0.12499863894E+03 0.  0.
          5    1    3    3  502    0  0.12776642599E+02 -0.13324890685E+02 -0.10479308617E+03  0.10651045121E+03  0.47000000000E+01 0. -1.
         -5    1    3    3    0  502 -0.10397170576E+01 -0.21651201743E+01  0.36751123105E+02  0.37128207692E+02  0.47000000000E+01 0. -1.
        -11    1    1    2    0    0  0.15765360231E+01 -0.23142159396E+02  0.20090933383E+01  0.23282642963E+02  0.00000000000E+00 0.  1.
         11    1    1    2    0    0 -0.13313461565E+02  0.38632170254E+02 -0.12251926611E+03  0.12915364263E+03  0.00000000000E+00 0. -1.
<mgrwt>
<rscale>  0 0.11724570E+03</rscale>
<asrwt>0</asrwt>
<pdfrwt beam="2">  1        1 0.37279007E-01 0.12650042E+03</pdfrwt>
<pdfrwt beam="1">  1       -1 0.82709852E-02 0.12650042E+03</pdfrwt>
<totfact> 0.88453881E+03</totfact>
</mgrwt>
</event>
<event>
 7    1  0.4230786E-006  0.1299444E+03  0.7546771E-02  0.1251439E+00
          1   -1    0    0  501    0  0.00000000000E+00  0.00000000000E+00  0.19700441690E+03  0.19700441690E+03  0.00000000000E+00 0. -1.
         -1   -1    0    0    0  501 -0.00000000000E+00 -0.00000000000E+00 -0.57140087012E+02  0.57140087012E+02  0.00000000000E+00 0.  1.
         23    2    1    2    0    0  0.35300757542E+02  0.36519692206E+01  0.68040046817E+02  0.14667990619E+03  0.12500426612E+03 0.  0.
          5    1    3    3  502    0  0.50865531579E+02 -0.38978926435E+02  0.76889463538E+02  0.10020348603E+03  0.47000000000E+01 0. -1.
         -5    1    3    3    0  502 -0.15564774036E+02  0.42630895656E+02 -0.88494167216E+01  0.46476420167E+02  0.47000000000E+01 0. -1.
        -11    1    1    2    0    0 -0.48221698383E+02 -0.10980402197E+00  0.17162578737E+02  0.51184942715E+02  0.00000000000E+00 0.  1.
         11    1    1    2    0    0  0.12920940840E+02 -0.35421651986E+01  0.54661704339E+02  0.56279655007E+02  0.00000000000E+00 0. -1.
<mgrwt>
<rscale>  0 0.11508137E+03</rscale>
<asrwt>0</asrwt>
<pdfrwt beam="1">  1        1 0.30308372E-01 0.12994440E+03</pdfrwt>
<pdfrwt beam="2">  1       -1 0.87907827E-02 0.12994440E+03</pdfrwt>
<totfact> 0.10444816E+04</totfact>
</mgrwt>
</event>
<event>
 6    1  0.4230786E-006  0.3603010E+03  0.7546771E-02  0.1094957E+00
         -1   -1    0    0    0  501 -0.00000000000E+00  0.00000000000E+00  0.49713148487E+03  0.49713148487E+03  0.00000000000E+00 0.  1.
          1   -1    0    0  501    0  0.00000000000E+00 -0.00000000000E+00 -0.19620801304E+03  0.19620801304E+03  0.00000000000E+00 0. -1.
          5    1    1    2  502    0  0.70186723531E+02 -0.87602802093E+01 -0.51824531777E+02  0.87811108428E+02  0.47000000000E+01 0. -1.
         -5    1    1    2    0  502  0.26399616558E+02  0.13378108939E+02  0.44299577141E+03  0.44400817226E+03  0.47000000000E+01 0.  1.
        -11    1    1    2    0    0 -0.17849288930E+02 -0.18578362605E+02 -0.76061721249E+02  0.80306525960E+02  0.00000000000E+00 0. -1.
         11    1    1    2    0    0 -0.78737051159E+02  0.13960533875E+02 -0.14186046550E+02  0.81213691260E+02  0.00000000000E+00 0.  1.
<mgrwt>
<rscale>  0 0.28134511E+03</rscale>
<asrwt>0</asrwt>
<pdfrwt beam="2">  1        1 0.30185848E-01 0.36030100E+03</pdfrwt>
<pdfrwt beam="1">  1       -1 0.76481766E-01 0.36030100E+03</pdfrwt>
<totfact> 0.26910514E+02</totfact>
</mgrwt>
</event>
<event>
 7    1  0.4230786E-006  0.1251267E+03  0.7546771E-02  0.1250649E+00
          1   -1    0    0  501    0  0.00000000000E+00  0.00000000000E+00  0.15258343596E+03  0.15258343596E+03  0.00000000000E+00 0. -1.
         -1   -1    0    0    0  501 -0.00000000000E+00 -0.00000000000E+00 -0.76805458630E+02  0.76805458630E+02  0.00000000000E+00 0.  1.
         23    2    1    2    0    0 -0.23516180395E+01  0.51070178782E+01  0.36710857849E+02  0.13040087500E+03  0.12500035751E+03 0.  0.
          5    1    3    3  502    0  0.42041780019E+01  0.46077504434E+02  0.65028514916E+02  0.79947540799E+02  0.47000000000E+01 0. -1.
         -5    1    3    3    0  502 -0.65557960413E+01 -0.40970486556E+02 -0.28317657068E+02  0.50453334203E+02  0.47000000000E+01 0. -1.
        -11    1    1    2    0    0 -0.28643792845E+02 -0.32490039087E+02  0.37992852067E+02  0.57615330569E+02  0.00000000000E+00 0. -1.
         11    1    1    2    0    0  0.30995410884E+02  0.27383021209E+02  0.10742674162E+01  0.41372689022E+02  0.00000000000E+00 0.  1.
<mgrwt>
<rscale>  0 0.11553577E+03</rscale>
<asrwt>0</asrwt>
<pdfrwt beam="1">  1        1 0.23474375E-01 0.12512674E+03</pdfrwt>
<pdfrwt beam="2">  1       -1 0.11816224E-01 0.12512674E+03</pdfrwt>
<totfact> 0.91233869E+03</totfact>
</mgrwt>
</event>
<event>
 7    1  0.4230786E-006  0.1750689E+03  0.7546771E-02  0.1176160E+00
          1   -1    0    0  501    0  0.00000000000E+00  0.00000000000E+00  0.32574646592E+02  0.32574646592E+02  0.00000000000E+00 0. -1.
         -1   -1    0    0    0  501 -0.00000000000E+00 -0.00000000000E+00 -0.10082365609E+04  0.10082365609E+04  0.00000000000E+00 0.  1.
         23    2    1    2    0    0  0.31666064636E+02  0.12954813710E+03 -0.69678441533E+03  0.71844112095E+03  0.11341809093E+03 0.  0.
          5    1    3    3  502    0 -0.23557555130E+02  0.69677224988E+02 -0.16877323488E+03  0.18416397286E+03  0.47000000000E+01 0. -1.
         -5    1    3    3    0  502  0.55223619766E+02  0.59870912115E+02 -0.52801118045E+03  0.53427714810E+03  0.47000000000E+01 0.  1.
        -11    1    1    2    0    0 -0.26095763429E+02 -0.13035863422E+02 -0.13003287281E+03  0.13326466379E+03  0.00000000000E+00 0.  1.
         11    1    1    2    0    0 -0.55703012070E+01 -0.11651227368E+03 -0.14884462616E+03  0.18910542274E+03  0.00000000000E+00 0. -1.
<mgrwt>
<rscale>  0 0.17162887E+03</rscale>
<asrwt>0</asrwt>
<pdfrwt beam="1">  1        1 0.50114839E-02 0.17506891E+03</pdfrwt>
<pdfrwt beam="2">  1       -1 0.15511332E+00 0.17506891E+03</pdfrwt>
<totfact> 0.57165394E+02</totfact>
</mgrwt>
</event>
<event>
 7    1  0.4230786E-006  0.1316138E+03  0.7546771E-02  0.1238611E+00
          2   -1    0    0  501    0  0.00000000000E+00  0.00000000000E+00  0.30028930517E+03  0.30028930517E+03  0.00000000000E+00 0. -1.
         -2   -1    0    0    0  501 -0.00000000000E+00 -0.00000000000E+00 -0.45179305841E+02  0.45179305841E+02  0.00000000000E+00 0.  1.
         23    2    1    2    0    0 -0.43127299489E+01 -0.40982269075E+02  0.12417208623E+03  0.18094447265E+03  0.12499619660E+03 0.  0.
          5    1    3    3  502    0 -0.70018058762E+01 -0.85083510396E+02  0.67517709278E+02  0.10894475707E+03  0.47000000000E+01 0.  1.
         -5    1    3    3    0  502  0.26890759272E+01  0.44101241320E+02  0.56654376954E+02  0.71999715578E+02  0.47000000000E+01 0.  1.
        -11    1    1    2    0    0  0.28135762183E+02 -0.18001638507E+02  0.28334755358E+02  0.43801124001E+02  0.00000000000E+00 0.  1.
         11    1    1    2    0    0 -0.23823032234E+02  0.58983907583E+02  0.10260315774E+03  0.12072301436E+03  0.00000000000E+00 0. -1.
<mgrwt>
<rscale>  0 0.12276059E+03</rscale>
<asrwt>0</asrwt>
<pdfrwt beam="1">  1        2 0.46198353E-01 0.13161381E+03</pdfrwt>
<pdfrwt beam="2">  1       -2 0.69506626E-02 0.13161381E+03</pdfrwt>
<totfact> 0.12104649E+04</totfact>
</mgrwt>
</event>
<event>
 6    1  0.4230786E-006  0.1362169E+03  0.7546771E-02  0.1235760E+00
         -1   -1    0    0    0  501 -0.00000000000E+00  0.00000000000E+00  0.23500766220E+03  0.23500766220E+03  0.00000000000E+00 0.  1.
          1   -1    0    0  501    0  0.00000000000E+00 -0.00000000000E+00 -0.77007952817E+02  0.77007952817E+02  0.00000000000E+00 0. -1.
          5    1    1    2  502    0 -0.97782399180E+01 -0.58249735211E+02  0.12139261296E+03  0.13508109457E+03  0.47000000000E+01 0. -1.
         -5    1    1    2    0  502 -0.11068788311E+02  0.65391427225E+02  0.46573280867E+02  0.81177073856E+02  0.47000000000E+01 0.  1.
        -11    1    1    2    0    0  0.45498007759E+02 -0.16262977571E+02 -0.34840881674E+02  0.59568785327E+02  0.00000000000E+00 0. -1.
         11    1    1    2    0    0 -0.24650979530E+02  0.91212855567E+01  0.24874697230E+02  0.36188661267E+02  0.00000000000E+00 0.  1.
<mgrwt>
<rscale>  0 0.12455903E+03</rscale>
<asrwt>0</asrwt>
<pdfrwt beam="2">  1        1 0.11847377E-01 0.13621694E+03</pdfrwt>
<pdfrwt beam="1">  1       -1 0.36155025E-01 0.13621694E+03</pdfrwt>
<totfact> 0.36231913E+03</totfact>
</mgrwt>
</event>
<event>
 7    1  0.4230786E-006  0.1379182E+03  0.7546771E-02  0.1227163E+00
         -3   -1    0    0    0  501 -0.00000000000E+00  0.00000000000E+00  0.80253795725E+02  0.80253795725E+02  0.00000000000E+00 0.  1.
          3   -1    0    0  501    0  0.00000000000E+00 -0.00000000000E+00 -0.20969986918E+03  0.20969986918E+03  0.00000000000E+00 0. -1.
         23    2    1    2    0    0 -0.53289403511E+02  0.23598353923E+02 -0.28152215735E+02  0.14076217510E+03  0.12499919941E+03 0.  0.
          5    1    3    3  502    0 -0.38017150479E+02 -0.46585721105E+02 -0.32758464773E+02  0.68634831942E+02  0.47000000000E+01 0.  1.
         -5    1    3    3    0  502 -0.15272253032E+02  0.70184075028E+02  0.46062490377E+01  0.72127343154E+02  0.47000000000E+01 0.  1.
        -11    1    1    2    0    0  0.58436440234E+02  0.86050560792E+01 -0.21273485079E+02  0.62780774962E+02  0.00000000000E+00 0.  1.
         11    1    1    2    0    0 -0.51470367234E+01 -0.32203410003E+02 -0.80020372641E+02  0.86410714848E+02  0.00000000000E+00 0. -1.
<mgrwt>
<rscale>  0 0.13019771E+03</rscale>
<asrwt>0</asrwt>
<pdfrwt beam="2">  1        3 0.32261518E-01 0.13791825E+03</pdfrwt>
<pdfrwt beam="1">  1       -3 0.12346738E-01 0.13791825E+03</pdfrwt>
<totfact> 0.11205010E+03</totfact>
</mgrwt>
</event>
<event>
 7    1  0.4230786E-006  0.1575864E+03  0.7546771E-02  0.1198905E+00
          1   -1    0    0  501    0  0.00000000000E+00  0.00000000000E+00  0.41220775440E+02  0.41220775440E+02  0.00000000000E+00 0. -1.
         -1   -1    0    0    0  501 -0.00000000000E+00 -0.00000000000E+00 -0.54367437686E+03  0.54367437686E+03  0.00000000000E+00 0.  1.
         23    2    1    2    0    0 -0.81333873123E+02  0.50924078850E+02 -0.33744146360E+03  0.37242477789E+03  0.12500005243E+03 0.  0.
          5    1    3    3  502    0 -0.72409001305E+02  0.56989281806E+02 -0.10537512779E+03  0.14006016303E+03  0.47000000000E+01 0.  1.
         -5    1    3    3    0  502 -0.89248718179E+01 -0.60652029557E+01 -0.23206633581E+03  0.23236461486E+03  0.47000000000E+01 0.  1.
        -11    1    1    2    0    0 -0.15862315843E+01 -0.33590322047E+02 -0.10053931914E+03  0.10601405830E+03  0.00000000000E+00 0.  1.
         11    1    1    2    0    0  0.82920104707E+02 -0.17333756803E+02 -0.64472818686E+02  0.10645631611E+03  0.00000000000E+00 0. -1.
<mgrwt>
<rscale>  0 0.15128299E+03</rscale>
<asrwt>0</asrwt>
<pdfrwt beam="1">  1        1 0.63416585E-02 0.15758640E+03</pdfrwt>
<pdfrwt beam="2">  1       -1 0.83642202E-01 0.15758640E+03</pdfrwt>
<totfact> 0.17426064E+03</totfact>
</mgrwt>
</event>
<event>
 7    1  0.4230786E-006  0.2204419E+03  0.7546771E-02  0.1138757E+00
         -1   -1    0    0    0  501 -0.00000000000E+00  0.00000000000E+00  0.19748999360E+03  0.19748999360E+03  0.00000000000E+00 0.  1.
          1   -1    0    0  501    0  0.00000000000E+00 -0.00000000000E+00 -0.22582435720E+03  0.22582435720E+03  0.00000000000E+00 0. -1.
         23    2    1    2    0    0  0.17818426057E+03  0.34931926582E+02  0.24990418013E+02  0.22185391795E+03  0.12499907883E+03 0.  0.
          5    1    3    3  502    0  0.38535345217E+02  0.64829452936E+02 -0.54372230999E+01  0.75759383538E+02  0.47000000000E+01 0.  1.
         -5    1    3    3    0  502  0.13964891535E+03 -0.29897526353E+02  0.30427641113E+02  0.14609453441E+03  0.47000000000E+01 0.  1.
        -11    1    1    2    0    0 -0.54795675573E+02 -0.29007267253E+01  0.14919312326E+02  0.56864454251E+02  0.00000000000E+00 0.  1.
         11    1    1    2    0    0 -0.12338858499E+03 -0.32031199857E+02 -0.68244093938E+02  0.14459597860E+03  0.00000000000E+00 0. -1.
<mgrwt>
<rscale>  0 0.21358702E+03</rscale>
<asrwt>0</asrwt>
<pdfrwt beam="2">  1        1 0.34742209E-01 0.22044192E+03</pdfrwt>
<pdfrwt beam="1">  1       -1 0.30383076E-01 0.22044192E+03</pdfrwt>
<totfact> 0.12521117E+03</totfact>
</mgrwt>
</event>
<event>
 7    1  0.4230786E-006  0.1375919E+03  0.7546771E-02  0.1228496E+00
          2   -1    0    0  501    0  0.00000000000E+00  0.00000000000E+00  0.16106985964E+02  0.16106985964E+02  0.00000000000E+00 0.  1.
         -2   -1    0    0    0  501 -0.00000000000E+00 -0.00000000000E+00 -0.10919935280E+04  0.10919935280E+04  0.00000000000E+00 0. -1.
         23    2    1    2    0    0 -0.56336592633E+02 -0.11531670176E+02 -0.80605482690E+03  0.81771382674E+03  0.12499890953E+03 0.  0.
          5    1    3    3  502    0 -0.75067158641E+01 -0.57354799044E+02 -0.54823878850E+03  0.55130189822E+03  0.47000000000E+01 0. -1.
         -5    1    3    3    0  502 -0.48829876769E+02  0.45823128867E+02 -0.25781603840E+03  0.26641192852E+03  0.47000000000E+01 0. -1.
        -11    1    1    2    0    0  0.14614866454E+02  0.46809028488E+02 -0.90696362100E+02  0.10310436251E+03  0.00000000000E+00 0.  1.
         11    1    1    2    0    0  0.41721726179E+02 -0.35277358312E+02 -0.17913535300E+03  0.18728232469E+03  0.00000000000E+00 0. -1.
<mgrwt>
<rscale>  0 0.12930158E+03</rscale>
<asrwt>0</asrwt>
<pdfrwt beam="1">  1        2 0.24779981E-02 0.13759185E+03</pdfrwt>
<pdfrwt beam="2">  1       -2 0.16799898E+00 0.13759185E+03</pdfrwt>
<totfact> 0.92783062E+02</totfact>
</mgrwt>
</event>
<event>
 7    1  0.4230786E-006  0.2852048E+03  0.7546771E-02  0.1094701E+00
         -1   -1    0    0    0  501 -0.00000000000E+00  0.00000000000E+00  0.60151284668E+03  0.60151284668E+03  0.00000000000E+00 0.  1.
          1   -1    0    0  501    0  0.00000000000E+00 -0.00000000000E+00 -0.15568926487E+03  0.15568926487E+03  0.00000000000E+00 0. -1.
         23    2    1    2    0    0  0.37909321769E+02  0.25352004361E+03  0.38407082566E+03  0.47838498415E+03  0.12502905563E+03 0.  0.
          5    1    3    3  502    0  0.79850144080E+02  0.12930532351E+03  0.23397424891E+03  0.27903754470E+03  0.47000000000E+01 0.  1.
         -5    1    3    3    0  502 -0.41940822310E+02  0.12421472010E+03  0.15009657675E+03  0.19934743946E+03  0.47000000000E+01 0.  1.
        -11    1    1    2    0    0 -0.18395135236E+02 -0.18322859084E+03  0.84207483979E+02  0.20248950062E+03  0.00000000000E+00 0. -1.
         11    1    1    2    0    0 -0.19514186534E+02 -0.70291452769E+02 -0.22454727829E+02  0.76327626783E+02  0.00000000000E+00 0.  1.
<mgrwt>
<rscale>  0 0.28181688E+03</rscale>
<asrwt>0</asrwt>
<pdfrwt beam="2">  1        1 0.23952195E-01 0.28520483E+03</pdfrwt>
<pdfrwt beam="1">  1       -1 0.92540437E-01 0.28520483E+03</pdfrwt>
<totfact> 0.24278813E+02</totfact>
</mgrwt>
</event>
<event>
 7    1  0.4230786E-006  0.1307384E+03  0.7546771E-02  0.1240169E+00
          1   -1    0    0  501    0  0.00000000000E+00  0.00000000000E+00  0.16907418752E+03  0.16907418752E+03  0.00000000000E+00 0. -1.
         -1   -1    0    0    0  501 -0.00000000000E+00 -0.00000000000E+00 -0.81440798817E+02  0.81440798817E+02  0.00000000000E+00 0.  1.
         23    2    1    2    0    0  0.46195887059E+01 -0.38124906930E+02  0.23033696151E+02  0.13275196881E+03  0.12497073632E+03 0.  0.
          5    1    3    3  502    0  0.55390255720E+02  0.59673981569E+01  0.32521163478E+02  0.64679257443E+02  0.47000000000E+01 0.  1.
         -5    1    3    3    0  502 -0.50770667014E+02 -0.44092305086E+02 -0.94874673264E+01  0.68072711369E+02  0.47000000000E+01 0.  1.
        -11    1    1    2    0    0 -0.22232730339E+02 -0.21015935034E+02  0.32798244048E+01  0.30768832799E+02  0.00000000000E+00 0.  1.
         11    1    1    2    0    0  0.17613141633E+02  0.59140841964E+02  0.61319868142E+02  0.86994184722E+02  0.00000000000E+00 0. -1.
<mgrwt>
<rscale>  0 0.12179261E+03</rscale>
<asrwt>0</asrwt>
<pdfrwt beam="1">  1        1 0.26011413E-01 0.13073842E+03</pdfrwt>
<pdfrwt beam="2">  1       -1 0.12529354E-01 0.13073842E+03</pdfrwt>
<totfact> 0.73537113E+03</totfact>
</mgrwt>
</event>
<event>
 7    1  0.4230786E-006  0.1590831E+03  0.7546771E-02  0.1197811E+00
          1   -1    0    0  501    0  0.00000000000E+00  0.00000000000E+00  0.20333416107E+03  0.20333416107E+03  0.00000000000E+00 0. -1.
         -1   -1    0    0    0  501 -0.00000000000E+00 -0.00000000000E+00 -0.17324148999E+03  0.17324148999E+03  0.00000000000E+00 0.  1.
         23    2    1    2    0    0  0.97836108002E+02 -0.10460716259E+02 -0.10198357533E+03  0.18896582302E+03  0.12500440799E+03 0.  0.
          5    1    3    3  502    0  0.12744550727E+02  0.29219948884E+01 -0.10175566225E+03  0.10269988523E+03  0.47000000000E+01 0.  1.
         -5    1    3    3    0  502  0.85091557276E+02 -0.13382711148E+02 -0.22791308317E+00  0.86265937783E+02  0.47000000000E+01 0.  1.
        -11    1    1    2    0    0 -0.78152679200E+02 -0.20478108480E+02  0.12710019730E+03  0.15060429724E+03  0.00000000000E+00 0. -1.
         11    1    1    2    0    0 -0.19683428803E+02  0.30938824739E+02  0.49760491153E+01  0.37005530809E+02  0.00000000000E+00 0.  1.
<mgrwt>
<rscale>  0 0.15218714E+03</rscale>
<asrwt>0</asrwt>
<pdfrwt beam="1">  1        1 0.31282179E-01 0.15908310E+03</pdfrwt>
<pdfrwt beam="2">  1       -1 0.26652537E-01 0.15908310E+03</pdfrwt>
<totfact> 0.17662010E+03</totfact>
</mgrwt>
</event>
<event>
 7    1  0.4230786E-006  0.1359247E+03  0.7546771E-02  0.1231224E+00
          2   -1    0    0  501    0  0.00000000000E+00  0.00000000000E+00  0.12177071202E+03  0.12177071202E+03  0.00000000000E+00 0. -1.
         -2   -1    0    0    0  501 -0.00000000000E+00 -0.00000000000E+00 -0.12149970894E+03  0.12149970894E+03  0.00000000000E+00 0.  1.
         23    2    1    2    0    0  0.14383366443E+02  0.51418481124E+02 -0.15806408088E+02  0.13684066670E+03  0.12499913638E+03 0.  0.
          5    1    3    3  502    0  0.35104928065E+02 -0.17629102430E+02 -0.44108279340E+02  0.59251763967E+02  0.47000000000E+01 0. -1.
         -5    1    3    3    0  502 -0.20721561621E+02  0.69047583554E+02  0.28301871252E+02  0.77588902731E+02  0.47000000000E+01 0. -1.
        -11    1    1    2    0    0 -0.46321914121E+01 -0.59156742539E+02 -0.24342101384E+02  0.64136692188E+02  0.00000000000E+00 0.  1.
         11    1    1    2    0    0 -0.97511750314E+01  0.77382614151E+01  0.40419512556E+02  0.42293062073E+02  0.00000000000E+00 0. -1.
<mgrwt>
<rscale>  0 0.12749302E+03</rscale>
<asrwt>0</asrwt>
<pdfrwt beam="1">  1        2 0.18733956E-01 0.13592471E+03</pdfrwt>
<pdfrwt beam="2">  1       -2 0.18692263E-01 0.13592471E+03</pdfrwt>
<totfact> 0.67067870E+03</totfact>
</mgrwt>
</event>
<event>
 7    1  0.5734282E-006  0.3502697E+03  0.7546771E-02  0.1063616E+00
         -3   -1    0    0    0  501 -0.00000000000E+00  0.00000000000E+00  0.29827271753E+03  0.29827271753E+03  0.00000000000E+00 0.  1.
          3   -1    0    0  501    0  0.00000000000E+00 -0.00000000000E+00 -0.42185438331E+03  0.42185438331E+03  0.00000000000E+00 0. -1.
         23    2    1    2    0    0 -0.30717263835E+03  0.11273397181E+03  0.21287755069E+02  0.35091594058E+03  0.12499940276E+03 0.  0.
          5    1    3    3  502    0 -0.30931451796E+03  0.10782898861E+03 -0.90756366228E+00  0.32760567070E+03  0.47000000000E+01 0.  1.
         -5    1    3    3    0  502  0.21418796101E+01  0.49049831997E+01  0.22195318731E+02  0.23310269883E+02  0.47000000000E+01 0.  1.
        -11    1    1    2    0    0  0.25596756894E+03 -0.12578030352E+03 -0.13465549185E+03  0.31539210927E+03  0.00000000000E+00 0. -1.
         11    1    1    2    0    0  0.51205069402E+02  0.13046331710E+02 -0.10213929008E+02  0.53819050989E+02  0.00000000000E+00 0.  1.
<mgrwt>
<rscale>  0 0.34757181E+03</rscale>
<asrwt>0</asrwt>
<pdfrwt beam="2">  1        3 0.64900674E-01 0.35026965E+03</pdfrwt>
<pdfrwt beam="1">  1       -3 0.45888110E-01 0.35026965E+03</pdfrwt>
<totfact> 0.27905196E+01</totfact>
</mgrwt>
</event>
<event>
 6    1  0.4230786E-006  0.2468131E+03  0.7546771E-02  0.1115336E+00
         -2   -1    0    0    0  501 -0.00000000000E+00  0.00000000000E+00  0.39326945633E+02  0.39326945633E+02  0.00000000000E+00 0.  1.
          2   -1    0    0  501    0  0.00000000000E+00 -0.00000000000E+00 -0.38724541937E+03  0.38724541937E+03  0.00000000000E+00 0. -1.
          5    1    1    2  502    0  0.20309128452E+02  0.63252363428E+02 -0.16592896464E+03  0.17879550745E+03  0.47000000000E+01 0. -1.
         -5    1    1    2    0  502  0.72090406207E+00 -0.20760401345E+02  0.15101384007E+02  0.26108538174E+02  0.47000000000E+01 0.  1.
        -11    1    1    2    0    0  0.24456928295E+02 -0.48372723589E+02 -0.12469336269E+03  0.13596505590E+03  0.00000000000E+00 0. -1.
         11    1    1    2    0    0 -0.45486960809E+02  0.58807615060E+01 -0.72397530413E+02  0.85703263470E+02  0.00000000000E+00 0.  1.
<mgrwt>
<rscale>  0 0.24681312E+03</rscale>
<asrwt>0</asrwt>
<pdfrwt beam="2">  1        2 0.59576221E-01 0.24681312E+03</pdfrwt>
<pdfrwt beam="1">  1       -2 0.60502991E-02 0.24681312E+03</pdfrwt>
<totfact> 0.11920193E+04</totfact>
</mgrwt>
</event>
<event>
 7    1  0.4230786E-006  0.1271083E+03  0.7546771E-02  0.1247290E+00
         -1   -1    0    0    0  501 -0.00000000000E+00  0.00000000000E+00  0.43785253460E+03  0.43785253460E+03  0.00000000000E+00 0.  1.
          1   -1    0    0  501    0  0.00000000000E+00 -0.00000000000E+00 -0.34157371594E+02  0.34157371594E+02  0.00000000000E+00 0. -1.
         23    2    1    2    0    0 -0.20737207540E+02  0.10058759518E+02  0.32960353270E+03  0.35326337842E+03  0.12500126139E+03 0.  0.
          5    1    3    3  502    0 -0.14963417024E+02 -0.47046491412E+01 -0.58607757218E+01  0.17391844774E+02  0.47000000000E+01 0. -1.
         -5    1    3    3    0  502 -0.57737905164E+01  0.14763408660E+02  0.33546430842E+03  0.33587153365E+03  0.47000000000E+01 0. -1.
        -11    1    1    2    0    0 -0.38274341805E+01 -0.40537615509E+02  0.67816134856E+02  0.79101047214E+02  0.00000000000E+00 0.  1.
         11    1    1    2    0    0  0.24564641721E+02  0.30478855991E+02  0.62754954505E+01  0.39645480556E+02  0.00000000000E+00 0. -1.
<mgrwt>
<rscale>  0 0.11749334E+03</rscale>
<asrwt>0</asrwt>
<pdfrwt beam="2">  1        1 0.52549806E-02 0.12710832E+03</pdfrwt>
<pdfrwt beam="1">  1       -1 0.67361924E-01 0.12710832E+03</pdfrwt>
<totfact> 0.34430200E+03</totfact>
</mgrwt>
</event>
<event>
 7    1  0.4230786E-006  0.1451122E+03  0.7546771E-02  0.1215577E+00
         -3   -1    0    0    0  501 -0.00000000000E+00  0.00000000000E+00  0.27741650303E+02  0.27741650303E+02  0.00000000000E+00 0.  1.
          3   -1    0    0  501    0  0.00000000000E+00 -0.00000000000E+00 -0.65738592430E+03  0.65738592430E+03  0.00000000000E+00 0. -1.
         23    2    1    2    0    0 -0.39073376185E+02 -0.62497820310E+02 -0.27767633795E+03  0.31330769774E+03  0.12499943416E+03 0.  0.
          5    1    3    3  502    0 -0.28001574338E+01  0.23893085483E+02 -0.16444423622E+03  0.16626099134E+03  0.47000000000E+01 0. -1.
         -5    1    3    3    0  502 -0.36273218751E+02 -0.86390905793E+02 -0.11323210173E+03  0.14704670640E+03  0.47000000000E+01 0. -1.
        -11    1    1    2    0    0 -0.37305111116E+01  0.55238023326E+02 -0.29523433565E+03  0.30038054012E+03  0.00000000000E+00 0. -1.
         11    1    1    2    0    0  0.42803887297E+02  0.72597969847E+01 -0.56733600404E+02  0.71439336746E+02  0.00000000000E+00 0.  1.
<mgrwt>
<rscale>  0 0.13834225E+03</rscale>
<asrwt>0</asrwt>
<pdfrwt beam="2">  1        3 0.10113629E+00 0.14511225E+03</pdfrwt>
<pdfrwt beam="1">  1       -3 0.42679466E-02 0.14511225E+03</pdfrwt>
<totfact> 0.60609739E+02</totfact>
</mgrwt>
</event>
<event>
 7    1  0.4230786E-006  0.1325360E+03  0.7546771E-02  0.1236791E+00
          2   -1    0    0  501    0  0.00000000000E+00  0.00000000000E+00  0.22165046879E+02  0.22165046879E+02  0.00000000000E+00 0. -1.
         -2   -1    0    0    0  501 -0.00000000000E+00 -0.00000000000E+00 -0.85602620067E+03  0.85602620067E+03  0.00000000000E+00 0.  1.
         23    2    1    2    0    0 -0.34770670561E+02 -0.27045750369E+02 -0.68793517245E+03  0.70058589681E+03  0.12500130064E+03 0.  0.
          5    1    3    3  502    0 -0.31268851827E+02 -0.58194662561E+02 -0.18229657643E+03  0.19395487007E+03  0.47000000000E+01 0. -1.
         -5    1    3    3    0  502 -0.35018187338E+01  0.31148912192E+02 -0.50563859602E+03  0.50663102674E+03  0.47000000000E+01 0. -1.
        -11    1    1    2    0    0  0.14036115839E+02  0.27829611036E+02 -0.15264539266E+03  0.15579510807E+03  0.00000000000E+00 0.  1.
         11    1    1    2    0    0  0.20734554721E+02 -0.78386066622E+00  0.67194113206E+01  0.21810242675E+02  0.00000000000E+00 0. -1.
<mgrwt>
<rscale>  0 0.12390449E+03</rscale>
<asrwt>0</asrwt>
<pdfrwt beam="1">  1        2 0.34100073E-02 0.13253602E+03</pdfrwt>
<pdfrwt beam="2">  1       -2 0.13169634E+00 0.13253602E+03</pdfrwt>
<totfact> 0.11214624E+03</totfact>
</mgrwt>
</event>
<event>
 7    1  0.4230786E-006  0.1629364E+03  0.7546771E-02  0.1192952E+00
          2   -1    0    0  501    0  0.00000000000E+00  0.00000000000E+00  0.31145149029E+03  0.31145149029E+03  0.00000000000E+00 0. -1.
         -2   -1    0    0    0  501 -0.00000000000E+00 -0.00000000000E+00 -0.87205126995E+02  0.87205126995E+02  0.00000000000E+00 0.  1.
         23    2    1    2    0    0  0.10148986287E+03 -0.24950180234E+02  0.38714541048E+02  0.16747268515E+03  0.12500232328E+03 0.  0.
          5    1    3    3  502    0  0.56267036212E+02  0.28256423174E+02  0.66930834500E+02  0.92012126491E+02  0.47000000000E+01 0. -1.
         -5    1    3    3    0  502  0.45222826654E+02 -0.53206603408E+02 -0.28216293451E+02  0.75460558658E+02  0.47000000000E+01 0. -1.
        -11    1    1    2    0    0 -0.62418468334E+02  0.36528855835E+01  0.29883538783E+02  0.69299600666E+02  0.00000000000E+00 0.  1.
         11    1    1    2    0    0 -0.39071394532E+02  0.21297294650E+02  0.15564828346E+03  0.16188433147E+03  0.00000000000E+00 0. -1.
<mgrwt>
<rscale>  0 0.15628823E+03</rscale>
<asrwt>0</asrwt>
<pdfrwt beam="1">  1        2 0.47915613E-01 0.16293644E+03</pdfrwt>
<pdfrwt beam="2">  1       -2 0.13416174E-01 0.16293644E+03</pdfrwt>
<totfact> 0.42005813E+03</totfact>
</mgrwt>
</event>
<event>
 7    1  0.4230786E-006  0.1327890E+03  0.7546771E-02  0.1235372E+00
          4   -1    0    0  501    0  0.00000000000E+00  0.00000000000E+00  0.29229920245E+03  0.29229920245E+03  0.00000000000E+00 0. -1.
         -4   -1    0    0    0  501 -0.00000000000E+00 -0.00000000000E+00 -0.48866140560E+02  0.48866140560E+02  0.00000000000E+00 0.  1.
         23    2    1    2    0    0  0.11752540642E+01  0.44767077846E+02  0.11143455407E+03  0.17335100283E+03  0.12500975107E+03 0.  0.
          5    1    3    3  502    0  0.21281644326E+02 -0.58803590313E+01  0.11627168607E+03  0.11844273717E+03  0.47000000000E+01 0. -1.
         -5    1    3    3    0  502 -0.20106390262E+02  0.50647436877E+02 -0.48371320023E+01  0.54908265658E+02  0.47000000000E+01 0. -1.
        -11    1    1    2    0    0  0.20241760935E+02  0.84939135340E+01 -0.19945091227E+01  0.22042085190E+02  0.00000000000E+00 0.  1.
         11    1    1    2    0    0 -0.21417014999E+02 -0.53260991380E+02  0.13399301694E+03  0.14577225499E+03  0.00000000000E+00 0. -1.
<mgrwt>
<rscale>  0 0.12480649E+03</rscale>
<asrwt>0</asrwt>
<pdfrwt beam="1">  1        4 0.44969107E-01 0.13278897E+03</pdfrwt>
<pdfrwt beam="2">  1       -4 0.75178680E-02 0.13278897E+03</pdfrwt>
<totfact> 0.96929801E+02</totfact>
</mgrwt>
</event>
<event>
 6    1  0.4230786E-006  0.1399151E+03  0.7546771E-02  0.1229432E+00
         -1   -1    0    0    0  501 -0.00000000000E+00  0.00000000000E+00  0.36568408768E+02  0.36568408768E+02  0.00000000000E+00 0.  1.
          1   -1    0    0  501    0  0.00000000000E+00 -0.00000000000E+00 -0.48727227961E+03  0.48727227961E+03  0.00000000000E+00 0. -1.
          5    1    1    2  502    0  0.29860766316E+01 -0.59926750854E+02 -0.46436363892E+02  0.76016827171E+02  0.47000000000E+01 0. -1.
         -5    1    1    2    0  502 -0.45315363188E+02  0.63251269286E+02 -0.95709683687E+02  0.12343678041E+03  0.47000000000E+01 0.  1.
        -11    1    1    2    0    0  0.51892642594E+02  0.33614039556E+02 -0.18332681864E+03  0.19347214901E+03  0.00000000000E+00 0.  1.
         11    1    1    2    0    0 -0.95633560379E+01 -0.36938557988E+02 -0.12523100462E+03  0.13091493178E+03  0.00000000000E+00 0. -1.
<mgrwt>
<rscale>  0 0.12867726E+03</rscale>
<asrwt>0</asrwt>
<pdfrwt beam="2">  1        1 0.74964971E-01 0.13991513E+03</pdfrwt>
<pdfrwt beam="1">  1       -1 0.56259087E-02 0.13991513E+03</pdfrwt>
<totfact> 0.66143275E+03</totfact>
</mgrwt>
</event>
<event>
 7    1  0.4230786E-006  0.1332145E+03  0.7546771E-02  0.1234109E+00
         -2   -1    0    0    0  501 -0.00000000000E+00  0.00000000000E+00  0.18357346419E+03  0.18357346419E+03  0.00000000000E+00 0. -1.
          2   -1    0    0  501    0  0.00000000000E+00 -0.00000000000E+00 -0.85225494328E+02  0.85225494328E+02  0.00000000000E+00 0.  1.
         23    2    1    2    0    0 -0.44314379474E+02  0.12490359606E+02  0.94636897432E+02  0.16340822564E+03  0.12500533005E+03 0.  0.
          5    1    3    3  502    0 -0.77358241961E+02  0.27741644778E+02  0.27306646440E+02  0.86727385491E+02  0.47000000000E+01 0.  1.
         -5    1    3    3    0  502  0.33043862487E+02 -0.15251285172E+02  0.67330250992E+02  0.76680840150E+02  0.47000000000E+01 0.  1.
        -11    1    1    2    0    0  0.61831377548E+02 -0.29111076512E+02  0.25423542047E+02  0.72917285436E+02  0.00000000000E+00 0. -1.
         11    1    1    2    0    0 -0.17516998073E+02  0.16620716906E+02 -0.21712469616E+02  0.32473447442E+02  0.00000000000E+00 0.  1.
<mgrwt>
<rscale>  0 0.12561656E+03</rscale>
<asrwt>0</asrwt>
<pdfrwt beam="2">  1        2 0.13111615E-01 0.13321451E+03</pdfrwt>
<pdfrwt beam="1">  1       -2 0.28242071E-01 0.13321451E+03</pdfrwt>
<totfact> 0.49777347E+03</totfact>
</mgrwt>
</event>
<event>
 7    1  0.4230786E-006  0.1409673E+03  0.7546771E-02  0.1222832E+00
         -1   -1    0    0    0  501 -0.00000000000E+00  0.00000000000E+00  0.42427515239E+03  0.42427515239E+03  0.00000000000E+00 0.  1.
          1   -1    0    0  501    0  0.00000000000E+00 -0.00000000000E+00 -0.37786700957E+02  0.37786700957E+02  0.00000000000E+00 0. -1.
         23    2    1    2    0    0 -0.41789804982E+02  0.50002960830E+02  0.21697542821E+03  0.25874719424E+03  0.12500036075E+03 0.  0.
          5    1    3    3  502    0 -0.49015990991E+02  0.37085547891E+02  0.25609357025E+02  0.66752036692E+02  0.47000000000E+01 0.  1.
         -5    1    3    3    0  502  0.72261860090E+01  0.12917412939E+02  0.19136607119E+03  0.19199515755E+03  0.47000000000E+01 0.  1.
        -11    1    1    2    0    0  0.69396633329E+02 -0.38745742313E+02  0.14208012594E+03  0.16280014574E+03  0.00000000000E+00 0. -1.
         11    1    1    2    0    0 -0.27606828347E+02 -0.11257218517E+02  0.27432897276E+02  0.40514513363E+02  0.00000000000E+00 0.  1.
<mgrwt>
<rscale>  0 0.13316634E+03</rscale>
<asrwt>0</asrwt>
<pdfrwt beam="2">  1        1 0.58133389E-02 0.14096728E+03</pdfrwt>
<pdfrwt beam="1">  1       -1 0.65273097E-01 0.14096728E+03</pdfrwt>
<totfact> 0.32098300E+03</totfact>
</mgrwt>
</event>
<event>
 7    1  0.4230786E-006  0.1209890E+03  0.7546771E-02  0.1255151E+00
          2   -1    0    0  501    0  0.00000000000E+00  0.00000000000E+00  0.70352876435E+03  0.70352876435E+03  0.00000000000E+00 0.  1.
         -2   -1    0    0    0  501 -0.00000000000E+00 -0.00000000000E+00 -0.18097940521E+02  0.18097940521E+02  0.00000000000E+00 0. -1.
         23    2    1    2    0    0 -0.25817370865E+02  0.29877451581E+02  0.26595495510E+03  0.29218209038E+03  0.11436405487E+03 0.  0.
          5    1    3    3  502    0 -0.44525696631E+02  0.38146923934E+02  0.56110961120E+02  0.81291176790E+02  0.47000000000E+01 0. -1.
         -5    1    3    3    0  502  0.18708325765E+02 -0.82694723539E+01  0.20984399398E+03  0.21089091359E+03  0.47000000000E+01 0.  1.
        -11    1    1    2    0    0  0.11008335038E+02 -0.57006394082E+02  0.32178867737E+03  0.32698450313E+03  0.00000000000E+00 0.  1.
         11    1    1    2    0    0  0.14809035827E+02  0.27128942502E+02  0.97687191365E+02  0.10246011136E+03  0.00000000000E+00 0. -1.
<mgrwt>
<rscale>  0 0.11297903E+03</rscale>
<asrwt>0</asrwt>
<pdfrwt beam="1">  1        2 0.10823517E+00 0.12098899E+03</pdfrwt>
<pdfrwt beam="2">  1       -2 0.27842991E-02 0.12098899E+03</pdfrwt>
<totfact> 0.18523932E+04</totfact>
</mgrwt>
</event>
<event>
 6    1  0.4230786E-006  0.2065414E+03  0.7546771E-02  0.1170696E+00
         -1   -1    0    0    0  501 -0.00000000000E+00  0.00000000000E+00  0.66040403723E+03  0.66040403723E+03  0.00000000000E+00 0.  1.
          1   -1    0    0  501    0  0.00000000000E+00 -0.00000000000E+00 -0.39151185019E+02  0.39151185019E+02  0.00000000000E+00 0. -1.
          5    1    1    2  502    0 -0.12862582751E+03 -0.11995029087E+02  0.32015461896E+03  0.34526736635E+03  0.47000000000E+01 0. -1.
         -5    1    1    2    0  502  0.65812954697E+02 -0.35479307049E+02  0.13075929530E+03  0.15069906948E+03  0.47000000000E+01 0.  1.
        -11    1    1    2    0    0  0.57801330678E+01  0.33596354881E+02  0.14469504818E+02  0.37033654549E+02  0.00000000000E+00 0. -1.
         11    1    1    2    0    0  0.57032739745E+02  0.13877981255E+02  0.15586943314E+03  0.16655513188E+03  0.00000000000E+00 0.  1.
<mgrwt>
<rscale>  0 0.17704248E+03</rscale>
<asrwt>0</asrwt>
<pdfrwt beam="2">  1        1 0.60232597E-02 0.20654139E+03</pdfrwt>
<pdfrwt beam="1">  1       -1 0.10160061E+00 0.20654139E+03</pdfrwt>
<totfact> 0.12405806E+03</totfact>
</mgrwt>
</event>
<event>
 7    1  0.4230786E-006  0.1623762E+03  0.7546771E-02  0.1193646E+00
          2   -1    0    0  501    0  0.00000000000E+00  0.00000000000E+00  0.56789076855E+03  0.56789076855E+03  0.00000000000E+00 0. -1.
         -2   -1    0    0    0  501 -0.00000000000E+00 -0.00000000000E+00 -0.39765779441E+02  0.39765779441E+02  0.00000000000E+00 0.  1.
         23    2    1    2    0    0  0.35840600818E+01  0.10357231881E+03  0.30978629844E+03  0.34976219569E+03  0.12500388845E+03 0.  0.
          5    1    3    3  502    0 -0.31974237836E+02  0.11349378048E+03  0.27310314079E+03  0.29750732025E+03  0.47000000000E+01 0.  1.
         -5    1    3    3    0  502  0.35558297918E+02 -0.99214616751E+01  0.36683157649E+02  0.52254875444E+02  0.47000000000E+01 0.  1.
        -11    1    1    2    0    0  0.17555853733E+02 -0.99034063830E+02  0.11706280744E+03  0.15433617426E+03  0.00000000000E+00 0.  1.
         11    1    1    2    0    0 -0.21139913814E+02 -0.45382549774E+01  0.10127588323E+03  0.10355817804E+03  0.00000000000E+00 0. -1.
<mgrwt>
<rscale>  0 0.15569346E+03</rscale>
<asrwt>0</asrwt>
<pdfrwt beam="1">  1        2 0.87367805E-01 0.16237624E+03</pdfrwt>
<pdfrwt beam="2">  1       -2 0.61178126E-02 0.16237624E+03</pdfrwt>
<totfact> 0.74889166E+03</totfact>
</mgrwt>
</event>
<event>
 7    1  0.4230786E-006  0.1425104E+03  0.7546771E-02  0.1220137E+00
          2   -1    0    0  501    0  0.00000000000E+00  0.00000000000E+00  0.87178331640E+03  0.87178331640E+03  0.00000000000E+00 0. -1.
         -2   -1    0    0    0  501 -0.00000000000E+00 -0.00000000000E+00 -0.19264464141E+02  0.19264464141E+02  0.00000000000E+00 0.  1.
         23    2    1    2    0    0 -0.16987083307E+02  0.66278059581E+02  0.42037682397E+03  0.44387599145E+03  0.12501151734E+03 0.  0.
          5    1    3    3  502    0 -0.20004964808E+02  0.22367208490E+02  0.11294731444E+02  0.32406042508E+02  0.47000000000E+01 0. -1.
         -5    1    3    3    0  502  0.30178815009E+01  0.43910851091E+02  0.40908209253E+03  0.41146994894E+03  0.47000000000E+01 0. -1.
        -11    1    1    2    0    0 -0.18734538304E+02  0.42454675935E+01  0.20845865301E+02  0.28347081343E+02  0.00000000000E+00 0.  1.
         11    1    1    2    0    0  0.35721621611E+02 -0.70523527175E+02  0.41129616299E+03  0.41882470775E+03  0.00000000000E+00 0. -1.
<mgrwt>
<rscale>  0 0.13505852E+03</rscale>
<asrwt>0</asrwt>
<pdfrwt beam="1">  1        2 0.13412048E+00 0.14251043E+03</pdfrwt>
<pdfrwt beam="2">  1       -2 0.29637644E-02 0.14251043E+03</pdfrwt>
<totfact> 0.13130601E+04</totfact>
</mgrwt>
</event>
<event>
 7    1  0.4230786E-006  0.1261283E+03  0.7546771E-02  0.1250604E+00
         -1   -1    0    0    0  501 -0.00000000000E+00  0.00000000000E+00  0.11334301648E+04  0.11334301648E+04  0.00000000000E+00 0.  1.
          1   -1    0    0  501    0  0.00000000000E+00 -0.00000000000E+00 -0.13699555061E+02  0.13699555061E+02  0.00000000000E+00 0. -1.
         23    2    1    2    0    0  0.46470189823E+00 -0.16973678609E+02  0.91881480605E+03  0.92743140107E+03  0.12498013509E+03 0.  0.
          5    1    3    3  502    0 -0.50085696695E+02 -0.23806079147E+02  0.22701005371E+03  0.23373266974E+03  0.47000000000E+01 0.  1.
         -5    1    3    3    0  502  0.50550398594E+02  0.68324005383E+01  0.69180475234E+03  0.69369873134E+03  0.47000000000E+01 0.  1.
        -11    1    1    2    0    0 -0.39353223841E+02  0.42402876871E+01  0.52524663121E+02  0.65768506919E+02  0.00000000000E+00 0.  1.
         11    1    1    2    0    0  0.38888521942E+02  0.12733390922E+02  0.14839114059E+03  0.15392981189E+03  0.00000000000E+00 0. -1.
<mgrwt>
<rscale>  0 0.11556177E+03</rscale>
<asrwt>0</asrwt>
<pdfrwt beam="2">  1        1 0.21076248E-02 0.12612833E+03</pdfrwt>
<pdfrwt beam="1">  1       -1 0.17437380E+00 0.12612833E+03</pdfrwt>
<totfact> 0.13684551E+03</totfact>
</mgrwt>
</event>
<event>
 7    1  0.4230786E-006  0.1548127E+03  0.7546771E-02  0.1202953E+00
         -2   -1    0    0    0  501 -0.00000000000E+00  0.00000000000E+00  0.17642282314E+03  0.17642282314E+03  0.00000000000E+00 0. -1.
          2   -1    0    0  501    0  0.00000000000E+00 -0.00000000000E+00 -0.12763335150E+03  0.12763335150E+03  0.00000000000E+00 0.  1.
         23    2    1    2    0    0 -0.89004798696E+02 -0.20496025512E+02  0.75150435366E+02  0.17208877577E+03  0.12500007024E+03 0.  0.
          5    1    3    3  502    0 -0.29055254166E+02  0.34833961779E+02 -0.17233052993E+02  0.48751213352E+02  0.47000000000E+01 0.  1.
         -5    1    3    3    0  502 -0.59949544529E+02 -0.55329987290E+02  0.92383488359E+02  0.12333756242E+03  0.47000000000E+01 0.  1.
        -11    1    1    2    0    0 -0.18648867140E+02  0.44533602690E+01  0.25721857988E+01  0.19344994264E+02  0.00000000000E+00 0. -1.
         11    1    1    2    0    0  0.10765366584E+03  0.16042665243E+02 -0.28933149530E+02  0.11262240460E+03  0.00000000000E+00 0.  1.
<mgrwt>
<rscale>  0 0.14799975E+03</rscale>
<asrwt>0</asrwt>
<pdfrwt beam="2">  1        2 0.19635900E-01 0.15481266E+03</pdfrwt>
<pdfrwt beam="1">  1       -2 0.27141973E-01 0.15481266E+03</pdfrwt>
<totfact> 0.33697668E+03</totfact>
</mgrwt>
</event>
<event>
 7    1  0.4230786E-006  0.1398555E+03  0.7546771E-02  0.1226073E+00
         -2   -1    0    0    0  501 -0.00000000000E+00  0.00000000000E+00  0.40600927500E+02  0.40600927500E+02  0.00000000000E+00 0. -1.
          2   -1    0    0  501    0  0.00000000000E+00 -0.00000000000E+00 -0.39257953570E+03  0.39257953570E+03  0.00000000000E+00 0.  1.
         23    2    1    2    0    0 -0.40898214806E+02  0.47543015534E+02 -0.15476333741E+03  0.20859349125E+03  0.12500620659E+03 0.  0.
          5    1    3    3  502    0  0.84682381321E+00 -0.26166479711E+02 -0.10899888627E+03  0.11219736619E+03  0.47000000000E+01 0. -1.
         -5    1    3    3    0  502 -0.41745038619E+02  0.73709495245E+02 -0.45764451133E+02  0.96396125058E+02  0.47000000000E+01 0. -1.
        -11    1    1    2    0    0  0.66480303048E+02 -0.20702958065E+02 -0.11572117989E+03  0.13505419150E+03  0.00000000000E+00 0.  1.
         11    1    1    2    0    0 -0.25582088242E+02 -0.26840057469E+02 -0.81494090903E+02  0.89532780455E+02  0.00000000000E+00 0. -1.
<mgrwt>
<rscale>  0 0.13093656E+03</rscale>
<asrwt>0</asrwt>
<pdfrwt beam="2">  1        2 0.60396849E-01 0.13985548E+03</pdfrwt>
<pdfrwt beam="1">  1       -2 0.62462968E-02 0.13985548E+03</pdfrwt>
<totfact> 0.10766763E+04</totfact>
</mgrwt>
</event>
<event>
 7    1  0.4230786E-006  0.1394886E+03  0.7546771E-02  0.1225426E+00
          1   -1    0    0  501    0  0.00000000000E+00  0.00000000000E+00  0.53000067828E+02  0.53000067828E+02  0.00000000000E+00 0. -1.
         -1   -1    0    0    0  501 -0.00000000000E+00 -0.00000000000E+00 -0.31519844576E+03  0.31519844576E+03  0.00000000000E+00 0.  1.
         23    2    1    2    0    0 -0.56473459914E+02 -0.25330236510E+02 -0.19410860843E+03  0.23902976021E+03  0.12500480729E+03 0.  0.
          5    1    3    3  502    0 -0.40432312952E+02  0.44327298493E+02 -0.50564096448E+02  0.78603429772E+02  0.47000000000E+01 0.  1.
         -5    1    3    3    0  502 -0.16041146962E+02 -0.69657535003E+02 -0.14354451198E+03  0.16042633044E+03  0.47000000000E+01 0.  1.
        -11    1    1    2    0    0  0.35222934663E+02  0.16737707452E+02 -0.89609856311E+02  0.97727848258E+02  0.00000000000E+00 0.  1.
         11    1    1    2    0    0  0.21250525251E+02  0.85925290577E+01  0.21520086802E+02  0.31440905124E+02  0.00000000000E+00 0. -1.
<mgrwt>
<rscale>  0 0.13137721E+03</rscale>
<asrwt>0</asrwt>
<pdfrwt beam="1">  1        1 0.81538567E-02 0.13948862E+03</pdfrwt>
<pdfrwt beam="2">  1       -1 0.48492068E-01 0.13948862E+03</pdfrwt>
<totfact> 0.35449683E+03</totfact>
</mgrwt>
</event>
<event>
 7    1  0.4230786E-006  0.2170323E+03  0.7546771E-02  0.1142201E+00
          2   -1    0    0  501    0  0.00000000000E+00  0.00000000000E+00  0.57263366312E+03  0.57263366312E+03  0.00000000000E+00 0. -1.
         -2   -1    0    0    0  501 -0.00000000000E+00 -0.00000000000E+00 -0.92741038939E+02  0.92741038939E+02  0.00000000000E+00 0.  1.
         23    2    1    2    0    0  0.57842886585E+02 -0.16769409374E+03  0.94219746804E+02  0.23660177250E+03  0.12504371019E+03 0.  0.
          5    1    3    3  502    0  0.17473510467E+02  0.12208918651E+02  0.37937126977E+02  0.43768674482E+02  0.47000000000E+01 0.  1.
         -5    1    3    3    0  502  0.40369376117E+02 -0.17990301240E+03  0.56282619827E+02  0.19283309802E+03  0.47000000000E+01 0.  1.
        -11    1    1    2    0    0 -0.36076633960E+02  0.14207130431E+03  0.25783749296E+03  0.29659054571E+03  0.00000000000E+00 0.  1.
         11    1    1    2    0    0 -0.21766252625E+02  0.25622789434E+02  0.12783538442E+03  0.13218238385E+03  0.00000000000E+00 0. -1.
<mgrwt>
<rscale>  0 0.20919960E+03</rscale>
<asrwt>0</asrwt>
<pdfrwt beam="1">  1        2 0.88097484E-01 0.21703234E+03</pdfrwt>
<pdfrwt beam="2">  1       -2 0.14267852E-01 0.21703234E+03</pdfrwt>
<totfact> 0.19715141E+03</totfact>
</mgrwt>
</event>
<event>
 7    1  0.4230786E-006  0.1329848E+03  0.7546771E-02  0.1236294E+00
          1   -1    0    0  501    0  0.00000000000E+00  0.00000000000E+00  0.50431743571E+03  0.50431743571E+03  0.00000000000E+00 0. -1.
         -1   -1    0    0    0  501 -0.00000000000E+00 -0.00000000000E+00 -0.44094787934E+02  0.44094787934E+02  0.00000000000E+00 0.  1.
         23    2    1    2    0    0 -0.40582262832E+02 -0.20352067144E+02  0.80559521652E+02  0.15548249081E+03  0.12499536682E+03 0.  0.
          5    1    3    3  502    0 -0.79288730780E+02 -0.38459706055E+02  0.65612338381E+02  0.10996781696E+03  0.47000000000E+01 0.  1.
         -5    1    3    3    0  502  0.38706467948E+02  0.18107638911E+02  0.14947183271E+02  0.45514673850E+02  0.47000000000E+01 0.  1.
        -11    1    1    2    0    0 -0.28689207190E+02 -0.33702386656E+00  0.12084163865E+03  0.12420098964E+03  0.00000000000E+00 0. -1.
         11    1    1    2    0    0  0.69271470021E+02  0.20689091010E+02  0.25882148748E+03  0.26872874321E+03  0.00000000000E+00 0.  1.
<mgrwt>
<rscale>  0 0.12421969E+03</rscale>
<asrwt>0</asrwt>
<pdfrwt beam="1">  1        1 0.77587294E-01 0.13298484E+03</pdfrwt>
<pdfrwt beam="2">  1       -1 0.67838139E-02 0.13298484E+03</pdfrwt>
<totfact> 0.47710233E+03</totfact>
</mgrwt>
</event>
<event>
 7    1  0.4230786E-006  0.1478688E+03  0.7546771E-02  0.1212545E+00
          1   -1    0    0  501    0  0.00000000000E+00  0.00000000000E+00  0.58840661385E+02  0.58840661385E+02  0.00000000000E+00 0. -1.
         -1   -1    0    0    0  501 -0.00000000000E+00 -0.00000000000E+00 -0.47408825565E+03  0.47408825565E+03  0.00000000000E+00 0.  1.
         23    2    1    2    0    0 -0.34682258742E+02  0.70983750582E+02 -0.37895312902E+03  0.40678084571E+03  0.12499452200E+03 0.  0.
          5    1    3    3  502    0 -0.36527220831E+02  0.10613796243E+03 -0.28972511813E+03  0.31074465242E+03  0.47000000000E+01 0. -1.
         -5    1    3    3    0  502  0.18449620886E+01 -0.35154211850E+02 -0.89228010889E+02  0.96036193297E+02  0.47000000000E+01 0. -1.
        -11    1    1    2    0    0 -0.31045723402E+02 -0.23875678421E+02 -0.18653106695E+02  0.43379987909E+02  0.00000000000E+00 0.  1.
         11    1    1    2    0    0  0.65727982144E+02 -0.47108072161E+02 -0.17641358547E+02  0.82768083407E+02  0.00000000000E+00 0. -1.
<mgrwt>
<rscale>  0 0.14058430E+03</rscale>
<asrwt>0</asrwt>
<pdfrwt beam="1">  1        1 0.90524096E-02 0.14786880E+03</pdfrwt>
<pdfrwt beam="2">  1       -1 0.72936654E-01 0.14786880E+03</pdfrwt>
<totfact> 0.14223118E+03</totfact>
</mgrwt>
</event>
<event>
 6    1  0.4230786E-006  0.1734156E+03  0.7546771E-02  0.1191822E+00
         -2   -1    0    0    0  501 -0.00000000000E+00  0.00000000000E+00  0.40112902700E+02  0.40112902700E+02  0.00000000000E+00 0.  1.
          2   -1    0    0  501    0  0.00000000000E+00 -0.00000000000E+00 -0.53304461889E+03  0.53304461889E+03  0.00000000000E+00 0. -1.
          5    1    1    2  502    0 -0.13729757336E+02 -0.13108109546E+02 -0.24214519180E+03  0.24293355611E+03  0.47000000000E+01 0. -1.
         -5    1    1    2    0  502  0.93473320796E+02  0.81576939775E+01 -0.82065631622E+02  0.12474240484E+03  0.47000000000E+01 0.  1.
        -11    1    1    2    0    0 -0.91598046516E+02  0.14364434934E+02 -0.10540286679E+03  0.14037914177E+03  0.00000000000E+00 0.  1.
         11    1    1    2    0    0  0.11854483056E+02 -0.94140193656E+01 -0.63318025974E+02  0.65102418868E+02  0.00000000000E+00 0. -1.
<mgrwt>
<rscale>  0 0.15726327E+03</rscale>
<asrwt>0</asrwt>
<pdfrwt beam="2">  1        2 0.82006856E-01 0.17341555E+03</pdfrwt>
<pdfrwt beam="1">  1       -2 0.61712164E-02 0.17341555E+03</pdfrwt>
<totfact> 0.79652136E+03</totfact>
</mgrwt>
</event>
<event>
 6    1  0.4230786E-006  0.2372748E+03  0.7546771E-02  0.1149229E+00
         -1   -1    0    0    0  501 -0.00000000000E+00  0.00000000000E+00  0.35856997512E+03  0.35856997512E+03  0.00000000000E+00 0.  1.
          1   -1    0    0  501    0  0.00000000000E+00 -0.00000000000E+00 -0.12181216870E+03  0.12181216870E+03  0.00000000000E+00 0. -1.
          5    1    1    2  502    0 -0.11066192024E+03 -0.25027559784E+02  0.30392007517E+02  0.11755085478E+03  0.47000000000E+01 0. -1.
         -5    1    1    2    0  502  0.39240892638E+02 -0.94790958097E+01  0.23481375341E+03  0.23830503499E+03  0.47000000000E+01 0.  1.
        -11    1    1    2    0    0  0.83754160377E+02  0.41459475515E+02 -0.79240863017E+00  0.93457345361E+02  0.00000000000E+00 0. -1.
         11    1    1    2    0    0 -0.12333132777E+02 -0.69528199218E+01 -0.27655545872E+02  0.31068908678E+02  0.00000000000E+00 0.  1.
<mgrwt>
<rscale>  0 0.20060609E+03</rscale>
<asrwt>0</asrwt>
<pdfrwt beam="2">  1        1 0.18740334E-01 0.23727477E+03</pdfrwt>
<pdfrwt beam="1">  1       -1 0.55164611E-01 0.23727477E+03</pdfrwt>
<totfact> 0.94806795E+02</totfact>
</mgrwt>
</event>
<event>
 7    1  0.4230786E-006  0.2516018E+03  0.7546771E-02  0.1114695E+00
          1   -1    0    0  501    0  0.00000000000E+00  0.00000000000E+00  0.15659815914E+04  0.15659815914E+04  0.00000000000E+00 0. -1.
         -1   -1    0    0    0  501 -0.00000000000E+00 -0.00000000000E+00 -0.49621171580E+02  0.49621171580E+02  0.00000000000E+00 0.  1.
         23    2    1    2    0    0 -0.75622511062E+02  0.20484299348E+03  0.38636645090E+03  0.46106672523E+03  0.12499629825E+03 0.  0.
          5    1    3    3  502    0 -0.50356616945E+02  0.16606358726E+03  0.37491801380E+03  0.41315676317E+03  0.47000000000E+01 0.  1.
         -5    1    3    3    0  502 -0.25265894117E+02  0.38779406215E+02  0.11448437097E+02  0.47909962053E+02  0.47000000000E+01 0.  1.
        -11    1    1    2    0    0  0.90970667172E+02 -0.16409715663E+03  0.99984071402E+03  0.10172929728E+04  0.00000000000E+00 0. -1.
         11    1    1    2    0    0 -0.15348156110E+02 -0.40745836844E+02  0.13015325492E+03  0.13724306497E+03  0.00000000000E+00 0.  1.
<mgrwt>
<rscale>  0 0.24781288E+03</rscale>
<asrwt>0</asrwt>
<pdfrwt beam="1">  1        1 0.24092021E+00 0.25160185E+03</pdfrwt>
<pdfrwt beam="2">  1       -1 0.76340276E-02 0.25160185E+03</pdfrwt>
<totfact> 0.60093650E+02</totfact>
</mgrwt>
</event>
<event>
 7    1  0.4230786E-006  0.1192825E+03  0.7546771E-02  0.1255609E+00
         -2   -1    0    0    0  501 -0.00000000000E+00  0.00000000000E+00  0.33246200049E+02  0.33246200049E+02  0.00000000000E+00 0.  1.
          2   -1    0    0  501    0  0.00000000000E+00 -0.00000000000E+00 -0.34781877471E+03  0.34781877471E+03  0.00000000000E+00 0. -1.
         23    2    1    2    0    0 -0.25379219630E+02  0.15746013332E+01 -0.18967507680E+03  0.22406458572E+03  0.11654063522E+03 0.  0.
          5    1    3    3  502    0 -0.30430081622E+02  0.41546348818E+02 -0.17237818772E+03  0.17996782648E+03  0.47000000000E+01 0. -1.
         -5    1    3    3    0  502  0.50508619917E+01 -0.39971747485E+02 -0.17296889084E+02  0.44096759244E+02  0.47000000000E+01 0.  1.
        -11    1    1    2    0    0 -0.21592181152E+02 -0.32055011587E+02 -0.58918437229E+02  0.70463666526E+02  0.00000000000E+00 0.  1.
         11    1    1    2    0    0  0.46971400782E+02  0.30480410253E+02 -0.65979060630E+02  0.86536722507E+02  0.00000000000E+00 0. -1.
<mgrwt>
<rscale>  0 0.11272284E+03</rscale>
<asrwt>0</asrwt>
<pdfrwt beam="2">  1        2 0.53510577E-01 0.11928245E+03</pdfrwt>
<pdfrwt beam="1">  1       -2 0.51148004E-02 0.11928245E+03</pdfrwt>
<totfact> 0.16343161E+04</totfact>
</mgrwt>
</event>
<event>
 7    1  0.4230786E-006  0.1512790E+03  0.7546771E-02  0.1207831E+00
          1   -1    0    0  501    0  0.00000000000E+00  0.00000000000E+00  0.58008697484E+03  0.58008697484E+03  0.00000000000E+00 0. -1.
         -1   -1    0    0    0  501 -0.00000000000E+00 -0.00000000000E+00 -0.33153354948E+02  0.33153354948E+02  0.00000000000E+00 0.  1.
         23    2    1    2    0    0  0.47922510898E+02 -0.70461760119E+02  0.26988465757E+03  0.30939145099E+03  0.12499565937E+03 0.  0.
          5    1    3    3  502    0  0.16800457344E+02  0.32110061461E+02  0.32575470627E+02  0.48954700495E+02  0.47000000000E+01 0. -1.
         -5    1    3    3    0  502  0.31122053554E+02 -0.10257182158E+03  0.23730918694E+03  0.26043675049E+03  0.47000000000E+01 0. -1.
        -11    1    1    2    0    0 -0.16971402454E+02  0.23806400646E+02  0.98562196081E+01  0.30853172899E+02  0.00000000000E+00 0.  1.
         11    1    1    2    0    0 -0.30951108444E+02  0.46655359473E+02  0.26719274271E+03  0.27299570590E+03  0.00000000000E+00 0. -1.
<mgrwt>
<rscale>  0 0.14416611E+03</rscale>
<asrwt>0</asrwt>
<pdfrwt beam="1">  1        1 0.89244143E-01 0.15127902E+03</pdfrwt>
<pdfrwt beam="2">  1       -1 0.51005166E-02 0.15127902E+03</pdfrwt>
<totfact> 0.60996039E+03</totfact>
</mgrwt>
</event>
<event>
 7    1  0.4230786E-006  0.1834207E+03  0.7546771E-02  0.1172372E+00
         -1   -1    0    0    0  501 -0.00000000000E+00  0.00000000000E+00  0.13360042406E+03  0.13360042406E+03  0.00000000000E+00 0.  1.
          1   -1    0    0  501    0  0.00000000000E+00 -0.00000000000E+00 -0.22813086001E+03  0.22813086001E+03  0.00000000000E+00 0. -1.
         23    2    1    2    0    0  0.94134994032E+02  0.10144538515E+03 -0.34174524883E+01  0.18345255743E+03  0.12037690217E+03 0.  0.
          5    1    3    3  502    0 -0.27160284441E+02  0.14496838007E+02 -0.13184236872E+02  0.33819424375E+02  0.47000000000E+01 0. -1.
         -5    1    3    3    0  502  0.12129527847E+03  0.86948547147E+02  0.97667843840E+01  0.14963313306E+03  0.47000000000E+01 0.  1.
        -11    1    1    2    0    0 -0.53630675563E+02 -0.53977669486E+02 -0.87236035031E+02  0.11575821341E+03  0.00000000000E+00 0. -1.
         11    1    1    2    0    0 -0.40504318469E+02 -0.47467715668E+02 -0.38769484295E+01  0.62520513230E+02  0.00000000000E+00 0.  1.
<mgrwt>
<rscale>  0 0.17535880E+03</rscale>
<asrwt>0</asrwt>
<pdfrwt beam="2">  1        1 0.35097055E-01 0.18342072E+03</pdfrwt>
<pdfrwt beam="1">  1       -1 0.20553912E-01 0.18342072E+03</pdfrwt>
<totfact> 0.23539465E+03</totfact>
</mgrwt>
</event>
<event>
 7    1  0.4230786E-006  0.1419784E+03  0.7546771E-02  0.1220746E+00
         -1   -1    0    0    0  501 -0.00000000000E+00  0.00000000000E+00  0.44531311279E+02  0.44531311279E+02  0.00000000000E+00 0.  1.
          1   -1    0    0  501    0  0.00000000000E+00 -0.00000000000E+00 -0.37039031636E+03  0.37039031636E+03  0.00000000000E+00 0. -1.
         23    2    1    2    0    0 -0.61371788886E+02  0.27688907073E+02 -0.18588899145E+03  0.23390719724E+03  0.12499875091E+03 0.  0.
          5    1    3    3  502    0 -0.67362860454E+02  0.49551231864E+02 -0.53222817681E+02  0.99236272953E+02  0.47000000000E+01 0.  1.
         -5    1    3    3    0  502  0.59910715676E+01 -0.21862324791E+02 -0.13266617377E+03  0.13467092428E+03  0.47000000000E+01 0.  1.
        -11    1    1    2    0    0 -0.24698831020E+02 -0.11263459044E+02 -0.32048993180E+02  0.42000425322E+02  0.00000000000E+00 0.  1.
         11    1    1    2    0    0  0.86070619906E+02 -0.16425448029E+02 -0.10792102045E+03  0.13901400508E+03  0.00000000000E+00 0. -1.
<mgrwt>
<rscale>  0 0.13462754E+03</rscale>
<asrwt>0</asrwt>
<pdfrwt beam="2">  1        1 0.56983125E-01 0.14197838E+03</pdfrwt>
<pdfrwt beam="1">  1       -1 0.68509711E-02 0.14197838E+03</pdfrwt>
<totfact> 0.69945643E+03</totfact>
</mgrwt>
</event>
<event>
 6    1  0.4230786E-006  0.2330324E+03  0.7546771E-02  0.1124523E+00
          2   -1    0    0  501    0  0.00000000000E+00  0.00000000000E+00  0.11371936003E+03  0.11371936003E+03  0.00000000000E+00 0. -1.
         -2   -1    0    0    0  501 -0.00000000000E+00 -0.00000000000E+00 -0.11938178571E+03  0.11938178571E+03  0.00000000000E+00 0.  1.
          5    1    1    2  502    0  0.10140498643E+02  0.79344500102E+01  0.52877844880E+02  0.54625467402E+02  0.47000000000E+01 0. -1.
         -5    1    1    2    0  502 -0.20422864590E+02 -0.28438310042E+02 -0.75532064137E+02  0.83384732349E+02  0.47000000000E+01 0.  1.
        -11    1    1    2    0    0 -0.29890460928E+02  0.38644698817E+02  0.14411331397E+02  0.50936616238E+02  0.00000000000E+00 0.  1.
         11    1    1    2    0    0  0.40172826875E+02 -0.18140838785E+02  0.25804621810E+01  0.44154329754E+02  0.00000000000E+00 0. -1.
<mgrwt>
<rscale>  0 0.23303236E+03</rscale>
<asrwt>0</asrwt>
<pdfrwt beam="1">  1        2 0.17495286E-01 0.23303236E+03</pdfrwt>
<pdfrwt beam="2">  1       -2 0.18366429E-01 0.23303236E+03</pdfrwt>
<totfact> 0.77498881E+03</totfact>
</mgrwt>
</event>
<event>
 7    1  0.4230786E-006  0.1520772E+03  0.7546771E-02  0.1203896E+00
          1   -1    0    0  501    0  0.00000000000E+00  0.00000000000E+00  0.31341541495E+03  0.31341541495E+03  0.00000000000E+00 0. -1.
         -1   -1    0    0    0  501 -0.00000000000E+00 -0.00000000000E+00 -0.74843055598E+02  0.74843055598E+02  0.00000000000E+00 0.  1.
         23    2    1    2    0    0  0.32219643352E+02 -0.80407819361E+02  0.56154090371E+02  0.16211337671E+03  0.12499576877E+03 0.  0.
          5    1    3    3  502    0  0.62469903180E+00 -0.58863470594E+02  0.92108772533E+02  0.10941395888E+03  0.47000000000E+01 0.  1.
         -5    1    3    3    0  502  0.31594944320E+02 -0.21544348767E+02 -0.35954682162E+02  0.52699417831E+02  0.47000000000E+01 0.  1.
        -11    1    1    2    0    0  0.18538721849E+02  0.77299562688E+02  0.85818853939E+02  0.11697769997E+03  0.00000000000E+00 0.  1.
         11    1    1    2    0    0 -0.50758365201E+02  0.31082566732E+01  0.96599415038E+02  0.10916739386E+03  0.00000000000E+00 0. -1.
<mgrwt>
<rscale>  0 0.14724784E+03</rscale>
<asrwt>0</asrwt>
<pdfrwt beam="1">  1        1 0.48217755E-01 0.15207717E+03</pdfrwt>
<pdfrwt beam="2">  1       -1 0.11514316E-01 0.15207717E+03</pdfrwt>
<totfact> 0.39286193E+03</totfact>
</mgrwt>
</event>
<event>
 7    1  0.4230786E-006  0.1250646E+03  0.7546771E-02  0.1250547E+00
         -1   -1    0    0    0  501 -0.00000000000E+00  0.00000000000E+00  0.77047668261E+02  0.77047668261E+02  0.00000000000E+00 0.  1.
          1   -1    0    0  501    0  0.00000000000E+00 -0.00000000000E+00 -0.17992259118E+03  0.17992259118E+03  0.00000000000E+00 0. -1.
         23    2    1    2    0    0  0.41207634017E+01  0.10808062112E+01 -0.80015910325E+01  0.12532026613E+03  0.12499197898E+03 0.  0.
          5    1    3    3  502    0 -0.10447953275E+02 -0.19734645493E+02  0.53743310436E+02  0.58387065152E+02  0.47000000000E+01 0. -1.
         -5    1    3    3    0  502  0.14568716676E+02  0.20815451704E+02 -0.61744901469E+02  0.66933200974E+02  0.47000000000E+01 0. -1.
        -11    1    1    2    0    0  0.12118932700E+02 -0.36633618372E+02 -0.81785234979E+02  0.90430720363E+02  0.00000000000E+00 0. -1.
         11    1    1    2    0    0 -0.16239696101E+02  0.35552812161E+02 -0.13088096905E+02  0.41219272951E+02  0.00000000000E+00 0.  1.
<mgrwt>
<rscale>  0 0.11559428E+03</rscale>
<asrwt>0</asrwt>
<pdfrwt beam="2">  1        1 0.27680399E-01 0.12506456E+03</pdfrwt>
<pdfrwt beam="1">  1       -1 0.11853487E-01 0.12506456E+03</pdfrwt>
<totfact> 0.73876471E+03</totfact>
</mgrwt>
</event>
<event>
 7    1  0.4230786E-006  0.1774502E+03  0.7546771E-02  0.1175994E+00
          2   -1    0    0  501    0  0.00000000000E+00  0.00000000000E+00  0.11577198947E+04  0.11577198947E+04  0.00000000000E+00 0. -1.
         -2   -1    0    0    0  501 -0.00000000000E+00 -0.00000000000E+00 -0.27996465011E+02  0.27996465011E+02  0.00000000000E+00 0.  1.
         23    2    1    2    0    0 -0.11773818108E+03 -0.44733477080E+02  0.37237276851E+03  0.41249247549E+03  0.12500080140E+03 0.  0.
          5    1    3    3  502    0 -0.13404497442E+03 -0.63528840156E+02  0.28239071499E+03  0.31901500688E+03  0.47000000000E+01 0. -1.
         -5    1    3    3    0  502  0.16306793342E+02  0.18795363076E+02  0.89982053523E+02  0.93477468614E+02  0.47000000000E+01 0. -1.
        -11    1    1    2    0    0  0.12717517974E+03  0.22773145730E+02  0.68343228525E+03  0.69553708099E+03  0.00000000000E+00 0.  1.
         11    1    1    2    0    0 -0.94369986580E+01  0.21960331351E+02  0.73918375907E+02  0.77686803213E+02  0.00000000000E+00 0. -1.
<mgrwt>
<rscale>  0 0.17178976E+03</rscale>
<asrwt>0</asrwt>
<pdfrwt beam="1">  1        2 0.17811072E+00 0.17745017E+03</pdfrwt>
<pdfrwt beam="2">  1       -2 0.43071493E-02 0.17745017E+03</pdfrwt>
<totfact> 0.51286422E+03</totfact>
</mgrwt>
</event>
<event>
 7    1  0.4230786E-006  0.1331758E+03  0.7546771E-02  0.1234948E+00
         -2   -1    0    0    0  501 -0.00000000000E+00  0.00000000000E+00  0.80393833252E+02  0.80393833252E+02  0.00000000000E+00 0.  1.
          2   -1    0    0  501    0  0.00000000000E+00 -0.00000000000E+00 -0.17531875137E+03  0.17531875137E+03  0.00000000000E+00 0. -1.
         23    2    1    2    0    0 -0.13407966971E+02 -0.43950585891E+02 -0.44008855904E+02  0.14025898875E+03  0.12499750777E+03 0.  0.
          5    1    3    3  502    0 -0.51791924580E+02  0.21862803063E+02 -0.13163787893E+02  0.57928929915E+02  0.47000000000E+01 0.  1.
         -5    1    3    3    0  502  0.38383957609E+02 -0.65813388954E+02 -0.30845068011E+02  0.82330058836E+02  0.47000000000E+01 0.  1.
        -11    1    1    2    0    0  0.29751004132E+02  0.43107371220E+02 -0.71829792601E+02  0.88898182239E+02  0.00000000000E+00 0. -1.
         11    1    1    2    0    0 -0.16343037161E+02  0.84321467169E+00  0.20913730385E+02  0.26555413633E+02  0.00000000000E+00 0.  1.
<mgrwt>
<rscale>  0 0.12507770E+03</rscale>
<asrwt>0</asrwt>
<pdfrwt beam="2">  1        2 0.26972116E-01 0.13317584E+03</pdfrwt>
<pdfrwt beam="1">  1       -2 0.12368282E-01 0.13317584E+03</pdfrwt>
<totfact> 0.87666625E+03</totfact>
</mgrwt>
</event>
<event>
 7    1  0.4230786E-006  0.2020156E+03  0.7546771E-02  0.1152329E+00
          2   -1    0    0  501    0  0.00000000000E+00  0.00000000000E+00  0.17050367233E+03  0.17050367233E+03  0.00000000000E+00 0. -1.
         -2   -1    0    0    0  501 -0.00000000000E+00 -0.00000000000E+00 -0.21692822814E+03  0.21692822814E+03  0.00000000000E+00 0.  1.
         23    2    1    2    0    0 -0.83367322993E+02  0.13503907716E+03 -0.20372911055E+02  0.20304031160E+03  0.12499859891E+03 0.  0.
          5    1    3    3  502    0  0.10892853230E+02  0.62177938369E+02 -0.49438995243E+02  0.80318456919E+02  0.47000000000E+01 0.  1.
         -5    1    3    3    0  502 -0.94260176223E+02  0.72861138789E+02  0.29066084187E+02  0.12272185468E+03  0.47000000000E+01 0.  1.
        -11    1    1    2    0    0  0.15245794689E+02  0.94597016979E+01  0.10115965094E+02  0.20597401819E+02  0.00000000000E+00 0. -1.
         11    1    1    2    0    0  0.68121528304E+02 -0.14449877886E+03 -0.36167609847E+02  0.16379418705E+03  0.00000000000E+00 0.  1.
<mgrwt>
<rscale>  0 0.19696062E+03</rscale>
<asrwt>0</asrwt>
<pdfrwt beam="1">  1        2 0.26231334E-01 0.20201562E+03</pdfrwt>
<pdfrwt beam="2">  1       -2 0.33373573E-01 0.20201562E+03</pdfrwt>
<totfact> 0.16932938E+03</totfact>
</mgrwt>
</event>
<event>
 6    1  0.4230786E-006  0.4519331E+03  0.7546771E-02  0.1027147E+00
          3   -1    0    0  501    0  0.00000000000E+00  0.00000000000E+00  0.56366339785E+03  0.56366339785E+03  0.00000000000E+00 0. -1.
         -3   -1    0    0    0  501 -0.00000000000E+00 -0.00000000000E+00 -0.90587534481E+02  0.90587534481E+02  0.00000000000E+00 0.  1.
          5    1    1    2  502    0 -0.20079420613E+02  0.90954337567E+01 -0.14506968727E+02  0.26803958458E+02  0.47000000000E+01 0. -1.
         -5    1    1    2    0  502  0.13845910154E+03 -0.74760910037E+02  0.57779444007E+02  0.16769219010E+03  0.47000000000E+01 0.  1.
        -11    1    1    2    0    0 -0.37634589983E+02  0.35377083789E+02  0.56213378974E+02  0.76340319598E+02  0.00000000000E+00 0.  1.
         11    1    1    2    0    0 -0.80745090946E+02  0.30288392492E+02  0.37359000912E+03  0.38341446418E+03  0.00000000000E+00 0. -1.
<mgrwt>
<rscale>  0 0.45193308E+03</rscale>
<asrwt>0</asrwt>
<pdfrwt beam="1">  1        3 0.86717444E-01 0.45193308E+03</pdfrwt>
<pdfrwt beam="2">  1       -3 0.13936544E-01 0.45193308E+03</pdfrwt>
<totfact> 0.13712148E+02</totfact>
</mgrwt>
</event>
<event>
 7    1  0.4230786E-006  0.1328988E+03  0.7546771E-02  0.1237577E+00
         -3   -1    0    0    0  501 -0.00000000000E+00  0.00000000000E+00  0.25101179511E+03  0.25101179511E+03  0.00000000000E+00 0.  1.
          3   -1    0    0  501    0  0.00000000000E+00 -0.00000000000E+00 -0.57715063496E+02  0.57715063496E+02  0.00000000000E+00 0. -1.
         23    2    1    2    0    0 -0.40784294420E+02  0.19289430198E+02  0.15123966102E+03  0.20133435777E+03  0.12500659089E+03 0.  0.
          5    1    3    3  502    0  0.24000470835E+02 -0.33811845869E+02  0.84082685627E+02  0.93868266968E+02  0.47000000000E+01 0. -1.
         -5    1    3    3    0  502 -0.64784765255E+02  0.53101276066E+02  0.67156975391E+02  0.10746609080E+03  0.47000000000E+01 0. -1.
        -11    1    1    2    0    0  0.36049728046E+02 -0.32155682518E+02  0.64807465557E+02  0.80830553643E+02  0.00000000000E+00 0.  1.
         11    1    1    2    0    0  0.47345663741E+01  0.12866252320E+02 -0.22750394962E+02  0.26561947189E+02  0.00000000000E+00 0. -1.
<mgrwt>
<rscale>  0 0.12340882E+03</rscale>
<asrwt>0</asrwt>
<pdfrwt beam="2">  1        3 0.88792407E-02 0.13289879E+03</pdfrwt>
<pdfrwt beam="1">  1       -3 0.38617199E-01 0.13289879E+03</pdfrwt>
<totfact> 0.13694545E+03</totfact>
</mgrwt>
</event>
<event>
 7    1  0.4230786E-006  0.1261008E+03  0.7546771E-02  0.1250311E+00
         -4   -1    0    0    0  501 -0.00000000000E+00  0.00000000000E+00  0.94794883621E+02  0.94794883621E+02  0.00000000000E+00 0.  1.
          4   -1    0    0  501    0  0.00000000000E+00 -0.00000000000E+00 -0.12329815675E+03  0.12329815675E+03  0.00000000000E+00 0. -1.
         23    2    1    2    0    0  0.12402357771E+02  0.11020783340E+02 -0.25049349493E+02  0.12856472510E+03  0.12500456986E+03 0.  0.
          5    1    3    3  502    0  0.27874585078E+02  0.48271139739E+02 -0.54734625234E+02  0.78262792082E+02  0.47000000000E+01 0. -1.
         -5    1    3    3    0  502 -0.15472227306E+02 -0.37250356399E+02  0.29685275741E+02  0.50301933019E+02  0.47000000000E+01 0. -1.
        -11    1    1    2    0    0 -0.27360405986E+02  0.14636008351E+02  0.31122757984E+02  0.43948044560E+02  0.00000000000E+00 0.  1.
         11    1    1    2    0    0  0.14958048215E+02 -0.25656791690E+02 -0.34576681624E+02  0.45580270714E+02  0.00000000000E+00 0. -1.
<mgrwt>
<rscale>  0 0.11573046E+03</rscale>
<asrwt>0</asrwt>
<pdfrwt beam="2">  1        4 0.18968947E-01 0.12610083E+03</pdfrwt>
<pdfrwt beam="1">  1       -4 0.14583828E-01 0.12610083E+03</pdfrwt>
<totfact> 0.15911141E+03</totfact>
</mgrwt>
</event>
<event>
 7    1  0.4230786E-006  0.1624390E+03  0.7546771E-02  0.1193128E+00
         -2   -1    0    0    0  501 -0.00000000000E+00  0.00000000000E+00  0.40335562295E+02  0.40335562295E+02  0.00000000000E+00 0.  1.
          2   -1    0    0  501    0  0.00000000000E+00 -0.00000000000E+00 -0.62537371575E+03  0.62537371575E+03  0.00000000000E+00 0. -1.
         23    2    1    2    0    0  0.79218034536E+02 -0.66933345606E+02 -0.20754666960E+03  0.26355655472E+03  0.12502346869E+03 0.  0.
          5    1    3    3  502    0 -0.34450102218E+01  0.10830833172E+02  0.11482079189E+02  0.16825670421E+02  0.47000000000E+01 0. -1.
         -5    1    3    3    0  502  0.82663044758E+02 -0.77764178778E+02 -0.21902874879E+03  0.24673088430E+03  0.47000000000E+01 0. -1.
        -11    1    1    2    0    0  0.47000727459E+00  0.53693994584E+02 -0.10490754724E+03  0.11785100521E+03  0.00000000000E+00 0.  1.
         11    1    1    2    0    0 -0.79688041810E+02  0.13239351022E+02 -0.27258393662E+03  0.28430171812E+03  0.00000000000E+00 0. -1.
<mgrwt>
<rscale>  0 0.15613731E+03</rscale>
<asrwt>0</asrwt>
<pdfrwt beam="2">  1        2 0.96211336E-01 0.16243903E+03</pdfrwt>
<pdfrwt beam="1">  1       -2 0.62054714E-02 0.16243903E+03</pdfrwt>
<totfact> 0.65627183E+03</totfact>
</mgrwt>
</event>
<event>
 7    1  0.4230786E-006  0.1265720E+03  0.7546771E-02  0.1247204E+00
          1   -1    0    0  501    0  0.00000000000E+00  0.00000000000E+00  0.43601978908E+02  0.43601978908E+02  0.00000000000E+00 0. -1.
         -1   -1    0    0    0  501 -0.00000000000E+00 -0.00000000000E+00 -0.53336527517E+03  0.53336527517E+03  0.00000000000E+00 0.  1.
         23    2    1    2    0    0  0.18777952214E+02  0.67364372240E+01 -0.46169162958E+03  0.47872708972E+03  0.12498989771E+03 0.  0.
          5    1    3    3  502    0 -0.27579124200E+02 -0.40899928491E+02 -0.29632416626E+03  0.30043886858E+03  0.47000000000E+01 0. -1.
         -5    1    3    3    0  502  0.46357076414E+02  0.47636365715E+02 -0.16536746332E+03  0.17828822114E+03  0.47000000000E+01 0. -1.
        -11    1    1    2    0    0  0.24806207858E+02 -0.31161177400E+02  0.20834743386E+01  0.39883678248E+02  0.00000000000E+00 0. -1.
         11    1    1    2    0    0 -0.43584160072E+02  0.24424740176E+02 -0.30155141025E+02  0.58356486119E+02  0.00000000000E+00 0.  1.
<mgrwt>
<rscale>  0 0.11754427E+03</rscale>
<asrwt>0</asrwt>
<pdfrwt beam="1">  1        1 0.67079965E-02 0.12657198E+03</pdfrwt>
<pdfrwt beam="2">  1       -1 0.82056199E-01 0.12657198E+03</pdfrwt>
<totfact> 0.16654081E+03</totfact>
</mgrwt>
</event>
<event>
 7    1  0.4230786E-006  0.1299101E+03  0.7546771E-02  0.1235804E+00
          1   -1    0    0  501    0  0.00000000000E+00  0.00000000000E+00  0.91521159909E+02  0.91521159909E+02  0.00000000000E+00 0. -1.
         -1   -1    0    0    0  501 -0.00000000000E+00 -0.00000000000E+00 -0.17963104227E+03  0.17963104227E+03  0.00000000000E+00 0.  1.
         23    2    1    2    0    0 -0.33649910867E+02  0.55335422100E+02 -0.95460665952E+02  0.16121217685E+03  0.11261572617E+03 0.  0.
          5    1    3    3  502    0 -0.19944754068E+02 -0.33842480321E+02 -0.29228301649E+02  0.49188314734E+02  0.47000000000E+01 0. -1.
         -5    1    3    3    0  502 -0.13705156799E+02  0.89177902420E+02 -0.66232364303E+02  0.11202386212E+03  0.47000000000E+01 0.  1.
        -11    1    1    2    0    0  0.44273435064E+02 -0.34298533455E+02  0.40609096569E+02  0.69178213143E+02  0.00000000000E+00 0. -1.
         11    1    1    2    0    0 -0.10623524197E+02 -0.21036888644E+02 -0.33258312980E+02  0.40761812183E+02  0.00000000000E+00 0.  1.
<mgrwt>
<rscale>  0 0.12453111E+03</rscale>
<asrwt>0</asrwt>
<pdfrwt beam="1">  1        1 0.14080179E-01 0.12991007E+03</pdfrwt>
<pdfrwt beam="2">  1       -1 0.27635545E-01 0.12991007E+03</pdfrwt>
<totfact> 0.45429586E+03</totfact>
</mgrwt>
</event>
<event>
 7    1  0.4230786E-006  0.1646013E+03  0.7546771E-02  0.1183726E+00
          1   -1    0    0  501    0  0.00000000000E+00  0.00000000000E+00  0.62401766350E+03  0.62401766350E+03  0.00000000000E+00 0. -1.
         -1   -1    0    0    0  501 -0.00000000000E+00 -0.00000000000E+00 -0.45585095942E+02  0.45585095942E+02  0.00000000000E+00 0.  1.
         23    2    1    2    0    0 -0.10409130342E+03  0.25147629221E+02  0.21454437815E+03  0.27041240334E+03  0.12500469984E+03 0.  0.
          5    1    3    3  502    0 -0.26382517478E+02  0.51418533635E+02  0.16399620514E+03  0.17394466974E+03  0.47000000000E+01 0. -1.
         -5    1    3    3    0  502 -0.77708785943E+02 -0.26270904414E+02  0.50548173004E+02  0.96467733597E+02  0.47000000000E+01 0. -1.
        -11    1    1    2    0    0  0.41149678920E+02 -0.33281187419E+02  0.31409724323E+03  0.31852474271E+03  0.00000000000E+00 0. -1.
         11    1    1    2    0    0  0.62941624500E+02  0.81335581982E+01  0.49790946184E+02  0.80665613403E+02  0.00000000000E+00 0.  1.
<mgrwt>
<rscale>  0 0.16448307E+03</rscale>
<asrwt>0</asrwt>
<pdfrwt beam="1">  1        1 0.96002712E-01 0.16460127E+03</pdfrwt>
<pdfrwt beam="2">  1       -1 0.70130921E-02 0.16460127E+03</pdfrwt>
<totfact> 0.34411012E+03</totfact>
</mgrwt>
</event>
<event>
 7    1  0.4230786E-006  0.1425574E+03  0.7546771E-02  0.1219831E+00
         -1   -1    0    0    0  501 -0.00000000000E+00  0.00000000000E+00  0.78556281835E+02  0.78556281835E+02  0.00000000000E+00 0.  1.
          1   -1    0    0  501    0  0.00000000000E+00 -0.00000000000E+00 -0.42895938976E+03  0.42895938976E+03  0.00000000000E+00 0. -1.
         23    2    1    2    0    0  0.43707661746E+02  0.52795918646E+02 -0.43005423075E+01  0.14262220616E+03  0.12499932122E+03 0.  0.
          5    1    3    3  502    0  0.59591787217E+02 -0.21077700033E+02  0.13600072664E+02  0.64826711461E+02  0.47000000000E+01 0. -1.
         -5    1    3    3    0  502 -0.15884125471E+02  0.73873618680E+02 -0.17900614972E+02  0.77795494697E+02  0.47000000000E+01 0. -1.
        -11    1    1    2    0    0  0.20720657539E+02 -0.35848447875E+02 -0.74432750326E+02  0.85174474961E+02  0.00000000000E+00 0.  1.
         11    1    1    2    0    0 -0.64428319284E+02 -0.16947470771E+02 -0.27166981529E+03  0.27971899048E+03  0.00000000000E+00 0. -1.
<mgrwt>
<rscale>  0 0.13527547E+03</rscale>
<asrwt>0</asrwt>
<pdfrwt beam="2">  1        1 0.65993751E-01 0.14255735E+03</pdfrwt>
<pdfrwt beam="1">  1       -1 0.12085582E-01 0.14255735E+03</pdfrwt>
<totfact> 0.24513153E+03</totfact>
</mgrwt>
</event>
<event>
 7    1  0.4230786E-006  0.1517639E+03  0.7546771E-02  0.1206646E+00
         -2   -1    0    0    0  501 -0.00000000000E+00  0.00000000000E+00  0.38768278108E+03  0.38768278108E+03  0.00000000000E+00 0.  1.
          2   -1    0    0  501    0  0.00000000000E+00 -0.00000000000E+00 -0.54748085741E+02  0.54748085741E+02  0.00000000000E+00 0. -1.
         23    2    1    2    0    0 -0.64702762145E+02 -0.56750220719E+02  0.24485742619E+03  0.28807538581E+03  0.12500093508E+03 0.  0.
          5    1    3    3  502    0  0.19745504692E+02  0.23005139954E+00  0.14123568878E+03  0.14268688680E+03  0.47000000000E+01 0.  1.
         -5    1    3    3    0  502 -0.84448266837E+02 -0.56980272118E+02  0.10362173741E+03  0.14538849902E+03  0.47000000000E+01 0.  1.
        -11    1    1    2    0    0  0.24982428831E+02  0.23919914835E+02  0.96162219529E+02  0.10219323138E+03  0.00000000000E+00 0.  1.
         11    1    1    2    0    0  0.39720333314E+02  0.32830305884E+02 -0.80849503791E+01  0.52162249622E+02  0.00000000000E+00 0. -1.
<mgrwt>
<rscale>  0 0.14508467E+03</rscale>
<asrwt>0</asrwt>
<pdfrwt beam="2">  1        2 0.84227827E-02 0.15176386E+03</pdfrwt>
<pdfrwt beam="1">  1       -2 0.59643503E-01 0.15176386E+03</pdfrwt>
<totfact> 0.20684219E+03</totfact>
</mgrwt>
</event>
<event>
 7    1  0.4230786E-006  0.1373672E+03  0.7546771E-02  0.1228910E+00
         -1   -1    0    0    0  501 -0.00000000000E+00  0.00000000000E+00  0.69717760842E+02  0.69717760842E+02  0.00000000000E+00 0.  1.
          1   -1    0    0  501    0  0.00000000000E+00 -0.00000000000E+00 -0.21997845070E+03  0.21997845070E+03  0.00000000000E+00 0. -1.
         23    2    1    2    0    0  0.66944009471E+01 -0.56560933939E+02 -0.60512421567E+02  0.15010496143E+03  0.12500316808E+03 0.  0.
          5    1    3    3  502    0 -0.41528011600E+02 -0.27019144110E+02  0.18268933878E+02  0.53013713706E+02  0.47000000000E+01 0. -1.
         -5    1    3    3    0  502  0.48222412547E+02 -0.29541789829E+02 -0.78781355445E+02  0.97091247720E+02  0.47000000000E+01 0. -1.
        -11    1    1    2    0    0 -0.34756382899E+02 -0.17535758158E+01 -0.86920528423E+01  0.35869666335E+02  0.00000000000E+00 0.  1.
         11    1    1    2    0    0  0.28061981952E+02  0.58314509754E+02 -0.81056215450E+02  0.10372158378E+03  0.00000000000E+00 0. -1.
<mgrwt>
<rscale>  0 0.12902463E+03</rscale>
<asrwt>0</asrwt>
<pdfrwt beam="2">  1        1 0.33842838E-01 0.13736720E+03</pdfrwt>
<pdfrwt beam="1">  1       -1 0.10725810E-01 0.13736720E+03</pdfrwt>
<totfact> 0.67551888E+03</totfact>
</mgrwt>
</event>
<event>
 7    1  0.4230786E-006  0.1433867E+03  0.7546771E-02  0.1218120E+00
         -3   -1    0    0    0  501 -0.00000000000E+00  0.00000000000E+00  0.25011350342E+02  0.25011350342E+02  0.00000000000E+00 0.  1.
          3   -1    0    0  501    0  0.00000000000E+00 -0.00000000000E+00 -0.68292075426E+03  0.68292075426E+03  0.00000000000E+00 0. -1.
         23    2    1    2    0    0 -0.60433066161E+02 -0.35784425595E+02 -0.34596900116E+03  0.37450538512E+03  0.12500821220E+03 0.  0.
          5    1    3    3  502    0 -0.43808624861E+02 -0.66501275006E+02 -0.32236614446E+03  0.33208980153E+03  0.47000000000E+01 0. -1.
         -5    1    3    3    0  502 -0.16624441301E+02  0.30716849411E+02 -0.23602856700E+02  0.42415583583E+02  0.47000000000E+01 0. -1.
        -11    1    1    2    0    0  0.40620423831E+02  0.34003715645E+02 -0.30877221788E+03  0.31328350426E+03  0.00000000000E+00 0. -1.
         11    1    1    2    0    0  0.19812642330E+02  0.17807099499E+01 -0.31681848811E+01  0.20143215222E+02  0.00000000000E+00 0.  1.
<mgrwt>
<rscale>  0 0.13649843E+03</rscale>
<asrwt>0</asrwt>
<pdfrwt beam="2">  1        3 0.10506471E+00 0.14338666E+03</pdfrwt>
<pdfrwt beam="1">  1       -3 0.38479007E-02 0.14338666E+03</pdfrwt>
<totfact> 0.65229430E+02</totfact>
</mgrwt>
</event>
<event>
 7    1  0.4230786E-006  0.1383438E+03  0.7546771E-02  0.1221142E+00
         -2   -1    0    0    0  501 -0.00000000000E+00  0.00000000000E+00  0.10564889654E+03  0.10564889654E+03  0.00000000000E+00 0.  1.
          2   -1    0    0  501    0  0.00000000000E+00 -0.00000000000E+00 -0.16710192088E+03  0.16710192088E+03  0.00000000000E+00 0. -1.
         23    2    1    2    0    0  0.50103371453E+02 -0.31678745428E+02 -0.79293744470E+01  0.13857084267E+03  0.12500045086E+03 0.  0.
          5    1    3    3  502    0  0.80684760983E+02 -0.49761573135E+02  0.14907530256E+02  0.96075851670E+02  0.47000000000E+01 0.  1.
         -5    1    3    3    0  502 -0.30581389530E+02  0.18082827706E+02 -0.22836904703E+02  0.42494990998E+02  0.47000000000E+01 0.  1.
        -11    1    1    2    0    0 -0.64824916836E+02  0.55403072957E+02 -0.14971156656E+02  0.86578899667E+02  0.00000000000E+00 0.  1.
         11    1    1    2    0    0  0.14721545384E+02 -0.23724327528E+02 -0.38552493233E+02  0.47601075089E+02  0.00000000000E+00 0. -1.
<mgrwt>
<rscale>  0 0.13434875E+03</rscale>
<asrwt>0</asrwt>
<pdfrwt beam="2">  1        2 0.25707988E-01 0.13834379E+03</pdfrwt>
<pdfrwt beam="1">  1       -2 0.16253676E-01 0.13834379E+03</pdfrwt>
<totfact> 0.59448875E+03</totfact>
</mgrwt>
</event>
<event>
 7    1  0.4230786E-006  0.1251916E+03  0.7546771E-02  0.1248598E+00
         -2   -1    0    0    0  501 -0.00000000000E+00  0.00000000000E+00  0.10089981486E+04  0.10089981486E+04  0.00000000000E+00 0.  1.
          2   -1    0    0  501    0  0.00000000000E+00 -0.00000000000E+00 -0.16922408739E+02  0.16922408739E+02  0.00000000000E+00 0. -1.
         23    2    1    2    0    0  0.56187112276E+01  0.42761546999E+01  0.82042722377E+03  0.82992394964E+03  0.12499230882E+03 0.  0.
          5    1    3    3  502    0  0.89871564729E+01  0.37014811155E+02  0.75989087731E+03  0.76085944868E+03  0.47000000000E+01 0.  1.
         -5    1    3    3    0  502 -0.33684452453E+01 -0.32738656456E+02  0.60536346463E+02  0.69064500961E+02  0.47000000000E+01 0.  1.
        -11    1    1    2    0    0 -0.19988189783E+02 -0.26176969276E+02  0.16595404379E+03  0.16919073882E+03  0.00000000000E+00 0.  1.
         11    1    1    2    0    0  0.14369478556E+02  0.21900814576E+02  0.56944723291E+01  0.26805868912E+02  0.00000000000E+00 0. -1.
<mgrwt>
<rscale>  0 0.11672612E+03</rscale>
<asrwt>0</asrwt>
<pdfrwt beam="2">  1        2 0.26034483E-02 0.12519158E+03</pdfrwt>
<pdfrwt beam="1">  1       -2 0.15523044E+00 0.12519158E+03</pdfrwt>
<totfact> 0.10617759E+03</totfact>
</mgrwt>
</event>
<event>
 7    1  0.4230786E-006  0.1260458E+03  0.7546771E-02  0.1249384E+00
         -2   -1    0    0    0  501 -0.00000000000E+00  0.00000000000E+00  0.11135222920E+03  0.11135222920E+03  0.00000000000E+00 0.  1.
          2   -1    0    0  501    0  0.00000000000E+00 -0.00000000000E+00 -0.10829187570E+03  0.10829187570E+03  0.00000000000E+00 0. -1.
         23    2    1    2    0    0  0.49453437943E+00  0.16189022237E+02  0.17499719483E+02  0.12725475302E+03  0.12500081191E+03 0.  0.
          5    1    3    3  502    0 -0.21800347337E+02 -0.20760811525E+02  0.59502893742E+02  0.66850211689E+02  0.47000000000E+01 0. -1.
         -5    1    3    3    0  502  0.22294881716E+02  0.36949833762E+02 -0.42003174259E+02  0.60404541333E+02  0.47000000000E+01 0. -1.
        -11    1    1    2    0    0  0.43472046222E+02 -0.18307416538E+02 -0.57034786217E+01  0.47513261006E+02  0.00000000000E+00 0.  1.
         11    1    1    2    0    0 -0.43966580601E+02  0.21183943003E+01 -0.87358873536E+01  0.44876090873E+02  0.00000000000E+00 0. -1.
<mgrwt>
<rscale>  0 0.11626772E+03</rscale>
<asrwt>0</asrwt>
<pdfrwt beam="2">  1        2 0.16660289E-01 0.12604575E+03</pdfrwt>
<pdfrwt beam="1">  1       -2 0.17131112E-01 0.12604575E+03</pdfrwt>
<totfact> 0.88214842E+03</totfact>
</mgrwt>
</event>
<event>
 7    1  0.4230786E-006  0.1309097E+03  0.7546771E-02  0.1240848E+00
          1   -1    0    0  501    0  0.00000000000E+00  0.00000000000E+00  0.74689278358E+03  0.74689278358E+03  0.00000000000E+00 0. -1.
         -1   -1    0    0    0  501 -0.00000000000E+00 -0.00000000000E+00 -0.17540078138E+02  0.17540078138E+02  0.00000000000E+00 0.  1.
         23    2    1    2    0    0  0.29878592144E+01 -0.38769570652E+02  0.37903506636E+03  0.40100490541E+03  0.12500138288E+03 0.  0.
          5    1    3    3  502    0  0.31344675718E+02  0.23612762708E+02  0.44614825072E+02  0.59603891440E+02  0.47000000000E+01 0.  1.
         -5    1    3    3    0  502 -0.28356816504E+02 -0.62382333359E+02  0.33442024128E+03  0.34140101397E+03  0.47000000000E+01 0.  1.
        -11    1    1    2    0    0 -0.14092711708E+02  0.65894380655E+02  0.23930964995E+03  0.24861573258E+03  0.00000000000E+00 0. -1.
         11    1    1    2    0    0  0.11104852494E+02 -0.27124810003E+02  0.11100798913E+03  0.11481222372E+03  0.00000000000E+00 0.  1.
<mgrwt>
<rscale>  0 0.12137339E+03</rscale>
<asrwt>0</asrwt>
<pdfrwt beam="1">  1        1 0.11490656E+00 0.13090971E+03</pdfrwt>
<pdfrwt beam="2">  1       -1 0.26984742E-02 0.13090971E+03</pdfrwt>
<totfact> 0.10790017E+04</totfact>
</mgrwt>
</event>
<event>
 7    1  0.4230786E-006  0.1571448E+03  0.7546771E-02  0.1196653E+00
         -1   -1    0    0    0  501 -0.00000000000E+00  0.00000000000E+00  0.11486723977E+03  0.11486723977E+03  0.00000000000E+00 0.  1.
          1   -1    0    0  501    0  0.00000000000E+00 -0.00000000000E+00 -0.19555053955E+03  0.19555053955E+03  0.00000000000E+00 0. -1.
         23    2    1    2    0    0  0.80187591317E+02  0.51360698638E+02 -0.30861805711E+02  0.16014664399E+03  0.12500610131E+03 0.  0.
          5    1    3    3  502    0  0.92687130172E+00  0.24025890031E+02 -0.65027116723E+02  0.69488980360E+02  0.47000000000E+01 0. -1.
         -5    1    3    3    0  502  0.79260720015E+02  0.27334808606E+02  0.34165311012E+02  0.90657663633E+02  0.47000000000E+01 0. -1.
        -11    1    1    2    0    0 -0.87273933259E+02 -0.73284509228E+02 -0.25522365869E+02  0.11678505846E+03  0.00000000000E+00 0.  1.
         11    1    1    2    0    0  0.70863419428E+01  0.21923810590E+02 -0.24299128204E+02  0.33486076874E+02  0.00000000000E+00 0. -1.
<mgrwt>
<rscale>  0 0.15315194E+03</rscale>
<asrwt>0</asrwt>
<pdfrwt beam="2">  1        1 0.30084698E-01 0.15714483E+03</pdfrwt>
<pdfrwt beam="1">  1       -1 0.17671883E-01 0.15714483E+03</pdfrwt>
<totfact> 0.36146692E+03</totfact>
</mgrwt>
</event>
<event>
 7    1  0.4230786E-006  0.1331490E+03  0.7546771E-02  0.1235606E+00
         -1   -1    0    0    0  501 -0.00000000000E+00  0.00000000000E+00  0.26179047362E+03  0.26179047362E+03  0.00000000000E+00 0.  1.
          1   -1    0    0  501    0  0.00000000000E+00 -0.00000000000E+00 -0.65344880061E+02  0.65344880061E+02  0.00000000000E+00 0. -1.
         23    2    1    2    0    0  0.36373962164E+02 -0.27935422931E+02  0.17942862189E+03  0.22343519871E+03  0.12500081876E+03 0.  0.
          5    1    3    3  502    0  0.71404956969E+02 -0.43402722764E+02  0.15923286371E+03  0.17988790706E+03  0.47000000000E+01 0. -1.
         -5    1    3    3    0  502 -0.35030994805E+02  0.15467299833E+02  0.20195758184E+02  0.43547291647E+02  0.47000000000E+01 0. -1.
        -11    1    1    2    0    0 -0.80451326579E+01  0.46895324385E+02 -0.21545356350E+02  0.52231197468E+02  0.00000000000E+00 0. -1.
         11    1    1    2    0    0 -0.28328829506E+02 -0.18959901455E+02  0.38562328020E+02  0.51468957505E+02  0.00000000000E+00 0.  1.
<mgrwt>
<rscale>  0 0.12465693E+03</rscale>
<asrwt>0</asrwt>
<pdfrwt beam="2">  1        1 0.10053059E-01 0.13314901E+03</pdfrwt>
<pdfrwt beam="1">  1       -1 0.40275457E-01 0.13314901E+03</pdfrwt>
<totfact> 0.37249061E+03</totfact>
</mgrwt>
</event>
<event>
 7    1  0.4230786E-006  0.1679759E+03  0.7546771E-02  0.1186722E+00
          2   -1    0    0  501    0  0.00000000000E+00  0.00000000000E+00  0.22552821232E+03  0.22552821232E+03  0.00000000000E+00 0. -1.
         -2   -1    0    0    0  501 -0.00000000000E+00 -0.00000000000E+00 -0.11789797197E+03  0.11789797197E+03  0.00000000000E+00 0.  1.
         23    2    1    2    0    0  0.49592958531E+02 -0.10065788889E+03  0.84443134061E+01  0.16818801222E+03  0.12499771556E+03 0.  0.
          5    1    3    3  502    0  0.93847172043E+01 -0.10183980236E+03 -0.35564250340E+02  0.10838046025E+03  0.47000000000E+01 0. -1.
         -5    1    3    3    0  502  0.40208241327E+02  0.11819134672E+01  0.44008563746E+02  0.59807551973E+02  0.47000000000E+01 0. -1.
        -11    1    1    2    0    0 -0.33500708599E+02  0.19051775289E+02 -0.82045865851E+01  0.39402828062E+02  0.00000000000E+00 0.  1.
         11    1    1    2    0    0 -0.16092249932E+02  0.81606113603E+02  0.10739051353E+03  0.13583534401E+03  0.00000000000E+00 0. -1.
<mgrwt>
<rscale>  0 0.16176219E+03</rscale>
<asrwt>0</asrwt>
<pdfrwt beam="1">  1        2 0.34696648E-01 0.16797589E+03</pdfrwt>
<pdfrwt beam="2">  1       -2 0.18138150E-01 0.16797589E+03</pdfrwt>
<totfact> 0.36139467E+03</totfact>
</mgrwt>
</event>
<event>
 7    1  0.4230786E-006  0.2020813E+03  0.7546771E-02  0.1152222E+00
         -1   -1    0    0    0  501 -0.00000000000E+00  0.00000000000E+00  0.11359159765E+03  0.11359159765E+03  0.00000000000E+00 0.  1.
          1   -1    0    0  501    0  0.00000000000E+00 -0.00000000000E+00 -0.37117679330E+03  0.37117679330E+03  0.00000000000E+00 0. -1.
         23    2    1    2    0    0 -0.15577060918E+03  0.30897306033E+02 -0.50046557919E+02  0.20818624641E+03  0.12497091273E+03 0.  0.
          5    1    3    3  502    0  0.37368408654E+01 -0.17931963763E+02  0.19708804003E+02  0.27313847391E+02  0.47000000000E+01 0.  1.
         -5    1    3    3    0  502 -0.15950745005E+03  0.48829269796E+02 -0.69755361922E+02  0.18087239902E+03  0.47000000000E+01 0.  1.
        -11    1    1    2    0    0  0.83587411346E+02 -0.61496680075E+02 -0.10655627390E+03  0.14873781128E+03  0.00000000000E+00 0. -1.
         11    1    1    2    0    0  0.72183197838E+02  0.30599374043E+02 -0.10098236383E+03  0.12784433326E+03  0.00000000000E+00 0.  1.
<mgrwt>
<rscale>  0 0.19708528E+03</rscale>
<asrwt>0</asrwt>
<pdfrwt beam="2">  1        1 0.57104122E-01 0.20208131E+03</pdfrwt>
<pdfrwt beam="1">  1       -1 0.17475630E-01 0.20208131E+03</pdfrwt>
<totfact> 0.16654952E+03</totfact>
</mgrwt>
</event>
<event>
 7    1  0.4230786E-006  0.2815701E+03  0.7546771E-02  0.1096539E+00
          2   -1    0    0  501    0  0.00000000000E+00  0.00000000000E+00  0.28596001463E+03  0.28596001463E+03  0.00000000000E+00 0.  1.
         -2   -1    0    0    0  501 -0.00000000000E+00 -0.00000000000E+00 -0.27742549154E+03  0.27742549154E+03  0.00000000000E+00 0. -1.
         23    2    1    2    0    0 -0.12232506423E+02  0.25200519997E+03 -0.54545342693E+02  0.28680465292E+03  0.12500183799E+03 0.  0.
          5    1    3    3  502    0  0.18466706628E+02  0.19508268405E+03 -0.86813603495E+02  0.21437575568E+03  0.47000000000E+01 0. -1.
         -5    1    3    3    0  502 -0.30699213051E+02  0.56922515915E+02  0.32268260803E+02  0.72428897239E+02  0.47000000000E+01 0. -1.
        -11    1    1    2    0    0  0.34346870495E+02 -0.12352533080E+03 -0.73153011836E+01  0.12842012496E+03  0.00000000000E+00 0. -1.
         11    1    1    2    0    0 -0.22114364072E+02 -0.12847986916E+03  0.70395166967E+02  0.14816072830E+03  0.00000000000E+00 0.  1.
<mgrwt>
<rscale>  0 0.27844892E+03</rscale>
<asrwt>0</asrwt>
<pdfrwt beam="1">  1        2 0.43993848E-01 0.28157009E+03</pdfrwt>
<pdfrwt beam="2">  1       -2 0.42680845E-01 0.28157009E+03</pdfrwt>
<totfact> 0.60740531E+02</totfact>
</mgrwt>
</event>
<event>
 7    1  0.4230786E-006  0.1270138E+03  0.7546771E-02  0.1246252E+00
         -2   -1    0    0    0  501 -0.00000000000E+00  0.00000000000E+00  0.22690883276E+03  0.22690883276E+03  0.00000000000E+00 0.  1.
          2   -1    0    0  501    0  0.00000000000E+00 -0.00000000000E+00 -0.61720103684E+02  0.61720103684E+02  0.00000000000E+00 0. -1.
         23    2    1    2    0    0  0.13582171445E+02  0.17988536113E+02  0.14269880137E+03  0.19103786170E+03  0.12499781549E+03 0.  0.
          5    1    3    3  502    0 -0.86986841211E+01 -0.50512888952E+02  0.81538102107E+02  0.96424950873E+02  0.47000000000E+01 0.  1.
         -5    1    3    3    0  502  0.22280855566E+02  0.68501425064E+02  0.61160699263E+02  0.94612910826E+02  0.47000000000E+01 0.  1.
        -11    1    1    2    0    0 -0.51502540645E+02 -0.94311459680E+01  0.26185683461E+02  0.58541850206E+02  0.00000000000E+00 0.  1.
         11    1    1    2    0    0  0.37920369200E+02 -0.85573901449E+01 -0.36957557572E+01  0.39049224538E+02  0.00000000000E+00 0. -1.
<mgrwt>
<rscale>  0 0.11810775E+03</rscale>
<asrwt>0</asrwt>
<pdfrwt beam="2">  1        2 0.94954007E-02 0.12701384E+03</pdfrwt>
<pdfrwt beam="1">  1       -2 0.34909051E-01 0.12701384E+03</pdfrwt>
<totfact> 0.49949280E+03</totfact>
</mgrwt>
</event>
<event>
 7    1  0.4230786E-006  0.2112722E+03  0.7546771E-02  0.1144065E+00
          3   -1    0    0  501    0  0.00000000000E+00  0.00000000000E+00  0.15291711855E+03  0.15291711855E+03  0.00000000000E+00 0. -1.
         -3   -1    0    0    0  501 -0.00000000000E+00 -0.00000000000E+00 -0.28277077177E+03  0.28277077177E+03  0.00000000000E+00 0.  1.
         23    2    1    2    0    0 -0.16852198761E+03  0.24748078820E+02 -0.11587153846E+03  0.24096088986E+03  0.12499523712E+03 0.  0.
          5    1    3    3  502    0  0.33784236129E+01 -0.26325575763E+02  0.80442997647E+00  0.26966401186E+02  0.47000000000E+01 0. -1.
         -5    1    3    3    0  502 -0.17190041122E+03  0.51073654583E+02 -0.11667596843E+03  0.21399448867E+03  0.47000000000E+01 0. -1.
        -11    1    1    2    0    0  0.12371582959E+03 -0.37819986731E+02 -0.46906584495E+02  0.13760881351E+03  0.00000000000E+00 0.  1.
         11    1    1    2    0    0  0.44806158023E+02  0.13071907910E+02  0.32924469733E+02  0.57118186950E+02  0.00000000000E+00 0. -1.
<mgrwt>
<rscale>  0 0.20687484E+03</rscale>
<asrwt>0</asrwt>
<pdfrwt beam="1">  1        3 0.23525711E-01 0.21127219E+03</pdfrwt>
<pdfrwt beam="2">  1       -3 0.43503195E-01 0.21127219E+03</pdfrwt>
<totfact> 0.21712482E+02</totfact>
</mgrwt>
</event>
<event>
 7    1  0.4230786E-006  0.1667727E+03  0.7546771E-02  0.1187249E+00
         -2   -1    0    0    0  501 -0.00000000000E+00  0.00000000000E+00  0.25867762170E+03  0.25867762170E+03  0.00000000000E+00 0.  1.
          2   -1    0    0  501    0  0.00000000000E+00 -0.00000000000E+00 -0.97998945116E+02  0.97998945116E+02  0.00000000000E+00 0. -1.
         23    2    1    2    0    0  0.83437341357E+02  0.72296144931E+02  0.11922324855E+03  0.20500561974E+03  0.12499839449E+03 0.  0.
          5    1    3    3  502    0  0.94759992476E+02  0.94407730585E+02  0.11992683538E+03  0.17971313701E+03  0.47000000000E+01 0.  1.
         -5    1    3    3    0  502 -0.11322651119E+02 -0.22111585654E+02 -0.70358682917E+00  0.25292482735E+02  0.47000000000E+01 0.  1.
        -11    1    1    2    0    0 -0.89045487342E+02 -0.50936001456E+02 -0.23524202530E+01  0.10261144644E+03  0.00000000000E+00 0. -1.
         11    1    1    2    0    0  0.56081459847E+01 -0.21360143476E+02  0.43807848281E+02  0.49059500627E+02  0.00000000000E+00 0.  1.
<mgrwt>
<rscale>  0 0.16128879E+03</rscale>
<asrwt>0</asrwt>
<pdfrwt beam="2">  1        2 0.15076761E-01 0.16677266E+03</pdfrwt>
<pdfrwt beam="1">  1       -2 0.39796557E-01 0.16677266E+03</pdfrwt>
<totfact> 0.22760366E+03</totfact>
</mgrwt>
</event>
<event>
 7    1  0.4230786E-006  0.1314023E+03  0.7546771E-02  0.1240948E+00
          1   -1    0    0  501    0  0.00000000000E+00  0.00000000000E+00  0.35801575966E+03  0.35801575966E+03  0.00000000000E+00 0. -1.
         -1   -1    0    0    0  501 -0.00000000000E+00 -0.00000000000E+00 -0.38010103937E+02  0.38010103937E+02  0.00000000000E+00 0.  1.
         23    2    1    2    0    0  0.87837290220E+01  0.39545985645E+02  0.13829064035E+03  0.19076390132E+03  0.12500210384E+03 0.  0.
          5    1    3    3  502    0  0.54462019605E+02  0.54129724753E+02  0.55093194929E+02  0.94622876773E+02  0.47000000000E+01 0. -1.
         -5    1    3    3    0  502 -0.45678290583E+02 -0.14583739108E+02  0.83197445423E+02  0.96141024551E+02  0.47000000000E+01 0. -1.
        -11    1    1    2    0    0 -0.59341402327E+01 -0.66570718093E+02  0.14423342636E+03  0.15896589511E+03  0.00000000000E+00 0.  1.
         11    1    1    2    0    0 -0.28495887894E+01  0.27024732448E+02  0.37481589011E+02  0.46296067165E+02  0.00000000000E+00 0. -1.
<mgrwt>
<rscale>  0 0.12131226E+03</rscale>
<asrwt>0</asrwt>
<pdfrwt beam="1">  1        1 0.55079345E-01 0.13140230E+03</pdfrwt>
<pdfrwt beam="2">  1       -1 0.58477085E-02 0.13140230E+03</pdfrwt>
<totfact> 0.91971361E+03</totfact>
</mgrwt>
</event>
<event>
 7    1  0.4230786E-006  0.1358592E+03  0.7546771E-02  0.1231155E+00
          1   -1    0    0  501    0  0.00000000000E+00  0.00000000000E+00  0.77494132245E+02  0.77494132245E+02  0.00000000000E+00 0. -1.
         -1   -1    0    0    0  501 -0.00000000000E+00 -0.00000000000E+00 -0.21392407726E+03  0.21392407726E+03  0.00000000000E+00 0.  1.
         23    2    1    2    0    0 -0.52330261657E+02 -0.97545177757E+01 -0.12617057099E+03  0.18540966916E+03  0.12499650208E+03 0.  0.
          5    1    3    3  502    0  0.38261717348E+02 -0.78579697413E-01 -0.64999384616E+02  0.75570994367E+02  0.47000000000E+01 0. -1.
         -5    1    3    3    0  502 -0.90591979004E+02 -0.96759380783E+01 -0.61171186373E+02  0.10983867479E+03  0.47000000000E+01 0. -1.
        -11    1    1    2    0    0  0.63239082136E+02  0.38995001546E+02 -0.66863461927E+01  0.74595568772E+02  0.00000000000E+00 0. -1.
         11    1    1    2    0    0 -0.10908820480E+02 -0.29240483770E+02 -0.35730278350E+01  0.31412971577E+02  0.00000000000E+00 0.  1.
<mgrwt>
<rscale>  0 0.12753848E+03</rscale>
<asrwt>0</asrwt>
<pdfrwt beam="1">  1        1 0.11922174E-01 0.13585924E+03</pdfrwt>
<pdfrwt beam="2">  1       -1 0.32911397E-01 0.13585924E+03</pdfrwt>
<totfact> 0.42203183E+03</totfact>
</mgrwt>
</event>
<event>
 7    1  0.4230786E-006  0.1319627E+03  0.7546771E-02  0.1237425E+00
         -2   -1    0    0    0  501 -0.00000000000E+00  0.00000000000E+00  0.77450253921E+02  0.77450253921E+02  0.00000000000E+00 0.  1.
          2   -1    0    0  501    0  0.00000000000E+00 -0.00000000000E+00 -0.17885690695E+03  0.17885690695E+03  0.00000000000E+00 0. -1.
         23    2    1    2    0    0 -0.31962288547E+02 -0.27689570853E+02 -0.39985033428E+02  0.13788751443E+03  0.12500345401E+03 0.  0.
          5    1    3    3  502    0 -0.66393441705E+02  0.78601918151E+01  0.95610864514E+01  0.67700635824E+02  0.47000000000E+01 0.  1.
         -5    1    3    3    0  502  0.34431153158E+02 -0.35549762668E+02 -0.49546119879E+02  0.70186878607E+02  0.47000000000E+01 0.  1.
        -11    1    1    2    0    0  0.30970582111E+02  0.51554049619E+01  0.17771154953E+02  0.36077265763E+02  0.00000000000E+00 0.  1.
         11    1    1    2    0    0  0.99170643652E+00  0.22534165891E+02 -0.79192774549E+02  0.82342380673E+02  0.00000000000E+00 0. -1.
<mgrwt>
<rscale>  0 0.12350431E+03</rscale>
<asrwt>0</asrwt>
<pdfrwt beam="2">  1        2 0.27516447E-01 0.13196274E+03</pdfrwt>
<pdfrwt beam="1">  1       -2 0.11915424E-01 0.13196274E+03</pdfrwt>
<totfact> 0.90977092E+03</totfact>
</mgrwt>
</event>
<event>
 7    1  0.4230786E-006  0.1381961E+03  0.7546771E-02  0.1226634E+00
         -2   -1    0    0    0  501 -0.00000000000E+00  0.00000000000E+00  0.10289143083E+02  0.10289143083E+02  0.00000000000E+00 0.  1.
          2   -1    0    0  501    0  0.00000000000E+00 -0.00000000000E+00 -0.15158382917E+04  0.15158382917E+04  0.00000000000E+00 0. -1.
         23    2    1    2    0    0  0.58300849990E+02  0.87446571796E+01 -0.92004255882E+03  0.93036362914E+03  0.12499085665E+03 0.  0.
          5    1    3    3  502    0  0.33527803181E+02  0.53996245886E+02 -0.74751250217E+03  0.75022445912E+03  0.47000000000E+01 0. -1.
         -5    1    3    3    0  502  0.24773046809E+02 -0.45251588706E+02 -0.17253005665E+03  0.18013917002E+03  0.47000000000E+01 0. -1.
        -11    1    1    2    0    0 -0.43912856387E+02  0.39556509642E+02 -0.28548060544E+03  0.29153427327E+03  0.00000000000E+00 0. -1.
         11    1    1    2    0    0 -0.14387993603E+02 -0.48301166822E+02 -0.30002598435E+03  0.30422953236E+03  0.00000000000E+00 0.  1.
<mgrwt>
<rscale>  0 0.13055523E+03</rscale>
<asrwt>0</asrwt>
<pdfrwt beam="2">  1        2 0.23320580E+00 0.13819614E+03</pdfrwt>
<pdfrwt beam="1">  1       -2 0.15829457E-02 0.13819614E+03</pdfrwt>
<totfact> 0.14163586E+04</totfact>
</mgrwt>
</event>
<event>
 7    1  0.4230786E-006  0.1440027E+03  0.7546771E-02  0.1218874E+00
          1   -1    0    0  501    0  0.00000000000E+00  0.00000000000E+00  0.89352853833E+02  0.89352853833E+02  0.00000000000E+00 0. -1.
         -1   -1    0    0    0  501 -0.00000000000E+00 -0.00000000000E+00 -0.29288196768E+03  0.29288196768E+03  0.00000000000E+00 0.  1.
         23    2    1    2    0    0  0.40910704826E+02  0.58638138356E+02 -0.22370686796E+03  0.26604797732E+03  0.12499858569E+03 0.  0.
          5    1    3    3  502    0  0.34380048516E+02  0.73333225676E+02 -0.23311826239E+03  0.24683185367E+03  0.47000000000E+01 0.  1.
         -5    1    3    3    0  502  0.65306563100E+01 -0.14695087321E+02  0.94113944282E+01  0.19216123654E+02  0.47000000000E+01 0.  1.
        -11    1    1    2    0    0 -0.37764085058E+02  0.68024729453E+01 -0.15735726379E+02  0.41473037544E+02  0.00000000000E+00 0. -1.
         11    1    1    2    0    0 -0.31466197670E+01 -0.65440611301E+02  0.35913480492E+02  0.74713806652E+02  0.00000000000E+00 0.  1.
<mgrwt>
<rscale>  0 0.13595795E+03</rscale>
<asrwt>0</asrwt>
<pdfrwt beam="1">  1        1 0.13746593E-01 0.14400265E+03</pdfrwt>
<pdfrwt beam="2">  1       -1 0.45058764E-01 0.14400265E+03</pdfrwt>
<totfact> 0.20311163E+03</totfact>
</mgrwt>
</event>
<event>
 7    1  0.4230786E-006  0.1204626E+03  0.7546771E-02  0.1254518E+00
          4   -1    0    0  501    0  0.00000000000E+00  0.00000000000E+00  0.15290523754E+02  0.15290523754E+02  0.00000000000E+00 0. -1.
         -4   -1    0    0    0  501 -0.00000000000E+00 -0.00000000000E+00 -0.85417963818E+03  0.85417963818E+03  0.00000000000E+00 0.  1.
         23    2    1    2    0    0  0.14048998990E+02 -0.20713007421E+02 -0.61184939383E+03  0.62359516466E+03  0.11783397477E+03 0.  0.
          5    1    3    3  502    0 -0.33881869480E+02 -0.28158514575E+02 -0.99318373052E+02  0.10875252755E+03  0.47000000000E+01 0. -1.
         -5    1    3    3    0  502  0.47930868471E+02  0.74455071539E+01 -0.51253102078E+03  0.51484263711E+03  0.47000000000E+01 0.  1.
        -11    1    1    2    0    0  0.21627042498E+02  0.35980436457E+02 -0.18031475790E+03  0.18513706460E+03  0.00000000000E+00 0.  1.
         11    1    1    2    0    0 -0.35676041489E+02 -0.15267429036E+02 -0.46724962699E+02  0.60737932669E+02  0.00000000000E+00 0. -1.
<mgrwt>
<rscale>  0 0.11333359E+03</rscale>
<asrwt>0</asrwt>
<pdfrwt beam="1">  1        4 0.23523877E-02 0.12046264E+03</pdfrwt>
<pdfrwt beam="2">  1       -4 0.13141229E+00 0.12046264E+03</pdfrwt>
<totfact> 0.56977720E+02</totfact>
</mgrwt>
</event>
<event>
 7    1  0.4230786E-006  0.1342279E+03  0.7546771E-02  0.1234043E+00
          1   -1    0    0  501    0  0.00000000000E+00  0.00000000000E+00  0.13076488967E+03  0.13076488967E+03  0.00000000000E+00 0. -1.
         -1   -1    0    0    0  501 -0.00000000000E+00 -0.00000000000E+00 -0.12547487490E+03  0.12547487490E+03  0.00000000000E+00 0.  1.
         23    2    1    2    0    0 -0.19776974714E+02  0.44737523715E+02 -0.44949368130E+02  0.14155416667E+03  0.12499824659E+03 0.  0.
          5    1    3    3  502    0  0.27297268585E+02  0.47318116560E+02 -0.69233288297E+02  0.88314683011E+02  0.47000000000E+01 0. -1.
         -5    1    3    3    0  502 -0.47074243300E+02 -0.25805928445E+01  0.24283920166E+02  0.53239483659E+02  0.47000000000E+01 0. -1.
        -11    1    1    2    0    0 -0.27192485509E+02 -0.44354348566E+01 -0.90289628178E+01  0.28993559976E+02  0.00000000000E+00 0.  1.
         11    1    1    2    0    0  0.46969460223E+02 -0.40302088859E+02  0.59268345711E+02  0.85692037922E+02  0.00000000000E+00 0. -1.
<mgrwt>
<rscale>  0 0.12565872E+03</rscale>
<asrwt>0</asrwt>
<pdfrwt beam="1">  1        1 0.20117675E-01 0.13422793E+03</pdfrwt>
<pdfrwt beam="2">  1       -1 0.19303827E-01 0.13422793E+03</pdfrwt>
<totfact> 0.51641537E+03</totfact>
</mgrwt>
</event>
<event>
 7    1  0.4230786E-006  0.1438146E+03  0.7546771E-02  0.1218717E+00
         -2   -1    0    0    0  501 -0.00000000000E+00  0.00000000000E+00  0.59103494845E+03  0.59103494845E+03  0.00000000000E+00 0.  1.
          2   -1    0    0  501    0  0.00000000000E+00 -0.00000000000E+00 -0.34122529750E+02  0.34122529750E+02  0.00000000000E+00 0. -1.
         23    2    1    2    0    0 -0.49255067802E+02 -0.51330993571E+02  0.43148856429E+03  0.45482417762E+03  0.12498687463E+03 0.  0.
          5    1    3    3  502    0  0.46151373997E+01 -0.76471713839E+02  0.31172282271E+03  0.32103337943E+03  0.47000000000E+01 0.  1.
         -5    1    3    3    0  502 -0.53870205202E+02  0.25140720268E+02  0.11976574158E+03  0.13379079819E+03  0.47000000000E+01 0.  1.
        -11    1    1    2    0    0  0.14228114465E+02  0.35396862344E+02  0.12620449981E+03  0.13184442679E+03  0.00000000000E+00 0.  1.
         11    1    1    2    0    0  0.35026953337E+02  0.15934131227E+02 -0.78064539593E+00  0.38488873785E+02  0.00000000000E+00 0. -1.
<mgrwt>
<rscale>  0 0.13606971E+03</rscale>
<asrwt>0</asrwt>
<pdfrwt beam="2">  1        2 0.52496204E-02 0.14381464E+03</pdfrwt>
<pdfrwt beam="1">  1       -2 0.90928446E-01 0.14381464E+03</pdfrwt>
<totfact> 0.15238859E+03</totfact>
</mgrwt>
</event>
<event>
 7    1  0.4230786E-006  0.1525329E+03  0.7546771E-02  0.1206323E+00
          1   -1    0    0  501    0  0.00000000000E+00  0.00000000000E+00  0.99835254045E+02  0.99835254045E+02  0.00000000000E+00 0. -1.
         -1   -1    0    0    0  501 -0.00000000000E+00 -0.00000000000E+00 -0.20156971021E+03  0.20156971021E+03  0.00000000000E+00 0.  1.
         23    2    1    2    0    0  0.37056420640E+02  0.79164612736E+02 -0.84873253473E+02  0.17455583832E+03  0.12500422919E+03 0.  0.
          5    1    3    3  502    0  0.65374971984E+02  0.89836377531E+02 -0.36012980939E+02  0.11689091704E+03  0.47000000000E+01 0. -1.
         -5    1    3    3    0  502 -0.28318551344E+02 -0.10671764794E+02 -0.48860272534E+02  0.57664921280E+02  0.47000000000E+01 0. -1.
        -11    1    1    2    0    0 -0.29270392110E+02 -0.31613241181E+02 -0.51767111275E+02  0.67349734090E+02  0.00000000000E+00 0.  1.
         11    1    1    2    0    0 -0.77860285301E+01 -0.47551371556E+02  0.34905908579E+02  0.59499391853E+02  0.00000000000E+00 0. -1.
<mgrwt>
<rscale>  0 0.14533716E+03</rscale>
<asrwt>0</asrwt>
<pdfrwt beam="1">  1        1 0.15359270E-01 0.15253285E+03</pdfrwt>
<pdfrwt beam="2">  1       -1 0.31010724E-01 0.15253285E+03</pdfrwt>
<totfact> 0.33761559E+03</totfact>
</mgrwt>
</event>
<event>
 7    1  0.4230786E-006  0.2935910E+03  0.7546771E-02  0.1090172E+00
          2   -1    0    0  501    0  0.00000000000E+00  0.00000000000E+00  0.89083489973E+03  0.89083489973E+03  0.00000000000E+00 0. -1.
         -2   -1    0    0    0  501 -0.00000000000E+00 -0.00000000000E+00 -0.92644984181E+02  0.92644984181E+02  0.00000000000E+00 0.  1.
         23    2    1    2    0    0 -0.20470274253E+03 -0.16931344794E+03  0.42008909414E+03  0.51251393119E+03  0.12500170476E+03 0.  0.
          5    1    3    3  502    0 -0.14478264721E+03 -0.15255391508E+03  0.22654026045E+03  0.30915577230E+03  0.47000000000E+01 0. -1.
         -5    1    3    3    0  502 -0.59920095314E+02 -0.16759532861E+02  0.19354883369E+03  0.20335815889E+03  0.47000000000E+01 0. -1.
        -11    1    1    2    0    0  0.31371272829E+02  0.79685971215E+02  0.11226303373E+03  0.14119844018E+03  0.00000000000E+00 0.  1.
         11    1    1    2    0    0  0.17333146970E+03  0.89627476724E+02  0.26583778768E+03  0.32976751255E+03  0.00000000000E+00 0. -1.
<mgrwt>
<rscale>  0 0.29033967E+03</rscale>
<asrwt>0</asrwt>
<pdfrwt beam="1">  1        2 0.13705152E+00 0.29359101E+03</pdfrwt>
<pdfrwt beam="2">  1       -2 0.14253075E-01 0.29359101E+03</pdfrwt>
<totfact> 0.11489052E+03</totfact>
</mgrwt>
</event>
<event>
 7    1  0.4230786E-006  0.2082724E+03  0.7546771E-02  0.1146768E+00
         -1   -1    0    0    0  501 -0.00000000000E+00  0.00000000000E+00  0.51911657376E+03  0.51911657376E+03  0.00000000000E+00 0. -1.
          1   -1    0    0  501    0  0.00000000000E+00 -0.00000000000E+00 -0.98962378906E+02  0.98962378906E+02  0.00000000000E+00 0.  1.
         23    2    1    2    0    0  0.73617319934E+02  0.14944089446E+03  0.36489519276E+03  0.42014986999E+03  0.12500128328E+03 0.  0.
          5    1    3    3  502    0  0.10254567714E+03  0.14187776838E+03  0.33261680052E+03  0.37590017697E+03  0.47000000000E+01 0. -1.
         -5    1    3    3    0  502 -0.28928357205E+02  0.75631260873E+01  0.32278392244E+02  0.44249693023E+02  0.47000000000E+01 0. -1.
        -11    1    1    2    0    0  0.21284212077E+02 -0.17635488712E+02  0.77367898747E+01  0.28703415536E+02  0.00000000000E+00 0.  1.
         11    1    1    2    0    0 -0.94901532012E+02 -0.13180540575E+03  0.47522212215E+02  0.16922566713E+03  0.00000000000E+00 0. -1.
<mgrwt>
<rscale>  0 0.20356161E+03</rscale>
<asrwt>0</asrwt>
<pdfrwt beam="2">  1        1 0.15224982E-01 0.20827245E+03</pdfrwt>
<pdfrwt beam="1">  1       -1 0.79864087E-01 0.20827245E+03</pdfrwt>
<totfact> 0.59838545E+02</totfact>
</mgrwt>
</event>
<event>
 7    1  0.4230786E-006  0.2199296E+03  0.7546771E-02  0.1137300E+00
          2   -1    0    0  501    0  0.00000000000E+00  0.00000000000E+00  0.70948786779E+03  0.70948786779E+03  0.00000000000E+00 0. -1.
         -2   -1    0    0    0  501 -0.00000000000E+00 -0.00000000000E+00 -0.64227772539E+02  0.64227772539E+02  0.00000000000E+00 0.  1.
         23    2    1    2    0    0 -0.65747624175E+02 -0.16858730348E+03  0.39060470717E+03  0.44826451653E+03  0.12499844213E+03 0.  0.
          5    1    3    3  502    0  0.34630714315E+02 -0.51695976093E+02  0.15066340292E+03  0.16307455748E+03  0.47000000000E+01 0. -1.
         -5    1    3    3    0  502 -0.10037833849E+03 -0.11689132738E+03  0.23994130425E+03  0.28518995905E+03  0.47000000000E+01 0. -1.
        -11    1    1    2    0    0 -0.59348327581E+01  0.32992473988E+02  0.71508834411E+01  0.34276241242E+02  0.00000000000E+00 0.  1.
         11    1    1    2    0    0  0.71682456933E+02  0.13559482949E+03  0.24750450464E+03  0.29117488256E+03  0.00000000000E+00 0. -1.
<mgrwt>
<rscale>  0 0.21547761E+03</rscale>
<asrwt>0</asrwt>
<pdfrwt beam="1">  1        2 0.10915197E+00 0.21992962E+03</pdfrwt>
<pdfrwt beam="2">  1       -2 0.98811963E-02 0.21992962E+03</pdfrwt>
<totfact> 0.27714135E+03</totfact>
</mgrwt>
</event>
<event>
 7    1  0.4230786E-006  0.1383116E+03  0.7546771E-02  0.1227104E+00
          1   -1    0    0  501    0  0.00000000000E+00  0.00000000000E+00  0.33557890837E+02  0.33557890837E+02  0.00000000000E+00 0. -1.
         -1   -1    0    0    0  501 -0.00000000000E+00 -0.00000000000E+00 -0.45469408446E+03  0.45469408446E+03  0.00000000000E+00 0.  1.
         23    2    1    2    0    0 -0.59250371000E+02  0.16089826122E+00 -0.23744299390E+03  0.27478949461E+03  0.12497783262E+03 0.  0.
          5    1    3    3  502    0 -0.94313022577E+01  0.23739632160E+01  0.14407131337E+02  0.18006682010E+02  0.47000000000E+01 0. -1.
         -5    1    3    3    0  502 -0.49819068742E+02 -0.22130649547E+01 -0.25185012524E+03  0.25678281260E+03  0.47000000000E+01 0. -1.
        -11    1    1    2    0    0  0.51545734333E+02  0.37439429726E+02 -0.14765981309E+03  0.16081695815E+03  0.00000000000E+00 0.  1.
         11    1    1    2    0    0  0.77046366672E+01 -0.37600327987E+02 -0.36033386636E+02  0.52645522539E+02  0.00000000000E+00 0. -1.
<mgrwt>
<rscale>  0 0.13023719E+03</rscale>
<asrwt>0</asrwt>
<pdfrwt beam="1">  1        1 0.51627528E-02 0.13831157E+03</pdfrwt>
<pdfrwt beam="2">  1       -1 0.69952931E-01 0.13831157E+03</pdfrwt>
<totfact> 0.32919927E+03</totfact>
</mgrwt>
</event>
<event>
 7    1  0.4230786E-006  0.1599395E+03  0.7546771E-02  0.1196516E+00
          2   -1    0    0  501    0  0.00000000000E+00  0.00000000000E+00  0.29510065454E+03  0.29510065454E+03  0.00000000000E+00 0.  1.
         -2   -1    0    0    0  501 -0.00000000000E+00 -0.00000000000E+00 -0.14203235033E+03  0.14203235033E+03  0.00000000000E+00 0. -1.
         23    2    1    2    0    0  0.97893694056E+02 -0.19264467738E+02 -0.71486039943E+02  0.17518817682E+03  0.12500539324E+03 0.  0.
          5    1    3    3  502    0 -0.28740609801E+02  0.75450436483E+01 -0.91659435657E+01  0.31449242548E+02  0.47000000000E+01 0. -1.
         -5    1    3    3    0  502  0.12663430386E+03 -0.26809511386E+02 -0.62320096378E+02  0.14373893427E+03  0.47000000000E+01 0. -1.
        -11    1    1    2    0    0 -0.11401452605E+03  0.24871713362E+02  0.20582572621E+03  0.23660546030E+03  0.00000000000E+00 0.  1.
         11    1    1    2    0    0  0.16120831991E+02 -0.56072456238E+01  0.18728617949E+02  0.25339367748E+02  0.00000000000E+00 0. -1.
<mgrwt>
<rscale>  0 0.15326649E+03</rscale>
<asrwt>0</asrwt>
<pdfrwt beam="1">  1        2 0.45400101E-01 0.15993950E+03</pdfrwt>
<pdfrwt beam="2">  1       -2 0.21851131E-01 0.15993950E+03</pdfrwt>
<totfact> 0.19713430E+03</totfact>
</mgrwt>
</event>
<event>
 7    1  0.4230786E-006  0.3786211E+03  0.7546771E-02  0.1052352E+00
          3   -1    0    0  501    0  0.00000000000E+00  0.00000000000E+00  0.62361322464E+03  0.62361322464E+03  0.00000000000E+00 0. -1.
         -3   -1    0    0    0  501 -0.00000000000E+00 -0.00000000000E+00 -0.28736087725E+03  0.28736087725E+03  0.00000000000E+00 0.  1.
         23    2    1    2    0    0  0.30370021938E+03  0.18840409043E+03 -0.43951649286E+02  0.38116360314E+03  0.12499608131E+03 0.  0.
          5    1    3    3  502    0  0.23919126379E+03  0.91842537969E+02 -0.61725888059E+02  0.26358999926E+03  0.47000000000E+01 0.  1.
         -5    1    3    3    0  502  0.64508955588E+02  0.96561552465E+02  0.17774238773E+02  0.11757360388E+03  0.47000000000E+01 0.  1.
        -11    1    1    2    0    0 -0.84701250486E+02 -0.96649696767E+01  0.10550924883E+03  0.13564628658E+03  0.00000000000E+00 0.  1.
         11    1    1    2    0    0 -0.21899896889E+03 -0.17873912076E+03  0.27469474784E+03  0.39416421217E+03  0.00000000000E+00 0. -1.
<mgrwt>
<rscale>  0 0.37618672E+03</rscale>
<asrwt>0</asrwt>
<pdfrwt beam="1">  1        3 0.95940496E-01 0.37862111E+03</pdfrwt>
<pdfrwt beam="2">  1       -3 0.44209366E-01 0.37862111E+03</pdfrwt>
<totfact> 0.12721585E+01</totfact>
</mgrwt>
</event>
<event>
 7    1  0.4230786E-006  0.1992127E+03  0.7546771E-02  0.1158233E+00
         -1   -1    0    0    0  501 -0.00000000000E+00  0.00000000000E+00  0.18987494402E+03  0.18987494402E+03  0.00000000000E+00 0.  1.
          1   -1    0    0  501    0  0.00000000000E+00 -0.00000000000E+00 -0.21725611969E+03  0.21725611969E+03  0.00000000000E+00 0. -1.
         23    2    1    2    0    0 -0.14672467750E+03 -0.50321436161E+02  0.74395739881E+02  0.21265090446E+03  0.12500121251E+03 0.  0.
          5    1    3    3  502    0 -0.40602532144E+02  0.37265818757E+02  0.46304389956E+02  0.72135243767E+02  0.47000000000E+01 0. -1.
         -5    1    3    3    0  502 -0.10612214536E+03 -0.87587254919E+02  0.28091349926E+02  0.14051566069E+03  0.47000000000E+01 0. -1.
        -11    1    1    2    0    0  0.66982555958E+02  0.35893191583E+02 -0.80485678785E+02  0.11069294690E+03  0.00000000000E+00 0. -1.
         11    1    1    2    0    0  0.79742121542E+02  0.14428244579E+02 -0.21291236775E+02  0.83787212348E+02  0.00000000000E+00 0.  1.
<mgrwt>
<rscale>  0 0.19025372E+03</rscale>
<asrwt>0</asrwt>
<pdfrwt beam="2">  1        1 0.33424018E-01 0.19921265E+03</pdfrwt>
<pdfrwt beam="1">  1       -1 0.29211530E-01 0.19921265E+03</pdfrwt>
<totfact> 0.14023762E+03</totfact>
</mgrwt>
</event>
<event>
 7    1  0.8470123E-006  0.1702308E+03  0.7546771E-02  0.1183817E+00
          1   -1    0    0  501    0  0.00000000000E+00  0.00000000000E+00  0.57177092967E+03  0.57177092967E+03  0.00000000000E+00 0. -1.
         -1   -1    0    0    0  501 -0.00000000000E+00 -0.00000000000E+00 -0.46873500331E+02  0.46873500331E+02  0.00000000000E+00 0.  1.
         23    2    1    2    0    0 -0.16728540113E+02  0.11434198555E+03  0.20741330943E+03  0.26832592308E+03  0.12499834541E+03 0.  0.
          5    1    3    3  502    0 -0.60969643233E+02  0.17660735455E+02  0.72140359846E+02  0.96205615696E+02  0.47000000000E+01 0. -1.
         -5    1    3    3    0  502  0.44241103121E+02  0.96681250092E+02  0.13527294959E+03  0.17212030739E+03  0.47000000000E+01 0. -1.
        -11    1    1    2    0    0  0.41841134602E+02 -0.95065781529E+02  0.16796954983E+03  0.19748912130E+03  0.00000000000E+00 0.  1.
         11    1    1    2    0    0 -0.25112594490E+02 -0.19276204018E+02  0.14951457008E+03  0.15282938562E+03  0.00000000000E+00 0. -1.
<mgrwt>
<rscale>  0 0.16439958E+03</rscale>
<asrwt>0</asrwt>
<pdfrwt beam="1">  1        1 0.87964753E-01 0.17023078E+03</pdfrwt>
<pdfrwt beam="2">  1       -1 0.72113082E-02 0.17023078E+03</pdfrwt>
<totfact> 0.37239545E+03</totfact>
</mgrwt>
</event>
<event>
 7    1  0.4230786E-006  0.1755475E+03  0.7546771E-02  0.1178708E+00
         -3   -1    0    0    0  501 -0.00000000000E+00  0.00000000000E+00  0.22582924151E+03  0.22582924151E+03  0.00000000000E+00 0.  1.
          3   -1    0    0  501    0  0.00000000000E+00 -0.00000000000E+00 -0.13058372427E+03  0.13058372427E+03  0.00000000000E+00 0. -1.
         23    2    1    2    0    0  0.22087638132E+02  0.12126124161E+03  0.10521442424E+03  0.20466315450E+03  0.12499911707E+03 0.  0.
          5    1    3    3  502    0  0.71978855386E+01  0.14442509962E+03  0.73099874297E+02  0.16209904558E+03  0.47000000000E+01 0. -1.
         -5    1    3    3    0  502  0.14889752594E+02 -0.23163858013E+02  0.32114549943E+02  0.42564108923E+02  0.47000000000E+01 0. -1.
        -11    1    1    2    0    0 -0.18860404141E+02 -0.89404859142E+02  0.33882662437E+02  0.97452442229E+02  0.00000000000E+00 0.  1.
         11    1    1    2    0    0 -0.32272339910E+01 -0.31856382465E+02 -0.43851569443E+02  0.54297369049E+02  0.00000000000E+00 0. -1.
<mgrwt>
<rscale>  0 0.16917776E+03</rscale>
<asrwt>0</asrwt>
<pdfrwt beam="2">  1        3 0.20089804E-01 0.17554752E+03</pdfrwt>
<pdfrwt beam="1">  1       -3 0.34742960E-01 0.17554752E+03</pdfrwt>
<totfact> 0.43558220E+02</totfact>
</mgrwt>
</event>
<event>
 7    1  0.4230786E-006  0.1760175E+03  0.7546771E-02  0.1177851E+00
          1   -1    0    0  501    0  0.00000000000E+00  0.00000000000E+00  0.39413300606E+03  0.39413300606E+03  0.00000000000E+00 0. -1.
         -1   -1    0    0    0  501 -0.00000000000E+00 -0.00000000000E+00 -0.69650076688E+02  0.69650076688E+02  0.00000000000E+00 0.  1.
         23    2    1    2    0    0  0.20196678718E+02  0.12227103923E+03  0.14670735805E+03  0.22914013834E+03  0.12499616484E+03 0.  0.
          5    1    3    3  502    0  0.38783362753E+02  0.11561399012E+03  0.52634494187E+02  0.13290306211E+03  0.47000000000E+01 0.  1.
         -5    1    3    3    0  502 -0.18586684035E+02  0.66570491093E+01  0.94072863864E+02  0.96237076233E+02  0.47000000000E+01 0.  1.
        -11    1    1    2    0    0 -0.31547696250E+02 -0.87624199594E+02  0.58641476317E+02  0.11005489647E+03  0.00000000000E+00 0.  1.
         11    1    1    2    0    0  0.11351017532E+02 -0.34646839639E+02  0.11913409501E+03  0.12458804794E+03  0.00000000000E+00 0. -1.
<mgrwt>
<rscale>  0 0.16999730E+03</rscale>
<asrwt>0</asrwt>
<pdfrwt beam="1">  1        1 0.60635846E-01 0.17601748E+03</pdfrwt>
<pdfrwt beam="2">  1       -1 0.10715397E-01 0.17601748E+03</pdfrwt>
<totfact> 0.33129661E+03</totfact>
</mgrwt>
</event>
<event>
 7    1  0.4230786E-006  0.1480766E+03  0.7546771E-02  0.1212049E+00
         -2   -1    0    0    0  501 -0.00000000000E+00  0.00000000000E+00  0.11991248785E+03  0.11991248785E+03  0.00000000000E+00 0.  1.
          2   -1    0    0  501    0  0.00000000000E+00 -0.00000000000E+00 -0.15251703539E+03  0.15251703539E+03  0.00000000000E+00 0. -1.
         23    2    1    2    0    0  0.59694218416E+02 -0.52337886011E+02 -0.28394141456E+02  0.15077436697E+03  0.12499611371E+03 0.  0.
          5    1    3    3  502    0  0.83763935909E+02 -0.84922357536E+01 -0.47786234976E+02  0.96923316494E+02  0.47000000000E+01 0. -1.
         -5    1    3    3    0  502 -0.24069717493E+02 -0.43845650258E+02  0.19392093519E+02  0.53851050480E+02  0.47000000000E+01 0. -1.
        -11    1    1    2    0    0 -0.81335045498E+01  0.47910205504E+02  0.32274159208E+02  0.58336635490E+02  0.00000000000E+00 0.  1.
         11    1    1    2    0    0 -0.51560713866E+02  0.44276805074E+01 -0.36484565291E+02  0.63318520778E+02  0.00000000000E+00 0. -1.
<mgrwt>
<rscale>  0 0.14095563E+03</rscale>
<asrwt>0</asrwt>
<pdfrwt beam="2">  1        2 0.23464159E-01 0.14807661E+03</pdfrwt>
<pdfrwt beam="1">  1       -2 0.18448075E-01 0.14807661E+03</pdfrwt>
<totfact> 0.53513786E+03</totfact>
</mgrwt>
</event>
<event>
 7    1  0.4230786E-006  0.1335022E+03  0.7546771E-02  0.1234626E+00
         -1   -1    0    0    0  501 -0.00000000000E+00  0.00000000000E+00  0.14550872590E+03  0.14550872590E+03  0.00000000000E+00 0.  1.
          1   -1    0    0  501    0  0.00000000000E+00 -0.00000000000E+00 -0.96695026784E+02  0.96695026784E+02  0.00000000000E+00 0. -1.
         23    2    1    2    0    0 -0.42068164162E+02 -0.20795223051E+02  0.32294328473E+02  0.13735273449E+03  0.12498271194E+03 0.  0.
          5    1    3    3  502    0  0.29104133112E+02  0.11986732948E+02  0.47712993598E+02  0.57352873415E+02  0.47000000000E+01 0.  1.
         -5    1    3    3    0  502 -0.71172297274E+02 -0.32781955999E+02 -0.15418665125E+02  0.79999861079E+02  0.47000000000E+01 0.  1.
        -11    1    1    2    0    0  0.18201387566E+02  0.54237948121E+02  0.25754306644E+02  0.62740177210E+02  0.00000000000E+00 0.  1.
         11    1    1    2    0    0  0.23866776597E+02 -0.33442725070E+02 -0.92349360005E+01  0.42110840981E+02  0.00000000000E+00 0. -1.
<mgrwt>
<rscale>  0 0.12528384E+03</rscale>
<asrwt>0</asrwt>
<pdfrwt beam="2">  1        1 0.14876158E-01 0.13350225E+03</pdfrwt>
<pdfrwt beam="1">  1       -1 0.22385958E-01 0.13350225E+03</pdfrwt>
<totfact> 0.59882337E+03</totfact>
</mgrwt>
</event>
<event>
 7    1  0.4230786E-006  0.1460971E+03  0.7546771E-02  0.1214372E+00
          2   -1    0    0  501    0  0.00000000000E+00  0.00000000000E+00  0.42132219440E+03  0.42132219440E+03  0.00000000000E+00 0.  1.
         -2   -1    0    0    0  501 -0.00000000000E+00 -0.00000000000E+00 -0.48844580679E+02  0.48844580679E+02  0.00000000000E+00 0. -1.
         23    2    1    2    0    0 -0.23986743732E+02  0.71761190560E+02  0.11514112460E+03  0.18601572365E+03  0.12497735205E+03 0.  0.
          5    1    3    3  502    0 -0.57072586516E+02  0.38236218568E+02  0.85498362505E+01  0.69386441341E+02  0.47000000000E+01 0.  1.
         -5    1    3    3    0  502  0.33085842784E+02  0.33524971992E+02  0.10659128835E+03  0.11662928231E+03  0.47000000000E+01 0.  1.
        -11    1    1    2    0    0  0.39218702649E+02 -0.18351860980E+01  0.43216531213E+02  0.58387867880E+02  0.00000000000E+00 0. -1.
         11    1    1    2    0    0 -0.15231958917E+02 -0.69926004462E+02  0.21411995791E+03  0.22576318355E+03  0.00000000000E+00 0.  1.
<mgrwt>
<rscale>  0 0.13922786E+03</rscale>
<asrwt>0</asrwt>
<pdfrwt beam="1">  1        2 0.64818797E-01 0.14609713E+03</pdfrwt>
<pdfrwt beam="2">  1       -2 0.75145512E-02 0.14609713E+03</pdfrwt>
<totfact> 0.75436248E+03</totfact>
</mgrwt>
</event>
<event>
 7    1  0.5397007E-006  0.1777732E+03  0.7546771E-02  0.1174792E+00
         -1   -1    0    0    0  501 -0.00000000000E+00  0.00000000000E+00  0.23412231826E+03  0.23412231826E+03  0.00000000000E+00 0.  1.
          1   -1    0    0  501    0  0.00000000000E+00 -0.00000000000E+00 -0.12157952467E+03  0.12157952467E+03  0.00000000000E+00 0. -1.
         23    2    1    2    0    0 -0.12108361529E+03 -0.36291090417E+02  0.67482217200E+02  0.19015037217E+03  0.12500011706E+03 0.  0.
          5    1    3    3  502    0 -0.11500558284E+03 -0.15561371699E+02  0.98341449969E+02  0.15218926097E+03  0.47000000000E+01 0.  1.
         -5    1    3    3    0  502 -0.60780324494E+01 -0.20729718718E+02 -0.30859232769E+02  0.37961111202E+02  0.47000000000E+01 0.  1.
        -11    1    1    2    0    0 -0.13665577263E+01 -0.22666225608E+02  0.12002006979E+02  0.25684108605E+02  0.00000000000E+00 0.  1.
         11    1    1    2    0    0  0.12245017301E+03  0.58957316024E+02  0.33058569415E+02  0.13986736215E+03  0.00000000000E+00 0. -1.
<mgrwt>
<rscale>  0 0.17296348E+03</rscale>
<asrwt>0</asrwt>
<pdfrwt beam="2">  1        1 0.18704542E-01 0.17777321E+03</pdfrwt>
<pdfrwt beam="1">  1       -1 0.36018818E-01 0.17777321E+03</pdfrwt>
<totfact> 0.20387406E+03</totfact>
</mgrwt>
</event>
<event>
 7    1  0.4230786E-006  0.1478557E+03  0.7546771E-02  0.1212831E+00
          2   -1    0    0  501    0  0.00000000000E+00  0.00000000000E+00  0.32502331600E+03  0.32502331600E+03  0.00000000000E+00 0. -1.
         -2   -1    0    0    0  501 -0.00000000000E+00 -0.00000000000E+00 -0.59859271624E+02  0.59859271624E+02  0.00000000000E+00 0.  1.
         23    2    1    2    0    0  0.64007956268E+02 -0.46292335168E+02  0.92011175125E+02  0.17414750822E+03  0.12498519716E+03 0.  0.
          5    1    3    3  502    0  0.73062836873E+02  0.15511526704E+02  0.81469943064E+02  0.11062652130E+03  0.47000000000E+01 0.  1.
         -5    1    3    3    0  502 -0.90548806051E+01 -0.61803861873E+02  0.10541232061E+02  0.63520986914E+02  0.47000000000E+01 0.  1.
        -11    1    1    2    0    0 -0.55107760385E+01  0.58094116237E+02  0.66103073499E+02  0.88175457583E+02  0.00000000000E+00 0. -1.
         11    1    1    2    0    0 -0.58497180229E+02 -0.11801781069E+02  0.10704979575E+03  0.12255962183E+03  0.00000000000E+00 0.  1.
<mgrwt>
<rscale>  0 0.14037082E+03</rscale>
<asrwt>0</asrwt>
<pdfrwt beam="1">  1        2 0.50003586E-01 0.14785567E+03</pdfrwt>
<pdfrwt beam="2">  1       -2 0.92091189E-02 0.14785567E+03</pdfrwt>
<totfact> 0.72649748E+03</totfact>
</mgrwt>
</event>
<event>
 7    1  0.4230786E-006  0.1392468E+03  0.7546771E-02  0.1248033E+00
          1   -1    0    0  501    0  0.00000000000E+00  0.00000000000E+00  0.86396956313E+02  0.86396956313E+02  0.00000000000E+00 0. -1.
         -1   -1    0    0    0  501 -0.00000000000E+00 -0.00000000000E+00 -0.13005377637E+03  0.13005377637E+03  0.00000000000E+00 0.  1.
         23    2    1    2    0    0 -0.61133569580E+02  0.46124814788E+01 -0.11159405485E+02  0.13969322724E+03  0.12502430600E+03 0.  0.
          5    1    3    3  502    0 -0.86299266059E+02  0.20326010911E+02 -0.40604751427E+02  0.97629636281E+02  0.47000000000E+01 0.  1.
         -5    1    3    3    0  502  0.25165696479E+02 -0.15713529432E+02  0.29445345942E+02  0.42063590956E+02  0.47000000000E+01 0.  1.
        -11    1    1    2    0    0  0.31594331326E+02 -0.18660693429E+02 -0.19568220111E+02  0.41585315792E+02  0.00000000000E+00 0. -1.
         11    1    1    2    0    0  0.29539238254E+02  0.14048211950E+02 -0.12929194460E+02  0.35172189653E+02  0.00000000000E+00 0.  1.
<mgrwt>
<rscale>  0 0.11705650E+03</rscale>
<asrwt>0</asrwt>
<pdfrwt beam="1">  1        1 0.13291839E-01 0.13924678E+03</pdfrwt>
<pdfrwt beam="2">  1       -1 0.20008273E-01 0.13924678E+03</pdfrwt>
<totfact> 0.83349637E+03</totfact>
</mgrwt>
</event>
<event>
 7    1  0.4230786E-006  0.1348101E+03  0.7546771E-02  0.1230723E+00
          2   -1    0    0  501    0  0.00000000000E+00  0.00000000000E+00  0.58865596737E+02  0.58865596737E+02  0.00000000000E+00 0.  1.
         -2   -1    0    0    0  501 -0.00000000000E+00 -0.00000000000E+00 -0.25237172919E+03  0.25237172919E+03  0.00000000000E+00 0. -1.
         23    2    1    2    0    0 -0.50181577312E+02  0.51814319575E+01 -0.10642638637E+03  0.17175666379E+03  0.12501495072E+03 0.  0.
          5    1    3    3  502    0 -0.18657166378E+02 -0.12843680193E+02 -0.12745090321E+03  0.12953328802E+03  0.47000000000E+01 0.  1.
         -5    1    3    3    0  502 -0.31524410934E+02  0.18025112150E+02  0.21024516840E+02  0.42223375767E+02  0.47000000000E+01 0.  1.
        -11    1    1    2    0    0  0.27350921289E+02  0.10734496777E+01  0.17346050592E+02  0.32405410979E+02  0.00000000000E+00 0.  1.
         11    1    1    2    0    0  0.22830656023E+02 -0.62548816351E+01 -0.10442579668E+03  0.10707525116E+03  0.00000000000E+00 0. -1.
<mgrwt>
<rscale>  0 0.12782250E+03</rscale>
<asrwt>0</asrwt>
<pdfrwt beam="1">  1        2 0.90562456E-02 0.13481015E+03</pdfrwt>
<pdfrwt beam="2">  1       -2 0.38826420E-01 0.13481015E+03</pdfrwt>
<totfact> 0.43628811E+03</totfact>
</mgrwt>
</event>
<event>
 6    1  0.4230786E-006  0.1565729E+03  0.7546771E-02  0.1210064E+00
         -1   -1    0    0    0  501 -0.00000000000E+00  0.00000000000E+00  0.71569301006E+02  0.71569301006E+02  0.00000000000E+00 0.  1.
          1   -1    0    0  501    0  0.00000000000E+00 -0.00000000000E+00 -0.24486148431E+03  0.24486148431E+03  0.00000000000E+00 0. -1.
          5    1    1    2  502    0  0.16851610183E+02 -0.30981489414E+02 -0.74078886078E+02  0.82180294564E+02  0.47000000000E+01 0. -1.
         -5    1    1    2    0  502 -0.34301319601E+02  0.90708858260E+02 -0.15838255332E+02  0.98374884118E+02  0.47000000000E+01 0.  1.
        -11    1    1    2    0    0 -0.34173962617E+02 -0.38464482194E+02 -0.39361950003E+02  0.64782244631E+02  0.00000000000E+00 0. -1.
         11    1    1    2    0    0  0.51623672035E+02 -0.21262886652E+02 -0.44013091892E+02  0.71093362004E+02  0.00000000000E+00 0.  1.
<mgrwt>
<rscale>  0 0.14245431E+03</rscale>
<asrwt>0</asrwt>
<pdfrwt beam="2">  1        1 0.37670998E-01 0.15657292E+03</pdfrwt>
<pdfrwt beam="1">  1       -1 0.11010662E-01 0.15657292E+03</pdfrwt>
<totfact> 0.57277460E+03</totfact>
</mgrwt>
</event>
<event>
 7    1  0.4230786E-006  0.1371438E+03  0.7546771E-02  0.1230882E+00
          3   -1    0    0  501    0  0.00000000000E+00  0.00000000000E+00  0.40429743423E+02  0.40429743423E+02  0.00000000000E+00 0. -1.
         -3   -1    0    0    0  501 -0.00000000000E+00 -0.00000000000E+00 -0.36383085727E+03  0.36383085727E+03  0.00000000000E+00 0.  1.
         23    2    1    2    0    0  0.49966732798E+02 -0.26205699359E+02 -0.15682855093E+03  0.20833531360E+03  0.12499998176E+03 0.  0.
          5    1    3    3  502    0  0.82660748351E+02 -0.49622822125E+02 -0.11454130615E+03  0.14978993494E+03  0.47000000000E+01 0.  1.
         -5    1    3    3    0  502 -0.32694015554E+02  0.23417122766E+02 -0.42287244776E+02  0.58545378660E+02  0.47000000000E+01 0.  1.
        -11    1    1    2    0    0 -0.68112593989E+02  0.14691050288E+02 -0.15819239533E+03  0.17285828403E+03  0.00000000000E+00 0.  1.
         11    1    1    2    0    0  0.18145861191E+02  0.11514649070E+02 -0.83801675920E+01  0.23067003066E+02  0.00000000000E+00 0. -1.
<mgrwt>
<rscale>  0 0.12771775E+03</rscale>
<asrwt>0</asrwt>
<pdfrwt beam="1">  1        3 0.62199604E-02 0.13714375E+03</pdfrwt>
<pdfrwt beam="2">  1       -3 0.55973980E-01 0.13714375E+03</pdfrwt>
<totfact> 0.11774096E+03</totfact>
</mgrwt>
</event>
<event>
 7    1  0.4230786E-006  0.1565238E+03  0.7546771E-02  0.1201196E+00
          3   -1    0    0  501    0  0.00000000000E+00  0.00000000000E+00  0.11406828498E+03  0.11406828498E+03  0.00000000000E+00 0. -1.
         -3   -1    0    0    0  501 -0.00000000000E+00 -0.00000000000E+00 -0.33675917107E+03  0.33675917107E+03  0.00000000000E+00 0.  1.
         23    2    1    2    0    0 -0.76713010386E+02  0.54731252616E+02 -0.27035897789E+03  0.31239989183E+03  0.12497727601E+03 0.  0.
          5    1    3    3  502    0 -0.73931539213E+02  0.14665803494E+02 -0.55372654913E+02  0.93643895662E+02  0.47000000000E+01 0.  1.
         -5    1    3    3    0  502 -0.27814711729E+01  0.40065449122E+02 -0.21498632298E+03  0.21875599617E+03  0.47000000000E+01 0.  1.
        -11    1    1    2    0    0  0.49461389497E+02 -0.57317478618E+02 -0.82622504935E+01  0.76157646952E+02  0.00000000000E+00 0.  1.
         11    1    1    2    0    0  0.27251620890E+02  0.25862260018E+01  0.55930342293E+02  0.62269917256E+02  0.00000000000E+00 0. -1.
<mgrwt>
<rscale>  0 0.14941318E+03</rscale>
<asrwt>0</asrwt>
<pdfrwt beam="1">  1        3 0.17548967E-01 0.15652385E+03</pdfrwt>
<pdfrwt beam="2">  1       -3 0.51809103E-01 0.15652385E+03</pdfrwt>
<totfact> 0.24955966E+02</totfact>
</mgrwt>
</event>
<event>
 7    1  0.4230786E-006  0.1342677E+03  0.7546771E-02  0.1233701E+00
         -2   -1    0    0    0  501 -0.00000000000E+00  0.00000000000E+00  0.24612228264E+03  0.24612228264E+03  0.00000000000E+00 0.  1.
          2   -1    0    0  501    0  0.00000000000E+00 -0.00000000000E+00 -0.74419401630E+02  0.74419401630E+02  0.00000000000E+00 0. -1.
         23    2    1    2    0    0  0.46924106985E+02 -0.14126681243E+02  0.17022058003E+03  0.21680140557E+03  0.12500547449E+03 0.  0.
          5    1    3    3  502    0 -0.88172699662E+01 -0.60194060598E+02  0.89546029265E+02  0.10835889690E+03  0.47000000000E+01 0. -1.
         -5    1    3    3    0  502  0.55741376951E+02  0.46067379355E+02  0.80674550761E+02  0.10844250867E+03  0.47000000000E+01 0. -1.
        -11    1    1    2    0    0  0.17084121999E+02  0.32750589580E+02 -0.19425290357E+01  0.36989752113E+02  0.00000000000E+00 0. -1.
         11    1    1    2    0    0 -0.64008228984E+02 -0.18623908336E+02  0.34248300203E+01  0.66750526590E+02  0.00000000000E+00 0.  1.
<mgrwt>
<rscale>  0 0.12587930E+03</rscale>
<asrwt>0</asrwt>
<pdfrwt beam="2">  1        2 0.11449139E-01 0.13426766E+03</pdfrwt>
<pdfrwt beam="1">  1       -2 0.37864966E-01 0.13426766E+03</pdfrwt>
<totfact> 0.34313889E+03</totfact>
</mgrwt>
</event>
<event>
 7    1  0.4230786E-006  0.1768954E+03  0.7546771E-02  0.1176720E+00
         -2   -1    0    0    0  501 -0.00000000000E+00  0.00000000000E+00  0.12248082613E+03  0.12248082613E+03  0.00000000000E+00 0. -1.
          2   -1    0    0  501    0  0.00000000000E+00 -0.00000000000E+00 -0.24352820804E+03  0.24352820804E+03  0.00000000000E+00 0.  1.
         23    2    1    2    0    0  0.90941658359E+01  0.12483627561E+03 -0.13249250715E+02  0.17739091382E+03  0.12500077640E+03 0.  0.
          5    1    3    3  502    0 -0.45425340438E+01  0.90661185435E+02  0.50241999181E+02  0.10385775677E+03  0.47000000000E+01 0. -1.
         -5    1    3    3    0  502  0.13636699880E+02  0.34175090172E+02 -0.63491249897E+02  0.73533157047E+02  0.47000000000E+01 0. -1.
        -11    1    1    2    0    0  0.21240965831E+02 -0.28703911002E+02 -0.74227714323E+02  0.82370180951E+02  0.00000000000E+00 0.  1.
         11    1    1    2    0    0 -0.30335131666E+02 -0.96132364605E+02 -0.33570416869E+02  0.10624793940E+03  0.00000000000E+00 0. -1.
<mgrwt>
<rscale>  0 0.17108623E+03</rscale>
<asrwt>0</asrwt>
<pdfrwt beam="2">  1        2 0.37465878E-01 0.17689543E+03</pdfrwt>
<pdfrwt beam="1">  1       -2 0.18843204E-01 0.17689543E+03</pdfrwt>
<totfact> 0.31274676E+03</totfact>
</mgrwt>
</event>
<event>
 7    1  0.4230786E-006  0.1414624E+03  0.7546771E-02  0.1223437E+00
          1   -1    0    0  501    0  0.00000000000E+00  0.00000000000E+00  0.17498380351E+03  0.17498380351E+03  0.00000000000E+00 0. -1.
         -1   -1    0    0    0  501 -0.00000000000E+00 -0.00000000000E+00 -0.90124094663E+02  0.90124094663E+02  0.00000000000E+00 0.  1.
         23    2    1    2    0    0  0.36386806176E+02 -0.55393930328E+02  0.46782983061E+02  0.14899754738E+03  0.12497653556E+03 0.  0.
          5    1    3    3  502    0 -0.27727634604E+02 -0.67077967001E+02  0.40769531746E+02  0.83381773167E+02  0.47000000000E+01 0. -1.
         -5    1    3    3    0  502  0.64114440780E+02  0.11684036673E+02  0.60134513152E+01  0.65615774218E+02  0.47000000000E+01 0. -1.
        -11    1    1    2    0    0 -0.91825804626E+00  0.43317699350E+02 -0.19421885917E+02  0.47481321879E+02  0.00000000000E+00 0.  1.
         11    1    1    2    0    0 -0.35468548130E+02  0.12076230978E+02  0.57498611700E+02  0.68629028906E+02  0.00000000000E+00 0. -1.
<mgrwt>
<rscale>  0 0.13274619E+03</rscale>
<asrwt>0</asrwt>
<pdfrwt beam="1">  1        1 0.26920585E-01 0.14146244E+03</pdfrwt>
<pdfrwt beam="2">  1       -1 0.13865245E-01 0.14146244E+03</pdfrwt>
<totfact> 0.60510939E+03</totfact>
</mgrwt>
</event>
<event>
 7    1  0.4230786E-006  0.1289731E+03  0.7546771E-02  0.1244036E+00
          1   -1    0    0  501    0  0.00000000000E+00  0.00000000000E+00  0.85346002678E+02  0.85346002678E+02  0.00000000000E+00 0. -1.
         -1   -1    0    0    0  501 -0.00000000000E+00 -0.00000000000E+00 -0.15606509225E+03  0.15606509225E+03  0.00000000000E+00 0.  1.
         23    2    1    2    0    0  0.31471762095E+02  0.44173058952E+01 -0.69621923315E+02  0.14656493950E+03  0.12499633948E+03 0.  0.
          5    1    3    3  502    0  0.75589661642E+02  0.62524582919E+01 -0.17296217286E+02  0.77936764843E+02  0.47000000000E+01 0.  1.
         -5    1    3    3    0  502 -0.44117899547E+02 -0.18351523967E+01 -0.52325706029E+02  0.68628174653E+02  0.47000000000E+01 0.  1.
        -11    1    1    2    0    0 -0.83176254555E+01 -0.34654013728E+02  0.29285922954E+02  0.46127528050E+02  0.00000000000E+00 0. -1.
         11    1    1    2    0    0 -0.23154136639E+02  0.30236707833E+02 -0.30383089216E+02  0.48718627386E+02  0.00000000000E+00 0.  1.
<mgrwt>
<rscale>  0 0.11943239E+03</rscale>
<asrwt>0</asrwt>
<pdfrwt beam="1">  1        1 0.13130154E-01 0.12897313E+03</pdfrwt>
<pdfrwt beam="2">  1       -1 0.24010014E-01 0.12897313E+03</pdfrwt>
<totfact> 0.62680155E+03</totfact>
</mgrwt>
</event>
<event>
 7    1  0.4230786E-006  0.2039668E+03  0.7546771E-02  0.1150534E+00
          1   -1    0    0  501    0  0.00000000000E+00  0.00000000000E+00  0.44600541629E+03  0.44600541629E+03  0.00000000000E+00 0. -1.
         -1   -1    0    0    0  501 -0.00000000000E+00 -0.00000000000E+00 -0.86151840370E+02  0.86151840370E+02  0.00000000000E+00 0.  1.
         23    2    1    2    0    0  0.14908497807E+03  0.61237060458E+02  0.15552528493E+03  0.25649672806E+03  0.12500459589E+03 0.  0.
          5    1    3    3  502    0  0.70858469465E+02  0.94947879779E+02  0.94180077372E+02  0.15141994434E+03  0.47000000000E+01 0. -1.
         -5    1    3    3    0  502  0.78226508601E+02 -0.33710819321E+02  0.61345207562E+02  0.10507678373E+03  0.47000000000E+01 0. -1.
        -11    1    1    2    0    0 -0.33516854225E+02 -0.44120348286E+01 -0.38487179314E+00  0.33808189759E+02  0.00000000000E+00 0.  1.
         11    1    1    2    0    0 -0.11556812384E+03 -0.56825025629E+02  0.20471316278E+03  0.24185233883E+03  0.00000000000E+00 0. -1.
<mgrwt>
<rscale>  0 0.19906011E+03</rscale>
<asrwt>0</asrwt>
<pdfrwt beam="1">  1        1 0.68616216E-01 0.20396680E+03</pdfrwt>
<pdfrwt beam="2">  1       -1 0.13254130E-01 0.20396680E+03</pdfrwt>
<totfact> 0.20406367E+03</totfact>
</mgrwt>
</event>
<event>
 7    1  0.4230786E-006  0.1377655E+03  0.7546771E-02  0.1227896E+00
          1   -1    0    0  501    0  0.00000000000E+00  0.00000000000E+00  0.13483667353E+03  0.13483667353E+03  0.00000000000E+00 0. -1.
         -1   -1    0    0    0  501 -0.00000000000E+00 -0.00000000000E+00 -0.11486582273E+03  0.11486582273E+03  0.00000000000E+00 0.  1.
         23    2    1    2    0    0 -0.57507235224E+02  0.68874085862E+01 -0.77020265244E+01  0.13798060697E+03  0.12499923275E+03 0.  0.
          5    1    3    3  502    0 -0.63700610063E+02  0.51697965721E+02 -0.29807521579E+02  0.87412960851E+02  0.47000000000E+01 0.  1.
         -5    1    3    3    0  502  0.61933748391E+01 -0.44810557134E+02  0.22105495055E+02  0.50567646121E+02  0.47000000000E+01 0.  1.
        -11    1    1    2    0    0  0.80179216711E+02 -0.18896208222E+02  0.18120378120E+02  0.84345252271E+02  0.00000000000E+00 0.  1.
         11    1    1    2    0    0 -0.22671981486E+02  0.12008799636E+02  0.95524992058E+01  0.27376637016E+02  0.00000000000E+00 0. -1.
<mgrwt>
<rscale>  0 0.12970380E+03</rscale>
<asrwt>0</asrwt>
<pdfrwt beam="1">  1        1 0.20744104E-01 0.13776548E+03</pdfrwt>
<pdfrwt beam="2">  1       -1 0.17671665E-01 0.13776548E+03</pdfrwt>
<totfact> 0.57274201E+03</totfact>
</mgrwt>
</event>
<event>
 7    1  0.4230786E-006  0.1360791E+03  0.7546771E-02  0.1230661E+00
         -2   -1    0    0    0  501 -0.00000000000E+00  0.00000000000E+00  0.18225527993E+03  0.18225527993E+03  0.00000000000E+00 0.  1.
          2   -1    0    0  501    0  0.00000000000E+00 -0.00000000000E+00 -0.80478534052E+02  0.80478534052E+02  0.00000000000E+00 0. -1.
         23    2    1    2    0    0 -0.24891964623E+02  0.47671195164E+02  0.60244981268E+02  0.14881858070E+03  0.12500143776E+03 0.  0.
          5    1    3    3  502    0 -0.13174200461E+02 -0.25363995655E+02  0.68373544796E+02  0.74255797493E+02  0.47000000000E+01 0. -1.
         -5    1    3    3    0  502 -0.11717764162E+02  0.73035190819E+02 -0.81285635276E+01  0.74562783209E+02  0.47000000000E+01 0. -1.
        -11    1    1    2    0    0 -0.50159626454E+01 -0.29058206385E+02  0.65143806972E+02  0.71507026413E+02  0.00000000000E+00 0.  1.
         11    1    1    2    0    0  0.29907927268E+02 -0.18612988779E+02 -0.23612042366E+02  0.42408206864E+02  0.00000000000E+00 0. -1.
<mgrwt>
<rscale>  0 0.12786339E+03</rscale>
<asrwt>0</asrwt>
<pdfrwt beam="2">  1        2 0.12381313E-01 0.13607907E+03</pdfrwt>
<pdfrwt beam="1">  1       -2 0.28039274E-01 0.13607907E+03</pdfrwt>
<totfact> 0.54066281E+03</totfact>
</mgrwt>
</event>
<event>
 7    1  0.4230786E-006  0.1255469E+03  0.7546771E-02  0.1248076E+00
          4   -1    0    0  501    0  0.00000000000E+00  0.00000000000E+00  0.59596563810E+02  0.59596563810E+02  0.00000000000E+00 0. -1.
         -4   -1    0    0    0  501 -0.00000000000E+00 -0.00000000000E+00 -0.22350547872E+03  0.22350547872E+03  0.00000000000E+00 0.  1.
         23    2    1    2    0    0 -0.84010308209E+01  0.81848274510E+01 -0.13417271660E+03  0.18375074341E+03  0.12499779639E+03 0.  0.
          5    1    3    3  502    0  0.29295372749E+02 -0.22004563331E+02  0.41427139508E+01  0.37170845441E+02  0.47000000000E+01 0.  1.
         -5    1    3    3    0  502 -0.37696403570E+02  0.30189390782E+02 -0.13831543055E+03  0.14657989796E+03  0.47000000000E+01 0.  1.
        -11    1    1    2    0    0  0.39646305017E+02 -0.35558024804E+02 -0.16928797701E+02  0.55881900657E+02  0.00000000000E+00 0. -1.
         11    1    1    2    0    0 -0.31245274196E+02  0.27373197353E+02 -0.12807400605E+02  0.43469398468E+02  0.00000000000E+00 0.  1.
<mgrwt>
<rscale>  0 0.11703153E+03</rscale>
<asrwt>0</asrwt>
<pdfrwt beam="1">  1        4 0.91687023E-02 0.12554687E+03</pdfrwt>
<pdfrwt beam="2">  1       -4 0.34385458E-01 0.12554687E+03</pdfrwt>
<totfact> 0.11657930E+03</totfact>
</mgrwt>
</event>
<event>
 6    1  0.4230786E-006  0.2540778E+03  0.7546771E-02  0.1121863E+00
         -1   -1    0    0    0  501 -0.00000000000E+00  0.00000000000E+00  0.30765956200E+02  0.30765956200E+02  0.00000000000E+00 0.  1.
          1   -1    0    0  501    0  0.00000000000E+00 -0.00000000000E+00 -0.16998567883E+04  0.16998567883E+04  0.00000000000E+00 0. -1.
          5    1    1    2  502    0 -0.47573634854E+02  0.14256638456E+03 -0.75492024428E+03  0.76975001784E+03  0.47000000000E+01 0. -1.
         -5    1    1    2    0  502 -0.25914698604E+02  0.95068389366E+01 -0.13207170713E+01  0.28031872643E+02  0.47000000000E+01 0.  1.
        -11    1    1    2    0    0 -0.15236406427E+02 -0.51095021367E+02 -0.17862577582E+03  0.18641356463E+03  0.00000000000E+00 0. -1.
         11    1    1    2    0    0  0.88724739885E+02 -0.10097820213E+03 -0.73422409492E+03  0.74642728938E+03  0.00000000000E+00 0.  1.
<mgrwt>
<rscale>  0 0.23691864E+03</rscale>
<asrwt>0</asrwt>
<pdfrwt beam="2">  1        1 0.26151651E+00 0.25407785E+03</pdfrwt>
<pdfrwt beam="1">  1       -1 0.47332225E-02 0.25407785E+03</pdfrwt>
<totfact> 0.10118617E+03</totfact>
</mgrwt>
</event>
<event>
 6    1  0.4230786E-006  0.1281859E+03  0.7546771E-02  0.1246389E+00
          2   -1    0    0  501    0  0.00000000000E+00  0.00000000000E+00  0.73477632161E+03  0.73477632161E+03  0.00000000000E+00 0. -1.
         -2   -1    0    0    0  501 -0.00000000000E+00 -0.00000000000E+00 -0.16675690762E+02  0.16675690762E+02  0.00000000000E+00 0.  1.
          5    1    1    2  502    0  0.86538375842E+01  0.17366581149E+02  0.37875769929E+03  0.37928349795E+03  0.47000000000E+01 0. -1.
         -5    1    1    2    0  502 -0.10259753910E+02 -0.19403382998E+02  0.20731229503E+01  0.22541997712E+02  0.47000000000E+01 0.  1.
        -11    1    1    2    0    0  0.41546845998E+02 -0.15497032344E+02  0.22187084753E+03  0.22625863831E+03  0.00000000000E+00 0.  1.
         11    1    1    2    0    0 -0.39940929672E+02  0.17533834193E+02  0.11539896108E+03  0.12336787841E+03  0.00000000000E+00 0. -1.
<mgrwt>
<rscale>  0 0.11802645E+03</rscale>
<asrwt>0</asrwt>
<pdfrwt beam="1">  1        2 0.11304249E+00 0.12818586E+03</pdfrwt>
<pdfrwt beam="2">  1       -2 0.25654915E-02 0.12818586E+03</pdfrwt>
<totfact> 0.19916100E+04</totfact>
</mgrwt>
</event>
<event>
 7    1  0.4615019E-006  0.1557833E+03  0.7546771E-02  0.1201925E+00
         -1   -1    0    0    0  501 -0.00000000000E+00  0.00000000000E+00  0.26846728336E+03  0.26846728336E+03  0.00000000000E+00 0.  1.
          1   -1    0    0  501    0  0.00000000000E+00 -0.00000000000E+00 -0.81531127886E+02  0.81531127886E+02  0.00000000000E+00 0. -1.
         23    2    1    2    0    0  0.21943578660E+02 -0.90344470950E+02  0.14710900835E+03  0.21426499738E+03  0.12499913876E+03 0.  0.
          5    1    3    3  502    0 -0.18036956143E+02 -0.28226068504E+02  0.13510657691E+03  0.13927641528E+03  0.47000000000E+01 0. -1.
         -5    1    3    3    0  502  0.39980534803E+02 -0.62118402446E+02  0.12002431444E+02  0.74988582105E+02  0.47000000000E+01 0. -1.
        -11    1    1    2    0    0 -0.16018567866E+02 -0.40368610682E+01  0.37679781360E+02  0.41141909133E+02  0.00000000000E+00 0.  1.
         11    1    1    2    0    0 -0.59250107941E+01  0.94381332018E+02  0.21473657617E+01  0.94591504725E+02  0.00000000000E+00 0. -1.
<mgrwt>
<rscale>  0 0.14882465E+03</rscale>
<asrwt>0</asrwt>
<pdfrwt beam="2">  1        1 0.12543251E-01 0.15578327E+03</pdfrwt>
<pdfrwt beam="1">  1       -1 0.41302659E-01 0.15578327E+03</pdfrwt>
<totfact> 0.26828029E+03</totfact>
</mgrwt>
</event>
<event>
 7    1  0.4230786E-006  0.1332663E+03  0.7546771E-02  0.1234882E+00
         -2   -1    0    0    0  501 -0.00000000000E+00  0.00000000000E+00  0.69025728162E+02  0.69025728162E+02  0.00000000000E+00 0.  1.
          2   -1    0    0  501    0  0.00000000000E+00 -0.00000000000E+00 -0.20341308829E+03  0.20341308829E+03  0.00000000000E+00 0. -1.
         23    2    1    2    0    0 -0.39075624787E+02 -0.24722689781E+02 -0.70446534112E+02  0.15074025839E+03  0.12498718129E+03 0.  0.
          5    1    3    3  502    0  0.38931013177E+02  0.18358926722E+02 -0.30549854480E+02  0.52991108557E+02  0.47000000000E+01 0. -1.
         -5    1    3    3    0  502 -0.78006637964E+02 -0.43081616503E+02 -0.39896679631E+02  0.97749149830E+02  0.47000000000E+01 0. -1.
        -11    1    1    2    0    0 -0.13892402338E+02  0.26476579826E+02  0.92833061483E+01  0.31307952585E+02  0.00000000000E+00 0.  1.
         11    1    1    2    0    0  0.52968027125E+02 -0.17538900451E+01 -0.73224132168E+02  0.90390605483E+02  0.00000000000E+00 0. -1.
<mgrwt>
<rscale>  0 0.12511959E+03</rscale>
<asrwt>0</asrwt>
<pdfrwt beam="2">  1        2 0.31294321E-01 0.13326632E+03</pdfrwt>
<pdfrwt beam="1">  1       -2 0.10619343E-01 0.13326632E+03</pdfrwt>
<totfact> 0.95062240E+03</totfact>
</mgrwt>
</event>
<event>
 7    1  0.4230786E-006  0.1135013E+03  0.7546771E-02  0.1263848E+00
          1   -1    0    0  501    0  0.00000000000E+00  0.00000000000E+00  0.30956798328E+03  0.30956798328E+03  0.00000000000E+00 0. -1.
         -1   -1    0    0    0  501 -0.00000000000E+00 -0.00000000000E+00 -0.40892087599E+02  0.40892087599E+02  0.00000000000E+00 0.  1.
         23    2    1    2    0    0 -0.74315287156E+01  0.10077966370E+02  0.77410147004E+02  0.13738586363E+03  0.11280847327E+03 0.  0.
          5    1    3    3  502    0 -0.12332171006E+02  0.58554983833E+02  0.23214893020E+02  0.64356738819E+02  0.47000000000E+01 0. -1.
         -5    1    3    3    0  502  0.49006422906E+01 -0.48477017463E+02  0.54195253984E+02  0.73029124816E+02  0.47000000000E+01 0.  1.
        -11    1    1    2    0    0  0.50224242244E+02 -0.50112053975E+01  0.94105570759E+02  0.10678691463E+03  0.00000000000E+00 0. -1.
         11    1    1    2    0    0 -0.42792713529E+02 -0.50667609724E+01  0.97160177918E+02  0.10628729261E+03  0.00000000000E+00 0.  1.
<mgrwt>
<rscale>  0 0.10824855E+03</rscale>
<asrwt>0</asrwt>
<pdfrwt beam="1">  1        1 0.47625842E-01 0.11350130E+03</pdfrwt>
<pdfrwt beam="2">  1       -1 0.62910906E-02 0.11350130E+03</pdfrwt>
<totfact> 0.97702492E+03</totfact>
</mgrwt>
</event>
<event>
 7    1  0.4230786E-006  0.1509790E+03  0.7546771E-02  0.1209007E+00
          2   -1    0    0  501    0  0.00000000000E+00  0.00000000000E+00  0.25061997514E+03  0.25061997514E+03  0.00000000000E+00 0. -1.
         -2   -1    0    0    0  501 -0.00000000000E+00 -0.00000000000E+00 -0.91181025291E+02  0.91181025291E+02  0.00000000000E+00 0.  1.
         23    2    1    2    0    0  0.48739910400E+02 -0.69095536462E+02  0.13869704343E+02  0.15161474818E+03  0.12507953926E+03 0.  0.
          5    1    3    3  502    0  0.65926914231E+02  0.17481075891E+01  0.36004326274E+02  0.75284894970E+02  0.47000000000E+01 0. -1.
         -5    1    3    3    0  502 -0.17187003831E+02 -0.70843644051E+02 -0.22134621931E+02  0.76329853210E+02  0.47000000000E+01 0. -1.
        -11    1    1    2    0    0 -0.60629624351E+02  0.15994794995E+02  0.49948381935E+02  0.80166237743E+02  0.00000000000E+00 0.  1.
         11    1    1    2    0    0  0.11889713951E+02  0.53100741467E+02  0.95620863572E+02  0.11002001451E+03  0.00000000000E+00 0. -1.
<mgrwt>
<rscale>  0 0.14326097E+03</rscale>
<asrwt>0</asrwt>
<pdfrwt beam="1">  1        2 0.38556919E-01 0.15097902E+03</pdfrwt>
<pdfrwt beam="2">  1       -2 0.14027850E-01 0.15097902E+03</pdfrwt>
<totfact> 0.49055233E+03</totfact>
</mgrwt>
</event>
<event>
 7    1  0.4230786E-006  0.3411073E+03  0.7546771E-02  0.1067121E+00
          2   -1    0    0  501    0  0.00000000000E+00  0.00000000000E+00  0.13683367726E+04  0.13683367726E+04  0.00000000000E+00 0. -1.
         -2   -1    0    0    0  501 -0.00000000000E+00 -0.00000000000E+00 -0.10345493245E+03  0.10345493245E+03  0.00000000000E+00 0.  1.
         23    2    1    2    0    0  0.21443135600E+03 -0.23398515080E+03  0.31238987674E+03  0.46253823846E+03  0.12499731885E+03 0.  0.
          5    1    3    3  502    0  0.12653066278E+03 -0.14124008644E+03  0.99499354246E+02  0.21419846436E+03  0.47000000000E+01 0. -1.
         -5    1    3    3    0  502  0.87900693221E+02 -0.92745064361E+02  0.21289052249E+03  0.24833977410E+03  0.47000000000E+01 0. -1.
        -11    1    1    2    0    0 -0.10577425277E+03  0.18446092125E+03  0.65671874023E+03  0.69028510616E+03  0.00000000000E+00 0.  1.
         11    1    1    2    0    0 -0.10865710323E+03  0.49524229551E+02  0.29577322317E+03  0.31896836040E+03  0.00000000000E+00 0. -1.
<mgrwt>
<rscale>  0 0.33923865E+03</rscale>
<asrwt>0</asrwt>
<pdfrwt beam="1">  1        2 0.21051334E+00 0.34110730E+03</pdfrwt>
<pdfrwt beam="2">  1       -2 0.15916144E-01 0.34110730E+03</pdfrwt>
<totfact> 0.49706488E+02</totfact>
</mgrwt>
</event>
<event>
 7    1  0.4230786E-006  0.1606053E+03  0.7546771E-02  0.1195531E+00
          2   -1    0    0  501    0  0.00000000000E+00  0.00000000000E+00  0.15243925128E+03  0.15243925128E+03  0.00000000000E+00 0. -1.
         -2   -1    0    0    0  501 -0.00000000000E+00 -0.00000000000E+00 -0.16012064129E+03  0.16012064129E+03  0.00000000000E+00 0.  1.
         23    2    1    2    0    0 -0.79821693277E+02  0.61622730468E+02 -0.52981895299E+02  0.16911873290E+03  0.12500080384E+03 0.  0.
          5    1    3    3  502    0 -0.95217186363E+02  0.68184108390E+02 -0.41447507385E+01  0.11728023778E+03  0.47000000000E+01 0. -1.
         -5    1    3    3    0  502  0.15395493086E+02 -0.65613779220E+01 -0.48837144560E+02  0.51838495121E+02  0.47000000000E+01 0. -1.
        -11    1    1    2    0    0  0.71133023278E+02 -0.45615546124E+01  0.20375171393E+01  0.71308248171E+02  0.00000000000E+00 0.  1.
         11    1    1    2    0    0  0.86886699992E+01 -0.57061175855E+02  0.43262988150E+02  0.72132911490E+02  0.00000000000E+00 0. -1.
<mgrwt>
<rscale>  0 0.15409357E+03</rscale>
<asrwt>0</asrwt>
<pdfrwt beam="1">  1        2 0.23452192E-01 0.16060531E+03</pdfrwt>
<pdfrwt beam="2">  1       -2 0.24633945E-01 0.16060531E+03</pdfrwt>
<totfact> 0.32786755E+03</totfact>
</mgrwt>
</event>
<event>
 7    1  0.4230786E-006  0.1281009E+03  0.7546771E-02  0.1243531E+00
          2   -1    0    0  501    0  0.00000000000E+00  0.00000000000E+00  0.38333179583E+02  0.38333179583E+02  0.00000000000E+00 0. -1.
         -2   -1    0    0    0  501 -0.00000000000E+00 -0.00000000000E+00 -0.34692123570E+03  0.34692123570E+03  0.00000000000E+00 0.  1.
         23    2    1    2    0    0  0.67867740300E+01 -0.27212684163E+02 -0.21273745562E+03  0.24832851810E+03  0.12499294938E+03 0.  0.
          5    1    3    3  502    0  0.34755346650E+02  0.91211311679E+01 -0.19595277116E+03  0.19927545680E+03  0.47000000000E+01 0. -1.
         -5    1    3    3    0  502 -0.27968572620E+02 -0.36333815331E+02 -0.16784684460E+02  0.49053061305E+02  0.47000000000E+01 0. -1.
        -11    1    1    2    0    0  0.27217256621E+02 -0.18866495631E+02 -0.62297663772E+02  0.70552977449E+02  0.00000000000E+00 0. -1.
         11    1    1    2    0    0 -0.34004030651E+02  0.46079179795E+02 -0.33552936716E+02  0.66372919729E+02  0.00000000000E+00 0.  1.
<mgrwt>
<rscale>  0 0.11973717E+03</rscale>
<asrwt>0</asrwt>
<pdfrwt beam="1">  1        2 0.58974125E-02 0.12810085E+03</pdfrwt>
<pdfrwt beam="2">  1       -2 0.53372496E-01 0.12810085E+03</pdfrwt>
<totfact> 0.40327536E+03</totfact>
</mgrwt>
</event>
<event>
 7    1  0.4230786E-006  0.1444118E+03  0.7546771E-02  0.1217673E+00
         -2   -1    0    0    0  501 -0.00000000000E+00  0.00000000000E+00  0.29841070401E+02  0.29841070401E+02  0.00000000000E+00 0.  1.
          2   -1    0    0  501    0  0.00000000000E+00 -0.00000000000E+00 -0.60056116291E+03  0.60056116291E+03  0.00000000000E+00 0. -1.
         23    2    1    2    0    0  0.20277514292E+02 -0.69410472817E+02 -0.24340491348E+03  0.28302069680E+03  0.12500308633E+03 0.  0.
          5    1    3    3  502    0  0.13742908139E+01  0.27655699872E+02 -0.10564616374E+02  0.30007124651E+02  0.47000000000E+01 0. -1.
         -5    1    3    3    0  502  0.18903223478E+02 -0.97066172689E+02 -0.23284029710E+03  0.25301357215E+03  0.47000000000E+01 0. -1.
        -11    1    1    2    0    0  0.22484235869E+02  0.67303570638E+01 -0.19993619666E+02  0.30831532498E+02  0.00000000000E+00 0.  1.
         11    1    1    2    0    0 -0.42761750160E+02  0.62680115753E+02 -0.30732155937E+03  0.31655000401E+03  0.00000000000E+00 0. -1.
<mgrwt>
<rscale>  0 0.13681985E+03</rscale>
<asrwt>0</asrwt>
<pdfrwt beam="2">  1        2 0.92394015E-01 0.14441178E+03</pdfrwt>
<pdfrwt beam="1">  1       -2 0.45909344E-02 0.14441178E+03</pdfrwt>
<totfact> 0.10766412E+04</totfact>
</mgrwt>
</event>
<event>
 7    1  0.4230786E-006  0.2121529E+03  0.7546771E-02  0.1143700E+00
         -2   -1    0    0    0  501 -0.00000000000E+00  0.00000000000E+00  0.15694027233E+03  0.15694027233E+03  0.00000000000E+00 0. -1.
          2   -1    0    0  501    0  0.00000000000E+00 -0.00000000000E+00 -0.28680271026E+03  0.28680271026E+03  0.00000000000E+00 0.  1.
         23    2    1    2    0    0  0.16644541212E+03 -0.41006273090E+02 -0.26485042392E+01  0.21216944989E+03  0.12499308478E+03 0.  0.
          5    1    3    3  502    0  0.58904135495E+02 -0.75702160975E+02 -0.19000718137E+02  0.97896024661E+02  0.47000000000E+01 0.  1.
         -5    1    3    3    0  502  0.10754127662E+03  0.34695887885E+02  0.16352213898E+02  0.11427342523E+03  0.47000000000E+01 0.  1.
        -11    1    1    2    0    0 -0.82881349583E+02  0.61250096369E+02 -0.93718281763E+02  0.13929827260E+03  0.00000000000E+00 0.  1.
         11    1    1    2    0    0 -0.83564062535E+02 -0.20243823279E+02 -0.33495651925E+02  0.92275260098E+02  0.00000000000E+00 0. -1.
<mgrwt>
<rscale>  0 0.20732800E+03</rscale>
<asrwt>0</asrwt>
<pdfrwt beam="2">  1        2 0.44123493E-01 0.21215292E+03</pdfrwt>
<pdfrwt beam="1">  1       -2 0.24144658E-01 0.21215292E+03</pdfrwt>
<totfact> 0.17231605E+03</totfact>
</mgrwt>
</event>
<event>
 7    1  0.4230786E-006  0.1501890E+03  0.7546771E-02  0.1209273E+00
          1   -1    0    0  501    0  0.00000000000E+00  0.00000000000E+00  0.56936837652E+02  0.56936837652E+02  0.00000000000E+00 0. -1.
         -1   -1    0    0    0  501 -0.00000000000E+00 -0.00000000000E+00 -0.43654631720E+03  0.43654631720E+03  0.00000000000E+00 0.  1.
         23    2    1    2    0    0  0.83221908513E+02 -0.23800011039E+01 -0.32560029913E+03  0.35856977662E+03  0.12500071779E+03 0.  0.
          5    1    3    3  502    0 -0.85441523550E+01 -0.38989444780E+02 -0.41622262425E+02  0.57859157210E+02  0.47000000000E+01 0. -1.
         -5    1    3    3    0  502  0.91766060868E+02  0.36609443676E+02 -0.28397803671E+03  0.30071061941E+03  0.47000000000E+01 0. -1.
        -11    1    1    2    0    0 -0.97009695963E+02 -0.37140193700E+01 -0.22014816672E+02  0.99545603639E+02  0.00000000000E+00 0.  1.
         11    1    1    2    0    0  0.13787787450E+02  0.60940204739E+01 -0.31994363750E+02  0.35367774599E+02  0.00000000000E+00 0. -1.
<mgrwt>
<rscale>  0 0.14305743E+03</rscale>
<asrwt>0</asrwt>
<pdfrwt beam="1">  1        1 0.87595132E-02 0.15018898E+03</pdfrwt>
<pdfrwt beam="2">  1       -1 0.67160974E-01 0.15018898E+03</pdfrwt>
<totfact> 0.17506220E+03</totfact>
</mgrwt>
</event>
<event>
 7    1  0.4230786E-006  0.1858543E+03  0.7546771E-02  0.1167346E+00
         -1   -1    0    0    0  501 -0.00000000000E+00  0.00000000000E+00  0.18525925794E+03  0.18525925794E+03  0.00000000000E+00 0.  1.
          1   -1    0    0  501    0  0.00000000000E+00 -0.00000000000E+00 -0.16906178426E+03  0.16906178426E+03  0.00000000000E+00 0. -1.
         23    2    1    2    0    0 -0.11399899165E+03 -0.76951354473E+02  0.30964080861E+02  0.18841597428E+03  0.12499809601E+03 0.  0.
          5    1    3    3  502    0 -0.10867104524E+03 -0.13039670835E+02  0.51305373989E+02  0.12097008097E+03  0.47000000000E+01 0. -1.
         -5    1    3    3    0  502 -0.53279464112E+01 -0.63911683638E+02 -0.20341293128E+02  0.67445893311E+02  0.47000000000E+01 0. -1.
        -11    1    1    2    0    0  0.10241077605E+02  0.53489518920E+02  0.12942897287E+02  0.55977914350E+02  0.00000000000E+00 0. -1.
         11    1    1    2    0    0  0.10375791405E+03  0.23461835553E+02 -0.27709504462E+02  0.10992715357E+03  0.00000000000E+00 0.  1.
<mgrwt>
<rscale>  0 0.18047312E+03</rscale>
<asrwt>0</asrwt>
<pdfrwt beam="2">  1        1 0.26009505E-01 0.18585426E+03</pdfrwt>
<pdfrwt beam="1">  1       -1 0.28501424E-01 0.18585426E+03</pdfrwt>
<totfact> 0.20002970E+03</totfact>
</mgrwt>
</event>
<event>
 7    1  0.4230786E-006  0.1259063E+03  0.7546771E-02  0.1249255E+00
          1   -1    0    0  501    0  0.00000000000E+00  0.00000000000E+00  0.16996609224E+03  0.16996609224E+03  0.00000000000E+00 0. -1.
         -1   -1    0    0    0  501 -0.00000000000E+00 -0.00000000000E+00 -0.77213357080E+02  0.77213357080E+02  0.00000000000E+00 0.  1.
         23    2    1    2    0    0  0.79519127284E+01  0.12768971568E+02  0.14839762142E+02  0.12677783198E+03  0.12500448228E+03 0.  0.
          5    1    3    3  502    0  0.38781357257E+02 -0.42755736123E+02  0.23514640774E+02  0.62506599434E+02  0.47000000000E+01 0. -1.
         -5    1    3    3    0  502 -0.30829444529E+02  0.55524707691E+02 -0.86748786319E+01  0.64271232549E+02  0.47000000000E+01 0. -1.
        -11    1    1    2    0    0 -0.15467813408E+02 -0.45088882505E+01  0.96977608227E+02  0.98306865591E+02  0.00000000000E+00 0. -1.
         11    1    1    2    0    0  0.75159006793E+01 -0.82600833173E+01 -0.19064635204E+02  0.22094751750E+02  0.00000000000E+00 0.  1.
<mgrwt>
<rscale>  0 0.11634268E+03</rscale>
<asrwt>0</asrwt>
<pdfrwt beam="1">  1        1 0.26148630E-01 0.12590631E+03</pdfrwt>
<pdfrwt beam="2">  1       -1 0.11878978E-01 0.12590631E+03</pdfrwt>
<totfact> 0.79090967E+03</totfact>
</mgrwt>
</event>
<event>
 7    1  0.4230786E-006  0.1279268E+03  0.7546771E-02  0.1245335E+00
         -1   -1    0    0    0  501 -0.00000000000E+00  0.00000000000E+00  0.62374350904E+02  0.62374350904E+02  0.00000000000E+00 0.  1.
          1   -1    0    0  501    0  0.00000000000E+00 -0.00000000000E+00 -0.42761565340E+03  0.42761565340E+03  0.00000000000E+00 0. -1.
         23    2    1    2    0    0 -0.24664775019E+02 -0.11328459481E+02 -0.16931417537E+02  0.12904236912E+03  0.12501429921E+03 0.  0.
          5    1    3    3  502    0 -0.15965326358E+01  0.16942929178E+02  0.49802456694E+02  0.52839251114E+02  0.47000000000E+01 0.  1.
         -5    1    3    3    0  502 -0.23068242383E+02 -0.28271388658E+02 -0.66733874231E+02  0.76203118002E+02  0.47000000000E+01 0.  1.
        -11    1    1    2    0    0  0.30292559408E+02 -0.33078972836E+02 -0.11610841800E+03  0.12447096983E+03  0.00000000000E+00 0.  1.
         11    1    1    2    0    0 -0.56277843886E+01  0.44407432317E+02 -0.23220146696E+03  0.23647666536E+03  0.00000000000E+00 0. -1.
<mgrwt>
<rscale>  0 0.11865343E+03</rscale>
<asrwt>0</asrwt>
<pdfrwt beam="2">  1        1 0.65787025E-01 0.12792678E+03</pdfrwt>
<pdfrwt beam="1">  1       -1 0.95960538E-02 0.12792678E+03</pdfrwt>
<totfact> 0.34896250E+03</totfact>
</mgrwt>
</event>
<event>
 7    1  0.4230786E-006  0.1400693E+03  0.7546771E-02  0.1224170E+00
          1   -1    0    0  501    0  0.00000000000E+00  0.00000000000E+00  0.10166107536E+03  0.10166107536E+03  0.00000000000E+00 0. -1.
         -1   -1    0    0    0  501 -0.00000000000E+00 -0.00000000000E+00 -0.18387303329E+03  0.18387303329E+03  0.00000000000E+00 0.  1.
         23    2    1    2    0    0 -0.87456185375E+01 -0.62604934705E+02 -0.10099018696E+03  0.17268016103E+03  0.12499422569E+03 0.  0.
          5    1    3    3  502    0 -0.63976344480E+02 -0.20795749984E+02 -0.68151786723E+02  0.95875919312E+02  0.47000000000E+01 0.  1.
         -5    1    3    3    0  502  0.55230725942E+02 -0.41809184721E+02 -0.32838400235E+02  0.76804241713E+02  0.47000000000E+01 0.  1.
        -11    1    1    2    0    0  0.25318481435E+02 -0.15134047057E+02  0.15450556030E+02  0.33298416842E+02  0.00000000000E+00 0. -1.
         11    1    1    2    0    0 -0.16572862898E+02  0.77738981762E+02  0.33276730029E+01  0.79555530780E+02  0.00000000000E+00 0.  1.
<mgrwt>
<rscale>  0 0.13223982E+03</rscale>
<asrwt>0</asrwt>
<pdfrwt beam="1">  1        1 0.15640166E-01 0.14006934E+03</pdfrwt>
<pdfrwt beam="2">  1       -1 0.28288159E-01 0.14006934E+03</pdfrwt>
<totfact> 0.38308889E+03</totfact>
</mgrwt>
</event>
<event>
 7    1  0.4230786E-006  0.1232482E+03  0.7546771E-02  0.1252598E+00
         -3   -1    0    0    0  501 -0.00000000000E+00  0.00000000000E+00  0.21805217366E+02  0.21805217366E+02  0.00000000000E+00 0.  1.
          3   -1    0    0  501    0  0.00000000000E+00 -0.00000000000E+00 -0.52907071163E+03  0.52907071163E+03  0.00000000000E+00 0. -1.
         23    2    1    2    0    0  0.18147285359E+02  0.40078034618E+01 -0.28743069622E+03  0.31274033826E+03  0.12183894122E+03 0.  0.
          5    1    3    3  502    0  0.12583115634E+02  0.45973002689E+02 -0.25432306345E+03  0.25879366758E+03  0.47000000000E+01 0. -1.
         -5    1    3    3    0  502  0.55641697253E+01 -0.41965199228E+02 -0.33107632764E+02  0.53946670687E+02  0.47000000000E+01 0.  1.
        -11    1    1    2    0    0  0.20903314340E+02  0.31249392457E+02 -0.11218174463E+03  0.11831406048E+03  0.00000000000E+00 0. -1.
         11    1    1    2    0    0 -0.39050599699E+02 -0.35257195919E+02 -0.10765305343E+03  0.11982153026E+03  0.00000000000E+00 0.  1.
<mgrwt>
<rscale>  0 0.11441917E+03</rscale>
<asrwt>0</asrwt>
<pdfrwt beam="2">  1        3 0.81395492E-01 0.12324818E+03</pdfrwt>
<pdfrwt beam="1">  1       -3 0.33546489E-02 0.12324818E+03</pdfrwt>
<totfact> 0.13929551E+03</totfact>
</mgrwt>
</event>
<event>
 7    1  0.4230786E-006  0.2081675E+03  0.7546771E-02  0.1145806E+00
          2   -1    0    0  501    0  0.00000000000E+00  0.00000000000E+00  0.29029056667E+03  0.29029056667E+03  0.00000000000E+00 0. -1.
         -2   -1    0    0    0  501 -0.00000000000E+00 -0.00000000000E+00 -0.17835469299E+03  0.17835469299E+03  0.00000000000E+00 0.  1.
         23    2    1    2    0    0 -0.14120327748E+03  0.88145225607E+02 -0.51440343498E+02  0.21442904039E+03  0.12500303219E+03 0.  0.
          5    1    3    3  502    0 -0.36094462880E+02 -0.28811221158E+02  0.63056256033E+01  0.46848133682E+02  0.47000000000E+01 0.  1.
         -5    1    3    3    0  502 -0.10510881460E+03  0.11695644677E+03 -0.57745969101E+02  0.16758090671E+03  0.47000000000E+01 0.  1.
        -11    1    1    2    0    0  0.18534596793E+02  0.18609375831E+02  0.48372005505E+02  0.55042629513E+02  0.00000000000E+00 0.  1.
         11    1    1    2    0    0  0.12266868069E+03 -0.10675460144E+03  0.11500421167E+03  0.19917358975E+03  0.00000000000E+00 0. -1.
<mgrwt>
<rscale>  0 0.20473326E+03</rscale>
<asrwt>0</asrwt>
<pdfrwt beam="1">  1        2 0.44660087E-01 0.20816749E+03</pdfrwt>
<pdfrwt beam="2">  1       -2 0.27439184E-01 0.20816749E+03</pdfrwt>
<totfact> 0.13556507E+03</totfact>
</mgrwt>
</event>
<event>
 7    1  0.4230786E-006  0.1425365E+03  0.7546771E-02  0.1221491E+00
          4   -1    0    0  501    0  0.00000000000E+00  0.00000000000E+00  0.19080841723E+03  0.19080841723E+03  0.00000000000E+00 0. -1.
         -4   -1    0    0    0  501 -0.00000000000E+00 -0.00000000000E+00 -0.87801276721E+02  0.87801276721E+02  0.00000000000E+00 0.  1.
         23    2    1    2    0    0  0.68238544408E+02 -0.58629571625E+01  0.31430550520E+02  0.14596074952E+03  0.12500315070E+03 0.  0.
          5    1    3    3  502    0  0.40845821955E+02  0.50293074059E+02 -0.16558154544E+02  0.67037578651E+02  0.47000000000E+01 0. -1.
         -5    1    3    3    0  502  0.27392722454E+02 -0.56156031222E+02  0.47988705064E+02  0.78923170867E+02  0.47000000000E+01 0. -1.
        -11    1    1    2    0    0 -0.14861198814E+02  0.43747264389E+02  0.30942575826E+02  0.55606846435E+02  0.00000000000E+00 0.  1.
         11    1    1    2    0    0 -0.53377345594E+02 -0.37884307226E+02  0.40634014158E+02  0.77042097994E+02  0.00000000000E+00 0. -1.
<mgrwt>
<rscale>  0 0.13410314E+03</rscale>
<asrwt>0</asrwt>
<pdfrwt beam="1">  1        4 0.29355141E-01 0.14253652E+03</pdfrwt>
<pdfrwt beam="2">  1       -4 0.13507889E-01 0.14253652E+03</pdfrwt>
<totfact> 0.83750727E+02</totfact>
</mgrwt>
</event>
<event>
 7    1  0.4230786E-006  0.1387259E+03  0.7546771E-02  0.1226012E+00
          2   -1    0    0  501    0  0.00000000000E+00  0.00000000000E+00  0.19977048724E+03  0.19977048724E+03  0.00000000000E+00 0. -1.
         -2   -1    0    0    0  501 -0.00000000000E+00 -0.00000000000E+00 -0.81304330804E+02  0.81304330804E+02  0.00000000000E+00 0.  1.
         23    2    1    2    0    0  0.60149803248E+02 -0.82007100768E+00  0.35753672042E+02  0.14325924188E+03  0.12500485579E+03 0.  0.
          5    1    3    3  502    0  0.81499462489E+02  0.32522110258E+02 -0.26324926397E+01  0.87913992396E+02  0.47000000000E+01 0.  1.
         -5    1    3    3    0  502 -0.21349659240E+02 -0.33342181265E+02  0.38386164682E+02  0.55345249482E+02  0.47000000000E+01 0.  1.
        -11    1    1    2    0    0 -0.66199012354E+02 -0.19058401423E+02  0.92101718090E+02  0.11501416598E+03  0.00000000000E+00 0. -1.
         11    1    1    2    0    0  0.60492091062E+01  0.19878472430E+02 -0.93892336955E+01  0.22801410184E+02  0.00000000000E+00 0.  1.
<mgrwt>
<rscale>  0 0.13097796E+03</rscale>
<asrwt>0</asrwt>
<pdfrwt beam="1">  1        2 0.30733921E-01 0.13872594E+03</pdfrwt>
<pdfrwt beam="2">  1       -2 0.12508359E-01 0.13872594E+03</pdfrwt>
<totfact> 0.74924653E+03</totfact>
</mgrwt>
</event>
<event>
 7    1  0.4230786E-006  0.1763982E+03  0.7546771E-02  0.1177258E+00
         -3   -1    0    0    0  501 -0.00000000000E+00  0.00000000000E+00  0.48583179321E+03  0.48583179321E+03  0.00000000000E+00 0.  1.
          3   -1    0    0  501    0  0.00000000000E+00 -0.00000000000E+00 -0.69652058538E+02  0.69652058538E+02  0.00000000000E+00 0. -1.
         23    2    1    2    0    0 -0.11763563881E+03 -0.40598870787E+02  0.34101104853E+03  0.38393341805E+03  0.12501968825E+03 0.  0.
          5    1    3    3  502    0 -0.12837337579E+03 -0.41685550381E+02  0.34579058925E+03  0.37122854192E+03  0.47000000000E+01 0. -1.
         -5    1    3    3    0  502  0.10737736983E+02  0.10866795936E+01 -0.47795407191E+01  0.12704876132E+02  0.47000000000E+01 0. -1.
        -11    1    1    2    0    0  0.21255234655E+02 -0.10617503518E+02 -0.16575130406E+02  0.28969834815E+02  0.00000000000E+00 0. -1.
         11    1    1    2    0    0  0.96380404156E+02  0.51216374305E+02  0.91743816550E+02  0.14258059888E+03  0.00000000000E+00 0.  1.
<mgrwt>
<rscale>  0 0.17056714E+03</rscale>
<asrwt>0</asrwt>
<pdfrwt beam="2">  1        3 0.10715702E-01 0.17639823E+03</pdfrwt>
<pdfrwt beam="1">  1       -3 0.74743350E-01 0.17639823E+03</pdfrwt>
<totfact> 0.27351140E+02</totfact>
</mgrwt>
</event>
<event>
 7    1  0.4230786E-006  0.1481252E+03  0.7546771E-02  0.1212076E+00
          2   -1    0    0  501    0  0.00000000000E+00  0.00000000000E+00  0.19582353369E+03  0.19582353369E+03  0.00000000000E+00 0. -1.
         -2   -1    0    0    0  501 -0.00000000000E+00 -0.00000000000E+00 -0.10302662312E+03  0.10302662312E+03  0.00000000000E+00 0.  1.
         23    2    1    2    0    0 -0.19574491566E+02  0.77020615803E+02  0.35279196628E+01  0.14816722667E+03  0.12500297942E+03 0.  0.
          5    1    3    3  502    0  0.19617754940E+02  0.22993006497E+01  0.48399898235E+02  0.52486029013E+02  0.47000000000E+01 0. -1.
         -5    1    3    3    0  502 -0.39192246507E+02  0.74721315154E+02 -0.44871978573E+02  0.95681197659E+02  0.47000000000E+01 0. -1.
        -11    1    1    2    0    0  0.37951323439E+02 -0.90733811050E+02  0.69792752820E+02  0.12059832405E+03  0.00000000000E+00 0.  1.
         11    1    1    2    0    0 -0.18376831873E+02  0.13713195247E+02  0.19476238086E+02  0.30084606089E+02  0.00000000000E+00 0. -1.
<mgrwt>
<rscale>  0 0.14093558E+03</rscale>
<asrwt>0</asrwt>
<pdfrwt beam="1">  1        2 0.30126698E-01 0.14812522E+03</pdfrwt>
<pdfrwt beam="2">  1       -2 0.15850250E-01 0.14812522E+03</pdfrwt>
<totfact> 0.52328093E+03</totfact>
</mgrwt>
</event>
<event>
 7    1  0.4230786E-006  0.1287409E+03  0.7546771E-02  0.1246326E+00
         -1   -1    0    0    0  501 -0.00000000000E+00  0.00000000000E+00  0.89019930253E+02  0.89019930253E+02  0.00000000000E+00 0.  1.
          1   -1    0    0  501    0  0.00000000000E+00 -0.00000000000E+00 -0.15402025046E+03  0.15402025046E+03  0.00000000000E+00 0. -1.
         23    2    1    2    0    0  0.15987987790E+02  0.26327276628E+02  0.39837297852E+01  0.12880254100E+03  0.12500193285E+03 0.  0.
          5    1    3    3  502    0  0.60795661770E+02 -0.19932952784E+02  0.29474687128E+01  0.64220033233E+02  0.47000000000E+01 0. -1.
         -5    1    3    3    0  502 -0.44807673979E+02  0.46260229412E+02  0.10362610725E+01  0.64582507769E+02  0.47000000000E+01 0. -1.
        -11    1    1    2    0    0 -0.37233336897E+02 -0.94967609520E+00  0.52735593980E+00  0.37249179393E+02  0.00000000000E+00 0.  1.
         11    1    1    2    0    0  0.21245349107E+02 -0.25377600533E+02 -0.69511405934E+02  0.76988460320E+02  0.00000000000E+00 0. -1.
<mgrwt>
<rscale>  0 0.11806365E+03</rscale>
<asrwt>0</asrwt>
<pdfrwt beam="2">  1        1 0.23695423E-01 0.12874092E+03</pdfrwt>
<pdfrwt beam="1">  1       -1 0.13695374E-01 0.12874092E+03</pdfrwt>
<totfact> 0.71927088E+03</totfact>
</mgrwt>
</event>
<event>
 7    1  0.4230786E-006  0.1641326E+03  0.7546771E-02  0.1190821E+00
         -1   -1    0    0    0  501 -0.00000000000E+00  0.00000000000E+00  0.32319394015E+03  0.32319394015E+03  0.00000000000E+00 0.  1.
          1   -1    0    0  501    0  0.00000000000E+00 -0.00000000000E+00 -0.77477755972E+02  0.77477755972E+02  0.00000000000E+00 0. -1.
         23    2    1    2    0    0  0.82914192517E+02  0.66630534037E+02  0.18343631334E+03  0.24614708435E+03  0.12500045878E+03 0.  0.
          5    1    3    3  502    0  0.22839917192E+02  0.11687459964E+02  0.15884719163E+03  0.16097446639E+03  0.47000000000E+01 0. -1.
         -5    1    3    3    0  502  0.60074275324E+02  0.54943074073E+02  0.24589121701E+02  0.85172617961E+02  0.47000000000E+01 0. -1.
        -11    1    1    2    0    0 -0.28289838737E+02 -0.32635789482E+02  0.77216545202E+02  0.88474881090E+02  0.00000000000E+00 0.  1.
         11    1    1    2    0    0 -0.54624353780E+02 -0.33994744555E+02 -0.14936674357E+02  0.66049730689E+02  0.00000000000E+00 0. -1.
<mgrwt>
<rscale>  0 0.15813294E+03</rscale>
<asrwt>0</asrwt>
<pdfrwt beam="2">  1        1 0.11919655E-01 0.16413259E+03</pdfrwt>
<pdfrwt beam="1">  1       -1 0.49722144E-01 0.16413259E+03</pdfrwt>
<totfact> 0.20593732E+03</totfact>
</mgrwt>
</event>
<event>
 7    1  0.4230786E-006  0.1512064E+03  0.7546771E-02  0.1207915E+00
          1   -1    0    0  501    0  0.00000000000E+00  0.00000000000E+00  0.51809388416E+03  0.51809388416E+03  0.00000000000E+00 0. -1.
         -1   -1    0    0    0  501 -0.00000000000E+00 -0.00000000000E+00 -0.36813324334E+02  0.36813324334E+02  0.00000000000E+00 0.  1.
         23    2    1    2    0    0  0.26217932766E+02  0.80939726242E+02  0.25135397203E+03  0.29332950111E+03  0.12499903071E+03 0.  0.
          5    1    3    3  502    0  0.64901609941E+02  0.67654643511E+02  0.22664131723E+03  0.24531152936E+03  0.47000000000E+01 0.  1.
         -5    1    3    3    0  502 -0.38683677174E+02  0.13285082731E+02  0.24712654804E+02  0.48017971743E+02  0.47000000000E+01 0.  1.
        -11    1    1    2    0    0 -0.10296522303E+02 -0.16908567216E+01 -0.61046378062E+01  0.12089002057E+02  0.00000000000E+00 0.  1.
         11    1    1    2    0    0 -0.15921410463E+02 -0.79248869520E+02  0.23603122560E+03  0.24948870533E+03  0.00000000000E+00 0. -1.
<mgrwt>
<rscale>  0 0.14410107E+03</rscale>
<asrwt>0</asrwt>
<pdfrwt beam="1">  1        1 0.79706746E-01 0.15120641E+03</pdfrwt>
<pdfrwt beam="2">  1       -1 0.56635887E-02 0.15120641E+03</pdfrwt>
<totfact> 0.60703868E+03</totfact>
</mgrwt>
</event>
<event>
 7    1  0.4230786E-006  0.1564154E+03  0.7546771E-02  0.1199745E+00
          4   -1    0    0  501    0  0.00000000000E+00  0.00000000000E+00  0.94531231989E+02  0.94531231989E+02  0.00000000000E+00 0.  1.
         -4   -1    0    0    0  501 -0.00000000000E+00 -0.00000000000E+00 -0.22742192436E+03  0.22742192436E+03  0.00000000000E+00 0. -1.
         23    2    1    2    0    0 -0.68461317848E+01  0.93778136595E+02 -0.92034987413E+02  0.18148341239E+03  0.12499832656E+03 0.  0.
          5    1    3    3  502    0 -0.22928587031E+02  0.10468714332E+03 -0.11068803844E+03  0.15413970915E+03  0.47000000000E+01 0. -1.
         -5    1    3    3    0  502  0.16082455246E+02 -0.10909006730E+02  0.18653051031E+02  0.27343703249E+02  0.47000000000E+01 0. -1.
        -11    1    1    2    0    0  0.28028179939E+01 -0.12062052424E+02  0.29861458237E+02  0.32327319491E+02  0.00000000000E+00 0.  1.
         11    1    1    2    0    0  0.40433137908E+01 -0.81716084170E+02 -0.70717163192E+02  0.10814242446E+03  0.00000000000E+00 0. -1.
<mgrwt>
<rscale>  0 0.15059381E+03</rscale>
<asrwt>0</asrwt>
<pdfrwt beam="1">  1        4 0.14543267E-01 0.15641544E+03</pdfrwt>
<pdfrwt beam="2">  1       -4 0.34987988E-01 0.15641544E+03</pdfrwt>
<totfact> 0.53633062E+02</totfact>
</mgrwt>
</event>
<event>
 7    1  0.4230786E-006  0.2055771E+03  0.7546771E-02  0.1149001E+00
         -3   -1    0    0    0  501 -0.00000000000E+00  0.00000000000E+00  0.51530877043E+03  0.51530877043E+03  0.00000000000E+00 0.  1.
          3   -1    0    0  501    0  0.00000000000E+00 -0.00000000000E+00 -0.91083688293E+02  0.91083688293E+02  0.00000000000E+00 0. -1.
         23    2    1    2    0    0  0.15973876551E+03 -0.33469851124E+02  0.34776590330E+03  0.40398401620E+03  0.12500103083E+03 0.  0.
          5    1    3    3  502    0  0.16940210804E+03 -0.51728492974E+02  0.26668589400E+03  0.32018177220E+03  0.47000000000E+01 0. -1.
         -5    1    3    3    0  502 -0.96633425301E+01  0.18258641850E+02  0.81080009302E+02  0.83802244001E+02  0.47000000000E+01 0. -1.
        -11    1    1    2    0    0 -0.29093406516E+02  0.46696583055E+02  0.12844639480E+02  0.56497627695E+02  0.00000000000E+00 0.  1.
         11    1    1    2    0    0 -0.13064535899E+03 -0.13226731931E+02  0.63614539352E+02  0.14591081482E+03  0.00000000000E+00 0. -1.
<mgrwt>
<rscale>  0 0.20087706E+03</rscale>
<asrwt>0</asrwt>
<pdfrwt beam="2">  1        3 0.14012875E-01 0.20557714E+03</pdfrwt>
<pdfrwt beam="1">  1       -3 0.79278271E-01 0.20557714E+03</pdfrwt>
<totfact> 0.15537560E+02</totfact>
</mgrwt>
</event>
<event>
 7    1  0.4230786E-006  0.1251093E+03  0.7546771E-02  0.1259021E+00
         -1   -1    0    0    0  501 -0.00000000000E+00  0.00000000000E+00  0.26102805586E+03  0.26102805586E+03  0.00000000000E+00 0.  1.
          1   -1    0    0  501    0  0.00000000000E+00 -0.00000000000E+00 -0.49189400443E+02  0.49189400443E+02  0.00000000000E+00 0. -1.
         23    2    1    2    0    0  0.34847539840E+01  0.37721024865E+01  0.19441979035E+03  0.23119554379E+03  0.12500380924E+03 0.  0.
          5    1    3    3  502    0  0.46776847011E+02  0.29910316576E+01  0.19583186204E+02  0.51015790385E+02  0.47000000000E+01 0. -1.
         -5    1    3    3    0  502 -0.43292093027E+02  0.78107082885E+00  0.17483660414E+03  0.18017975341E+03  0.47000000000E+01 0. -1.
        -11    1    1    2    0    0  0.17804625718E+02  0.28749368448E+02 -0.49475890955E+01  0.34176154275E+02  0.00000000000E+00 0. -1.
         11    1    1    2    0    0 -0.21289379702E+02 -0.32521470935E+02  0.22366454168E+02  0.44845758238E+02  0.00000000000E+00 0.  1.
<mgrwt>
<rscale>  0 0.11084087E+03</rscale>
<asrwt>0</asrwt>
<pdfrwt beam="2">  1        1 0.75676003E-02 0.12510925E+03</pdfrwt>
<pdfrwt beam="1">  1       -1 0.40158161E-01 0.12510925E+03</pdfrwt>
<totfact> 0.54448618E+03</totfact>
</mgrwt>
</event>
<event>
 7    1  0.4230786E-006  0.1289589E+03  0.7546771E-02  0.1240494E+00
          2   -1    0    0  501    0  0.00000000000E+00  0.00000000000E+00  0.73092274186E+02  0.73092274186E+02  0.00000000000E+00 0. -1.
         -2   -1    0    0    0  501 -0.00000000000E+00 -0.00000000000E+00 -0.18267364710E+03  0.18267364710E+03  0.00000000000E+00 0.  1.
         23    2    1    2    0    0  0.29457174144E+02  0.11714644803E+02 -0.66760647347E+02  0.14521493306E+03  0.12500173893E+03 0.  0.
          5    1    3    3  502    0  0.32454071250E+02  0.44133798998E+02  0.15077638348E+02  0.57013017223E+02  0.47000000000E+01 0.  1.
         -5    1    3    3    0  502 -0.29968971063E+01 -0.32419154194E+02 -0.81838285695E+02  0.88201915832E+02  0.47000000000E+01 0.  1.
        -11    1    1    2    0    0  0.35857162146E+01  0.19280070527E+02  0.23264723575E+02  0.30427386403E+02  0.00000000000E+00 0. -1.
         11    1    1    2    0    0 -0.33042890358E+02 -0.30994715331E+02 -0.66085449140E+02  0.80123601826E+02  0.00000000000E+00 0.  1.
<mgrwt>
<rscale>  0 0.12159184E+03</rscale>
<asrwt>0</asrwt>
<pdfrwt beam="1">  1        2 0.11244965E-01 0.12895888E+03</pdfrwt>
<pdfrwt beam="2">  1       -2 0.28103638E-01 0.12895888E+03</pdfrwt>
<totfact> 0.60226953E+03</totfact>
</mgrwt>
</event>
<event>
 7    1  0.4230786E-006  0.1344402E+03  0.7546771E-02  0.1233666E+00
         -1   -1    0    0    0  501 -0.00000000000E+00  0.00000000000E+00  0.45409757127E+02  0.45409757127E+02  0.00000000000E+00 0.  1.
          1   -1    0    0  501    0  0.00000000000E+00 -0.00000000000E+00 -0.51102727341E+03  0.51102727341E+03  0.00000000000E+00 0. -1.
         23    2    1    2    0    0 -0.44215145512E+02  0.22243357943E+02 -0.78356537212E+02  0.15560821603E+03  0.12499769561E+03 0.  0.
          5    1    3    3  502    0 -0.74364149388E+02 -0.78668482450E+01 -0.83781536864E+02  0.11239817585E+03  0.47000000000E+01 0. -1.
         -5    1    3    3    0  502  0.30149003876E+02  0.30110206188E+02  0.54249996522E+01  0.43210040183E+02  0.47000000000E+01 0. -1.
        -11    1    1    2    0    0  0.29400547228E+02  0.33762167330E+02 -0.19231475177E+03  0.19745693168E+03  0.00000000000E+00 0.  1.
         11    1    1    2    0    0  0.14814598284E+02 -0.56005525273E+02 -0.19494622731E+03  0.20337188283E+03  0.00000000000E+00 0. -1.
<mgrwt>
<rscale>  0 0.12590201E+03</rscale>
<asrwt>0</asrwt>
<pdfrwt beam="2">  1        1 0.78619584E-01 0.13444021E+03</pdfrwt>
<pdfrwt beam="1">  1       -1 0.69861162E-02 0.13444021E+03</pdfrwt>
<totfact> 0.44897887E+03</totfact>
</mgrwt>
</event>
<event>
 7    1  0.4230786E-006  0.1835174E+03  0.7546771E-02  0.1169813E+00
         -2   -1    0    0    0  501 -0.00000000000E+00  0.00000000000E+00  0.42214077311E+02  0.42214077311E+02  0.00000000000E+00 0.  1.
          2   -1    0    0  501    0  0.00000000000E+00 -0.00000000000E+00 -0.75279601859E+03  0.75279601859E+03  0.00000000000E+00 0. -1.
         23    2    1    2    0    0  0.11959231307E+03 -0.61242233101E+02 -0.27890620272E+03  0.33386718371E+03  0.12500277590E+03 0.  0.
          5    1    3    3  502    0  0.13362599492E+03 -0.41471427760E+02 -0.27537925848E+03  0.30892007355E+03  0.47000000000E+01 0. -1.
         -5    1    3    3    0  502 -0.14033681848E+02 -0.19770805340E+02 -0.35269442412E+01  0.24947110167E+02  0.47000000000E+01 0. -1.
        -11    1    1    2    0    0 -0.58717730423E+02  0.49045580931E+02 -0.11291847341E+03  0.13639583026E+03  0.00000000000E+00 0.  1.
         11    1    1    2    0    0 -0.60874582649E+02  0.12196652170E+02 -0.31875726514E+03  0.32474708192E+03  0.00000000000E+00 0. -1.
<mgrwt>
<rscale>  0 0.17793878E+03</rscale>
<asrwt>0</asrwt>
<pdfrwt beam="2">  1        2 0.11581476E+00 0.18351737E+03</pdfrwt>
<pdfrwt beam="1">  1       -2 0.64944742E-02 0.18351737E+03</pdfrwt>
<totfact> 0.49331644E+03</totfact>
</mgrwt>
</event>
<event>
 7    1  0.4230786E-006  0.2015747E+03  0.7546771E-02  0.1152756E+00
         -1   -1    0    0    0  501 -0.00000000000E+00  0.00000000000E+00  0.88561998912E+02  0.88561998912E+02  0.00000000000E+00 0.  1.
          1   -1    0    0  501    0  0.00000000000E+00 -0.00000000000E+00 -0.42532284911E+03  0.42532284911E+03  0.00000000000E+00 0. -1.
         23    2    1    2    0    0  0.68681488864E+02 -0.14244393951E+03 -0.13705996403E+03  0.24375768582E+03  0.12499981136E+03 0.  0.
          5    1    3    3  502    0  0.18147024064E+01 -0.11250583277E+03 -0.12686468036E+03  0.16963959642E+03  0.47000000000E+01 0.  1.
         -5    1    3    3    0  502  0.66866786457E+02 -0.29938106740E+02 -0.10195283666E+02  0.74118089393E+02  0.47000000000E+01 0.  1.
        -11    1    1    2    0    0 -0.15768943173E+02  0.81692164139E+02 -0.15993968930E+03  0.18028581049E+03  0.00000000000E+00 0. -1.
         11    1    1    2    0    0 -0.52912545691E+02  0.60751775367E+02 -0.39761196871E+02  0.89841351717E+02  0.00000000000E+00 0.  1.
<mgrwt>
<rscale>  0 0.19646550E+03</rscale>
<asrwt>0</asrwt>
<pdfrwt beam="2">  1        1 0.65434284E-01 0.20157474E+03</pdfrwt>
<pdfrwt beam="1">  1       -1 0.13624923E-01 0.20157474E+03</pdfrwt>
<totfact> 0.20771305E+03</totfact>
</mgrwt>
</event>
<event>
 7    1  0.4230786E-006  0.1291426E+03  0.7546771E-02  0.1242362E+00
          1   -1    0    0  501    0  0.00000000000E+00  0.00000000000E+00  0.11593914932E+04  0.11593914932E+04  0.00000000000E+00 0. -1.
         -1   -1    0    0    0  501 -0.00000000000E+00 -0.00000000000E+00 -0.11101788593E+02  0.11101788593E+02  0.00000000000E+00 0.  1.
         23    2    1    2    0    0  0.32470517741E+02 -0.12648202426E-01  0.66512659665E+03  0.67754792731E+03  0.12499387804E+03 0.  0.
          5    1    3    3  502    0  0.95759497401E+01 -0.26007705114E+02  0.61916667950E+03  0.61980445831E+03  0.47000000000E+01 0.  1.
         -5    1    3    3    0  502  0.22894568001E+02  0.25995056912E+02  0.45959917158E+02  0.57743469007E+02  0.47000000000E+01 0.  1.
        -11    1    1    2    0    0 -0.64402960544E+02 -0.55707516640E+01  0.34764082753E+03  0.35359994283E+03  0.00000000000E+00 0.  1.
         11    1    1    2    0    0  0.31932442803E+02  0.55833998664E+01  0.13552228038E+03  0.13934541161E+03  0.00000000000E+00 0. -1.
<mgrwt>
<rscale>  0 0.12044649E+03</rscale>
<asrwt>0</asrwt>
<pdfrwt beam="1">  1        1 0.17836783E+00 0.12914257E+03</pdfrwt>
<pdfrwt beam="2">  1       -1 0.17079684E-02 0.12914257E+03</pdfrwt>
<totfact> 0.10191308E+04</totfact>
</mgrwt>
</event>
<event>
 7    1  0.4230786E-006  0.1859236E+03  0.7546771E-02  0.1167319E+00
          2   -1    0    0  501    0  0.00000000000E+00  0.00000000000E+00  0.15394310011E+03  0.15394310011E+03  0.00000000000E+00 0. -1.
         -2   -1    0    0    0  501 -0.00000000000E+00 -0.00000000000E+00 -0.20437740109E+03  0.20437740109E+03  0.00000000000E+00 0.  1.
         23    2    1    2    0    0  0.42057898382E+02 -0.13104684906E+03 -0.52321581146E+02  0.19314533921E+03  0.12500172296E+03 0.  0.
          5    1    3    3  502    0 -0.29268668947E+01  0.11841664512E+02 -0.40781778379E+02  0.42825635034E+02  0.47000000000E+01 0. -1.
         -5    1    3    3    0  502  0.44984765277E+02 -0.14288851357E+03 -0.11539802767E+02  0.15031970418E+03  0.47000000000E+01 0. -1.
        -11    1    1    2    0    0 -0.60045161745E+02  0.12191573187E+03  0.20848844570E+02  0.13749015036E+03  0.00000000000E+00 0. -1.
         11    1    1    2    0    0  0.17987263363E+02  0.91311171903E+01 -0.18961564402E+02  0.27685011631E+02  0.00000000000E+00 0.  1.
<mgrwt>
<rscale>  0 0.18050113E+03</rscale>
<asrwt>0</asrwt>
<pdfrwt beam="1">  1        2 0.23683554E-01 0.18592357E+03</pdfrwt>
<pdfrwt beam="2">  1       -2 0.31442677E-01 0.18592357E+03</pdfrwt>
<totfact> 0.21108440E+03</totfact>
</mgrwt>
</event>
<event>
 7    1  0.4230786E-006  0.1308085E+03  0.7546771E-02  0.1240218E+00
          1   -1    0    0  501    0  0.00000000000E+00  0.00000000000E+00  0.94937038249E+03  0.94937038249E+03  0.00000000000E+00 0. -1.
         -1   -1    0    0    0  501 -0.00000000000E+00 -0.00000000000E+00 -0.13961725568E+02  0.13961725568E+02  0.00000000000E+00 0.  1.
         23    2    1    2    0    0  0.22929535525E+02 -0.31184557470E+02  0.48405918081E+03  0.50142212413E+03  0.12495045343E+03 0.  0.
          5    1    3    3  502    0  0.53509595771E+02 -0.33507687840E+02  0.45341541299E+03  0.45781401106E+03  0.47000000000E+01 0.  1.
         -5    1    3    3    0  502 -0.30580060246E+02  0.23231303694E+01  0.30643767824E+02  0.43608113073E+02  0.47000000000E+01 0.  1.
        -11    1    1    2    0    0  0.34658380385E+02  0.17761612569E+02  0.19098202048E+03  0.19491231454E+03  0.00000000000E+00 0. -1.
         11    1    1    2    0    0 -0.57587915910E+02  0.13422944901E+02  0.26036745563E+03  0.26699766939E+03  0.00000000000E+00 0.  1.
<mgrwt>
<rscale>  0 0.12176200E+03</rscale>
<asrwt>0</asrwt>
<pdfrwt beam="1">  1        1 0.14605693E+00 0.13080847E+03</pdfrwt>
<pdfrwt beam="2">  1       -1 0.21479585E-02 0.13080847E+03</pdfrwt>
<totfact> 0.10367619E+04</totfact>
</mgrwt>
</event>
<event>
 7    1  0.4230786E-006  0.1564610E+03  0.7546771E-02  0.1200911E+00
          2   -1    0    0  501    0  0.00000000000E+00  0.00000000000E+00  0.63285771168E+02  0.63285771168E+02  0.00000000000E+00 0. -1.
         -2   -1    0    0    0  501 -0.00000000000E+00 -0.00000000000E+00 -0.34213799511E+03  0.34213799511E+03  0.00000000000E+00 0.  1.
         23    2    1    2    0    0  0.35679103378E+02  0.87075125838E+02 -0.19474378194E+03  0.24981027926E+03  0.12499983625E+03 0.  0.
          5    1    3    3  502    0 -0.21730166933E+01  0.44530401701E+02  0.20616661803E+01  0.44877824642E+02  0.47000000000E+01 0. -1.
         -5    1    3    3    0  502  0.37852120071E+02  0.42544724137E+02 -0.19680544812E+03  0.20493245461E+03  0.47000000000E+01 0. -1.
        -11    1    1    2    0    0 -0.14756300158E+02 -0.90254058914E+02 -0.27994063709E+02  0.95641053673E+02  0.00000000000E+00 0. -1.
         11    1    1    2    0    0 -0.20922803220E+02  0.31789330755E+01 -0.56114378293E+02  0.59972433345E+02  0.00000000000E+00 0.  1.
<mgrwt>
<rscale>  0 0.14964426E+03</rscale>
<asrwt>0</asrwt>
<pdfrwt beam="1">  1        2 0.97362725E-02 0.15646097E+03</pdfrwt>
<pdfrwt beam="2">  1       -2 0.52636615E-01 0.15646097E+03</pdfrwt>
<totfact> 0.22293889E+03</totfact>
</mgrwt>
</event>
<event>
 7    1  0.4230786E-006  0.1514567E+03  0.7546771E-02  0.1207567E+00
         -1   -1    0    0    0  501 -0.00000000000E+00  0.00000000000E+00  0.14039052095E+03  0.14039052095E+03  0.00000000000E+00 0.  1.
          1   -1    0    0  501    0  0.00000000000E+00 -0.00000000000E+00 -0.14097541397E+03  0.14097541397E+03  0.00000000000E+00 0. -1.
         23    2    1    2    0    0 -0.64357203875E+02  0.56319253518E+02  0.25632562077E+02  0.15361039855E+03  0.12500167318E+03 0.  0.
          5    1    3    3  502    0  0.34069459962E+02  0.37956459661E+02  0.89681500274E+01  0.51999410064E+02  0.47000000000E+01 0. -1.
         -5    1    3    3    0  502 -0.98426663836E+02  0.18362793857E+02  0.16664412049E+02  0.10161098849E+03  0.47000000000E+01 0. -1.
        -11    1    1    2    0    0  0.40737698833E+02  0.34424621127E+01 -0.45008550380E+02  0.60804442756E+02  0.00000000000E+00 0. -1.
         11    1    1    2    0    0  0.23619505042E+02 -0.59761715630E+02  0.18791095282E+02  0.66951093609E+02  0.00000000000E+00 0.  1.
<mgrwt>
<rscale>  0 0.14436952E+03</rscale>
<asrwt>0</asrwt>
<pdfrwt beam="2">  1        1 0.21688525E-01 0.15145668E+03</pdfrwt>
<pdfrwt beam="1">  1       -1 0.21598542E-01 0.15145668E+03</pdfrwt>
<totfact> 0.39447017E+03</totfact>
</mgrwt>
</event>
<event>
 6    1  0.4230786E-006  0.2410225E+03  0.7546771E-02  0.1142793E+00
         -2   -1    0    0    0  501 -0.00000000000E+00  0.00000000000E+00  0.15580047576E+03  0.15580047576E+03  0.00000000000E+00 0.  1.
          2   -1    0    0  501    0  0.00000000000E+00 -0.00000000000E+00 -0.24565745909E+03  0.24565745909E+03  0.00000000000E+00 0. -1.
          5    1    1    2  502    0 -0.11750133314E+01  0.38865522617E+02 -0.11229881237E+03  0.11893284981E+03  0.47000000000E+01 0. -1.
         -5    1    1    2    0  502 -0.33546454369E+02 -0.42606716961E+02  0.10930525680E+03  0.12210825564E+03  0.47000000000E+01 0.  1.
        -11    1    1    2    0    0 -0.47043687414E+01  0.45586545111E+02 -0.91910857467E+02  0.10270282324E+03  0.00000000000E+00 0. -1.
         11    1    1    2    0    0  0.39425836442E+02 -0.41845350766E+02  0.50474297029E+01  0.57714006155E+02  0.00000000000E+00 0.  1.
<mgrwt>
<rscale>  0 0.20845736E+03</rscale>
<asrwt>0</asrwt>
<pdfrwt beam="2">  1        2 0.37793456E-01 0.24102252E+03</pdfrwt>
<pdfrwt beam="1">  1       -2 0.23969304E-01 0.24102252E+03</pdfrwt>
<totfact> 0.20700843E+03</totfact>
</mgrwt>
</event>
<event>
 7    1  0.4230786E-006  0.1350559E+03  0.7546771E-02  0.1232356E+00
          1   -1    0    0  501    0  0.00000000000E+00  0.00000000000E+00  0.17654819691E+03  0.17654819691E+03  0.00000000000E+00 0. -1.
         -1   -1    0    0    0  501 -0.00000000000E+00 -0.00000000000E+00 -0.81903381943E+02  0.81903381943E+02  0.00000000000E+00 0.  1.
         23    2    1    2    0    0 -0.37840612228E+02 -0.34396638565E+02  0.43753787586E+02  0.14196650901E+03  0.12500022030E+03 0.  0.
          5    1    3    3  502    0 -0.33893097634E+02  0.20546439404E+02  0.70145329089E+02  0.80705361856E+02  0.47000000000E+01 0.  1.
         -5    1    3    3    0  502 -0.39475145941E+01 -0.54943077969E+02 -0.26391541503E+02  0.61261147157E+02  0.47000000000E+01 0.  1.
        -11    1    1    2    0    0  0.31100861039E+02 -0.28102902594E+02  0.20084113641E+02  0.46480192688E+02  0.00000000000E+00 0. -1.
         11    1    1    2    0    0  0.67397511886E+01  0.62499541159E+02  0.30806913744E+02  0.70004877155E+02  0.00000000000E+00 0.  1.
<mgrwt>
<rscale>  0 0.12675202E+03</rscale>
<asrwt>0</asrwt>
<pdfrwt beam="1">  1        1 0.27161261E-01 0.13505590E+03</pdfrwt>
<pdfrwt beam="2">  1       -1 0.12600520E-01 0.13505590E+03</pdfrwt>
<totfact> 0.69215702E+03</totfact>
</mgrwt>
</event>
<event>
 7    1  0.4230786E-006  0.1608628E+03  0.7546771E-02  0.1194707E+00
         -2   -1    0    0    0  501 -0.00000000000E+00  0.00000000000E+00  0.30336039925E+02  0.30336039925E+02  0.00000000000E+00 0.  1.
          2   -1    0    0  501    0  0.00000000000E+00 -0.00000000000E+00 -0.81911205588E+03  0.81911205588E+03  0.00000000000E+00 0. -1.
         23    2    1    2    0    0  0.98493707119E+02  0.23471409509E+02 -0.28638648633E+03  0.32847231178E+03  0.12499969058E+03 0.  0.
          5    1    3    3  502    0  0.85273301511E+02 -0.39469215872E+02 -0.19633503779E+03  0.21771286599E+03  0.47000000000E+01 0.  1.
         -5    1    3    3    0  502  0.13220405609E+02  0.62940625381E+02 -0.90051448542E+02  0.11075944579E+03  0.47000000000E+01 0.  1.
        -11    1    1    2    0    0 -0.94872864338E+01  0.30821877693E+02 -0.89721790188E+02  0.95341472523E+02  0.00000000000E+00 0. -1.
         11    1    1    2    0    0 -0.89006420686E+02 -0.54293287202E+02 -0.41266773944E+03  0.42563431151E+03  0.00000000000E+00 0.  1.
<mgrwt>
<rscale>  0 0.15479058E+03</rscale>
<asrwt>0</asrwt>
<pdfrwt beam="2">  1        2 0.12601723E+00 0.16086280E+03</pdfrwt>
<pdfrwt beam="1">  1       -2 0.46670835E-02 0.16086280E+03</pdfrwt>
<totfact> 0.72908310E+03</totfact>
</mgrwt>
</event>
<event>
 7    1  0.4230786E-006  0.1293996E+03  0.7546771E-02  0.1237048E+00
          2   -1    0    0  501    0  0.00000000000E+00  0.00000000000E+00  0.42232523772E+02  0.42232523772E+02  0.00000000000E+00 0. -1.
         -2   -1    0    0    0  501 -0.00000000000E+00 -0.00000000000E+00 -0.45354136690E+03  0.45354136690E+03  0.00000000000E+00 0.  1.
         23    2    1    2    0    0 -0.20407098338E+02 -0.54004135824E+02 -0.34594135367E+03  0.36935035216E+03  0.11580745275E+03 0.  0.
          5    1    3    3  502    0 -0.41523577446E+02  0.18767167111E+02 -0.74187117615E+02  0.87190781997E+02  0.47000000000E+01 0. -1.
         -5    1    3    3    0  502  0.21116479108E+02 -0.72771302934E+02 -0.27175423606E+03  0.28215957017E+03  0.47000000000E+01 0.  1.
        -11    1    1    2    0    0  0.47754385555E+02  0.30263859724E+01 -0.16248733353E+02  0.50533767793E+02  0.00000000000E+00 0.  1.
         11    1    1    2    0    0 -0.27347287217E+02  0.50977749851E+02 -0.49118756100E+02  0.75889770713E+02  0.00000000000E+00 0. -1.
<mgrwt>
<rscale>  0 0.12374264E+03</rscale>
<asrwt>0</asrwt>
<pdfrwt beam="1">  1        2 0.64973118E-02 0.12939962E+03</pdfrwt>
<pdfrwt beam="2">  1       -2 0.69775590E-01 0.12939962E+03</pdfrwt>
<totfact> 0.20520856E+03</totfact>
</mgrwt>
</event>
<event>
 7    1  0.4230786E-006  0.1336845E+03  0.7546771E-02  0.1233601E+00
          1   -1    0    0  501    0  0.00000000000E+00  0.00000000000E+00  0.12840765271E+03  0.12840765271E+03  0.00000000000E+00 0. -1.
         -1   -1    0    0    0  501 -0.00000000000E+00 -0.00000000000E+00 -0.12760600604E+03  0.12760600604E+03  0.00000000000E+00 0.  1.
         23    2    1    2    0    0 -0.69057042051E+01 -0.46901594983E+02 -0.45166410865E+02  0.14110827361E+03  0.12499636734E+03 0.  0.
          5    1    3    3  502    0  0.46397188708E+02  0.16613533820E+02 -0.25817609534E+02  0.55833212231E+02  0.47000000000E+01 0.  1.
         -5    1    3    3    0  502 -0.53302892913E+02 -0.63515128803E+02 -0.19348801331E+02  0.85275061376E+02  0.47000000000E+01 0.  1.
        -11    1    1    2    0    0  0.72705003201E+01  0.21572953215E+02 -0.28367303800E+02  0.36372467749E+02  0.00000000000E+00 0.  1.
         11    1    1    2    0    0 -0.36479611496E+00  0.25328641768E+02  0.74335361333E+02  0.78532917395E+02  0.00000000000E+00 0. -1.
<mgrwt>
<rscale>  0 0.12594418E+03</rscale>
<asrwt>0</asrwt>
<pdfrwt beam="1">  1        1 0.19755024E-01 0.13368448E+03</pdfrwt>
<pdfrwt beam="2">  1       -1 0.19631693E-01 0.13368448E+03</pdfrwt>
<totfact> 0.51430233E+03</totfact>
</mgrwt>
</event>
<event>
 7    1  0.4230786E-006  0.1455986E+03  0.7546771E-02  0.1216993E+00
         -1   -1    0    0    0  501 -0.00000000000E+00  0.00000000000E+00  0.60288565397E+02  0.60288565397E+02  0.00000000000E+00 0.  1.
          1   -1    0    0  501    0  0.00000000000E+00 -0.00000000000E+00 -0.29211064012E+03  0.29211064012E+03  0.00000000000E+00 0. -1.
         23    2    1    2    0    0  0.60168114435E+02  0.44208787890E+02 -0.96383499965E+02  0.17461021827E+03  0.12499732132E+03 0.  0.
          5    1    3    3  502    0 -0.12984011706E+02 -0.31251596932E+02 -0.47738966242E+02  0.58705585498E+02  0.47000000000E+01 0.  1.
         -5    1    3    3    0  502  0.73152126142E+02  0.75460384822E+02 -0.48644533723E+02  0.11590463277E+03  0.47000000000E+01 0.  1.
        -11    1    1    2    0    0 -0.77462881605E+02 -0.29720860147E+02 -0.69943350943E+02  0.10851681849E+03  0.00000000000E+00 0. -1.
         11    1    1    2    0    0  0.17294767169E+02 -0.14487927743E+02 -0.65495223812E+02  0.69272168754E+02  0.00000000000E+00 0.  1.
<mgrwt>
<rscale>  0 0.13731171E+03</rscale>
<asrwt>0</asrwt>
<pdfrwt beam="2">  1        1 0.44940100E-01 0.14559859E+03</pdfrwt>
<pdfrwt beam="1">  1       -1 0.92751636E-02 0.14559859E+03</pdfrwt>
<totfact> 0.59583047E+03</totfact>
</mgrwt>
</event>
<event>
 6    1  0.4230786E-006  0.3222967E+03  0.7546771E-02  0.1099080E+00
         -2   -1    0    0    0  501 -0.00000000000E+00  0.00000000000E+00  0.65941877872E+02  0.65941877872E+02  0.00000000000E+00 0.  1.
          2   -1    0    0  501    0  0.00000000000E+00 -0.00000000000E+00 -0.10142060937E+04  0.10142060937E+04  0.00000000000E+00 0. -1.
          5    1    1    2  502    0  0.22706824177E+02  0.41056179686E+01 -0.39458080393E+03  0.39528288199E+03  0.47000000000E+01 0. -1.
         -5    1    1    2    0  502 -0.75653246415E+02  0.12395072944E+03 -0.49631174276E+02  0.15353351582E+03  0.47000000000E+01 0.  1.
        -11    1    1    2    0    0  0.44795728366E+02 -0.62610630527E+01 -0.11484440301E+03  0.12343052739E+03  0.00000000000E+00 0. -1.
         11    1    1    2    0    0  0.81506938724E+01 -0.12179528435E+03 -0.38920783460E+03  0.40790104635E+03  0.00000000000E+00 0.  1.
<mgrwt>
<rscale>  0 0.27387903E+03</rscale>
<asrwt>0</asrwt>
<pdfrwt beam="2">  1        2 0.15603172E+00 0.32229669E+03</pdfrwt>
<pdfrwt beam="1">  1       -2 0.10144904E-01 0.32229669E+03</pdfrwt>
<totfact> 0.16683558E+03</totfact>
</mgrwt>
</event>
<event>
 7    1  0.4230786E-006  0.1588372E+03  0.7546771E-02  0.1197764E+00
         -2   -1    0    0    0  501 -0.00000000000E+00  0.00000000000E+00  0.33059637130E+03  0.33059637130E+03  0.00000000000E+00 0.  1.
          2   -1    0    0  501    0  0.00000000000E+00 -0.00000000000E+00 -0.76825745207E+02  0.76825745207E+02  0.00000000000E+00 0. -1.
         23    2    1    2    0    0 -0.68243981977E+02  0.70317759651E+02  0.21616577719E+03  0.26824781438E+03  0.12500967280E+03 0.  0.
          5    1    3    3  502    0 -0.59479438350E+02  0.75010965045E+02  0.23081851477E+03  0.24992743992E+03  0.47000000000E+01 0. -1.
         -5    1    3    3    0  502 -0.87645436277E+01 -0.46932053939E+01 -0.14652737580E+02  0.18320374463E+02  0.47000000000E+01 0. -1.
        -11    1    1    2    0    0  0.77229892054E+02 -0.18881916174E+02  0.35075898365E+02  0.86898225708E+02  0.00000000000E+00 0. -1.
         11    1    1    2    0    0 -0.89859100765E+01 -0.51435843477E+02  0.25289505303E+01  0.52276076411E+02  0.00000000000E+00 0.  1.
<mgrwt>
<rscale>  0 0.15222584E+03</rscale>
<asrwt>0</asrwt>
<pdfrwt beam="2">  1        2 0.11819346E-01 0.15883717E+03</pdfrwt>
<pdfrwt beam="1">  1       -2 0.50860979E-01 0.15883717E+03</pdfrwt>
<totfact> 0.18850956E+03</totfact>
</mgrwt>
</event>
<event>
 6    1  0.4230786E-006  0.1386773E+03  0.7546771E-02  0.1233930E+00
          1   -1    0    0  501    0  0.00000000000E+00  0.00000000000E+00  0.93857500403E+02  0.93857500403E+02  0.00000000000E+00 0. -1.
         -1   -1    0    0    0  501 -0.00000000000E+00 -0.00000000000E+00 -0.36194327960E+03  0.36194327960E+03  0.00000000000E+00 0.  1.
          5    1    1    2  502    0 -0.43079013434E+02  0.18801308237E+02 -0.17726713433E+03  0.18345303896E+03  0.47000000000E+01 0. -1.
         -5    1    1    2    0  502  0.42368215084E+02 -0.71655501954E+02 -0.14267482498E+03  0.16525063478E+03  0.47000000000E+01 0.  1.
        -11    1    1    2    0    0 -0.23182200537E-01  0.36573932461E+02  0.72257142119E+02  0.80986095475E+02  0.00000000000E+00 0. -1.
         11    1    1    2    0    0  0.73398055003E+00  0.16280261256E+02 -0.20400962002E+02  0.26111010793E+02  0.00000000000E+00 0.  1.
<mgrwt>
<rscale>  0 0.12573186E+03</rscale>
<asrwt>0</asrwt>
<pdfrwt beam="1">  1        1 0.14439615E-01 0.13867730E+03</pdfrwt>
<pdfrwt beam="2">  1       -1 0.55683582E-01 0.13867730E+03</pdfrwt>
<totfact> 0.12919863E+03</totfact>
</mgrwt>
</event>
<event>
 7    1  0.4230786E-006  0.2328119E+03  0.7546771E-02  0.1127594E+00
         -1   -1    0    0    0  501 -0.00000000000E+00  0.00000000000E+00  0.78654400241E+02  0.78654400241E+02  0.00000000000E+00 0.  1.
          1   -1    0    0  501    0  0.00000000000E+00 -0.00000000000E+00 -0.67982525764E+03  0.67982525764E+03  0.00000000000E+00 0. -1.
         23    2    1    2    0    0  0.66515367369E+02 -0.18478774736E+03 -0.22137613845E+03  0.32126124281E+03  0.12502234115E+03 0.  0.
          5    1    3    3  502    0  0.78334191522E+02 -0.69621564903E+02 -0.54819101223E+02  0.11836651435E+03  0.47000000000E+01 0. -1.
         -5    1    3    3    0  502 -0.11818824152E+02 -0.11516618246E+03 -0.16655703723E+03  0.20289472846E+03  0.47000000000E+01 0. -1.
        -11    1    1    2    0    0 -0.41428413885E+02  0.42553117302E+02 -0.51696448698E+02  0.78737564587E+02  0.00000000000E+00 0. -1.
         11    1    1    2    0    0 -0.25086953484E+02  0.14223463006E+03 -0.32809827026E+03  0.35848085049E+03  0.00000000000E+00 0.  1.
<mgrwt>
<rscale>  0 0.22864881E+03</rscale>
<asrwt>0</asrwt>
<pdfrwt beam="2">  1        1 0.10458850E+00 0.23281192E+03</pdfrwt>
<pdfrwt beam="1">  1       -1 0.12100677E-01 0.23281192E+03</pdfrwt>
<totfact> 0.13298044E+03</totfact>
</mgrwt>
</event>
<event>
 7    1  0.4230786E-006  0.1662924E+03  0.7546771E-02  0.1187185E+00
         -2   -1    0    0    0  501 -0.00000000000E+00  0.00000000000E+00  0.21307635115E+03  0.21307635115E+03  0.00000000000E+00 0. -1.
          2   -1    0    0  501    0  0.00000000000E+00 -0.00000000000E+00 -0.11915493056E+03  0.11915493056E+03  0.00000000000E+00 0.  1.
         23    2    1    2    0    0 -0.10924192696E+03 -0.97038937616E+01  0.79006158246E+02  0.18410631492E+03  0.12500079197E+03 0.  0.
          5    1    3    3  502    0 -0.51662885135E+02 -0.34750235061E+02 -0.21044593144E+02  0.65890799342E+02  0.47000000000E+01 0.  1.
         -5    1    3    3    0  502 -0.57579041820E+02  0.25046341300E+02  0.10005075139E+03  0.11821551558E+03  0.47000000000E+01 0.  1.
        -11    1    1    2    0    0 -0.11272271550E+02 -0.20260021816E+02  0.27442999193E+01  0.23346600864E+02  0.00000000000E+00 0. -1.
         11    1    1    2    0    0  0.12051419851E+03  0.29963915577E+02  0.12170962428E+02  0.12477836593E+03  0.00000000000E+00 0.  1.
<mgrwt>
<rscale>  0 0.16134597E+03</rscale>
<asrwt>0</asrwt>
<pdfrwt beam="2">  1        2 0.18331528E-01 0.16629240E+03</pdfrwt>
<pdfrwt beam="1">  1       -2 0.32780977E-01 0.16629240E+03</pdfrwt>
<totfact> 0.26028529E+03</totfact>
</mgrwt>
</event>
<event>
 7    1  0.4230786E-006  0.1301715E+03  0.7546771E-02  0.1241957E+00
          2   -1    0    0  501    0  0.00000000000E+00  0.00000000000E+00  0.52017891354E+02  0.52017891354E+02  0.00000000000E+00 0. -1.
         -2   -1    0    0    0  501 -0.00000000000E+00 -0.00000000000E+00 -0.26857504858E+03  0.26857504858E+03  0.00000000000E+00 0.  1.
         23    2    1    2    0    0  0.27656957672E+01 -0.36230909786E+02 -0.16887647446E+03  0.21322262313E+03  0.12499718193E+03 0.  0.
          5    1    3    3  502    0 -0.53970761555E+02  0.13746932816E+01 -0.11189862771E+03  0.12433071128E+03  0.47000000000E+01 0. -1.
         -5    1    3    3    0  502  0.56736457323E+02 -0.37605603067E+02 -0.56977846753E+02  0.88891911849E+02  0.47000000000E+01 0. -1.
        -11    1    1    2    0    0  0.12928505211E+02  0.40234201776E+02 -0.68807672058E+02  0.80749197975E+02  0.00000000000E+00 0.  1.
         11    1    1    2    0    0 -0.15694200978E+02 -0.40032919900E+01  0.21126989294E+02  0.26621118829E+02  0.00000000000E+00 0. -1.
<mgrwt>
<rscale>  0 0.12069344E+03</rscale>
<asrwt>0</asrwt>
<pdfrwt beam="1">  1        2 0.80027526E-02 0.13017152E+03</pdfrwt>
<pdfrwt beam="2">  1       -2 0.41319238E-01 0.13017152E+03</pdfrwt>
<totfact> 0.45136923E+03</totfact>
</mgrwt>
</event>
<event>
 6    1  0.4230786E-006  0.1599235E+03  0.7546771E-02  0.1202550E+00
         -1   -1    0    0    0  501 -0.00000000000E+00  0.00000000000E+00  0.55030116846E+02  0.55030116846E+02  0.00000000000E+00 0.  1.
          1   -1    0    0  501    0  0.00000000000E+00 -0.00000000000E+00 -0.47475687385E+03  0.47475687385E+03  0.00000000000E+00 0. -1.
          5    1    1    2  502    0  0.39111675066E+01  0.26142205634E+02 -0.78051444121E+02  0.82539869615E+02  0.47000000000E+01 0. -1.
         -5    1    1    2    0  502  0.93969618392E+00 -0.10346403322E+03 -0.21332656222E+02  0.10574904927E+03  0.47000000000E+01 0.  1.
        -11    1    1    2    0    0  0.18358303604E+01  0.96779624464E+02 -0.27908441470E+03  0.29539427299E+03  0.00000000000E+00 0. -1.
         11    1    1    2    0    0 -0.66866940510E+01 -0.19457796877E+02 -0.41258241957E+02  0.46103798824E+02  0.00000000000E+00 0.  1.
<mgrwt>
<rscale>  0 0.14832216E+03</rscale>
<asrwt>0</asrwt>
<pdfrwt beam="2">  1        1 0.73039519E-01 0.15992347E+03</pdfrwt>
<pdfrwt beam="1">  1       -1 0.84661718E-02 0.15992347E+03</pdfrwt>
<totfact> 0.37277265E+03</totfact>
</mgrwt>
</event>
<event>
 7    1  0.4230786E-006  0.1778307E+03  0.7546771E-02  0.1177006E+00
          2   -1    0    0  501    0  0.00000000000E+00  0.00000000000E+00  0.91929325566E+02  0.91929325566E+02  0.00000000000E+00 0. -1.
         -2   -1    0    0    0  501 -0.00000000000E+00 -0.00000000000E+00 -0.37678697180E+03  0.37678697180E+03  0.00000000000E+00 0.  1.
         23    2    1    2    0    0 -0.76668844226E+02 -0.10059967172E+03 -0.26048795626E+03  0.31540090849E+03  0.12500140836E+03 0.  0.
          5    1    3    3  502    0  0.34560878293E+02 -0.28111114488E+02 -0.59572433155E+02  0.74536258681E+02  0.47000000000E+01 0. -1.
         -5    1    3    3    0  502 -0.11122972252E+03 -0.72488557235E+02 -0.20091552310E+03  0.24086464980E+03  0.47000000000E+01 0. -1.
        -11    1    1    2    0    0  0.46775694893E+01  0.24998977221E+02  0.26892484569E+02  0.37013973642E+02  0.00000000000E+00 0. -1.
         11    1    1    2    0    0  0.71991274737E+02  0.75600694502E+02 -0.51262174545E+02  0.11630141524E+03  0.00000000000E+00 0.  1.
<mgrwt>
<rscale>  0 0.17080960E+03</rscale>
<asrwt>0</asrwt>
<pdfrwt beam="1">  1        2 0.14142973E-01 0.17783070E+03</pdfrwt>
<pdfrwt beam="2">  1       -2 0.57967226E-01 0.17783070E+03</pdfrwt>
<totfact> 0.11723727E+03</totfact>
</mgrwt>
</event>
<event>
 6    1  0.4230786E-006  0.1681153E+03  0.7546771E-02  0.1194977E+00
          1   -1    0    0  501    0  0.00000000000E+00  0.00000000000E+00  0.17870385645E+03  0.17870385645E+03  0.00000000000E+00 0. -1.
         -1   -1    0    0    0  501 -0.00000000000E+00 -0.00000000000E+00 -0.12222813670E+03  0.12222813670E+03  0.00000000000E+00 0.  1.
          5    1    1    2  502    0  0.74312026793E+02  0.42930387661E+01  0.12214953472E+02  0.75577791687E+02  0.47000000000E+01 0. -1.
         -5    1    1    2    0  502 -0.48417759326E+02 -0.77733468836E+02 -0.12424202447E+02  0.92537680984E+02  0.47000000000E+01 0.  1.
        -11    1    1    2    0    0 -0.17063500856E+02  0.16043596283E+02 -0.23915877394E+02  0.33474307083E+02  0.00000000000E+00 0.  1.
         11    1    1    2    0    0 -0.88307666112E+01  0.57396833787E+02  0.80600846115E+02  0.99342213394E+02  0.00000000000E+00 0. -1.
<mgrwt>
<rscale>  0 0.15456198E+03</rscale>
<asrwt>0</asrwt>
<pdfrwt beam="1">  1        1 0.27492901E-01 0.16811534E+03</pdfrwt>
<pdfrwt beam="2">  1       -1 0.18804329E-01 0.16811534E+03</pdfrwt>
<totfact> 0.36758033E+03</totfact>
</mgrwt>
</event>
<event>
 7    1  0.4230786E-006  0.3506893E+03  0.7546771E-02  0.1063407E+00
          2   -1    0    0  501    0  0.00000000000E+00  0.00000000000E+00  0.23125621714E+04  0.23125621714E+04  0.00000000000E+00 0. -1.
         -2   -1    0    0    0  501 -0.00000000000E+00 -0.00000000000E+00 -0.57811262949E+02  0.57811262949E+02  0.00000000000E+00 0.  1.
         23    2    1    2    0    0 -0.31602885700E+03 -0.86512036817E+02  0.75475872221E+03  0.83225219784E+03  0.12499768432E+03 0.  0.
          5    1    3    3  502    0 -0.28345910101E+03 -0.65926268045E+02  0.53461101643E+03  0.60870876752E+03  0.47000000000E+01 0.  1.
         -5    1    3    3    0  502 -0.32569755996E+02 -0.20585768772E+02  0.22014770577E+03  0.22354343032E+03  0.47000000000E+01 0.  1.
        -11    1    1    2    0    0  0.96788128613E+02 -0.21283134825E+01  0.30650136303E+03  0.32142737453E+03  0.00000000000E+00 0. -1.
         11    1    1    2    0    0  0.21924072839E+03  0.88640350300E+02  0.11934908232E+04  0.12166938620E+04  0.00000000000E+00 0.  1.
<mgrwt>
<rscale>  0 0.34807625E+03</rscale>
<asrwt>0</asrwt>
<pdfrwt beam="1">  1        2 0.35577872E+00 0.35068931E+03</pdfrwt>
<pdfrwt beam="2">  1       -2 0.88940422E-02 0.35068931E+03</pdfrwt>
<totfact> 0.39995912E+02</totfact>
</mgrwt>
</event>
<event>
 7    1  0.4230786E-006  0.1288814E+03  0.7546771E-02  0.1243978E+00
         -1   -1    0    0    0  501 -0.00000000000E+00  0.00000000000E+00  0.25250521557E+02  0.25250521557E+02  0.00000000000E+00 0.  1.
          1   -1    0    0  501    0  0.00000000000E+00 -0.00000000000E+00 -0.49799225152E+03  0.49799225152E+03  0.00000000000E+00 0. -1.
         23    2    1    2    0    0  0.20717593744E+01  0.31339869203E+02 -0.25999508247E+03  0.29018589688E+03  0.12499572892E+03 0.  0.
          5    1    3    3  502    0  0.13737778016E+02 -0.46596099321E+02 -0.81215143164E+02  0.94751846926E+02  0.47000000000E+01 0. -1.
         -5    1    3    3    0  502 -0.11666018642E+02  0.77935968524E+02 -0.17877993931E+03  0.19543404995E+03  0.47000000000E+01 0. -1.
        -11    1    1    2    0    0 -0.19065488842E+02 -0.42632111686E+02 -0.20650527245E+03  0.21172013925E+03  0.00000000000E+00 0. -1.
         11    1    1    2    0    0  0.16993729468E+02  0.11292242483E+02 -0.62413750373E+01  0.21336736955E+02  0.00000000000E+00 0.  1.
<mgrwt>
<rscale>  0 0.11946754E+03</rscale>
<asrwt>0</asrwt>
<pdfrwt beam="2">  1        1 0.76614191E-01 0.12888139E+03</pdfrwt>
<pdfrwt beam="1">  1       -1 0.38846957E-02 0.12888139E+03</pdfrwt>
<totfact> 0.11044997E+04</totfact>
</mgrwt>
</event>
<event>
 7    1  0.4230786E-006  0.2074778E+03  0.7546771E-02  0.1146350E+00
          2   -1    0    0  501    0  0.00000000000E+00  0.00000000000E+00  0.11121334796E+04  0.11121334796E+04  0.00000000000E+00 0. -1.
         -2   -1    0    0    0  501 -0.00000000000E+00 -0.00000000000E+00 -0.69171824948E+02  0.69171824948E+02  0.00000000000E+00 0.  1.
         23    2    1    2    0    0 -0.16805065641E+03  0.37011083186E+01  0.12326203027E+03  0.24133085079E+03  0.12162372349E+03 0.  0.
          5    1    3    3  502    0  0.50219523137E+01 -0.20667576609E+02  0.44544366149E+02  0.49584869503E+02  0.47000000000E+01 0. -1.
         -5    1    3    3    0  502 -0.17307260872E+03  0.24368684928E+02  0.78717664119E+02  0.19174598129E+03  0.47000000000E+01 0.  1.
        -11    1    1    2    0    0  0.23784752789E+02  0.29707497239E+02  0.99806039655E+02  0.10681523959E+03  0.00000000000E+00 0.  1.
         11    1    1    2    0    0  0.14426590362E+03 -0.33408605558E+02  0.81989358472E+03  0.83315921416E+03  0.00000000000E+00 0. -1.
<mgrwt>
<rscale>  0 0.20406947E+03</rscale>
<asrwt>0</asrwt>
<pdfrwt beam="1">  1        2 0.17109745E+00 0.20747783E+03</pdfrwt>
<pdfrwt beam="2">  1       -2 0.10641820E-01 0.20747783E+03</pdfrwt>
<totfact> 0.13520702E+03</totfact>
</mgrwt>
</event>
<event>
 7    1  0.4230786E-006  0.1433934E+03  0.7546771E-02  0.1219272E+00
          2   -1    0    0  501    0  0.00000000000E+00  0.00000000000E+00  0.39870967824E+03  0.39870967824E+03  0.00000000000E+00 0.  1.
         -2   -1    0    0    0  501 -0.00000000000E+00 -0.00000000000E+00 -0.42093481264E+02  0.42093481264E+02  0.00000000000E+00 0. -1.
         23    2    1    2    0    0 -0.69378895442E+02 -0.11132412654E+02  0.18079421218E+03  0.23075571707E+03  0.12499716821E+03 0.  0.
          5    1    3    3  502    0 -0.47134241195E+02 -0.67176360920E+02  0.92636627281E+02  0.12384641647E+03  0.47000000000E+01 0. -1.
         -5    1    3    3    0  502 -0.22244654246E+02  0.56043948266E+02  0.88157584897E+02  0.10690930060E+03  0.47000000000E+01 0. -1.
        -11    1    1    2    0    0  0.59735978717E+02 -0.31659348192E+02  0.13051076668E+03  0.14698218157E+03  0.00000000000E+00 0.  1.
         11    1    1    2    0    0  0.96429167243E+01  0.42791760846E+02  0.45311218115E+02  0.63065260852E+02  0.00000000000E+00 0. -1.
<mgrwt>
<rscale>  0 0.13567364E+03</rscale>
<asrwt>0</asrwt>
<pdfrwt beam="1">  1        2 0.61339948E-01 0.14339335E+03</pdfrwt>
<pdfrwt beam="2">  1       -2 0.64759205E-02 0.14339335E+03</pdfrwt>
<totfact> 0.10041047E+04</totfact>
</mgrwt>
</event>
<event>
 7    1  0.4230786E-006  0.1257949E+03  0.7546771E-02  0.1249925E+00
          1   -1    0    0  501    0  0.00000000000E+00  0.00000000000E+00  0.23159185873E+03  0.23159185873E+03  0.00000000000E+00 0. -1.
         -1   -1    0    0    0  501 -0.00000000000E+00 -0.00000000000E+00 -0.51774434063E+02  0.51774434063E+02  0.00000000000E+00 0.  1.
         23    2    1    2    0    0 -0.10641418001E+02 -0.92641468222E+01  0.83489063731E+02  0.15097942427E+03  0.12500119438E+03 0.  0.
          5    1    3    3  502    0 -0.24721399699E+02 -0.57700475751E+02  0.13169424845E+02  0.64311867145E+02  0.47000000000E+01 0.  1.
         -5    1    3    3    0  502  0.14079981698E+02  0.48436328928E+02  0.70319638886E+02  0.86667557124E+02  0.47000000000E+01 0.  1.
        -11    1    1    2    0    0  0.45333747117E+02 -0.46484375942E+00  0.23343994061E+02  0.50993203136E+02  0.00000000000E+00 0.  1.
         11    1    1    2    0    0 -0.34692329116E+02  0.97289905817E+01  0.72984366872E+02  0.81393665386E+02  0.00000000000E+00 0. -1.
<mgrwt>
<rscale>  0 0.11595385E+03</rscale>
<asrwt>0</asrwt>
<pdfrwt beam="1">  1        1 0.35629516E-01 0.12579492E+03</pdfrwt>
<pdfrwt beam="2">  1       -1 0.79652977E-02 0.12579492E+03</pdfrwt>
<totfact> 0.98954634E+03</totfact>
</mgrwt>
</event>
<event>
 7    1  0.4230786E-006  0.1481091E+03  0.7546771E-02  0.1212055E+00
         -2   -1    0    0    0  501 -0.00000000000E+00  0.00000000000E+00  0.79761493755E+02  0.79761493755E+02  0.00000000000E+00 0.  1.
          2   -1    0    0  501    0  0.00000000000E+00 -0.00000000000E+00 -0.26093638652E+03  0.26093638652E+03  0.00000000000E+00 0. -1.
         23    2    1    2    0    0 -0.31634865067E+02 -0.72864080550E+02 -0.37960756424E+02  0.15289642443E+03  0.12500543450E+03 0.  0.
          5    1    3    3  502    0 -0.63054179640E+02 -0.82229636790E+02 -0.53042276661E+02  0.11650371604E+03  0.47000000000E+01 0. -1.
         -5    1    3    3    0  502  0.31419314573E+02  0.93655562406E+01  0.15081520237E+02  0.36392708399E+02  0.47000000000E+01 0. -1.
        -11    1    1    2    0    0 -0.16695432978E+01  0.52890466026E+02 -0.16743219688E+02  0.55502470006E+02  0.00000000000E+00 0.  1.
         11    1    1    2    0    0  0.33304408364E+02  0.19973614524E+02 -0.12647091666E+03  0.13229898584E+03  0.00000000000E+00 0. -1.
<mgrwt>
<rscale>  0 0.14095118E+03</rscale>
<asrwt>0</asrwt>
<pdfrwt beam="2">  1        2 0.40144060E-01 0.14810907E+03</pdfrwt>
<pdfrwt beam="1">  1       -2 0.12270999E-01 0.14810907E+03</pdfrwt>
<totfact> 0.58254498E+03</totfact>
</mgrwt>
</event>
<event>
 7    1  0.4230786E-006  0.1373005E+03  0.7546771E-02  0.1228106E+00
          1   -1    0    0  501    0  0.00000000000E+00  0.00000000000E+00  0.28990675338E+02  0.28990675338E+02  0.00000000000E+00 0. -1.
         -1   -1    0    0    0  501 -0.00000000000E+00 -0.00000000000E+00 -0.61939458012E+03  0.61939458012E+03  0.00000000000E+00 0.  1.
         23    2    1    2    0    0  0.85094037479E+00  0.56797895795E+02 -0.45141789871E+03  0.47183634730E+03  0.12499877717E+03 0.  0.
          5    1    3    3  502    0 -0.35851684563E+00  0.57538466456E+02 -0.71548391301E+02  0.91935118177E+02  0.47000000000E+01 0. -1.
         -5    1    3    3    0  502  0.12094572204E+01 -0.74057066062E+00 -0.37986950741E+03  0.37990122912E+03  0.47000000000E+01 0. -1.
        -11    1    1    2    0    0 -0.45562645813E+02 -0.40562162123E+02 -0.84527459553E+02  0.10424075550E+03  0.00000000000E+00 0.  1.
         11    1    1    2    0    0  0.44711705438E+02 -0.16235733672E+02 -0.54458546520E+02  0.72308152654E+02  0.00000000000E+00 0. -1.
<mgrwt>
<rscale>  0 0.12956266E+03</rscale>
<asrwt>0</asrwt>
<pdfrwt beam="1">  1        1 0.44601043E-02 0.13730047E+03</pdfrwt>
<pdfrwt beam="2">  1       -1 0.95291465E-01 0.13730047E+03</pdfrwt>
<totfact> 0.21253092E+03</totfact>
</mgrwt>
</event>
<event>
 7    1  0.4230786E-006  0.1858519E+03  0.7546771E-02  0.1167382E+00
          2   -1    0    0  501    0  0.00000000000E+00  0.00000000000E+00  0.66975712701E+03  0.66975712701E+03  0.00000000000E+00 0. -1.
         -2   -1    0    0    0  501 -0.00000000000E+00 -0.00000000000E+00 -0.55054026510E+02  0.55054026510E+02  0.00000000000E+00 0.  1.
         23    2    1    2    0    0 -0.19288577091E+02 -0.13615062342E+03  0.17559074734E+03  0.25568153782E+03  0.12502758402E+03 0.  0.
          5    1    3    3  502    0  0.24527611633E+02 -0.26891426590E+02 -0.79813156009E+01  0.37557209097E+02  0.47000000000E+01 0.  1.
         -5    1    3    3    0  502 -0.43816188725E+02 -0.10925919683E+03  0.18357206295E+03  0.21812432872E+03  0.47000000000E+01 0.  1.
        -11    1    1    2    0    0  0.53266172698E+02  0.99252815790E+02  0.26526266269E+03  0.28818863061E+03  0.00000000000E+00 0.  1.
         11    1    1    2    0    0 -0.33977595607E+02  0.36897807625E+02  0.17384969046E+03  0.18094098509E+03  0.00000000000E+00 0. -1.
<mgrwt>
<rscale>  0 0.18043546E+03</rscale>
<asrwt>0</asrwt>
<pdfrwt beam="1">  1        2 0.10303955E+00 0.18585193E+03</pdfrwt>
<pdfrwt beam="2">  1       -2 0.84698507E-02 0.18585193E+03</pdfrwt>
<totfact> 0.37679335E+03</totfact>
</mgrwt>
</event>
<event>
 7    1  0.4230786E-006  0.1375370E+03  0.7546771E-02  0.1229436E+00
         -2   -1    0    0    0  501 -0.00000000000E+00  0.00000000000E+00  0.12257360264E+04  0.12257360264E+04  0.00000000000E+00 0.  1.
          2   -1    0    0  501    0  0.00000000000E+00 -0.00000000000E+00 -0.14241378875E+02  0.14241378875E+02  0.00000000000E+00 0. -1.
         23    2    1    2    0    0  0.36278477931E+02  0.44451523637E+02  0.91579875456E+03  0.92606899637E+03  0.12499744503E+03 0.  0.
          5    1    3    3  502    0  0.16760237275E+01 -0.18020715975E+02  0.66488064535E+03  0.66514353174E+03  0.47000000000E+01 0. -1.
         -5    1    3    3    0  502  0.34602454204E+02  0.62472239612E+02  0.25091810922E+03  0.26092546463E+03  0.47000000000E+01 0. -1.
        -11    1    1    2    0    0  0.22967255400E+02 -0.17843739609E+02  0.36346116731E+02  0.46550339046E+02  0.00000000000E+00 0.  1.
         11    1    1    2    0    0 -0.59245733331E+02 -0.26607784029E+02  0.25934977625E+03  0.26735806988E+03  0.00000000000E+00 0. -1.
<mgrwt>
<rscale>  0 0.12867433E+03</rscale>
<asrwt>0</asrwt>
<pdfrwt beam="2">  1        2 0.21909823E-02 0.13753700E+03</pdfrwt>
<pdfrwt beam="1">  1       -2 0.18857469E+00 0.13753700E+03</pdfrwt>
<totfact> 0.80102395E+02</totfact>
</mgrwt>
</event>
<event>
 6    1  0.4230786E-006  0.1620115E+03  0.7546771E-02  0.1195361E+00
          2   -1    0    0  501    0  0.00000000000E+00  0.00000000000E+00  0.71929017957E+03  0.71929017957E+03  0.00000000000E+00 0. -1.
         -2   -1    0    0    0  501 -0.00000000000E+00 -0.00000000000E+00 -0.30888065638E+02  0.30888065638E+02  0.00000000000E+00 0.  1.
          5    1    1    2  502    0 -0.85538154175E+02  0.50594098569E+02  0.25084189846E+03  0.26985234231E+03  0.47000000000E+01 0. -1.
         -5    1    1    2    0  502  0.42508713250E+02  0.36891924554E+02  0.73433921029E+02  0.92642514847E+02  0.47000000000E+01 0.  1.
        -11    1    1    2    0    0  0.94410118359E+01 -0.83622596860E+02  0.32617537138E+03  0.33685641497E+03  0.00000000000E+00 0. -1.
         11    1    1    2    0    0  0.33588429089E+02 -0.38634262629E+01  0.37950923069E+02  0.50826973084E+02  0.00000000000E+00 0.  1.
<mgrwt>
<rscale>  0 0.15423680E+03</rscale>
<asrwt>0</asrwt>
<pdfrwt beam="1">  1        2 0.11066002E+00 0.16201146E+03</pdfrwt>
<pdfrwt beam="2">  1       -2 0.47520106E-02 0.16201146E+03</pdfrwt>
<totfact> 0.83331440E+03</totfact>
</mgrwt>
</event>
<event>
 7    1  0.4230786E-006  0.1318047E+03  0.7546771E-02  0.1238777E+00
          4   -1    0    0  501    0  0.00000000000E+00  0.00000000000E+00  0.97020613999E+02  0.97020613999E+02  0.00000000000E+00 0. -1.
         -4   -1    0    0    0  501 -0.00000000000E+00 -0.00000000000E+00 -0.15342300056E+03  0.15342300056E+03  0.00000000000E+00 0.  1.
         23    2    1    2    0    0  0.41709552848E+02 -0.25316409252E+01 -0.72286031606E+02  0.15032545564E+03  0.12500550485E+03 0.  0.
          5    1    3    3  502    0  0.71652719143E+02  0.94671687858E+01 -0.88136043913E+02  0.11407800700E+03  0.47000000000E+01 0. -1.
         -5    1    3    3    0  502 -0.29943166294E+02 -0.11998809711E+02  0.15850012307E+02  0.36247448632E+02  0.47000000000E+01 0. -1.
        -11    1    1    2    0    0 -0.24041083571E+01  0.37519664813E+02  0.27060137897E+02  0.46322306157E+02  0.00000000000E+00 0. -1.
         11    1    1    2    0    0 -0.39305444491E+02 -0.34988023888E+02 -0.11176492852E+02  0.53795852765E+02  0.00000000000E+00 0.  1.
<mgrwt>
<rscale>  0 0.12265703E+03</rscale>
<asrwt>0</asrwt>
<pdfrwt beam="1">  1        4 0.14926248E-01 0.13180467E+03</pdfrwt>
<pdfrwt beam="2">  1       -4 0.23603538E-01 0.13180467E+03</pdfrwt>
<totfact> 0.10392750E+03</totfact>
</mgrwt>
</event>
<event>
 7    1  0.4230786E-006  0.1372267E+03  0.7546771E-02  0.1228614E+00
         -2   -1    0    0    0  501 -0.00000000000E+00  0.00000000000E+00  0.24674524119E+03  0.24674524119E+03  0.00000000000E+00 0.  1.
          2   -1    0    0  501    0  0.00000000000E+00 -0.00000000000E+00 -0.64455657021E+02  0.64455657021E+02  0.00000000000E+00 0. -1.
         23    2    1    2    0    0 -0.48281725476E+02  0.29715172250E+02  0.65050958272E+02  0.15186440582E+03  0.12496821239E+03 0.  0.
          5    1    3    3  502    0 -0.71850577369E+02  0.61126936724E+02  0.60228769542E+02  0.11202054518E+03  0.47000000000E+01 0.  1.
         -5    1    3    3    0  502  0.23568851893E+02 -0.31411764474E+02  0.48221887300E+01  0.39843860644E+02  0.47000000000E+01 0.  1.
        -11    1    1    2    0    0  0.61894487108E+02  0.12832899130E+02  0.70209594345E+02  0.94472207408E+02  0.00000000000E+00 0. -1.
         11    1    1    2    0    0 -0.13612761632E+02 -0.42548071380E+02  0.47029031554E+02  0.64864284983E+02  0.00000000000E+00 0.  1.
<mgrwt>
<rscale>  0 0.12922250E+03</rscale>
<asrwt>0</asrwt>
<pdfrwt beam="2">  1        2 0.99162551E-02 0.13722671E+03</pdfrwt>
<pdfrwt beam="1">  1       -2 0.37960806E-01 0.13722671E+03</pdfrwt>
<totfact> 0.40743123E+03</totfact>
</mgrwt>
</event>
<event>
 7    1  0.4230786E-006  0.1970233E+03  0.7546771E-02  0.1156741E+00
          1   -1    0    0  501    0  0.00000000000E+00  0.00000000000E+00  0.51010067972E+03  0.51010067972E+03  0.00000000000E+00 0. -1.
         -1   -1    0    0    0  501 -0.00000000000E+00 -0.00000000000E+00 -0.86931022868E+02  0.86931022868E+02  0.00000000000E+00 0.  1.
         23    2    1    2    0    0 -0.10009826515E+03 -0.11477528901E+03  0.83814448145E+02  0.21410989752E+03  0.12500062738E+03 0.  0.
          5    1    3    3  502    0 -0.50047830671E+01 -0.54116537672E+02  0.85250852837E+02  0.10120990768E+03  0.47000000000E+01 0.  1.
         -5    1    3    3    0  502 -0.95093482079E+02 -0.60658751339E+02 -0.14364046918E+01  0.11289998984E+03  0.47000000000E+01 0.  1.
        -11    1    1    2    0    0  0.79339040347E+02  0.26408935662E+02  0.19797938819E+03  0.21491382774E+03  0.00000000000E+00 0. -1.
         11    1    1    2    0    0  0.20759224798E+02  0.88366353349E+02  0.14137582052E+03  0.16800797733E+03  0.00000000000E+00 0.  1.
<mgrwt>
<rscale>  0 0.19192007E+03</rscale>
<asrwt>0</asrwt>
<pdfrwt beam="1">  1        1 0.78477026E-01 0.19702331E+03</pdfrwt>
<pdfrwt beam="2">  1       -1 0.13374004E-01 0.19702331E+03</pdfrwt>
<totfact> 0.16861794E+03</totfact>
</mgrwt>
</event>
<event>
 6    1  0.4230786E-006  0.4954116E+03  0.7546771E-02  0.1052506E+00
          1   -1    0    0  501    0  0.00000000000E+00  0.00000000000E+00  0.78253868927E+03  0.78253868927E+03  0.00000000000E+00 0. -1.
         -1   -1    0    0    0  501 -0.00000000000E+00 -0.00000000000E+00 -0.27074036514E+03  0.27074036514E+03  0.00000000000E+00 0.  1.
          5    1    1    2  502    0  0.15230205880E+03 -0.23976177974E+02  0.13512699407E+03  0.20506625454E+03  0.47000000000E+01 0. -1.
         -5    1    1    2    0  502 -0.18861035695E+03  0.15684227600E+03 -0.15608485475E+03  0.29078847669E+03  0.47000000000E+01 0.  1.
        -11    1    1    2    0    0 -0.46931586276E+01 -0.70877187235E+02  0.13262548973E+03  0.15044973225E+03  0.00000000000E+00 0.  1.
         11    1    1    2    0    0  0.41001456777E+02 -0.61988910795E+02  0.40013069508E+03  0.40697459093E+03  0.00000000000E+00 0. -1.
<mgrwt>
<rscale>  0 0.37577596E+03</rscale>
<asrwt>0</asrwt>
<pdfrwt beam="1">  1        1 0.12039057E+00 0.49541163E+03</pdfrwt>
<pdfrwt beam="2">  1       -1 0.41652364E-01 0.49541163E+03</pdfrwt>
<totfact> 0.13442656E+02</totfact>
</mgrwt>
</event>
<event>
 7    1  0.4230786E-006  0.1292466E+03  0.7546771E-02  0.1242477E+00
          2   -1    0    0  501    0  0.00000000000E+00  0.00000000000E+00  0.76585546252E+03  0.76585546252E+03  0.00000000000E+00 0. -1.
         -2   -1    0    0    0  501 -0.00000000000E+00 -0.00000000000E+00 -0.18032023736E+02  0.18032023736E+02  0.00000000000E+00 0.  1.
         23    2    1    2    0    0 -0.31758664987E+02 -0.81741906033E+01  0.31930192138E+03  0.34446830440E+03  0.12501706102E+03 0.  0.
          5    1    3    3  502    0  0.27068247566E+01 -0.10277844750E+02  0.30743585028E+03  0.30765541281E+03  0.47000000000E+01 0.  1.
         -5    1    3    3    0  502 -0.34465489743E+02  0.21036541469E+01  0.11866071101E+02  0.36812891592E+02  0.47000000000E+01 0.  1.
        -11    1    1    2    0    0  0.33057497484E+02  0.47351088966E+02  0.27214318999E+03  0.27820287494E+03  0.00000000000E+00 0.  1.
         11    1    1    2    0    0 -0.12988324975E+01 -0.39176898362E+02  0.15637832742E+03  0.16121630692E+03  0.00000000000E+00 0. -1.
<mgrwt>
<rscale>  0 0.12037669E+03</rscale>
<asrwt>0</asrwt>
<pdfrwt beam="1">  1        2 0.11782389E+00 0.12924665E+03</pdfrwt>
<pdfrwt beam="2">  1       -2 0.27741581E-02 0.12924665E+03</pdfrwt>
<totfact> 0.16905899E+04</totfact>
</mgrwt>
</event>
<event>
 7    1  0.4230786E-006  0.1922370E+03  0.7546771E-02  0.1161045E+00
          2   -1    0    0  501    0  0.00000000000E+00  0.00000000000E+00  0.23040333500E+03  0.23040333500E+03  0.00000000000E+00 0. -1.
         -2   -1    0    0    0  501 -0.00000000000E+00 -0.00000000000E+00 -0.15806681558E+03  0.15806681558E+03  0.00000000000E+00 0.  1.
         23    2    1    2    0    0  0.14191638242E+03  0.34500020724E+02 -0.18825763637E+02  0.19315663658E+03  0.12499826338E+03 0.  0.
          5    1    3    3  502    0  0.41618889258E+02  0.64487134845E+02 -0.39345913373E+02  0.86376579017E+02  0.47000000000E+01 0.  1.
         -5    1    3    3    0  502  0.10029749316E+03 -0.29987114121E+02  0.20520149736E+02  0.10678005756E+03  0.47000000000E+01 0.  1.
        -11    1    1    2    0    0 -0.24102293557E+02 -0.38886368721E+02 -0.85631806078E+00  0.45758097728E+02  0.00000000000E+00 0.  1.
         11    1    1    2    0    0 -0.11781408886E+03  0.43863479978E+01  0.92018601120E+02  0.14955541627E+03  0.00000000000E+00 0. -1.
<mgrwt>
<rscale>  0 0.18716379E+03</rscale>
<asrwt>0</asrwt>
<pdfrwt beam="1">  1        2 0.35446667E-01 0.19223703E+03</pdfrwt>
<pdfrwt beam="2">  1       -2 0.24317972E-01 0.19223703E+03</pdfrwt>
<totfact> 0.21481405E+03</totfact>
</mgrwt>
</event>
<event>
 7    1  0.4230786E-006  0.1445743E+03  0.7546771E-02  0.1216628E+00
         -1   -1    0    0    0  501 -0.00000000000E+00  0.00000000000E+00  0.40750305033E+02  0.40750305033E+02  0.00000000000E+00 0.  1.
          1   -1    0    0  501    0  0.00000000000E+00 -0.00000000000E+00 -0.52610718831E+03  0.52610718831E+03  0.00000000000E+00 0. -1.
         23    2    1    2    0    0  0.61470669981E+02 -0.38673808090E+02 -0.13814158854E+03  0.19996208670E+03  0.12500972335E+03 0.  0.
          5    1    3    3  502    0  0.32566031660E+02 -0.80868776872E+02 -0.11294021035E+03  0.14275113521E+03  0.47000000000E+01 0.  1.
         -5    1    3    3    0  502  0.28904638321E+02  0.42194968782E+02 -0.25201378186E+02  0.57210951482E+02  0.47000000000E+01 0.  1.
        -11    1    1    2    0    0 -0.47756282668E+02  0.47942651559E+02 -0.34327342683E+03  0.34987970210E+03  0.00000000000E+00 0. -1.
         11    1    1    2    0    0 -0.13714387313E+02 -0.92688434692E+01 -0.39418679101E+01  0.17015704547E+02  0.00000000000E+00 0.  1.
<mgrwt>
<rscale>  0 0.13757595E+03</rscale>
<asrwt>0</asrwt>
<pdfrwt beam="2">  1        1 0.80939560E-01 0.14457433E+03</pdfrwt>
<pdfrwt beam="1">  1       -1 0.62692783E-02 0.14457433E+03</pdfrwt>
<totfact> 0.50996973E+03</totfact>
</mgrwt>
</event>
<event>
 7    1  0.4230786E-006  0.1362851E+03  0.7546771E-02  0.1230187E+00
          1   -1    0    0  501    0  0.00000000000E+00  0.00000000000E+00  0.54359239956E+03  0.54359239956E+03  0.00000000000E+00 0. -1.
         -1   -1    0    0    0  501 -0.00000000000E+00 -0.00000000000E+00 -0.34306361809E+02  0.34306361809E+02  0.00000000000E+00 0.  1.
         23    2    1    2    0    0 -0.58840261037E+00  0.54293183692E+02  0.14793282506E+03  0.20114112837E+03  0.12500214710E+03 0.  0.
          5    1    3    3  502    0  0.18307769724E+02 -0.26018825135E+02  0.10123600190E+03  0.10622133389E+03  0.47000000000E+01 0.  1.
         -5    1    3    3    0  502 -0.18896172334E+02  0.80312008827E+02  0.46696823164E+02  0.94919794481E+02  0.47000000000E+01 0.  1.
        -11    1    1    2    0    0  0.11045144456E+02 -0.59805419110E+02  0.35971980482E+03  0.36482464466E+03  0.00000000000E+00 0. -1.
         11    1    1    2    0    0 -0.10456741846E+02  0.55122354172E+01  0.16334078668E+01  0.11932988334E+02  0.00000000000E+00 0.  1.
<mgrwt>
<rscale>  0 0.12817614E+03</rscale>
<asrwt>0</asrwt>
<pdfrwt beam="1">  1        1 0.83629594E-01 0.13628512E+03</pdfrwt>
<pdfrwt beam="2">  1       -1 0.52779022E-02 0.13628512E+03</pdfrwt>
<totfact> 0.62899262E+03</totfact>
</mgrwt>
</event>
<event>
 7    1  0.4230786E-006  0.1313888E+03  0.7546771E-02  0.1239268E+00
         -1   -1    0    0    0  501 -0.00000000000E+00  0.00000000000E+00  0.23620487530E+03  0.23620487530E+03  0.00000000000E+00 0.  1.
          1   -1    0    0  501    0  0.00000000000E+00 -0.00000000000E+00 -0.58861461500E+02  0.58861461500E+02  0.00000000000E+00 0. -1.
         23    2    1    2    0    0  0.72377781924E+00 -0.40464443044E+02  0.13238956185E+03  0.18652082012E+03  0.12500050098E+03 0.  0.
          5    1    3    3  502    0  0.22483304766E+01  0.36461500040E+00 -0.24129708340E+02  0.24688474206E+02  0.47000000000E+01 0. -1.
         -5    1    3    3    0  502 -0.15245526573E+01 -0.40829058044E+02  0.15651927019E+03  0.16183234591E+03  0.47000000000E+01 0. -1.
        -11    1    1    2    0    0 -0.25227977943E+02  0.60103331233E+02  0.19255646356E+02  0.67967942538E+02  0.00000000000E+00 0. -1.
         11    1    1    2    0    0  0.24504200123E+02 -0.19638888189E+02  0.25698205595E+02  0.40577574148E+02  0.00000000000E+00 0.  1.
<mgrwt>
<rscale>  0 0.12235089E+03</rscale>
<asrwt>0</asrwt>
<pdfrwt beam="2">  1        1 0.90556096E-02 0.13138881E+03</pdfrwt>
<pdfrwt beam="1">  1       -1 0.36339211E-01 0.13138881E+03</pdfrwt>
<totfact> 0.51129665E+03</totfact>
</mgrwt>
</event>
<event>
 7    1  0.4230786E-006  0.1273682E+03  0.7546771E-02  0.1246166E+00
          2   -1    0    0  501    0  0.00000000000E+00  0.00000000000E+00  0.22508314383E+03  0.22508314383E+03  0.00000000000E+00 0. -1.
         -2   -1    0    0    0  501 -0.00000000000E+00 -0.00000000000E+00 -0.56039577973E+02  0.56039577973E+02  0.00000000000E+00 0.  1.
         23    2    1    2    0    0  0.13282054151E+02 -0.20533205078E+02  0.74463416553E+02  0.14753795776E+03  0.12499849240E+03 0.  0.
          5    1    3    3  502    0 -0.27131067087E+02 -0.20781142173E+02  0.95639472249E+02  0.10167078894E+03  0.47000000000E+01 0. -1.
         -5    1    3    3    0  502  0.40413121238E+02  0.24793709467E+00 -0.21176055696E+02  0.45867168823E+02  0.47000000000E+01 0. -1.
        -11    1    1    2    0    0  0.21809690033E+02 -0.10499676029E+02 -0.39121809260E+01  0.24519603089E+02  0.00000000000E+00 0.  1.
         11    1    1    2    0    0 -0.35091744184E+02  0.31032881108E+02  0.98492330231E+02  0.10906516095E+03  0.00000000000E+00 0. -1.
<mgrwt>
<rscale>  0 0.11815885E+03</rscale>
<asrwt>0</asrwt>
<pdfrwt beam="1">  1        2 0.34628176E-01 0.12736816E+03</pdfrwt>
<pdfrwt beam="2">  1       -2 0.86214736E-02 0.12736816E+03</pdfrwt>
<totfact> 0.11770002E+04</totfact>
</mgrwt>
</event>
<event>
 7    1  0.4230786E-006  0.1494356E+03  0.7546771E-02  0.1210343E+00
          1   -1    0    0  501    0  0.00000000000E+00  0.00000000000E+00  0.18247818702E+03  0.18247818702E+03  0.00000000000E+00 0. -1.
         -1   -1    0    0    0  501 -0.00000000000E+00 -0.00000000000E+00 -0.11804810768E+03  0.11804810768E+03  0.00000000000E+00 0.  1.
         23    2    1    2    0    0  0.61521517893E+02  0.54055070339E+02 -0.21185808642E+02  0.15092992609E+03  0.12499662519E+03 0.  0.
          5    1    3    3  502    0 -0.23468316946E+02  0.58677317820E+02 -0.12431649993E+01  0.63383160114E+02  0.47000000000E+01 0. -1.
         -5    1    3    3    0  502  0.84989834839E+02 -0.46222474809E+01 -0.19942643643E+02  0.87546765978E+02  0.47000000000E+01 0. -1.
        -11    1    1    2    0    0 -0.72597492297E+02 -0.70951774360E+02  0.63966915447E+02  0.11998465087E+03  0.00000000000E+00 0.  1.
         11    1    1    2    0    0  0.11075974404E+02  0.16896704021E+02  0.21648972536E+02  0.29611717742E+02  0.00000000000E+00 0. -1.
<mgrwt>
<rscale>  0 0.14224238E+03</rscale>
<asrwt>0</asrwt>
<pdfrwt beam="1">  1        1 0.28073567E-01 0.14943562E+03</pdfrwt>
<pdfrwt beam="2">  1       -1 0.18161247E-01 0.14943562E+03</pdfrwt>
<totfact> 0.37635292E+03</totfact>
</mgrwt>
</event>
<event>
 7    1  0.4230786E-006  0.1258854E+03  0.7546771E-02  0.1248945E+00
         -1   -1    0    0    0  501 -0.00000000000E+00  0.00000000000E+00  0.70953874584E+03  0.70953874584E+03  0.00000000000E+00 0.  1.
          1   -1    0    0  501    0  0.00000000000E+00 -0.00000000000E+00 -0.41231863672E+02  0.41231863672E+02  0.00000000000E+00 0. -1.
         23    2    1    2    0    0 -0.10539862187E+02  0.10633899474E+02  0.64264994630E+03  0.65486340818E+03  0.12499184525E+03 0.  0.
          5    1    3    3  502    0 -0.55329381600E+02  0.30481077954E+02  0.49926557579E+03  0.50326796217E+03  0.47000000000E+01 0. -1.
         -5    1    3    3    0  502  0.44789519414E+02 -0.19847178480E+02  0.14338437051E+03  0.15159544601E+03  0.47000000000E+01 0. -1.
        -11    1    1    2    0    0  0.41510683915E+02 -0.27120435133E+02 -0.43020683222E+01  0.49771102788E+02  0.00000000000E+00 0. -1.
         11    1    1    2    0    0 -0.30970821729E+02  0.16486535660E+02  0.29959004181E+02  0.46136098536E+02  0.00000000000E+00 0.  1.
<mgrwt>
<rscale>  0 0.11652340E+03</rscale>
<asrwt>0</asrwt>
<pdfrwt beam="2">  1        1 0.63433642E-02 0.12588538E+03</pdfrwt>
<pdfrwt beam="1">  1       -1 0.10915980E+00 0.12588538E+03</pdfrwt>
<totfact> 0.97034908E+02</totfact>
</mgrwt>
</event>
<event>
 7    1  0.4230786E-006  0.1949751E+03  0.7546771E-02  0.1158937E+00
         -1   -1    0    0    0  501 -0.00000000000E+00  0.00000000000E+00  0.89841607149E+02  0.89841607149E+02  0.00000000000E+00 0.  1.
          1   -1    0    0  501    0  0.00000000000E+00 -0.00000000000E+00 -0.38244472196E+03  0.38244472196E+03  0.00000000000E+00 0. -1.
         23    2    1    2    0    0  0.29167997009E+02  0.14676890359E+03 -0.13093905336E+03  0.23486239080E+03  0.12499369507E+03 0.  0.
          5    1    3    3  502    0 -0.16301489737E+02  0.48677585004E+02  0.14526338226E+02  0.53556982288E+02  0.47000000000E+01 0. -1.
         -5    1    3    3    0  502  0.45469486747E+02  0.98091318583E+02 -0.14546539159E+03  0.18130540852E+03  0.47000000000E+01 0. -1.
        -11    1    1    2    0    0  0.21385540769E+02 -0.10431438955E+03 -0.11402354537E+03  0.15601346775E+03  0.00000000000E+00 0. -1.
         11    1    1    2    0    0 -0.50553537779E+02 -0.42454514039E+02 -0.47640516084E+02  0.81410470561E+02  0.00000000000E+00 0.  1.
<mgrwt>
<rscale>  0 0.18947326E+03</rscale>
<asrwt>0</asrwt>
<pdfrwt beam="2">  1        1 0.58837648E-01 0.19497514E+03</pdfrwt>
<pdfrwt beam="1">  1       -1 0.13821786E-01 0.19497514E+03</pdfrwt>
<totfact> 0.23242289E+03</totfact>
</mgrwt>
</event>
<event>
 7    1  0.4230786E-006  0.1622512E+03  0.7546771E-02  0.1193683E+00
         -2   -1    0    0    0  501 -0.00000000000E+00  0.00000000000E+00  0.21633486149E+02  0.21633486149E+02  0.00000000000E+00 0.  1.
          2   -1    0    0  501    0  0.00000000000E+00 -0.00000000000E+00 -0.11130391116E+04  0.11130391116E+04  0.00000000000E+00 0. -1.
         23    2    1    2    0    0  0.10162269225E+03  0.19335257853E+02 -0.44099485614E+03  0.46989562784E+03  0.12499765654E+03 0.  0.
          5    1    3    3  502    0  0.89946070090E+02  0.61611008739E+02 -0.23318420991E+03  0.25745519547E+03  0.47000000000E+01 0.  1.
         -5    1    3    3    0  502  0.11676622164E+02 -0.42275750885E+02 -0.20781064623E+03  0.21244043237E+03  0.47000000000E+01 0.  1.
        -11    1    1    2    0    0 -0.93535266624E+02 -0.43931778610E+02 -0.59104030352E+03  0.60000623968E+03  0.00000000000E+00 0. -1.
         11    1    1    2    0    0 -0.80874256294E+01  0.24596520757E+02 -0.59370465826E+02  0.64770730265E+02  0.00000000000E+00 0.  1.
<mgrwt>
<rscale>  0 0.15566180E+03</rscale>
<asrwt>0</asrwt>
<pdfrwt beam="2">  1        2 0.17123676E+00 0.16225116E+03</pdfrwt>
<pdfrwt beam="1">  1       -2 0.33282291E-02 0.16225116E+03</pdfrwt>
<totfact> 0.79629869E+03</totfact>
</mgrwt>
</event>
<event>
 7    1  0.4230786E-006  0.1417240E+03  0.7546771E-02  0.1221973E+00
          1   -1    0    0  501    0  0.00000000000E+00  0.00000000000E+00  0.98079378083E+03  0.98079378083E+03  0.00000000000E+00 0. -1.
         -1   -1    0    0    0  501 -0.00000000000E+00 -0.00000000000E+00 -0.16490492380E+02  0.16490492380E+02  0.00000000000E+00 0.  1.
         23    2    1    2    0    0 -0.28165038260E+02 -0.60561223606E+02  0.52028665971E+03  0.53924383529E+03  0.12499909779E+03 0.  0.
          5    1    3    3  502    0 -0.40287858545E+02 -0.92821039832E+02  0.44390379218E+03  0.45531475233E+03  0.47000000000E+01 0. -1.
         -5    1    3    3    0  502  0.12122820286E+02  0.32259816226E+02  0.76382867531E+02  0.83929082963E+02  0.47000000000E+01 0. -1.
        -11    1    1    2    0    0  0.54999024056E+02  0.35156381649E+02  0.36524668809E+03  0.37103370060E+03  0.00000000000E+00 0. -1.
         11    1    1    2    0    0 -0.26833985796E+02  0.25404841957E+02  0.78769940652E+02  0.87006737319E+02  0.00000000000E+00 0.  1.
<mgrwt>
<rscale>  0 0.13376582E+03</rscale>
<asrwt>0</asrwt>
<pdfrwt beam="1">  1        1 0.15089131E+00 0.14172405E+03</pdfrwt>
<pdfrwt beam="2">  1       -1 0.25369996E-02 0.14172405E+03</pdfrwt>
<totfact> 0.77553435E+03</totfact>
</mgrwt>
</event>
<event>
 7    1  0.4230786E-006  0.1406321E+03  0.7546771E-02  0.1223599E+00
         -1   -1    0    0    0  501 -0.00000000000E+00  0.00000000000E+00  0.12942610411E+04  0.12942610411E+04  0.00000000000E+00 0.  1.
          1   -1    0    0  501    0  0.00000000000E+00 -0.00000000000E+00 -0.14155638787E+02  0.14155638787E+02  0.00000000000E+00 0. -1.
         23    2    1    2    0    0 -0.57470885143E+02 -0.29115496263E+02  0.94285538818E+03  0.95328573033E+03  0.12500714327E+03 0.  0.
          5    1    3    3  502    0  0.28917277390E+02 -0.11156341771E+02  0.53741522080E+03  0.53832878656E+03  0.47000000000E+01 0.  1.
         -5    1    3    3    0  502 -0.86388162533E+02 -0.17959154492E+02  0.40544016738E+03  0.41495694377E+03  0.47000000000E+01 0.  1.
        -11    1    1    2    0    0 -0.96275146856E+01  0.27442036848E+02  0.34939054574E+02  0.45458684098E+02  0.00000000000E+00 0. -1.
         11    1    1    2    0    0  0.67098399829E+02  0.16734594149E+01  0.30231095956E+03  0.30967226546E+03  0.00000000000E+00 0.  1.
<mgrwt>
<rscale>  0 0.13263415E+03</rscale>
<asrwt>0</asrwt>
<pdfrwt beam="2">  1        1 0.21777916E-02 0.14063215E+03</pdfrwt>
<pdfrwt beam="1">  1       -1 0.19911699E+00 0.14063215E+03</pdfrwt>
<totfact> 0.89298128E+02</totfact>
</mgrwt>
</event>
<event>
 7    1  0.4230786E-006  0.1446062E+03  0.7546771E-02  0.1214692E+00
          3   -1    0    0  501    0  0.00000000000E+00  0.00000000000E+00  0.39896170116E+03  0.39896170116E+03  0.00000000000E+00 0. -1.
         -3   -1    0    0    0  501 -0.00000000000E+00 -0.00000000000E+00 -0.60619049565E+02  0.60619049565E+02  0.00000000000E+00 0.  1.
         23    2    1    2    0    0  0.83312426029E+01 -0.72223682524E+02  0.62790380439E+02  0.15765018455E+03  0.12500111556E+03 0.  0.
          5    1    3    3  502    0 -0.10906265645E+02 -0.87194760283E+02  0.86447576026E+02  0.12335779769E+03  0.47000000000E+01 0.  1.
         -5    1    3    3    0  502  0.19237508248E+02  0.14971077759E+02 -0.23657195588E+02  0.34292386851E+02  0.47000000000E+01 0.  1.
        -11    1    1    2    0    0  0.27329633010E+02  0.22573585305E+02  0.23399346570E+02  0.42473580187E+02  0.00000000000E+00 0.  1.
         11    1    1    2    0    0 -0.35660875613E+02  0.49650097219E+02  0.25215292459E+03  0.25945698599E+03  0.00000000000E+00 0. -1.
<mgrwt>
<rscale>  0 0.13899154E+03</rscale>
<asrwt>0</asrwt>
<pdfrwt beam="1">  1        3 0.61378722E-01 0.14460619E+03</pdfrwt>
<pdfrwt beam="2">  1       -3 0.93260079E-02 0.14460619E+03</pdfrwt>
<totfact> 0.50940782E+02</totfact>
</mgrwt>
</event>
<event>
 6    1  0.4230786E-006  0.1821297E+03  0.7546771E-02  0.1193709E+00
         -1   -1    0    0    0  501 -0.00000000000E+00  0.00000000000E+00  0.23980024913E+04  0.23980024913E+04  0.00000000000E+00 0.  1.
          1   -1    0    0  501    0  0.00000000000E+00 -0.00000000000E+00 -0.25644870031E+02  0.25644870031E+02  0.00000000000E+00 0. -1.
          5    1    1    2  502    0 -0.30980948687E+02  0.58112145601E+02  0.39327260420E+03  0.39877596700E+03  0.47000000000E+01 0. -1.
         -5    1    1    2    0  502  0.61613984111E+02 -0.52554921968E+02  0.18940296168E+04  0.18957659619E+04  0.47000000000E+01 0.  1.
        -11    1    1    2    0    0 -0.40777849798E+01 -0.40442255952E+02  0.73134866258E+02  0.83671459049E+02  0.00000000000E+00 0.  1.
         11    1    1    2    0    0 -0.26555250444E+02  0.34885032320E+02  0.11920533977E+02  0.45433973372E+02  0.00000000000E+00 0. -1.
<mgrwt>
<rscale>  0 0.15564003E+03</rscale>
<asrwt>0</asrwt>
<pdfrwt beam="2">  1        1 0.39453665E-02 0.18212966E+03</pdfrwt>
<pdfrwt beam="1">  1       -1 0.36892328E+00 0.18212966E+03</pdfrwt>
<totfact> 0.33399082E+01</totfact>
</mgrwt>
</event>
<event>
 7    1  0.4230786E-006  0.1344709E+03  0.7546771E-02  0.1234235E+00
          3   -1    0    0  501    0  0.00000000000E+00  0.00000000000E+00  0.35599293902E+03  0.35599293902E+03  0.00000000000E+00 0. -1.
         -3   -1    0    0    0  501 -0.00000000000E+00 -0.00000000000E+00 -0.39347666230E+02  0.39347666230E+02  0.00000000000E+00 0.  1.
         23    2    1    2    0    0  0.45356216295E+02 -0.19984552988E+02  0.17425590444E+03  0.22010802733E+03  0.12500341894E+03 0.  0.
          5    1    3    3  502    0 -0.47063353672E+01  0.57778083554E+01 -0.17828689674E+02  0.19886800584E+02  0.47000000000E+01 0.  1.
         -5    1    3    3    0  502  0.50062551663E+02 -0.25762361343E+02  0.19208459412E+03  0.20022122674E+03  0.47000000000E+01 0.  1.
        -11    1    1    2    0    0 -0.30562725447E+02 -0.25963596570E+02  0.22483178010E+02  0.45974795563E+02  0.00000000000E+00 0.  1.
         11    1    1    2    0    0 -0.14793490848E+02  0.45948149558E+02  0.11990619033E+03  0.12925778236E+03  0.00000000000E+00 0. -1.
<mgrwt>
<rscale>  0 0.12553527E+03</rscale>
<asrwt>0</asrwt>
<pdfrwt beam="1">  1        3 0.54768142E-01 0.13447090E+03</pdfrwt>
<pdfrwt beam="2">  1       -3 0.60534873E-02 0.13447090E+03</pdfrwt>
<totfact> 0.12820038E+03</totfact>
</mgrwt>
</event>
<event>
 7    1  0.4230786E-006  0.1582009E+03  0.7546771E-02  0.1198986E+00
          2   -1    0    0  501    0  0.00000000000E+00  0.00000000000E+00  0.97858059667E+02  0.97858059667E+02  0.00000000000E+00 0. -1.
         -2   -1    0    0    0  501 -0.00000000000E+00 -0.00000000000E+00 -0.26800140412E+03  0.26800140412E+03  0.00000000000E+00 0.  1.
         23    2    1    2    0    0  0.57353127937E+02 -0.78143150410E+02 -0.17212822410E+03  0.23378545964E+03  0.12502712652E+03 0.  0.
          5    1    3    3  502    0  0.83714112281E+02 -0.87192974419E+02 -0.10219313504E+03  0.15835464702E+03  0.47000000000E+01 0. -1.
         -5    1    3    3    0  502 -0.26360984344E+02  0.90498240089E+01 -0.69935089066E+02  0.75430812622E+02  0.47000000000E+01 0. -1.
        -11    1    1    2    0    0 -0.50897310370E+01  0.71179787260E+02 -0.21247041000E+02  0.74457398744E+02  0.00000000000E+00 0.  1.
         11    1    1    2    0    0 -0.52263396900E+02  0.69633631493E+01  0.23231920646E+02  0.57616605408E+02  0.00000000000E+00 0. -1.
<mgrwt>
<rscale>  0 0.15121634E+03</rscale>
<asrwt>0</asrwt>
<pdfrwt beam="1">  1        2 0.15055086E-01 0.15820087E+03</pdfrwt>
<pdfrwt beam="2">  1       -2 0.41230984E-01 0.15820087E+03</pdfrwt>
<totfact> 0.21262347E+03</totfact>
</mgrwt>
</event>
<event>
 7    1  0.4230786E-006  0.1253464E+03  0.7546771E-02  0.1249163E+00
          2   -1    0    0  501    0  0.00000000000E+00  0.00000000000E+00  0.16523188075E+03  0.16523188075E+03  0.00000000000E+00 0. -1.
         -2   -1    0    0    0  501 -0.00000000000E+00 -0.00000000000E+00 -0.76989711243E+02  0.76989711243E+02  0.00000000000E+00 0.  1.
         23    2    1    2    0    0  0.50084373680E+01  0.78728897971E+01  0.20522318492E+02  0.12701533595E+03  0.12499865268E+03 0.  0.
          5    1    3    3  502    0  0.92144050478E+01 -0.21894328141E+02  0.67124687770E+02  0.71358815667E+02  0.47000000000E+01 0.  1.
         -5    1    3    3    0  502 -0.42059676798E+01  0.29767217938E+02 -0.46602369278E+02  0.55656520285E+02  0.47000000000E+01 0.  1.
        -11    1    1    2    0    0 -0.13194026668E+02  0.40997597272E+02  0.25108921548E+02  0.49853217178E+02  0.00000000000E+00 0.  1.
         11    1    1    2    0    0  0.81855892996E+01 -0.48870487069E+02  0.42610929468E+02  0.65353038863E+02  0.00000000000E+00 0. -1.
<mgrwt>
<rscale>  0 0.11639642E+03</rscale>
<asrwt>0</asrwt>
<pdfrwt beam="1">  1        2 0.25420289E-01 0.12534644E+03</pdfrwt>
<pdfrwt beam="2">  1       -2 0.11844571E-01 0.12534644E+03</pdfrwt>
<totfact> 0.99756666E+03</totfact>
</mgrwt>
</event>
<event>
 7    1  0.4230786E-006  0.3454478E+03  0.7546771E-02  0.1065531E+00
          2   -1    0    0  501    0  0.00000000000E+00  0.00000000000E+00  0.95948310990E+03  0.95948310990E+03  0.00000000000E+00 0.  1.
         -2   -1    0    0    0  501 -0.00000000000E+00 -0.00000000000E+00 -0.12226765451E+03  0.12226765451E+03  0.00000000000E+00 0. -1.
         23    2    1    2    0    0  0.28169032837E+03  0.15607843038E+03  0.36716045679E+03  0.50412400656E+03  0.12499718170E+03 0.  0.
          5    1    3    3  502    0  0.16106643019E+03  0.11364883680E+03  0.13477628603E+03  0.23884134967E+03  0.47000000000E+01 0. -1.
         -5    1    3    3    0  502  0.12062389819E+03  0.42429593586E+02  0.23238417076E+03  0.26528265689E+03  0.47000000000E+01 0. -1.
        -11    1    1    2    0    0 -0.19959776567E+03 -0.11391634038E+03  0.40165410822E+03  0.46275503597E+03  0.00000000000E+00 0.  1.
         11    1    1    2    0    0 -0.82092562698E+02 -0.42162090001E+02  0.68400890382E+02  0.11487172188E+03  0.00000000000E+00 0. -1.
<mgrwt>
<rscale>  0 0.34298713E+03</rscale>
<asrwt>0</asrwt>
<pdfrwt beam="1">  1        2 0.14761278E+00 0.34544784E+03</pdfrwt>
<pdfrwt beam="2">  1       -2 0.18810409E-01 0.34544784E+03</pdfrwt>
<totfact> 0.64965398E+02</totfact>
</mgrwt>
</event>
<event>
 7    1  0.5723773E-006  0.1518107E+03  0.7546771E-02  0.1206941E+00
          1   -1    0    0  501    0  0.00000000000E+00  0.00000000000E+00  0.27836973251E+03  0.27836973251E+03  0.00000000000E+00 0. -1.
         -1   -1    0    0    0  501 -0.00000000000E+00 -0.00000000000E+00 -0.69383697895E+02  0.69383697895E+02  0.00000000000E+00 0.  1.
         23    2    1    2    0    0 -0.70862547898E+02 -0.48992921819E+02  0.10624473230E+03  0.18529552445E+03  0.12499872463E+03 0.  0.
          5    1    3    3  502    0 -0.88275862520E+02 -0.54089262570E+02  0.31618616009E+02  0.10835175636E+03  0.47000000000E+01 0.  1.
         -5    1    3    3    0  502  0.17413314621E+02  0.50963407505E+01  0.74626116292E+02  0.76943768091E+02  0.47000000000E+01 0.  1.
        -11    1    1    2    0    0  0.30883518120E+02 -0.22458238399E+02  0.11528855647E+02  0.39888327566E+02  0.00000000000E+00 0.  1.
         11    1    1    2    0    0  0.39979029778E+02  0.71451160219E+02  0.91212446671E+02  0.12256957839E+03  0.00000000000E+00 0. -1.
<mgrwt>
<rscale>  0 0.14485557E+03</rscale>
<asrwt>0</asrwt>
<pdfrwt beam="1">  1        1 0.42826112E-01 0.15181070E+03</pdfrwt>
<pdfrwt beam="2">  1       -1 0.10674415E-01 0.15181070E+03</pdfrwt>
<totfact> 0.51145020E+03</totfact>
</mgrwt>
</event>
<event>
 7    1  0.4230786E-006  0.1376407E+03  0.7546771E-02  0.1226490E+00
         -2   -1    0    0    0  501 -0.00000000000E+00  0.00000000000E+00  0.52825331373E+02  0.52825331373E+02  0.00000000000E+00 0.  1.
          2   -1    0    0  501    0  0.00000000000E+00 -0.00000000000E+00 -0.48478781488E+03  0.48478781488E+03  0.00000000000E+00 0. -1.
         23    2    1    2    0    0  0.33619962776E+02  0.46797598267E+02 -0.61667268816E+02  0.15082377217E+03  0.12499856443E+03 0.  0.
          5    1    3    3  502    0 -0.44339047861E+01  0.54736462933E+02  0.21293419042E+02  0.59086712386E+02  0.47000000000E+01 0. -1.
         -5    1    3    3    0  502  0.38053867562E+02 -0.79388646657E+01 -0.82960687859E+02  0.91737059788E+02  0.47000000000E+01 0. -1.
        -11    1    1    2    0    0 -0.32324598198E+02 -0.74646682938E+02 -0.23584776212E+03  0.24948181060E+03  0.00000000000E+00 0.  1.
         11    1    1    2    0    0 -0.12953645780E+01  0.27849084672E+02 -0.13444745257E+03  0.13730756348E+03  0.00000000000E+00 0. -1.
<mgrwt>
<rscale>  0 0.13065302E+03</rscale>
<asrwt>0</asrwt>
<pdfrwt beam="2">  1        2 0.74582743E-01 0.13764069E+03</pdfrwt>
<pdfrwt beam="1">  1       -2 0.81269738E-02 0.13764069E+03</pdfrwt>
<totfact> 0.57210862E+03</totfact>
</mgrwt>
</event>
<event>
 7    1  0.4230786E-006  0.3020137E+03  0.7546771E-02  0.1086156E+00
          2   -1    0    0  501    0  0.00000000000E+00  0.00000000000E+00  0.97969706758E+03  0.97969706758E+03  0.00000000000E+00 0. -1.
         -2   -1    0    0    0  501 -0.00000000000E+00 -0.00000000000E+00 -0.97185638978E+02  0.97185638978E+02  0.00000000000E+00 0.  1.
         23    2    1    2    0    0 -0.32737635049E+02 -0.27297353275E+03  0.29077090536E+03  0.41923736850E+03  0.12500379760E+03 0.  0.
          5    1    3    3  502    0 -0.42406767661E+02 -0.23133082299E+02  0.26075849670E+02  0.55095493247E+02  0.47000000000E+01 0. -1.
         -5    1    3    3    0  502  0.96691326120E+01 -0.24984045045E+03  0.26469505569E+03  0.36414187525E+03  0.47000000000E+01 0. -1.
        -11    1    1    2    0    0  0.58247920203E+01  0.27302505168E+02  0.18751000013E+02  0.33629674277E+02  0.00000000000E+00 0. -1.
         11    1    1    2    0    0  0.26912843029E+02  0.24567102758E+03  0.57298952323E+03  0.62401566378E+03  0.00000000000E+00 0.  1.
<mgrwt>
<rscale>  0 0.29817530E+03</rscale>
<asrwt>0</asrwt>
<pdfrwt beam="1">  1        2 0.15072262E+00 0.30201366E+03</pdfrwt>
<pdfrwt beam="2">  1       -2 0.14951637E-01 0.30201366E+03</pdfrwt>
<totfact> 0.93112863E+02</totfact>
</mgrwt>
</event>
<event>
 7    1  0.4230786E-006  0.1576811E+03  0.7546771E-02  0.1199334E+00
          2   -1    0    0  501    0  0.00000000000E+00  0.00000000000E+00  0.50416451061E+03  0.50416451061E+03  0.00000000000E+00 0. -1.
         -2   -1    0    0    0  501 -0.00000000000E+00 -0.00000000000E+00 -0.54534277663E+02  0.54534277663E+02  0.00000000000E+00 0.  1.
         23    2    1    2    0    0 -0.96081296744E+02 -0.28880072474E+01  0.10478517204E+03  0.18932318327E+03  0.12499351694E+03 0.  0.
          5    1    3    3  502    0 -0.79519495688E+02  0.70626802006E+01  0.13276939642E+03  0.15499365882E+03  0.47000000000E+01 0. -1.
         -5    1    3    3    0  502 -0.16561801056E+02 -0.99506874480E+01 -0.27984224389E+02  0.34329524459E+02  0.47000000000E+01 0. -1.
        -11    1    1    2    0    0  0.66765816259E+02  0.31779684252E+02  0.29790975252E+03  0.30694925183E+03  0.00000000000E+00 0. -1.
         11    1    1    2    0    0  0.29315480485E+02 -0.28891677005E+02  0.46935308392E+02  0.62426353170E+02  0.00000000000E+00 0.  1.
<mgrwt>
<rscale>  0 0.15093057E+03</rscale>
<asrwt>0</asrwt>
<pdfrwt beam="1">  1        2 0.77563768E-01 0.15768112E+03</pdfrwt>
<pdfrwt beam="2">  1       -2 0.83898892E-02 0.15768112E+03</pdfrwt>
<totfact> 0.52530004E+03</totfact>
</mgrwt>
</event>
<event>
 7    1  0.4230786E-006  0.1260519E+03  0.7546771E-02  0.1247383E+00
          2   -1    0    0  501    0  0.00000000000E+00  0.00000000000E+00  0.39677324429E+03  0.39677324429E+03  0.00000000000E+00 0. -1.
         -2   -1    0    0    0  501 -0.00000000000E+00 -0.00000000000E+00 -0.30932229791E+02  0.30932229791E+02  0.00000000000E+00 0.  1.
         23    2    1    2    0    0  0.26470988236E+01  0.16050301919E+02  0.22333360648E+03  0.25645072922E+03  0.12499782962E+03 0.  0.
          5    1    3    3  502    0 -0.19501825913E+02  0.65849875630E+02  0.98641378157E+02  0.12028607076E+03  0.47000000000E+01 0. -1.
         -5    1    3    3    0  502  0.22148924736E+02 -0.49799573711E+02  0.12469222832E+03  0.13616465846E+03  0.47000000000E+01 0. -1.
        -11    1    1    2    0    0 -0.55817062605E+01 -0.40431408181E+02  0.18451924676E+02  0.44792049926E+02  0.00000000000E+00 0.  1.
         11    1    1    2    0    0  0.29346074369E+01  0.24381106262E+02  0.12405548335E+03  0.12646269494E+03  0.00000000000E+00 0. -1.
<mgrwt>
<rscale>  0 0.11743884E+03</rscale>
<asrwt>0</asrwt>
<pdfrwt beam="1">  1        2 0.61042034E-01 0.12605188E+03</pdfrwt>
<pdfrwt beam="2">  1       -2 0.47588048E-02 0.12605188E+03</pdfrwt>
<totfact> 0.15909657E+04</totfact>
</mgrwt>
</event>
<event>
 7    1  0.4230786E-006  0.1307154E+03  0.7546771E-02  0.1239418E+00
          1   -1    0    0  501    0  0.00000000000E+00  0.00000000000E+00  0.59402766631E+02  0.59402766631E+02  0.00000000000E+00 0. -1.
         -1   -1    0    0    0  501 -0.00000000000E+00 -0.00000000000E+00 -0.29199591227E+03  0.29199591227E+03  0.00000000000E+00 0.  1.
         23    2    1    2    0    0 -0.33448021555E+02 -0.20135332408E+02 -0.21232541787E+03  0.24933629148E+03  0.12474895359E+03 0.  0.
          5    1    3    3  502    0 -0.39221566398E+02  0.40721174112E+02 -0.49290526155E+02  0.75154449372E+02  0.47000000000E+01 0.  1.
         -5    1    3    3    0  502  0.57735448424E+01 -0.60856506520E+02 -0.16303489171E+03  0.17418184211E+03  0.47000000000E+01 0.  1.
        -11    1    1    2    0    0  0.29022183169E+02 -0.74089231167E+01 -0.51876784122E+02  0.59903088305E+02  0.00000000000E+00 0.  1.
         11    1    1    2    0    0  0.44258383861E+01  0.27544255525E+02  0.31609056354E+02  0.42159299110E+02  0.00000000000E+00 0. -1.
<mgrwt>
<rscale>  0 0.12225799E+03</rscale>
<asrwt>0</asrwt>
<pdfrwt beam="1">  1        1 0.91388871E-02 0.13071535E+03</pdfrwt>
<pdfrwt beam="2">  1       -1 0.44922448E-01 0.13071535E+03</pdfrwt>
<totfact> 0.34806102E+03</totfact>
</mgrwt>
</event>
<event>
 7    1  0.4230786E-006  0.1525479E+03  0.7546771E-02  0.1206561E+00
         -1   -1    0    0    0  501 -0.00000000000E+00  0.00000000000E+00  0.18652098566E+03  0.18652098566E+03  0.00000000000E+00 0.  1.
          1   -1    0    0  501    0  0.00000000000E+00 -0.00000000000E+00 -0.13426677286E+03  0.13426677286E+03  0.00000000000E+00 0. -1.
         23    2    1    2    0    0 -0.78433522806E+02  0.38677630347E+02  0.10487845222E+03  0.18512254773E+03  0.12499236516E+03 0.  0.
          5    1    3    3  502    0 -0.70251654482E+02  0.81490724855E+02  0.64573187827E+02  0.12556997962E+03  0.47000000000E+01 0. -1.
         -5    1    3    3    0  502 -0.81818683241E+01 -0.42813094508E+02  0.40305264394E+02  0.59552568110E+02  0.47000000000E+01 0. -1.
        -11    1    1    2    0    0  0.75405019637E+02 -0.52259530227E+02 -0.11757661743E+02  0.92494421970E+02  0.00000000000E+00 0.  1.
         11    1    1    2    0    0  0.30285031697E+01  0.13581899880E+02 -0.40866577686E+02  0.43170788823E+02  0.00000000000E+00 0. -1.
<mgrwt>
<rscale>  0 0.14515083E+03</rscale>
<asrwt>0</asrwt>
<pdfrwt beam="2">  1        1 0.20656427E-01 0.15254792E+03</pdfrwt>
<pdfrwt beam="1">  1       -1 0.28695536E-01 0.15254792E+03</pdfrwt>
<totfact> 0.26291908E+03</totfact>
</mgrwt>
</event>
<event>
 7    1  0.4230786E-006  0.1813764E+03  0.7546771E-02  0.1172551E+00
         -2   -1    0    0    0  501 -0.00000000000E+00  0.00000000000E+00  0.11655854367E+03  0.11655854367E+03  0.00000000000E+00 0.  1.
          2   -1    0    0  501    0  0.00000000000E+00 -0.00000000000E+00 -0.27278731874E+03  0.27278731874E+03  0.00000000000E+00 0. -1.
         23    2    1    2    0    0 -0.54701070497E+02 -0.11959142985E+03 -0.23054910592E+02  0.18283581908E+03  0.12491233178E+03 0.  0.
          5    1    3    3  502    0 -0.35411500257E+02 -0.88290398180E+02  0.45001917550E+02  0.10533960008E+03  0.47000000000E+01 0.  1.
         -5    1    3    3    0  502 -0.19289570240E+02 -0.31301031666E+02 -0.68056828143E+02  0.77496219006E+02  0.47000000000E+01 0.  1.
        -11    1    1    2    0    0  0.22162661514E+02  0.57016812311E+02 -0.12009701484E+03  0.13477905410E+03  0.00000000000E+00 0.  1.
         11    1    1    2    0    0  0.32538408983E+02  0.62574617535E+02 -0.13076849638E+02  0.71730989225E+02  0.00000000000E+00 0. -1.
<mgrwt>
<rscale>  0 0.17518011E+03</rscale>
<asrwt>0</asrwt>
<pdfrwt beam="2">  1        2 0.41967279E-01 0.18137643E+03</pdfrwt>
<pdfrwt beam="1">  1       -2 0.17932084E-01 0.18137643E+03</pdfrwt>
<totfact> 0.30132085E+03</totfact>
</mgrwt>
</event>
<event>
 6    1  0.4230786E-006  0.1640272E+03  0.7546771E-02  0.1206506E+00
         -1   -1    0    0    0  501 -0.00000000000E+00  0.00000000000E+00  0.14493332074E+04  0.14493332074E+04  0.00000000000E+00 0.  1.
          1   -1    0    0  501    0  0.00000000000E+00 -0.00000000000E+00 -0.15732360435E+02  0.15732360435E+02  0.00000000000E+00 0. -1.
          5    1    1    2  502    0  0.29526417737E+02  0.77051565907E+02  0.75065871993E+03  0.75519491323E+03  0.47000000000E+01 0. -1.
         -5    1    1    2    0  502  0.13556010529E+02 -0.75868691439E+02  0.44257516040E+03  0.44926015443E+03  0.47000000000E+01 0.  1.
        -11    1    1    2    0    0 -0.12659819416E+02  0.43067105057E+02  0.83415568385E+02  0.94726995173E+02  0.00000000000E+00 0. -1.
         11    1    1    2    0    0 -0.30422608851E+02 -0.44249979525E+02  0.15695139820E+03  0.16588350495E+03  0.00000000000E+00 0.  1.
<mgrwt>
<rscale>  0 0.14519442E+03</rscale>
<asrwt>0</asrwt>
<pdfrwt beam="2">  1        1 0.24203643E-02 0.16402718E+03</pdfrwt>
<pdfrwt beam="1">  1       -1 0.22297423E+00 0.16402718E+03</pdfrwt>
<totfact> 0.54163573E+02</totfact>
</mgrwt>
</event>
<event>
 7    1  0.4230786E-006  0.2316803E+03  0.7546771E-02  0.1129343E+00
         -1   -1    0    0    0  501 -0.00000000000E+00  0.00000000000E+00  0.33388788662E+03  0.33388788662E+03  0.00000000000E+00 0.  1.
          1   -1    0    0  501    0  0.00000000000E+00 -0.00000000000E+00 -0.14659367325E+03  0.14659367325E+03  0.00000000000E+00 0. -1.
         23    2    1    2    0    0 -0.12573386624E+03 -0.14913857685E+03  0.10648865811E+03  0.25498151962E+03  0.12499768325E+03 0.  0.
          5    1    3    3  502    0 -0.94378056799E+02 -0.97980989365E+02  0.13199767374E+03  0.18961267826E+03  0.47000000000E+01 0.  1.
         -5    1    3    3    0  502 -0.31355809445E+02 -0.51157587481E+02 -0.25509015632E+02  0.65368841365E+02  0.47000000000E+01 0.  1.
        -11    1    1    2    0    0  0.36119199046E+02  0.74283898510E+02  0.69936754174E+02  0.10823051188E+03  0.00000000000E+00 0.  1.
         11    1    1    2    0    0  0.89614667197E+02  0.74854678336E+02  0.10868801081E+02  0.11726952836E+03  0.00000000000E+00 0. -1.
<mgrwt>
<rscale>  0 0.22620002E+03</rscale>
<asrwt>0</asrwt>
<pdfrwt beam="2">  1        1 0.22552873E-01 0.23168026E+03</pdfrwt>
<pdfrwt beam="1">  1       -1 0.51367367E-01 0.23168026E+03</pdfrwt>
<totfact> 0.85333905E+02</totfact>
</mgrwt>
</event>
<event>
 7    1  0.4230786E-006  0.1383246E+03  0.7546771E-02  0.1226819E+00
          2   -1    0    0  501    0  0.00000000000E+00  0.00000000000E+00  0.30577237665E+02  0.30577237665E+02  0.00000000000E+00 0.  1.
         -2   -1    0    0    0  501 -0.00000000000E+00 -0.00000000000E+00 -0.52783525245E+03  0.52783525245E+03  0.00000000000E+00 0. -1.
         23    2    1    2    0    0  0.15575551745E+02 -0.57145094818E+02 -0.33818568684E+03  0.36538097462E+03  0.12500215260E+03 0.  0.
          5    1    3    3  502    0  0.52850509359E+02  0.32758817642E+01 -0.69881345446E+02  0.87803190045E+02  0.47000000000E+01 0.  1.
         -5    1    3    3    0  502 -0.37274957615E+02 -0.60420976583E+02 -0.26830434139E+03  0.27757778457E+03  0.47000000000E+01 0.  1.
        -11    1    1    2    0    0 -0.25645446340E+02 -0.17798581460E+02 -0.66791520092E+02  0.73726423866E+02  0.00000000000E+00 0. -1.
         11    1    1    2    0    0  0.10069894595E+02  0.74943676278E+02 -0.92280807857E+02  0.11930509163E+03  0.00000000000E+00 0.  1.
<mgrwt>
<rscale>  0 0.13043018E+03</rscale>
<asrwt>0</asrwt>
<pdfrwt beam="1">  1        2 0.47041908E-02 0.13832461E+03</pdfrwt>
<pdfrwt beam="2">  1       -2 0.81205416E-01 0.13832461E+03</pdfrwt>
<totfact> 0.22564547E+03</totfact>
</mgrwt>
</event>
<event>
 7    1  0.4230786E-006  0.1785399E+03  0.7546771E-02  0.1176178E+00
          1   -1    0    0  501    0  0.00000000000E+00  0.00000000000E+00  0.78851934233E+03  0.78851934233E+03  0.00000000000E+00 0. -1.
         -1   -1    0    0    0  501 -0.00000000000E+00 -0.00000000000E+00 -0.39554665537E+02  0.39554665537E+02  0.00000000000E+00 0.  1.
         23    2    1    2    0    0  0.18846196000E+02  0.12610651088E+03  0.25614578185E+03  0.31222934498E+03  0.12497388176E+03 0.  0.
          5    1    3    3  502    0  0.21623519532E+02 -0.17421221384E+02  0.80792410656E+02  0.85560383187E+02  0.47000000000E+01 0.  1.
         -5    1    3    3    0  502 -0.27773235314E+01  0.14352773226E+03  0.17535337119E+03  0.22666896180E+03  0.47000000000E+01 0.  1.
        -11    1    1    2    0    0 -0.36177946898E+00 -0.67646809921E+02  0.39239476356E+03  0.39818321442E+03  0.00000000000E+00 0. -1.
         11    1    1    2    0    0 -0.18484416531E+02 -0.58459700954E+02  0.10042413139E+03  0.11766144847E+03  0.00000000000E+00 0.  1.
<mgrwt>
<rscale>  0 0.17161157E+03</rscale>
<asrwt>0</asrwt>
<pdfrwt beam="1">  1        1 0.12131066E+00 0.17853992E+03</pdfrwt>
<pdfrwt beam="2">  1       -1 0.60853338E-02 0.17853992E+03</pdfrwt>
<totfact> 0.30452315E+03</totfact>
</mgrwt>
</event>
<event>
 7    1  0.4230786E-006  0.1357616E+03  0.7546771E-02  0.1231338E+00
         -2   -1    0    0    0  501 -0.00000000000E+00  0.00000000000E+00  0.95043160265E+02  0.95043160265E+02  0.00000000000E+00 0. -1.
          2   -1    0    0  501    0  0.00000000000E+00 -0.00000000000E+00 -0.15531406641E+03  0.15531406641E+03  0.00000000000E+00 0.  1.
         23    2    1    2    0    0  0.49163850974E+02 -0.19734532286E+02 -0.49347572228E+02  0.14445204273E+03  0.12499869502E+03 0.  0.
          5    1    3    3  502    0  0.25704543538E+02  0.48826682561E+02  0.21633474040E+01  0.55421462994E+02  0.47000000000E+01 0.  1.
         -5    1    3    3    0  502  0.23459307436E+02 -0.68561214847E+02 -0.51510919632E+02  0.89030579736E+02  0.47000000000E+01 0.  1.
        -11    1    1    2    0    0 -0.30683873747E+02 -0.29576546231E+02 -0.27473347760E+02  0.50705591725E+02  0.00000000000E+00 0.  1.
         11    1    1    2    0    0 -0.18479977227E+02  0.49311078517E+02  0.16550013844E+02  0.55199592218E+02  0.00000000000E+00 0. -1.
<mgrwt>
<rscale>  0 0.12741817E+03</rscale>
<asrwt>0</asrwt>
<pdfrwt beam="2">  1        2 0.23894471E-01 0.13576159E+03</pdfrwt>
<pdfrwt beam="1">  1       -2 0.14622025E-01 0.13576159E+03</pdfrwt>
<totfact> 0.76557839E+03</totfact>
</mgrwt>
</event>
<event>
 7    1  0.4230786E-006  0.1304486E+03  0.7546771E-02  0.1240240E+00
         -3   -1    0    0    0  501 -0.00000000000E+00  0.00000000000E+00  0.49120072586E+02  0.49120072586E+02  0.00000000000E+00 0.  1.
          3   -1    0    0  501    0  0.00000000000E+00 -0.00000000000E+00 -0.27079241865E+03  0.27079241865E+03  0.00000000000E+00 0. -1.
         23    2    1    2    0    0 -0.32954444215E+02  0.17542947259E+02 -0.10949521346E+03  0.17031161170E+03  0.12499237144E+03 0.  0.
          5    1    3    3  502    0  0.25745905979E+02 -0.64622037775E+01 -0.10290581805E+03  0.10637814221E+03  0.47000000000E+01 0. -1.
         -5    1    3    3    0  502 -0.58700350194E+02  0.24005151037E+02 -0.65893954081E+01  0.63933469490E+02  0.47000000000E+01 0. -1.
        -11    1    1    2    0    0 -0.76997367569E+01  0.31341603706E+02 -0.21219299335E+02  0.38624354147E+02  0.00000000000E+00 0.  1.
         11    1    1    2    0    0  0.40654180972E+02 -0.48884550965E+02 -0.90957833273E+02  0.11097652539E+03  0.00000000000E+00 0. -1.
<mgrwt>
<rscale>  0 0.12174880E+03</rscale>
<asrwt>0</asrwt>
<pdfrwt beam="2">  1        3 0.41660373E-01 0.13044862E+03</pdfrwt>
<pdfrwt beam="1">  1       -3 0.75569341E-02 0.13044862E+03</pdfrwt>
<totfact> 0.15341546E+03</totfact>
</mgrwt>
</event>
<event>
 7    1  0.4230786E-006  0.1282041E+03  0.7546771E-02  0.1243938E+00
          1   -1    0    0  501    0  0.00000000000E+00  0.00000000000E+00  0.60666025028E+03  0.60666025028E+03  0.00000000000E+00 0. -1.
         -1   -1    0    0    0  501 -0.00000000000E+00 -0.00000000000E+00 -0.20854345124E+02  0.20854345124E+02  0.00000000000E+00 0.  1.
         23    2    1    2    0    0  0.27539617540E+02  0.68652549521E+01  0.33158072265E+03  0.35550257004E+03  0.12502295553E+03 0.  0.
          5    1    3    3  502    0 -0.81056730768E+01 -0.21992677641E+02  0.29677616770E+03  0.29773740699E+03  0.47000000000E+01 0. -1.
         -5    1    3    3    0  502  0.35645290616E+02  0.28857932593E+02  0.34804554954E+02  0.57765163050E+02  0.47000000000E+01 0. -1.
        -11    1    1    2    0    0 -0.23374488531E+02  0.27943396735E+02  0.22007855678E+03  0.22307346613E+03  0.00000000000E+00 0. -1.
         11    1    1    2    0    0 -0.41651290080E+01 -0.34808651687E+02  0.34146625715E+02  0.48938559231E+02  0.00000000000E+00 0.  1.
<mgrwt>
<rscale>  0 0.11949138E+03</rscale>
<asrwt>0</asrwt>
<pdfrwt beam="1">  1        1 0.93332333E-01 0.12820414E+03</pdfrwt>
<pdfrwt beam="2">  1       -1 0.32083612E-02 0.12820414E+03</pdfrwt>
<totfact> 0.11230075E+04</totfact>
</mgrwt>
</event>
<event>
 7    1  0.4230786E-006  0.2303229E+03  0.7546771E-02  0.1129295E+00
          2   -1    0    0  501    0  0.00000000000E+00  0.00000000000E+00  0.74054510304E+03  0.74054510304E+03  0.00000000000E+00 0. -1.
         -2   -1    0    0    0  501 -0.00000000000E+00 -0.00000000000E+00 -0.67994868699E+02  0.67994868699E+02  0.00000000000E+00 0.  1.
         23    2    1    2    0    0 -0.14278146892E+03  0.13052936450E+03  0.29457301192E+03  0.37392769285E+03  0.12499678904E+03 0.  0.
          5    1    3    3  502    0 -0.17023331645E+01  0.16434648613E+02 -0.96295598936E+01  0.19692994617E+02  0.47000000000E+01 0. -1.
         -5    1    3    3    0  502 -0.14107913576E+03  0.11409471589E+03  0.30420257181E+03  0.35423469824E+03  0.47000000000E+01 0. -1.
        -11    1    1    2    0    0  0.59857112822E+02 -0.10824987785E+03  0.26729054524E+03  0.29452528853E+03  0.00000000000E+00 0.  1.
         11    1    1    2    0    0  0.82924356100E+02 -0.22279486650E+02  0.11068667719E+03  0.14008699035E+03  0.00000000000E+00 0. -1.
<mgrwt>
<rscale>  0 0.22626765E+03</rscale>
<asrwt>0</asrwt>
<pdfrwt beam="1">  1        2 0.11393001E+00 0.23032295E+03</pdfrwt>
<pdfrwt beam="2">  1       -2 0.10460750E-01 0.23032295E+03</pdfrwt>
<totfact> 0.24039152E+03</totfact>
</mgrwt>
</event>
<event>
 7    1  0.4230786E-006  0.1417373E+03  0.7546771E-02  0.1221960E+00
         -2   -1    0    0    0  501 -0.00000000000E+00  0.00000000000E+00  0.35172949061E+02  0.35172949061E+02  0.00000000000E+00 0.  1.
          2   -1    0    0  501    0  0.00000000000E+00 -0.00000000000E+00 -0.52859788806E+03  0.52859788806E+03  0.00000000000E+00 0. -1.
         23    2    1    2    0    0 -0.61768553711E+02 -0.25468591555E+02 -0.16993124348E+03  0.22128283702E+03  0.12500185225E+03 0.  0.
          5    1    3    3  502    0 -0.69180882077E+02 -0.27965166607E+02 -0.18729525486E+03  0.20166717007E+03  0.47000000000E+01 0.  1.
         -5    1    3    3    0  502  0.74123283659E+01  0.24965750522E+01  0.17364011381E+02  0.19615666954E+02  0.47000000000E+01 0.  1.
        -11    1    1    2    0    0  0.14929213707E+02  0.41718455562E+02 -0.61237127807E+02  0.75586353123E+02  0.00000000000E+00 0.  1.
         11    1    1    2    0    0  0.46839340004E+02 -0.16249864007E+02 -0.26225656771E+03  0.26690164698E+03  0.00000000000E+00 0. -1.
<mgrwt>
<rscale>  0 0.13377466E+03</rscale>
<asrwt>0</asrwt>
<pdfrwt beam="2">  1        2 0.81322758E-01 0.14173731E+03</pdfrwt>
<pdfrwt beam="1">  1       -2 0.54112226E-02 0.14173731E+03</pdfrwt>
<totfact> 0.96950070E+03</totfact>
</mgrwt>
</event>
<event>
 7    1  0.4230786E-006  0.1317700E+03  0.7546771E-02  0.1238365E+00
         -3   -1    0    0    0  501 -0.00000000000E+00  0.00000000000E+00  0.24613272892E+03  0.24613272892E+03  0.00000000000E+00 0.  1.
          3   -1    0    0  501    0  0.00000000000E+00 -0.00000000000E+00 -0.69296801646E+02  0.69296801646E+02  0.00000000000E+00 0. -1.
         23    2    1    2    0    0  0.17166986542E+02 -0.37989263946E+02  0.17047607699E+03  0.21546560744E+03  0.12500178223E+03 0.  0.
          5    1    3    3  502    0  0.34392244894E+02  0.26551339297E+02  0.13016086763E+03  0.13730164453E+03  0.47000000000E+01 0.  1.
         -5    1    3    3    0  502 -0.17225258352E+02 -0.64540603243E+02  0.40315209355E+02  0.78163962909E+02  0.47000000000E+01 0.  1.
        -11    1    1    2    0    0 -0.41911991513E+02  0.13440322881E+02  0.33887547927E+02  0.55548386261E+02  0.00000000000E+00 0.  1.
         11    1    1    2    0    0  0.24745004971E+02  0.24548941066E+02 -0.27527697636E+02  0.44415536871E+02  0.00000000000E+00 0. -1.
<mgrwt>
<rscale>  0 0.12291449E+03</rscale>
<asrwt>0</asrwt>
<pdfrwt beam="2">  1        3 0.10661047E-01 0.13177001E+03</pdfrwt>
<pdfrwt beam="1">  1       -3 0.37866573E-01 0.13177001E+03</pdfrwt>
<totfact> 0.10502866E+03</totfact>
</mgrwt>
</event>
<event>
 7    1  0.4230786E-006  0.1532652E+03  0.7546771E-02  0.1205011E+00
         -2   -1    0    0    0  501 -0.00000000000E+00  0.00000000000E+00  0.79866939985E+02  0.79866939985E+02  0.00000000000E+00 0.  1.
          2   -1    0    0  501    0  0.00000000000E+00 -0.00000000000E+00 -0.27062478758E+03  0.27062478758E+03  0.00000000000E+00 0. -1.
         23    2    1    2    0    0 -0.45240351284E+02  0.76279299159E+02 -0.51470703901E+02  0.16167699466E+03  0.12499998552E+03 0.  0.
          5    1    3    3  502    0 -0.37071210634E+02  0.60047935727E+02 -0.92569258091E+02  0.11649543676E+03  0.47000000000E+01 0. -1.
         -5    1    3    3    0  502 -0.81691406505E+01  0.16231363432E+02  0.41098554191E+02  0.45181557902E+02  0.47000000000E+01 0. -1.
        -11    1    1    2    0    0 -0.64160055998E+01 -0.49247306730E+02 -0.15567698981E+02  0.52046283244E+02  0.00000000000E+00 0.  1.
         11    1    1    2    0    0  0.51656356884E+02 -0.27031992430E+02 -0.12371944471E+03  0.13676844966E+03  0.00000000000E+00 0. -1.
<mgrwt>
<rscale>  0 0.14636580E+03</rscale>
<asrwt>0</asrwt>
<pdfrwt beam="2">  1        2 0.41634583E-01 0.15326519E+03</pdfrwt>
<pdfrwt beam="1">  1       -2 0.12287221E-01 0.15326519E+03</pdfrwt>
<totfact> 0.56032451E+03</totfact>
</mgrwt>
</event>
<event>
 7    1  0.4230786E-006  0.1559459E+03  0.7546771E-02  0.1202668E+00
          2   -1    0    0  501    0  0.00000000000E+00  0.00000000000E+00  0.32152688337E+03  0.32152688337E+03  0.00000000000E+00 0. -1.
         -2   -1    0    0    0  501 -0.00000000000E+00 -0.00000000000E+00 -0.63803977700E+02  0.63803977700E+02  0.00000000000E+00 0.  1.
         23    2    1    2    0    0 -0.24742409474E+02  0.89888808066E+02  0.11292893827E+03  0.19254111660E+03  0.12500780713E+03 0.  0.
          5    1    3    3  502    0  0.33422754000E+02  0.43145224700E+02  0.10360375109E+03  0.11719393389E+03  0.47000000000E+01 0. -1.
         -5    1    3    3    0  502 -0.58165163475E+02  0.46743583365E+02  0.93251871752E+01  0.75347182719E+02  0.47000000000E+01 0. -1.
        -11    1    1    2    0    0 -0.22480804285E+02 -0.69623381370E+02  0.10411003301E+03  0.12724661397E+03  0.00000000000E+00 0.  1.
         11    1    1    2    0    0  0.47223213760E+02 -0.20265426696E+02  0.40683934396E+02  0.65543130494E+02  0.00000000000E+00 0. -1.
<mgrwt>
<rscale>  0 0.14822744E+03</rscale>
<asrwt>0</asrwt>
<pdfrwt beam="1">  1        2 0.49465673E-01 0.15594594E+03</pdfrwt>
<pdfrwt beam="2">  1       -2 0.98159967E-02 0.15594594E+03</pdfrwt>
<totfact> 0.66711148E+03</totfact>
</mgrwt>
</event>
<event>
 7    1  0.4230786E-006  0.1463567E+03  0.7546771E-02  0.1214851E+00
         -1   -1    0    0    0  501 -0.00000000000E+00  0.00000000000E+00  0.18753977591E+03  0.18753977591E+03  0.00000000000E+00 0.  1.
          1   -1    0    0  501    0  0.00000000000E+00 -0.00000000000E+00 -0.95193074131E+02  0.95193074131E+02  0.00000000000E+00 0. -1.
         23    2    1    2    0    0 -0.65334668972E+02  0.39028598162E+02  0.69020770688E+02  0.16181521303E+03  0.12501378299E+03 0.  0.
          5    1    3    3  502    0 -0.60886654740E+02  0.55462738349E+02  0.97863182285E+02  0.12799450190E+03  0.47000000000E+01 0. -1.
         -5    1    3    3    0  502 -0.44480142322E+01 -0.16434140186E+02 -0.28842411598E+02  0.33820711126E+02  0.47000000000E+01 0. -1.
        -11    1    1    2    0    0 -0.96592981348E+01  0.13742861083E+02 -0.14043991600E+02  0.21895249970E+02  0.00000000000E+00 0. -1.
         11    1    1    2    0    0  0.74993967107E+02 -0.52771459245E+02  0.37369922690E+02  0.99022387040E+02  0.00000000000E+00 0.  1.
<mgrwt>
<rscale>  0 0.13887473E+03</rscale>
<asrwt>0</asrwt>
<pdfrwt beam="2">  1        1 0.14645088E-01 0.14635674E+03</pdfrwt>
<pdfrwt beam="1">  1       -1 0.28852273E-01 0.14635674E+03</pdfrwt>
<totfact> 0.40459860E+03</totfact>
</mgrwt>
</event>
<event>
 7    1  0.4230786E-006  0.2668297E+03  0.7546771E-02  0.1105017E+00
          4   -1    0    0  501    0  0.00000000000E+00  0.00000000000E+00  0.10111280631E+03  0.10111280631E+03  0.00000000000E+00 0. -1.
         -4   -1    0    0    0  501 -0.00000000000E+00 -0.00000000000E+00 -0.67794603655E+03  0.67794603655E+03  0.00000000000E+00 0.  1.
         23    2    1    2    0    0 -0.20029997729E+03 -0.12427716461E+03 -0.33551609411E+03  0.42868301105E+03  0.12503271576E+03 0.  0.
          5    1    3    3  502    0 -0.19511438715E+03 -0.11935012802E+03 -0.34622165221E+03  0.41497662536E+03  0.47000000000E+01 0. -1.
         -5    1    3    3    0  502 -0.51855901380E+01 -0.49270365957E+01  0.10705558098E+02  0.13706385697E+02  0.47000000000E+01 0. -1.
        -11    1    1    2    0    0  0.19931127119E+03  0.10918765993E+03 -0.24564517088E+03  0.33464679571E+03  0.00000000000E+00 0.  1.
         11    1    1    2    0    0  0.98870610281E+00  0.15089504683E+02  0.43280347549E+01  0.15729036086E+02  0.00000000000E+00 0. -1.
<mgrwt>
<rscale>  0 0.26356952E+03</rscale>
<asrwt>0</asrwt>
<pdfrwt beam="1">  1        4 0.15555817E-01 0.26682967E+03</pdfrwt>
<pdfrwt beam="2">  1       -4 0.10429939E+00 0.26682967E+03</pdfrwt>
<totfact> 0.50221330E+01</totfact>
</mgrwt>
</event>
<event>
 6    1  0.4230786E-006  0.3024972E+03  0.7546771E-02  0.1126895E+00
         -2   -1    0    0    0  501 -0.00000000000E+00  0.00000000000E+00  0.60583807398E+02  0.60583807398E+02  0.00000000000E+00 0.  1.
          2   -1    0    0  501    0  0.00000000000E+00 -0.00000000000E+00 -0.72946416451E+03  0.72946416451E+03  0.00000000000E+00 0. -1.
          5    1    1    2  502    0  0.10925251996E+03  0.10319904470E+03 -0.32204422330E+03  0.35541627383E+03  0.47000000000E+01 0. -1.
         -5    1    1    2    0  502 -0.80002217188E+02 -0.89503274739E+02 -0.67552389938E+02  0.13782817684E+03  0.47000000000E+01 0.  1.
        -11    1    1    2    0    0 -0.17210279879E+02 -0.54236902994E+02 -0.13641858861E+03  0.14781023882E+03  0.00000000000E+00 0.  1.
         11    1    1    2    0    0 -0.12040022889E+02  0.40541133033E+02 -0.14286515526E+03  0.14899328242E+03  0.00000000000E+00 0. -1.
<mgrwt>
<rscale>  0 0.22963768E+03</rscale>
<asrwt>0</asrwt>
<pdfrwt beam="2">  1        2 0.11222525E+00 0.30249722E+03</pdfrwt>
<pdfrwt beam="1">  1       -2 0.93205859E-02 0.30249722E+03</pdfrwt>
<totfact> 0.29586540E+03</totfact>
</mgrwt>
</event>
<event>
 7    1  0.4230786E-006  0.1395573E+03  0.7546771E-02  0.1225216E+00
         -2   -1    0    0    0  501 -0.00000000000E+00  0.00000000000E+00  0.11453763410E+03  0.11453763410E+03  0.00000000000E+00 0.  1.
          2   -1    0    0  501    0  0.00000000000E+00 -0.00000000000E+00 -0.16204689791E+03  0.16204689791E+03  0.00000000000E+00 0. -1.
         23    2    1    2    0    0  0.61731103616E+02  0.64588803262E+01  0.28982236142E+02  0.14253496819E+03  0.12499520333E+03 0.  0.
          5    1    3    3  502    0  0.13534731213E+02  0.52963357848E+02  0.47843472258E+02  0.72796937169E+02  0.47000000000E+01 0. -1.
         -5    1    3    3    0  502  0.48196372403E+02 -0.46504477522E+02 -0.18861236115E+02  0.69738031017E+02  0.47000000000E+01 0. -1.
        -11    1    1    2    0    0 -0.60126047098E+02  0.22334633180E+02 -0.82592617472E+02  0.10457302635E+03  0.00000000000E+00 0. -1.
         11    1    1    2    0    0 -0.16050565182E+01 -0.28793513506E+02  0.61011175169E+01  0.29476537473E+02  0.00000000000E+00 0.  1.
<mgrwt>
<rscale>  0 0.13152092E+03</rscale>
<asrwt>0</asrwt>
<pdfrwt beam="2">  1        2 0.24930292E-01 0.13955733E+03</pdfrwt>
<pdfrwt beam="1">  1       -2 0.17621175E-01 0.13955733E+03</pdfrwt>
<totfact> 0.53820563E+03</totfact>
</mgrwt>
</event>
<event>
 6    1  0.4230786E-006  0.1854103E+03  0.7546771E-02  0.1181286E+00
         -2   -1    0    0    0  501 -0.00000000000E+00  0.00000000000E+00  0.90862116346E+02  0.90862116346E+02  0.00000000000E+00 0.  1.
          2   -1    0    0  501    0  0.00000000000E+00 -0.00000000000E+00 -0.30139746386E+03  0.30139746386E+03  0.00000000000E+00 0. -1.
          5    1    1    2  502    0 -0.52184842228E+02  0.10359355555E+03 -0.82562194560E+02  0.14245521570E+03  0.47000000000E+01 0. -1.
         -5    1    1    2    0  502  0.28633185403E+02 -0.26837679424E+02  0.30728175393E+02  0.50064269755E+02  0.47000000000E+01 0.  1.
        -11    1    1    2    0    0  0.42318001240E+02 -0.58757224132E+02 -0.15791588036E+03  0.17372578935E+03  0.00000000000E+00 0. -1.
         11    1    1    2    0    0 -0.18766344416E+02 -0.17998651998E+02 -0.78544798421E+00  0.26014305391E+02  0.00000000000E+00 0.  1.
<mgrwt>
<rscale>  0 0.16674468E+03</rscale>
<asrwt>0</asrwt>
<pdfrwt beam="2">  1        2 0.46368841E-01 0.18541032E+03</pdfrwt>
<pdfrwt beam="1">  1       -2 0.13978787E-01 0.18541032E+03</pdfrwt>
<totfact> 0.40941019E+03</totfact>
</mgrwt>
</event>
<event>
 7    1  0.4230786E-006  0.1504961E+03  0.7546771E-02  0.1209892E+00
         -2   -1    0    0    0  501 -0.00000000000E+00  0.00000000000E+00  0.24366849930E+02  0.24366849930E+02  0.00000000000E+00 0.  1.
          2   -1    0    0  501    0  0.00000000000E+00 -0.00000000000E+00 -0.77088704760E+03  0.77088704760E+03  0.00000000000E+00 0. -1.
         23    2    1    2    0    0 -0.82206462982E+02 -0.16319181908E+02 -0.46440103899E+03  0.48817762735E+03  0.12499941031E+03 0.  0.
          5    1    3    3  502    0 -0.88168121628E+02 -0.58807640238E+02 -0.35699417687E+03  0.37242299679E+03  0.47000000000E+01 0. -1.
         -5    1    3    3    0  502  0.59616586459E+01  0.42488458330E+02 -0.10740686212E+03  0.11575463056E+03  0.47000000000E+01 0. -1.
        -11    1    1    2    0    0  0.54843949084E+02 -0.19204312108E+02 -0.73516740084E+02  0.93708993311E+02  0.00000000000E+00 0.  1.
         11    1    1    2    0    0  0.27362513898E+02  0.35523494017E+02 -0.20860241859E+03  0.21336727686E+03  0.00000000000E+00 0. -1.
<mgrwt>
<rscale>  0 0.14258558E+03</rscale>
<asrwt>0</asrwt>
<pdfrwt beam="2">  1        2 0.11859800E+00 0.15049608E+03</pdfrwt>
<pdfrwt beam="1">  1       -2 0.37487464E-02 0.15049608E+03</pdfrwt>
<totfact> 0.10870444E+04</totfact>
</mgrwt>
</event>
<event>
 7    1  0.4230786E-006  0.1218247E+03  0.7546771E-02  0.1253302E+00
         -3   -1    0    0    0  501 -0.00000000000E+00  0.00000000000E+00  0.29894111781E+03  0.29894111781E+03  0.00000000000E+00 0.  1.
          3   -1    0    0  501    0  0.00000000000E+00 -0.00000000000E+00 -0.10154744629E+03  0.10154744629E+03  0.00000000000E+00 0. -1.
         23    2    1    2    0    0 -0.84147071027E+01  0.42325824264E+01  0.26058416796E+03  0.28765495879E+03  0.12146005383E+03 0.  0.
          5    1    3    3  502    0  0.13074635309E+02  0.51658470335E+02  0.60065184489E+02  0.80432953654E+02  0.47000000000E+01 0. -1.
         -5    1    3    3    0  502 -0.21489342411E+02 -0.47425887909E+02  0.20051898347E+03  0.20722200514E+03  0.47000000000E+01 0.  1.
        -11    1    1    2    0    0  0.87524915665E+01 -0.48444302070E+02 -0.34889543312E+02  0.60338517915E+02  0.00000000000E+00 0.  1.
         11    1    1    2    0    0 -0.33778446382E+00  0.44211719644E+02 -0.28300953129E+02  0.52495087391E+02  0.00000000000E+00 0. -1.
<mgrwt>
<rscale>  0 0.11401986E+03</rscale>
<asrwt>0</asrwt>
<pdfrwt beam="2">  1        3 0.15622684E-01 0.12182474E+03</pdfrwt>
<pdfrwt beam="1">  1       -3 0.45990941E-01 0.12182474E+03</pdfrwt>
<totfact> 0.37408935E+02</totfact>
</mgrwt>
</event>
<event>
 7    1  0.4230786E-006  0.1669684E+03  0.7546771E-02  0.1188458E+00
          1   -1    0    0  501    0  0.00000000000E+00  0.00000000000E+00  0.94394548305E+03  0.94394548305E+03  0.00000000000E+00 0. -1.
         -1   -1    0    0    0  501 -0.00000000000E+00 -0.00000000000E+00 -0.25356994313E+02  0.25356994313E+02  0.00000000000E+00 0.  1.
         23    2    1    2    0    0 -0.88447102710E+02 -0.66547688991E+02  0.45977592595E+03  0.48915471589E+03  0.12500779619E+03 0.  0.
          5    1    3    3  502    0 -0.34417482349E+02  0.27209221982E+02  0.24132693040E+03  0.24532770367E+03  0.47000000000E+01 0. -1.
         -5    1    3    3    0  502 -0.54029620361E+02 -0.93756910973E+02  0.21844899555E+03  0.24382701222E+03  0.47000000000E+01 0. -1.
        -11    1    1    2    0    0  0.10600941280E+03  0.53825265712E+02  0.36559925235E+03  0.38444501317E+03  0.00000000000E+00 0.  1.
         11    1    1    2    0    0 -0.17562310094E+02  0.12722423279E+02  0.93213310444E+02  0.95702748309E+02  0.00000000000E+00 0. -1.
<mgrwt>
<rscale>  0 0.16021148E+03</rscale>
<asrwt>0</asrwt>
<pdfrwt beam="1">  1        1 0.14522235E+00 0.16696836E+03</pdfrwt>
<pdfrwt beam="2">  1       -1 0.39010768E-02 0.16696836E+03</pdfrwt>
<totfact> 0.44340973E+03</totfact>
</mgrwt>
</event>
<event>
 7    1  0.4230786E-006  0.1274336E+03  0.7546771E-02  0.1244700E+00
         -2   -1    0    0    0  501 -0.00000000000E+00  0.00000000000E+00  0.94082497069E+02  0.94082497069E+02  0.00000000000E+00 0.  1.
          2   -1    0    0  501    0  0.00000000000E+00 -0.00000000000E+00 -0.13663491397E+03  0.13663491397E+03  0.00000000000E+00 0. -1.
         23    2    1    2    0    0  0.18375392638E+02 -0.16614377826E+02 -0.78140957596E+01  0.12767291874E+03  0.12500248590E+03 0.  0.
          5    1    3    3  502    0 -0.32902875218E+02 -0.29917599786E+02 -0.44481307369E+02  0.63074072960E+02  0.47000000000E+01 0. -1.
         -5    1    3    3    0  502  0.51278267856E+02  0.13303221959E+02  0.36667211610E+02  0.64598845779E+02  0.47000000000E+01 0. -1.
        -11    1    1    2    0    0  0.26315109378E+02  0.14756267868E+01 -0.47360561071E+02  0.54200416981E+02  0.00000000000E+00 0. -1.
         11    1    1    2    0    0 -0.44690502016E+02  0.15138751039E+02  0.12622239924E+02  0.48844075323E+02  0.00000000000E+00 0.  1.
<mgrwt>
<rscale>  0 0.11903365E+03</rscale>
<asrwt>0</asrwt>
<pdfrwt beam="2">  1        2 0.21020756E-01 0.12743357E+03</pdfrwt>
<pdfrwt beam="1">  1       -2 0.14474230E-01 0.12743357E+03</pdfrwt>
<totfact> 0.89355371E+03</totfact>
</mgrwt>
</event>
<event>
 7    1  0.4230786E-006  0.1464560E+03  0.7546771E-02  0.1214411E+00
         -1   -1    0    0    0  501 -0.00000000000E+00  0.00000000000E+00  0.52870150819E+02  0.52870150819E+02  0.00000000000E+00 0.  1.
          1   -1    0    0  501    0  0.00000000000E+00 -0.00000000000E+00 -0.43918952691E+03  0.43918952691E+03  0.00000000000E+00 0. -1.
         23    2    1    2    0    0  0.75811592342E+02  0.87997594802E+01 -0.88412463273E+02  0.17107346241E+03  0.12499813029E+03 0.  0.
          5    1    3    3  502    0 -0.79663258724E+01 -0.34440312442E+02  0.75654415332E+01  0.36454401307E+02  0.47000000000E+01 0.  1.
         -5    1    3    3    0  502  0.83777918214E+02  0.43240071923E+02 -0.95977904807E+02  0.13461906110E+03  0.47000000000E+01 0.  1.
        -11    1    1    2    0    0 -0.11588539092E+02 -0.40460972468E+02 -0.16191267533E+03  0.16729345165E+03  0.00000000000E+00 0.  1.
         11    1    1    2    0    0 -0.64223053250E+02  0.31661212987E+02 -0.13599423748E+03  0.15369276367E+03  0.00000000000E+00 0. -1.
<mgrwt>
<rscale>  0 0.13919871E+03</rscale>
<asrwt>0</asrwt>
<pdfrwt beam="2">  1        1 0.67567618E-01 0.14645602E+03</pdfrwt>
<pdfrwt beam="1">  1       -1 0.81338696E-02 0.14645602E+03</pdfrwt>
<totfact> 0.43615287E+03</totfact>
</mgrwt>
</event>
<event>
 7    1  0.4230786E-006  0.1499362E+03  0.7546771E-02  0.1209464E+00
         -2   -1    0    0    0  501 -0.00000000000E+00  0.00000000000E+00  0.64016851074E+02  0.64016851074E+02  0.00000000000E+00 0.  1.
          2   -1    0    0  501    0  0.00000000000E+00 -0.00000000000E+00 -0.32733306562E+03  0.32733306562E+03  0.00000000000E+00 0. -1.
         23    2    1    2    0    0  0.81767685029E+02 -0.12951596877E+02 -0.79363276515E+02  0.16964494076E+03  0.12500871206E+03 0.  0.
          5    1    3    3  502    0  0.51961656437E+02  0.16769286399E+01  0.26539522409E+02  0.58559901631E+02  0.47000000000E+01 0.  1.
         -5    1    3    3    0  502  0.29806028592E+02 -0.14628525517E+02 -0.10590279892E+03  0.11108503913E+03  0.47000000000E+01 0.  1.
        -11    1    1    2    0    0 -0.24129311124E+02  0.48781213244E+02 -0.65215726336E+02  0.84940693325E+02  0.00000000000E+00 0.  1.
         11    1    1    2    0    0 -0.57638373904E+02 -0.35829616368E+02 -0.11873721169E+03  0.13676428260E+03  0.00000000000E+00 0. -1.
<mgrwt>
<rscale>  0 0.14291161E+03</rscale>
<asrwt>0</asrwt>
<pdfrwt beam="2">  1        2 0.50358932E-01 0.14993624E+03</pdfrwt>
<pdfrwt beam="1">  1       -2 0.98487465E-02 0.14993624E+03</pdfrwt>
<totfact> 0.64952983E+03</totfact>
</mgrwt>
</event>
<event>
 7    1  0.4230786E-006  0.1750948E+03  0.7546771E-02  0.1178686E+00
         -1   -1    0    0    0  501 -0.00000000000E+00  0.00000000000E+00  0.28392788373E+02  0.28392788373E+02  0.00000000000E+00 0.  1.
          1   -1    0    0  501    0  0.00000000000E+00 -0.00000000000E+00 -0.98950351465E+03  0.98950351465E+03  0.00000000000E+00 0. -1.
         23    2    1    2    0    0 -0.70170331013E+02 -0.10062298040E+03 -0.40544282902E+03  0.44163566701E+03  0.12493724517E+03 0.  0.
          5    1    3    3  502    0 -0.78349490120E+02 -0.12414142793E+03 -0.31239546496E+03  0.34519958467E+03  0.47000000000E+01 0.  1.
         -5    1    3    3    0  502  0.81791591069E+01  0.23518447526E+02 -0.93047364064E+02  0.96436082339E+02  0.47000000000E+01 0.  1.
        -11    1    1    2    0    0  0.35106142174E+02  0.97259912897E+02 -0.49850436671E+03  0.50911544418E+03  0.00000000000E+00 0. -1.
         11    1    1    2    0    0  0.35064188839E+02  0.33630675038E+01 -0.57163530549E+02  0.67145191837E+02  0.00000000000E+00 0.  1.
<mgrwt>
<rscale>  0 0.16919850E+03</rscale>
<asrwt>0</asrwt>
<pdfrwt beam="2">  1        1 0.15223132E+00 0.17509476E+03</pdfrwt>
<pdfrwt beam="1">  1       -1 0.43681210E-02 0.17509476E+03</pdfrwt>
<totfact> 0.34727406E+03</totfact>
</mgrwt>
</event>
<event>
 7    1  0.4230786E-006  0.1378633E+03  0.7546771E-02  0.1227324E+00
         -1   -1    0    0    0  501 -0.00000000000E+00  0.00000000000E+00  0.32547008174E+03  0.32547008174E+03  0.00000000000E+00 0.  1.
          1   -1    0    0  501    0  0.00000000000E+00 -0.00000000000E+00 -0.62233094940E+02  0.62233094940E+02  0.00000000000E+00 0. -1.
         23    2    1    2    0    0  0.45836044932E+02 -0.35788654699E+02  0.23874984068E+03  0.27569507281E+03  0.12499806369E+03 0.  0.
          5    1    3    3  502    0 -0.18271661659E+02 -0.63375663126E+02  0.93975810550E+02  0.11490809921E+03  0.47000000000E+01 0. -1.
         -5    1    3    3    0  502  0.64107706591E+02  0.27587008427E+02  0.14477403013E+03  0.16078697360E+03  0.47000000000E+01 0. -1.
        -11    1    1    2    0    0 -0.66728855289E+02  0.31811449078E+02 -0.67356836637E+01  0.74229898660E+02  0.00000000000E+00 0. -1.
         11    1    1    2    0    0  0.20892810357E+02  0.39772056212E+01  0.31222829783E+02  0.37778205209E+02  0.00000000000E+00 0.  1.
<mgrwt>
<rscale>  0 0.13008888E+03</rscale>
<asrwt>0</asrwt>
<pdfrwt beam="2">  1        1 0.95743225E-02 0.13786329E+03</pdfrwt>
<pdfrwt beam="1">  1       -1 0.50072319E-01 0.13786329E+03</pdfrwt>
<totfact> 0.26968481E+03</totfact>
</mgrwt>
</event>
<event>
 7    1  0.4230786E-006  0.1376299E+03  0.7546771E-02  0.1227328E+00
         -2   -1    0    0    0  501 -0.00000000000E+00  0.00000000000E+00  0.10061984207E+03  0.10061984207E+03  0.00000000000E+00 0.  1.
          2   -1    0    0  501    0  0.00000000000E+00 -0.00000000000E+00 -0.15855962165E+03  0.15855962165E+03  0.00000000000E+00 0. -1.
         23    2    1    2    0    0 -0.31883082700E+02 -0.48027874561E+02 -0.62332075473E+01  0.13777092825E+03  0.12497506990E+03 0.  0.
          5    1    3    3  502    0 -0.81032410503E+01  0.27048061065E+02  0.37805550027E+02  0.47419507966E+02  0.47000000000E+01 0. -1.
         -5    1    3    3    0  502 -0.23779841650E+02 -0.75075935625E+02 -0.44038757574E+02  0.90351420285E+02  0.47000000000E+01 0. -1.
        -11    1    1    2    0    0  0.12188960402E+02  0.57702192508E+01  0.26857269568E+02  0.30052938534E+02  0.00000000000E+00 0.  1.
         11    1    1    2    0    0  0.19694122298E+02  0.42257655310E+02 -0.78563841595E+02  0.91355596936E+02  0.00000000000E+00 0. -1.
<mgrwt>
<rscale>  0 0.13008642E+03</rscale>
<asrwt>0</asrwt>
<pdfrwt beam="2">  1        2 0.24393788E-01 0.13762985E+03</pdfrwt>
<pdfrwt beam="1">  1       -2 0.15479976E-01 0.13762985E+03</pdfrwt>
<totfact> 0.68230508E+03</totfact>
</mgrwt>
</event>
<event>
 7    1  0.4230786E-006  0.1270885E+03  0.7546771E-02  0.1246966E+00
          2   -1    0    0  501    0  0.00000000000E+00  0.00000000000E+00  0.18004367208E+03  0.18004367208E+03  0.00000000000E+00 0. -1.
         -2   -1    0    0    0  501 -0.00000000000E+00 -0.00000000000E+00 -0.72043508736E+02  0.72043508736E+02  0.00000000000E+00 0.  1.
         23    2    1    2    0    0  0.66167185352E+01 -0.21966664097E+02  0.30528878357E+02  0.13070386441E+03  0.12500068985E+03 0.  0.
          5    1    3    3  502    0 -0.42484577600E+02 -0.34585794613E+02  0.51784840626E+02  0.75530631147E+02  0.47000000000E+01 0. -1.
         -5    1    3    3    0  502  0.49101296135E+02  0.12619130516E+02 -0.21255962269E+02  0.55173233267E+02  0.47000000000E+01 0. -1.
        -11    1    1    2    0    0 -0.37892067111E+02 -0.34013603161E+01  0.48611818720E+01  0.38353736339E+02  0.00000000000E+00 0.  1.
         11    1    1    2    0    0  0.31275348576E+02  0.25368024413E+02  0.72610103113E+02  0.83029580062E+02  0.00000000000E+00 0. -1.
<mgrwt>
<rscale>  0 0.11768459E+03</rscale>
<asrwt>0</asrwt>
<pdfrwt beam="1">  1        2 0.27699026E-01 0.12708850E+03</pdfrwt>
<pdfrwt beam="2">  1       -2 0.11083617E-01 0.12708850E+03</pdfrwt>
<totfact> 0.10102161E+04</totfact>
</mgrwt>
</event>
<event>
 7    1  0.4230786E-006  0.1392475E+03  0.7546771E-02  0.1225666E+00
          1   -1    0    0  501    0  0.00000000000E+00  0.00000000000E+00  0.17910876307E+03  0.17910876307E+03  0.00000000000E+00 0. -1.
         -1   -1    0    0    0  501 -0.00000000000E+00 -0.00000000000E+00 -0.86704683331E+02  0.86704683331E+02  0.00000000000E+00 0.  1.
         23    2    1    2    0    0 -0.61322018468E+02  0.17583448467E+01  0.46364641863E+02  0.14676354681E+03  0.12500550761E+03 0.  0.
          5    1    3    3  502    0 -0.46827481817E+02 -0.56763088569E+02  0.44783990575E+02  0.86270256109E+02  0.47000000000E+01 0. -1.
         -5    1    3    3    0  502 -0.14494536651E+02  0.58521433416E+02  0.15806512885E+01  0.60493290705E+02  0.47000000000E+01 0. -1.
        -11    1    1    2    0    0 -0.48831867770E+01 -0.10988515987E+02  0.50638233553E+02  0.52046361007E+02  0.00000000000E+00 0. -1.
         11    1    1    2    0    0  0.66205205245E+02  0.92301711399E+01 -0.45987956760E+01  0.67003538582E+02  0.00000000000E+00 0.  1.
<mgrwt>
<rscale>  0 0.13121350E+03</rscale>
<asrwt>0</asrwt>
<pdfrwt beam="1">  1        1 0.27555194E-01 0.13924747E+03</pdfrwt>
<pdfrwt beam="2">  1       -1 0.13339182E-01 0.13924747E+03</pdfrwt>
<totfact> 0.62358737E+03</totfact>
</mgrwt>
</event>
<event>
 7    1  0.4230786E-006  0.1559279E+03  0.7546771E-02  0.1201675E+00
          1   -1    0    0  501    0  0.00000000000E+00  0.00000000000E+00  0.85078639169E+03  0.85078639169E+03  0.00000000000E+00 0. -1.
         -1   -1    0    0    0  501 -0.00000000000E+00 -0.00000000000E+00 -0.24040509513E+02  0.24040509513E+02  0.00000000000E+00 0.  1.
         23    2    1    2    0    0  0.93208412342E+02  0.64523498518E+00  0.45264233365E+03  0.47874691335E+03  0.12500120148E+03 0.  0.
          5    1    3    3  502    0  0.73165906688E+02  0.96001638196E+01  0.45012359201E+03  0.45615649851E+03  0.47000000000E+01 0.  1.
         -5    1    3    3    0  502  0.20042505654E+02 -0.89549288345E+01  0.25187416383E+01  0.22590414842E+02  0.47000000000E+01 0.  1.
        -11    1    1    2    0    0 -0.87291031900E+02 -0.35820638662E+02  0.27737952608E+03  0.29298847058E+03  0.00000000000E+00 0.  1.
         11    1    1    2    0    0 -0.59173804416E+01  0.35175403677E+02  0.96724022447E+02  0.10309151727E+03  0.00000000000E+00 0. -1.
<mgrwt>
<rscale>  0 0.14902596E+03</rscale>
<asrwt>0</asrwt>
<pdfrwt beam="1">  1        1 0.13089019E+00 0.15592795E+03</pdfrwt>
<pdfrwt beam="2">  1       -1 0.36985406E-02 0.15592795E+03</pdfrwt>
<totfact> 0.56488530E+03</totfact>
</mgrwt>
</event>
<event>
 7    1  0.4230786E-006  0.1352686E+03  0.7546771E-02  0.1231889E+00
         -1   -1    0    0    0  501 -0.00000000000E+00  0.00000000000E+00  0.43886810188E+02  0.43886810188E+02  0.00000000000E+00 0.  1.
          1   -1    0    0  501    0  0.00000000000E+00 -0.00000000000E+00 -0.41136596492E+03  0.41136596492E+03  0.00000000000E+00 0. -1.
         23    2    1    2    0    0  0.45691385597E+02 -0.24100249432E+02 -0.10127140324E+03  0.16897781478E+03  0.12501631907E+03 0.  0.
          5    1    3    3  502    0  0.78406291371E+02  0.50478422240E+01 -0.28126165492E+02  0.83583481759E+02  0.47000000000E+01 0. -1.
         -5    1    3    3    0  502 -0.32714905775E+02 -0.29148091656E+02 -0.73145237743E+02  0.85394333018E+02  0.47000000000E+01 0. -1.
        -11    1    1    2    0    0 -0.39478089241E+02  0.56340599719E+02 -0.21216633401E+03  0.22304110830E+03  0.00000000000E+00 0. -1.
         11    1    1    2    0    0 -0.62132963553E+01 -0.32240350287E+02 -0.54041417495E+02  0.63233852034E+02  0.00000000000E+00 0.  1.
<mgrwt>
<rscale>  0 0.12705699E+03</rscale>
<asrwt>0</asrwt>
<pdfrwt beam="2">  1        1 0.63287069E-01 0.13526864E+03</pdfrwt>
<pdfrwt beam="1">  1       -1 0.67518173E-02 0.13526864E+03</pdfrwt>
<totfact> 0.62461921E+03</totfact>
</mgrwt>
</event>
<event>
 7    1  0.4230786E-006  0.1328894E+03  0.7546771E-02  0.1236566E+00
          2   -1    0    0  501    0  0.00000000000E+00  0.00000000000E+00  0.76820688166E+02  0.76820688166E+02  0.00000000000E+00 0. -1.
         -2   -1    0    0    0  501 -0.00000000000E+00 -0.00000000000E+00 -0.18041064661E+03  0.18041064661E+03  0.00000000000E+00 0.  1.
         23    2    1    2    0    0  0.35714488157E+02  0.27514463956E+02 -0.73912370191E+02  0.15206127958E+03  0.12500809529E+03 0.  0.
          5    1    3    3  502    0  0.57952507423E+02 -0.50844556460E+01  0.99990338762E+01  0.59214993746E+02  0.47000000000E+01 0.  1.
         -5    1    3    3    0  502 -0.22238019267E+02  0.32598919602E+02 -0.83911404067E+02  0.92846285831E+02  0.47000000000E+01 0.  1.
        -11    1    1    2    0    0  0.23174503730E+01 -0.20141391422E+02  0.28681142688E+02  0.35123413424E+02  0.00000000000E+00 0. -1.
         11    1    1    2    0    0 -0.38031938530E+02 -0.73730725342E+01 -0.58358730943E+02  0.70046641777E+02  0.00000000000E+00 0.  1.
<mgrwt>
<rscale>  0 0.12404696E+03</rscale>
<asrwt>0</asrwt>
<pdfrwt beam="1">  1        2 0.11818568E-01 0.13288941E+03</pdfrwt>
<pdfrwt beam="2">  1       -2 0.27755484E-01 0.13288941E+03</pdfrwt>
<totfact> 0.58118842E+03</totfact>
</mgrwt>
</event>
<event>
 7    1  0.4230786E-006  0.1214357E+03  0.7546771E-02  0.1250461E+00
         -2   -1    0    0    0  501 -0.00000000000E+00  0.00000000000E+00  0.12358117702E+03  0.12358117702E+03  0.00000000000E+00 0.  1.
          2   -1    0    0  501    0  0.00000000000E+00 -0.00000000000E+00 -0.99450212431E+02  0.99450212431E+02  0.00000000000E+00 0. -1.
         23    2    1    2    0    0  0.10166128070E+02 -0.42371858254E+02  0.19991201637E+02  0.12307021851E+03  0.11334860391E+03 0.  0.
          5    1    3    3  502    0  0.29485545742E+02  0.14216901471E+02 -0.30257684261E+02  0.44823377293E+02  0.47000000000E+01 0. -1.
         -5    1    3    3    0  502 -0.19319417672E+02 -0.56588759726E+02  0.50248885898E+02  0.78246841217E+02  0.47000000000E+01 0.  1.
        -11    1    1    2    0    0 -0.40775744881E+02  0.46018152295E+02 -0.15502899815E+02  0.63408766065E+02  0.00000000000E+00 0.  1.
         11    1    1    2    0    0  0.30609616812E+02 -0.36462940403E+01  0.19642662764E+02  0.36552404874E+02  0.00000000000E+00 0. -1.
<mgrwt>
<rscale>  0 0.11564436E+03</rscale>
<asrwt>0</asrwt>
<pdfrwt beam="2">  1        2 0.15300033E-01 0.12143571E+03</pdfrwt>
<pdfrwt beam="1">  1       -2 0.19012489E-01 0.12143571E+03</pdfrwt>
<totfact> 0.81602381E+03</totfact>
</mgrwt>
</event>
<event>
 7    1  0.4230786E-006  0.1447645E+03  0.7546771E-02  0.1217355E+00
         -2   -1    0    0    0  501 -0.00000000000E+00  0.00000000000E+00  0.21596176752E+03  0.21596176752E+03  0.00000000000E+00 0.  1.
          2   -1    0    0  501    0  0.00000000000E+00 -0.00000000000E+00 -0.85551588445E+02  0.85551588445E+02  0.00000000000E+00 0. -1.
         23    2    1    2    0    0  0.63643684724E+02  0.35803627716E+02  0.11360887509E+03  0.18402103460E+03  0.12499738523E+03 0.  0.
          5    1    3    3  502    0 -0.11402135165E+02 -0.30183625249E+02 -0.49493742030E-01  0.32606017376E+02  0.47000000000E+01 0.  1.
         -5    1    3    3    0  502  0.75045819889E+02  0.65987252965E+02  0.11365836883E+03  0.15141501723E+03  0.47000000000E+01 0.  1.
        -11    1    1    2    0    0 -0.14510314312E+02  0.28955411881E+02  0.16173294758E+02  0.36201388951E+02  0.00000000000E+00 0. -1.
         11    1    1    2    0    0 -0.49133370412E+02 -0.64759039597E+02  0.62800923269E+00  0.81290932417E+02  0.00000000000E+00 0.  1.
<mgrwt>
<rscale>  0 0.13704947E+03</rscale>
<asrwt>0</asrwt>
<pdfrwt beam="2">  1        2 0.13161783E-01 0.14476451E+03</pdfrwt>
<pdfrwt beam="1">  1       -2 0.33224887E-01 0.14476451E+03</pdfrwt>
<totfact> 0.37146848E+03</totfact>
</mgrwt>
</event>
<event>
 7    1  0.4230786E-006  0.1545874E+03  0.7546771E-02  0.1203422E+00
          3   -1    0    0  501    0  0.00000000000E+00  0.00000000000E+00  0.80615240064E+02  0.80615240064E+02  0.00000000000E+00 0. -1.
         -3   -1    0    0    0  501 -0.00000000000E+00 -0.00000000000E+00 -0.24864107860E+03  0.24864107860E+03  0.00000000000E+00 0.  1.
         23    2    1    2    0    0 -0.90776883168E+02  0.56647579470E+01 -0.92505167319E+02  0.18015124906E+03  0.12499893822E+03 0.  0.
          5    1    3    3  502    0 -0.97347467306E+02  0.45473102836E+02 -0.88602768981E+02  0.13934444066E+03  0.47000000000E+01 0. -1.
         -5    1    3    3    0  502  0.65705841377E+01 -0.39808344889E+02 -0.39023983390E+01  0.40806808396E+02  0.47000000000E+01 0. -1.
        -11    1    1    2    0    0  0.79200767814E+02  0.21295353742E+02 -0.85151544543E+02  0.11822452898E+03  0.00000000000E+00 0.  1.
         11    1    1    2    0    0  0.11576115354E+02 -0.26960111689E+02  0.96308733220E+01  0.30880540635E+02  0.00000000000E+00 0. -1.
<mgrwt>
<rscale>  0 0.14762545E+03</rscale>
<asrwt>0</asrwt>
<pdfrwt beam="1">  1        3 0.12402345E-01 0.15458741E+03</pdfrwt>
<pdfrwt beam="2">  1       -3 0.38252473E-01 0.15458741E+03</pdfrwt>
<totfact> 0.81954938E+02</totfact>
</mgrwt>
</event>
<event>
 6    1  0.4230786E-006  0.1555602E+03  0.7546771E-02  0.1216021E+00
         -1   -1    0    0    0  501 -0.00000000000E+00  0.00000000000E+00  0.45219023961E+03  0.45219023961E+03  0.00000000000E+00 0.  1.
          1   -1    0    0  501    0  0.00000000000E+00 -0.00000000000E+00 -0.58249794269E+02  0.58249794269E+02  0.00000000000E+00 0. -1.
          5    1    1    2  502    0  0.20108022233E+02 -0.35379227188E+02  0.13912704672E+02  0.43262866593E+02  0.47000000000E+01 0. -1.
         -5    1    1    2    0  502 -0.35173528401E+01  0.26991445639E+02  0.36913873681E+03  0.37017078075E+03  0.47000000000E+01 0.  1.
        -11    1    1    2    0    0 -0.24775657554E+02  0.42231944696E+02 -0.17586523988E+02  0.52025533981E+02  0.00000000000E+00 0. -1.
         11    1    1    2    0    0  0.81849881606E+01 -0.33844163147E+02  0.28475527851E+02  0.44980852557E+02  0.00000000000E+00 0.  1.
<mgrwt>
<rscale>  0 0.13801795E+03</rscale>
<asrwt>0</asrwt>
<pdfrwt beam="2">  1        1 0.89615071E-02 0.15556019E+03</pdfrwt>
<pdfrwt beam="1">  1       -1 0.69567727E-01 0.15556019E+03</pdfrwt>
<totfact> 0.15864759E+03</totfact>
</mgrwt>
</event>
<event>
 7    1  0.4230786E-006  0.1346397E+03  0.7546771E-02  0.1233297E+00
         -2   -1    0    0    0  501 -0.00000000000E+00  0.00000000000E+00  0.23415888891E+02  0.23415888891E+02  0.00000000000E+00 0. -1.
          2   -1    0    0  501    0  0.00000000000E+00 -0.00000000000E+00 -0.63463697357E+03  0.63463697357E+03  0.00000000000E+00 0.  1.
         23    2    1    2    0    0 -0.48503875688E+02 -0.12273808899E+02 -0.27494405303E+03  0.30614061329E+03  0.12499828187E+03 0.  0.
          5    1    3    3  502    0 -0.67216490789E+02  0.28460841413E+02 -0.23428877756E+03  0.24544123007E+03  0.47000000000E+01 0.  1.
         -5    1    3    3    0  502  0.18712615101E+02 -0.40734650312E+02 -0.40655275465E+02  0.60699383218E+02  0.47000000000E+01 0.  1.
        -11    1    1    2    0    0  0.52961460271E+02  0.34202735273E+02 -0.31425291110E+03  0.32051464165E+03  0.00000000000E+00 0.  1.
         11    1    1    2    0    0 -0.44575845832E+01 -0.21928926375E+02 -0.22024120554E+02  0.31397607527E+02  0.00000000000E+00 0. -1.
<mgrwt>
<rscale>  0 0.12614100E+03</rscale>
<asrwt>0</asrwt>
<pdfrwt beam="2">  1        2 0.97636446E-01 0.13463968E+03</pdfrwt>
<pdfrwt beam="1">  1       -2 0.36024449E-02 0.13463968E+03</pdfrwt>
<totfact> 0.14426648E+04</totfact>
</mgrwt>
</event>
<event>
 6    1  0.4230786E-006  0.2038901E+03  0.7546771E-02  0.1170085E+00
          1   -1    0    0  501    0  0.00000000000E+00  0.00000000000E+00  0.66149915144E+03  0.66149915144E+03  0.00000000000E+00 0. -1.
         -1   -1    0    0    0  501 -0.00000000000E+00 -0.00000000000E+00 -0.42800557218E+02  0.42800557218E+02  0.00000000000E+00 0.  1.
          5    1    1    2  502    0  0.10233073974E+03 -0.79225380832E+02  0.15523443416E+03  0.20215850418E+03  0.47000000000E+01 0. -1.
         -5    1    1    2    0  502 -0.62503442631E+02  0.35012531969E+02  0.12913840706E+03  0.14775444465E+03  0.47000000000E+01 0.  1.
        -11    1    1    2    0    0  0.20997725426E+01 -0.29843705666E+02  0.58122399184E+02  0.65370246286E+02  0.00000000000E+00 0. -1.
         11    1    1    2    0    0 -0.41927069655E+02  0.74056554529E+02  0.27620335382E+03  0.28901651355E+03  0.00000000000E+00 0.  1.
<mgrwt>
<rscale>  0 0.17766255E+03</rscale>
<asrwt>0</asrwt>
<pdfrwt beam="1">  1        1 0.10176909E+00 0.20389007E+03</pdfrwt>
<pdfrwt beam="2">  1       -1 0.65847016E-02 0.20389007E+03</pdfrwt>
<totfact> 0.35115872E+03</totfact>
</mgrwt>
</event>
<event>
 7    1  0.4230786E-006  0.1310866E+03  0.7546771E-02  0.1239625E+00
          2   -1    0    0  501    0  0.00000000000E+00  0.00000000000E+00  0.32193205375E+03  0.32193205375E+03  0.00000000000E+00 0. -1.
         -2   -1    0    0    0  501 -0.00000000000E+00 -0.00000000000E+00 -0.43770970512E+02  0.43770970512E+02  0.00000000000E+00 0.  1.
         23    2    1    2    0    0 -0.38694467150E+02  0.78822649837E+01  0.11205632854E+03  0.17245381686E+03  0.12499722514E+03 0.  0.
          5    1    3    3  502    0  0.33913783789E+01  0.56611770865E+02  0.20630711335E+02  0.60531894882E+02  0.47000000000E+01 0.  1.
         -5    1    3    3    0  502 -0.42085845529E+02 -0.48729505882E+02  0.91425617209E+02  0.11192192198E+03  0.47000000000E+01 0.  1.
        -11    1    1    2    0    0 -0.28597299250E+02  0.77841867459E+01  0.47511880603E+02  0.55998016805E+02  0.00000000000E+00 0.  1.
         11    1    1    2    0    0  0.67291766399E+02 -0.15666451730E+02  0.11859287409E+03  0.13725119060E+03  0.00000000000E+00 0. -1.
<mgrwt>
<rscale>  0 0.12212911E+03</rscale>
<asrwt>0</asrwt>
<pdfrwt beam="1">  1        2 0.49528007E-01 0.13108661E+03</pdfrwt>
<pdfrwt beam="2">  1       -2 0.67339957E-02 0.13108661E+03</pdfrwt>
<totfact> 0.11798446E+04</totfact>
</mgrwt>
</event>
<event>
 7    1  0.4230786E-006  0.3097851E+03  0.7546771E-02  0.1081908E+00
          1   -1    0    0  501    0  0.00000000000E+00  0.00000000000E+00  0.96346599715E+02  0.96346599715E+02  0.00000000000E+00 0. -1.
         -1   -1    0    0    0  501 -0.00000000000E+00 -0.00000000000E+00 -0.95813070243E+03  0.95813070243E+03  0.00000000000E+00 0.  1.
         23    2    1    2    0    0  0.14692916147E+03  0.24239107486E+03 -0.43813159060E+03  0.53658746990E+03  0.12500084204E+03 0.  0.
          5    1    3    3  502    0  0.67146422872E+02  0.19223658530E+03 -0.22496177305E+03  0.30346900363E+03  0.47000000000E+01 0.  1.
         -5    1    3    3    0  502  0.79782738596E+02  0.50154489563E+02 -0.21316981756E+03  0.23311846627E+03  0.47000000000E+01 0.  1.
        -11    1    1    2    0    0 -0.21199887915E+02 -0.10485491876E+03 -0.11277898043E+03  0.15544480584E+03  0.00000000000E+00 0.  1.
         11    1    1    2    0    0 -0.12572927355E+03 -0.13753615610E+03 -0.31087353168E+03  0.36244502640E+03  0.00000000000E+00 0. -1.
<mgrwt>
<rscale>  0 0.30676320E+03</rscale>
<asrwt>0</asrwt>
<pdfrwt beam="1">  1        1 0.14822553E-01 0.30978512E+03</pdfrwt>
<pdfrwt beam="2">  1       -1 0.14740473E+00 0.30978512E+03</pdfrwt>
<totfact> 0.14975659E+02</totfact>
</mgrwt>
</event>
<event>
 7    1  0.6299540E-006  0.3700141E+03  0.7546771E-02  0.1055677E+00
          1   -1    0    0  501    0  0.00000000000E+00  0.00000000000E+00  0.34431634794E+03  0.34431634794E+03  0.00000000000E+00 0. -1.
         -1   -1    0    0    0  501 -0.00000000000E+00 -0.00000000000E+00 -0.40828848818E+03  0.40828848818E+03  0.00000000000E+00 0.  1.
         23    2    1    2    0    0 -0.32540257980E+03 -0.12409753643E+03 -0.11884498438E+03  0.38863163553E+03  0.12499352117E+03 0.  0.
          5    1    3    3  502    0 -0.22287961814E+03 -0.23568988582E+02 -0.92830967966E+02  0.24263243810E+03  0.47000000000E+01 0. -1.
         -5    1    3    3    0  502 -0.10252296166E+03 -0.10052854785E+03 -0.26014016410E+02  0.14599919742E+03  0.47000000000E+01 0. -1.
        -11    1    1    2    0    0  0.20974805352E+03  0.12107232717E+03  0.54677996732E+02  0.24827895136E+03  0.00000000000E+00 0. -1.
         11    1    1    2    0    0  0.11565452628E+03  0.30252092554E+01  0.19484739865E+00  0.11569424923E+03  0.00000000000E+00 0.  1.
<mgrwt>
<rscale>  0 0.36743703E+03</rscale>
<asrwt>0</asrwt>
<pdfrwt beam="1">  1        1 0.52971746E-01 0.37001408E+03</pdfrwt>
<pdfrwt beam="2">  1       -1 0.62813614E-01 0.37001408E+03</pdfrwt>
<totfact> 0.19519775E+02</totfact>
</mgrwt>
</event>
<event>
 6    1  0.4230786E-006  0.1314064E+03  0.7546771E-02  0.1242807E+00
          1   -1    0    0  501    0  0.00000000000E+00  0.00000000000E+00  0.16117552301E+03  0.16117552301E+03  0.00000000000E+00 0. -1.
         -1   -1    0    0    0  501 -0.00000000000E+00 -0.00000000000E+00 -0.21139762936E+03  0.21139762936E+03  0.00000000000E+00 0.  1.
          5    1    1    2  502    0  0.84800675369E+00 -0.55401534839E+02 -0.56511353510E+02  0.79282231638E+02  0.47000000000E+01 0. -1.
         -5    1    1    2    0  502 -0.93304220080E+01  0.73071346613E+02 -0.11770751337E+03  0.13893749377E+03  0.47000000000E+01 0.  1.
        -11    1    1    2    0    0  0.35375162005E+02  0.18445004273E+02  0.29306729768E+02  0.49502572450E+02  0.00000000000E+00 0.  1.
         11    1    1    2    0    0 -0.26892746750E+02 -0.36114816048E+02  0.94690030760E+02  0.10485085451E+03  0.00000000000E+00 0. -1.
<mgrwt>
<rscale>  0 0.12017608E+03</rscale>
<asrwt>0</asrwt>
<pdfrwt beam="1">  1        1 0.24796234E-01 0.13140637E+03</pdfrwt>
<pdfrwt beam="2">  1       -1 0.32522713E-01 0.13140637E+03</pdfrwt>
<totfact> 0.16804575E+03</totfact>
</mgrwt>
</event>
<event>
 7    1  0.4230786E-006  0.1281549E+03  0.7546771E-02  0.1243761E+00
          1   -1    0    0  501    0  0.00000000000E+00  0.00000000000E+00  0.39406845505E+02  0.39406845505E+02  0.00000000000E+00 0. -1.
         -1   -1    0    0    0  501 -0.00000000000E+00 -0.00000000000E+00 -0.32242659153E+03  0.32242659153E+03  0.00000000000E+00 0.  1.
         23    2    1    2    0    0 -0.28372287662E+01 -0.28104654034E+02 -0.16567461090E+03  0.20945587349E+03  0.12500305915E+03 0.  0.
          5    1    3    3  502    0 -0.47389174161E+02 -0.43856164999E+02 -0.14270822760E+03  0.15670617493E+03  0.47000000000E+01 0. -1.
         -5    1    3    3    0  502  0.44551945395E+02  0.15751510965E+02 -0.22966383302E+02  0.52749698560E+02  0.47000000000E+01 0. -1.
        -11    1    1    2    0    0  0.16797449819E+02 -0.28374707944E+02 -0.69966845132E+02  0.77347513141E+02  0.00000000000E+00 0.  1.
         11    1    1    2    0    0 -0.13960221053E+02  0.56479361978E+02 -0.47378289990E+02  0.75030050404E+02  0.00000000000E+00 0. -1.
<mgrwt>
<rscale>  0 0.11959829E+03</rscale>
<asrwt>0</asrwt>
<pdfrwt beam="1">  1        1 0.60625915E-02 0.12815493E+03</pdfrwt>
<pdfrwt beam="2">  1       -1 0.49604092E-01 0.12815493E+03</pdfrwt>
<totfact> 0.50454941E+03</totfact>
</mgrwt>
</event>
<event>
 7    1  0.4230786E-006  0.1322717E+03  0.7546771E-02  0.1237895E+00
          1   -1    0    0  501    0  0.00000000000E+00  0.00000000000E+00  0.47856369388E+03  0.47856369388E+03  0.00000000000E+00 0. -1.
         -1   -1    0    0    0  501 -0.00000000000E+00 -0.00000000000E+00 -0.28848768537E+02  0.28848768537E+02  0.00000000000E+00 0.  1.
         23    2    1    2    0    0  0.20600775715E+02  0.38027710294E+02  0.21474898826E+03  0.25221605780E+03  0.12500125258E+03 0.  0.
          5    1    3    3  502    0  0.28500595719E+01  0.83109731889E+02  0.14363161942E+03  0.16603458216E+03  0.47000000000E+01 0.  1.
         -5    1    3    3    0  502  0.17750716143E+02 -0.45082021595E+02  0.71117368837E+02  0.86181475649E+02  0.47000000000E+01 0.  1.
        -11    1    1    2    0    0 -0.32451082961E+02  0.21017006858E+02  0.77527125580E+02  0.86632803044E+02  0.00000000000E+00 0. -1.
         11    1    1    2    0    0  0.11850307246E+02 -0.59044717152E+02  0.15743881151E+03  0.16856360157E+03  0.00000000000E+00 0.  1.
<mgrwt>
<rscale>  0 0.12320931E+03</rscale>
<asrwt>0</asrwt>
<pdfrwt beam="1">  1        1 0.73625178E-01 0.13227173E+03</pdfrwt>
<pdfrwt beam="2">  1       -1 0.44382724E-02 0.13227173E+03</pdfrwt>
<totfact> 0.95815217E+03</totfact>
</mgrwt>
</event>
<event>
 7    1  0.4230786E-006  0.1271970E+03  0.7546771E-02  0.1249372E+00
          1   -1    0    0  501    0  0.00000000000E+00  0.00000000000E+00  0.57305838467E+03  0.57305838467E+03  0.00000000000E+00 0. -1.
         -1   -1    0    0    0  501 -0.00000000000E+00 -0.00000000000E+00 -0.20517484124E+02  0.20517484124E+02  0.00000000000E+00 0.  1.
         23    2    1    2    0    0 -0.89518289942E+01 -0.21790677090E+02  0.29915188683E+03  0.32507066100E+03  0.12499645755E+03 0.  0.
          5    1    3    3  502    0  0.46404448399E+02 -0.46970627379E+02  0.15741806175E+03  0.17076928539E+03  0.47000000000E+01 0.  1.
         -5    1    3    3    0  502 -0.55356277393E+02  0.25179950289E+02  0.14173382508E+03  0.15430137561E+03  0.47000000000E+01 0.  1.
        -11    1    1    2    0    0  0.25628369603E+02  0.31591311027E+02  0.24332219394E+03  0.24669923859E+03  0.00000000000E+00 0. -1.
         11    1    1    2    0    0 -0.16676540609E+02 -0.98006339368E+01  0.10066819778E+02  0.21805969198E+02  0.00000000000E+00 0.  1.
<mgrwt>
<rscale>  0 0.11627486E+03</rscale>
<asrwt>0</asrwt>
<pdfrwt beam="1">  1        1 0.88162816E-01 0.12719703E+03</pdfrwt>
<pdfrwt beam="2">  1       -1 0.31565365E-02 0.12719703E+03</pdfrwt>
<totfact> 0.12413028E+04</totfact>
</mgrwt>
</event>
<event>
 7    1  0.4588680E-006  0.1890255E+03  0.7546771E-02  0.1164491E+00
          1   -1    0    0  501    0  0.00000000000E+00  0.00000000000E+00  0.40639627928E+03  0.40639627928E+03  0.00000000000E+00 0. -1.
         -1   -1    0    0    0  501 -0.00000000000E+00 -0.00000000000E+00 -0.81990158590E+02  0.81990158590E+02  0.00000000000E+00 0.  1.
         23    2    1    2    0    0 -0.85190942709E+02 -0.11334637664E+03  0.11973715863E+03  0.22375797826E+03  0.12500299141E+03 0.  0.
          5    1    3    3  502    0  0.86264140796E+00  0.13301355495E+02 -0.14373851354E+02  0.20158566689E+02  0.47000000000E+01 0. -1.
         -5    1    3    3    0  502 -0.86053584117E+02 -0.12664773214E+03  0.13411100998E+03  0.20359941158E+03  0.47000000000E+01 0. -1.
        -11    1    1    2    0    0 -0.48864592433E+00  0.72703239746E+02  0.82280293443E+02  0.10980002975E+03  0.00000000000E+00 0. -1.
         11    1    1    2    0    0  0.85679588633E+02  0.40643136897E+02  0.12238866861E+03  0.15482842985E+03  0.00000000000E+00 0.  1.
<mgrwt>
<rscale>  0 0.18346516E+03</rscale>
<asrwt>0</asrwt>
<pdfrwt beam="1">  1        1 0.62522503E-01 0.18902552E+03</pdfrwt>
<pdfrwt beam="2">  1       -1 0.12613871E-01 0.18902552E+03</pdfrwt>
<totfact> 0.24801651E+03</totfact>
</mgrwt>
</event>
<event>
 7    1  0.4230786E-006  0.1276528E+03  0.7546771E-02  0.1248674E+00
          4   -1    0    0  501    0  0.00000000000E+00  0.00000000000E+00  0.87087605186E+02  0.87087605186E+02  0.00000000000E+00 0. -1.
         -4   -1    0    0    0  501 -0.00000000000E+00 -0.00000000000E+00 -0.14381974684E+03  0.14381974684E+03  0.00000000000E+00 0.  1.
         23    2    1    2    0    0 -0.23319627619E+02 -0.11262808332E+02 -0.61450268461E+02  0.14167349844E+03  0.12499835512E+03 0.  0.
          5    1    3    3  502    0 -0.95113301997E+01 -0.55619361760E+01  0.38594338361E+02  0.40410561611E+02  0.47000000000E+01 0. -1.
         -5    1    3    3    0  502 -0.13808297419E+02 -0.57008721560E+01 -0.10004460682E+03  0.10126293683E+03  0.47000000000E+01 0. -1.
        -11    1    1    2    0    0 -0.28830853414E+02  0.17131943902E+02  0.13260765736E+02  0.36063409688E+02  0.00000000000E+00 0. -1.
         11    1    1    2    0    0  0.52150481032E+02 -0.58691355696E+01 -0.85426389270E+01  0.53170443896E+02  0.00000000000E+00 0.  1.
<mgrwt>
<rscale>  0 0.11668184E+03</rscale>
<asrwt>0</asrwt>
<pdfrwt beam="1">  1        4 0.13398093E-01 0.12765283E+03</pdfrwt>
<pdfrwt beam="2">  1       -4 0.22126115E-01 0.12765283E+03</pdfrwt>
<totfact> 0.14003893E+03</totfact>
</mgrwt>
</event>
<event>
 7    1  0.4230786E-006  0.1419997E+03  0.7546771E-02  0.1221585E+00
         -2   -1    0    0    0  501 -0.00000000000E+00  0.00000000000E+00  0.50727952331E+02  0.50727952331E+02  0.00000000000E+00 0.  1.
          2   -1    0    0  501    0  0.00000000000E+00 -0.00000000000E+00 -0.32335359090E+03  0.32335359090E+03  0.00000000000E+00 0. -1.
         23    2    1    2    0    0  0.67330309122E+02 -0.21667459028E+01 -0.13226898572E+03  0.19405924073E+03  0.12500335602E+03 0.  0.
          5    1    3    3  502    0  0.58282683956E+02 -0.28837784153E+02 -0.69929620429E+01  0.65570424446E+02  0.47000000000E+01 0. -1.
         -5    1    3    3    0  502  0.90476251666E+01  0.26671038251E+02 -0.12527602368E+03  0.12848881629E+03  0.47000000000E+01 0. -1.
        -11    1    1    2    0    0 -0.26305940422E+02 -0.17658064048E+02  0.80118402195E+00  0.31693084786E+02  0.00000000000E+00 0.  1.
         11    1    1    2    0    0 -0.41024368700E+02  0.19824809951E+02 -0.14115783687E+03  0.14832921771E+03  0.00000000000E+00 0. -1.
<mgrwt>
<rscale>  0 0.13403719E+03</rscale>
<asrwt>0</asrwt>
<pdfrwt beam="2">  1        2 0.49746705E-01 0.14199966E+03</pdfrwt>
<pdfrwt beam="1">  1       -2 0.78043006E-02 0.14199966E+03</pdfrwt>
<totfact> 0.94208606E+03</totfact>
</mgrwt>
</event>
<event>
 7    1  0.4230786E-006  0.1986135E+03  0.7546771E-02  0.1155185E+00
         -1   -1    0    0    0  501 -0.00000000000E+00  0.00000000000E+00  0.15786941984E+04  0.15786941984E+04  0.00000000000E+00 0.  1.
          1   -1    0    0  501    0  0.00000000000E+00 -0.00000000000E+00 -0.23745997442E+02  0.23745997442E+02  0.00000000000E+00 0. -1.
         23    2    1    2    0    0 -0.53111421131E+02 -0.14492648322E+03  0.98654503793E+03  0.10063391157E+04  0.12499118110E+03 0.  0.
          5    1    3    3  502    0 -0.62829004285E+02 -0.42120203438E+02  0.21639235566E+03  0.22928004035E+03  0.47000000000E+01 0. -1.
         -5    1    3    3    0  502  0.97175831544E+01 -0.10280627979E+03  0.77015268227E+03  0.77705907536E+03  0.47000000000E+01 0. -1.
        -11    1    1    2    0    0  0.58015511328E+02  0.52527657819E+02  0.17084898740E+03  0.18792107622E+03  0.00000000000E+00 0. -1.
         11    1    1    2    0    0 -0.49040901970E+01  0.92398825405E+02  0.39755417566E+03  0.40818000394E+03  0.00000000000E+00 0.  1.
<mgrwt>
<rscale>  0 0.19367788E+03</rscale>
<asrwt>0</asrwt>
<pdfrwt beam="2">  1        1 0.36532316E-02 0.19861345E+03</pdfrwt>
<pdfrwt beam="1">  1       -1 0.24287595E+00 0.19861345E+03</pdfrwt>
<totfact> 0.22816422E+02</totfact>
</mgrwt>
</event>
<event>
 7    1  0.4230786E-006  0.1613061E+03  0.7546771E-02  0.1194587E+00
         -2   -1    0    0    0  501 -0.00000000000E+00  0.00000000000E+00  0.99510099796E+02  0.99510099796E+02  0.00000000000E+00 0.  1.
          2   -1    0    0  501    0  0.00000000000E+00 -0.00000000000E+00 -0.34072677998E+03  0.34072677998E+03  0.00000000000E+00 0. -1.
         23    2    1    2    0    0  0.56141529683E+02 -0.85057674966E+02  0.16620125649E+01  0.16131464980E+03  0.12503189405E+03 0.  0.
          5    1    3    3  502    0 -0.25159642833E+02 -0.45139829897E+02  0.37261880959E+02  0.63883876238E+02  0.47000000000E+01 0. -1.
         -5    1    3    3    0  502  0.81301172517E+02 -0.39917845069E+02 -0.35599868394E+02  0.97430773563E+02  0.47000000000E+01 0. -1.
        -11    1    1    2    0    0 -0.53276117320E+02  0.48292239361E+02 -0.63938667036E+02  0.96221817700E+02  0.00000000000E+00 0.  1.
         11    1    1    2    0    0 -0.28654123632E+01  0.36765435605E+02 -0.17894002571E+03  0.18270041227E+03  0.00000000000E+00 0. -1.
<mgrwt>
<rscale>  0 0.15489222E+03</rscale>
<asrwt>0</asrwt>
<pdfrwt beam="2">  1        2 0.52419504E-01 0.16130609E+03</pdfrwt>
<pdfrwt beam="1">  1       -2 0.15309246E-01 0.16130609E+03</pdfrwt>
<totfact> 0.30754305E+03</totfact>
</mgrwt>
</event>
<event>
 7    1  0.4230786E-006  0.1359197E+03  0.7546771E-02  0.1230762E+00
          2   -1    0    0  501    0  0.00000000000E+00  0.00000000000E+00  0.24630549698E+03  0.24630549698E+03  0.00000000000E+00 0. -1.
         -2   -1    0    0    0  501 -0.00000000000E+00 -0.00000000000E+00 -0.95761373732E+02  0.95761373732E+02  0.00000000000E+00 0.  1.
         23    2    1    2    0    0  0.45144130845E+02 -0.28485695436E+02 -0.23724307347E+02  0.13797463960E+03  0.12499892408E+03 0.  0.
          5    1    3    3  502    0  0.20200748886E+02 -0.27392929326E+02 -0.74031546124E+02  0.81616191127E+02  0.47000000000E+01 0.  1.
         -5    1    3    3    0  502  0.24943381959E+02 -0.10927661097E+01  0.50307238778E+02  0.56358448477E+02  0.47000000000E+01 0.  1.
        -11    1    1    2    0    0  0.21502360694E+02 -0.10566131466E+02  0.18665437265E+02  0.30370926852E+02  0.00000000000E+00 0.  1.
         11    1    1    2    0    0 -0.66646491539E+02  0.39051826901E+02  0.15560299333E+03  0.17372130425E+03  0.00000000000E+00 0. -1.
<mgrwt>
<rscale>  0 0.12779691E+03</rscale>
<asrwt>0</asrwt>
<pdfrwt beam="1">  1        2 0.37893153E-01 0.13591968E+03</pdfrwt>
<pdfrwt beam="2">  1       -2 0.14732519E-01 0.13591968E+03</pdfrwt>
<totfact> 0.45866813E+03</totfact>
</mgrwt>
</event>
<event>
 7    1  0.4230786E-006  0.1568961E+03  0.7546771E-02  0.1200232E+00
         -2   -1    0    0    0  501 -0.00000000000E+00  0.00000000000E+00  0.40700376339E+03  0.40700376339E+03  0.00000000000E+00 0.  1.
          2   -1    0    0  501    0  0.00000000000E+00 -0.00000000000E+00 -0.56542487698E+02  0.56542487698E+02  0.00000000000E+00 0. -1.
         23    2    1    2    0    0 -0.79417782169E+02  0.51829515723E+02  0.26015898819E+03  0.30380762662E+03  0.12499156784E+03 0.  0.
          5    1    3    3  502    0 -0.52310548608E+02  0.92742840946E+02  0.16123369997E+03  0.19327706550E+03  0.47000000000E+01 0.  1.
         -5    1    3    3    0  502 -0.27107233561E+02 -0.40913325223E+02  0.98925288217E+02  0.11053056112E+03  0.47000000000E+01 0.  1.
        -11    1    1    2    0    0  0.22466306322E+02  0.24116749243E+02  0.75694002528E+01  0.33817870040E+02  0.00000000000E+00 0.  1.
         11    1    1    2    0    0  0.56951475847E+02 -0.75946264967E+02  0.82732887255E+02  0.12592075443E+03  0.00000000000E+00 0. -1.
<mgrwt>
<rscale>  0 0.15019614E+03</rscale>
<asrwt>0</asrwt>
<pdfrwt beam="2">  1        2 0.86988445E-02 0.15689606E+03</pdfrwt>
<pdfrwt beam="1">  1       -2 0.62615962E-01 0.15689606E+03</pdfrwt>
<totfact> 0.17997184E+03</totfact>
</mgrwt>
</event>
<event>
 7    1  0.4230786E-006  0.1262115E+03  0.7546771E-02  0.1247149E+00
         -3   -1    0    0    0  501 -0.00000000000E+00  0.00000000000E+00  0.94332939491E+02  0.94332939491E+02  0.00000000000E+00 0.  1.
          3   -1    0    0  501    0  0.00000000000E+00 -0.00000000000E+00 -0.15283343627E+03  0.15283343627E+03  0.00000000000E+00 0. -1.
         23    2    1    2    0    0  0.63475002748E+01  0.16250950352E+02  0.14872412232E+02  0.12708478239E+03  0.12499987649E+03 0.  0.
          5    1    3    3  502    0 -0.54643843426E+02  0.15007767143E+02  0.29668279222E+02  0.64136413144E+02  0.47000000000E+01 0.  1.
         -5    1    3    3    0  502  0.60991343701E+02  0.12431832088E+01 -0.14795866990E+02  0.62948369248E+02  0.47000000000E+01 0.  1.
        -11    1    1    2    0    0  0.35423113953E+01 -0.48800410298E+02 -0.12744682214E+02  0.50561397726E+02  0.00000000000E+00 0.  1.
         11    1    1    2    0    0 -0.98898116700E+01  0.32549459946E+02 -0.60628226797E+02  0.69520195642E+02  0.00000000000E+00 0. -1.
<mgrwt>
<rscale>  0 0.11757673E+03</rscale>
<asrwt>0</asrwt>
<pdfrwt beam="2">  1        3 0.23512837E-01 0.12621154E+03</pdfrwt>
<pdfrwt beam="1">  1       -3 0.14512760E-01 0.12621154E+03</pdfrwt>
<totfact> 0.14975476E+03</totfact>
</mgrwt>
</event>
<event>
 7    1  0.4230786E-006  0.1510230E+03  0.7546771E-02  0.1208747E+00
         -1   -1    0    0    0  501 -0.00000000000E+00  0.00000000000E+00  0.61425137500E+03  0.61425137500E+03  0.00000000000E+00 0.  1.
          1   -1    0    0  501    0  0.00000000000E+00 -0.00000000000E+00 -0.39249469387E+02  0.39249469387E+02  0.00000000000E+00 0. -1.
         23    2    1    2    0    0  0.61197880573E+02 -0.58663973113E+02  0.46358056505E+03  0.48756013464E+03  0.12498520820E+03 0.  0.
          5    1    3    3  502    0 -0.34041292920E+02 -0.91709067748E+01  0.19629480542E+03  0.19949099175E+03  0.47000000000E+01 0.  1.
         -5    1    3    3    0  502  0.95239173493E+02 -0.49493066338E+02  0.26728575963E+03  0.28806914289E+03  0.47000000000E+01 0.  1.
        -11    1    1    2    0    0 -0.40771595182E+02  0.80053259780E+02  0.99489827497E+02  0.13404877154E+03  0.00000000000E+00 0.  1.
         11    1    1    2    0    0 -0.20426285391E+02 -0.21389286667E+02  0.11931513070E+02  0.31891938215E+02  0.00000000000E+00 0. -1.
<mgrwt>
<rscale>  0 0.14346040E+03</rscale>
<asrwt>0</asrwt>
<pdfrwt beam="2">  1        1 0.60383804E-02 0.15102299E+03</pdfrwt>
<pdfrwt beam="1">  1       -1 0.94500204E-01 0.15102299E+03</pdfrwt>
<totfact> 0.14357550E+03</totfact>
</mgrwt>
</event>
<event>
 7    1  0.4230786E-006  0.1362719E+03  0.7546771E-02  0.1229439E+00
         -3   -1    0    0    0  501 -0.00000000000E+00  0.00000000000E+00  0.20488710621E+04  0.20488710621E+04  0.00000000000E+00 0.  1.
          3   -1    0    0  501    0  0.00000000000E+00 -0.00000000000E+00 -0.10418490560E+02  0.10418490560E+02  0.00000000000E+00 0. -1.
         23    2    1    2    0    0  0.39463924514E+02  0.37236196659E+02  0.16615735745E+04  0.16671522969E+04  0.12500440750E+03 0.  0.
          5    1    3    3  502    0  0.35385108880E+02  0.70891750482E+02  0.62579331445E+03  0.63080671257E+03  0.47000000000E+01 0. -1.
         -5    1    3    3    0  502  0.40788156343E+01 -0.33655553823E+02  0.10357802600E+04  0.10363455843E+04  0.47000000000E+01 0. -1.
        -11    1    1    2    0    0 -0.24505945577E+02 -0.68188521227E+02  0.28408956065E+03  0.29318440318E+03  0.00000000000E+00 0.  1.
         11    1    1    2    0    0 -0.14957978938E+02  0.30952324568E+02  0.92789436441E+02  0.98952852637E+02  0.00000000000E+00 0. -1.
<mgrwt>
<rscale>  0 0.12867224E+03</rscale>
<asrwt>0</asrwt>
<pdfrwt beam="2">  1        3 0.16028463E-02 0.13627193E+03</pdfrwt>
<pdfrwt beam="1">  1       -3 0.31521061E+00 0.13627193E+03</pdfrwt>
<totfact> 0.11764873E+02</totfact>
</mgrwt>
</event>
<event>
 7    1  0.4230786E-006  0.1267393E+03  0.7546771E-02  0.1251962E+00
         -2   -1    0    0    0  501 -0.00000000000E+00  0.00000000000E+00  0.31357829543E+02  0.31357829543E+02  0.00000000000E+00 0.  1.
          2   -1    0    0  501    0  0.00000000000E+00 -0.00000000000E+00 -0.35834803838E+03  0.35834803838E+03  0.00000000000E+00 0. -1.
         23    2    1    2    0    0 -0.11982731237E+02 -0.17041493191E+02 -0.19396460066E+03  0.23170047756E+03  0.12501538567E+03 0.  0.
          5    1    3    3  502    0  0.23563192490E+02 -0.62698378049E+02 -0.12182273027E+03  0.13910132372E+03  0.47000000000E+01 0.  1.
         -5    1    3    3    0  502 -0.35545923727E+02  0.45656884858E+02 -0.72141870399E+02  0.92599153847E+02  0.47000000000E+01 0.  1.
        -11    1    1    2    0    0  0.12310005462E+02 -0.28192218809E+02 -0.21152542879E+02  0.37333195766E+02  0.00000000000E+00 0.  1.
         11    1    1    2    0    0 -0.32727422548E+00  0.45233712000E+02 -0.11187306529E+03  0.12067219459E+03  0.00000000000E+00 0. -1.
<mgrwt>
<rscale>  0 0.11478217E+03</rscale>
<asrwt>0</asrwt>
<pdfrwt beam="2">  1        2 0.55130472E-01 0.12673928E+03</pdfrwt>
<pdfrwt beam="1">  1       -2 0.48242811E-02 0.12673928E+03</pdfrwt>
<totfact> 0.17377842E+04</totfact>
</mgrwt>
</event>
<event>
 7    1  0.4230786E-006  0.1378513E+03  0.7546771E-02  0.1228884E+00
         -1   -1    0    0    0  501 -0.00000000000E+00  0.00000000000E+00  0.71209649108E+02  0.71209649108E+02  0.00000000000E+00 0.  1.
          1   -1    0    0  501    0  0.00000000000E+00 -0.00000000000E+00 -0.21637008436E+03  0.21637008436E+03  0.00000000000E+00 0. -1.
         23    2    1    2    0    0  0.56812776838E+02 -0.12226054462E+02 -0.10894897200E+03  0.17570671387E+03  0.12500321107E+03 0.  0.
          5    1    3    3  502    0  0.34867107427E+02  0.53894833547E+02 -0.72475511118E+02  0.96928623096E+02  0.47000000000E+01 0.  1.
         -5    1    3    3    0  502  0.21945669411E+02 -0.66120888010E+02 -0.36473460885E+02  0.78778090774E+02  0.47000000000E+01 0.  1.
        -11    1    1    2    0    0  0.14411913033E+02 -0.20769153387E+02  0.34483928242E+00  0.25282007116E+02  0.00000000000E+00 0.  1.
         11    1    1    2    0    0 -0.71224689871E+02  0.32995207849E+02 -0.36556302533E+02  0.86591012485E+02  0.00000000000E+00 0. -1.
<mgrwt>
<rscale>  0 0.12904202E+03</rscale>
<asrwt>0</asrwt>
<pdfrwt beam="2">  1        1 0.33287705E-01 0.13785126E+03</pdfrwt>
<pdfrwt beam="1">  1       -1 0.10955331E-01 0.13785126E+03</pdfrwt>
<totfact> 0.66763743E+03</totfact>
</mgrwt>
</event>
<event>
 7    1  0.4230786E-006  0.1341401E+03  0.7546771E-02  0.1252458E+00
          3   -1    0    0  501    0  0.00000000000E+00  0.00000000000E+00  0.60917229151E+02  0.60917229151E+02  0.00000000000E+00 0. -1.
         -3   -1    0    0    0  501 -0.00000000000E+00 -0.00000000000E+00 -0.17324634123E+03  0.17324634123E+03  0.00000000000E+00 0.  1.
         23    2    1    2    0    0 -0.48282146208E+02 -0.60670604833E+01 -0.77056248516E+02  0.15469722698E+03  0.12500236692E+03 0.  0.
          5    1    3    3  502    0  0.36643834334E+02 -0.15134161234E+02 -0.53560605800E+00  0.39927312767E+02  0.47000000000E+01 0. -1.
         -5    1    3    3    0  502 -0.84925980542E+02  0.90671007506E+01 -0.76520642458E+02  0.11476991422E+03  0.47000000000E+01 0. -1.
        -11    1    1    2    0    0  0.20728441209E+02  0.25978868150E+02 -0.30553065574E+02  0.45144874364E+02  0.00000000000E+00 0.  1.
         11    1    1    2    0    0  0.27553704998E+02 -0.19911807667E+02 -0.47197979900E+01  0.34321469036E+02  0.00000000000E+00 0. -1.
<mgrwt>
<rscale>  0 0.11449927E+03</rscale>
<asrwt>0</asrwt>
<pdfrwt beam="1">  1        3 0.93718815E-02 0.13414010E+03</pdfrwt>
<pdfrwt beam="2">  1       -3 0.26653283E-01 0.13414010E+03</pdfrwt>
<totfact> 0.25076850E+03</totfact>
</mgrwt>
</event>
<event>
 7    1  0.4230786E-006  0.1692327E+03  0.7546771E-02  0.1185155E+00
          1   -1    0    0  501    0  0.00000000000E+00  0.00000000000E+00  0.90198317018E+02  0.90198317018E+02  0.00000000000E+00 0. -1.
         -1   -1    0    0    0  501 -0.00000000000E+00 -0.00000000000E+00 -0.28475439642E+03  0.28475439642E+03  0.00000000000E+00 0.  1.
         23    2    1    2    0    0  0.11202826873E+03  0.21527842300E+02 -0.13707743043E+03  0.21778412781E+03  0.12500369356E+03 0.  0.
          5    1    3    3  502    0  0.11871926424E+03 -0.25020619319E+02 -0.90565414059E+02  0.15147435201E+03  0.47000000000E+01 0.  1.
         -5    1    3    3    0  502 -0.66909955092E+01  0.46548461619E+02 -0.46512016370E+02  0.66309775801E+02  0.47000000000E+01 0.  1.
        -11    1    1    2    0    0 -0.92693422911E+02  0.19310432913E+02 -0.16381522729E+02  0.96090154320E+02  0.00000000000E+00 0. -1.
         11    1    1    2    0    0 -0.19334845822E+02 -0.40838275213E+02 -0.41097126245E+02  0.61078431307E+02  0.00000000000E+00 0.  1.
<mgrwt>
<rscale>  0 0.16317750E+03</rscale>
<asrwt>0</asrwt>
<pdfrwt beam="1">  1        1 0.13876664E-01 0.16923269E+03</pdfrwt>
<pdfrwt beam="2">  1       -1 0.43808368E-01 0.16923269E+03</pdfrwt>
<totfact> 0.21234479E+03</totfact>
</mgrwt>
</event>
<event>
 6    1  0.4230786E-006  0.3090771E+03  0.7546771E-02  0.1080789E+00
         -1   -1    0    0    0  501 -0.00000000000E+00  0.00000000000E+00  0.52597210282E+03  0.52597210282E+03  0.00000000000E+00 0.  1.
          1   -1    0    0  501    0  0.00000000000E+00 -0.00000000000E+00 -0.45405753009E+02  0.45405753009E+02  0.00000000000E+00 0. -1.
          5    1    1    2  502    0  0.22569918643E+02  0.75539362545E+02  0.99257031091E+02  0.12684496341E+03  0.47000000000E+01 0. -1.
         -5    1    1    2    0  502 -0.56561144438E+01 -0.16876983375E+02  0.31757283006E+03  0.31810598327E+03  0.47000000000E+01 0.  1.
        -11    1    1    2    0    0 -0.43334890491E+02 -0.13645160706E+02  0.58350411312E+02  0.73951833276E+02  0.00000000000E+00 0.  1.
         11    1    1    2    0    0  0.26421086292E+02 -0.45017218464E+02  0.53860773482E+01  0.52475075877E+02  0.00000000000E+00 0. -1.
<mgrwt>
<rscale>  0 0.30907707E+03</rscale>
<asrwt>0</asrwt>
<pdfrwt beam="2">  1        1 0.69855008E-02 0.30907707E+03</pdfrwt>
<pdfrwt beam="1">  1       -1 0.80918781E-01 0.30907707E+03</pdfrwt>
<totfact> 0.16708663E+03</totfact>
</mgrwt>
</event>
<event>
 7    1  0.4230786E-006  0.2011606E+03  0.7546771E-02  0.1153171E+00
          2   -1    0    0  501    0  0.00000000000E+00  0.00000000000E+00  0.24656046499E+03  0.24656046499E+03  0.00000000000E+00 0. -1.
         -2   -1    0    0    0  501 -0.00000000000E+00 -0.00000000000E+00 -0.16563481194E+03  0.16563481194E+03  0.00000000000E+00 0.  1.
         23    2    1    2    0    0  0.35276833667E+02  0.15360968572E+03 -0.24293690690E+02  0.20262222494E+03  0.12500076836E+03 0.  0.
          5    1    3    3  502    0  0.72542826172E+02  0.14360635780E+03 -0.28722796531E+02  0.16350026505E+03  0.47000000000E+01 0.  1.
         -5    1    3    3    0  502 -0.37265992505E+02  0.10003327918E+02  0.44291058409E+01  0.39121959886E+02  0.47000000000E+01 0.  1.
        -11    1    1    2    0    0  0.28419992709E+02 -0.55156916015E+02  0.51300790197E+02  0.80509331414E+02  0.00000000000E+00 0. -1.
         11    1    1    2    0    0 -0.63696826376E+02 -0.98452769706E+02  0.53918553548E+02  0.12906372058E+03  0.00000000000E+00 0.  1.
<mgrwt>
<rscale>  0 0.19598539E+03</rscale>
<asrwt>0</asrwt>
<pdfrwt beam="1">  1        2 0.37932379E-01 0.20116059E+03</pdfrwt>
<pdfrwt beam="2">  1       -2 0.25482279E-01 0.20116059E+03</pdfrwt>
<totfact> 0.18413731E+03</totfact>
</mgrwt>
</event>
<event>
 6    1  0.4230786E-006  0.3006661E+03  0.7546771E-02  0.1122043E+00
          2   -1    0    0  501    0  0.00000000000E+00  0.00000000000E+00  0.15281170882E+03  0.15281170882E+03  0.00000000000E+00 0. -1.
         -2   -1    0    0    0  501 -0.00000000000E+00 -0.00000000000E+00 -0.32271718279E+03  0.32271718279E+03  0.00000000000E+00 0.  1.
          5    1    1    2  502    0  0.89956271693E+02 -0.10229357495E+03 -0.38630724283E+02  0.14167049499E+03  0.47000000000E+01 0. -1.
         -5    1    1    2    0  502 -0.35564731804E+02  0.14598929710E+03 -0.15513036713E+03  0.21602140130E+03  0.47000000000E+01 0.  1.
        -11    1    1    2    0    0 -0.63760932005E+02  0.61437503019E+01  0.72010994700E+01  0.64459738997E+02  0.00000000000E+00 0.  1.
         11    1    1    2    0    0  0.93693921163E+01 -0.49839472454E+02  0.16654517977E+02  0.53377256319E+02  0.00000000000E+00 0. -1.
<mgrwt>
<rscale>  0 0.23665301E+03</rscale>
<asrwt>0</asrwt>
<pdfrwt beam="1">  1        2 0.23509494E-01 0.30066615E+03</pdfrwt>
<pdfrwt beam="2">  1       -2 0.49648797E-01 0.30066615E+03</pdfrwt>
<totfact> 0.90065651E+02</totfact>
</mgrwt>
</event>
<event>
 7    1  0.4230786E-006  0.1525263E+03  0.7546771E-02  0.1212459E+00
          2   -1    0    0  501    0  0.00000000000E+00  0.00000000000E+00  0.46910165138E+02  0.46910165138E+02  0.00000000000E+00 0. -1.
         -2   -1    0    0    0  501 -0.00000000000E+00 -0.00000000000E+00 -0.39708742540E+03  0.39708742540E+03  0.00000000000E+00 0.  1.
         23    2    1    2    0    0  0.86821989641E+02 -0.10076068538E+02 -0.26045036832E+03  0.30182553989E+03  0.12499870851E+03 0.  0.
          5    1    3    3  502    0 -0.74909684848E+01  0.34504357987E+02 -0.22925069408E+02  0.42359345324E+02  0.47000000000E+01 0.  1.
         -5    1    3    3    0  502  0.94312958125E+02 -0.44580426525E+02 -0.23752529891E+03  0.25946619456E+03  0.47000000000E+01 0.  1.
        -11    1    1    2    0    0 -0.44938068154E+02  0.37487990493E+02 -0.60661526381E+02  0.84288790378E+02  0.00000000000E+00 0.  1.
         11    1    1    2    0    0 -0.41883921487E+02 -0.27411921955E+02 -0.29065365564E+02  0.57883260272E+02  0.00000000000E+00 0. -1.
<mgrwt>
<rscale>  0 0.14064814E+03</rscale>
<asrwt>0</asrwt>
<pdfrwt beam="1">  1        2 0.72169482E-02 0.15252627E+03</pdfrwt>
<pdfrwt beam="2">  1       -2 0.61090376E-01 0.15252627E+03</pdfrwt>
<totfact> 0.23934300E+03</totfact>
</mgrwt>
</event>
<event>
 7    1  0.4426764E-006  0.1707462E+03  0.7546771E-02  0.1183028E+00
         -1   -1    0    0    0  501 -0.00000000000E+00  0.00000000000E+00  0.43601073889E+02  0.43601073889E+02  0.00000000000E+00 0.  1.
          1   -1    0    0  501    0  0.00000000000E+00 -0.00000000000E+00 -0.59780357551E+03  0.59780357551E+03  0.00000000000E+00 0. -1.
         23    2    1    2    0    0 -0.26421544285E+02  0.11327380152E+03 -0.25330283387E+03  0.30547766431E+03  0.12500090255E+03 0.  0.
          5    1    3    3  502    0  0.22975318191E+00 -0.26973943767E+02 -0.50138822629E+02  0.57128258888E+02  0.47000000000E+01 0.  1.
         -5    1    3    3    0  502 -0.26651297467E+02  0.14024774528E+03 -0.20316401124E+03  0.24834940543E+03  0.47000000000E+01 0.  1.
        -11    1    1    2    0    0  0.56313684098E+02 -0.43596402068E+02 -0.17534455737E+03  0.18925535947E+03  0.00000000000E+00 0.  1.
         11    1    1    2    0    0 -0.29892139812E+02 -0.69677399448E+02 -0.12555511039E+03  0.14667162562E+03  0.00000000000E+00 0. -1.
<mgrwt>
<rscale>  0 0.16512654E+03</rscale>
<asrwt>0</asrwt>
<pdfrwt beam="2">  1        1 0.91969772E-01 0.17074624E+03</pdfrwt>
<pdfrwt beam="1">  1       -1 0.67078582E-02 0.17074624E+03</pdfrwt>
<totfact> 0.39091313E+03</totfact>
</mgrwt>
</event>
<event>
 6    1  0.4230786E-006  0.1869296E+03  0.7546771E-02  0.1174185E+00
          2   -1    0    0  501    0  0.00000000000E+00  0.00000000000E+00  0.62192380942E+03  0.62192380942E+03  0.00000000000E+00 0. -1.
         -2   -1    0    0    0  501 -0.00000000000E+00 -0.00000000000E+00 -0.42767079883E+02  0.42767079883E+02  0.00000000000E+00 0.  1.
          5    1    1    2  502    0 -0.69626801139E+02  0.10647936174E+03  0.26418737489E+03  0.29326234836E+03  0.47000000000E+01 0. -1.
         -5    1    1    2    0  502  0.52714704618E+02 -0.26781744464E+01  0.53246174137E+02  0.75121619801E+02  0.47000000000E+01 0.  1.
        -11    1    1    2    0    0  0.13921853489E+02 -0.18545286985E+02  0.24009832964E+01  0.23313309390E+02  0.00000000000E+00 0.  1.
         11    1    1    2    0    0  0.29902430324E+01 -0.85255900307E+02  0.25932219721E+03  0.27299361175E+03  0.00000000000E+00 0. -1.
<mgrwt>
<rscale>  0 0.17356007E+03</rscale>
<asrwt>0</asrwt>
<pdfrwt beam="1">  1        2 0.95680579E-01 0.18692964E+03</pdfrwt>
<pdfrwt beam="2">  1       -2 0.65795512E-02 0.18692964E+03</pdfrwt>
<totfact> 0.60797692E+03</totfact>
</mgrwt>
</event>
<event>
 7    1  0.4230786E-006  0.1381790E+03  0.7546771E-02  0.1227688E+00
         -2   -1    0    0    0  501 -0.00000000000E+00  0.00000000000E+00  0.53468846911E+02  0.53468846911E+02  0.00000000000E+00 0.  1.
          2   -1    0    0  501    0  0.00000000000E+00 -0.00000000000E+00 -0.34726780718E+03  0.34726780718E+03  0.00000000000E+00 0. -1.
         23    2    1    2    0    0 -0.48269900497E+02 -0.33626927504E+02 -0.75884649229E+02  0.15764489534E+03  0.12503071419E+03 0.  0.
          5    1    3    3  502    0 -0.60573930145E+01 -0.72769164859E+02 -0.66988543322E+02  0.99204830028E+02  0.47000000000E+01 0. -1.
         -5    1    3    3    0  502 -0.42212507483E+02  0.39142237355E+02 -0.88961059067E+01  0.58440065310E+02  0.47000000000E+01 0. -1.
        -11    1    1    2    0    0 -0.26127469400E+02  0.99638324997E+01 -0.78137789071E+02  0.82990581973E+02  0.00000000000E+00 0. -1.
         11    1    1    2    0    0  0.74397369897E+02  0.23663095005E+02 -0.13977652197E+03  0.16010117678E+03  0.00000000000E+00 0.  1.
<mgrwt>
<rscale>  0 0.12984383E+03</rscale>
<asrwt>0</asrwt>
<pdfrwt beam="2">  1        2 0.53425818E-01 0.13817899E+03</pdfrwt>
<pdfrwt beam="1">  1       -2 0.82259762E-02 0.13817899E+03</pdfrwt>
<totfact> 0.80360908E+03</totfact>
</mgrwt>
</event>
<event>
 7    1  0.4230786E-006  0.1256169E+03  0.7546771E-02  0.1254264E+00
          3   -1    0    0  501    0  0.00000000000E+00  0.00000000000E+00  0.61519351570E+02  0.61519351570E+02  0.00000000000E+00 0. -1.
         -3   -1    0    0    0  501 -0.00000000000E+00 -0.00000000000E+00 -0.17798629872E+03  0.17798629872E+03  0.00000000000E+00 0.  1.
         23    2    1    2    0    0  0.24240091961E+01 -0.12216509624E+02 -0.71134937195E+02  0.14435987624E+03  0.12499790258E+03 0.  0.
          5    1    3    3  502    0 -0.43106438667E+02 -0.41623080470E+02 -0.66682276507E+02  0.89773391840E+02  0.47000000000E+01 0. -1.
         -5    1    3    3    0  502  0.45530447863E+02  0.29406570846E+02 -0.44526606882E+01  0.54586484396E+02  0.47000000000E+01 0. -1.
        -11    1    1    2    0    0 -0.26609349867E+02  0.36792930778E+02 -0.11502986631E+02  0.46841178006E+02  0.00000000000E+00 0. -1.
         11    1    1    2    0    0  0.24185340671E+02 -0.24576421154E+02 -0.33829023319E+02  0.48304596042E+02  0.00000000000E+00 0.  1.
<mgrwt>
<rscale>  0 0.11347640E+03</rscale>
<asrwt>0</asrwt>
<pdfrwt beam="1">  1        3 0.94645157E-02 0.12561686E+03</pdfrwt>
<pdfrwt beam="2">  1       -3 0.27382507E-01 0.12561686E+03</pdfrwt>
<totfact> 0.23210915E+03</totfact>
</mgrwt>
</event>
<event>
 7    1  0.5342139E-006  0.2594557E+03  0.7546771E-02  0.1109721E+00
         -1   -1    0    0    0  501 -0.00000000000E+00  0.00000000000E+00  0.37481034061E+02  0.37481034061E+02  0.00000000000E+00 0.  1.
          1   -1    0    0  501    0  0.00000000000E+00 -0.00000000000E+00 -0.17158110580E+04  0.17158110580E+04  0.00000000000E+00 0. -1.
         23    2    1    2    0    0 -0.22588995018E+03 -0.25805705075E+02 -0.95449071175E+03  0.98912576665E+03  0.12500023773E+03 0.  0.
          5    1    3    3  502    0 -0.23781651413E+03 -0.24615475078E+02 -0.93905987360E+03  0.96902948986E+03  0.47000000000E+01 0. -1.
         -5    1    3    3    0  502  0.11926563948E+02 -0.11902299964E+01 -0.15430838149E+02  0.20096276795E+02  0.47000000000E+01 0. -1.
        -11    1    1    2    0    0  0.64904528445E+02 -0.19896901479E+02 -0.12337522552E+03  0.14081878701E+03  0.00000000000E+00 0.  1.
         11    1    1    2    0    0  0.16098542174E+03  0.45702606554E+02 -0.60046408668E+03  0.62334753842E+03  0.00000000000E+00 0. -1.
<mgrwt>
<rscale>  0 0.25575404E+03</rscale>
<asrwt>0</asrwt>
<pdfrwt beam="2">  1        1 0.26397093E+00 0.25945571E+03</pdfrwt>
<pdfrwt beam="1">  1       -1 0.57663130E-02 0.25945571E+03</pdfrwt>
<totfact> 0.73362010E+02</totfact>
</mgrwt>
</event>
<event>
 7    1  0.4230786E-006  0.1251227E+03  0.7546771E-02  0.1250102E+00
         -1   -1    0    0    0  501 -0.00000000000E+00  0.00000000000E+00  0.73825210824E+02  0.73825210824E+02  0.00000000000E+00 0.  1.
          1   -1    0    0  501    0  0.00000000000E+00 -0.00000000000E+00 -0.16722097877E+03  0.16722097877E+03  0.00000000000E+00 0. -1.
         23    2    1    2    0    0  0.12990235966E+02 -0.10562059543E+01 -0.28036529630E+02  0.12822533498E+03  0.12444206578E+03 0.  0.
          5    1    3    3  502    0 -0.48553041949E+01 -0.59254088677E+02 -0.30774738039E+02  0.67110323387E+02  0.47000000000E+01 0.  1.
         -5    1    3    3    0  502  0.17845540161E+02  0.58197882723E+02  0.27382084091E+01  0.61115011596E+02  0.47000000000E+01 0.  1.
        -11    1    1    2    0    0  0.24565524082E+02  0.24963605912E+02 -0.16041150612E+01  0.35060230728E+02  0.00000000000E+00 0.  1.
         11    1    1    2    0    0 -0.37555760048E+02 -0.23907399958E+02 -0.63755123258E+02  0.77760623887E+02  0.00000000000E+00 0. -1.
<mgrwt>
<rscale>  0 0.11585167E+03</rscale>
<asrwt>0</asrwt>
<pdfrwt beam="2">  1        1 0.25726304E-01 0.12512270E+03</pdfrwt>
<pdfrwt beam="1">  1       -1 0.11357725E-01 0.12512270E+03</pdfrwt>
<totfact> 0.86437145E+03</totfact>
</mgrwt>
</event>
<event>
 7    1  0.4230786E-006  0.1954368E+03  0.7546771E-02  0.1158945E+00
          1   -1    0    0  501    0  0.00000000000E+00  0.00000000000E+00  0.77599662839E+03  0.77599662839E+03  0.00000000000E+00 0. -1.
         -1   -1    0    0    0  501 -0.00000000000E+00 -0.00000000000E+00 -0.43725843259E+02  0.43725843259E+02  0.00000000000E+00 0.  1.
         23    2    1    2    0    0 -0.10882606048E+03 -0.10356636798E+03  0.40659610470E+03  0.45112740625E+03  0.12500576106E+03 0.  0.
          5    1    3    3  502    0 -0.12611226987E+03 -0.10696131117E+03  0.29646787710E+03  0.33950010140E+03  0.47000000000E+01 0.  1.
         -5    1    3    3    0  502  0.17286209388E+02  0.33949431909E+01  0.11012822761E+03  0.11162730486E+03  0.47000000000E+01 0.  1.
        -11    1    1    2    0    0  0.81505242791E+02  0.11544287981E+03  0.24851827080E+03  0.28588720507E+03  0.00000000000E+00 0.  1.
         11    1    1    2    0    0  0.27320817689E+02 -0.11876511832E+02  0.77156409629E+02  0.82707860324E+02  0.00000000000E+00 0. -1.
<mgrwt>
<rscale>  0 0.18946489E+03</rscale>
<asrwt>0</asrwt>
<pdfrwt beam="1">  1        1 0.11938409E+00 0.19543680E+03</pdfrwt>
<pdfrwt beam="2">  1       -1 0.67270534E-02 0.19543680E+03</pdfrwt>
<totfact> 0.26887918E+03</totfact>
</mgrwt>
</event>
<event>
 7    1  0.4230786E-006  0.1419896E+03  0.7546771E-02  0.1221261E+00
          2   -1    0    0  501    0  0.00000000000E+00  0.00000000000E+00  0.97499033304E+02  0.97499033304E+02  0.00000000000E+00 0. -1.
         -2   -1    0    0    0  501 -0.00000000000E+00 -0.00000000000E+00 -0.17542611629E+03  0.17542611629E+03  0.00000000000E+00 0.  1.
         23    2    1    2    0    0  0.49633150316E+02  0.45386843343E+02 -0.72114399423E+02  0.15925303728E+03  0.12505050228E+03 0.  0.
          5    1    3    3  502    0  0.82827203144E+02  0.51870133719E+01 -0.20224699462E+02  0.85547525719E+02  0.47000000000E+01 0.  1.
         -5    1    3    3    0  502 -0.33194052827E+02  0.40199829971E+02 -0.51889699962E+02  0.73705511564E+02  0.47000000000E+01 0.  1.
        -11    1    1    2    0    0 -0.27804141740E+02  0.21392768532E+02 -0.22217898813E+02  0.41525364189E+02  0.00000000000E+00 0.  1.
         11    1    1    2    0    0 -0.21829008576E+02 -0.66779611875E+02  0.16405215248E+02  0.72146748124E+02  0.00000000000E+00 0. -1.
<mgrwt>
<rscale>  0 0.13426528E+03</rscale>
<asrwt>0</asrwt>
<pdfrwt beam="1">  1        2 0.14999851E-01 0.14198959E+03</pdfrwt>
<pdfrwt beam="2">  1       -2 0.26988633E-01 0.14198959E+03</pdfrwt>
<totfact> 0.46220299E+03</totfact>
</mgrwt>
</event>
<event>
 7    1  0.4230786E-006  0.1290122E+03  0.7546771E-02  0.1242141E+00
          3   -1    0    0  501    0  0.00000000000E+00  0.00000000000E+00  0.16234522504E+02  0.16234522504E+02  0.00000000000E+00 0. -1.
         -3   -1    0    0    0  501 -0.00000000000E+00 -0.00000000000E+00 -0.85553048956E+03  0.85553048956E+03  0.00000000000E+00 0.  1.
         23    2    1    2    0    0  0.18852084835E+02 -0.25774156467E+02 -0.58542389451E+03  0.59947082961E+03  0.12499772418E+03 0.  0.
          5    1    3    3  502    0 -0.33048870387E+02 -0.44357219803E+02 -0.44645317716E+03  0.44989145377E+03  0.47000000000E+01 0.  1.
         -5    1    3    3    0  502  0.51900955222E+02  0.18583063336E+02 -0.13897071735E+03  0.14957937584E+03  0.47000000000E+01 0.  1.
        -11    1    1    2    0    0 -0.32917084136E+02 -0.24956812268E+02 -0.15341075008E+03  0.15887490408E+03  0.00000000000E+00 0.  1.
         11    1    1    2    0    0  0.14064999301E+02  0.50730968736E+02 -0.10046132247E+03  0.11341927837E+03  0.00000000000E+00 0. -1.
<mgrwt>
<rscale>  0 0.12058153E+03</rscale>
<asrwt>0</asrwt>
<pdfrwt beam="1">  1        3 0.24976180E-02 0.12901217E+03</pdfrwt>
<pdfrwt beam="2">  1       -3 0.13162012E+00 0.12901217E+03</pdfrwt>
<totfact> 0.73678208E+02</totfact>
</mgrwt>
</event>
<event>
 7    1  0.4230786E-006  0.1258823E+03  0.7546771E-02  0.1234412E+00
          2   -1    0    0  501    0  0.00000000000E+00  0.00000000000E+00  0.31429134492E+02  0.31429134492E+02  0.00000000000E+00 0. -1.
         -2   -1    0    0    0  501 -0.00000000000E+00 -0.00000000000E+00 -0.69643653527E+03  0.69643653527E+03  0.00000000000E+00 0.  1.
         23    2    1    2    0    0 -0.14806913153E+02  0.74348455657E+00 -0.52905016859E+03  0.54382021287E+03  0.12500618223E+03 0.  0.
          5    1    3    3  502    0 -0.18429721884E+02 -0.56875796861E+02 -0.36385200468E+03  0.36876128081E+03  0.47000000000E+01 0. -1.
         -5    1    3    3    0  502  0.36228087310E+01  0.57619281418E+02 -0.16519816391E+03  0.17505893206E+03  0.47000000000E+01 0. -1.
        -11    1    1    2    0    0  0.24514516885E+02  0.57791061453E+02 -0.53629356597E+02  0.82564376162E+02  0.00000000000E+00 0. -1.
         11    1    1    2    0    0 -0.97076037323E+01 -0.58534546009E+02 -0.82327875591E+02  0.10148108073E+03  0.00000000000E+00 0.  1.
<mgrwt>
<rscale>  0 0.12542163E+03</rscale>
<asrwt>0</asrwt>
<pdfrwt beam="1">  1        2 0.48352518E-02 0.12588226E+03</pdfrwt>
<pdfrwt beam="2">  1       -2 0.10714408E+00 0.12588226E+03</pdfrwt>
<totfact> 0.11555493E+03</totfact>
</mgrwt>
</event>
<event>
 7    1  0.4230786E-006  0.1254561E+03  0.7546771E-02  0.1249731E+00
          2   -1    0    0  501    0  0.00000000000E+00  0.00000000000E+00  0.11194932892E+04  0.11194932892E+04  0.00000000000E+00 0. -1.
         -2   -1    0    0    0  501 -0.00000000000E+00 -0.00000000000E+00 -0.10736682664E+02  0.10736682664E+02  0.00000000000E+00 0.  1.
         23    2    1    2    0    0 -0.82859627962E+01  0.68647288078E+01  0.71191963753E+03  0.72288920482E+03  0.12499380170E+03 0.  0.
          5    1    3    3  502    0 -0.47112895096E+02  0.70952996207E+01  0.63301878968E+03  0.63482662692E+03  0.47000000000E+01 0.  1.
         -5    1    3    3    0  502  0.38826932299E+02 -0.23057081288E+00  0.78900847851E+02  0.88062577900E+02  0.47000000000E+01 0.  1.
        -11    1    1    2    0    0 -0.36427475760E+02 -0.20215067715E+02  0.24426497585E+03  0.24779222824E+03  0.00000000000E+00 0. -1.
         11    1    1    2    0    0  0.44713438556E+02  0.13350338908E+02  0.15257199317E+03  0.15954853881E+03  0.00000000000E+00 0.  1.
<mgrwt>
<rscale>  0 0.11606630E+03</rscale>
<asrwt>0</asrwt>
<pdfrwt beam="1">  1        2 0.17222964E+00 0.12545610E+03</pdfrwt>
<pdfrwt beam="2">  1       -2 0.16517982E-02 0.12545610E+03</pdfrwt>
<totfact> 0.21643622E+04</totfact>
</mgrwt>
</event>
<event>
 7    1  0.4230786E-006  0.1292939E+03  0.7546771E-02  0.1242874E+00
         -1   -1    0    0    0  501 -0.00000000000E+00  0.00000000000E+00  0.75331307982E+02  0.75331307982E+02  0.00000000000E+00 0.  1.
          1   -1    0    0  501    0  0.00000000000E+00 -0.00000000000E+00 -0.17744189879E+03  0.17744189879E+03  0.00000000000E+00 0. -1.
         23    2    1    2    0    0  0.27955843974E+02 -0.17693108313E+02 -0.30869162063E+02  0.13292784731E+03  0.12498932807E+03 0.  0.
          5    1    3    3  502    0 -0.29260328377E+02 -0.53533448841E+02 -0.92724699535E+01  0.61887524272E+02  0.47000000000E+01 0. -1.
         -5    1    3    3    0  502  0.57216172351E+02  0.35840340528E+02 -0.21596692109E+02  0.71040323041E+02  0.47000000000E+01 0. -1.
        -11    1    1    2    0    0 -0.40937628753E+02  0.42558971928E+02 -0.21698286132E+02  0.62912408638E+02  0.00000000000E+00 0.  1.
         11    1    1    2    0    0  0.12981784779E+02 -0.24865863615E+02 -0.49543142617E+02  0.56932950825E+02  0.00000000000E+00 0. -1.
<mgrwt>
<rscale>  0 0.12013546E+03</rscale>
<asrwt>0</asrwt>
<pdfrwt beam="2">  1        1 0.27298754E-01 0.12929388E+03</pdfrwt>
<pdfrwt beam="1">  1       -1 0.11589432E-01 0.12929388E+03</pdfrwt>
<totfact> 0.78008293E+03</totfact>
</mgrwt>
</event>
<event>
 7    1  0.4230786E-006  0.1405048E+03  0.7546771E-02  0.1223450E+00
         -2   -1    0    0    0  501 -0.00000000000E+00  0.00000000000E+00  0.68565320642E+02  0.68565320642E+02  0.00000000000E+00 0.  1.
          2   -1    0    0  501    0  0.00000000000E+00 -0.00000000000E+00 -0.25438394280E+03  0.25438394280E+03  0.00000000000E+00 0. -1.
         23    2    1    2    0    0  0.36866483232E+02  0.52512365136E+02 -0.55243383171E+02  0.15097491730E+03  0.12499963277E+03 0.  0.
          5    1    3    3  502    0  0.27817320549E+02 -0.28038210998E+02 -0.57304213689E+02  0.69755340333E+02  0.47000000000E+01 0.  1.
         -5    1    3    3    0  502  0.90491626834E+01  0.80550576134E+02  0.20608305179E+01  0.81219576970E+02  0.47000000000E+01 0.  1.
        -11    1    1    2    0    0 -0.66606602266E+01 -0.65047933606E+02 -0.42405344965E+02  0.77934660727E+02  0.00000000000E+00 0.  1.
         11    1    1    2    0    0 -0.30205823006E+02  0.12535568470E+02 -0.88169894024E+02  0.94039685412E+02  0.00000000000E+00 0. -1.
<mgrwt>
<rscale>  0 0.13273693E+03</rscale>
<asrwt>0</asrwt>
<pdfrwt beam="2">  1        2 0.39135991E-01 0.14050478E+03</pdfrwt>
<pdfrwt beam="1">  1       -2 0.10548511E-01 0.14050478E+03</pdfrwt>
<totfact> 0.75884787E+03</totfact>
</mgrwt>
</event>
<event>
 7    1  0.4230786E-006  0.1383159E+03  0.7546771E-02  0.1226078E+00
         -1   -1    0    0    0  501 -0.00000000000E+00  0.00000000000E+00  0.23186720794E+03  0.23186720794E+03  0.00000000000E+00 0.  1.
          1   -1    0    0  501    0  0.00000000000E+00 -0.00000000000E+00 -0.84449781254E+02  0.84449781254E+02  0.00000000000E+00 0. -1.
         23    2    1    2    0    0  0.37173840320E+02  0.46098726350E+02  0.15154385369E+03  0.20517509451E+03  0.12499717133E+03 0.  0.
          5    1    3    3  502    0  0.43603912661E+02  0.75076008122E+02  0.52263091486E+02  0.10144569447E+03  0.47000000000E+01 0. -1.
         -5    1    3    3    0  502 -0.64300723411E+01 -0.28977281772E+02  0.99280762200E+02  0.10372940004E+03  0.47000000000E+01 0. -1.
        -11    1    1    2    0    0 -0.13110537249E+02 -0.31588111393E+02  0.43808625907E+02  0.55577789378E+02  0.00000000000E+00 0.  1.
         11    1    1    2    0    0 -0.24063303071E+02 -0.14510614957E+02 -0.47935052908E+02  0.55564105306E+02  0.00000000000E+00 0. -1.
<mgrwt>
<rscale>  0 0.13093284E+03</rscale>
<asrwt>0</asrwt>
<pdfrwt beam="2">  1        1 0.12992274E-01 0.13831587E+03</pdfrwt>
<pdfrwt beam="1">  1       -1 0.35671878E-01 0.13831587E+03</pdfrwt>
<totfact> 0.32887798E+03</totfact>
</mgrwt>
</event>
<event>
 7    1  0.4230786E-006  0.1320348E+03  0.7546771E-02  0.1239315E+00
          2   -1    0    0  501    0  0.00000000000E+00  0.00000000000E+00  0.12256865236E+03  0.12256865236E+03  0.00000000000E+00 0. -1.
         -2   -1    0    0    0  501 -0.00000000000E+00 -0.00000000000E+00 -0.10905503103E+03  0.10905503103E+03  0.00000000000E+00 0.  1.
         23    2    1    2    0    0 -0.32340920469E+01  0.42377987976E+02  0.22525277291E+02  0.13394241187E+03  0.12500731324E+03 0.  0.
          5    1    3    3  502    0 -0.14410487966E+02  0.53628368636E+02  0.66615045868E+02  0.86852279314E+02  0.47000000000E+01 0.  1.
         -5    1    3    3    0  502  0.11176395919E+02 -0.11250380660E+02 -0.44089768577E+02  0.47090132554E+02  0.47000000000E+01 0.  1.
        -11    1    1    2    0    0  0.90476971083E+01 -0.61677298232E+02 -0.29478306385E+02  0.68955931489E+02  0.00000000000E+00 0.  1.
         11    1    1    2    0    0 -0.58136050614E+01  0.19299310256E+02  0.20466650422E+02  0.28725340027E+02  0.00000000000E+00 0. -1.
<mgrwt>
<rscale>  0 0.12232213E+03</rscale>
<asrwt>0</asrwt>
<pdfrwt beam="1">  1        2 0.18856716E-01 0.13203477E+03</pdfrwt>
<pdfrwt beam="2">  1       -2 0.16777697E-01 0.13203477E+03</pdfrwt>
<totfact> 0.79526094E+03</totfact>
</mgrwt>
</event>
<event>
 7    1  0.4230786E-006  0.1128392E+03  0.7546771E-02  0.1264276E+00
          1   -1    0    0  501    0  0.00000000000E+00  0.00000000000E+00  0.52315799283E+02  0.52315799283E+02  0.00000000000E+00 0. -1.
         -1   -1    0    0    0  501 -0.00000000000E+00 -0.00000000000E+00 -0.24715384181E+03  0.24715384181E+03  0.00000000000E+00 0.  1.
         23    2    1    2    0    0 -0.22876635343E+02 -0.91976105220E+01 -0.16541338481E+03  0.20023555360E+03  0.11011245420E+03 0.  0.
          5    1    3    3  502    0 -0.24685514228E+02 -0.46693859938E+02 -0.32845254751E+02  0.62374609644E+02  0.47000000000E+01 0. -1.
         -5    1    3    3    0  502  0.18088788855E+01  0.37496249416E+02 -0.13256813005E+03  0.13786094396E+03  0.47000000000E+01 0.  1.
        -11    1    1    2    0    0  0.18912885643E+02 -0.36141646512E+02  0.64304976413E+01  0.41294880505E+02  0.00000000000E+00 0. -1.
         11    1    1    2    0    0  0.39637496998E+01  0.45339257034E+02 -0.35855155364E+02  0.57939206987E+02  0.00000000000E+00 0.  1.
<mgrwt>
<rscale>  0 0.10802250E+03</rscale>
<asrwt>0</asrwt>
<pdfrwt beam="1">  1        1 0.80485844E-02 0.11283922E+03</pdfrwt>
<pdfrwt beam="2">  1       -1 0.38023669E-01 0.11283922E+03</pdfrwt>
<totfact> 0.54729105E+03</totfact>
</mgrwt>
</event>
<event>
 7    1  0.4230786E-006  0.1428934E+03  0.7546771E-02  0.1220351E+00
         -2   -1    0    0    0  501 -0.00000000000E+00  0.00000000000E+00  0.95962156472E+02  0.95962156472E+02  0.00000000000E+00 0.  1.
          2   -1    0    0  501    0  0.00000000000E+00 -0.00000000000E+00 -0.19073367690E+03  0.19073367690E+03  0.00000000000E+00 0. -1.
         23    2    1    2    0    0  0.14965016697E+02  0.67622609685E+02 -0.67676961787E+01  0.14305359985E+03  0.12498704594E+03 0.  0.
          5    1    3    3  502    0  0.40154341839E+02 -0.24297190993E+02  0.21236743984E+01  0.47215724622E+02  0.47000000000E+01 0. -1.
         -5    1    3    3    0  502 -0.25189325141E+02  0.91919800678E+02 -0.88913705771E+01  0.95837875229E+02  0.47000000000E+01 0. -1.
        -11    1    1    2    0    0 -0.15782575793E+02 -0.89464159162E+02 -0.63684260162E+02  0.11094417725E+03  0.00000000000E+00 0.  1.
         11    1    1    2    0    0  0.81755909545E+00  0.21841549477E+02 -0.24319564086E+02  0.32698056269E+02  0.00000000000E+00 0. -1.
<mgrwt>
<rscale>  0 0.13490689E+03</rscale>
<asrwt>0</asrwt>
<pdfrwt beam="2">  1        2 0.29343643E-01 0.14289342E+03</pdfrwt>
<pdfrwt beam="1">  1       -2 0.14763409E-01 0.14289342E+03</pdfrwt>
<totfact> 0.60364274E+03</totfact>
</mgrwt>
</event>
<event>
 7    1  0.4230786E-006  0.1656742E+03  0.7546771E-02  0.1189062E+00
         -2   -1    0    0    0  501 -0.00000000000E+00  0.00000000000E+00  0.57752630840E+02  0.57752630840E+02  0.00000000000E+00 0.  1.
          2   -1    0    0  501    0  0.00000000000E+00 -0.00000000000E+00 -0.46411960244E+03  0.46411960244E+03  0.00000000000E+00 0. -1.
         23    2    1    2    0    0 -0.53783773319E+02 -0.94500017499E+02 -0.30342265394E+03  0.34570687195E+03  0.12499994723E+03 0.  0.
          5    1    3    3  502    0  0.22200718537E+02 -0.24863581850E+01 -0.37763535885E+01  0.23138814296E+02  0.47000000000E+01 0.  1.
         -5    1    3    3    0  502 -0.75984491856E+02 -0.92013659314E+02 -0.29964630035E+03  0.32256805765E+03  0.47000000000E+01 0.  1.
        -11    1    1    2    0    0  0.62448132281E+02  0.10736252834E+03 -0.10184069723E+03  0.16061758723E+03  0.00000000000E+00 0. -1.
         11    1    1    2    0    0 -0.86643589623E+01 -0.12862510838E+02 -0.11036204261E+01  0.15547774096E+02  0.00000000000E+00 0.  1.
<mgrwt>
<rscale>  0 0.15967704E+03</rscale>
<asrwt>0</asrwt>
<pdfrwt beam="2">  1        2 0.71403015E-01 0.16567418E+03</pdfrwt>
<pdfrwt beam="1">  1       -2 0.88850202E-02 0.16567418E+03</pdfrwt>
<totfact> 0.52741627E+03</totfact>
</mgrwt>
</event>
<event>
 7    1  0.4230786E-006  0.1617954E+03  0.7546771E-02  0.1194747E+00
         -1   -1    0    0    0  501 -0.00000000000E+00  0.00000000000E+00  0.40551204676E+02  0.40551204676E+02  0.00000000000E+00 0.  1.
          1   -1    0    0  501    0  0.00000000000E+00 -0.00000000000E+00 -0.58348975840E+03  0.58348975840E+03  0.00000000000E+00 0. -1.
         23    2    1    2    0    0  0.95461320641E+02  0.37928680315E+02 -0.21371780643E+03  0.26805418277E+03  0.12500518224E+03 0.  0.
          5    1    3    3  502    0  0.52823855282E+02  0.49198797794E+02 -0.28749378473E+02  0.77842778430E+02  0.47000000000E+01 0.  1.
         -5    1    3    3    0  502  0.42637465359E+02 -0.11270117478E+02 -0.18496842795E+03  0.19021140434E+03  0.47000000000E+01 0.  1.
        -11    1    1    2    0    0 -0.18618874147E+02  0.91680257520E+00 -0.33593526198E+01  0.18941706668E+02  0.00000000000E+00 0.  1.
         11    1    1    2    0    0 -0.76842446493E+02 -0.38845482891E+02 -0.32586139467E+03  0.33704507364E+03  0.00000000000E+00 0. -1.
<mgrwt>
<rscale>  0 0.15475702E+03</rscale>
<asrwt>0</asrwt>
<pdfrwt beam="2">  1        1 0.89767656E-01 0.16179538E+03</pdfrwt>
<pdfrwt beam="1">  1       -1 0.62386468E-02 0.16179538E+03</pdfrwt>
<totfact> 0.44958440E+03</totfact>
</mgrwt>
</event>
<event>
 7    1  0.4230786E-006  0.1452222E+03  0.7546771E-02  0.1216485E+00
         -1   -1    0    0    0  501 -0.00000000000E+00  0.00000000000E+00  0.67379537277E+02  0.67379537277E+02  0.00000000000E+00 0.  1.
          1   -1    0    0  501    0  0.00000000000E+00 -0.00000000000E+00 -0.27096363742E+03  0.27096363742E+03  0.00000000000E+00 0. -1.
         23    2    1    2    0    0 -0.69525818214E+02 -0.25110433726E+02 -0.72137216355E+02  0.16215199985E+03  0.12500047916E+03 0.  0.
          5    1    3    3  502    0 -0.80121784339E+02  0.80076391712E+01  0.14026610315E+01  0.80670193187E+02  0.47000000000E+01 0.  1.
         -5    1    3    3    0  502  0.10595966126E+02 -0.33118072897E+02 -0.73539877387E+02  0.81481806660E+02  0.47000000000E+01 0.  1.
        -11    1    1    2    0    0 -0.20561848597E+02  0.14597527867E+02 -0.18187387919E+02  0.31091132447E+02  0.00000000000E+00 0. -1.
         11    1    1    2    0    0  0.90087666810E+02  0.10512905859E+02 -0.11325949587E+03  0.14510004240E+03  0.00000000000E+00 0.  1.
<mgrwt>
<rscale>  0 0.13768037E+03</rscale>
<asrwt>0</asrwt>
<pdfrwt beam="2">  1        1 0.41686713E-01 0.14522222E+03</pdfrwt>
<pdfrwt beam="1">  1       -1 0.10366083E-01 0.14522222E+03</pdfrwt>
<totfact> 0.55172850E+03</totfact>
</mgrwt>
</event>
<event>
 6    1  0.4230786E-006  0.1406040E+03  0.7546771E-02  0.1232538E+00
          1   -1    0    0  501    0  0.00000000000E+00  0.00000000000E+00  0.23189282248E+03  0.23189282248E+03  0.00000000000E+00 0. -1.
         -1   -1    0    0    0  501 -0.00000000000E+00 -0.00000000000E+00 -0.19589741232E+03  0.19589741232E+03  0.00000000000E+00 0.  1.
          5    1    1    2  502    0  0.17143330002E+02  0.40112725958E+02 -0.32064671551E+01  0.43991999033E+02  0.47000000000E+01 0. -1.
         -5    1    1    2    0  502 -0.32683438407E+02 -0.54402058069E+02 -0.15561859734E+03  0.16812801345E+03  0.47000000000E+01 0.  1.
        -11    1    1    2    0    0  0.30584133473E+02  0.38712217780E+02  0.17223369637E+03  0.17916046213E+03  0.00000000000E+00 0. -1.
         11    1    1    2    0    0 -0.15044025068E+02 -0.24422885669E+02  0.22586778288E+02  0.36509760175E+02  0.00000000000E+00 0.  1.
<mgrwt>
<rscale>  0 0.12663358E+03</rscale>
<asrwt>0</asrwt>
<pdfrwt beam="1">  1        1 0.35675819E-01 0.14060405E+03</pdfrwt>
<pdfrwt beam="2">  1       -1 0.30138064E-01 0.14060405E+03</pdfrwt>
<totfact> 0.12172583E+03</totfact>
</mgrwt>
</event>
<event>
 7    1  0.4230786E-006  0.1362586E+03  0.7546771E-02  0.1230559E+00
          2   -1    0    0  501    0  0.00000000000E+00  0.00000000000E+00  0.25383928289E+03  0.25383928289E+03  0.00000000000E+00 0. -1.
         -2   -1    0    0    0  501 -0.00000000000E+00 -0.00000000000E+00 -0.82299685425E+02  0.82299685425E+02  0.00000000000E+00 0.  1.
         23    2    1    2    0    0 -0.54163642916E+02  0.29510058875E+01  0.20221887251E+01  0.13627360761E+03  0.12499599287E+03 0.  0.
          5    1    3    3  502    0 -0.22602038638E+02 -0.11186573077E+02  0.61878482470E+02  0.66985283164E+02  0.47000000000E+01 0. -1.
         -5    1    3    3    0  502 -0.31561604278E+02  0.14137578965E+02 -0.59856293745E+02  0.69288324445E+02  0.47000000000E+01 0. -1.
        -11    1    1    2    0    0  0.19253623742E+02  0.42912932325E+02  0.61411016839E+02  0.77353311352E+02  0.00000000000E+00 0.  1.
         11    1    1    2    0    0  0.34910019174E+02 -0.45863938213E+02  0.10810639190E+03  0.12251204936E+03  0.00000000000E+00 0. -1.
<mgrwt>
<rscale>  0 0.12793038E+03</rscale>
<asrwt>0</asrwt>
<pdfrwt beam="1">  1        2 0.39052197E-01 0.13625860E+03</pdfrwt>
<pdfrwt beam="2">  1       -2 0.12661490E-01 0.13625860E+03</pdfrwt>
<totfact> 0.56761979E+03</totfact>
</mgrwt>
</event>
<event>
 7    1  0.4230786E-006  0.1355809E+03  0.7546771E-02  0.1230354E+00
         -2   -1    0    0    0  501 -0.00000000000E+00  0.00000000000E+00  0.37730528806E+03  0.37730528806E+03  0.00000000000E+00 0.  1.
          2   -1    0    0  501    0  0.00000000000E+00 -0.00000000000E+00 -0.55935179567E+02  0.55935179567E+02  0.00000000000E+00 0. -1.
         23    2    1    2    0    0 -0.59306108614E+02 -0.11631228396E+02  0.29113389044E+03  0.32115591032E+03  0.12136587899E+03 0.  0.
          5    1    3    3  502    0 -0.66255225057E+01  0.12381231115E+02 -0.77268102673E+01  0.16702874881E+02  0.47000000000E+01 0. -1.
         -5    1    3    3    0  502 -0.52680586108E+02 -0.24012459511E+02  0.29886070070E+03  0.30445303544E+03  0.47000000000E+01 0.  1.
        -11    1    1    2    0    0  0.83304633969E+00  0.41521960577E+02  0.18096942343E+02  0.45301948065E+02  0.00000000000E+00 0.  1.
         11    1    1    2    0    0  0.58473062274E+02 -0.29890732181E+02  0.12139275716E+02  0.66782609240E+02  0.00000000000E+00 0. -1.
<mgrwt>
<rscale>  0 0.12806593E+03</rscale>
<asrwt>0</asrwt>
<pdfrwt beam="2">  1        2 0.86054125E-02 0.13558089E+03</pdfrwt>
<pdfrwt beam="1">  1       -2 0.58046966E-01 0.13558089E+03</pdfrwt>
<totfact> 0.21159531E+03</totfact>
</mgrwt>
</event>
<event>
 7    1  0.4230786E-006  0.1360737E+03  0.7546771E-02  0.1231239E+00
         -2   -1    0    0    0  501 -0.00000000000E+00  0.00000000000E+00  0.23150767693E+03  0.23150767693E+03  0.00000000000E+00 0.  1.
          2   -1    0    0  501    0  0.00000000000E+00 -0.00000000000E+00 -0.64292030108E+02  0.64292030108E+02  0.00000000000E+00 0. -1.
         23    2    1    2    0    0  0.27237240738E+02  0.46361365929E+02  0.11747195714E+03  0.17976568297E+03  0.12499918610E+03 0.  0.
          5    1    3    3  502    0  0.35474599767E+02  0.71687502047E+02  0.25778761857E+02  0.84167569415E+02  0.47000000000E+01 0.  1.
         -5    1    3    3    0  502 -0.82373590288E+01 -0.25326136118E+02  0.91693195282E+02  0.95598113556E+02  0.47000000000E+01 0.  1.
        -11    1    1    2    0    0 -0.51325479320E+02 -0.28813651379E+02  0.60444846246E+02  0.84368896941E+02  0.00000000000E+00 0.  1.
         11    1    1    2    0    0  0.24088238582E+02 -0.17547714550E+02 -0.10701156565E+02  0.31665127123E+02  0.00000000000E+00 0. -1.
<mgrwt>
<rscale>  0 0.12748309E+03</rscale>
<asrwt>0</asrwt>
<pdfrwt beam="2">  1        2 0.98910817E-02 0.13607366E+03</pdfrwt>
<pdfrwt beam="1">  1       -2 0.35616565E-01 0.13607366E+03</pdfrwt>
<totfact> 0.45998784E+03</totfact>
</mgrwt>
</event>
<event>
 6    1  0.4230786E-006  0.2254171E+03  0.7546771E-02  0.1147115E+00
          1   -1    0    0  501    0  0.00000000000E+00  0.00000000000E+00  0.10640486149E+03  0.10640486149E+03  0.00000000000E+00 0. -1.
         -1   -1    0    0    0  501 -0.00000000000E+00 -0.00000000000E+00 -0.35397868847E+03  0.35397868847E+03  0.00000000000E+00 0.  1.
          5    1    1    2  502    0 -0.11010691877E+03 -0.19260424130E+02 -0.50162814589E+02  0.12260870877E+03  0.47000000000E+01 0. -1.
         -5    1    1    2    0  502  0.26072970300E+02 -0.91168619113E+02 -0.15739120474E+03  0.18380859126E+03  0.47000000000E+01 0.  1.
        -11    1    1    2    0    0  0.87485836587E+02  0.92958872389E+02 -0.23745548063E+02  0.12984211417E+03  0.00000000000E+00 0. -1.
         11    1    1    2    0    0 -0.34518881166E+01  0.17470170854E+02 -0.16274259584E+02  0.24124135762E+02  0.00000000000E+00 0.  1.
<mgrwt>
<rscale>  0 0.20314172E+03</rscale>
<asrwt>0</asrwt>
<pdfrwt beam="1">  1        1 0.16369979E-01 0.22541715E+03</pdfrwt>
<pdfrwt beam="2">  1       -1 0.54458259E-01 0.22541715E+03</pdfrwt>
<totfact> 0.11572784E+03</totfact>
</mgrwt>
</event>
<event>
 7    1  0.4230786E-006  0.1259928E+03  0.7546771E-02  0.1247590E+00
         -1   -1    0    0    0  501 -0.00000000000E+00  0.00000000000E+00  0.74888259044E+02  0.74888259044E+02  0.00000000000E+00 0.  1.
          1   -1    0    0  501    0  0.00000000000E+00 -0.00000000000E+00 -0.17077785111E+03  0.17077785111E+03  0.00000000000E+00 0. -1.
         23    2    1    2    0    0 -0.14946407217E+02  0.49327300771E+01 -0.27810439854E+02  0.12902556117E+03  0.12500579169E+03 0.  0.
          5    1    3    3  502    0  0.13647998246E+02  0.36847613760E+02  0.35009640684E+02  0.52837292103E+02  0.47000000000E+01 0.  1.
         -5    1    3    3    0  502 -0.28594405463E+02 -0.31914883683E+02 -0.62820080538E+02  0.76188269064E+02  0.47000000000E+01 0.  1.
        -11    1    1    2    0    0 -0.17885297327E+02 -0.69552339572E+01  0.16866303685E+02  0.25548607396E+02  0.00000000000E+00 0.  1.
         11    1    1    2    0    0  0.32831704543E+02  0.20225038801E+01 -0.84945455898E+02  0.91091941592E+02  0.00000000000E+00 0. -1.
<mgrwt>
<rscale>  0 0.11731667E+03</rscale>
<asrwt>0</asrwt>
<pdfrwt beam="2">  1        1 0.26273515E-01 0.12599276E+03</pdfrwt>
<pdfrwt beam="1">  1       -1 0.11521271E-01 0.12599276E+03</pdfrwt>
<totfact> 0.82409780E+03</totfact>
</mgrwt>
</event>
<event>
 7    1  0.4230786E-006  0.1293798E+03  0.7546771E-02  0.1240474E+00
          2   -1    0    0  501    0  0.00000000000E+00  0.00000000000E+00  0.20245351538E+03  0.20245351538E+03  0.00000000000E+00 0. -1.
         -2   -1    0    0    0  501 -0.00000000000E+00 -0.00000000000E+00 -0.13450395416E+03  0.13450395416E+03  0.00000000000E+00 0.  1.
         23    2    1    2    0    0 -0.63974305034E+01 -0.41766431411E+02 -0.84190757463E+02  0.15436064366E+03  0.12228557870E+03 0.  0.
          5    1    3    3  502    0  0.43573016918E+02 -0.47271220282E+02 -0.10923799483E+02  0.65380390526E+02  0.47000000000E+01 0. -1.
         -5    1    3    3    0  502 -0.49970447421E+02  0.55047888711E+01 -0.73266957980E+02  0.88980253133E+02  0.47000000000E+01 0.  1.
        -11    1    1    2    0    0  0.61320511547E+01 -0.19403209575E+02  0.10051243683E+03  0.10255162871E+03  0.00000000000E+00 0.  1.
         11    1    1    2    0    0  0.26537934869E+00  0.61169640985E+02  0.51627881848E+02  0.80045197161E+02  0.00000000000E+00 0. -1.
<mgrwt>
<rscale>  0 0.12160398E+03</rscale>
<asrwt>0</asrwt>
<pdfrwt beam="1">  1        2 0.31146695E-01 0.12937977E+03</pdfrwt>
<pdfrwt beam="2">  1       -2 0.20692916E-01 0.12937977E+03</pdfrwt>
<totfact> 0.32082698E+03</totfact>
</mgrwt>
</event>
<event>
 7    1  0.4230786E-006  0.1291513E+03  0.7546771E-02  0.1248046E+00
         -1   -1    0    0    0  501 -0.00000000000E+00  0.00000000000E+00  0.45158598179E+03  0.45158598179E+03  0.00000000000E+00 0.  1.
          1   -1    0    0  501    0  0.00000000000E+00 -0.00000000000E+00 -0.26370300107E+02  0.26370300107E+02  0.00000000000E+00 0. -1.
         23    2    1    2    0    0  0.27907283488E+02  0.16613812479E+02  0.28459293246E+03  0.31252710560E+03  0.12500087717E+03 0.  0.
          5    1    3    3  502    0 -0.20291462535E+02 -0.97332975190E+01  0.24139737871E+03  0.24248972139E+03  0.47000000000E+01 0. -1.
         -5    1    3    3    0  502  0.48198746023E+02  0.26347109998E+02  0.43195553748E+02  0.70037384211E+02  0.47000000000E+01 0. -1.
        -11    1    1    2    0    0 -0.31087919117E+02  0.27561065968E+02  0.82343006026E+02  0.92230373054E+02  0.00000000000E+00 0. -1.
         11    1    1    2    0    0  0.31806356285E+01 -0.44174878447E+02  0.58279743204E+02  0.73198803247E+02  0.00000000000E+00 0.  1.
<mgrwt>
<rscale>  0 0.11704934E+03</rscale>
<asrwt>0</asrwt>
<pdfrwt beam="2">  1        1 0.40569696E-02 0.12915129E+03</pdfrwt>
<pdfrwt beam="1">  1       -1 0.69474761E-01 0.12915129E+03</pdfrwt>
<totfact> 0.46221867E+03</totfact>
</mgrwt>
</event>
<event>
 7    1  0.4230786E-006  0.1338689E+03  0.7546771E-02  0.1234516E+00
         -1   -1    0    0    0  501 -0.00000000000E+00  0.00000000000E+00  0.76258232204E+02  0.76258232204E+02  0.00000000000E+00 0.  1.
          1   -1    0    0  501    0  0.00000000000E+00 -0.00000000000E+00 -0.18410719001E+03  0.18410719001E+03  0.00000000000E+00 0. -1.
         23    2    1    2    0    0 -0.38704633686E+02 -0.28433999845E+02 -0.55873125389E+02  0.14506102344E+03  0.12495740621E+03 0.  0.
          5    1    3    3  502    0 -0.72054090471E+01 -0.36674813532E+02  0.33134188685E+02  0.50168957802E+02  0.47000000000E+01 0.  1.
         -5    1    3    3    0  502 -0.31499224639E+02  0.82408136863E+01 -0.89007314074E+02  0.94892065642E+02  0.47000000000E+01 0.  1.
        -11    1    1    2    0    0  0.96875323774E+01  0.10186099921E+02  0.26317307051E+02  0.29836312868E+02  0.00000000000E+00 0.  1.
         11    1    1    2    0    0  0.29017101309E+02  0.18247899924E+02 -0.78293139466E+02  0.85468085900E+02  0.00000000000E+00 0. -1.
<mgrwt>
<rscale>  0 0.12535464E+03</rscale>
<asrwt>0</asrwt>
<pdfrwt beam="2">  1        1 0.28324183E-01 0.13386894E+03</pdfrwt>
<pdfrwt beam="1">  1       -1 0.11732036E-01 0.13386894E+03</pdfrwt>
<totfact> 0.73300694E+03</totfact>
</mgrwt>
</event>
<event>
 7    1  0.4230786E-006  0.1357111E+03  0.7546771E-02  0.1231134E+00
          1   -1    0    0  501    0  0.00000000000E+00  0.00000000000E+00  0.59191614536E+03  0.59191614536E+03  0.00000000000E+00 0. -1.
         -1   -1    0    0    0  501 -0.00000000000E+00 -0.00000000000E+00 -0.24661624139E+02  0.24661624139E+02  0.00000000000E+00 0.  1.
         23    2    1    2    0    0  0.32825968097E+02 -0.41430799881E+02  0.31392195006E+03  0.34200072787E+03  0.12499380696E+03 0.  0.
          5    1    3    3  502    0  0.49529622868E+02 -0.76459141903E+02  0.17076455197E+03  0.19360218524E+03  0.47000000000E+01 0. -1.
         -5    1    3    3    0  502 -0.16703654771E+02  0.35028342022E+02  0.14315739809E+03  0.14839854263E+03  0.47000000000E+01 0. -1.
        -11    1    1    2    0    0  0.23175318075E+02  0.40897445670E+02  0.14794067064E+03  0.15522930928E+03  0.00000000000E+00 0. -1.
         11    1    1    2    0    0 -0.56001286172E+02  0.53335421064E+00  0.10539190052E+03  0.11934773234E+03  0.00000000000E+00 0.  1.
<mgrwt>
<rscale>  0 0.12755199E+03</rscale>
<asrwt>0</asrwt>
<pdfrwt beam="1">  1        1 0.91064011E-01 0.13571112E+03</pdfrwt>
<pdfrwt beam="2">  1       -1 0.37940965E-02 0.13571112E+03</pdfrwt>
<totfact> 0.91241706E+03</totfact>
</mgrwt>
</event>
<event>
 7    1  0.4230786E-006  0.1445454E+03  0.7546771E-02  0.1217561E+00
          2   -1    0    0  501    0  0.00000000000E+00  0.00000000000E+00  0.31044236266E+03  0.31044236266E+03  0.00000000000E+00 0. -1.
         -2   -1    0    0    0  501 -0.00000000000E+00 -0.00000000000E+00 -0.54951394054E+02  0.54951394054E+02  0.00000000000E+00 0.  1.
         23    2    1    2    0    0 -0.13307596629E+02 -0.71340763523E+02  0.13188115571E+03  0.19566809294E+03  0.12500706657E+03 0.  0.
          5    1    3    3  502    0  0.25049480773E+02 -0.44672431546E+02 -0.43088359225E+01  0.51611613947E+02  0.47000000000E+01 0.  1.
         -5    1    3    3    0  502 -0.38357077402E+02 -0.26668331978E+02  0.13618999163E+03  0.14405647899E+03  0.47000000000E+01 0.  1.
        -11    1    1    2    0    0 -0.64213585979E+01  0.10911694392E+02 -0.13554042217E+02  0.18547533021E+02  0.00000000000E+00 0.  1.
         11    1    1    2    0    0  0.19728955227E+02  0.60429069131E+02  0.13716385511E+03  0.15117813076E+03  0.00000000000E+00 0. -1.
<mgrwt>
<rscale>  0 0.13690048E+03</rscale>
<asrwt>0</asrwt>
<pdfrwt beam="1">  1        2 0.47760363E-01 0.14454537E+03</pdfrwt>
<pdfrwt beam="2">  1       -2 0.84540608E-02 0.14454537E+03</pdfrwt>
<totfact> 0.87026823E+03</totfact>
</mgrwt>
</event>
<event>
 7    1  0.4230786E-006  0.1925935E+03  0.7546771E-02  0.1160787E+00
         -1   -1    0    0    0  501 -0.00000000000E+00  0.00000000000E+00  0.49815231479E+03  0.49815231479E+03  0.00000000000E+00 0.  1.
          1   -1    0    0  501    0  0.00000000000E+00 -0.00000000000E+00 -0.73421149771E+02  0.73421149771E+02  0.00000000000E+00 0. -1.
         23    2    1    2    0    0 -0.12792288876E+03 -0.71448233180E+02  0.30721721153E+03  0.36259436348E+03  0.12499256730E+03 0.  0.
          5    1    3    3  502    0 -0.22881464279E+02  0.87054464975E+01 -0.32576737000E+01  0.25140577643E+02  0.47000000000E+01 0.  1.
         -5    1    3    3    0  502 -0.10504142448E+03 -0.80153679677E+02  0.31047488523E+03  0.33745378584E+03  0.47000000000E+01 0.  1.
        -11    1    1    2    0    0  0.27770107650E+02  0.50200034387E+02  0.61394309270E+01  0.57696749851E+02  0.00000000000E+00 0. -1.
         11    1    1    2    0    0  0.10015278111E+03  0.21248198793E+02  0.11137452257E+03  0.15128235123E+03  0.00000000000E+00 0.  1.
<mgrwt>
<rscale>  0 0.18744438E+03</rscale>
<asrwt>0</asrwt>
<pdfrwt beam="2">  1        1 0.11295562E-01 0.19259350E+03</pdfrwt>
<pdfrwt beam="1">  1       -1 0.76638816E-01 0.19259350E+03</pdfrwt>
<totfact> 0.96470118E+02</totfact>
</mgrwt>
</event>
<event>
 7    1  0.4230786E-006  0.2366079E+03  0.7546771E-02  0.1123344E+00
          1   -1    0    0  501    0  0.00000000000E+00  0.00000000000E+00  0.74229219520E+02  0.74229219520E+02  0.00000000000E+00 0. -1.
         -1   -1    0    0    0  501 -0.00000000000E+00 -0.00000000000E+00 -0.76023936007E+03  0.76023936007E+03  0.00000000000E+00 0.  1.
         23    2    1    2    0    0  0.19181245467E+03  0.11631764813E+02 -0.25584306292E+03  0.34352355030E+03  0.12500176417E+03 0.  0.
          5    1    3    3  502    0  0.49423620098E+02  0.37146872582E+02 -0.17073914980E+02  0.64313240775E+02  0.47000000000E+01 0.  1.
         -5    1    3    3    0  502  0.14238883458E+03 -0.25515107770E+02 -0.23876914794E+03  0.27921030953E+03  0.47000000000E+01 0.  1.
        -11    1    1    2    0    0 -0.84287718413E+02  0.63382682659E+02 -0.19638500713E+03  0.22290997053E+03  0.00000000000E+00 0. -1.
         11    1    1    2    0    0 -0.10752473626E+03 -0.75014447472E+02 -0.23378207049E+03  0.26803505876E+03  0.00000000000E+00 0.  1.
<mgrwt>
<rscale>  0 0.23474502E+03</rscale>
<asrwt>0</asrwt>
<pdfrwt beam="1">  1        1 0.11419880E-01 0.23660792E+03</pdfrwt>
<pdfrwt beam="2">  1       -1 0.11695990E+00 0.23660792E+03</pdfrwt>
<totfact> 0.37786033E+02</totfact>
</mgrwt>
</event>
<event>
 7    1  0.4230786E-006  0.1269884E+03  0.7546771E-02  0.1247289E+00
          1   -1    0    0  501    0  0.00000000000E+00  0.00000000000E+00  0.24059620651E+03  0.24059620651E+03  0.00000000000E+00 0. -1.
         -1   -1    0    0    0  501 -0.00000000000E+00 -0.00000000000E+00 -0.59993372228E+02  0.59993372228E+02  0.00000000000E+00 0.  1.
         23    2    1    2    0    0 -0.71556861271E+01 -0.21191142062E+02  0.42215929843E+02  0.13382169733E+03  0.12500317435E+03 0.  0.
          5    1    3    3  502    0 -0.54760375865E+01  0.50508602139E+02  0.11302702456E+01  0.51034041468E+02  0.47000000000E+01 0. -1.
         -5    1    3    3    0  502 -0.16796485407E+01 -0.71699744201E+02  0.41085659598E+02  0.82787655857E+02  0.47000000000E+01 0. -1.
        -11    1    1    2    0    0 -0.27472623037E+01  0.55078636485E+02  0.10269251337E+03  0.11656309858E+03  0.00000000000E+00 0. -1.
         11    1    1    2    0    0  0.99029484308E+01 -0.33887494423E+02  0.35694391063E+02  0.50204782832E+02  0.00000000000E+00 0.  1.
<mgrwt>
<rscale>  0 0.11749424E+03</rscale>
<asrwt>0</asrwt>
<pdfrwt beam="1">  1        1 0.37014800E-01 0.12698843E+03</pdfrwt>
<pdfrwt beam="2">  1       -1 0.92297497E-02 0.12698843E+03</pdfrwt>
<totfact> 0.75615786E+03</totfact>
</mgrwt>
</event>
<event>
 7    1  0.4230786E-006  0.1304849E+03  0.7546771E-02  0.1241375E+00
          2   -1    0    0  501    0  0.00000000000E+00  0.00000000000E+00  0.96446991449E+03  0.96446991449E+03  0.00000000000E+00 0. -1.
         -2   -1    0    0    0  501 -0.00000000000E+00 -0.00000000000E+00 -0.13498873647E+02  0.13498873647E+02  0.00000000000E+00 0.  1.
         23    2    1    2    0    0 -0.36711926015E+02  0.73698601289E+01  0.59252743548E+03  0.60672486300E+03  0.12499686890E+03 0.  0.
          5    1    3    3  502    0  0.33320692559E+02  0.40523848808E+02  0.22385530666E+03  0.22996899616E+03  0.47000000000E+01 0.  1.
         -5    1    3    3    0  502 -0.70032618574E+02 -0.33153988679E+02  0.36867212882E+03  0.37675586684E+03  0.47000000000E+01 0.  1.
        -11    1    1    2    0    0  0.40984344709E+02 -0.43787414200E+02  0.22124946754E+03  0.22923433652E+03  0.00000000000E+00 0.  1.
         11    1    1    2    0    0 -0.42724186947E+01  0.36417554071E+02  0.13719413782E+03  0.14200958861E+03  0.00000000000E+00 0. -1.
<mgrwt>
<rscale>  0 0.12105000E+03</rscale>
<asrwt>0</asrwt>
<pdfrwt beam="1">  1        2 0.14837993E+00 0.13048486E+03</pdfrwt>
<pdfrwt beam="2">  1       -2 0.20767505E-02 0.13048486E+03</pdfrwt>
<totfact> 0.19206957E+04</totfact>
</mgrwt>
</event>
<event>
 7    1  0.4230786E-006  0.1282579E+03  0.7546771E-02  0.1240264E+00
         -1   -1    0    0    0  501 -0.00000000000E+00  0.00000000000E+00  0.53460002157E+02  0.53460002157E+02  0.00000000000E+00 0.  1.
          1   -1    0    0  501    0  0.00000000000E+00 -0.00000000000E+00 -0.32252571480E+03  0.32252571480E+03  0.00000000000E+00 0. -1.
         23    2    1    2    0    0  0.89722867628E+01  0.27312432601E+02 -0.58231173584E+02  0.14085796971E+03  0.12499450848E+03 0.  0.
          5    1    3    3  502    0  0.55812266695E+01  0.68685015447E+02  0.14686695225E+00  0.69071651262E+02  0.47000000000E+01 0. -1.
         -5    1    3    3    0  502  0.33910600934E+01 -0.41372582847E+02 -0.58378040536E+02  0.71786318451E+02  0.47000000000E+01 0. -1.
        -11    1    1    2    0    0  0.36709341088E+02 -0.20149206366E+02 -0.39152983128E+02  0.57328198368E+02  0.00000000000E+00 0.  1.
         11    1    1    2    0    0 -0.45681627851E+02 -0.71632262344E+01 -0.17168155593E+03  0.17779954887E+03  0.00000000000E+00 0. -1.
<mgrwt>
<rscale>  0 0.12173377E+03</rscale>
<asrwt>0</asrwt>
<pdfrwt beam="2">  1        1 0.49619341E-01 0.12825794E+03</pdfrwt>
<pdfrwt beam="1">  1       -1 0.82246157E-02 0.12825794E+03</pdfrwt>
<totfact> 0.62735973E+03</totfact>
</mgrwt>
</event>
<event>
 7    1  0.4230786E-006  0.1329197E+03  0.7546771E-02  0.1236052E+00
          2   -1    0    0  501    0  0.00000000000E+00  0.00000000000E+00  0.46461912269E+03  0.46461912269E+03  0.00000000000E+00 0. -1.
         -2   -1    0    0    0  501 -0.00000000000E+00 -0.00000000000E+00 -0.34339809420E+02  0.34339809420E+02  0.00000000000E+00 0.  1.
         23    2    1    2    0    0 -0.38288416150E+02  0.23998565333E+02  0.14837340850E+03  0.19920419197E+03  0.12500283116E+03 0.  0.
          5    1    3    3  502    0 -0.75802284175E+02  0.14340313323E+02  0.46707158423E+02  0.90306586251E+02  0.47000000000E+01 0.  1.
         -5    1    3    3    0  502  0.37513868025E+02  0.96582520099E+01  0.10166625008E+03  0.10889760572E+03  0.47000000000E+01 0.  1.
        -11    1    1    2    0    0  0.20741504986E+02 -0.58370102785E+02  0.14912018879E+03  0.16147479566E+03  0.00000000000E+00 0.  1.
         11    1    1    2    0    0  0.17546911164E+02  0.34371537452E+02  0.13278571597E+03  0.13827994448E+03  0.00000000000E+00 0. -1.
<mgrwt>
<rscale>  0 0.12437323E+03</rscale>
<asrwt>0</asrwt>
<pdfrwt beam="1">  1        2 0.71479861E-01 0.13291968E+03</pdfrwt>
<pdfrwt beam="2">  1       -2 0.52830479E-02 0.13291968E+03</pdfrwt>
<totfact> 0.11528967E+04</totfact>
</mgrwt>
</event>
<event>
 7    1  0.4230786E-006  0.1423828E+03  0.7546771E-02  0.1220617E+00
          1   -1    0    0  501    0  0.00000000000E+00  0.00000000000E+00  0.48949363573E+03  0.48949363573E+03  0.00000000000E+00 0. -1.
         -1   -1    0    0    0  501 -0.00000000000E+00 -0.00000000000E+00 -0.33658011719E+02  0.33658011719E+02  0.00000000000E+00 0.  1.
         23    2    1    2    0    0 -0.17708759492E+02  0.65833603703E+02  0.24236515604E+03  0.28109381521E+03  0.12500080220E+03 0.  0.
          5    1    3    3  502    0  0.23629655819E+02  0.89105268229E+02  0.13409255093E+03  0.16279131326E+03  0.47000000000E+01 0.  1.
         -5    1    3    3    0  502 -0.41338415311E+02 -0.23271664525E+02  0.10827260511E+03  0.11830250195E+03  0.47000000000E+01 0.  1.
        -11    1    1    2    0    0  0.25793761762E+02 -0.84568226048E+02  0.19665864304E+03  0.21561939821E+03  0.00000000000E+00 0.  1.
         11    1    1    2    0    0 -0.80850022700E+01  0.18734622345E+02  0.16811824939E+02  0.26438434029E+02  0.00000000000E+00 0. -1.
<mgrwt>
<rscale>  0 0.13471916E+03</rscale>
<asrwt>0</asrwt>
<pdfrwt beam="1">  1        1 0.75306708E-01 0.14238281E+03</pdfrwt>
<pdfrwt beam="2">  1       -1 0.51781560E-02 0.14238281E+03</pdfrwt>
<totfact> 0.74448258E+03</totfact>
</mgrwt>
</event>
<event>
 7    1  0.4230786E-006  0.1262382E+03  0.7546771E-02  0.1242043E+00
         -1   -1    0    0    0  501 -0.00000000000E+00  0.00000000000E+00  0.51783391127E+02  0.51783391127E+02  0.00000000000E+00 0.  1.
          1   -1    0    0  501    0  0.00000000000E+00 -0.00000000000E+00 -0.26979935720E+03  0.26979935720E+03  0.00000000000E+00 0. -1.
         23    2    1    2    0    0  0.30848975019E+01  0.58429574154E+02 -0.86137455753E+02  0.15282586754E+03  0.11185952252E+03 0.  0.
          5    1    3    3  502    0  0.37829259953E+02  0.46875724615E+01 -0.79530906678E+02  0.88319201543E+02  0.47000000000E+01 0. -1.
         -5    1    3    3    0  502 -0.34744362451E+02  0.53742001692E+02 -0.66065490756E+01  0.64506666002E+02  0.47000000000E+01 0.  1.
        -11    1    1    2    0    0  0.53722266579E+01  0.16018072037E+02 -0.68707023468E+02  0.70753759793E+02  0.00000000000E+00 0. -1.
         11    1    1    2    0    0 -0.84571241598E+01 -0.74447646191E+02 -0.63171486850E+02  0.98003120987E+02  0.00000000000E+00 0.  1.
<mgrwt>
<rscale>  0 0.12064091E+03</rscale>
<asrwt>0</asrwt>
<pdfrwt beam="2">  1        1 0.41507594E-01 0.12623821E+03</pdfrwt>
<pdfrwt beam="1">  1       -1 0.79666754E-02 0.12623821E+03</pdfrwt>
<totfact> 0.81965335E+03</totfact>
</mgrwt>
</event>
<event>
 7    1  0.4230786E-006  0.1440955E+03  0.7546771E-02  0.1218492E+00
         -1   -1    0    0    0  501 -0.00000000000E+00  0.00000000000E+00  0.19252895175E+03  0.19252895175E+03  0.00000000000E+00 0.  1.
          1   -1    0    0  501    0  0.00000000000E+00 -0.00000000000E+00 -0.87636916232E+02  0.87636916232E+02  0.00000000000E+00 0. -1.
         23    2    1    2    0    0 -0.46372851649E+02  0.54665642464E+02  0.67523550547E+02  0.15913187717E+03  0.12499900247E+03 0.  0.
          5    1    3    3  502    0 -0.29601073715E+01  0.82007507038E+02  0.69403222810E+02  0.10757737115E+03  0.47000000000E+01 0. -1.
         -5    1    3    3    0  502 -0.43412744277E+02 -0.27341864575E+02 -0.18796722632E+01  0.51554506029E+02  0.47000000000E+01 0. -1.
        -11    1    1    2    0    0 -0.20461653734E+02 -0.36317768015E+01 -0.11523473651E+02  0.23762565545E+02  0.00000000000E+00 0.  1.
         11    1    1    2    0    0  0.66834505383E+02 -0.51033865662E+02  0.48891958618E+02  0.97271425258E+02  0.00000000000E+00 0. -1.
<mgrwt>
<rscale>  0 0.13623116E+03</rscale>
<asrwt>0</asrwt>
<pdfrwt beam="2">  1        1 0.13482602E-01 0.14409554E+03</pdfrwt>
<pdfrwt beam="1">  1       -1 0.29619839E-01 0.14409554E+03</pdfrwt>
<totfact> 0.43080168E+03</totfact>
</mgrwt>
</event>
<event>
 7    1  0.4230786E-006  0.1330374E+03  0.7546771E-02  0.1236021E+00
         -3   -1    0    0    0  501 -0.00000000000E+00  0.00000000000E+00  0.59484518401E+02  0.59484518401E+02  0.00000000000E+00 0.  1.
          3   -1    0    0  501    0  0.00000000000E+00 -0.00000000000E+00 -0.23156681249E+03  0.23156681249E+03  0.00000000000E+00 0. -1.
         23    2    1    2    0    0  0.37137454410E+02 -0.26359695954E+02 -0.96447751190E+02  0.16432021094E+03  0.12499975569E+03 0.  0.
          5    1    3    3  502    0 -0.21925118282E+02  0.33784943598E+02 -0.59872701624E+02  0.72311573247E+02  0.47000000000E+01 0. -1.
         -5    1    3    3    0  502  0.59062572692E+02 -0.60144639552E+02 -0.36575049566E+02  0.92008637695E+02  0.47000000000E+01 0. -1.
        -11    1    1    2    0    0  0.22827954156E+02  0.12268218707E+00 -0.52603546997E+02  0.57343384087E+02  0.00000000000E+00 0. -1.
         11    1    1    2    0    0 -0.59965408566E+02  0.26237013767E+02 -0.23030995903E+02  0.69387735863E+02  0.00000000000E+00 0.  1.
<mgrwt>
<rscale>  0 0.12439316E+03</rscale>
<asrwt>0</asrwt>
<pdfrwt beam="2">  1        3 0.35625664E-01 0.13303745E+03</pdfrwt>
<pdfrwt beam="1">  1       -3 0.91514641E-02 0.13303745E+03</pdfrwt>
<totfact> 0.15201715E+03</totfact>
</mgrwt>
</event>
<event>
 7    1  0.4230786E-006  0.1450170E+03  0.7546771E-02  0.1211754E+00
         -2   -1    0    0    0  501 -0.00000000000E+00  0.00000000000E+00  0.31122318882E+03  0.31122318882E+03  0.00000000000E+00 0.  1.
          2   -1    0    0  501    0  0.00000000000E+00 -0.00000000000E+00 -0.74077177706E+02  0.74077177706E+02  0.00000000000E+00 0. -1.
         23    2    1    2    0    0  0.92322566360E+02 -0.13625945698E+02  0.20504972077E+03  0.25114798863E+03  0.11099910608E+03 0.  0.
          5    1    3    3  502    0  0.24136928782E+02  0.44101269851E+02  0.44263935033E+02  0.67148337866E+02  0.47000000000E+01 0. -1.
         -5    1    3    3    0  502  0.68185637579E+02 -0.57727215550E+02  0.16078578574E+03  0.18399965077E+03  0.47000000000E+01 0.  1.
        -11    1    1    2    0    0 -0.65632016718E+02 -0.29300132339E+02  0.41119129216E+02  0.82806051475E+02  0.00000000000E+00 0.  1.
         11    1    1    2    0    0 -0.26690549643E+02  0.42926078037E+02 -0.90228388678E+01  0.51346326423E+02  0.00000000000E+00 0. -1.
<mgrwt>
<rscale>  0 0.14117694E+03</rscale>
<asrwt>0</asrwt>
<pdfrwt beam="2">  1        2 0.11396489E-01 0.14501698E+03</pdfrwt>
<pdfrwt beam="1">  1       -2 0.47880490E-01 0.14501698E+03</pdfrwt>
<totfact> 0.22099849E+03</totfact>
</mgrwt>
</event>
<event>
 7    1  0.4230786E-006  0.2703893E+03  0.7546771E-02  0.1103116E+00
          1   -1    0    0  501    0  0.00000000000E+00  0.00000000000E+00  0.52711445993E+03  0.52711445993E+03  0.00000000000E+00 0. -1.
         -1   -1    0    0    0  501 -0.00000000000E+00 -0.00000000000E+00 -0.15733451620E+03  0.15733451620E+03  0.00000000000E+00 0.  1.
         23    2    1    2    0    0 -0.23612617459E+03 -0.41652995317E+02  0.50647781244E+02  0.27509194511E+03  0.12497935099E+03 0.  0.
          5    1    3    3  502    0 -0.17372058256E+03 -0.28354596623E+02 -0.22951276677E+02  0.17757160543E+03  0.47000000000E+01 0. -1.
         -5    1    3    3    0  502 -0.62405592033E+02 -0.13298398694E+02  0.73599057921E+02  0.97520339682E+02  0.47000000000E+01 0. -1.
        -11    1    1    2    0    0  0.27562070074E+02 -0.21336607866E+02  0.71383140410E+02  0.79438474789E+02  0.00000000000E+00 0.  1.
         11    1    1    2    0    0  0.20856410452E+03  0.62989603183E+02  0.24774902207E+03  0.32991855622E+03  0.00000000000E+00 0. -1.
<mgrwt>
<rscale>  0 0.26681535E+03</rscale>
<asrwt>0</asrwt>
<pdfrwt beam="1">  1        1 0.81094531E-01 0.27038931E+03</pdfrwt>
<pdfrwt beam="2">  1       -1 0.24205310E-01 0.27038931E+03</pdfrwt>
<totfact> 0.62075837E+02</totfact>
</mgrwt>
</event>
<event>
 6    1  0.4230786E-006  0.1344271E+03  0.7546771E-02  0.1238143E+00
          2   -1    0    0  501    0  0.00000000000E+00  0.00000000000E+00  0.74171175846E+02  0.74171175846E+02  0.00000000000E+00 0. -1.
         -2   -1    0    0    0  501 -0.00000000000E+00 -0.00000000000E+00 -0.32877946592E+03  0.32877946592E+03  0.00000000000E+00 0.  1.
          5    1    1    2  502    0 -0.28407886598E+02 -0.52526661839E+02 -0.49336062195E+02  0.77602804446E+02  0.47000000000E+01 0. -1.
         -5    1    1    2    0  502  0.10582697467E+02  0.33777918345E+02 -0.22592299642E+03  0.22872741760E+03  0.47000000000E+01 0.  1.
        -11    1    1    2    0    0 -0.36179898755E+02  0.12425558492E+01  0.16242083752E+02  0.39677881793E+02  0.00000000000E+00 0. -1.
         11    1    1    2    0    0  0.54005087886E+02  0.17506187645E+02  0.44086847893E+01  0.56942537922E+02  0.00000000000E+00 0.  1.
<mgrwt>
<rscale>  0 0.12305355E+03</rscale>
<asrwt>0</asrwt>
<pdfrwt beam="1">  1        2 0.11410950E-01 0.13442714E+03</pdfrwt>
<pdfrwt beam="2">  1       -2 0.50581456E-01 0.13442714E+03</pdfrwt>
<totfact> 0.19727735E+03</totfact>
</mgrwt>
</event>
<event>
 7    1  0.4230786E-006  0.1294148E+03  0.7546771E-02  0.1244216E+00
          2   -1    0    0  501    0  0.00000000000E+00  0.00000000000E+00  0.24278516321E+03  0.24278516321E+03  0.00000000000E+00 0. -1.
         -2   -1    0    0    0  501 -0.00000000000E+00 -0.00000000000E+00 -0.75531355644E+02  0.75531355644E+02  0.00000000000E+00 0.  1.
         23    2    1    2    0    0 -0.77936104301E+01 -0.32600112210E+02  0.31785621078E+01  0.12945380490E+03  0.12499870666E+03 0.  0.
          5    1    3    3  502    0 -0.59652912782E+02  0.23196484607E+01 -0.19196228290E+02  0.62884306094E+02  0.47000000000E+01 0.  1.
         -5    1    3    3    0  502  0.51859302352E+02 -0.34919760671E+02  0.22374790397E+02  0.66569498805E+02  0.47000000000E+01 0.  1.
        -11    1    1    2    0    0  0.29091438564E+02 -0.15874385732E+02  0.29964684963E+02  0.44678745115E+02  0.00000000000E+00 0. -1.
         11    1    1    2    0    0 -0.21297828134E+02  0.48474497943E+02  0.13411056050E+03  0.14418396884E+03  0.00000000000E+00 0.  1.
<mgrwt>
<rscale>  0 0.11932439E+03</rscale>
<asrwt>0</asrwt>
<pdfrwt beam="1">  1        2 0.37351563E-01 0.12941478E+03</pdfrwt>
<pdfrwt beam="2">  1       -2 0.11620209E-01 0.12941478E+03</pdfrwt>
<totfact> 0.68036817E+03</totfact>
</mgrwt>
</event>
<event>
 7    1  0.4230786E-006  0.1242763E+03  0.7546771E-02  0.1247873E+00
          1   -1    0    0  501    0  0.00000000000E+00  0.00000000000E+00  0.58310042871E+03  0.58310042871E+03  0.00000000000E+00 0. -1.
         -1   -1    0    0    0  501 -0.00000000000E+00 -0.00000000000E+00 -0.32276410467E+02  0.32276410467E+02  0.00000000000E+00 0.  1.
         23    2    1    2    0    0  0.14577489010E+02 -0.31672496472E+02  0.11732249019E+03  0.17090687406E+03  0.11928513184E+03 0.  0.
          5    1    3    3  502    0 -0.18445089984E+02  0.35859489253E+02  0.72955257841E+02  0.83490621992E+02  0.47000000000E+01 0. -1.
         -5    1    3    3    0  502  0.33022578994E+02 -0.67531985725E+02  0.44367232352E+02  0.87416252070E+02  0.47000000000E+01 0.  1.
        -11    1    1    2    0    0 -0.26491221344E+02 -0.24825534724E+02  0.10944676086E+03  0.11531125463E+03  0.00000000000E+00 0.  1.
         11    1    1    2    0    0  0.11913732335E+02  0.56498031196E+02  0.32405476719E+03  0.32915871048E+03  0.00000000000E+00 0. -1.
<mgrwt>
<rscale>  0 0.11715055E+03</rscale>
<asrwt>0</asrwt>
<pdfrwt beam="1">  1        1 0.89707750E-01 0.12427628E+03</pdfrwt>
<pdfrwt beam="2">  1       -1 0.49656021E-02 0.12427628E+03</pdfrwt>
<totfact> 0.62343173E+03</totfact>
</mgrwt>
</event>
<event>
 7    1  0.4230786E-006  0.1661790E+03  0.7546771E-02  0.1188509E+00
         -3   -1    0    0    0  501 -0.00000000000E+00  0.00000000000E+00  0.53357154562E+03  0.53357154562E+03  0.00000000000E+00 0.  1.
          3   -1    0    0  501    0  0.00000000000E+00 -0.00000000000E+00 -0.54279275450E+02  0.54279275450E+02  0.00000000000E+00 0. -1.
         23    2    1    2    0    0 -0.32663051181E+02  0.10451512890E+03  0.37610800729E+03  0.41118450422E+03  0.12500070515E+03 0.  0.
          5    1    3    3  502    0 -0.17091297610E+02 -0.27734814289E+02  0.76883893604E+02  0.83633459054E+02  0.47000000000E+01 0.  1.
         -5    1    3    3    0  502 -0.15571753571E+02  0.13224994319E+03  0.29922411368E+03  0.32755104517E+03  0.47000000000E+01 0.  1.
        -11    1    1    2    0    0 -0.48663835678E+01 -0.41340007446E+02 -0.89726628068E+01  0.42581528654E+02  0.00000000000E+00 0.  1.
         11    1    1    2    0    0  0.37529434749E+02 -0.63175121457E+02  0.11215692569E+03  0.13408478819E+03  0.00000000000E+00 0. -1.
<mgrwt>
<rscale>  0 0.16016609E+03</rscale>
<asrwt>0</asrwt>
<pdfrwt beam="2">  1        3 0.83506581E-02 0.16617901E+03</pdfrwt>
<pdfrwt beam="1">  1       -3 0.82087926E-01 0.16617901E+03</pdfrwt>
<totfact> 0.33465705E+02</totfact>
</mgrwt>
</event>
<event>
 7    1  0.4230786E-006  0.1287773E+03  0.7546771E-02  0.1242988E+00
          2   -1    0    0  501    0  0.00000000000E+00  0.00000000000E+00  0.50243813660E+03  0.50243813660E+03  0.00000000000E+00 0. -1.
         -2   -1    0    0    0  501 -0.00000000000E+00 -0.00000000000E+00 -0.25799049497E+02  0.25799049497E+02  0.00000000000E+00 0.  1.
         23    2    1    2    0    0  0.20395494227E+02 -0.23284292499E+02  0.23990369513E+03  0.27228180026E+03  0.12500184540E+03 0.  0.
          5    1    3    3  502    0 -0.12630567925E+02 -0.69013655215E+02  0.10963953606E+03  0.13025104115E+03  0.47000000000E+01 0.  1.
         -5    1    3    3    0  502  0.33026062152E+02  0.45729362716E+02  0.13026415908E+03  0.14203075912E+03  0.47000000000E+01 0.  1.
        -11    1    1    2    0    0 -0.77074676487E+01 -0.34387725632E+02  0.12097431035E+03  0.12600279559E+03  0.00000000000E+00 0. -1.
         11    1    1    2    0    0 -0.12688026578E+02  0.57672018131E+02  0.11576108162E+03  0.12995259025E+03  0.00000000000E+00 0.  1.
<mgrwt>
<rscale>  0 0.12006612E+03</rscale>
<asrwt>0</asrwt>
<pdfrwt beam="1">  1        2 0.77298168E-01 0.12877731E+03</pdfrwt>
<pdfrwt beam="2">  1       -2 0.39690849E-02 0.12877731E+03</pdfrwt>
<totfact> 0.16186622E+04</totfact>
</mgrwt>
</event>
<event>
 7    1  0.4230786E-006  0.1453162E+03  0.7546771E-02  0.1216351E+00
         -2   -1    0    0    0  501 -0.00000000000E+00  0.00000000000E+00  0.37057649845E+03  0.37057649845E+03  0.00000000000E+00 0.  1.
          2   -1    0    0  501    0  0.00000000000E+00 -0.00000000000E+00 -0.46759501869E+02  0.46759501869E+02  0.00000000000E+00 0. -1.
         23    2    1    2    0    0 -0.72364471533E+01 -0.73746104142E+02  0.19215405565E+03  0.24091489910E+03  0.12500381380E+03 0.  0.
          5    1    3    3  502    0 -0.12843360628E+02 -0.10750906623E+03  0.16284147738E+03  0.19560825133E+03  0.47000000000E+01 0.  1.
         -5    1    3    3    0  502  0.56069134745E+01  0.33762962087E+02  0.29312578268E+02  0.45306647772E+02  0.47000000000E+01 0.  1.
        -11    1    1    2    0    0 -0.16998368255E+02  0.65507065637E+01 -0.77315917184E+01  0.19789739521E+02  0.00000000000E+00 0. -1.
         11    1    1    2    0    0  0.24234815408E+02  0.67195397578E+02  0.13939453265E+03  0.15663136170E+03  0.00000000000E+00 0.  1.
<mgrwt>
<rscale>  0 0.13777749E+03</rscale>
<asrwt>0</asrwt>
<pdfrwt beam="2">  1        2 0.71937697E-02 0.14531623E+03</pdfrwt>
<pdfrwt beam="1">  1       -2 0.57011767E-01 0.14531623E+03</pdfrwt>
<totfact> 0.27610034E+03</totfact>
</mgrwt>
</event>
<event>
 7    1  0.4230786E-006  0.1360863E+03  0.7546771E-02  0.1230461E+00
         -2   -1    0    0    0  501 -0.00000000000E+00  0.00000000000E+00  0.14030175507E+03  0.14030175507E+03  0.00000000000E+00 0.  1.
          2   -1    0    0  501    0  0.00000000000E+00 -0.00000000000E+00 -0.10587735940E+03  0.10587735940E+03  0.00000000000E+00 0. -1.
         23    2    1    2    0    0  0.44360632255E+02 -0.30451451047E+02  0.31286642057E+02  0.13963647651E+03  0.12499734012E+03 0.  0.
          5    1    3    3  502    0  0.26884648327E+02 -0.46758312771E+02  0.73266967627E+02  0.91100289100E+02  0.47000000000E+01 0.  1.
         -5    1    3    3    0  502  0.17475983928E+02  0.16306861724E+02 -0.41980325570E+02  0.48536187412E+02  0.47000000000E+01 0.  1.
        -11    1    1    2    0    0  0.16852922332E+02 -0.13651383759E+02  0.19700052472E+02  0.29299715648E+02  0.00000000000E+00 0.  1.
         11    1    1    2    0    0 -0.61213554587E+02  0.44102834806E+02 -0.16562298864E+02  0.77242922309E+02  0.00000000000E+00 0. -1.
<mgrwt>
<rscale>  0 0.12799549E+03</rscale>
<asrwt>0</asrwt>
<pdfrwt beam="2">  1        2 0.16288825E-01 0.13608634E+03</pdfrwt>
<pdfrwt beam="1">  1       -2 0.21584885E-01 0.13608634E+03</pdfrwt>
<totfact> 0.61738794E+03</totfact>
</mgrwt>
</event>
<event>
 7    1  0.4230786E-006  0.1322607E+03  0.7546771E-02  0.1236568E+00
         -2   -1    0    0    0  501 -0.00000000000E+00  0.00000000000E+00  0.13850896110E+02  0.13850896110E+02  0.00000000000E+00 0.  1.
          2   -1    0    0  501    0  0.00000000000E+00 -0.00000000000E+00 -0.10031705221E+04  0.10031705221E+04  0.00000000000E+00 0. -1.
         23    2    1    2    0    0  0.40450019882E+02 -0.15290566178E+02 -0.50729105142E+03  0.52424907451E+03  0.12499150271E+03 0.  0.
          5    1    3    3  502    0 -0.85183304925E+01  0.45397941084E+02 -0.11079027499E+03  0.12012539299E+03  0.47000000000E+01 0.  1.
         -5    1    3    3    0  502  0.48968350374E+02 -0.60688507262E+02 -0.39650077643E+03  0.40412368152E+03  0.47000000000E+01 0.  1.
        -11    1    1    2    0    0 -0.70057043982E+02  0.13939172013E+02 -0.30290025082E+03  0.31120869505E+03  0.00000000000E+00 0. -1.
         11    1    1    2    0    0  0.29607024100E+02  0.13513941646E+01 -0.17912832375E+03  0.18156364865E+03  0.00000000000E+00 0.  1.
<mgrwt>
<rscale>  0 0.12404580E+03</rscale>
<asrwt>0</asrwt>
<pdfrwt beam="2">  1        2 0.15433390E+00 0.13226066E+03</pdfrwt>
<pdfrwt beam="1">  1       -2 0.21309074E-02 0.13226066E+03</pdfrwt>
<totfact> 0.17553963E+04</totfact>
</mgrwt>
</event>
<event>
 7    1  0.4230786E-006  0.1331317E+03  0.7546771E-02  0.1236356E+00
          4   -1    0    0  501    0  0.00000000000E+00  0.00000000000E+00  0.32551960148E+03  0.32551960148E+03  0.00000000000E+00 0. -1.
         -4   -1    0    0    0  501 -0.00000000000E+00 -0.00000000000E+00 -0.42896906380E+02  0.42896906380E+02  0.00000000000E+00 0.  1.
         23    2    1    2    0    0  0.29162647778E+02 -0.35293792942E+02  0.13437394751E+03  0.18915711296E+03  0.12501177452E+03 0.  0.
          5    1    3    3  502    0  0.47189679807E+01 -0.29924853898E+02  0.15399105830E+03  0.15701306180E+03  0.47000000000E+01 0.  1.
         -5    1    3    3    0  502  0.24443679797E+02 -0.53689390441E+01 -0.19617110796E+02  0.32144051152E+02  0.47000000000E+01 0.  1.
        -11    1    1    2    0    0  0.19245683086E+02 -0.10968376098E+02  0.74865653731E+01  0.23382691307E+02  0.00000000000E+00 0.  1.
         11    1    1    2    0    0 -0.48408330864E+02  0.46262169040E+02  0.14076218222E+03  0.15587670360E+03  0.00000000000E+00 0. -1.
<mgrwt>
<rscale>  0 0.12418032E+03</rscale>
<asrwt>0</asrwt>
<pdfrwt beam="1">  1        4 0.50079937E-01 0.13313172E+03</pdfrwt>
<pdfrwt beam="2">  1       -4 0.65995243E-02 0.13313172E+03</pdfrwt>
<totfact> 0.96642972E+02</totfact>
</mgrwt>
</event>
<event>
 7    1  0.4230786E-006  0.1752275E+03  0.7546771E-02  0.1179027E+00
          3   -1    0    0  501    0  0.00000000000E+00  0.00000000000E+00  0.86012131661E+03  0.86012131661E+03  0.00000000000E+00 0. -1.
         -3   -1    0    0    0  501 -0.00000000000E+00 -0.00000000000E+00 -0.32390448947E+02  0.32390448947E+02  0.00000000000E+00 0.  1.
         23    2    1    2    0    0  0.60720055920E+02 -0.10674498808E+03  0.34963189650E+03  0.39108458806E+03  0.12499309701E+03 0.  0.
          5    1    3    3  502    0  0.64685234190E+02 -0.90391842705E+02  0.35562001083E+03  0.37261581670E+03  0.47000000000E+01 0.  1.
         -5    1    3    3    0  502 -0.39651782704E+01 -0.16353145376E+02 -0.59881143342E+01  0.18468771364E+02  0.47000000000E+01 0.  1.
        -11    1    1    2    0    0 -0.97714674149E+01  0.51351903325E+01  0.11245854017E+01  0.11095785124E+02  0.00000000000E+00 0.  1.
         11    1    1    2    0    0 -0.50948588505E+02  0.10160979775E+03  0.47697438577E+03  0.49033139238E+03  0.00000000000E+00 0. -1.
<mgrwt>
<rscale>  0 0.16887445E+03</rscale>
<asrwt>0</asrwt>
<pdfrwt beam="1">  1        3 0.13232634E+00 0.17522754E+03</pdfrwt>
<pdfrwt beam="2">  1       -3 0.49831466E-02 0.17522754E+03</pdfrwt>
<totfact> 0.25869253E+02</totfact>
</mgrwt>
</event>
<event>
 7    1  0.4230786E-006  0.1259024E+03  0.7546771E-02  0.1244843E+00
          1   -1    0    0  501    0  0.00000000000E+00  0.00000000000E+00  0.82775892633E+02  0.82775892633E+02  0.00000000000E+00 0. -1.
         -1   -1    0    0    0  501 -0.00000000000E+00 -0.00000000000E+00 -0.16716863535E+03  0.16716863535E+03  0.00000000000E+00 0.  1.
         23    2    1    2    0    0  0.10555298019E+02  0.10725011153E+02 -0.80749540476E+02  0.14957237587E+03  0.12499986863E+03 0.  0.
          5    1    3    3  502    0 -0.29409223569E+02  0.38673732891E+02 -0.87422185163E+02  0.10012636269E+03  0.47000000000E+01 0.  1.
         -5    1    3    3    0  502  0.39964521589E+02 -0.27948721738E+02  0.66726446879E+01  0.49446013183E+02  0.47000000000E+01 0.  1.
        -11    1    1    2    0    0  0.27974785614E+02  0.12047674188E+01 -0.38128066838E+02  0.47305280630E+02  0.00000000000E+00 0.  1.
         11    1    1    2    0    0 -0.38530083634E+02 -0.11929778572E+02  0.34484864601E+02  0.53066871475E+02  0.00000000000E+00 0. -1.
<mgrwt>
<rscale>  0 0.11894801E+03</rscale>
<asrwt>0</asrwt>
<pdfrwt beam="1">  1        1 0.12734753E-01 0.12590237E+03</pdfrwt>
<pdfrwt beam="2">  1       -1 0.25718252E-01 0.12590237E+03</pdfrwt>
<totfact> 0.58179179E+03</totfact>
</mgrwt>
</event>
<event>
 7    1  0.4230786E-006  0.1357353E+03  0.7546771E-02  0.1232084E+00
         -1   -1    0    0    0  501 -0.00000000000E+00  0.00000000000E+00  0.35074799176E+03  0.35074799176E+03  0.00000000000E+00 0.  1.
          1   -1    0    0  501    0  0.00000000000E+00 -0.00000000000E+00 -0.71184638704E+02  0.71184638704E+02  0.00000000000E+00 0. -1.
         23    2    1    2    0    0  0.52835796379E+02  0.27787666873E+01  0.28740147400E+03  0.31784221887E+03  0.12499890365E+03 0.  0.
          5    1    3    3  502    0  0.74771929693E+02  0.24206659784E+02  0.97007832383E+02  0.12493763801E+03  0.47000000000E+01 0. -1.
         -5    1    3    3    0  502 -0.21936133314E+02 -0.21427893097E+02  0.19039364162E+03  0.19290458086E+03  0.47000000000E+01 0. -1.
        -11    1    1    2    0    0  0.21459698592E+02  0.13378172586E+02 -0.11903618303E+02  0.27949781647E+02  0.00000000000E+00 0. -1.
         11    1    1    2    0    0 -0.74295494971E+02 -0.16156939274E+02  0.40654973532E+01  0.76140629945E+02  0.00000000000E+00 0.  1.
<mgrwt>
<rscale>  0 0.12692979E+03</rscale>
<asrwt>0</asrwt>
<pdfrwt beam="2">  1        1 0.10951483E-01 0.13573529E+03</pdfrwt>
<pdfrwt beam="1">  1       -1 0.53961228E-01 0.13573529E+03</pdfrwt>
<totfact> 0.19655622E+03</totfact>
</mgrwt>
</event>
<event>
 7    1  0.4230786E-006  0.1518797E+03  0.7546771E-02  0.1205956E+00
         -1   -1    0    0    0  501 -0.00000000000E+00  0.00000000000E+00  0.42779341388E+03  0.42779341388E+03  0.00000000000E+00 0.  1.
          1   -1    0    0  501    0  0.00000000000E+00 -0.00000000000E+00 -0.91556607235E+02  0.91556607235E+02  0.00000000000E+00 0. -1.
         23    2    1    2    0    0 -0.83290120665E+02 -0.46929313294E+02  0.35825150318E+03  0.38911639657E+03  0.11801621035E+03 0.  0.
          5    1    3    3  502    0  0.12152602539E+02 -0.43520267126E+02  0.56050570935E+02  0.72148845461E+02  0.47000000000E+01 0. -1.
         -5    1    3    3    0  502 -0.95442723204E+02 -0.34090461683E+01  0.30220093224E+03  0.31696755111E+03  0.47000000000E+01 0.  1.
        -11    1    1    2    0    0  0.63812377232E+02  0.28867123939E+02 -0.54157747104E+02  0.88534693222E+02  0.00000000000E+00 0. -1.
         11    1    1    2    0    0  0.19477743433E+02  0.18062189355E+02  0.32143050572E+02  0.41698931324E+02  0.00000000000E+00 0.  1.
<mgrwt>
<rscale>  0 0.14562357E+03</rscale>
<asrwt>0</asrwt>
<pdfrwt beam="2">  1        1 0.14085632E-01 0.15187966E+03</pdfrwt>
<pdfrwt beam="1">  1       -1 0.65814370E-01 0.15187966E+03</pdfrwt>
<totfact> 0.97237512E+02</totfact>
</mgrwt>
</event>
<event>
 7    1  0.4230786E-006  0.1455590E+03  0.7546771E-02  0.1216367E+00
         -1   -1    0    0    0  501 -0.00000000000E+00  0.00000000000E+00  0.74025076047E+03  0.74025076047E+03  0.00000000000E+00 0.  1.
          1   -1    0    0  501    0  0.00000000000E+00 -0.00000000000E+00 -0.23459508618E+02  0.23459508618E+02  0.00000000000E+00 0. -1.
         23    2    1    2    0    0  0.65267627491E+02 -0.36100520306E+02  0.43346914127E+03  0.45725587218E+03  0.12499730174E+03 0.  0.
          5    1    3    3  502    0  0.18025763657E+01  0.34357223008E+00 -0.81520153998E+01  0.95871100186E+01  0.47000000000E+01 0. -1.
         -5    1    3    3    0  502  0.63465051125E+02 -0.36444092536E+02  0.44162115667E+03  0.44766876216E+03  0.47000000000E+01 0. -1.
        -11    1    1    2    0    0 -0.28547813653E+01  0.48177506924E+02  0.80043875242E+02  0.93467876373E+02  0.00000000000E+00 0. -1.
         11    1    1    2    0    0 -0.62412846125E+02 -0.12076986618E+02  0.20327823534E+03  0.21298652054E+03  0.00000000000E+00 0.  1.
<mgrwt>
<rscale>  0 0.13776619E+03</rscale>
<asrwt>0</asrwt>
<pdfrwt beam="2">  1        1 0.36091557E-02 0.14555905E+03</pdfrwt>
<pdfrwt beam="1">  1       -1 0.11388471E+00 0.14555905E+03</pdfrwt>
<totfact> 0.19157852E+03</totfact>
</mgrwt>
</event>
<event>
 7    1  0.4230786E-006  0.1459777E+03  0.7546771E-02  0.1218151E+00
          2   -1    0    0  501    0  0.00000000000E+00  0.00000000000E+00  0.34929857392E+03  0.34929857392E+03  0.00000000000E+00 0. -1.
         -2   -1    0    0    0  501 -0.00000000000E+00 -0.00000000000E+00 -0.48256376309E+02  0.48256376309E+02  0.00000000000E+00 0.  1.
         23    2    1    2    0    0 -0.60080250893E+01  0.75215327062E+02  0.14496927845E+03  0.20573183635E+03  0.12496421489E+03 0.  0.
          5    1    3    3  502    0  0.57681681533E+02  0.36707234827E+02  0.89826726436E+02  0.11298463725E+03  0.47000000000E+01 0.  1.
         -5    1    3    3    0  502 -0.63689706623E+02  0.38508092235E+02  0.55142552010E+02  0.92747199092E+02  0.47000000000E+01 0.  1.
        -11    1    1    2    0    0  0.31403794377E+02  0.75735484375E+00  0.44788136218E+02  0.54706023740E+02  0.00000000000E+00 0. -1.
         11    1    1    2    0    0 -0.25395769287E+02 -0.75972681905E+02  0.11128478295E+03  0.13711709014E+03  0.00000000000E+00 0.  1.
<mgrwt>
<rscale>  0 0.13647589E+03</rscale>
<asrwt>0</asrwt>
<pdfrwt beam="1">  1        2 0.53738241E-01 0.14597773E+03</pdfrwt>
<pdfrwt beam="2">  1       -2 0.74240581E-02 0.14597773E+03</pdfrwt>
<totfact> 0.93913909E+03</totfact>
</mgrwt>
</event>
<event>
 7    1  0.4230786E-006  0.1756507E+03  0.7546771E-02  0.1178770E+00
         -1   -1    0    0    0  501 -0.00000000000E+00  0.00000000000E+00  0.71316965777E+03  0.71316965777E+03  0.00000000000E+00 0.  1.
          1   -1    0    0  501    0  0.00000000000E+00 -0.00000000000E+00 -0.46738476291E+02  0.46738476291E+02  0.00000000000E+00 0. -1.
         23    2    1    2    0    0 -0.11112812471E+03 -0.53635385906E+02  0.52291341923E+03  0.55162633787E+03  0.12500783132E+03 0.  0.
          5    1    3    3  502    0 -0.51062421204E+02 -0.17003817383E+02  0.50408279526E+02  0.73889006690E+02  0.47000000000E+01 0.  1.
         -5    1    3    3    0  502 -0.60065703507E+02 -0.36631568523E+02  0.47250513971E+03  0.47773733118E+03  0.47000000000E+01 0.  1.
        -11    1    1    2    0    0  0.10347209504E+03  0.20113910090E+02  0.68368074190E+02  0.12563931471E+03  0.00000000000E+00 0. -1.
         11    1    1    2    0    0  0.76560296660E+01  0.33521475816E+02  0.75149688053E+02  0.82642481482E+02  0.00000000000E+00 0.  1.
<mgrwt>
<rscale>  0 0.16911849E+03</rscale>
<asrwt>0</asrwt>
<pdfrwt beam="2">  1        1 0.71905353E-02 0.17565071E+03</pdfrwt>
<pdfrwt beam="1">  1       -1 0.10971840E+00 0.17565071E+03</pdfrwt>
<totfact> 0.81571951E+02</totfact>
</mgrwt>
</event>
<event>
 7    1  0.4230786E-006  0.1186372E+03  0.7546771E-02  0.1304239E+00
          2   -1    0    0  501    0  0.00000000000E+00  0.00000000000E+00  0.33485087142E+03  0.33485087142E+03  0.00000000000E+00 0. -1.
         -2   -1    0    0    0  501 -0.00000000000E+00 -0.00000000000E+00 -0.19700319791E+02  0.19700319791E+02  0.00000000000E+00 0.  1.
         23    2    1    2    0    0  0.34971303239E+02  0.13519949536E+02  0.19311961731E+03  0.22664942741E+03  0.11255663140E+03 0.  0.
          5    1    3    3  502    0  0.71780266802E+01  0.10012820465E+02  0.19747282661E+03  0.19791257638E+03  0.47000000000E+01 0. -1.
         -5    1    3    3    0  502  0.27793276559E+02  0.35071290712E+01 -0.43532093011E+01  0.28736851036E+02  0.47000000000E+01 0.  1.
        -11    1    1    2    0    0 -0.10089319003E+02 -0.74680438000E+01  0.35063077945E+02  0.37242253840E+02  0.00000000000E+00 0.  1.
         11    1    1    2    0    0 -0.24881984237E+02 -0.60519057357E+01  0.86967856382E+02  0.90659509961E+02  0.00000000000E+00 0. -1.
<mgrwt>
<rscale>  0 0.89429516E+02</rscale>
<asrwt>0</asrwt>
<pdfrwt beam="1">  1        2 0.51515515E-01 0.11863716E+03</pdfrwt>
<pdfrwt beam="2">  1       -2 0.30308187E-02 0.11863716E+03</pdfrwt>
<totfact> 0.36899729E+04</totfact>
</mgrwt>
</event>
<event>
 7    1  0.4230786E-006  0.1447330E+03  0.7546771E-02  0.1213667E+00
         -1   -1    0    0    0  501 -0.00000000000E+00  0.00000000000E+00  0.17598936566E+03  0.17598936566E+03  0.00000000000E+00 0.  1.
          1   -1    0    0  501    0  0.00000000000E+00 -0.00000000000E+00 -0.10562971568E+03  0.10562971568E+03  0.00000000000E+00 0. -1.
         23    2    1    2    0    0 -0.79610507833E+02  0.42885487154E+02  0.55216457927E+02  0.15490804258E+03  0.11300728500E+03 0.  0.
          5    1    3    3  502    0 -0.91752958288E+02  0.25717263883E+02  0.78233201889E+02  0.12337952380E+03  0.47000000000E+01 0. -1.
         -5    1    3    3    0  502  0.12142450455E+02  0.17168223271E+02 -0.23016743962E+02  0.31528518772E+02  0.47000000000E+01 0.  1.
        -11    1    1    2    0    0  0.13860852090E+02  0.33390565808E+01 -0.30938247385E+02  0.34065344131E+02  0.00000000000E+00 0. -1.
         11    1    1    2    0    0  0.65749655743E+02 -0.46224543735E+02  0.46081439441E+02  0.92645694637E+02  0.00000000000E+00 0.  1.
<mgrwt>
<rscale>  0 0.13974889E+03</rscale>
<asrwt>0</asrwt>
<pdfrwt beam="2">  1        1 0.16250725E-01 0.14473301E+03</pdfrwt>
<pdfrwt beam="1">  1       -1 0.27075287E-01 0.14473301E+03</pdfrwt>
<totfact> 0.39291550E+03</totfact>
</mgrwt>
</event>
<event>
 6    1  0.4230786E-006  0.3787510E+03  0.7546771E-02  0.1067727E+00
         -2   -1    0    0    0  501 -0.00000000000E+00  0.00000000000E+00  0.71935957241E+02  0.71935957241E+02  0.00000000000E+00 0.  1.
          2   -1    0    0  501    0  0.00000000000E+00 -0.00000000000E+00 -0.13535259549E+04  0.13535259549E+04  0.00000000000E+00 0. -1.
          5    1    1    2  502    0 -0.45574405816E+02  0.11303452933E+03 -0.60483448295E+03  0.61700945945E+03  0.47000000000E+01 0. -1.
         -5    1    1    2    0  502 -0.65458264920E+02 -0.13150048350E+03 -0.84509613663E+02  0.16953208076E+03  0.47000000000E+01 0.  1.
        -11    1    1    2    0    0  0.14161983735E+03  0.70684806775E+02 -0.52551998523E+03  0.54883856926E+03  0.00000000000E+00 0.  1.
         11    1    1    2    0    0 -0.30587166615E+02 -0.52218852604E+02 -0.66725915808E+02  0.90081802653E+02  0.00000000000E+00 0. -1.
<mgrwt>
<rscale>  0 0.33782349E+03</rscale>
<asrwt>0</asrwt>
<pdfrwt beam="2">  1        2 0.20823475E+00 0.37875099E+03</pdfrwt>
<pdfrwt beam="1">  1       -2 0.11067071E-01 0.37875099E+03</pdfrwt>
<totfact> 0.91919301E+02</totfact>
</mgrwt>
</event>
<event>
 7    1  0.4230786E-006  0.1348350E+03  0.7546771E-02  0.1232543E+00
          1   -1    0    0  501    0  0.00000000000E+00  0.00000000000E+00  0.84595661483E+02  0.84595661483E+02  0.00000000000E+00 0. -1.
         -1   -1    0    0    0  501 -0.00000000000E+00 -0.00000000000E+00 -0.17364446560E+03  0.17364446560E+03  0.00000000000E+00 0.  1.
         23    2    1    2    0    0  0.43529070398E+02  0.24995447030E+02 -0.68939889639E+02  0.15143710720E+03  0.12514366429E+03 0.  0.
          5    1    3    3  502    0 -0.44193060229E+02  0.10291398928E+02 -0.26716616678E+02  0.52865934883E+02  0.47000000000E+01 0. -1.
         -5    1    3    3    0  502  0.87722130626E+02  0.14704048102E+02 -0.42223272961E+02  0.98571172316E+02  0.47000000000E+01 0. -1.
        -11    1    1    2    0    0  0.27020693362E+02 -0.18806366257E+02  0.89513139577E+00  0.32933243718E+02  0.00000000000E+00 0. -1.
         11    1    1    2    0    0 -0.70549763760E+02 -0.61890807730E+01 -0.21004045869E+02  0.73869776162E+02  0.00000000000E+00 0.  1.
<mgrwt>
<rscale>  0 0.12663058E+03</rscale>
<asrwt>0</asrwt>
<pdfrwt beam="1">  1        1 0.13014717E-01 0.13483504E+03</pdfrwt>
<pdfrwt beam="2">  1       -1 0.26714532E-01 0.13483504E+03</pdfrwt>
<totfact> 0.53366316E+03</totfact>
</mgrwt>
</event>
<event>
 6    1  0.4230786E-006  0.2309838E+03  0.7546771E-02  0.1154496E+00
         -2   -1    0    0    0  501 -0.00000000000E+00  0.00000000000E+00  0.54507955278E+02  0.54507955278E+02  0.00000000000E+00 0.  1.
          2   -1    0    0  501    0  0.00000000000E+00 -0.00000000000E+00 -0.55760752922E+03  0.55760752922E+03  0.00000000000E+00 0. -1.
          5    1    1    2  502    0 -0.83750171557E+02  0.24903305572E+01 -0.21567964178E+03  0.23143053139E+03  0.47000000000E+01 0. -1.
         -5    1    1    2    0  502  0.10321062704E+03 -0.65255223682E+02 -0.90291535450E+02  0.15193857024E+03  0.47000000000E+01 0.  1.
        -11    1    1    2    0    0 -0.24384872452E+02  0.87016415470E+02 -0.14197205794E+03  0.16829302956E+03  0.00000000000E+00 0.  1.
         11    1    1    2    0    0  0.49244169703E+01 -0.24251522346E+02 -0.55156338774E+02  0.60453353303E+02  0.00000000000E+00 0. -1.
<mgrwt>
<rscale>  0 0.19446351E+03</rscale>
<asrwt>0</asrwt>
<pdfrwt beam="2">  1        2 0.85785769E-01 0.23098378E+03</pdfrwt>
<pdfrwt beam="1">  1       -2 0.83858397E-02 0.23098378E+03</pdfrwt>
<totfact> 0.47734706E+03</totfact>
</mgrwt>
</event>
<event>
 7    1  0.4230786E-006  0.1686119E+03  0.7546771E-02  0.1183840E+00
         -2   -1    0    0    0  501 -0.00000000000E+00  0.00000000000E+00  0.29610432280E+02  0.29610432280E+02  0.00000000000E+00 0.  1.
          2   -1    0    0  501    0  0.00000000000E+00 -0.00000000000E+00 -0.87601903574E+03  0.87601903574E+03  0.00000000000E+00 0. -1.
         23    2    1    2    0    0  0.32378052446E+02  0.11962199408E+03 -0.40563237175E+03  0.43928076376E+03  0.11433375989E+03 0.  0.
          5    1    3    3  502    0  0.47607610209E+02  0.11517286332E+03 -0.40381397767E+03  0.42263351921E+03  0.47000000000E+01 0. -1.
         -5    1    3    3    0  502 -0.15229557763E+02  0.44491307575E+01 -0.18183940794E+01  0.16647244552E+02  0.47000000000E+01 0.  1.
        -11    1    1    2    0    0 -0.46250562581E+02 -0.26861364923E+02 -0.10668011462E+03  0.11933689421E+03  0.00000000000E+00 0. -1.
         11    1    1    2    0    0  0.13872510135E+02 -0.92760629157E+02 -0.33409611709E+03  0.34701181005E+03  0.00000000000E+00 0.  1.
<mgrwt>
<rscale>  0 0.16437892E+03</rscale>
<asrwt>0</asrwt>
<pdfrwt beam="2">  1        2 0.13477214E+00 0.16861189E+03</pdfrwt>
<pdfrwt beam="1">  1       -2 0.45554517E-02 0.16861189E+03</pdfrwt>
<totfact> 0.69514926E+03</totfact>
</mgrwt>
</event>
<event>
 7    1  0.4230786E-006  0.1889881E+03  0.7546771E-02  0.1163693E+00
         -1   -1    0    0    0  501 -0.00000000000E+00  0.00000000000E+00  0.31508556065E+02  0.31508556065E+02  0.00000000000E+00 0.  1.
          1   -1    0    0  501    0  0.00000000000E+00 -0.00000000000E+00 -0.10290764696E+04  0.10290764696E+04  0.00000000000E+00 0. -1.
         23    2    1    2    0    0 -0.10834181372E+03  0.91387466371E+02 -0.50705264407E+03  0.54112742407E+03  0.12500755023E+03 0.  0.
          5    1    3    3  502    0 -0.12575940741E+03  0.98340500113E+02 -0.48991509605E+03  0.51529134851E+03  0.47000000000E+01 0.  1.
         -5    1    3    3    0  502  0.17417593689E+02 -0.69530337418E+01 -0.17137548018E+02  0.25836075558E+02  0.47000000000E+01 0.  1.
        -11    1    1    2    0    0  0.11084215883E+03 -0.40579488570E+02 -0.30344094620E+03  0.32559036672E+03  0.00000000000E+00 0.  1.
         11    1    1    2    0    0 -0.25003451073E+01 -0.50807977801E+02 -0.18707432324E+03  0.19386723485E+03  0.00000000000E+00 0. -1.
<mgrwt>
<rscale>  0 0.18431313E+03</rscale>
<asrwt>0</asrwt>
<pdfrwt beam="2">  1        1 0.15831949E+00 0.18898811E+03</pdfrwt>
<pdfrwt beam="1">  1       -1 0.48474693E-02 0.18898811E+03</pdfrwt>
<totfact> 0.27863908E+03</totfact>
</mgrwt>
</event>
<event>
 7    1  0.4230786E-006  0.1255857E+03  0.7546771E-02  0.1247809E+00
         -1   -1    0    0    0  501 -0.00000000000E+00  0.00000000000E+00  0.56735095505E+02  0.56735095505E+02  0.00000000000E+00 0.  1.
          1   -1    0    0  501    0  0.00000000000E+00 -0.00000000000E+00 -0.21902457602E+03  0.21902457602E+03  0.00000000000E+00 0. -1.
         23    2    1    2    0    0 -0.13516721520E+02  0.26622018824E+02 -0.73189261469E+02  0.14535627288E+03  0.12198501722E+03 0.  0.
          5    1    3    3  502    0  0.15029149042E+02  0.69837212484E+02 -0.54941503485E+02  0.90242841122E+02  0.47000000000E+01 0. -1.
         -5    1    3    3    0  502 -0.28545870562E+02 -0.43215193660E+02 -0.18247757984E+02  0.55113431763E+02  0.47000000000E+01 0.  1.
        -11    1    1    2    0    0  0.85023196928E+01  0.13534270606E+02  0.12982770034E+02  0.20591703153E+02  0.00000000000E+00 0.  1.
         11    1    1    2    0    0  0.50144018274E+01 -0.40156289430E+02 -0.10208298908E+03  0.10981169549E+03  0.00000000000E+00 0. -1.
<mgrwt>
<rscale>  0 0.11718807E+03</rscale>
<asrwt>0</asrwt>
<pdfrwt beam="2">  1        1 0.33696089E-01 0.12558574E+03</pdfrwt>
<pdfrwt beam="1">  1       -1 0.87284762E-02 0.12558574E+03</pdfrwt>
<totfact> 0.92337037E+03</totfact>
</mgrwt>
</event>
<event>
 7    1  0.4230786E-006  0.1286953E+03  0.7546771E-02  0.1243841E+00
          1   -1    0    0  501    0  0.00000000000E+00  0.00000000000E+00  0.40151280480E+03  0.40151280480E+03  0.00000000000E+00 0. -1.
         -1   -1    0    0    0  501 -0.00000000000E+00 -0.00000000000E+00 -0.32837956375E+02  0.32837956375E+02  0.00000000000E+00 0.  1.
         23    2    1    2    0    0  0.21539810558E+02 -0.21777455827E+02  0.16497884155E+03  0.20923791189E+03  0.12499705833E+03 0.  0.
          5    1    3    3  502    0 -0.48227315938E-01  0.51349201621E+02  0.77660482788E+02  0.93220080562E+02  0.47000000000E+01 0.  1.
         -5    1    3    3    0  502  0.21588037874E+02 -0.73126657448E+02  0.87318358760E+02  0.11601783132E+03  0.47000000000E+01 0.  1.
        -11    1    1    2    0    0  0.20408708260E+02  0.39876122129E+02  0.63873312020E+02  0.78015514337E+02  0.00000000000E+00 0.  1.
         11    1    1    2    0    0 -0.41948518818E+02 -0.18098666302E+02  0.13982269486E+03  0.14709733495E+03  0.00000000000E+00 0. -1.
<mgrwt>
<rscale>  0 0.11954997E+03</rscale>
<asrwt>0</asrwt>
<pdfrwt beam="1">  1        1 0.61771197E-01 0.12869532E+03</pdfrwt>
<pdfrwt beam="2">  1       -1 0.50519936E-02 0.12869532E+03</pdfrwt>
<totfact> 0.98797554E+03</totfact>
</mgrwt>
</event>
<event>
 6    1  0.4230786E-006  0.1885042E+03  0.7546771E-02  0.1169823E+00
          2   -1    0    0  501    0  0.00000000000E+00  0.00000000000E+00  0.56282223903E+03  0.56282223903E+03  0.00000000000E+00 0. -1.
         -2   -1    0    0    0  501 -0.00000000000E+00 -0.00000000000E+00 -0.87388835009E+02  0.87388835009E+02  0.00000000000E+00 0.  1.
          5    1    1    2  502    0  0.34348434802E+02  0.13869551648E+01  0.71069892891E+02  0.79087029869E+02  0.47000000000E+01 0. -1.
         -5    1    1    2    0  502  0.88429031276E+01 -0.11078929621E+03 -0.27063352613E+02  0.11448572027E+03  0.47000000000E+01 0.  1.
        -11    1    1    2    0    0  0.78568963653E+00  0.52241188069E+02  0.66072933485E+02  0.84234147341E+02  0.00000000000E+00 0. -1.
         11    1    1    2    0    0 -0.43977027566E+02  0.57161152979E+02  0.36535393026E+03  0.37240417656E+03  0.00000000000E+00 0.  1.
<mgrwt>
<rscale>  0 0.17792875E+03</rscale>
<asrwt>0</asrwt>
<pdfrwt beam="1">  1        2 0.86588035E-01 0.18850420E+03</pdfrwt>
<pdfrwt beam="2">  1       -2 0.13444436E-01 0.18850420E+03</pdfrwt>
<totfact> 0.22092735E+03</totfact>
</mgrwt>
</event>
<event>
 7    1  0.4230786E-006  0.1272738E+03  0.7546771E-02  0.1246307E+00
          1   -1    0    0  501    0  0.00000000000E+00  0.00000000000E+00  0.57241019042E+03  0.57241019042E+03  0.00000000000E+00 0. -1.
         -1   -1    0    0    0  501 -0.00000000000E+00 -0.00000000000E+00 -0.24700457914E+02  0.24700457914E+02  0.00000000000E+00 0.  1.
         23    2    1    2    0    0  0.12016684853E+02 -0.20729941034E+02  0.20179857525E+03  0.23858184502E+03  0.12499800251E+03 0.  0.
          5    1    3    3  502    0  0.59983004808E+02 -0.10903636973E+01  0.16274606704E+03  0.17351519270E+03  0.47000000000E+01 0.  1.
         -5    1    3    3    0  502 -0.47966319955E+02 -0.19639577337E+02  0.39052508207E+02  0.65066652329E+02  0.47000000000E+01 0.  1.
        -11    1    1    2    0    0 -0.15512906322E+02 -0.33952344740E+02  0.10419082692E+03  0.11067583472E+03  0.00000000000E+00 0.  1.
         11    1    1    2    0    0  0.34962214686E+01  0.54682285774E+02  0.24172033034E+03  0.24785296859E+03  0.00000000000E+00 0. -1.
<mgrwt>
<rscale>  0 0.11807479E+03</rscale>
<asrwt>0</asrwt>
<pdfrwt beam="1">  1        1 0.88063096E-01 0.12727385E+03</pdfrwt>
<pdfrwt beam="2">  1       -1 0.38000709E-02 0.12727385E+03</pdfrwt>
<totfact> 0.94830788E+03</totfact>
</mgrwt>
</event>
<event>
 7    1  0.4230786E-006  0.1270889E+03  0.7546771E-02  0.1248002E+00
          2   -1    0    0  501    0  0.00000000000E+00  0.00000000000E+00  0.46227482561E+03  0.46227482561E+03  0.00000000000E+00 0. -1.
         -2   -1    0    0    0  501 -0.00000000000E+00 -0.00000000000E+00 -0.27014549249E+02  0.27014549249E+02  0.00000000000E+00 0.  1.
         23    2    1    2    0    0 -0.21139037249E+02 -0.89046535825E+01  0.20126569971E+03  0.23803252225E+03  0.12500179204E+03 0.  0.
          5    1    3    3  502    0  0.17597883012E+02 -0.55206697728E+02  0.14139608038E+03  0.15288036665E+03  0.47000000000E+01 0. -1.
         -5    1    3    3    0  502 -0.38736920260E+02  0.46302044145E+02  0.59869619334E+02  0.85152155595E+02  0.47000000000E+01 0. -1.
        -11    1    1    2    0    0  0.48954598702E+02  0.11409911533E+02  0.20470511636E+03  0.21078644045E+03  0.00000000000E+00 0. -1.
         11    1    1    2    0    0 -0.27815561453E+02 -0.25052579509E+01  0.29289460286E+02  0.40470412157E+02  0.00000000000E+00 0.  1.
<mgrwt>
<rscale>  0 0.11707494E+03</rscale>
<asrwt>0</asrwt>
<pdfrwt beam="1">  1        2 0.71119198E-01 0.12708894E+03</pdfrwt>
<pdfrwt beam="2">  1       -2 0.41560848E-02 0.12708894E+03</pdfrwt>
<totfact> 0.16535193E+04</totfact>
</mgrwt>
</event>
<event>
 7    1  0.4230786E-006  0.1337157E+03  0.7546771E-02  0.1234748E+00
         -1   -1    0    0    0  501 -0.00000000000E+00  0.00000000000E+00  0.12625654828E+02  0.12625654828E+02  0.00000000000E+00 0.  1.
          1   -1    0    0  501    0  0.00000000000E+00 -0.00000000000E+00 -0.11741062387E+04  0.11741062387E+04  0.00000000000E+00 0. -1.
         23    2    1    2    0    0  0.12275204918E+02  0.45819630443E+02 -0.79247730462E+03  0.80367914138E+03  0.12501905758E+03 0.  0.
          5    1    3    3  502    0  0.57131295085E+02 -0.12654656123E+02 -0.40432431679E+03  0.40856378737E+03  0.47000000000E+01 0. -1.
         -5    1    3    3    0  502 -0.44856090167E+02  0.58474286566E+02 -0.38815298783E+03  0.39511535401E+03  0.47000000000E+01 0. -1.
        -11    1    1    2    0    0 -0.20144315017E+01  0.28060918924E+02 -0.94948474379E+02  0.99028712463E+02  0.00000000000E+00 0.  1.
         11    1    1    2    0    0 -0.10260773416E+02 -0.73880549367E+02 -0.27405480485E+03  0.28402403966E+03  0.00000000000E+00 0. -1.
<mgrwt>
<rscale>  0 0.12520611E+03</rscale>
<asrwt>0</asrwt>
<pdfrwt beam="2">  1        1 0.18063175E+00 0.13371568E+03</pdfrwt>
<pdfrwt beam="1">  1       -1 0.19424083E-02 0.13371568E+03</pdfrwt>
<totfact> 0.82894538E+03</totfact>
</mgrwt>
</event>
<event>
 7    1  0.4230786E-006  0.2083286E+03  0.7546771E-02  0.1146633E+00
         -2   -1    0    0    0  501 -0.00000000000E+00  0.00000000000E+00  0.72903942743E+02  0.72903942743E+02  0.00000000000E+00 0.  1.
          2   -1    0    0  501    0  0.00000000000E+00 -0.00000000000E+00 -0.55764527990E+03  0.55764527990E+03  0.00000000000E+00 0. -1.
         23    2    1    2    0    0 -0.13063068544E+03  0.10348450039E+03 -0.29942985500E+03  0.36477260676E+03  0.12500959475E+03 0.  0.
          5    1    3    3  502    0  0.23781284449E+02  0.21404696428E+02 -0.34393872439E+02  0.47209522138E+02  0.47000000000E+01 0. -1.
         -5    1    3    3    0  502 -0.15441196989E+03  0.82079803958E+02 -0.26503598256E+03  0.31756308462E+03  0.47000000000E+01 0. -1.
        -11    1    1    2    0    0  0.99234949424E+02 -0.21184604802E+02 -0.85832806381E+02  0.13290460232E+03  0.00000000000E+00 0. -1.
         11    1    1    2    0    0  0.31395736017E+02 -0.82299895583E+02 -0.99478675781E+02  0.13287201356E+03  0.00000000000E+00 0.  1.
<mgrwt>
<rscale>  0 0.20372548E+03</rscale>
<asrwt>0</asrwt>
<pdfrwt beam="2">  1        2 0.85791580E-01 0.20832863E+03</pdfrwt>
<pdfrwt beam="1">  1       -2 0.11215991E-01 0.20832863E+03</pdfrwt>
<totfact> 0.29994838E+03</totfact>
</mgrwt>
</event>
<event>
 7    1  0.4230786E-006  0.1362225E+03  0.7546771E-02  0.1229528E+00
          2   -1    0    0  501    0  0.00000000000E+00  0.00000000000E+00  0.57168804863E+03  0.57168804863E+03  0.00000000000E+00 0. -1.
         -2   -1    0    0    0  501 -0.00000000000E+00 -0.00000000000E+00 -0.27130780402E+02  0.27130780402E+02  0.00000000000E+00 0.  1.
         23    2    1    2    0    0  0.46109244595E+02 -0.28447874224E+02  0.24528476201E+03  0.28057297926E+03  0.12498495202E+03 0.  0.
          5    1    3    3  502    0 -0.50992557051E+01  0.22445941732E+02 -0.13633760554E+01  0.23532350143E+02  0.47000000000E+01 0.  1.
         -5    1    3    3    0  502  0.51208500300E+02 -0.50893815956E+02  0.24664813807E+03  0.25704062912E+03  0.47000000000E+01 0.  1.
        -11    1    1    2    0    0 -0.40272618495E+02 -0.29224752011E+02  0.15381630808E+03  0.16166454949E+03  0.00000000000E+00 0.  1.
         11    1    1    2    0    0 -0.58366260995E+01  0.57672626236E+02  0.14545619813E+03  0.15658130027E+03  0.00000000000E+00 0. -1.
<mgrwt>
<rscale>  0 0.12861332E+03</rscale>
<asrwt>0</asrwt>
<pdfrwt beam="1">  1        2 0.87951998E-01 0.13622255E+03</pdfrwt>
<pdfrwt beam="2">  1       -2 0.41739667E-02 0.13622255E+03</pdfrwt>
<totfact> 0.13071038E+04</totfact>
</mgrwt>
</event>
<event>
 7    1  0.4230786E-006  0.1922800E+03  0.7546771E-02  0.1161310E+00
          1   -1    0    0  501    0  0.00000000000E+00  0.00000000000E+00  0.82500503374E+03  0.82500503374E+03  0.00000000000E+00 0. -1.
         -1   -1    0    0    0  501 -0.00000000000E+00 -0.00000000000E+00 -0.47695290423E+02  0.47695290423E+02  0.00000000000E+00 0.  1.
         23    2    1    2    0    0  0.12945862993E+03  0.67718723868E+02  0.23354229664E+03  0.30251213546E+03  0.12500490131E+03 0.  0.
          5    1    3    3  502    0  0.14502848995E+03  0.68781098035E+02  0.23658243512E+03  0.28593258113E+03  0.47000000000E+01 0.  1.
         -5    1    3    3    0  502 -0.15569860018E+02 -0.10623741675E+01 -0.30401384740E+01  0.16579554330E+02  0.47000000000E+01 0.  1.
        -11    1    1    2    0    0 -0.51623161264E+02 -0.73718871632E+02  0.34750484868E+03  0.35896941746E+03  0.00000000000E+00 0.  1.
         11    1    1    2    0    0 -0.77835468669E+02  0.60001477640E+01  0.19626259799E+03  0.21121877125E+03  0.00000000000E+00 0. -1.
<mgrwt>
<rscale>  0 0.18687541E+03</rscale>
<asrwt>0</asrwt>
<pdfrwt beam="1">  1        1 0.12692384E+00 0.19227997E+03</pdfrwt>
<pdfrwt beam="2">  1       -1 0.73377376E-02 0.19227997E+03</pdfrwt>
<totfact> 0.21463406E+03</totfact>
</mgrwt>
</event>
<event>
 7    1  0.4230786E-006  0.1398519E+03  0.7546771E-02  0.1225686E+00
          1   -1    0    0  501    0  0.00000000000E+00  0.00000000000E+00  0.66697213668E+02  0.66697213668E+02  0.00000000000E+00 0. -1.
         -1   -1    0    0    0  501 -0.00000000000E+00 -0.00000000000E+00 -0.26474262689E+03  0.26474262689E+03  0.00000000000E+00 0.  1.
         23    2    1    2    0    0  0.62610456519E+02 -0.31866805179E+01 -0.16885559977E+03  0.21925048194E+03  0.12501334352E+03 0.  0.
          5    1    3    3  502    0  0.58410835240E+02  0.21052303967E+02 -0.18100394095E+03  0.19141458099E+03  0.47000000000E+01 0. -1.
         -5    1    3    3    0  502  0.41996212788E+01 -0.24238984485E+02  0.12148341188E+02  0.27835900944E+02  0.47000000000E+01 0. -1.
        -11    1    1    2    0    0 -0.54256007821E+02  0.28429441056E+02 -0.49480923744E+02  0.78742042886E+02  0.00000000000E+00 0.  1.
         11    1    1    2    0    0 -0.83544486977E+01 -0.25242760538E+02  0.20291110293E+02  0.33447315730E+02  0.00000000000E+00 0. -1.
<mgrwt>
<rscale>  0 0.13120004E+03</rscale>
<asrwt>0</asrwt>
<pdfrwt beam="1">  1        1 0.10261110E-01 0.13985192E+03</pdfrwt>
<pdfrwt beam="2">  1       -1 0.40729635E-01 0.13985192E+03</pdfrwt>
<totfact> 0.35642937E+03</totfact>
</mgrwt>
</event>
<event>
 7    1  0.4230786E-006  0.1286408E+03  0.7546771E-02  0.1243945E+00
         -1   -1    0    0    0  501 -0.00000000000E+00  0.00000000000E+00  0.84187535094E+02  0.84187535094E+02  0.00000000000E+00 0.  1.
          1   -1    0    0  501    0  0.00000000000E+00 -0.00000000000E+00 -0.18357846790E+03  0.18357846790E+03  0.00000000000E+00 0. -1.
         23    2    1    2    0    0 -0.18756511864E+02 -0.23914674510E+02  0.15273464128E+01  0.12864986414E+03  0.12499894544E+03 0.  0.
          5    1    3    3  502    0 -0.36528590519E+02  0.19734432779E+02 -0.45590948921E+02  0.61841817454E+02  0.47000000000E+01 0. -1.
         -5    1    3    3    0  502  0.17772078655E+02 -0.43649107289E+02  0.47118295334E+02  0.66808046686E+02  0.47000000000E+01 0. -1.
        -11    1    1    2    0    0  0.20987367831E+02  0.16273666246E+01  0.11842060665E+02  0.24152687871E+02  0.00000000000E+00 0.  1.
         11    1    1    2    0    0 -0.22308559666E+01  0.22287307885E+02 -0.11276033989E+03  0.11496345099E+03  0.00000000000E+00 0. -1.
<mgrwt>
<rscale>  0 0.11948768E+03</rscale>
<asrwt>0</asrwt>
<pdfrwt beam="2">  1        1 0.28242841E-01 0.12864080E+03</pdfrwt>
<pdfrwt beam="1">  1       -1 0.12951929E-01 0.12864080E+03</pdfrwt>
<totfact> 0.62966349E+03</totfact>
</mgrwt>
</event>
<event>
 7    1  0.4230786E-006  0.1250375E+03  0.7546771E-02  0.1250994E+00
         -2   -1    0    0    0  501 -0.00000000000E+00  0.00000000000E+00  0.49374741793E+02  0.49374741793E+02  0.00000000000E+00 0.  1.
          2   -1    0    0  501    0  0.00000000000E+00 -0.00000000000E+00 -0.23543388463E+03  0.23543388463E+03  0.00000000000E+00 0. -1.
         23    2    1    2    0    0 -0.31402560666E+01 -0.39671692206E+00 -0.10419990160E+03  0.16276365135E+03  0.12499747243E+03 0.  0.
          5    1    3    3  502    0  0.20559942089E+02 -0.53581400486E+02 -0.21398435274E+02  0.61430128837E+02  0.47000000000E+01 0.  1.
         -5    1    3    3    0  502 -0.23700198156E+02  0.53184683564E+02 -0.82801466330E+02  0.10133352251E+03  0.47000000000E+01 0.  1.
        -11    1    1    2    0    0 -0.43346255319E+02 -0.12858349315E+01 -0.32283009762E+02  0.54062407835E+02  0.00000000000E+00 0. -1.
         11    1    1    2    0    0  0.46486511386E+02  0.16825518536E+01 -0.49576231474E+02  0.67982567241E+02  0.00000000000E+00 0.  1.
<mgrwt>
<rscale>  0 0.11533672E+03</rscale>
<asrwt>0</asrwt>
<pdfrwt beam="2">  1        2 0.36220598E-01 0.12503754E+03</pdfrwt>
<pdfrwt beam="1">  1       -2 0.75961140E-02 0.12503754E+03</pdfrwt>
<totfact> 0.13616754E+04</totfact>
</mgrwt>
</event>
<event>
 7    1  0.4230786E-006  0.1575893E+03  0.7546771E-02  0.1199322E+00
         -3   -1    0    0    0  501 -0.00000000000E+00  0.00000000000E+00  0.68522914788E+02  0.68522914788E+02  0.00000000000E+00 0.  1.
          3   -1    0    0  501    0  0.00000000000E+00 -0.00000000000E+00 -0.30731328995E+03  0.30731328995E+03  0.00000000000E+00 0. -1.
         23    2    1    2    0    0 -0.22785161139E+02 -0.93251245239E+02 -0.12827805027E+03  0.20319854220E+03  0.12497772227E+03 0.  0.
          5    1    3    3  502    0 -0.73223140318E+02 -0.71527628392E+02 -0.82901358282E+02  0.13180498893E+03  0.47000000000E+01 0.  1.
         -5    1    3    3    0  502  0.50437979179E+02 -0.21723616847E+02 -0.45376691989E+02  0.71393553269E+02  0.47000000000E+01 0.  1.
        -11    1    1    2    0    0 -0.13443298918E+02  0.35671589970E+02 -0.95702737596E+02  0.10301552602E+03  0.00000000000E+00 0. -1.
         11    1    1    2    0    0  0.36228460057E+02  0.57579655269E+02 -0.14809587299E+02  0.69622136529E+02  0.00000000000E+00 0.  1.
<mgrwt>
<rscale>  0 0.15094048E+03</rscale>
<asrwt>0</asrwt>
<pdfrwt beam="2">  1        3 0.47278967E-01 0.15758931E+03</pdfrwt>
<pdfrwt beam="1">  1       -3 0.10541987E-01 0.15758931E+03</pdfrwt>
<totfact> 0.71409122E+02</totfact>
</mgrwt>
</event>
<event>
 7    1  0.4230786E-006  0.1710364E+03  0.7546771E-02  0.1183080E+00
         -1   -1    0    0    0  501 -0.00000000000E+00  0.00000000000E+00  0.26878065544E+03  0.26878065544E+03  0.00000000000E+00 0.  1.
          1   -1    0    0  501    0  0.00000000000E+00 -0.00000000000E+00 -0.12384640112E+03  0.12384640112E+03  0.00000000000E+00 0. -1.
         23    2    1    2    0    0  0.69310947317E+02  0.93940727516E+02  0.17108950795E+03  0.24191957208E+03  0.12499836766E+03 0.  0.
          5    1    3    3  502    0  0.88097507345E+02  0.23075454863E+02  0.12663819694E+03  0.15605438264E+03  0.47000000000E+01 0. -1.
         -5    1    3    3    0  502 -0.18786560028E+02  0.70865272653E+02  0.44451311017E+02  0.85865189437E+02  0.47000000000E+01 0. -1.
        -11    1    1    2    0    0 -0.52915908205E+02 -0.11056097072E+03 -0.11425140054E+02  0.12310302764E+03  0.00000000000E+00 0.  1.
         11    1    1    2    0    0 -0.16395039112E+02  0.16620243207E+02 -0.14730113576E+02  0.27604456845E+02  0.00000000000E+00 0. -1.
<mgrwt>
<rscale>  0 0.16507828E+03</rscale>
<asrwt>0</asrwt>
<pdfrwt beam="2">  1        1 0.19053293E-01 0.17103643E+03</pdfrwt>
<pdfrwt beam="1">  1       -1 0.41350870E-01 0.17103643E+03</pdfrwt>
<totfact> 0.15609946E+03</totfact>
</mgrwt>
</event>
<event>
 7    1  0.4230786E-006  0.1821085E+03  0.7546771E-02  0.1171217E+00
          2   -1    0    0  501    0  0.00000000000E+00  0.00000000000E+00  0.30934513375E+02  0.30934513375E+02  0.00000000000E+00 0. -1.
         -2   -1    0    0    0  501 -0.00000000000E+00 -0.00000000000E+00 -0.14091397647E+04  0.14091397647E+04  0.00000000000E+00 0.  1.
         23    2    1    2    0    0  0.24676949363E+01  0.13241689019E+03 -0.11284984937E+04  0.11430976973E+04  0.12499269163E+03 0.  0.
          5    1    3    3  502    0  0.29422265450E+02  0.99625857557E+02 -0.39826487670E+03  0.41161630582E+03  0.47000000000E+01 0. -1.
         -5    1    3    3    0  502 -0.26954570514E+02  0.32791032631E+02 -0.73023361699E+03  0.73148139148E+03  0.47000000000E+01 0. -1.
        -11    1    1    2    0    0 -0.32942755196E+02 -0.70453109757E+02 -0.19140649330E+03  0.20660423876E+03  0.00000000000E+00 0.  1.
         11    1    1    2    0    0  0.30475060260E+02 -0.61963780430E+02 -0.58300264342E+02  0.90372342038E+02  0.00000000000E+00 0. -1.
<mgrwt>
<rscale>  0 0.17651743E+03</rscale>
<asrwt>0</asrwt>
<pdfrwt beam="1">  1        2 0.47591554E-02 0.18210847E+03</pdfrwt>
<pdfrwt beam="2">  1       -2 0.21679076E+00 0.18210847E+03</pdfrwt>
<totfact> 0.18994570E+02</totfact>
</mgrwt>
</event>
<event>
 7    1  0.4230786E-006  0.1498558E+03  0.7546771E-02  0.1209320E+00
          4   -1    0    0  501    0  0.00000000000E+00  0.00000000000E+00  0.93397420319E+02  0.93397420319E+02  0.00000000000E+00 0.  1.
         -4   -1    0    0    0  501 -0.00000000000E+00 -0.00000000000E+00 -0.20220757787E+03  0.20220757787E+03  0.00000000000E+00 0. -1.
         23    2    1    2    0    0  0.10294029709E+01 -0.82645439636E+02 -0.69656681199E+02  0.16525378064E+03  0.12500172166E+03 0.  0.
          5    1    3    3  502    0 -0.59842565970E+01 -0.11328830011E+03 -0.70148714871E+02  0.13346528562E+03  0.47000000000E+01 0. -1.
         -5    1    3    3    0  502  0.70136595680E+01  0.30642860473E+02  0.49203367191E+00  0.31788495020E+02  0.47000000000E+01 0. -1.
        -11    1    1    2    0    0 -0.36559466023E+02  0.15667320925E+02  0.86713144216E+01  0.40709350212E+02  0.00000000000E+00 0.  1.
         11    1    1    2    0    0  0.35530063052E+02  0.66978118711E+02 -0.47824790777E+02  0.89641867336E+02  0.00000000000E+00 0. -1.
<mgrwt>
<rscale>  0 0.14302135E+03</rscale>
<asrwt>0</asrwt>
<pdfrwt beam="1">  1        4 0.14368834E-01 0.14985579E+03</pdfrwt>
<pdfrwt beam="2">  1       -4 0.31108858E-01 0.14985579E+03</pdfrwt>
<totfact> 0.68067875E+02</totfact>
</mgrwt>
</event>
<event>
 7    1  0.4230786E-006  0.1301008E+03  0.7546771E-02  0.1242000E+00
          2   -1    0    0  501    0  0.00000000000E+00  0.00000000000E+00  0.34949208114E+02  0.34949208114E+02  0.00000000000E+00 0. -1.
         -2   -1    0    0    0  501 -0.00000000000E+00 -0.00000000000E+00 -0.36874877815E+03  0.36874877815E+03  0.00000000000E+00 0.  1.
         23    2    1    2    0    0 -0.35942091399E+02  0.29996938923E+01 -0.20700231074E+03  0.24449165106E+03  0.12500151475E+03 0.  0.
          5    1    3    3  502    0 -0.35747708922E+02 -0.57021667126E+02 -0.13265227590E+03  0.14882232869E+03  0.47000000000E+01 0. -1.
         -5    1    3    3    0  502 -0.19438247733E+00  0.60021361018E+02 -0.74350034837E+02  0.95669322373E+02  0.47000000000E+01 0. -1.
        -11    1    1    2    0    0  0.38424270319E+02  0.33155104801E+02 -0.38315201495E+02  0.63590409572E+02  0.00000000000E+00 0. -1.
         11    1    1    2    0    0 -0.24821789200E+01 -0.36154798693E+02 -0.88482057805E+02  0.95615925630E+02  0.00000000000E+00 0.  1.
<mgrwt>
<rscale>  0 0.12066732E+03</rscale>
<asrwt>0</asrwt>
<pdfrwt beam="1">  1        2 0.53768014E-02 0.13010077E+03</pdfrwt>
<pdfrwt beam="2">  1       -2 0.56730580E-01 0.13010077E+03</pdfrwt>
<totfact> 0.40231276E+03</totfact>
</mgrwt>
</event>
<event>
 7    1  0.4230786E-006  0.1397197E+03  0.7546771E-02  0.1220554E+00
          1   -1    0    0  501    0  0.00000000000E+00  0.00000000000E+00  0.23769132124E+02  0.23769132124E+02  0.00000000000E+00 0. -1.
         -1   -1    0    0    0  501 -0.00000000000E+00 -0.00000000000E+00 -0.98622834252E+03  0.98622834252E+03  0.00000000000E+00 0.  1.
         23    2    1    2    0    0  0.63857235503E+02 -0.49367085450E+02 -0.77093208664E+03  0.78349083278E+03  0.11404712707E+03 0.  0.
          5    1    3    3  502    0  0.87530530610E+02 -0.33309386448E+01 -0.49055723047E+03  0.49833841444E+03  0.47000000000E+01 0. -1.
         -5    1    3    3    0  502 -0.23673295107E+02 -0.46036146806E+02 -0.28037485617E+03  0.28515241834E+03  0.47000000000E+01 0.  1.
        -11    1    1    2    0    0 -0.77782640546E+02  0.20678382568E+02 -0.93223686482E+02  0.12316001948E+03  0.00000000000E+00 0.  1.
         11    1    1    2    0    0  0.13925405043E+02  0.28688702882E+02 -0.98303437276E+02  0.10334662239E+03  0.00000000000E+00 0. -1.
<mgrwt>
<rscale>  0 0.13476324E+03</rscale>
<asrwt>0</asrwt>
<pdfrwt beam="1">  1        1 0.36567908E-02 0.13971973E+03</pdfrwt>
<pdfrwt beam="2">  1       -1 0.15172739E+00 0.13971973E+03</pdfrwt>
<totfact> 0.93097884E+02</totfact>
</mgrwt>
</event>
<event>
 7    1  0.4230786E-006  0.1326481E+03  0.7546771E-02  0.1236180E+00
         -1   -1    0    0    0  501 -0.00000000000E+00  0.00000000000E+00  0.29473735625E+03  0.29473735625E+03  0.00000000000E+00 0.  1.
          1   -1    0    0  501    0  0.00000000000E+00 -0.00000000000E+00 -0.49942191445E+02  0.49942191445E+02  0.00000000000E+00 0. -1.
         23    2    1    2    0    0  0.25028431675E+02 -0.36659627391E+02  0.18010843347E+03  0.22368407802E+03  0.12500067312E+03 0.  0.
          5    1    3    3  502    0 -0.10759002186E+02  0.41528148189E+02  0.37912718756E+02  0.57443950626E+02  0.47000000000E+01 0.  1.
         -5    1    3    3    0  502  0.35787433861E+02 -0.78187775580E+02  0.14219571471E+03  0.16624012739E+03  0.47000000000E+01 0.  1.
        -11    1    1    2    0    0  0.13422762062E+02  0.44992721647E+02  0.20123377792E+01  0.46995372601E+02  0.00000000000E+00 0. -1.
         11    1    1    2    0    0 -0.38451193737E+02 -0.83330942555E+01  0.62674393557E+02  0.74000097077E+02  0.00000000000E+00 0.  1.
<mgrwt>
<rscale>  0 0.12429225E+03</rscale>
<asrwt>0</asrwt>
<pdfrwt beam="2">  1        1 0.76834142E-02 0.13264810E+03</pdfrwt>
<pdfrwt beam="1">  1       -1 0.45344208E-01 0.13264810E+03</pdfrwt>
<totfact> 0.43202020E+03</totfact>
</mgrwt>
</event>
<event>
 7    1  0.4230786E-006  0.1252025E+03  0.7546771E-02  0.1250074E+00
          2   -1    0    0  501    0  0.00000000000E+00  0.00000000000E+00  0.14577228243E+02  0.14577228243E+02  0.00000000000E+00 0. -1.
         -2   -1    0    0    0  501 -0.00000000000E+00 -0.00000000000E+00 -0.93613711371E+03  0.93613711371E+03  0.00000000000E+00 0.  1.
         23    2    1    2    0    0  0.68947849993E+01  0.19491750982E+01 -0.69607480223E+03  0.70724521349E+03  0.12499729741E+03 0.  0.
          5    1    3    3  502    0  0.31520185558E+02  0.28851230573E+02 -0.63128738456E+03  0.63274937179E+03  0.47000000000E+01 0. -1.
         -5    1    3    3    0  502 -0.24625400559E+02 -0.26902055475E+02 -0.64787417677E+02  0.74495841701E+02  0.47000000000E+01 0. -1.
        -11    1    1    2    0    0  0.32265980130E+02  0.27725119573E+02 -0.97501515460E+02  0.10637819911E+03  0.00000000000E+00 0.  1.
         11    1    1    2    0    0 -0.39160765129E+02 -0.29674294671E+02 -0.12798356777E+03  0.13709092935E+03  0.00000000000E+00 0. -1.
<mgrwt>
<rscale>  0 0.11586758E+03</rscale>
<asrwt>0</asrwt>
<pdfrwt beam="1">  1        2 0.22426501E-02 0.12520248E+03</pdfrwt>
<pdfrwt beam="2">  1       -2 0.14402112E+00 0.12520248E+03</pdfrwt>
<totfact> 0.15723541E+03</totfact>
</mgrwt>
</event>
<event>
 7    1  0.4230786E-006  0.1405765E+03  0.7546771E-02  0.1222950E+00
         -2   -1    0    0    0  501 -0.00000000000E+00  0.00000000000E+00  0.64512693899E+02  0.64512693899E+02  0.00000000000E+00 0.  1.
          2   -1    0    0  501    0  0.00000000000E+00 -0.00000000000E+00 -0.44096227155E+03  0.44096227155E+03  0.00000000000E+00 0. -1.
         23    2    1    2    0    0 -0.54161941163E+02 -0.34706079651E+02 -0.33638262603E+02  0.14454510207E+03  0.12499490384E+03 0.  0.
          5    1    3    3  502    0 -0.49572883401E+02  0.36242870113E+02 -0.39315016195E+02  0.73066934390E+02  0.47000000000E+01 0. -1.
         -5    1    3    3    0  502 -0.45890577616E+01 -0.70948949764E+02  0.56767535925E+01  0.71478167681E+02  0.47000000000E+01 0. -1.
        -11    1    1    2    0    0  0.27233850709E+02 -0.24189659776E+02 -0.55322948236E+02  0.66237835609E+02  0.00000000000E+00 0.  1.
         11    1    1    2    0    0  0.26928090453E+02  0.58895739428E+02 -0.28748836681E+03  0.29469202777E+03  0.00000000000E+00 0. -1.
<mgrwt>
<rscale>  0 0.13308423E+03</rscale>
<asrwt>0</asrwt>
<pdfrwt beam="2">  1        2 0.67840350E-01 0.14057651E+03</pdfrwt>
<pdfrwt beam="1">  1       -2 0.99250297E-02 0.14057651E+03</pdfrwt>
<totfact> 0.46490711E+03</totfact>
</mgrwt>
</event>
<event>
 7    1  0.4230786E-006  0.2163329E+03  0.7546771E-02  0.1140279E+00
          1   -1    0    0  501    0  0.00000000000E+00  0.00000000000E+00  0.64861796803E+02  0.64861796803E+02  0.00000000000E+00 0. -1.
         -1   -1    0    0    0  501 -0.00000000000E+00 -0.00000000000E+00 -0.66524324097E+03  0.66524324097E+03  0.00000000000E+00 0.  1.
         23    2    1    2    0    0 -0.16638226990E+03  0.59062991168E+02 -0.28835736330E+03  0.36048562727E+03  0.12501368660E+03 0.  0.
          5    1    3    3  502    0 -0.15992573510E+03  0.12380641389E+02 -0.17395980541E+03  0.23667197749E+03  0.47000000000E+01 0.  1.
         -5    1    3    3    0  502 -0.64565347981E+01  0.46682349779E+02 -0.11439755789E+03  0.12381364979E+03  0.47000000000E+01 0.  1.
        -11    1    1    2    0    0  0.10148279040E+03  0.97712803508E+01 -0.18504903618E+03  0.21127560308E+03  0.00000000000E+00 0. -1.
         11    1    1    2    0    0  0.64899479504E+02 -0.68834271518E+02 -0.12697504469E+03  0.15834380742E+03  0.00000000000E+00 0.  1.
<mgrwt>
<rscale>  0 0.21163378E+03</rscale>
<asrwt>0</asrwt>
<pdfrwt beam="1">  1        1 0.99787377E-02 0.21633289E+03</pdfrwt>
<pdfrwt beam="2">  1       -1 0.10234512E+00 0.21633289E+03</pdfrwt>
<totfact> 0.61503258E+02</totfact>
</mgrwt>
</event>
<event>
 7    1  0.4230786E-006  0.1377593E+03  0.7546771E-02  0.1227817E+00
          2   -1    0    0  501    0  0.00000000000E+00  0.00000000000E+00  0.52201144051E+03  0.52201144051E+03  0.00000000000E+00 0. -1.
         -2   -1    0    0    0  501 -0.00000000000E+00 -0.00000000000E+00 -0.32467592160E+02  0.32467592160E+02  0.00000000000E+00 0.  1.
         23    2    1    2    0    0  0.57722409867E+02 -0.45295173258E+01  0.18116658228E+03  0.22759380989E+03  0.12500087455E+03 0.  0.
          5    1    3    3  502    0  0.11004489943E+02  0.15916360150E+02 -0.14950444540E+02  0.24900504237E+02  0.47000000000E+01 0. -1.
         -5    1    3    3    0  502  0.46717919923E+02 -0.20445877476E+02  0.19611702682E+03  0.20269330566E+03  0.47000000000E+01 0. -1.
        -11    1    1    2    0    0 -0.79037064441E+02 -0.11428129376E+00  0.28086496978E+03  0.29177388826E+03  0.00000000000E+00 0. -1.
         11    1    1    2    0    0  0.21314654574E+02  0.46437986196E+01  0.27512296283E+02  0.35111334523E+02  0.00000000000E+00 0.  1.
<mgrwt>
<rscale>  0 0.12975663E+03</rscale>
<asrwt>0</asrwt>
<pdfrwt beam="1">  1        2 0.80309446E-01 0.13775925E+03</pdfrwt>
<pdfrwt beam="2">  1       -2 0.49950146E-02 0.13775925E+03</pdfrwt>
<totfact> 0.11068267E+04</totfact>
</mgrwt>
</event>
<event>
 7    1  0.4230786E-006  0.1293447E+03  0.7546771E-02  0.1242378E+00
         -1   -1    0    0    0  501 -0.00000000000E+00  0.00000000000E+00  0.16203948704E+03  0.16203948704E+03  0.00000000000E+00 0.  1.
          1   -1    0    0  501    0  0.00000000000E+00 -0.00000000000E+00 -0.84889294431E+02  0.84889294431E+02  0.00000000000E+00 0. -1.
         23    2    1    2    0    0  0.33154830908E+02 -0.26020134468E+01  0.75333802983E+02  0.14968379028E+03  0.12499616760E+03 0.  0.
          5    1    3    3  502    0  0.37090383865E+02 -0.58742101621E+02  0.24841444950E+02  0.73929144897E+02  0.47000000000E+01 0.  1.
         -5    1    3    3    0  502 -0.39355529572E+01  0.56140088174E+02  0.50492358033E+02  0.75754645382E+02  0.47000000000E+01 0.  1.
        -11    1    1    2    0    0 -0.47002181716E+02  0.35850199820E+02 -0.86386362870E+01  0.59741676827E+02  0.00000000000E+00 0. -1.
         11    1    1    2    0    0  0.13847350808E+02 -0.33248186374E+02  0.10455025915E+02  0.37503314366E+02  0.00000000000E+00 0.  1.
<mgrwt>
<rscale>  0 0.12043685E+03</rscale>
<asrwt>0</asrwt>
<pdfrwt beam="2">  1        1 0.13059891E-01 0.12934471E+03</pdfrwt>
<pdfrwt beam="1">  1       -1 0.24929152E-01 0.12934471E+03</pdfrwt>
<totfact> 0.59368396E+03</totfact>
</mgrwt>
</event>
<event>
 7    1  0.4230786E-006  0.1501651E+03  0.7546771E-02  0.1207543E+00
         -2   -1    0    0    0  501 -0.00000000000E+00  0.00000000000E+00  0.22312779515E+02  0.22312779515E+02  0.00000000000E+00 0.  1.
          2   -1    0    0  501    0  0.00000000000E+00 -0.00000000000E+00 -0.91428048466E+03  0.91428048466E+03  0.00000000000E+00 0. -1.
         23    2    1    2    0    0 -0.77985382687E+02  0.29022808881E+02 -0.37547546788E+03  0.40439015546E+03  0.12500211002E+03 0.  0.
          5    1    3    3  502    0 -0.13866308144E+01  0.28745480133E+01 -0.27600804545E+03  0.27606650815E+03  0.47000000000E+01 0.  1.
         -5    1    3    3    0  502 -0.76598751872E+02  0.26148260867E+02 -0.99467422430E+02  0.12832364731E+03  0.47000000000E+01 0.  1.
        -11    1    1    2    0    0  0.81251375971E+02 -0.56308184668E+02 -0.36047254609E+03  0.37378182707E+03  0.00000000000E+00 0. -1.
         11    1    1    2    0    0 -0.32659932844E+01  0.27285375787E+02 -0.15601969118E+03  0.15842128165E+03  0.00000000000E+00 0.  1.
<mgrwt>
<rscale>  0 0.14438865E+03</rscale>
<asrwt>0</asrwt>
<pdfrwt beam="2">  1        2 0.14065854E+00 0.15016515E+03</pdfrwt>
<pdfrwt beam="1">  1       -2 0.34327352E-02 0.15016515E+03</pdfrwt>
<totfact> 0.99652485E+03</totfact>
</mgrwt>
</event>
<event>
 7    1  0.4230786E-006  0.1291966E+03  0.7546771E-02  0.1243129E+00
         -1   -1    0    0    0  501 -0.00000000000E+00  0.00000000000E+00  0.75658052639E+02  0.75658052639E+02  0.00000000000E+00 0.  1.
          1   -1    0    0  501    0  0.00000000000E+00 -0.00000000000E+00 -0.25297149309E+03  0.25297149309E+03  0.00000000000E+00 0. -1.
         23    2    1    2    0    0  0.32436651118E+02  0.38135258145E+01 -0.25871796765E+01  0.12922254858E+03  0.12500037699E+03 0.  0.
          5    1    3    3  502    0  0.58537619406E+02 -0.38331961279E+02 -0.25218431479E+02  0.74525508569E+02  0.47000000000E+01 0. -1.
         -5    1    3    3    0  502 -0.26100968288E+02  0.42145487094E+02  0.22631251803E+02  0.54697040012E+02  0.47000000000E+01 0. -1.
        -11    1    1    2    0    0 -0.16431140253E+02 -0.33835196513E+02 -0.15620634177E+03  0.16067116761E+03  0.00000000000E+00 0. -1.
         11    1    1    2    0    0 -0.16005510865E+02  0.30021670699E+02 -0.18519919000E+02  0.38735829530E+02  0.00000000000E+00 0.  1.
<mgrwt>
<rscale>  0 0.11998073E+03</rscale>
<asrwt>0</asrwt>
<pdfrwt beam="2">  1        1 0.38918691E-01 0.12919665E+03</pdfrwt>
<pdfrwt beam="1">  1       -1 0.11639700E-01 0.12919665E+03</pdfrwt>
<totfact> 0.49929092E+03</totfact>
</mgrwt>
</event>
<event>
 7    1  0.4230786E-006  0.1507628E+03  0.7546771E-02  0.1207880E+00
          1   -1    0    0  501    0  0.00000000000E+00  0.00000000000E+00  0.25314716893E+03  0.25314716893E+03  0.00000000000E+00 0. -1.
         -1   -1    0    0    0  501 -0.00000000000E+00 -0.00000000000E+00 -0.13412190594E+03  0.13412190594E+03  0.00000000000E+00 0.  1.
         23    2    1    2    0    0 -0.67939379926E+02 -0.49885906355E+02 -0.65086559737E+02  0.16421226512E+03  0.12500017904E+03 0.  0.
          5    1    3    3  502    0 -0.36022571754E+02  0.36119628415E+02  0.69026738779E+00  0.51232994268E+02  0.47000000000E+01 0. -1.
         -5    1    3    3    0  502 -0.31916808172E+02 -0.86005534770E+02 -0.65776827125E+02  0.11297927085E+03  0.47000000000E+01 0. -1.
        -11    1    1    2    0    0  0.52325231724E+02  0.43264228663E+02  0.19250953202E+03  0.20413143628E+03  0.00000000000E+00 0. -1.
         11    1    1    2    0    0  0.15614148202E+02  0.66216776919E+01 -0.83977092954E+01  0.18925373469E+02  0.00000000000E+00 0.  1.
<mgrwt>
<rscale>  0 0.14412814E+03</rscale>
<asrwt>0</asrwt>
<pdfrwt beam="1">  1        1 0.38945718E-01 0.15076275E+03</pdfrwt>
<pdfrwt beam="2">  1       -1 0.20634139E-01 0.15076275E+03</pdfrwt>
<totfact> 0.20411751E+03</totfact>
</mgrwt>
</event>
<event>
 6    1  0.4230786E-006  0.1525776E+03  0.7546771E-02  0.1208517E+00
          2   -1    0    0  501    0  0.00000000000E+00  0.00000000000E+00  0.89832385484E+03  0.89832385484E+03  0.00000000000E+00 0. -1.
         -2   -1    0    0    0  501 -0.00000000000E+00 -0.00000000000E+00 -0.21489900112E+02  0.21489900112E+02  0.00000000000E+00 0.  1.
          5    1    1    2  502    0  0.62255899574E+01  0.50656855046E+02  0.40315352805E+03  0.40639848931E+03  0.47000000000E+01 0. -1.
         -5    1    1    2    0  502  0.18024620812E+02  0.79375159703E+01 -0.42500363291E+01  0.20689222411E+02  0.47000000000E+01 0.  1.
        -11    1    1    2    0    0 -0.16756564205E+02  0.27449074093E+02  0.99645971856E+02  0.10470699031E+03  0.00000000000E+00 0.  1.
         11    1    1    2    0    0 -0.74936465636E+01 -0.86043445109E+02  0.37828449115E+03  0.38801905292E+03  0.00000000000E+00 0. -1.
<mgrwt>
<rscale>  0 0.14363747E+03</rscale>
<asrwt>0</asrwt>
<pdfrwt beam="1">  1        2 0.13820364E+00 0.15257758E+03</pdfrwt>
<pdfrwt beam="2">  1       -2 0.33061392E-02 0.15257758E+03</pdfrwt>
<totfact> 0.10791968E+04</totfact>
</mgrwt>
</event>
<event>
 7    1  0.4230786E-006  0.1647571E+03  0.7546771E-02  0.1190753E+00
         -3   -1    0    0    0  501 -0.00000000000E+00  0.00000000000E+00  0.14900578650E+03  0.14900578650E+03  0.00000000000E+00 0.  1.
          3   -1    0    0  501    0  0.00000000000E+00 -0.00000000000E+00 -0.18810909881E+03  0.18810909881E+03  0.00000000000E+00 0. -1.
         23    2    1    2    0    0 -0.91929914974E+02 -0.55386155264E+02  0.48740576951E+02  0.17181542085E+03  0.12500463806E+03 0.  0.
          5    1    3    3  502    0 -0.48964253947E+02  0.33738089823E+02  0.41166682757E+02  0.72474427482E+02  0.47000000000E+01 0.  1.
         -5    1    3    3    0  502 -0.42965661026E+02 -0.89124245087E+02  0.75738941938E+01  0.99340993367E+02  0.47000000000E+01 0.  1.
        -11    1    1    2    0    0  0.16871998870E+02  0.50612878544E+02 -0.52736920194E+01  0.53611003048E+02  0.00000000000E+00 0.  1.
         11    1    1    2    0    0  0.75057916104E+02  0.47732767201E+01 -0.82570197238E+02  0.11168846141E+03  0.00000000000E+00 0. -1.
<mgrwt>
<rscale>  0 0.15819234E+03</rscale>
<asrwt>0</asrwt>
<pdfrwt beam="2">  1        3 0.28939861E-01 0.16475708E+03</pdfrwt>
<pdfrwt beam="1">  1       -3 0.22923967E-01 0.16475708E+03</pdfrwt>
<totfact> 0.48085695E+02</totfact>
</mgrwt>
</event>
<event>
 7    1  0.4230786E-006  0.2615724E+03  0.7546771E-02  0.1108409E+00
          2   -1    0    0  501    0  0.00000000000E+00  0.00000000000E+00  0.96604110666E+03  0.96604110666E+03  0.00000000000E+00 0. -1.
         -2   -1    0    0    0  501 -0.00000000000E+00 -0.00000000000E+00 -0.12041741030E+03  0.12041741030E+03  0.00000000000E+00 0.  1.
         23    2    1    2    0    0  0.13436715252E+03  0.18638808026E+03  0.67685132918E+02  0.27018774833E+03  0.12500037595E+03 0.  0.
          5    1    3    3  502    0  0.14606142226E+03  0.12151980850E+03  0.25437161562E+02  0.19175542266E+03  0.47000000000E+01 0.  1.
         -5    1    3    3    0  502 -0.11694269737E+02  0.64868271766E+02  0.42247971356E+02  0.78432325672E+02  0.47000000000E+01 0.  1.
        -11    1    1    2    0    0 -0.80585938282E+02 -0.17426519038E+03  0.61273433980E+03  0.64211044315E+03  0.00000000000E+00 0.  1.
         11    1    1    2    0    0 -0.53781214241E+02 -0.12122889885E+02  0.16520422364E+03  0.17416032548E+03  0.00000000000E+00 0. -1.
<mgrwt>
<rscale>  0 0.25790374E+03</rscale>
<asrwt>0</asrwt>
<pdfrwt beam="1">  1        2 0.14862170E+00 0.26157244E+03</pdfrwt>
<pdfrwt beam="2">  1       -2 0.18525756E-01 0.26157244E+03</pdfrwt>
<totfact> 0.66379361E+02</totfact>
</mgrwt>
</event>
<event>
 7    1  0.4230786E-006  0.1499844E+03  0.7546771E-02  0.1211095E+00
         -1   -1    0    0    0  501 -0.00000000000E+00  0.00000000000E+00  0.62449167514E+02  0.62449167514E+02  0.00000000000E+00 0.  1.
          1   -1    0    0  501    0  0.00000000000E+00 -0.00000000000E+00 -0.30160544692E+03  0.30160544692E+03  0.00000000000E+00 0. -1.
         23    2    1    2    0    0 -0.81364178617E+02 -0.15889757388E+02 -0.97965502068E+02  0.17914392894E+03  0.12499077457E+03 0.  0.
          5    1    3    3  502    0 -0.25460176313E+02  0.53661836341E+02 -0.28977262490E+02  0.66253943270E+02  0.47000000000E+01 0.  1.
         -5    1    3    3    0  502 -0.55904002303E+02 -0.69551593728E+02 -0.68988239577E+02  0.11288998567E+03  0.47000000000E+01 0.  1.
        -11    1    1    2    0    0  0.64360951497E+02  0.32978864736E+01 -0.14901395746E+03  0.16235260285E+03  0.00000000000E+00 0. -1.
         11    1    1    2    0    0  0.17003227119E+02  0.12591870914E+02  0.78231801248E+01  0.22558082650E+02  0.00000000000E+00 0.  1.
<mgrwt>
<rscale>  0 0.14167345E+03</rscale>
<asrwt>0</asrwt>
<pdfrwt beam="2">  1        1 0.46400839E-01 0.14998436E+03</pdfrwt>
<pdfrwt beam="1">  1       -1 0.96075641E-02 0.14998436E+03</pdfrwt>
<totfact> 0.54366534E+03</totfact>
</mgrwt>
</event>
<event>
 7    1  0.4230786E-006  0.2557770E+03  0.7546771E-02  0.1112047E+00
          2   -1    0    0  501    0  0.00000000000E+00  0.00000000000E+00  0.77196495937E+03  0.77196495937E+03  0.00000000000E+00 0. -1.
         -2   -1    0    0    0  501 -0.00000000000E+00 -0.00000000000E+00 -0.10189615471E+03  0.10189615471E+03  0.00000000000E+00 0.  1.
         23    2    1    2    0    0  0.87479006597E+01  0.22298894310E+03  0.14002140645E+03  0.29159535543E+03  0.12498504925E+03 0.  0.
          5    1    3    3  502    0 -0.51594274760E+02  0.13294731918E+03  0.10647705456E+03  0.17803486179E+03  0.47000000000E+01 0. -1.
         -5    1    3    3    0  502  0.60342175420E+02  0.90041623915E+02  0.33544351890E+02  0.11356049364E+03  0.47000000000E+01 0. -1.
        -11    1    1    2    0    0  0.23470532420E+02 -0.35588069916E+02  0.48710469725E+02  0.64730877278E+02  0.00000000000E+00 0.  1.
         11    1    1    2    0    0 -0.32218433080E+02 -0.18740087318E+03  0.48133692849E+03  0.51753488136E+03  0.00000000000E+00 0. -1.
<mgrwt>
<rscale>  0 0.25200106E+03</rscale>
<asrwt>0</asrwt>
<pdfrwt beam="1">  1        2 0.11876384E+00 0.25577697E+03</pdfrwt>
<pdfrwt beam="2">  1       -2 0.15676332E-01 0.25577697E+03</pdfrwt>
<totfact> 0.11819832E+03</totfact>
</mgrwt>
</event>
<event>
 7    1  0.4230786E-006  0.1454754E+03  0.7546771E-02  0.1216106E+00
          2   -1    0    0  501    0  0.00000000000E+00  0.00000000000E+00  0.62989879022E+03  0.62989879022E+03  0.00000000000E+00 0. -1.
         -2   -1    0    0    0  501 -0.00000000000E+00 -0.00000000000E+00 -0.41286633851E+02  0.41286633851E+02  0.00000000000E+00 0.  1.
         23    2    1    2    0    0  0.74411913326E+02 -0.93175271125E+00  0.12166654946E+03  0.18964664910E+03  0.12500040499E+03 0.  0.
          5    1    3    3  502    0  0.23442268302E+02  0.60684929619E+02  0.58853670967E+02  0.87852405842E+02  0.47000000000E+01 0.  1.
         -5    1    3    3    0  502  0.50969645024E+02 -0.61616682330E+02  0.62812878495E+02  0.10179424326E+03  0.47000000000E+01 0.  1.
        -11    1    1    2    0    0  0.76709749029E+01 -0.28618464965E+02  0.14404779219E+03  0.14706334291E+03  0.00000000000E+00 0.  1.
         11    1    1    2    0    0 -0.82082888229E+02  0.29550217676E+02  0.32289781472E+03  0.33447543207E+03  0.00000000000E+00 0. -1.
<mgrwt>
<rscale>  0 0.13795572E+03</rscale>
<asrwt>0</asrwt>
<pdfrwt beam="1">  1        2 0.96907499E-01 0.14547544E+03</pdfrwt>
<pdfrwt beam="2">  1       -2 0.63517903E-02 0.14547544E+03</pdfrwt>
<totfact> 0.62453121E+03</totfact>
</mgrwt>
</event>
<event>
 7    1  0.4230786E-006  0.1446419E+03  0.7546771E-02  0.1217395E+00
          2   -1    0    0  501    0  0.00000000000E+00  0.00000000000E+00  0.33565734210E+03  0.33565734210E+03  0.00000000000E+00 0. -1.
         -2   -1    0    0    0  501 -0.00000000000E+00 -0.00000000000E+00 -0.51661895608E+02  0.51661895608E+02  0.00000000000E+00 0.  1.
         23    2    1    2    0    0 -0.72073959989E+02  0.10235051311E+02  0.18212401348E+03  0.23257348114E+03  0.12498742282E+03 0.  0.
          5    1    3    3  502    0  0.94693701430E+01  0.36548377171E+02  0.86236352632E+01  0.39011664024E+02  0.47000000000E+01 0.  1.
         -5    1    3    3    0  502 -0.81543330132E+02 -0.26313325860E+02  0.17350037821E+03  0.19356181712E+03  0.47000000000E+01 0.  1.
        -11    1    1    2    0    0  0.58451194399E+02  0.24883003304E+02  0.98122458885E+02  0.11689192837E+03  0.00000000000E+00 0. -1.
         11    1    1    2    0    0  0.13622765590E+02 -0.35118054616E+02  0.37489741353E+01  0.37853828200E+02  0.00000000000E+00 0.  1.
<mgrwt>
<rscale>  0 0.13702090E+03</rscale>
<asrwt>0</asrwt>
<pdfrwt beam="1">  1        2 0.51639590E-01 0.14464186E+03</pdfrwt>
<pdfrwt beam="2">  1       -2 0.79479841E-02 0.14464186E+03</pdfrwt>
<totfact> 0.88141363E+03</totfact>
</mgrwt>
</event>
<event>
 7    1  0.4230786E-006  0.1622658E+03  0.7546771E-02  0.1193641E+00
         -2   -1    0    0    0  501 -0.00000000000E+00  0.00000000000E+00  0.86183097283E+02  0.86183097283E+02  0.00000000000E+00 0.  1.
          2   -1    0    0  501    0  0.00000000000E+00 -0.00000000000E+00 -0.31970113967E+03  0.31970113967E+03  0.00000000000E+00 0. -1.
         23    2    1    2    0    0 -0.10232735018E+03  0.14499522325E+02 -0.37704600973E+02  0.16658875550E+03  0.12509617812E+03 0.  0.
          5    1    3    3  502    0 -0.90983184856E+02  0.22050974615E+02  0.29177097674E+02  0.98171169070E+02  0.47000000000E+01 0.  1.
         -5    1    3    3    0  502 -0.11344165323E+02 -0.75514522906E+01 -0.66881698647E+02  0.68417586427E+02  0.47000000000E+01 0.  1.
        -11    1    1    2    0    0 -0.16725257417E+02  0.57206674914E-02 -0.33899608432E+02  0.37801028031E+02  0.00000000000E+00 0. -1.
         11    1    1    2    0    0  0.11905260760E+03 -0.14505242992E+02 -0.16191383298E+03  0.20149445342E+03  0.00000000000E+00 0.  1.
<mgrwt>
<rscale>  0 0.15569822E+03</rscale>
<asrwt>0</asrwt>
<pdfrwt beam="2">  1        2 0.49184791E-01 0.16226576E+03</pdfrwt>
<pdfrwt beam="1">  1       -2 0.13258938E-01 0.16226576E+03</pdfrwt>
<totfact> 0.41631203E+03</totfact>
</mgrwt>
</event>
<event>
 7    1  0.4230786E-006  0.2670235E+03  0.7546771E-02  0.1104985E+00
          1   -1    0    0  501    0  0.00000000000E+00  0.00000000000E+00  0.40750377529E+03  0.40750377529E+03  0.00000000000E+00 0. -1.
         -1   -1    0    0    0  501 -0.00000000000E+00 -0.00000000000E+00 -0.34436180378E+03  0.34436180378E+03  0.00000000000E+00 0.  1.
         23    2    1    2    0    0  0.39173808308E+02 -0.23268108567E+03 -0.23828998524E+03  0.35788780022E+03  0.12500594224E+03 0.  0.
          5    1    3    3  502    0  0.71583768311E+01  0.14981321954E+02 -0.15342950980E+02  0.23090658525E+02  0.47000000000E+01 0. -1.
         -5    1    3    3    0  502  0.32015431476E+02 -0.24766240762E+03 -0.22294703426E+03  0.33479714170E+03  0.47000000000E+01 0. -1.
        -11    1    1    2    0    0  0.78768405002E+01  0.15258204755E+03  0.13746244996E+03  0.20552189908E+03  0.00000000000E+00 0. -1.
         11    1    1    2    0    0 -0.47050648808E+02  0.80099038116E+02  0.16396950679E+03  0.18845587976E+03  0.00000000000E+00 0.  1.
<mgrwt>
<rscale>  0 0.26362515E+03</rscale>
<asrwt>0</asrwt>
<pdfrwt beam="1">  1        1 0.62692889E-01 0.26702352E+03</pdfrwt>
<pdfrwt beam="2">  1       -1 0.52978739E-01 0.26702352E+03</pdfrwt>
<totfact> 0.22007119E+02</totfact>
</mgrwt>
</event>
<event>
 7    1  0.4230786E-006  0.1628245E+03  0.7546771E-02  0.1192889E+00
          1   -1    0    0  501    0  0.00000000000E+00  0.00000000000E+00  0.45502582876E+03  0.45502582876E+03  0.00000000000E+00 0. -1.
         -1   -1    0    0    0  501 -0.00000000000E+00 -0.00000000000E+00 -0.50105461465E+02  0.50105461465E+02  0.00000000000E+00 0.  1.
         23    2    1    2    0    0  0.48576768302E+02 -0.92339397647E+02  0.20094440779E+03  0.25863191674E+03  0.12500218621E+03 0.  0.
          5    1    3    3  502    0  0.71489532919E+02 -0.99199814819E+02  0.19972076930E+03  0.23422602816E+03  0.47000000000E+01 0.  1.
         -5    1    3    3    0  502 -0.22912764617E+02  0.68604171711E+01  0.12236384855E+01  0.24405888578E+02  0.47000000000E+01 0.  1.
        -11    1    1    2    0    0 -0.56184320080E+02  0.47670842673E+02  0.58356125936E+02  0.93992683216E+02  0.00000000000E+00 0.  1.
         11    1    1    2    0    0  0.76075517778E+01  0.44668554975E+02  0.14561983357E+03  0.15250669027E+03  0.00000000000E+00 0. -1.
<mgrwt>
<rscale>  0 0.15634255E+03</rscale>
<asrwt>0</asrwt>
<pdfrwt beam="1">  1        1 0.70003971E-01 0.16282449E+03</pdfrwt>
<pdfrwt beam="2">  1       -1 0.77085328E-02 0.16282449E+03</pdfrwt>
<totfact> 0.45432877E+03</totfact>
</mgrwt>
</event>
<event>
 7    1  0.4230786E-006  0.1765307E+03  0.7546771E-02  0.1177741E+00
          1   -1    0    0  501    0  0.00000000000E+00  0.00000000000E+00  0.21302050145E+03  0.21302050145E+03  0.00000000000E+00 0. -1.
         -1   -1    0    0    0  501 -0.00000000000E+00 -0.00000000000E+00 -0.12885295762E+03  0.12885295762E+03  0.00000000000E+00 0.  1.
         23    2    1    2    0    0  0.26860070830E+02 -0.12171457284E+03  0.66596954273E+02  0.18867498302E+03  0.12500877670E+03 0.  0.
          5    1    3    3  502    0 -0.25019490278E+02 -0.77010961368E+02  0.85119565454E+02  0.11757590522E+03  0.47000000000E+01 0.  1.
         -5    1    3    3    0  502  0.51879561108E+02 -0.44703611470E+02 -0.18522611181E+02  0.71099077802E+02  0.47000000000E+01 0.  1.
        -11    1    1    2    0    0 -0.11736336706E+02  0.98520579102E+02  0.49546289159E+02  0.11090031955E+03  0.00000000000E+00 0. -1.
         11    1    1    2    0    0 -0.15123734125E+02  0.23193993736E+02 -0.31975699595E+02  0.42298156507E+02  0.00000000000E+00 0.  1.
<mgrwt>
<rscale>  0 0.17010222E+03</rscale>
<asrwt>0</asrwt>
<pdfrwt beam="1">  1        1 0.32772385E-01 0.17653072E+03</pdfrwt>
<pdfrwt beam="2">  1       -1 0.19823532E-01 0.17653072E+03</pdfrwt>
<totfact> 0.27151908E+03</totfact>
</mgrwt>
</event>
<event>
 7    1  0.4230786E-006  0.1444037E+03  0.7546771E-02  0.1217457E+00
         -1   -1    0    0    0  501 -0.00000000000E+00  0.00000000000E+00  0.13066162616E+03  0.13066162616E+03  0.00000000000E+00 0.  1.
          1   -1    0    0  501    0  0.00000000000E+00 -0.00000000000E+00 -0.14103180681E+03  0.14103180681E+03  0.00000000000E+00 0. -1.
         23    2    1    2    0    0  0.19787623122E+02 -0.69547063530E+02  0.30976468984E+02  0.14768872328E+03  0.12499629306E+03 0.  0.
          5    1    3    3  502    0  0.52374549894E+02 -0.80459306762E+02 -0.68551212633E+01  0.96363251340E+02  0.47000000000E+01 0.  1.
         -5    1    3    3    0  502 -0.32586926773E+02  0.10912243232E+02  0.37831590247E+02  0.51325471936E+02  0.47000000000E+01 0.  1.
        -11    1    1    2    0    0 -0.34790496854E+02 -0.96708072542E+01 -0.96954238149E+01  0.37388560112E+02  0.00000000000E+00 0.  1.
         11    1    1    2    0    0  0.15002873733E+02  0.79217870784E+02 -0.31651225825E+02  0.86616149580E+02  0.00000000000E+00 0. -1.
<mgrwt>
<rscale>  0 0.13697625E+03</rscale>
<asrwt>0</asrwt>
<pdfrwt beam="2">  1        1 0.21697201E-01 0.14440366E+03</pdfrwt>
<pdfrwt beam="1">  1       -1 0.20101789E-01 0.14440366E+03</pdfrwt>
<totfact> 0.44159340E+03</totfact>
</mgrwt>
</event>
<event>
 7    1  0.4230786E-006  0.2931862E+03  0.7546771E-02  0.1090015E+00
          2   -1    0    0  501    0  0.00000000000E+00  0.00000000000E+00  0.66613534580E+03  0.66613534580E+03  0.00000000000E+00 0.  1.
         -2   -1    0    0    0  501 -0.00000000000E+00 -0.00000000000E+00 -0.19023353263E+03  0.19023353263E+03  0.00000000000E+00 0. -1.
         23    2    1    2    0    0 -0.21702860935E+03  0.15242706662E+03 -0.10707928825E+02  0.29338164693E+03  0.12499081208E+03 0.  0.
          5    1    3    3  502    0 -0.69902862757E+02 -0.12047871634E+02  0.95503590921E+01  0.71727684971E+02  0.47000000000E+01 0.  1.
         -5    1    3    3    0  502 -0.14712574659E+03  0.16447493826E+03 -0.20258287917E+02  0.22165396196E+03  0.47000000000E+01 0.  1.
        -11    1    1    2    0    0  0.16839716988E+03 -0.67198410318E+02  0.35719961223E+03  0.40058057386E+03  0.00000000000E+00 0.  1.
         11    1    1    2    0    0  0.48631439469E+02 -0.85228656304E+02  0.12941012976E+03  0.16240665764E+03  0.00000000000E+00 0. -1.
<mgrwt>
<rscale>  0 0.29064048E+03</rscale>
<asrwt>0</asrwt>
<pdfrwt beam="1">  1        2 0.10248236E+00 0.29318617E+03</pdfrwt>
<pdfrwt beam="2">  1       -2 0.29266698E-01 0.29318617E+03</pdfrwt>
<totfact> 0.47887868E+02</totfact>
</mgrwt>
</event>
<event>
 7    1  0.4230786E-006  0.1785069E+03  0.7546771E-02  0.1175326E+00
         -1   -1    0    0    0  501 -0.00000000000E+00  0.00000000000E+00  0.29136893232E+03  0.29136893232E+03  0.00000000000E+00 0.  1.
          1   -1    0    0  501    0  0.00000000000E+00 -0.00000000000E+00 -0.10094688260E+03  0.10094688260E+03  0.00000000000E+00 0. -1.
         23    2    1    2    0    0  0.10328356103E+03  0.74643691417E+02  0.56794790440E+02  0.18732425431E+03  0.12500221352E+03 0.  0.
          5    1    3    3  502    0 -0.16928299345E+02  0.25194155662E+02 -0.19641053745E+02  0.36457835789E+02  0.47000000000E+01 0.  1.
         -5    1    3    3    0  502  0.12021186038E+03  0.49449535756E+02  0.76435844185E+02  0.15086641852E+03  0.47000000000E+01 0.  1.
        -11    1    1    2    0    0 -0.86056703449E+02 -0.82861207430E+01  0.82139111515E+02  0.11925288108E+03  0.00000000000E+00 0.  1.
         11    1    1    2    0    0 -0.17226857583E+02 -0.66357570674E+02  0.51488147766E+02  0.85738679535E+02  0.00000000000E+00 0. -1.
<mgrwt>
<rscale>  0 0.17244093E+03</rscale>
<asrwt>0</asrwt>
<pdfrwt beam="2">  1        1 0.15530290E-01 0.17850694E+03</pdfrwt>
<pdfrwt beam="1">  1       -1 0.44825989E-01 0.17850694E+03</pdfrwt>
<totfact> 0.17625203E+03</totfact>
</mgrwt>
</event>
<event>
 7    1  0.4230786E-006  0.1445233E+03  0.7546771E-02  0.1217598E+00
         -2   -1    0    0    0  501 -0.00000000000E+00  0.00000000000E+00  0.20727182044E+03  0.20727182044E+03  0.00000000000E+00 0.  1.
          2   -1    0    0  501    0  0.00000000000E+00 -0.00000000000E+00 -0.14914784426E+03  0.14914784426E+03  0.00000000000E+00 0. -1.
         23    2    1    2    0    0 -0.94168134015E+01 -0.71914707055E+02  0.14995101294E+03  0.20826013540E+03  0.12500630484E+03 0.  0.
          5    1    3    3  502    0 -0.29019833681E+02  0.24093701785E+02  0.13778631818E+02  0.40430160862E+02  0.47000000000E+01 0.  1.
         -5    1    3    3    0  502  0.19603020279E+02 -0.96008408840E+02  0.13617238112E+03  0.16782997454E+03  0.47000000000E+01 0.  1.
        -11    1    1    2    0    0 -0.43832680522E+01  0.88319861520E+02 -0.51090773247E+02  0.10212677459E+03  0.00000000000E+00 0.  1.
         11    1    1    2    0    0  0.13800081454E+02 -0.16405154465E+02 -0.40736263513E+02  0.46032754709E+02  0.00000000000E+00 0. -1.
<mgrwt>
<rscale>  0 0.13687420E+03</rscale>
<asrwt>0</asrwt>
<pdfrwt beam="2">  1        2 0.22945822E-01 0.14452328E+03</pdfrwt>
<pdfrwt beam="1">  1       -2 0.31887972E-01 0.14452328E+03</pdfrwt>
<totfact> 0.21098862E+03</totfact>
</mgrwt>
</event>
<event>
 7    1  0.4230786E-006  0.1331131E+03  0.7546771E-02  0.1235512E+00
          2   -1    0    0  501    0  0.00000000000E+00  0.00000000000E+00  0.17289087340E+02  0.17289087340E+02  0.00000000000E+00 0.  1.
         -2   -1    0    0    0  501 -0.00000000000E+00 -0.00000000000E+00 -0.90417165010E+03  0.90417165010E+03  0.00000000000E+00 0. -1.
         23    2    1    2    0    0  0.45875462968E+02  0.14238229182E+01 -0.64726465001E+03  0.66081057670E+03  0.12495001303E+03 0.  0.
          5    1    3    3  502    0  0.86022438409E+02 -0.10254940470E+02 -0.50706329536E+03  0.51443201613E+03  0.47000000000E+01 0.  1.
         -5    1    3    3    0  502 -0.40146975440E+02  0.11678763388E+02 -0.14020135465E+03  0.14637856057E+03  0.47000000000E+01 0.  1.
        -11    1    1    2    0    0 -0.51517844506E+02 -0.38478127413E+02 -0.16650314579E+03  0.17848796079E+03  0.00000000000E+00 0. -1.
         11    1    1    2    0    0  0.56423815378E+01  0.37054304494E+02 -0.73114766966E+02  0.82162199943E+02  0.00000000000E+00 0.  1.
<mgrwt>
<rscale>  0 0.12471727E+03</rscale>
<asrwt>0</asrwt>
<pdfrwt beam="1">  1        2 0.26598594E-02 0.13311308E+03</pdfrwt>
<pdfrwt beam="2">  1       -2 0.13910334E+00 0.13311308E+03</pdfrwt>
<totfact> 0.13675776E+03</totfact>
</mgrwt>
</event>
<event>
 7    1  0.4230786E-006  0.1717389E+03  0.7546771E-02  0.1182632E+00
          1   -1    0    0  501    0  0.00000000000E+00  0.00000000000E+00  0.18582092523E+03  0.18582092523E+03  0.00000000000E+00 0. -1.
         -1   -1    0    0    0  501 -0.00000000000E+00 -0.00000000000E+00 -0.23487210316E+03  0.23487210316E+03  0.00000000000E+00 0.  1.
         23    2    1    2    0    0  0.11335087872E+03 -0.31951159896E+02 -0.16073017939E+03  0.23521995775E+03  0.12499975853E+03 0.  0.
          5    1    3    3  502    0  0.13568250454E+03 -0.35530511471E+02 -0.10617410175E+03  0.17597496744E+03  0.47000000000E+01 0.  1.
         -5    1    3    3    0  502 -0.22331625817E+02  0.35793515750E+01 -0.54556077643E+02  0.59244990313E+02  0.47000000000E+01 0.  1.
        -11    1    1    2    0    0 -0.20520470600E+02 -0.22618067157E+02  0.57089864242E+02  0.64745032819E+02  0.00000000000E+00 0. -1.
         11    1    1    2    0    0 -0.92830408122E+02  0.54569227053E+02  0.54589137214E+02  0.12072803782E+03  0.00000000000E+00 0.  1.
<mgrwt>
<rscale>  0 0.16549180E+03</rscale>
<asrwt>0</asrwt>
<pdfrwt beam="1">  1        1 0.28587835E-01 0.17173887E+03</pdfrwt>
<pdfrwt beam="2">  1       -1 0.36134170E-01 0.17173887E+03</pdfrwt>
<totfact> 0.11818923E+03</totfact>
</mgrwt>
</event>
<event>
 7    1  0.4230786E-006  0.1530535E+03  0.7546771E-02  0.1205072E+00
          1   -1    0    0  501    0  0.00000000000E+00  0.00000000000E+00  0.92702010706E+02  0.92702010706E+02  0.00000000000E+00 0. -1.
         -1   -1    0    0    0  501 -0.00000000000E+00 -0.00000000000E+00 -0.29962672925E+03  0.29962672925E+03  0.00000000000E+00 0.  1.
         23    2    1    2    0    0 -0.79162161912E+02 -0.39144730915E+02 -0.21536614756E+03  0.26421194917E+03  0.12500567479E+03 0.  0.
          5    1    3    3  502    0 -0.81597934001E+02  0.25983997524E+02 -0.10105672471E+03  0.13254411556E+03  0.47000000000E+01 0. -1.
         -5    1    3    3    0  502  0.24357720890E+01 -0.65128728439E+02 -0.11430942285E+03  0.13166783361E+03  0.47000000000E+01 0. -1.
        -11    1    1    2    0    0 -0.11745633229E+02  0.33367794923E+02 -0.60247877453E+01  0.35884087077E+02  0.00000000000E+00 0.  1.
         11    1    1    2    0    0  0.90907795141E+02  0.57769359926E+01  0.14466216763E+02  0.92232703713E+02  0.00000000000E+00 0. -1.
<mgrwt>
<rscale>  0 0.14631801E+03</rscale>
<asrwt>0</asrwt>
<pdfrwt beam="1">  1        1 0.14261848E-01 0.15305351E+03</pdfrwt>
<pdfrwt beam="2">  1       -1 0.46096419E-01 0.15305351E+03</pdfrwt>
<totfact> 0.18627836E+03</totfact>
</mgrwt>
</event>
<event>
 7    1  0.6973133E-006  0.1655313E+03  0.7546771E-02  0.1189705E+00
         -1   -1    0    0    0  501 -0.00000000000E+00  0.00000000000E+00  0.15603550862E+04  0.15603550862E+04  0.00000000000E+00 0.  1.
          1   -1    0    0  501    0  0.00000000000E+00 -0.00000000000E+00 -0.18296668749E+02  0.18296668749E+02  0.00000000000E+00 0. -1.
         23    2    1    2    0    0  0.23230028739E+02  0.10600009972E+03  0.11511036763E+04  0.11629446561E+04  0.12499977618E+03 0.  0.
          5    1    3    3  502    0  0.18723709326E+01  0.13117837449E+03  0.96315857254E+03  0.97206367978E+03  0.47000000000E+01 0.  1.
         -5    1    3    3    0  502  0.21357657807E+02 -0.25178274770E+02  0.18794510381E+03  0.19088097630E+03  0.47000000000E+01 0.  1.
        -11    1    1    2    0    0 -0.45830722547E+02 -0.42501086564E+02  0.27098607277E+03  0.27810114909E+03  0.00000000000E+00 0. -1.
         11    1    1    2    0    0  0.22600693808E+02 -0.63499013155E+02  0.11996866834E+03  0.13760594978E+03  0.00000000000E+00 0.  1.
<mgrwt>
<rscale>  0 0.15911039E+03</rscale>
<asrwt>0</asrwt>
<pdfrwt beam="2">  1        1 0.28148733E-02 0.16553126E+03</pdfrwt>
<pdfrwt beam="1">  1       -1 0.24005452E+00 0.16553126E+03</pdfrwt>
<totfact> 0.34210973E+02</totfact>
</mgrwt>
</event>
<event>
 7    1  0.4230786E-006  0.1910557E+03  0.7546771E-02  0.1161573E+00
         -1   -1    0    0    0  501 -0.00000000000E+00  0.00000000000E+00  0.35183345586E+02  0.35183345586E+02  0.00000000000E+00 0.  1.
          1   -1    0    0  501    0  0.00000000000E+00 -0.00000000000E+00 -0.11655159626E+04  0.11655159626E+04  0.00000000000E+00 0. -1.
         23    2    1    2    0    0 -0.13956698605E+03 -0.37140315717E+02 -0.32651532085E+03  0.37830480011E+03  0.12507565866E+03 0.  0.
          5    1    3    3  502    0 -0.61985232492E+02 -0.75549574372E+02 -0.22137084232E+03  0.24202695525E+03  0.47000000000E+01 0. -1.
         -5    1    3    3    0  502 -0.77581753555E+02  0.38409258655E+02 -0.10514447853E+03  0.13627784486E+03  0.47000000000E+01 0. -1.
        -11    1    1    2    0    0  0.33902688512E+02  0.55196368336E+02 -0.24700724218E+03  0.25535976397E+03  0.00000000000E+00 0.  1.
         11    1    1    2    0    0  0.10566429753E+03 -0.18056052619E+02 -0.55681005399E+03  0.56703474411E+03  0.00000000000E+00 0. -1.
<mgrwt>
<rscale>  0 0.18659055E+03</rscale>
<asrwt>0</asrwt>
<pdfrwt beam="2">  1        1 0.17931015E+00 0.19105566E+03</pdfrwt>
<pdfrwt beam="1">  1       -1 0.54128222E-02 0.19105566E+03</pdfrwt>
<totfact> 0.18881933E+03</totfact>
</mgrwt>
</event>
<event>
 7    1  0.4230786E-006  0.1278382E+03  0.7546771E-02  0.1245099E+00
          1   -1    0    0  501    0  0.00000000000E+00  0.00000000000E+00  0.30883262942E+03  0.30883262942E+03  0.00000000000E+00 0. -1.
         -1   -1    0    0    0  501 -0.00000000000E+00 -0.00000000000E+00 -0.42202860883E+02  0.42202860883E+02  0.00000000000E+00 0.  1.
         23    2    1    2    0    0 -0.11885466978E+01 -0.26585495723E+02  0.11511635734E+03  0.17203015067E+03  0.12503757749E+03 0.  0.
          5    1    3    3  502    0 -0.38596685369E+02  0.16550736688E+00  0.11943083976E+03  0.12560074443E+03  0.47000000000E+01 0.  1.
         -5    1    3    3    0  502  0.37408138672E+02 -0.26751003090E+02 -0.43144824197E+01  0.46429406240E+02  0.47000000000E+01 0.  1.
        -11    1    1    2    0    0  0.22249285206E+02  0.53962761490E+02  0.74838479026E+02  0.94909474041E+02  0.00000000000E+00 0.  1.
         11    1    1    2    0    0 -0.21060738508E+02 -0.27377265767E+02  0.76674932165E+02  0.84095865594E+02  0.00000000000E+00 0. -1.
<mgrwt>
<rscale>  0 0.11879429E+03</rscale>
<asrwt>0</asrwt>
<pdfrwt beam="1">  1        1 0.47512711E-01 0.12783817E+03</pdfrwt>
<pdfrwt beam="2">  1       -1 0.64927480E-02 0.12783817E+03</pdfrwt>
<totfact> 0.94355936E+03</totfact>
</mgrwt>
</event>
<event>
 7    1  0.4230786E-006  0.2922218E+03  0.7546771E-02  0.1091095E+00
         -2   -1    0    0    0  501 -0.00000000000E+00  0.00000000000E+00  0.38950443922E+03  0.38950443922E+03  0.00000000000E+00 0.  1.
          2   -1    0    0  501    0  0.00000000000E+00 -0.00000000000E+00 -0.21119487537E+03  0.21119487537E+03  0.00000000000E+00 0. -1.
         23    2    1    2    0    0  0.11746276815E+03  0.21903474484E+03  0.53865128156E+02  0.28308322499E+03  0.12434202384E+03 0.  0.
          5    1    3    3  502    0  0.66812359469E+02  0.18142015330E+02  0.18197766486E+01  0.69414880862E+02  0.47000000000E+01 0. -1.
         -5    1    3    3    0  502  0.50650408683E+02  0.20089272951E+03  0.52045351507E+02  0.21366834413E+03  0.47000000000E+01 0.  1.
        -11    1    1    2    0    0 -0.46366743441E+02 -0.19117049315E+03  0.13769104681E+03  0.24011425764E+03  0.00000000000E+00 0.  1.
         11    1    1    2    0    0 -0.71096024711E+02 -0.27864251690E+02 -0.13246611115E+02  0.77501831965E+02  0.00000000000E+00 0. -1.
<mgrwt>
<rscale>  0 0.28857650E+03</rscale>
<asrwt>0</asrwt>
<pdfrwt beam="2">  1        2 0.32491519E-01 0.29222177E+03</pdfrwt>
<pdfrwt beam="1">  1       -2 0.59923760E-01 0.29222177E+03</pdfrwt>
<totfact> 0.42738975E+02</totfact>
</mgrwt>
</event>
<event>
 7    1  0.4230786E-006  0.1857503E+03  0.7546771E-02  0.1167507E+00
         -1   -1    0    0    0  501 -0.00000000000E+00  0.00000000000E+00  0.26705227883E+02  0.26705227883E+02  0.00000000000E+00 0.  1.
          1   -1    0    0  501    0  0.00000000000E+00 -0.00000000000E+00 -0.11598577568E+04  0.11598577568E+04  0.00000000000E+00 0. -1.
         23    2    1    2    0    0 -0.11960213168E+03 -0.67633809930E+02 -0.54858031808E+03  0.57917488433E+03  0.12499671635E+03 0.  0.
          5    1    3    3  502    0 -0.60518703535E+01 -0.53856970207E+02 -0.30773896034E+03  0.31251008958E+03  0.47000000000E+01 0. -1.
         -5    1    3    3    0  502 -0.11355026133E+03 -0.13776839723E+02 -0.24084135774E+03  0.26666479475E+03  0.47000000000E+01 0. -1.
        -11    1    1    2    0    0  0.46940985887E+02 -0.19823751872E+02 -0.16571193628E+03  0.17336921042E+03  0.00000000000E+00 0. -1.
         11    1    1    2    0    0  0.72661145797E+02  0.87457561801E+02 -0.41886027453E+03  0.43401888991E+03  0.00000000000E+00 0.  1.
<mgrwt>
<rscale>  0 0.18030575E+03</rscale>
<asrwt>0</asrwt>
<pdfrwt beam="2">  1        1 0.17843962E+00 0.18575032E+03</pdfrwt>
<pdfrwt beam="1">  1       -1 0.41084975E-02 0.18575032E+03</pdfrwt>
<totfact> 0.28714796E+03</totfact>
</mgrwt>
</event>
<event>
 7    1  0.4230786E-006  0.1542347E+03  0.7546771E-02  0.1204886E+00
          3   -1    0    0  501    0  0.00000000000E+00  0.00000000000E+00  0.28313197647E+03  0.28313197647E+03  0.00000000000E+00 0. -1.
         -3   -1    0    0    0  501 -0.00000000000E+00 -0.00000000000E+00 -0.70543452327E+02  0.70543452327E+02  0.00000000000E+00 0.  1.
         23    2    1    2    0    0 -0.74569859491E+02 -0.51020233488E+02  0.91477391958E+02  0.17932217104E+03  0.12499839845E+03 0.  0.
          5    1    3    3  502    0 -0.91777879662E+02 -0.12014005754E+02  0.99181074958E+02  0.13574421225E+03  0.47000000000E+01 0.  1.
         -5    1    3    3    0  502  0.17208020171E+02 -0.39006227734E+02 -0.77036830008E+01  0.43577958786E+02  0.47000000000E+01 0.  1.
        -11    1    1    2    0    0  0.22627467307E+02  0.33439195069E+02 -0.11133296818E+01  0.40390859691E+02  0.00000000000E+00 0.  1.
         11    1    1    2    0    0  0.51942392184E+02  0.17581038419E+02  0.12222446187E+03  0.13396239807E+03  0.00000000000E+00 0. -1.
<mgrwt>
<rscale>  0 0.14646422E+03</rscale>
<asrwt>0</asrwt>
<pdfrwt beam="1">  1        3 0.43558765E-01 0.15423465E+03</pdfrwt>
<pdfrwt beam="2">  1       -3 0.10852839E-01 0.15423465E+03</pdfrwt>
<totfact> 0.79699253E+02</totfact>
</mgrwt>
</event>
<event>
 6    1  0.4230786E-006  0.1879776E+03  0.7546771E-02  0.1188663E+00
          2   -1    0    0  501    0  0.00000000000E+00  0.00000000000E+00  0.27365015276E+03  0.27365015276E+03  0.00000000000E+00 0. -1.
         -2   -1    0    0    0  501 -0.00000000000E+00 -0.00000000000E+00 -0.75116915157E+02  0.75116915157E+02  0.00000000000E+00 0.  1.
          5    1    1    2  502    0 -0.37103859992E+02 -0.52992741639E+02  0.16975043670E+02  0.67046023001E+02  0.47000000000E+01 0. -1.
         -5    1    1    2    0  502  0.57601201434E+02  0.99298073827E+02  0.11557338780E+03  0.16296411826E+03  0.47000000000E+01 0.  1.
        -11    1    1    2    0    0  0.98215823365E+01  0.21427099999E+02  0.91504904499E+01  0.25284690416E+02  0.00000000000E+00 0.  1.
         11    1    1    2    0    0 -0.30318923779E+02 -0.67732432186E+02  0.56834315689E+02  0.93472236246E+02  0.00000000000E+00 0. -1.
<mgrwt>
<rscale>  0 0.16002977E+03</rscale>
<asrwt>0</asrwt>
<pdfrwt beam="1">  1        2 0.42100023E-01 0.18797760E+03</pdfrwt>
<pdfrwt beam="2">  1       -2 0.11556449E-01 0.18797760E+03</pdfrwt>
<totfact> 0.61814035E+03</totfact>
</mgrwt>
</event>
<event>
 7    1  0.4230786E-006  0.1393535E+03  0.7546771E-02  0.1226453E+00
          1   -1    0    0  501    0  0.00000000000E+00  0.00000000000E+00  0.49832654704E+02  0.49832654704E+02  0.00000000000E+00 0. -1.
         -1   -1    0    0    0  501 -0.00000000000E+00 -0.00000000000E+00 -0.34817336169E+03  0.34817336169E+03  0.00000000000E+00 0.  1.
         23    2    1    2    0    0  0.19184274050E+02  0.58523354847E+02 -0.23442146801E+03  0.27271380536E+03  0.12500550202E+03 0.  0.
          5    1    3    3  502    0  0.17091753666E+02  0.23540759748E+02 -0.23550188967E+03  0.23733841967E+03  0.47000000000E+01 0.  1.
         -5    1    3    3    0  502  0.20925203842E+01  0.34982595099E+02  0.10804216649E+01  0.35375385686E+02  0.47000000000E+01 0.  1.
        -11    1    1    2    0    0 -0.28348326610E+02  0.37682408293E+01 -0.54611171764E+02  0.61645821772E+02  0.00000000000E+00 0.  1.
         11    1    1    2    0    0  0.91640525598E+01 -0.62291595676E+02 -0.93080672149E+01  0.63646389265E+02  0.00000000000E+00 0. -1.
<mgrwt>
<rscale>  0 0.13067844E+03</rscale>
<asrwt>0</asrwt>
<pdfrwt beam="1">  1        1 0.76665626E-02 0.13935349E+03</pdfrwt>
<pdfrwt beam="2">  1       -1 0.53565130E-01 0.13935349E+03</pdfrwt>
<totfact> 0.32084046E+03</totfact>
</mgrwt>
</event>
<event>
 7    1  0.4230786E-006  0.1446687E+03  0.7546771E-02  0.1217453E+00
         -1   -1    0    0    0  501 -0.00000000000E+00  0.00000000000E+00  0.14614709717E+03  0.14614709717E+03  0.00000000000E+00 0.  1.
          1   -1    0    0  501    0  0.00000000000E+00 -0.00000000000E+00 -0.12198744429E+03  0.12198744429E+03  0.00000000000E+00 0. -1.
         23    2    1    2    0    0  0.61372510120E+02  0.39230953336E+02  0.41663764865E+02  0.15054871141E+03  0.12499356986E+03 0.  0.
          5    1    3    3  502    0  0.45982282697E+02  0.44175238816E+02 -0.34428139413E+02  0.72616863261E+02  0.47000000000E+01 0.  1.
         -5    1    3    3    0  502  0.15390227423E+02 -0.49442854801E+01  0.76091904277E+02  0.77931848147E+02  0.47000000000E+01 0.  1.
        -11    1    1    2    0    0 -0.41884043333E+02 -0.31013231928E+02  0.33783659193E+02  0.62108206133E+02  0.00000000000E+00 0.  1.
         11    1    1    2    0    0 -0.19488466786E+02 -0.82177214078E+01 -0.51287771178E+02  0.55477623915E+02  0.00000000000E+00 0. -1.
<mgrwt>
<rscale>  0 0.13697877E+03</rscale>
<asrwt>0</asrwt>
<pdfrwt beam="2">  1        1 0.18767299E-01 0.14466874E+03</pdfrwt>
<pdfrwt beam="1">  1       -1 0.22484169E-01 0.14466874E+03</pdfrwt>
<totfact> 0.44316106E+03</totfact>
</mgrwt>
</event>
<event>
 7    1  0.4230786E-006  0.2699066E+03  0.7546771E-02  0.1103846E+00
         -1   -1    0    0    0  501 -0.00000000000E+00  0.00000000000E+00  0.21350620608E+03  0.21350620608E+03  0.00000000000E+00 0.  1.
          1   -1    0    0  501    0  0.00000000000E+00 -0.00000000000E+00 -0.36996283570E+03  0.36996283570E+03  0.00000000000E+00 0. -1.
         23    2    1    2    0    0  0.68646143226E+01 -0.23892125426E+03  0.26622671496E+02  0.27121640738E+03  0.12537577248E+03 0.  0.
          5    1    3    3  502    0  0.24436771154E+02 -0.10830669540E+01 -0.15004845421E+02  0.29078586702E+02  0.47000000000E+01 0.  1.
         -5    1    3    3    0  502 -0.17572156831E+02 -0.23783818731E+03  0.41627516917E+02  0.24213782067E+03  0.47000000000E+01 0.  1.
        -11    1    1    2    0    0  0.47471655535E+01  0.81784214467E+02 -0.17666550051E+02  0.83805132942E+02  0.00000000000E+00 0. -1.
         11    1    1    2    0    0 -0.11611779876E+02  0.15713703979E+03 -0.16541275107E+03  0.22844750146E+03  0.00000000000E+00 0.  1.
<mgrwt>
<rscale>  0 0.26556374E+03</rscale>
<asrwt>0</asrwt>
<pdfrwt beam="2">  1        1 0.56917360E-01 0.26990660E+03</pdfrwt>
<pdfrwt beam="1">  1       -1 0.32847108E-01 0.26990660E+03</pdfrwt>
<totfact> 0.58808003E+02</totfact>
</mgrwt>
</event>
<event>
 7    1  0.4889460E-006  0.1584015E+03  0.7546771E-02  0.1197211E+00
         -1   -1    0    0    0  501 -0.00000000000E+00  0.00000000000E+00  0.33396434935E+03  0.33396434935E+03  0.00000000000E+00 0.  1.
          1   -1    0    0  501    0  0.00000000000E+00 -0.00000000000E+00 -0.65371991315E+02  0.65371991315E+02  0.00000000000E+00 0. -1.
         23    2    1    2    0    0 -0.95602365649E+02 -0.18073359883E+02  0.15402755259E+03  0.22094232210E+03  0.12499825631E+03 0.  0.
          5    1    3    3  502    0  0.30143564198E+02  0.29481072747E+01  0.25845430452E+02  0.40092419163E+02  0.47000000000E+01 0. -1.
         -5    1    3    3    0  502 -0.12574592985E+03 -0.21021467158E+02  0.12818212214E+03  0.18084990293E+03  0.47000000000E+01 0. -1.
        -11    1    1    2    0    0  0.72824185747E+02 -0.24045239449E+02  0.10423651023E+03  0.12940937228E+03  0.00000000000E+00 0.  1.
         11    1    1    2    0    0  0.22778179902E+02  0.42118599332E+02  0.10328295209E+02  0.48984646281E+02  0.00000000000E+00 0. -1.
<mgrwt>
<rscale>  0 0.15268545E+03</rscale>
<asrwt>0</asrwt>
<pdfrwt beam="2">  1        1 0.10057230E-01 0.15840146E+03</pdfrwt>
<pdfrwt beam="1">  1       -1 0.51379130E-01 0.15840146E+03</pdfrwt>
<totfact> 0.24252412E+03</totfact>
</mgrwt>
</event>
<event>
 7    1  0.4230786E-006  0.1416258E+03  0.7546771E-02  0.1222428E+00
         -2   -1    0    0    0  501 -0.00000000000E+00  0.00000000000E+00  0.72832151663E+02  0.72832151663E+02  0.00000000000E+00 0. -1.
          2   -1    0    0  501    0  0.00000000000E+00 -0.00000000000E+00 -0.32970607583E+03  0.32970607583E+03  0.00000000000E+00 0.  1.
         23    2    1    2    0    0 -0.53559281633E+02 -0.39523940611E+02 -0.23129100536E+02  0.14350195233E+03  0.12500846572E+03 0.  0.
          5    1    3    3  502    0  0.22332499026E+02 -0.51114452374E+02  0.14572162688E+02  0.57843458400E+02  0.47000000000E+01 0. -1.
         -5    1    3    3    0  502 -0.75891780660E+02  0.11590511763E+02 -0.37701263224E+02  0.85658493935E+02  0.47000000000E+01 0. -1.
        -11    1    1    2    0    0  0.72014603648E+01 -0.28443987349E+02 -0.59060310402E+02  0.65947264632E+02  0.00000000000E+00 0. -1.
         11    1    1    2    0    0  0.46357821268E+02  0.67967927960E+02 -0.17468451322E+03  0.19308901052E+03  0.00000000000E+00 0.  1.
<mgrwt>
<rscale>  0 0.13344741E+03</rscale>
<asrwt>0</asrwt>
<pdfrwt beam="2">  1        2 0.50724010E-01 0.14162576E+03</pdfrwt>
<pdfrwt beam="1">  1       -2 0.11204947E-01 0.14162576E+03</pdfrwt>
<totfact> 0.52390667E+03</totfact>
</mgrwt>
</event>
<event>
 7    1  0.4230786E-006  0.1323612E+03  0.7546771E-02  0.1236303E+00
         -2   -1    0    0    0  501 -0.00000000000E+00  0.00000000000E+00  0.88126470843E+03  0.88126470843E+03  0.00000000000E+00 0.  1.
          2   -1    0    0  501    0  0.00000000000E+00 -0.00000000000E+00 -0.17139601538E+02  0.17139601538E+02  0.00000000000E+00 0. -1.
         23    2    1    2    0    0  0.43233089339E+02  0.49888396623E+01  0.61259814632E+03  0.62673437666E+03  0.12500200587E+03 0.  0.
          5    1    3    3  502    0 -0.22068593153E+02  0.46267815254E+02  0.31797119300E+03  0.32211101054E+03  0.47000000000E+01 0. -1.
         -5    1    3    3    0  502  0.65301682492E+02 -0.41278975592E+02  0.29462695332E+03  0.30462336612E+03  0.47000000000E+01 0. -1.
        -11    1    1    2    0    0 -0.57394750720E+02  0.35683940817E+01  0.24822293704E+03  0.25479701199E+03  0.00000000000E+00 0.  1.
         11    1    1    2    0    0  0.14161661380E+02 -0.85572337440E+01  0.33040235303E+01  0.16872921321E+02  0.00000000000E+00 0. -1.
<mgrwt>
<rscale>  0 0.12421360E+03</rscale>
<asrwt>0</asrwt>
<pdfrwt beam="2">  1        2 0.26368625E-02 0.13236121E+03</pdfrwt>
<pdfrwt beam="1">  1       -2 0.13557915E+00 0.13236121E+03</pdfrwt>
<totfact> 0.14744426E+03</totfact>
</mgrwt>
</event>
<event>
 7    1  0.4230786E-006  0.1340622E+03  0.7546771E-02  0.1233665E+00
          1   -1    0    0  501    0  0.00000000000E+00  0.00000000000E+00  0.21714053931E+03  0.21714053931E+03  0.00000000000E+00 0. -1.
         -1   -1    0    0    0  501 -0.00000000000E+00 -0.00000000000E+00 -0.65833405172E+02  0.65833405172E+02  0.00000000000E+00 0.  1.
         23    2    1    2    0    0  0.45474168641E+02 -0.16713444886E+02  0.73737011689E+02  0.15300264897E+03  0.12500169777E+03 0.  0.
          5    1    3    3  502    0  0.64362521642E+02 -0.46682061214E+02  0.10459566023E+02  0.80332070512E+02  0.47000000000E+01 0. -1.
         -5    1    3    3    0  502 -0.18888353001E+02  0.29968616328E+02  0.63277445666E+02  0.72670578460E+02  0.47000000000E+01 0. -1.
        -11    1    1    2    0    0 -0.49604104542E+02 -0.25881997134E+02  0.22686056754E+02  0.60374681234E+02  0.00000000000E+00 0.  1.
         11    1    1    2    0    0  0.41299359016E+01  0.42595442020E+02  0.54884065694E+02  0.69596614275E+02  0.00000000000E+00 0. -1.
<mgrwt>
<rscale>  0 0.12590280E+03</rscale>
<asrwt>0</asrwt>
<pdfrwt beam="1">  1        1 0.33406237E-01 0.13406216E+03</pdfrwt>
<pdfrwt beam="2">  1       -1 0.10128216E-01 0.13406216E+03</pdfrwt>
<totfact> 0.74817293E+03</totfact>
</mgrwt>
</event>
<event>
 7    1  0.4230786E-006  0.2943043E+03  0.7546771E-02  0.1089929E+00
          2   -1    0    0  501    0  0.00000000000E+00  0.00000000000E+00  0.12598494684E+04  0.12598494684E+04  0.00000000000E+00 0. -1.
         -2   -1    0    0    0  501 -0.00000000000E+00 -0.00000000000E+00 -0.69436057425E+02  0.69436057425E+02  0.00000000000E+00 0.  1.
         23    2    1    2    0    0 -0.21465657029E+03 -0.15783451625E+03  0.45200456579E+03  0.53937290320E+03  0.12500329405E+03 0.  0.
          5    1    3    3  502    0 -0.10080417140E+03 -0.14135127271E+03  0.32093811381E+03  0.36491783481E+03  0.47000000000E+01 0. -1.
         -5    1    3    3    0  502 -0.11385239890E+03 -0.16483243535E+02  0.13106645198E+03  0.17445506839E+03  0.47000000000E+01 0. -1.
        -11    1    1    2    0    0  0.18596280788E+03  0.89368190669E+02  0.54150461889E+03  0.57947915553E+03  0.00000000000E+00 0. -1.
         11    1    1    2    0    0  0.28693762411E+02  0.68466325577E+02  0.19690422634E+03  0.21043346713E+03  0.00000000000E+00 0.  1.
<mgrwt>
<rscale>  0 0.29080652E+03</rscale>
<asrwt>0</asrwt>
<pdfrwt beam="1">  1        2 0.19382298E+00 0.29430427E+03</pdfrwt>
<pdfrwt beam="2">  1       -2 0.10682471E-01 0.29430427E+03</pdfrwt>
<totfact> 0.11032181E+03</totfact>
</mgrwt>
</event>
<event>
 7    1  0.4780088E-006  0.1879664E+03  0.7546771E-02  0.1165036E+00
          1   -1    0    0  501    0  0.00000000000E+00  0.00000000000E+00  0.28245466165E+03  0.28245466165E+03  0.00000000000E+00 0. -1.
         -1   -1    0    0    0  501 -0.00000000000E+00 -0.00000000000E+00 -0.11902896454E+03  0.11902896454E+03  0.00000000000E+00 0.  1.
         23    2    1    2    0    0 -0.96419169781E+02 -0.10202717652E+03  0.38791325176E+02  0.19192743830E+03  0.12500069446E+03 0.  0.
          5    1    3    3  502    0 -0.63630876080E+02 -0.97487868817E+01 -0.30977973042E+02  0.71593659287E+02  0.47000000000E+01 0.  1.
         -5    1    3    3    0  502 -0.32788293701E+02 -0.92278389640E+02  0.69769298218E+02  0.12033377902E+03  0.47000000000E+01 0.  1.
        -11    1    1    2    0    0  0.43607047334E+02  0.72620466527E+02  0.12267302417E+03  0.14907708608E+03  0.00000000000E+00 0. -1.
         11    1    1    2    0    0  0.52812122446E+02  0.29406709995E+02  0.19613477698E+01  0.60479101804E+02  0.00000000000E+00 0.  1.
<mgrwt>
<rscale>  0 0.18288870E+03</rscale>
<asrwt>0</asrwt>
<pdfrwt beam="1">  1        1 0.43454563E-01 0.18796642E+03</pdfrwt>
<pdfrwt beam="2">  1       -1 0.18312148E-01 0.18796642E+03</pdfrwt>
<totfact> 0.21741319E+03</totfact>
</mgrwt>
</event>
<event>
 7    1  0.4230786E-006  0.1322758E+03  0.7546771E-02  0.1237770E+00
         -4   -1    0    0    0  501 -0.00000000000E+00  0.00000000000E+00  0.14579491157E+03  0.14579491157E+03  0.00000000000E+00 0. -1.
          4   -1    0    0  501    0  0.00000000000E+00 -0.00000000000E+00 -0.10377743941E+03  0.10377743941E+03  0.00000000000E+00 0.  1.
         23    2    1    2    0    0  0.13729951060E+02  0.41028636831E+02  0.64626701471E+02  0.14721922515E+03  0.12500011646E+03 0.  0.
          5    1    3    3  502    0  0.35870495042E+02  0.67617593831E+02  0.78412107835E+02  0.10967853056E+03  0.47000000000E+01 0. -1.
         -5    1    3    3    0  502 -0.22140543982E+02 -0.26588957000E+02 -0.13785406364E+02  0.37540694597E+02  0.47000000000E+01 0. -1.
        -11    1    1    2    0    0  0.31864721829E+02 -0.21529388907E+02 -0.34159130854E+02  0.51436575553E+02  0.00000000000E+00 0.  1.
         11    1    1    2    0    0 -0.45594672889E+02 -0.19499247925E+02  0.11549901540E+02  0.50916550267E+02  0.00000000000E+00 0. -1.
<mgrwt>
<rscale>  0 0.12328774E+03</rscale>
<asrwt>0</asrwt>
<pdfrwt beam="2">  1        4 0.15965760E-01 0.13227581E+03</pdfrwt>
<pdfrwt beam="1">  1       -4 0.22429986E-01 0.13227581E+03</pdfrwt>
<totfact> 0.10147628E+03</totfact>
</mgrwt>
</event>
<event>
 7    1  0.4230786E-006  0.1301789E+03  0.7546771E-02  0.1241438E+00
          1   -1    0    0  501    0  0.00000000000E+00  0.00000000000E+00  0.10482769143E+03  0.10482769143E+03  0.00000000000E+00 0. -1.
         -1   -1    0    0    0  501 -0.00000000000E+00 -0.00000000000E+00 -0.12629785229E+03  0.12629785229E+03  0.00000000000E+00 0.  1.
         23    2    1    2    0    0  0.27234583704E+02  0.24077077045E+02 -0.29863243029E+02  0.13356035085E+03  0.12500050338E+03 0.  0.
          5    1    3    3  502    0  0.53614775070E+02  0.62609292129E+02 -0.12425156592E+02  0.83492167794E+02  0.47000000000E+01 0. -1.
         -5    1    3    3    0  502 -0.26380191366E+02 -0.38532215084E+02 -0.17438086437E+02  0.50068183054E+02  0.47000000000E+01 0. -1.
        -11    1    1    2    0    0 -0.23752563032E+02 -0.58187680188E+02  0.71558576612E+01  0.63255013043E+02  0.00000000000E+00 0.  1.
         11    1    1    2    0    0 -0.34820206721E+01  0.34110603143E+02  0.12372245061E+01  0.34310179820E+02  0.00000000000E+00 0. -1.
<mgrwt>
<rscale>  0 0.12101132E+03</rscale>
<asrwt>0</asrwt>
<pdfrwt beam="1">  1        1 0.16127337E-01 0.13017893E+03</pdfrwt>
<pdfrwt beam="2">  1       -1 0.19430439E-01 0.13017893E+03</pdfrwt>
<totfact> 0.67656919E+03</totfact>
</mgrwt>
</event>
<event>
 7    1  0.4230786E-006  0.1414602E+03  0.7546771E-02  0.1222020E+00
          1   -1    0    0  501    0  0.00000000000E+00  0.00000000000E+00  0.66239901522E+02  0.66239901522E+02  0.00000000000E+00 0. -1.
         -1   -1    0    0    0  501 -0.00000000000E+00 -0.00000000000E+00 -0.25776843210E+03  0.25776843210E+03  0.00000000000E+00 0.  1.
         23    2    1    2    0    0 -0.12316468646E+01  0.66218872560E+02 -0.14265132876E+03  0.20089895695E+03  0.12499813307E+03 0.  0.
          5    1    3    3  502    0  0.49037429879E+02  0.68528481469E+02 -0.11688144042E+03  0.14416720645E+03  0.47000000000E+01 0. -1.
         -5    1    3    3    0  502 -0.50269076744E+02 -0.23096089092E+01 -0.25769888339E+02  0.56731750502E+02  0.47000000000E+01 0. -1.
        -11    1    1    2    0    0 -0.33953403987E+02 -0.58073081126E+02 -0.54476606130E+02  0.86562214674E+02  0.00000000000E+00 0.  1.
         11    1    1    2    0    0  0.35185050851E+02 -0.81457914339E+01  0.55994043085E+01  0.36547161998E+02  0.00000000000E+00 0. -1.
<mgrwt>
<rscale>  0 0.13373237E+03</rscale>
<asrwt>0</asrwt>
<pdfrwt beam="1">  1        1 0.10190754E-01 0.14146020E+03</pdfrwt>
<pdfrwt beam="2">  1       -1 0.39656682E-01 0.14146020E+03</pdfrwt>
<totfact> 0.37720219E+03</totfact>
</mgrwt>
</event>
<event>
 7    1  0.4230786E-006  0.1572680E+03  0.7546771E-02  0.1199329E+00
         -1   -1    0    0    0  501 -0.00000000000E+00  0.00000000000E+00  0.63138067823E+02  0.63138067823E+02  0.00000000000E+00 0.  1.
          1   -1    0    0  501    0  0.00000000000E+00 -0.00000000000E+00 -0.34959433824E+03  0.34959433824E+03  0.00000000000E+00 0. -1.
         23    2    1    2    0    0  0.86058741352E+02 -0.41316281762E+02 -0.11186211146E+03  0.19299313760E+03  0.12498030676E+03 0.  0.
          5    1    3    3  502    0  0.62251032540E+02 -0.82725507964E+02 -0.51068881435E+02  0.11553709955E+03  0.47000000000E+01 0.  1.
         -5    1    3    3    0  502  0.23807708812E+02  0.41409226202E+02 -0.60793230025E+02  0.77456038050E+02  0.47000000000E+01 0.  1.
        -11    1    1    2    0    0 -0.22044004065E+02  0.39890849933E+01  0.71120019278E+01  0.23503861081E+02  0.00000000000E+00 0.  1.
         11    1    1    2    0    0 -0.64014737288E+02  0.37327196769E+02 -0.18170616088E+03  0.19623540739E+03  0.00000000000E+00 0. -1.
<mgrwt>
<rscale>  0 0.15093485E+03</rscale>
<asrwt>0</asrwt>
<pdfrwt beam="2">  1        1 0.53783745E-01 0.15726799E+03</pdfrwt>
<pdfrwt beam="1">  1       -1 0.97135488E-02 0.15726799E+03</pdfrwt>
<totfact> 0.44586412E+03</totfact>
</mgrwt>
</event>
<event>
 7    1  0.4230786E-006  0.1406077E+03  0.7546771E-02  0.1223634E+00
         -3   -1    0    0    0  501 -0.00000000000E+00  0.00000000000E+00  0.16887655322E+03  0.16887655322E+03  0.00000000000E+00 0.  1.
          3   -1    0    0  501    0  0.00000000000E+00 -0.00000000000E+00 -0.93946283585E+02  0.93946283585E+02  0.00000000000E+00 0. -1.
         23    2    1    2    0    0 -0.16810824947E+02  0.62146706535E+02  0.44800079728E+02  0.14757225022E+03  0.12500281966E+03 0.  0.
          5    1    3    3  502    0 -0.31143847521E+02  0.96733324996E+02  0.40873333410E+02  0.10963573682E+03  0.47000000000E+01 0. -1.
         -5    1    3    3    0  502  0.14333022574E+02 -0.34586618461E+02  0.39267463179E+01  0.37936513405E+02  0.47000000000E+01 0. -1.
        -11    1    1    2    0    0  0.32802492865E+02 -0.38093173783E+02  0.56860183889E+02  0.75895809758E+02  0.00000000000E+00 0.  1.
         11    1    1    2    0    0 -0.15991667919E+02 -0.24053532752E+02 -0.26729993982E+02  0.39354776825E+02  0.00000000000E+00 0. -1.
<mgrwt>
<rscale>  0 0.13260942E+03</rscale>
<asrwt>0</asrwt>
<pdfrwt beam="2">  1        3 0.14453274E-01 0.14060769E+03</pdfrwt>
<pdfrwt beam="1">  1       -3 0.25981008E-01 0.14060769E+03</pdfrwt>
<totfact> 0.12823613E+03</totfact>
</mgrwt>
</event>
<event>
 7    1  0.4230786E-006  0.1925186E+03  0.7546771E-02  0.1160931E+00
         -2   -1    0    0    0  501 -0.00000000000E+00  0.00000000000E+00  0.39145689985E+02  0.39145689985E+02  0.00000000000E+00 0.  1.
          2   -1    0    0  501    0  0.00000000000E+00 -0.00000000000E+00 -0.91724885859E+03  0.91724885859E+03  0.00000000000E+00 0. -1.
         23    2    1    2    0    0  0.40685531703E+00  0.14641717979E+03 -0.33272743808E+03  0.38440988456E+03  0.12500102089E+03 0.  0.
          5    1    3    3  502    0  0.93149398674E+00  0.16899551134E+03 -0.28433194866E+03  0.33079766862E+03  0.47000000000E+01 0. -1.
         -5    1    3    3    0  502 -0.52463866971E+00 -0.22578331554E+02 -0.48395489422E+02  0.53612215939E+02  0.47000000000E+01 0. -1.
        -11    1    1    2    0    0  0.16487220401E+01 -0.47892737467E+02 -0.60415892227E+02  0.77113634463E+02  0.00000000000E+00 0.  1.
         11    1    1    2    0    0 -0.20555773571E+01 -0.98524442322E+02 -0.48495983830E+03  0.49487102956E+03  0.00000000000E+00 0. -1.
<mgrwt>
<rscale>  0 0.18728678E+03</rscale>
<asrwt>0</asrwt>
<pdfrwt beam="2">  1        2 0.14111520E+00 0.19251860E+03</pdfrwt>
<pdfrwt beam="1">  1       -2 0.60224142E-02 0.19251860E+03</pdfrwt>
<totfact> 0.43061790E+03</totfact>
</mgrwt>
</event>
<event>
 7    1  0.4230786E-006  0.1800825E+03  0.7546771E-02  0.1173251E+00
          1   -1    0    0  501    0  0.00000000000E+00  0.00000000000E+00  0.37997168472E+03  0.37997168472E+03  0.00000000000E+00 0. -1.
         -1   -1    0    0    0  501 -0.00000000000E+00 -0.00000000000E+00 -0.75696838211E+02  0.75696838211E+02  0.00000000000E+00 0.  1.
         23    2    1    2    0    0 -0.12618364334E+03  0.29696284926E+02  0.17271756537E+03  0.24952164029E+03  0.12500204158E+03 0.  0.
          5    1    3    3  502    0 -0.44182426014E+02  0.56338815970E+02  0.20675773465E+02  0.74670787874E+02  0.47000000000E+01 0. -1.
         -5    1    3    3    0  502 -0.82001217324E+02 -0.26642531044E+02  0.15204179191E+03  0.17485085241E+03  0.47000000000E+01 0. -1.
        -11    1    1    2    0    0  0.10749602936E+03 -0.58669608508E+02  0.11461287596E+03  0.16773082789E+03  0.00000000000E+00 0. -1.
         11    1    1    2    0    0  0.18687613982E+02  0.28973323582E+02  0.16944405176E+02  0.38416054749E+02  0.00000000000E+00 0.  1.
<mgrwt>
<rscale>  0 0.17448391E+03</rscale>
<asrwt>0</asrwt>
<pdfrwt beam="1">  1        1 0.58457181E-01 0.18008246E+03</pdfrwt>
<pdfrwt beam="2">  1       -1 0.11645668E-01 0.18008246E+03</pdfrwt>
<totfact> 0.30537227E+03</totfact>
</mgrwt>
</event>
<event>
 6    1  0.4230786E-006  0.2278710E+03  0.7546771E-02  0.1150702E+00
         -2   -1    0    0    0  501 -0.00000000000E+00  0.00000000000E+00  0.30300309969E+03  0.30300309969E+03  0.00000000000E+00 0.  1.
          2   -1    0    0  501    0  0.00000000000E+00 -0.00000000000E+00 -0.14589267340E+03  0.14589267340E+03  0.00000000000E+00 0. -1.
          5    1    1    2  502    0  0.72885248698E+02 -0.53668037309E+02 -0.29083284317E+01  0.90681123067E+02  0.47000000000E+01 0. -1.
         -5    1    1    2    0  502  0.22436646492E+02  0.51052093908E+02  0.20967983129E+03  0.21701944854E+03  0.47000000000E+01 0.  1.
        -11    1    1    2    0    0 -0.23004739708E+02  0.11048045106E+02  0.25833286604E+02  0.36313028604E+02  0.00000000000E+00 0.  1.
         11    1    1    2    0    0 -0.72317155482E+02 -0.84321017043E+01 -0.75494363174E+02  0.10488217288E+03  0.00000000000E+00 0. -1.
<mgrwt>
<rscale>  0 0.19886253E+03</rscale>
<asrwt>0</asrwt>
<pdfrwt beam="2">  1        2 0.22445027E-01 0.22787099E+03</pdfrwt>
<pdfrwt beam="1">  1       -2 0.46615861E-01 0.22787099E+03</pdfrwt>
<totfact> 0.10703595E+03</totfact>
</mgrwt>
</event>
<event>
 7    1  0.4230786E-006  0.1527887E+03  0.7546771E-02  0.1205637E+00
          2   -1    0    0  501    0  0.00000000000E+00  0.00000000000E+00  0.23329374809E+03  0.23329374809E+03  0.00000000000E+00 0. -1.
         -2   -1    0    0    0  501 -0.00000000000E+00 -0.00000000000E+00 -0.83928584587E+02  0.83928584587E+02  0.00000000000E+00 0.  1.
         23    2    1    2    0    0  0.71582445441E+02  0.50942503632E+02  0.86147886488E+02  0.17540191208E+03  0.12500074897E+03 0.  0.
          5    1    3    3  502    0  0.63200417596E+02 -0.85503254178E+01  0.94972054160E+02  0.11449533580E+03  0.47000000000E+01 0. -1.
         -5    1    3    3    0  502  0.83820278447E+01  0.59492829049E+02 -0.88241676720E+01  0.60906576280E+02  0.47000000000E+01 0. -1.
        -11    1    1    2    0    0 -0.12875497595E+02 -0.30223022970E+02  0.71816361529E+02  0.78973409063E+02  0.00000000000E+00 0. -1.
         11    1    1    2    0    0 -0.58706947846E+02 -0.20719480662E+02 -0.85990845117E+01  0.62847011534E+02  0.00000000000E+00 0.  1.
<mgrwt>
<rscale>  0 0.14587388E+03</rscale>
<asrwt>0</asrwt>
<pdfrwt beam="1">  1        2 0.35891345E-01 0.15278865E+03</pdfrwt>
<pdfrwt beam="2">  1       -2 0.12912090E-01 0.15278865E+03</pdfrwt>
<totfact> 0.60621249E+03</totfact>
</mgrwt>
</event>
<event>
 7    1  0.4230786E-006  0.1306605E+03  0.7546771E-02  0.1240526E+00
          3   -1    0    0  501    0  0.00000000000E+00  0.00000000000E+00  0.25301362806E+02  0.25301362806E+02  0.00000000000E+00 0. -1.
         -3   -1    0    0    0  501 -0.00000000000E+00 -0.00000000000E+00 -0.53477036540E+03  0.53477036540E+03  0.00000000000E+00 0.  1.
         23    2    1    2    0    0 -0.12860134833E+02 -0.35833911017E+02 -0.34148781614E+03  0.36563109578E+03  0.12499086919E+03 0.  0.
          5    1    3    3  502    0 -0.72839859503E+01  0.39402479482E+02 -0.21106995071E+03  0.21489119557E+03  0.47000000000E+01 0. -1.
         -5    1    3    3    0  502 -0.55761488831E+01 -0.75236390499E+02 -0.13041786543E+03  0.15073990021E+03  0.47000000000E+01 0. -1.
        -11    1    1    2    0    0  0.33941581748E+02 -0.17237532539E+02 -0.45668544925E+02  0.59454011599E+02  0.00000000000E+00 0. -1.
         11    1    1    2    0    0 -0.21081446915E+02  0.53071443556E+02 -0.12231264152E+03  0.13498662082E+03  0.00000000000E+00 0.  1.
<mgrwt>
<rscale>  0 0.12157175E+03</rscale>
<asrwt>0</asrwt>
<pdfrwt beam="1">  1        3 0.38925174E-02 0.13066051E+03</pdfrwt>
<pdfrwt beam="2">  1       -3 0.82272363E-01 0.13066051E+03</pdfrwt>
<totfact> 0.10890731E+03</totfact>
</mgrwt>
</event>
<event>
 7    1  0.4230786E-006  0.1328730E+03  0.7546771E-02  0.1234113E+00
          1   -1    0    0  501    0  0.00000000000E+00  0.00000000000E+00  0.12743855573E+03  0.12743855573E+03  0.00000000000E+00 0. -1.
         -1   -1    0    0    0  501 -0.00000000000E+00 -0.00000000000E+00 -0.11777827776E+03  0.11777827776E+03  0.00000000000E+00 0.  1.
         23    2    1    2    0    0 -0.43033376893E+02 -0.31079788726E+02 -0.21513869095E+02  0.13460345154E+03  0.12180893977E+03 0.  0.
          5    1    3    3  502    0 -0.68360469831E+02  0.23544602968E+02 -0.13044991188E+02  0.73619046174E+02  0.47000000000E+01 0. -1.
         -5    1    3    3    0  502  0.25327092938E+02 -0.54624391694E+02 -0.84688779074E+01  0.60984405364E+02  0.47000000000E+01 0.  1.
        -11    1    1    2    0    0  0.57561351853E+02  0.31616654759E+02  0.52998301857E+02  0.84390414651E+02  0.00000000000E+00 0.  1.
         11    1    1    2    0    0 -0.14527974959E+02 -0.53686603308E+00 -0.21824154790E+02  0.26222967297E+02  0.00000000000E+00 0. -1.
<mgrwt>
<rscale>  0 0.12561363E+03</rscale>
<asrwt>0</asrwt>
<pdfrwt beam="1">  1        1 0.19605932E-01 0.13287303E+03</pdfrwt>
<pdfrwt beam="2">  1       -1 0.18119735E-01 0.13287303E+03</pdfrwt>
<totfact> 0.58991499E+03</totfact>
</mgrwt>
</event>
<event>
 6    1  0.4230786E-006  0.1942907E+03  0.7546771E-02  0.1173592E+00
          1   -1    0    0  501    0  0.00000000000E+00  0.00000000000E+00  0.29115749845E+03  0.29115749845E+03  0.00000000000E+00 0. -1.
         -1   -1    0    0    0  501 -0.00000000000E+00 -0.00000000000E+00 -0.16976423350E+03  0.16976423350E+03  0.00000000000E+00 0.  1.
          5    1    1    2  502    0 -0.76047102025E+01  0.38362191252E+02  0.43020412080E+02  0.58329539605E+02  0.47000000000E+01 0. -1.
         -5    1    1    2    0  502  0.79697035810E+02  0.98598252253E+01 -0.13380716775E+03  0.15612585247E+03  0.47000000000E+01 0.  1.
        -11    1    1    2    0    0 -0.15741821535E+02 -0.58507701564E+02  0.15076677608E+03  0.16248562047E+03  0.00000000000E+00 0.  1.
         11    1    1    2    0    0 -0.56350504072E+02  0.10285685087E+02  0.61413244531E+02  0.83980719399E+02  0.00000000000E+00 0. -1.
<mgrwt>
<rscale>  0 0.17414615E+03</rscale>
<asrwt>0</asrwt>
<pdfrwt beam="1">  1        1 0.44793461E-01 0.19429071E+03</pdfrwt>
<pdfrwt beam="2">  1       -1 0.26117574E-01 0.19429071E+03</pdfrwt>
<totfact> 0.11727229E+03</totfact>
</mgrwt>
</event>
<event>
 7    1  0.4230786E-006  0.1620817E+03  0.7546771E-02  0.1193851E+00
         -2   -1    0    0    0  501 -0.00000000000E+00  0.00000000000E+00  0.18222998415E+03  0.18222998415E+03  0.00000000000E+00 0.  1.
          2   -1    0    0  501    0  0.00000000000E+00 -0.00000000000E+00 -0.13531997850E+03  0.13531997850E+03  0.00000000000E+00 0. -1.
         23    2    1    2    0    0  0.10037770996E+03  0.23872863954E+02  0.72914677577E+02  0.17772742275E+03  0.12499955321E+03 0.  0.
          5    1    3    3  502    0  0.23466237563E+01  0.44147862513E+02  0.62880450562E+02  0.77010268603E+02  0.47000000000E+01 0.  1.
         -5    1    3    3    0  502  0.98031086201E+02 -0.20274998558E+02  0.10034227015E+02  0.10071715415E+03  0.47000000000E+01 0.  1.
        -11    1    1    2    0    0  0.13156868095E+02 -0.87805148685E+01  0.11218666578E+02  0.19392243275E+02  0.00000000000E+00 0.  1.
         11    1    1    2    0    0 -0.11353457805E+03 -0.15092349086E+02 -0.37223338508E+02  0.12043029662E+03  0.00000000000E+00 0. -1.
<mgrwt>
<rscale>  0 0.15551913E+03</rscale>
<asrwt>0</asrwt>
<pdfrwt beam="2">  1        2 0.20818458E-01 0.16208173E+03</pdfrwt>
<pdfrwt beam="1">  1       -2 0.28035382E-01 0.16208173E+03</pdfrwt>
<totfact> 0.29839106E+03</totfact>
</mgrwt>
</event>
<event>
 7    1  0.4230786E-006  0.1753750E+03  0.7546771E-02  0.1179953E+00
         -1   -1    0    0    0  501 -0.00000000000E+00  0.00000000000E+00  0.45768821143E+02  0.45768821143E+02  0.00000000000E+00 0.  1.
          1   -1    0    0  501    0  0.00000000000E+00 -0.00000000000E+00 -0.57950967077E+03  0.57950967077E+03  0.00000000000E+00 0. -1.
         23    2    1    2    0    0  0.11920057065E+03  0.30379701492E+02 -0.24956799328E+03  0.30502553590E+03  0.12499876790E+03 0.  0.
          5    1    3    3  502    0  0.92764664438E+02 -0.10179436546E+02 -0.23704684422E+03  0.25479835213E+03  0.47000000000E+01 0.  1.
         -5    1    3    3    0  502  0.26435906214E+02  0.40559138038E+02 -0.12521149066E+02  0.50227183772E+02  0.47000000000E+01 0.  1.
        -11    1    1    2    0    0 -0.52483479818E+02 -0.54204472210E+02 -0.16831734864E+03  0.18445424992E+03  0.00000000000E+00 0. -1.
         11    1    1    2    0    0 -0.66717090834E+02  0.23824770718E+02 -0.11585550771E+03  0.13579870609E+03  0.00000000000E+00 0.  1.
<mgrwt>
<rscale>  0 0.16799723E+03</rscale>
<asrwt>0</asrwt>
<pdfrwt beam="2">  1        1 0.89155336E-01 0.17537501E+03</pdfrwt>
<pdfrwt beam="1">  1       -1 0.70413570E-02 0.17537501E+03</pdfrwt>
<totfact> 0.37948919E+03</totfact>
</mgrwt>
</event>
<event>
 7    1  0.4230786E-006  0.1294067E+03  0.7546771E-02  0.1242735E+00
          1   -1    0    0  501    0  0.00000000000E+00  0.00000000000E+00  0.45799764100E+03  0.45799764100E+03  0.00000000000E+00 0. -1.
         -1   -1    0    0    0  501 -0.00000000000E+00 -0.00000000000E+00 -0.31439439509E+02  0.31439439509E+02  0.00000000000E+00 0.  1.
         23    2    1    2    0    0 -0.28753505403E+02  0.17165193612E+02  0.15875338194E+03  0.20481391712E+03  0.12499878569E+03 0.  0.
          5    1    3    3  502    0  0.40332692974E+02 -0.23901390824E+02  0.42817727821E+02  0.63666713608E+02  0.47000000000E+01 0. -1.
         -5    1    3    3    0  502 -0.69086198377E+02  0.41066584436E+02  0.11593565411E+03  0.14114720351E+03  0.47000000000E+01 0. -1.
        -11    1    1    2    0    0 -0.10341437287E+02  0.28695834422E+02  0.49412440888E+02  0.58068800167E+02  0.00000000000E+00 0.  1.
         11    1    1    2    0    0  0.39094942690E+02 -0.45861028034E+02  0.21839237867E+03  0.22655436323E+03  0.00000000000E+00 0. -1.
<mgrwt>
<rscale>  0 0.12021953E+03</rscale>
<asrwt>0</asrwt>
<pdfrwt beam="1">  1        1 0.70461171E-01 0.12940674E+03</pdfrwt>
<pdfrwt beam="2">  1       -1 0.48368372E-02 0.12940674E+03</pdfrwt>
<totfact> 0.89178023E+03</totfact>
</mgrwt>
</event>
<event>
 7    1  0.4230786E-006  0.2015386E+03  0.7546771E-02  0.1151115E+00
          1   -1    0    0  501    0  0.00000000000E+00  0.00000000000E+00  0.43835126880E+03  0.43835126880E+03  0.00000000000E+00 0. -1.
         -1   -1    0    0    0  501 -0.00000000000E+00 -0.00000000000E+00 -0.17039648222E+03  0.17039648222E+03  0.00000000000E+00 0.  1.
         23    2    1    2    0    0  0.80537429194E+02  0.13610102834E+03 -0.76653316873E+02  0.21562362379E+03  0.12493217652E+03 0.  0.
          5    1    3    3  502    0  0.80361212478E+02  0.70584608935E+02  0.92781088378E+01  0.10746294614E+03  0.47000000000E+01 0.  1.
         -5    1    3    3    0  502  0.17621671645E+00  0.65516419406E+02 -0.85931425711E+02  0.10816067765E+03  0.47000000000E+01 0.  1.
        -11    1    1    2    0    0  0.22872340945E+02 -0.48166796780E+02  0.90899575994E+02  0.10538461562E+03  0.00000000000E+00 0. -1.
         11    1    1    2    0    0 -0.10340977014E+03 -0.87934231562E+02  0.25370852746E+03  0.28773951162E+03  0.00000000000E+00 0.  1.
<mgrwt>
<rscale>  0 0.19837718E+03</rscale>
<asrwt>0</asrwt>
<pdfrwt beam="1">  1        1 0.67438656E-01 0.20153862E+03</pdfrwt>
<pdfrwt beam="2">  1       -1 0.26214844E-01 0.20153862E+03</pdfrwt>
<totfact> 0.69431388E+02</totfact>
</mgrwt>
</event>
<event>
 7    1  0.4230786E-006  0.1474823E+03  0.7546771E-02  0.1213075E+00
         -1   -1    0    0    0  501 -0.00000000000E+00  0.00000000000E+00  0.76033994744E+02  0.76033994744E+02  0.00000000000E+00 0.  1.
          1   -1    0    0  501    0  0.00000000000E+00 -0.00000000000E+00 -0.25080756171E+03  0.25080756171E+03  0.00000000000E+00 0. -1.
         23    2    1    2    0    0  0.30840875930E+02  0.71959827226E+02 -0.56121978530E+02  0.15779959988E+03  0.12498664282E+03 0.  0.
          5    1    3    3  502    0 -0.65178900333E+01 -0.25746188560E+02  0.15339694265E+02  0.31028137811E+02  0.47000000000E+01 0.  1.
         -5    1    3    3    0  502  0.37358765963E+02  0.97706015787E+02 -0.71461672796E+02  0.12677146206E+03  0.47000000000E+01 0.  1.
        -11    1    1    2    0    0 -0.48767027681E+02 -0.10831857679E+02 -0.25220799288E+02  0.55961065450E+02  0.00000000000E+00 0.  1.
         11    1    1    2    0    0  0.17926151751E+02 -0.61127969548E+02 -0.93430789153E+02  0.11308089113E+03  0.00000000000E+00 0. -1.
<mgrwt>
<rscale>  0 0.14018924E+03</rscale>
<asrwt>0</asrwt>
<pdfrwt beam="2">  1        1 0.38585779E-01 0.14748233E+03</pdfrwt>
<pdfrwt beam="1">  1       -1 0.11697538E-01 0.14748233E+03</pdfrwt>
<totfact> 0.50465785E+03</totfact>
</mgrwt>
</event>
<event>
 7    1  0.4230786E-006  0.1961202E+03  0.7546771E-02  0.1157425E+00
          2   -1    0    0  501    0  0.00000000000E+00  0.00000000000E+00  0.38507262999E+02  0.38507262999E+02  0.00000000000E+00 0. -1.
         -2   -1    0    0    0  501 -0.00000000000E+00 -0.00000000000E+00 -0.13187564015E+04  0.13187564015E+04  0.00000000000E+00 0.  1.
         23    2    1    2    0    0 -0.86058095947E+02  0.12422359075E+03 -0.10429348127E+04  0.10612144647E+04  0.12500248098E+03 0.  0.
          5    1    3    3  502    0 -0.48465044839E+02  0.54251458350E+02 -0.17412972079E+03  0.18877322630E+03  0.47000000000E+01 0.  1.
         -5    1    3    3    0  502 -0.37593051108E+02  0.69972132400E+02 -0.86880509191E+03  0.87244123844E+03  0.47000000000E+01 0.  1.
        -11    1    1    2    0    0  0.83593613152E+02 -0.41433789739E+02 -0.11101644294E+03  0.14501483267E+03  0.00000000000E+00 0.  1.
         11    1    1    2    0    0  0.24644827952E+01 -0.82789801010E+02 -0.12629788286E+03  0.15103436708E+03  0.00000000000E+00 0. -1.
<mgrwt>
<rscale>  0 0.19115321E+03</rscale>
<asrwt>0</asrwt>
<pdfrwt beam="1">  1        2 0.59241950E-02 0.19612016E+03</pdfrwt>
<pdfrwt beam="2">  1       -2 0.20288558E+00 0.19612016E+03</pdfrwt>
<totfact> 0.17356312E+02</totfact>
</mgrwt>
</event>
<event>
 7    1  0.4230786E-006  0.1331970E+03  0.7546771E-02  0.1235288E+00
          1   -1    0    0  501    0  0.00000000000E+00  0.00000000000E+00  0.28896801136E+03  0.28896801136E+03  0.00000000000E+00 0. -1.
         -1   -1    0    0    0  501 -0.00000000000E+00 -0.00000000000E+00 -0.52390683351E+02  0.52390683351E+02  0.00000000000E+00 0.  1.
         23    2    1    2    0    0 -0.24144849828E+02 -0.39162762349E+02  0.84406538698E+02  0.15768926911E+03  0.12499898435E+03 0.  0.
          5    1    3    3  502    0 -0.70099426058E+02 -0.45971283735E+02  0.68506827326E+02  0.10836311112E+03  0.47000000000E+01 0. -1.
         -5    1    3    3    0  502  0.45954576231E+02  0.68085213867E+01  0.15899711372E+02  0.49326157987E+02  0.47000000000E+01 0. -1.
        -11    1    1    2    0    0 -0.45093322500E+01  0.34777825882E+02  0.71635005493E+01  0.35793113731E+02  0.00000000000E+00 0.  1.
         11    1    1    2    0    0  0.28654182078E+02  0.43849364665E+01  0.14500728876E+03  0.14787631187E+03  0.00000000000E+00 0. -1.
<mgrwt>
<rscale>  0 0.12486016E+03</rscale>
<asrwt>0</asrwt>
<pdfrwt beam="1">  1        1 0.44456616E-01 0.13319700E+03</pdfrwt>
<pdfrwt beam="2">  1       -1 0.80601053E-02 0.13319700E+03</pdfrwt>
<totfact> 0.74282643E+03</totfact>
</mgrwt>
</event>
<event>
 7    1  0.4249831E-006  0.1715579E+03  0.7546771E-02  0.1182727E+00
         -1   -1    0    0    0  501 -0.00000000000E+00  0.00000000000E+00  0.56194418051E+02  0.56194418051E+02  0.00000000000E+00 0.  1.
          1   -1    0    0  501    0  0.00000000000E+00 -0.00000000000E+00 -0.47983815789E+03  0.47983815789E+03  0.00000000000E+00 0. -1.
         23    2    1    2    0    0 -0.76901030409E+02  0.88845567027E+02 -0.16561061617E+03  0.23845126376E+03  0.12499930297E+03 0.  0.
          5    1    3    3  502    0  0.11139990788E+02 -0.17124668053E+02  0.24286894000E+01  0.21103132063E+02  0.47000000000E+01 0.  1.
         -5    1    3    3    0  502 -0.88041021197E+02  0.10597023508E+03 -0.16803930557E+03  0.21734813170E+03  0.47000000000E+01 0.  1.
        -11    1    1    2    0    0 -0.40897093329E+01 -0.47914476370E+02 -0.44308122925E+02  0.65389085675E+02  0.00000000000E+00 0. -1.
         11    1    1    2    0    0  0.80990739742E+02 -0.40931090657E+02 -0.21372500074E+03  0.23219222650E+03  0.00000000000E+00 0.  1.
<mgrwt>
<rscale>  0 0.16540386E+03</rscale>
<asrwt>0</asrwt>
<pdfrwt beam="2">  1        1 0.73821253E-01 0.17155795E+03</pdfrwt>
<pdfrwt beam="1">  1       -1 0.86452953E-02 0.17155795E+03</pdfrwt>
<totfact> 0.35711412E+03</totfact>
</mgrwt>
</event>
<event>
 7    1  0.4230786E-006  0.1353282E+03  0.7546771E-02  0.1230926E+00
         -2   -1    0    0    0  501 -0.00000000000E+00  0.00000000000E+00  0.87252456693E+02  0.87252456693E+02  0.00000000000E+00 0.  1.
          2   -1    0    0  501    0  0.00000000000E+00 -0.00000000000E+00 -0.19627042702E+03  0.19627042702E+03  0.00000000000E+00 0. -1.
         23    2    1    2    0    0 -0.37900619111E+02 -0.35438871531E+02 -0.70257239588E+01  0.13551043323E+03  0.12498538384E+03 0.  0.
          5    1    3    3  502    0  0.23006939627E+02  0.21960609353E+02 -0.34633951631E+02  0.47256621121E+02  0.47000000000E+01 0.  1.
         -5    1    3    3    0  502 -0.60907558738E+02 -0.57399480884E+02  0.27608227672E+02  0.88253812113E+02  0.47000000000E+01 0.  1.
        -11    1    1    2    0    0  0.51022034912E+02  0.49449379146E+02 -0.10675166523E+03  0.12823574842E+03  0.00000000000E+00 0. -1.
         11    1    1    2    0    0 -0.13121415801E+02 -0.14010507616E+02  0.47594188629E+01  0.19776702055E+02  0.00000000000E+00 0.  1.
<mgrwt>
<rscale>  0 0.12768894E+03</rscale>
<asrwt>0</asrwt>
<pdfrwt beam="2">  1        2 0.30195450E-01 0.13532818E+03</pdfrwt>
<pdfrwt beam="1">  1       -2 0.13423455E-01 0.13532818E+03</pdfrwt>
<totfact> 0.68053648E+03</totfact>
</mgrwt>
</event>
<event>
 7    1  0.4230786E-006  0.1255143E+03  0.7546771E-02  0.1250853E+00
          1   -1    0    0  501    0  0.00000000000E+00  0.00000000000E+00  0.11665523397E+03  0.11665523397E+03  0.00000000000E+00 0. -1.
         -1   -1    0    0    0  501 -0.00000000000E+00 -0.00000000000E+00 -0.10168301079E+03  0.10168301079E+03  0.00000000000E+00 0.  1.
         23    2    1    2    0    0 -0.57696893700E+00 -0.11277539773E+02 -0.77747460208E+01  0.12575482144E+03  0.12500525046E+03 0.  0.
          5    1    3    3  502    0  0.17243621947E+02 -0.36042564370E+02 -0.55723223191E+02  0.68728280548E+02  0.47000000000E+01 0. -1.
         -5    1    3    3    0  502 -0.17820590884E+02  0.24765024597E+02  0.47948477171E+02  0.57026540889E+02  0.47000000000E+01 0. -1.
        -11    1    1    2    0    0  0.87271570156E+01 -0.26869332814E+02 -0.20075672728E+02  0.34657711277E+02  0.00000000000E+00 0.  1.
         11    1    1    2    0    0 -0.81501880786E+01  0.38146872587E+02  0.42822641932E+02  0.57925712045E+02  0.00000000000E+00 0. -1.
<mgrwt>
<rscale>  0 0.11541786E+03</rscale>
<asrwt>0</asrwt>
<pdfrwt beam="1">  1        1 0.17946959E-01 0.12551426E+03</pdfrwt>
<pdfrwt beam="2">  1       -1 0.15643540E-01 0.12551426E+03</pdfrwt>
<totfact> 0.82922704E+03</totfact>
</mgrwt>
</event>
<event>
 7    1  0.4230786E-006  0.1360266E+03  0.7546771E-02  0.1232601E+00
          1   -1    0    0  501    0  0.00000000000E+00  0.00000000000E+00  0.29084547695E+03  0.29084547695E+03  0.00000000000E+00 0. -1.
         -1   -1    0    0    0  501 -0.00000000000E+00 -0.00000000000E+00 -0.56230242453E+02  0.56230242453E+02  0.00000000000E+00 0.  1.
         23    2    1    2    0    0 -0.44510769368E+02  0.29961747530E+02  0.68939376462E+02  0.15249879204E+03  0.12499731614E+03 0.  0.
          5    1    3    3  502    0  0.60239092138E+01  0.33701435041E+01  0.90792512127E+02  0.91175740237E+02  0.47000000000E+01 0.  1.
         -5    1    3    3    0  502 -0.50534678582E+02  0.26591604026E+02 -0.21853135665E+02  0.61323051803E+02  0.47000000000E+01 0.  1.
        -11    1    1    2    0    0  0.15261349516E+02  0.10949695158E+02 -0.25856909394E+01  0.18960232349E+02  0.00000000000E+00 0.  1.
         11    1    1    2    0    0  0.29249419853E+02 -0.40911442687E+02  0.16826154898E+03  0.17561669502E+03  0.00000000000E+00 0. -1.
<mgrwt>
<rscale>  0 0.12659254E+03</rscale>
<asrwt>0</asrwt>
<pdfrwt beam="1">  1        1 0.44745457E-01 0.13602663E+03</pdfrwt>
<pdfrwt beam="2">  1       -1 0.86508067E-02 0.13602663E+03</pdfrwt>
<totfact> 0.66310691E+03</totfact>
</mgrwt>
</event>
<event>
 7    1  0.4230786E-006  0.1410424E+03  0.7546771E-02  0.1222734E+00
         -1   -1    0    0    0  501 -0.00000000000E+00  0.00000000000E+00  0.33264477980E+02  0.33264477980E+02  0.00000000000E+00 0.  1.
          1   -1    0    0  501    0  0.00000000000E+00 -0.00000000000E+00 -0.49243540575E+03  0.49243540575E+03  0.00000000000E+00 0. -1.
         23    2    1    2    0    0 -0.20887259560E+02 -0.61912757668E+02 -0.21780156490E+03  0.25948117953E+03  0.12499397458E+03 0.  0.
          5    1    3    3  502    0 -0.52816519319E+02 -0.49554362880E+02 -0.21245765542E+03  0.22451183697E+03  0.47000000000E+01 0. -1.
         -5    1    3    3    0  502  0.31929259758E+02 -0.12358394788E+02 -0.53439094816E+01  0.34969342559E+02  0.47000000000E+01 0. -1.
        -11    1    1    2    0    0  0.41468028612E+02 -0.46416771949E+01 -0.10735751337E+03  0.11518150130E+03  0.00000000000E+00 0.  1.
         11    1    1    2    0    0 -0.20580769051E+02  0.66554434862E+02 -0.13401184950E+03  0.15103720290E+03  0.00000000000E+00 0. -1.
<mgrwt>
<rscale>  0 0.13323415E+03</rscale>
<asrwt>0</asrwt>
<pdfrwt beam="2">  1        1 0.75759287E-01 0.14104241E+03</pdfrwt>
<pdfrwt beam="1">  1       -1 0.51176124E-02 0.14104241E+03</pdfrwt>
<totfact> 0.75125698E+03</totfact>
</mgrwt>
</event>
<event>
 6    1  0.4230786E-006  0.1724803E+03  0.7546771E-02  0.1190273E+00
         -3   -1    0    0    0  501 -0.00000000000E+00  0.00000000000E+00  0.48835491897E+03  0.48835491897E+03  0.00000000000E+00 0.  1.
          3   -1    0    0  501    0  0.00000000000E+00 -0.00000000000E+00 -0.59581550336E+02  0.59581550336E+02  0.00000000000E+00 0. -1.
          5    1    1    2  502    0 -0.22369788289E+02  0.12353380217E+03  0.24475937051E+03  0.27511860562E+03  0.47000000000E+01 0. -1.
         -5    1    1    2    0  502  0.11728642992E+02 -0.42561384742E+02  0.13144106229E+03  0.13873671250E+03  0.47000000000E+01 0.  1.
        -11    1    1    2    0    0  0.36195261949E+02 -0.97658337884E+00  0.24705352811E+01  0.36292619735E+02  0.00000000000E+00 0.  1.
         11    1    1    2    0    0 -0.25554116651E+02 -0.79995834047E+02  0.50102400546E+02  0.97788531450E+02  0.00000000000E+00 0. -1.
<mgrwt>
<rscale>  0 0.15861144E+03</rscale>
<asrwt>0</asrwt>
<pdfrwt beam="2">  1        3 0.91663927E-02 0.17248031E+03</pdfrwt>
<pdfrwt beam="1">  1       -3 0.75131523E-01 0.17248031E+03</pdfrwt>
<totfact> 0.34962253E+02</totfact>
</mgrwt>
</event>
<event>
 7    1  0.4230786E-006  0.1424166E+03  0.7546771E-02  0.1220340E+00
          2   -1    0    0  501    0  0.00000000000E+00  0.00000000000E+00  0.72902954474E+03  0.72902954474E+03  0.00000000000E+00 0. -1.
         -2   -1    0    0    0  501 -0.00000000000E+00 -0.00000000000E+00 -0.22901317831E+02  0.22901317831E+02  0.00000000000E+00 0.  1.
         23    2    1    2    0    0  0.66377239747E+02 -0.15734252581E+02  0.35316915677E+03  0.38080300710E+03  0.12501588804E+03 0.  0.
          5    1    3    3  502    0  0.95907735696E+02  0.84713598421E+01  0.18871839620E+03  0.21191220061E+03  0.47000000000E+01 0. -1.
         -5    1    3    3    0  502 -0.29530495949E+02 -0.24205612423E+02  0.16445076057E+03  0.16889080649E+03  0.47000000000E+01 0. -1.
        -11    1    1    2    0    0 -0.33254360029E+00 -0.25749140023E+02  0.33319443206E+02  0.42110736075E+02  0.00000000000E+00 0.  1.
         11    1    1    2    0    0 -0.66044696147E+02  0.41483392604E+02  0.31963962693E+03  0.32901711939E+03  0.00000000000E+00 0. -1.
<mgrwt>
<rscale>  0 0.13491491E+03</rscale>
<asrwt>0</asrwt>
<pdfrwt beam="1">  1        2 0.11215837E+00 0.14241656E+03</pdfrwt>
<pdfrwt beam="2">  1       -2 0.35232802E-02 0.14241656E+03</pdfrwt>
<totfact> 0.12711526E+04</totfact>
</mgrwt>
</event>
<event>
 7    1  0.4230786E-006  0.1295860E+03  0.7546771E-02  0.1234825E+00
         -2   -1    0    0    0  501 -0.00000000000E+00  0.00000000000E+00  0.23294828949E+02  0.23294828949E+02  0.00000000000E+00 0.  1.
          2   -1    0    0  501    0  0.00000000000E+00 -0.00000000000E+00 -0.64213884029E+03  0.64213884029E+03  0.00000000000E+00 0. -1.
         23    2    1    2    0    0 -0.58870449196E+02  0.22896094093E+02 -0.28542293486E+03  0.31346256582E+03  0.11314843135E+03 0.  0.
          5    1    3    3  502    0 -0.54132762468E+02 -0.20876231555E+01 -0.28221367953E+03  0.28740453208E+03  0.47000000000E+01 0. -1.
         -5    1    3    3    0  502 -0.47376867282E+01  0.24983717248E+02 -0.32092553246E+01  0.26058033748E+02  0.47000000000E+01 0.  1.
        -11    1    1    2    0    0  0.25565049178E+01 -0.39297721179E+02 -0.22760111721E+03  0.23098293262E+03  0.00000000000E+00 0. -1.
         11    1    1    2    0    0  0.56313944278E+02  0.16401627087E+02 -0.10581995927E+03  0.12098817079E+03  0.00000000000E+00 0.  1.
<mgrwt>
<rscale>  0 0.12515667E+03</rscale>
<asrwt>0</asrwt>
<pdfrwt beam="2">  1        2 0.98790591E-01 0.12958599E+03</pdfrwt>
<pdfrwt beam="1">  1       -2 0.35838198E-02 0.12958599E+03</pdfrwt>
<totfact> 0.14300549E+04</totfact>
</mgrwt>
</event>
<event>
 7    1  0.4230786E-006  0.1594100E+03  0.7546771E-02  0.1197121E+00
         -1   -1    0    0    0  501 -0.00000000000E+00  0.00000000000E+00  0.22622938183E+03  0.22622938183E+03  0.00000000000E+00 0.  1.
          1   -1    0    0  501    0  0.00000000000E+00 -0.00000000000E+00 -0.12363994655E+03  0.12363994655E+03  0.00000000000E+00 0. -1.
         23    2    1    2    0    0 -0.49723457212E+02  0.85526207375E+02  0.13800948004E+03  0.21085107314E+03  0.12499761644E+03 0.  0.
          5    1    3    3  502    0  0.11913173458E+02  0.82706387854E+01  0.10566063178E+03  0.10675479509E+03  0.47000000000E+01 0. -1.
         -5    1    3    3    0  502 -0.61636630670E+02  0.77255568590E+02  0.32348848262E+02  0.10409627804E+03  0.47000000000E+01 0. -1.
        -11    1    1    2    0    0  0.59354580320E+02 -0.24068990205E+02  0.59280093515E+01  0.64322809247E+02  0.00000000000E+00 0.  1.
         11    1    1    2    0    0 -0.96311231084E+01 -0.61457217170E+02 -0.41348054103E+02  0.74695445997E+02  0.00000000000E+00 0. -1.
<mgrwt>
<rscale>  0 0.15276048E+03</rscale>
<asrwt>0</asrwt>
<pdfrwt beam="2">  1        1 0.19021530E-01 0.15941003E+03</pdfrwt>
<pdfrwt beam="1">  1       -1 0.34804520E-01 0.15941003E+03</pdfrwt>
<totfact> 0.21088319E+03</totfact>
</mgrwt>
</event>
<event>
 7    1  0.4230786E-006  0.1553439E+03  0.7546771E-02  0.1201966E+00
          1   -1    0    0  501    0  0.00000000000E+00  0.00000000000E+00  0.14536250947E+03  0.14536250947E+03  0.00000000000E+00 0. -1.
         -1   -1    0    0    0  501 -0.00000000000E+00 -0.00000000000E+00 -0.17854659503E+03  0.17854659503E+03  0.00000000000E+00 0.  1.
         23    2    1    2    0    0  0.70224775700E+02  0.59779516484E+02 -0.91998808700E+02  0.18054227748E+03  0.12500649361E+03 0.  0.
          5    1    3    3  502    0  0.42967684577E+02 -0.21342801308E+02  0.79718922219E+01  0.48860803833E+02  0.47000000000E+01 0.  1.
         -5    1    3    3    0  502  0.27257091123E+02  0.81122317792E+02 -0.99970700921E+02  0.13168147365E+03  0.47000000000E+01 0.  1.
        -11    1    1    2    0    0 -0.73803652504E+02 -0.54100879821E+01  0.46838526679E+02  0.87579082870E+02  0.00000000000E+00 0. -1.
         11    1    1    2    0    0  0.35788768038E+01 -0.54369428502E+02  0.11976196458E+02  0.55787744141E+02  0.00000000000E+00 0.  1.
<mgrwt>
<rscale>  0 0.14879178E+03</rscale>
<asrwt>0</asrwt>
<pdfrwt beam="1">  1        1 0.22363463E-01 0.15534392E+03</pdfrwt>
<pdfrwt beam="2">  1       -1 0.27468707E-01 0.15534392E+03</pdfrwt>
<totfact> 0.25590299E+03</totfact>
</mgrwt>
</event>
<event>
 7    1  0.4230786E-006  0.1657349E+03  0.7546771E-02  0.1190439E+00
          1   -1    0    0  501    0  0.00000000000E+00  0.00000000000E+00  0.16011217910E+03  0.16011217910E+03  0.00000000000E+00 0. -1.
         -1   -1    0    0    0  501 -0.00000000000E+00 -0.00000000000E+00 -0.16565471523E+03  0.16565471523E+03  0.00000000000E+00 0.  1.
         23    2    1    2    0    0 -0.10145731668E+03  0.39371230731E+02 -0.60936087207E+02  0.17658217862E+03  0.12499751263E+03 0.  0.
          5    1    3    3  502    0 -0.62339551300E+02  0.17958493137E+01  0.30946999929E+02  0.69780022468E+02  0.47000000000E+01 0. -1.
         -5    1    3    3    0  502 -0.39117765383E+02  0.37575381417E+02 -0.91883087136E+02  0.10680215615E+03  0.47000000000E+01 0. -1.
        -11    1    1    2    0    0  0.81772741354E+02 -0.65829784637E+02  0.36290963047E+02  0.11107374025E+03  0.00000000000E+00 0.  1.
         11    1    1    2    0    0  0.19684575329E+02  0.26458553906E+02  0.19102588035E+02  0.38110975458E+02  0.00000000000E+00 0. -1.
<mgrwt>
<rscale>  0 0.15846676E+03</rscale>
<asrwt>0</asrwt>
<pdfrwt beam="1">  1        1 0.24632643E-01 0.16573491E+03</pdfrwt>
<pdfrwt beam="2">  1       -1 0.25485341E-01 0.16573491E+03</pdfrwt>
<totfact> 0.25713496E+03</totfact>
</mgrwt>
</event>
<event>
 7    1  0.4230786E-006  0.1397733E+03  0.7546771E-02  0.1224783E+00
         -1   -1    0    0    0  501 -0.00000000000E+00  0.00000000000E+00  0.38013245860E+02  0.38013245860E+02  0.00000000000E+00 0.  1.
          1   -1    0    0  501    0  0.00000000000E+00 -0.00000000000E+00 -0.49697603854E+03  0.49697603854E+03  0.00000000000E+00 0. -1.
         23    2    1    2    0    0  0.62405124419E+02 -0.42344284781E+01 -0.14180374903E+03  0.19911020897E+03  0.12499696851E+03 0.  0.
          5    1    3    3  502    0 -0.96267910802E+01  0.18134811463E+01  0.19480445705E+02  0.22305640212E+02  0.47000000000E+01 0.  1.
         -5    1    3    3    0  502  0.72031915499E+02 -0.60479096244E+01 -0.16128419473E+03  0.17680456875E+03  0.47000000000E+01 0.  1.
        -11    1    1    2    0    0  0.14827020945E+02  0.18327652139E+02 -0.29846603486E+02  0.38033710347E+02  0.00000000000E+00 0.  1.
         11    1    1    2    0    0 -0.77232145364E+02 -0.14093223661E+02 -0.28731244017E+03  0.29784536509E+03  0.00000000000E+00 0. -1.
<mgrwt>
<rscale>  0 0.13181771E+03</rscale>
<asrwt>0</asrwt>
<pdfrwt beam="2">  1        1 0.76457845E-01 0.13977329E+03</pdfrwt>
<pdfrwt beam="1">  1       -1 0.58481922E-02 0.13977329E+03</pdfrwt>
<totfact> 0.60851894E+03</totfact>
</mgrwt>
</event>
<event>
 7    1  0.4230786E-006  0.2632771E+03  0.7546771E-02  0.1107303E+00
         -1   -1    0    0    0  501 -0.00000000000E+00  0.00000000000E+00  0.23600735468E+03  0.23600735468E+03  0.00000000000E+00 0.  1.
          1   -1    0    0  501    0  0.00000000000E+00 -0.00000000000E+00 -0.28195861185E+03  0.28195861185E+03  0.00000000000E+00 0. -1.
         23    2    1    2    0    0 -0.22631531644E+03 -0.49712842212E+02 -0.52629102320E+02  0.26848588672E+03  0.12499943927E+03 0.  0.
          5    1    3    3  502    0 -0.15507044621E+03 -0.72503072733E+02 -0.79585111068E+02  0.18883701636E+03  0.47000000000E+01 0.  1.
         -5    1    3    3    0  502 -0.71244870232E+02  0.22790230522E+02  0.26956008748E+02  0.79648870357E+02  0.47000000000E+01 0.  1.
        -11    1    1    2    0    0  0.21604399311E+03  0.54974376433E+02  0.28550633273E+02  0.22474947761E+03  0.00000000000E+00 0.  1.
         11    1    1    2    0    0  0.10271323329E+02 -0.52615342212E+01 -0.21872788117E+02  0.24730602203E+02  0.00000000000E+00 0. -1.
<mgrwt>
<rscale>  0 0.25973466E+03</rscale>
<asrwt>0</asrwt>
<pdfrwt beam="2">  1        1 0.43378248E-01 0.26327713E+03</pdfrwt>
<pdfrwt beam="1">  1       -1 0.36308824E-01 0.26327713E+03</pdfrwt>
<totfact> 0.69722903E+02</totfact>
</mgrwt>
</event>
<event>
 7    1  0.7611540E-006  0.1549313E+03  0.7546771E-02  0.1202191E+00
         -1   -1    0    0    0  501 -0.00000000000E+00  0.00000000000E+00  0.16302631330E+03  0.16302631330E+03  0.00000000000E+00 0.  1.
          1   -1    0    0  501    0  0.00000000000E+00 -0.00000000000E+00 -0.13322430744E+03  0.13322430744E+03  0.00000000000E+00 0. -1.
         23    2    1    2    0    0  0.57197519721E+02  0.71465061497E+02  0.51602921370E+02  0.16329898363E+03  0.12499954114E+03 0.  0.
          5    1    3    3  502    0  0.81182354695E+02  0.42790609113E+02  0.75289305946E+02  0.11879469909E+03  0.47000000000E+01 0. -1.
         -5    1    3    3    0  502 -0.23984834974E+02  0.28674452384E+02 -0.23686384575E+02  0.44504284541E+02  0.47000000000E+01 0. -1.
        -11    1    1    2    0    0 -0.10155681081E+02 -0.78064891903E+02 -0.30928039330E+02  0.84580191670E+02  0.00000000000E+00 0.  1.
         11    1    1    2    0    0 -0.47041838640E+02  0.65998304062E+01  0.91271238182E+01  0.48371445432E+02  0.00000000000E+00 0. -1.
<mgrwt>
<rscale>  0 0.14861001E+03</rscale>
<asrwt>0</asrwt>
<pdfrwt beam="2">  1        1 0.20496047E-01 0.15493126E+03</pdfrwt>
<pdfrwt beam="1">  1       -1 0.25080971E-01 0.15493126E+03</pdfrwt>
<totfact> 0.33235847E+03</totfact>
</mgrwt>
</event>
<event>
 7    1  0.4230786E-006  0.1495136E+03  0.7546771E-02  0.1210629E+00
         -2   -1    0    0    0  501 -0.00000000000E+00  0.00000000000E+00  0.16319761528E+03  0.16319761528E+03  0.00000000000E+00 0.  1.
          2   -1    0    0  501    0  0.00000000000E+00 -0.00000000000E+00 -0.11329884329E+03  0.11329884329E+03  0.00000000000E+00 0. -1.
         23    2    1    2    0    0  0.81738080181E+02 -0.69297452431E+01  0.37394355358E+02  0.15411893462E+03  0.12500069230E+03 0.  0.
          5    1    3    3  502    0  0.20939882421E+02  0.17303748394E+02  0.74008761277E+02  0.78976484665E+02  0.47000000000E+01 0.  1.
         -5    1    3    3    0  502  0.60798197761E+02 -0.24233493637E+02 -0.36614405920E+02  0.75142449958E+02  0.47000000000E+01 0.  1.
        -11    1    1    2    0    0 -0.72378271526E+02  0.16063344654E+02 -0.28431018150E+02  0.79403828772E+02  0.00000000000E+00 0. -1.
         11    1    1    2    0    0 -0.93598086553E+01 -0.91335994109E+01  0.40935434785E+02  0.42973695179E+02  0.00000000000E+00 0.  1.
<mgrwt>
<rscale>  0 0.14202543E+03</rscale>
<asrwt>0</asrwt>
<pdfrwt beam="2">  1        2 0.17430591E-01 0.14951357E+03</pdfrwt>
<pdfrwt beam="1">  1       -2 0.25107326E-01 0.14951357E+03</pdfrwt>
<totfact> 0.44219521E+03</totfact>
</mgrwt>
</event>
<event>
 7    1  0.4230786E-006  0.1523554E+03  0.7546771E-02  0.1206206E+00
         -1   -1    0    0    0  501 -0.00000000000E+00  0.00000000000E+00  0.57755217624E+02  0.57755217624E+02  0.00000000000E+00 0.  1.
          1   -1    0    0  501    0  0.00000000000E+00 -0.00000000000E+00 -0.34927222413E+03  0.34927222413E+03  0.00000000000E+00 0. -1.
         23    2    1    2    0    0  0.53281869269E+02  0.68913846897E+02 -0.12010537791E+03  0.19400377053E+03  0.12499634111E+03 0.  0.
          5    1    3    3  502    0  0.80912970595E+02  0.29966680106E+02 -0.11762714053E+03  0.14595596911E+03  0.47000000000E+01 0. -1.
         -5    1    3    3    0  502 -0.27631101326E+02  0.38947166791E+02 -0.24782373770E+01  0.48047801427E+02  0.47000000000E+01 0. -1.
        -11    1    1    2    0    0 -0.41162373340E+02 -0.24810288551E+02 -0.15434757085E+02  0.50478937422E+02  0.00000000000E+00 0.  1.
         11    1    1    2    0    0 -0.12119495929E+02 -0.44103558347E+02 -0.15597687151E+03  0.16254473380E+03  0.00000000000E+00 0. -1.
<mgrwt>
<rscale>  0 0.14542820E+03</rscale>
<asrwt>0</asrwt>
<pdfrwt beam="2">  1        1 0.53734189E-01 0.15235538E+03</pdfrwt>
<pdfrwt beam="1">  1       -1 0.88854180E-02 0.15235538E+03</pdfrwt>
<totfact> 0.51050526E+03</totfact>
</mgrwt>
</event>
<event>
 7    1  0.4230786E-006  0.1255501E+03  0.7546771E-02  0.1244317E+00
          1   -1    0    0  501    0  0.00000000000E+00  0.00000000000E+00  0.26464224080E+03  0.26464224080E+03  0.00000000000E+00 0. -1.
         -1   -1    0    0    0  501 -0.00000000000E+00 -0.00000000000E+00 -0.51062927502E+02  0.51062927502E+02  0.00000000000E+00 0.  1.
         23    2    1    2    0    0 -0.36477995426E+02  0.12434565368E+02  0.85814566272E+02  0.15207550882E+03  0.11948873601E+03 0.  0.
          5    1    3    3  502    0 -0.16331861652E+02  0.22022084836E+02  0.11312697192E+03  0.11649679696E+03  0.47000000000E+01 0. -1.
         -5    1    3    3    0  502 -0.20146133774E+02 -0.95875194677E+01 -0.27312405649E+02  0.35578711864E+02  0.47000000000E+01 0.  1.
        -11    1    1    2    0    0  0.62465786928E+02 -0.17159185173E+02  0.11954161393E+03  0.13596547221E+03  0.00000000000E+00 0. -1.
         11    1    1    2    0    0 -0.25987791502E+02  0.47246198050E+01  0.82231330999E+01  0.27664187272E+02  0.00000000000E+00 0.  1.
<mgrwt>
<rscale>  0 0.11926324E+03</rscale>
<asrwt>0</asrwt>
<pdfrwt beam="1">  1        1 0.40714190E-01 0.12555007E+03</pdfrwt>
<pdfrwt beam="2">  1       -1 0.78558351E-02 0.12555007E+03</pdfrwt>
<totfact> 0.85691487E+03</totfact>
</mgrwt>
</event>
<event>
 7    1  0.4230786E-006  0.1396768E+03  0.7546771E-02  0.1224629E+00
         -2   -1    0    0    0  501 -0.00000000000E+00  0.00000000000E+00  0.39867015568E+02  0.39867015568E+02  0.00000000000E+00 0.  1.
          2   -1    0    0  501    0  0.00000000000E+00 -0.00000000000E+00 -0.44818306755E+03  0.44818306755E+03  0.00000000000E+00 0. -1.
         23    2    1    2    0    0  0.42015836034E+02  0.46035173142E+02 -0.30854528513E+03  0.33868836937E+03  0.12500020369E+03 0.  0.
          5    1    3    3  502    0  0.40123473717E+02  0.57363021342E+02 -0.31634468311E+03  0.32403156928E+03  0.47000000000E+01 0. -1.
         -5    1    3    3    0  502  0.18923623173E+01 -0.11327848200E+02  0.77993979749E+01  0.14656800086E+02  0.47000000000E+01 0. -1.
        -11    1    1    2    0    0  0.16879276092E+02 -0.13255899015E+02  0.74469399645E+01  0.22717520440E+02  0.00000000000E+00 0.  1.
         11    1    1    2    0    0 -0.58895112126E+02 -0.32779274128E+02 -0.10721770681E+03  0.12664419331E+03  0.00000000000E+00 0. -1.
<mgrwt>
<rscale>  0 0.13192357E+03</rscale>
<asrwt>0</asrwt>
<pdfrwt beam="2">  1        2 0.68951245E-01 0.13967684E+03</pdfrwt>
<pdfrwt beam="1">  1       -2 0.61333867E-02 0.13967684E+03</pdfrwt>
<totfact> 0.95997886E+03</totfact>
</mgrwt>
</event>
<event>
 7    1  0.4230786E-006  0.1413346E+03  0.7546771E-02  0.1220410E+00
         -3   -1    0    0    0  501 -0.00000000000E+00  0.00000000000E+00  0.58120990662E+03  0.58120990662E+03  0.00000000000E+00 0.  1.
          3   -1    0    0  501    0  0.00000000000E+00 -0.00000000000E+00 -0.28902172795E+02  0.28902172795E+02  0.00000000000E+00 0. -1.
         23    2    1    2    0    0 -0.57406948104E+02  0.42906116522E+02  0.32414859380E+03  0.35362094112E+03  0.12181529709E+03 0.  0.
          5    1    3    3  502    0 -0.16532087180E+01  0.20099987852E+02 -0.30134198110E+01  0.20926378322E+02  0.47000000000E+01 0. -1.
         -5    1    3    3    0  502 -0.55753739386E+02  0.22806128670E+02  0.32716201361E+03  0.33269456279E+03  0.47000000000E+01 0.  1.
        -11    1    1    2    0    0  0.45373074831E+02  0.18138700417E+02  0.14231273445E+03  0.15046807887E+03  0.00000000000E+00 0. -1.
         11    1    1    2    0    0  0.12033873272E+02 -0.61044816939E+02  0.85846405572E+02  0.10602305943E+03  0.00000000000E+00 0.  1.
<mgrwt>
<rscale>  0 0.13486507E+03</rscale>
<asrwt>0</asrwt>
<pdfrwt beam="2">  1        3 0.44464885E-02 0.14133456E+03</pdfrwt>
<pdfrwt beam="1">  1       -3 0.89416900E-01 0.14133456E+03</pdfrwt>
<totfact> 0.74511766E+02</totfact>
</mgrwt>
</event>
<event>
 7    1  0.4230786E-006  0.1811989E+03  0.7546771E-02  0.1172047E+00
          1   -1    0    0  501    0  0.00000000000E+00  0.00000000000E+00  0.83380605629E+02  0.83380605629E+02  0.00000000000E+00 0. -1.
         -1   -1    0    0    0  501 -0.00000000000E+00 -0.00000000000E+00 -0.37160635489E+03  0.37160635489E+03  0.00000000000E+00 0.  1.
         23    2    1    2    0    0  0.12785948544E+03 -0.29703564644E+02 -0.20810778675E+03  0.27593818754E+03  0.12491069877E+03 0.  0.
          5    1    3    3  502    0  0.13978167307E+03 -0.28856155005E+02 -0.21738415616E+03  0.26009528092E+03  0.47000000000E+01 0. -1.
         -5    1    3    3    0  502 -0.11922187623E+02 -0.84740963908E+00  0.92763694100E+01  0.15842906622E+02  0.47000000000E+01 0. -1.
        -11    1    1    2    0    0 -0.53043423143E+02 -0.16155623691E+01  0.13922244352E+02  0.54863864869E+02  0.00000000000E+00 0. -1.
         11    1    1    2    0    0 -0.74816062300E+02  0.31319127014E+02 -0.94040206858E+02  0.12418490810E+03  0.00000000000E+00 0.  1.
<mgrwt>
<rscale>  0 0.17568330E+03</rscale>
<asrwt>0</asrwt>
<pdfrwt beam="1">  1        1 0.12827786E-01 0.18119888E+03</pdfrwt>
<pdfrwt beam="2">  1       -1 0.57170208E-01 0.18119888E+03</pdfrwt>
<totfact> 0.14465245E+03</totfact>
</mgrwt>
</event>
<event>
 7    1  0.4230786E-006  0.1334490E+03  0.7546771E-02  0.1236278E+00
          2   -1    0    0  501    0  0.00000000000E+00  0.00000000000E+00  0.29862494809E+03  0.29862494809E+03  0.00000000000E+00 0. -1.
         -2   -1    0    0    0  501 -0.00000000000E+00 -0.00000000000E+00 -0.48140945114E+02  0.48140945114E+02  0.00000000000E+00 0.  1.
         23    2    1    2    0    0 -0.40065386279E+02 -0.88028120726E+01  0.10357214521E+03  0.16892548541E+03  0.12698781705E+03 0.  0.
          5    1    3    3  502    0  0.42772269205E+02  0.60677858256E+00  0.62462617571E+02  0.75851854209E+02  0.47000000000E+01 0. -1.
         -5    1    3    3    0  502 -0.82837655484E+02 -0.94095906551E+01  0.41109527642E+02  0.93073631202E+02  0.47000000000E+01 0.  1.
        -11    1    1    2    0    0  0.22392288188E+02 -0.17165316956E+02  0.62748512816E+00  0.28221559385E+02  0.00000000000E+00 0.  1.
         11    1    1    2    0    0  0.17673098090E+02  0.25968129029E+02  0.14628437263E+03  0.14961884840E+03  0.00000000000E+00 0. -1.
<mgrwt>
<rscale>  0 0.12422969E+03</rscale>
<asrwt>0</asrwt>
<pdfrwt beam="1">  1        2 0.45942299E-01 0.13344898E+03</pdfrwt>
<pdfrwt beam="2">  1       -2 0.74062994E-02 0.13344898E+03</pdfrwt>
<totfact> 0.11059483E+04</totfact>
</mgrwt>
</event>
<event>
 7    1  0.4230786E-006  0.1439713E+03  0.7546771E-02  0.1218292E+00
         -1   -1    0    0    0  501 -0.00000000000E+00  0.00000000000E+00  0.22801810483E+03  0.22801810483E+03  0.00000000000E+00 0.  1.
          1   -1    0    0  501    0  0.00000000000E+00 -0.00000000000E+00 -0.79896145861E+02  0.79896145861E+02  0.00000000000E+00 0. -1.
         23    2    1    2    0    0  0.23004027061E+02  0.67621493748E+02  0.12290290698E+03  0.18929571608E+03  0.12500356757E+03 0.  0.
          5    1    3    3  502    0  0.61837435308E+02  0.35536649970E+00  0.32500731703E+02  0.70017014018E+02  0.47000000000E+01 0.  1.
         -5    1    3    3    0  502 -0.38833408246E+02  0.67266127248E+02  0.90402175273E+02  0.11927870206E+03  0.47000000000E+01 0.  1.
        -11    1    1    2    0    0 -0.40654990285E+02  0.44378673318E+01  0.15760876828E+02  0.43828394220E+02  0.00000000000E+00 0.  1.
         11    1    1    2    0    0  0.17650963224E+02 -0.72059361079E+02  0.94581751611E+01  0.74790140388E+02  0.00000000000E+00 0. -1.
<mgrwt>
<rscale>  0 0.13637480E+03</rscale>
<asrwt>0</asrwt>
<pdfrwt beam="2">  1        1 0.12291715E-01 0.14397133E+03</pdfrwt>
<pdfrwt beam="1">  1       -1 0.35079708E-01 0.14397133E+03</pdfrwt>
<totfact> 0.36475703E+03</totfact>
</mgrwt>
</event>
<event>
 7    1  0.4230786E-006  0.1565577E+03  0.7546771E-02  0.1200756E+00
         -2   -1    0    0    0  501 -0.00000000000E+00  0.00000000000E+00  0.26284882275E+02  0.26284882275E+02  0.00000000000E+00 0.  1.
          2   -1    0    0  501    0  0.00000000000E+00 -0.00000000000E+00 -0.83432244373E+03  0.83432244373E+03  0.00000000000E+00 0. -1.
         23    2    1    2    0    0 -0.78790563511E+02 -0.51730950772E+02 -0.33577531408E+03  0.37047990812E+03  0.12500502634E+03 0.  0.
          5    1    3    3  502    0 -0.10957752362E+03 -0.45260211871E+02 -0.21478449466E+03  0.24537764692E+03  0.47000000000E+01 0. -1.
         -5    1    3    3    0  502  0.30786960106E+02 -0.64707389012E+01 -0.12099081942E+03  0.12510226120E+03  0.47000000000E+01 0. -1.
        -11    1    1    2    0    0  0.78183293664E+02 -0.76135985109E+00 -0.30191705935E+03  0.31187676702E+03  0.00000000000E+00 0. -1.
         11    1    1    2    0    0  0.60726984655E+00  0.52492310623E+02 -0.17034518802E+03  0.17825065086E+03  0.00000000000E+00 0.  1.
<mgrwt>
<rscale>  0 0.14977023E+03</rscale>
<asrwt>0</asrwt>
<pdfrwt beam="2">  1        2 0.12835728E+00 0.15655766E+03</pdfrwt>
<pdfrwt beam="1">  1       -2 0.40438286E-02 0.15655766E+03</pdfrwt>
<totfact> 0.88156538E+03</totfact>
</mgrwt>
</event>
<event>
 7    1  0.4230786E-006  0.1935469E+03  0.7546771E-02  0.1159797E+00
         -1   -1    0    0    0  501 -0.00000000000E+00  0.00000000000E+00  0.94572504619E+02  0.94572504619E+02  0.00000000000E+00 0.  1.
          1   -1    0    0  501    0  0.00000000000E+00 -0.00000000000E+00 -0.45895399008E+03  0.45895399008E+03  0.00000000000E+00 0. -1.
         23    2    1    2    0    0  0.14726701697E+03  0.12157561492E+02 -0.59698850790E+02  0.20254469281E+03  0.12500007684E+03 0.  0.
          5    1    3    3  502    0  0.11910403559E+03 -0.18188202249E+02 -0.90473465952E+02  0.15074521563E+03  0.47000000000E+01 0. -1.
         -5    1    3    3    0  502  0.28162981381E+02  0.30345763741E+02  0.30774615162E+02  0.51799477176E+02  0.47000000000E+01 0. -1.
        -11    1    1    2    0    0 -0.52942267023E+02  0.39835693067E+02 -0.12565972435E+03  0.14205679288E+03  0.00000000000E+00 0. -1.
         11    1    1    2    0    0 -0.94324749944E+02 -0.51993254560E+02 -0.17902291033E+03  0.20892500902E+03  0.00000000000E+00 0.  1.
<mgrwt>
<rscale>  0 0.18852611E+03</rscale>
<asrwt>0</asrwt>
<pdfrwt beam="2">  1        1 0.70608306E-01 0.19354689E+03</pdfrwt>
<pdfrwt beam="1">  1       -1 0.14549616E-01 0.19354689E+03</pdfrwt>
<totfact> 0.16960746E+03</totfact>
</mgrwt>
</event>
<event>
 7    1  0.4230786E-006  0.1981442E+03  0.7546771E-02  0.1155158E+00
         -1   -1    0    0    0  501 -0.00000000000E+00  0.00000000000E+00  0.12081618064E+03  0.12081618064E+03  0.00000000000E+00 0.  1.
          1   -1    0    0  501    0  0.00000000000E+00 -0.00000000000E+00 -0.34598765880E+03  0.34598765880E+03  0.00000000000E+00 0. -1.
         23    2    1    2    0    0  0.76997451631E+02 -0.13307092799E+03 -0.29612327130E+02  0.20034469093E+03  0.12499850333E+03 0.  0.
          5    1    3    3  502    0 -0.25176189969E+02 -0.41068762431E+02  0.22318247665E+02  0.53298010918E+02  0.47000000000E+01 0.  1.
         -5    1    3    3    0  502  0.10217364160E+03 -0.92002165555E+02 -0.51930574795E+02  0.14704668001E+03  0.47000000000E+01 0.  1.
        -11    1    1    2    0    0 -0.44944617765E+02  0.88690172188E+02 -0.18596924514E+03  0.21088035813E+03  0.00000000000E+00 0. -1.
         11    1    1    2    0    0 -0.32052833866E+02  0.44380755799E+02 -0.95899058902E+01  0.55578790371E+02  0.00000000000E+00 0.  1.
<mgrwt>
<rscale>  0 0.19370870E+03</rscale>
<asrwt>0</asrwt>
<pdfrwt beam="2">  1        1 0.53228870E-01 0.19814415E+03</pdfrwt>
<pdfrwt beam="1">  1       -1 0.18587105E-01 0.19814415E+03</pdfrwt>
<totfact> 0.16481240E+03</totfact>
</mgrwt>
</event>
<event>
 6    1  0.4230786E-006  0.1891499E+03  0.7546771E-02  0.1188963E+00
         -1   -1    0    0    0  501 -0.00000000000E+00  0.00000000000E+00  0.19960880005E+02  0.19960880005E+02  0.00000000000E+00 0.  1.
          1   -1    0    0  501    0  0.00000000000E+00 -0.00000000000E+00 -0.10528884128E+04  0.10528884128E+04  0.00000000000E+00 0. -1.
          5    1    1    2  502    0  0.55171144195E+02 -0.34245428073E+02 -0.57657998831E+03  0.58024406711E+03  0.47000000000E+01 0. -1.
         -5    1    1    2    0  502 -0.31614615028E+02  0.18520575511E+02 -0.13367450202E+02  0.39284530359E+02  0.47000000000E+01 0.  1.
        -11    1    1    2    0    0  0.24562777296E+02  0.33084364182E+02 -0.13592083799E+03  0.14202950180E+03  0.00000000000E+00 0.  1.
         11    1    1    2    0    0 -0.48119306463E+02 -0.17359511620E+02 -0.30705925630E+03  0.31129119355E+03  0.00000000000E+00 0. -1.
<mgrwt>
<rscale>  0 0.15976425E+03</rscale>
<asrwt>0</asrwt>
<pdfrwt beam="2">  1        1 0.16198287E+00 0.18914995E+03</pdfrwt>
<pdfrwt beam="1">  1       -1 0.30709038E-02 0.18914995E+03</pdfrwt>
<totfact> 0.52593426E+03</totfact>
</mgrwt>
</event>
<event>
 7    1  0.4230786E-006  0.1381171E+03  0.7546771E-02  0.1228153E+00
         -1   -1    0    0    0  501 -0.00000000000E+00  0.00000000000E+00  0.18618186547E+03  0.18618186547E+03  0.00000000000E+00 0.  1.
          1   -1    0    0  501    0  0.00000000000E+00 -0.00000000000E+00 -0.80626058131E+02  0.80626058131E+02  0.00000000000E+00 0. -1.
         23    2    1    2    0    0  0.56586964987E+02  0.15789856937E+02  0.62821055472E+02  0.15173270811E+03  0.12499970205E+03 0.  0.
          5    1    3    3  502    0  0.74359170164E+02 -0.36237344248E+02  0.35089113287E+02  0.89976481243E+02  0.47000000000E+01 0.  1.
         -5    1    3    3    0  502 -0.17772205177E+02  0.52027201185E+02  0.27731942185E+02  0.61756226871E+02  0.47000000000E+01 0.  1.
        -11    1    1    2    0    0 -0.55143196969E+02 -0.29350212000E+02  0.64243882032E+02  0.89607385270E+02  0.00000000000E+00 0.  1.
         11    1    1    2    0    0 -0.14437680180E+01  0.13560355063E+02 -0.21509130165E+02  0.25467830217E+02  0.00000000000E+00 0. -1.
<mgrwt>
<rscale>  0 0.12953139E+03</rscale>
<asrwt>0</asrwt>
<pdfrwt beam="2">  1        1 0.12404009E-01 0.13811709E+03</pdfrwt>
<pdfrwt beam="1">  1       -1 0.28643364E-01 0.13811709E+03</pdfrwt>
<totfact> 0.50686289E+03</totfact>
</mgrwt>
</event>
<event>
 7    1  0.4230786E-006  0.1353423E+03  0.7546771E-02  0.1232106E+00
         -2   -1    0    0    0  501 -0.00000000000E+00  0.00000000000E+00  0.17678600880E+03  0.17678600880E+03  0.00000000000E+00 0. -1.
          2   -1    0    0  501    0  0.00000000000E+00 -0.00000000000E+00 -0.81516215852E+02  0.81516215852E+02  0.00000000000E+00 0.  1.
         23    2    1    2    0    0 -0.40170902025E+02 -0.32842766977E+02  0.50108287020E+02  0.14432041141E+03  0.12500076804E+03 0.  0.
          5    1    3    3  502    0 -0.12569570224E+02 -0.71662095075E+02 -0.28174633083E+01  0.72962168729E+02  0.47000000000E+01 0.  1.
         -5    1    3    3    0  502 -0.27601331801E+02  0.38819328097E+02  0.52925750329E+02  0.71358242684E+02  0.47000000000E+01 0.  1.
        -11    1    1    2    0    0  0.48541064203E+02  0.21947771006E+02  0.68574435819E+02  0.86835435244E+02  0.00000000000E+00 0. -1.
         11    1    1    2    0    0 -0.83701621779E+01  0.10894995971E+02 -0.23412929892E+02  0.27146377995E+02  0.00000000000E+00 0.  1.
<mgrwt>
<rscale>  0 0.12691511E+03</rscale>
<asrwt>0</asrwt>
<pdfrwt beam="2">  1        2 0.12540956E-01 0.13534231E+03</pdfrwt>
<pdfrwt beam="1">  1       -2 0.27197847E-01 0.13534231E+03</pdfrwt>
<totfact> 0.56179859E+03</totfact>
</mgrwt>
</event>
<event>
 7    1  0.4230786E-006  0.1780162E+03  0.7546771E-02  0.1175715E+00
          2   -1    0    0  501    0  0.00000000000E+00  0.00000000000E+00  0.16471291082E+03  0.16471291082E+03  0.00000000000E+00 0. -1.
         -2   -1    0    0    0  501 -0.00000000000E+00 -0.00000000000E+00 -0.17448681904E+03  0.17448681904E+03  0.00000000000E+00 0.  1.
         23    2    1    2    0    0 -0.12439626782E+03 -0.24321860430E+02 -0.36043710511E+02  0.18162848348E+03  0.12499509031E+03 0.  0.
          5    1    3    3  502    0 -0.12500212657E+03 -0.25437597377E+02  0.16630796707E+02  0.12872946984E+03  0.47000000000E+01 0.  1.
         -5    1    3    3    0  502  0.60585874376E+00  0.11157369461E+01 -0.52674507219E+02  0.52899013644E+02  0.47000000000E+01 0.  1.
        -11    1    1    2    0    0  0.36092592954E+02 -0.30300388763E+02  0.25826201895E+02  0.53738082675E+02  0.00000000000E+00 0. -1.
         11    1    1    2    0    0  0.88303674868E+02  0.54622249193E+02  0.44360040065E+00  0.10383316370E+03  0.00000000000E+00 0.  1.
<mgrwt>
<rscale>  0 0.17206145E+03</rscale>
<asrwt>0</asrwt>
<pdfrwt beam="1">  1        2 0.25340448E-01 0.17801617E+03</pdfrwt>
<pdfrwt beam="2">  1       -2 0.26844126E-01 0.17801617E+03</pdfrwt>
<totfact> 0.25974232E+03</totfact>
</mgrwt>
</event>
<event>
 6    1  0.4230786E-006  0.1375890E+03  0.7546771E-02  0.1231386E+00
          3   -1    0    0  501    0  0.00000000000E+00  0.00000000000E+00  0.15603834422E+03  0.15603834422E+03  0.00000000000E+00 0. -1.
         -3   -1    0    0    0  501 -0.00000000000E+00 -0.00000000000E+00 -0.91568911375E+02  0.91568911375E+02  0.00000000000E+00 0.  1.
          5    1    1    2  502    0 -0.43019612585E+02  0.41774745531E+02  0.81344893078E+01  0.60696592552E+02  0.47000000000E+01 0. -1.
         -5    1    1    2    0  502  0.74130589609E+02 -0.14507960184E+02  0.35910377469E+02  0.83770343406E+02  0.47000000000E+01 0.  1.
        -11    1    1    2    0    0 -0.51848148372E+00  0.32451519760E+02 -0.16681779686E+01  0.32498504205E+02  0.00000000000E+00 0.  1.
         11    1    1    2    0    0 -0.30592495541E+02 -0.59718305107E+02  0.22092744035E+02  0.70641815430E+02  0.00000000000E+00 0. -1.
<mgrwt>
<rscale>  0 0.12738647E+03</rscale>
<asrwt>0</asrwt>
<pdfrwt beam="1">  1        3 0.24005899E-01 0.13758904E+03</pdfrwt>
<pdfrwt beam="2">  1       -3 0.14087525E-01 0.13758904E+03</pdfrwt>
<totfact> 0.15400494E+03</totfact>
</mgrwt>
</event>
<event>
 7    1  0.4230786E-006  0.1351618E+03  0.7546771E-02  0.1231865E+00
          2   -1    0    0  501    0  0.00000000000E+00  0.00000000000E+00  0.32947951539E+03  0.32947951539E+03  0.00000000000E+00 0. -1.
         -2   -1    0    0    0  501 -0.00000000000E+00 -0.00000000000E+00 -0.44568561872E+02  0.44568561872E+02  0.00000000000E+00 0.  1.
         23    2    1    2    0    0  0.47524861275E+02  0.19640485394E+02  0.13841757717E+03  0.19346356506E+03  0.12499745690E+03 0.  0.
          5    1    3    3  502    0  0.39585907934E+02  0.66601828270E+02  0.48286318813E+02  0.91413927934E+02  0.47000000000E+01 0. -1.
         -5    1    3    3    0  502  0.79389533409E+01 -0.46961342876E+02  0.90131258356E+02  0.10204963713E+03  0.47000000000E+01 0. -1.
        -11    1    1    2    0    0 -0.70833756523E+02  0.29619725084E+01  0.82138450243E+02  0.10850308453E+03  0.00000000000E+00 0.  1.
         11    1    1    2    0    0  0.23308895248E+02 -0.22602457903E+02  0.64354926109E+02  0.72081427673E+02  0.00000000000E+00 0. -1.
<mgrwt>
<rscale>  0 0.12707268E+03</rscale>
<asrwt>0</asrwt>
<pdfrwt beam="1">  1        2 0.50689155E-01 0.13516185E+03</pdfrwt>
<pdfrwt beam="2">  1       -2 0.68567020E-02 0.13516185E+03</pdfrwt>
<totfact> 0.11225781E+04</totfact>
</mgrwt>
</event>
<event>
 7    1  0.4230786E-006  0.1396056E+03  0.7546771E-02  0.1221416E+00
         -1   -1    0    0    0  501 -0.00000000000E+00  0.00000000000E+00  0.26725080565E+02  0.26725080565E+02  0.00000000000E+00 0.  1.
          1   -1    0    0  501    0  0.00000000000E+00 -0.00000000000E+00 -0.67531842845E+03  0.67531842845E+03  0.00000000000E+00 0. -1.
         23    2    1    2    0    0  0.58131286125E+02  0.22039122726E+02 -0.25345428627E+03  0.28935927797E+03  0.12499898864E+03 0.  0.
          5    1    3    3  502    0  0.66356598399E+02  0.61729542355E+02 -0.21466283245E+03  0.23305783872E+03  0.47000000000E+01 0.  1.
         -5    1    3    3    0  502 -0.82253122742E+01 -0.39690419630E+02 -0.38791453816E+02  0.56301439250E+02  0.47000000000E+01 0.  1.
        -11    1    1    2    0    0 -0.66513955793E+02 -0.51566899911E+02 -0.23466155512E+03  0.24929760715E+03  0.00000000000E+00 0.  1.
         11    1    1    2    0    0  0.83826696677E+01  0.29527777186E+02 -0.16047750650E+03  0.16338662390E+03  0.00000000000E+00 0. -1.
<mgrwt>
<rscale>  0 0.13415637E+03</rscale>
<asrwt>0</asrwt>
<pdfrwt beam="2">  1        1 0.10389513E+00 0.13960557E+03</pdfrwt>
<pdfrwt beam="1">  1       -1 0.41115513E-02 0.13960557E+03</pdfrwt>
<totfact> 0.67684117E+03</totfact>
</mgrwt>
</event>
<event>
 7    1  0.4230786E-006  0.1333667E+03  0.7546771E-02  0.1237307E+00
          2   -1    0    0  501    0  0.00000000000E+00  0.00000000000E+00  0.18133268721E+03  0.18133268721E+03  0.00000000000E+00 0. -1.
         -2   -1    0    0    0  501 -0.00000000000E+00 -0.00000000000E+00 -0.96223874756E+02  0.96223874756E+02  0.00000000000E+00 0.  1.
         23    2    1    2    0    0  0.22859871784E+02 -0.40492300907E+02 -0.18592889868E+02  0.13465651338E+03  0.12499792347E+03 0.  0.
          5    1    3    3  502    0  0.84052610453E+00  0.44454060224E+02 -0.13172882456E+02  0.46609921548E+02  0.47000000000E+01 0. -1.
         -5    1    3    3    0  502  0.22019345679E+02 -0.84946361131E+02 -0.54200074114E+01  0.88046591835E+02  0.47000000000E+01 0. -1.
        -11    1    1    2    0    0 -0.45492472840E+02 -0.51936587337E+01  0.61752750676E+02  0.76876143193E+02  0.00000000000E+00 0. -1.
         11    1    1    2    0    0  0.22632601057E+02  0.45685959641E+02  0.41948951650E+02  0.66023905394E+02  0.00000000000E+00 0.  1.
<mgrwt>
<rscale>  0 0.12357869E+03</rscale>
<asrwt>0</asrwt>
<pdfrwt beam="1">  1        2 0.27897336E-01 0.13336672E+03</pdfrwt>
<pdfrwt beam="2">  1       -2 0.14803673E-01 0.13336672E+03</pdfrwt>
<totfact> 0.63209781E+03</totfact>
</mgrwt>
</event>
<event>
 7    1  0.4230786E-006  0.1340211E+03  0.7546771E-02  0.1234168E+00
         -2   -1    0    0    0  501 -0.00000000000E+00  0.00000000000E+00  0.20686492672E+02  0.20686492672E+02  0.00000000000E+00 0.  1.
          2   -1    0    0  501    0  0.00000000000E+00 -0.00000000000E+00 -0.70172470648E+03  0.70172470648E+03  0.00000000000E+00 0. -1.
         23    2    1    2    0    0 -0.13660400669E+02 -0.46365216836E+02 -0.32127127336E+03  0.34810472394E+03  0.12500131146E+03 0.  0.
          5    1    3    3  502    0  0.26727997668E+02 -0.18311399141E+01 -0.26247719846E+03  0.26388275548E+03  0.47000000000E+01 0. -1.
         -5    1    3    3    0  502 -0.40388398337E+02 -0.44534076922E+02 -0.58794074901E+02  0.84221968458E+02  0.47000000000E+01 0. -1.
        -11    1    1    2    0    0 -0.36844138470E+02  0.58330877519E+01 -0.10467755696E+03  0.11112563333E+03  0.00000000000E+00 0.  1.
         11    1    1    2    0    0  0.50504539138E+02  0.40532129084E+02 -0.25508938350E+03  0.26318084188E+03  0.00000000000E+00 0. -1.
<mgrwt>
<rscale>  0 0.12557878E+03</rscale>
<asrwt>0</asrwt>
<pdfrwt beam="2">  1        2 0.10795764E+00 0.13402115E+03</pdfrwt>
<pdfrwt beam="1">  1       -2 0.31825374E-02 0.13402115E+03</pdfrwt>
<totfact> 0.15395296E+04</totfact>
</mgrwt>
</event>
<event>
 7    1  0.4230786E-006  0.1622586E+03  0.7546771E-02  0.1193389E+00
          2   -1    0    0  501    0  0.00000000000E+00  0.00000000000E+00  0.62531460489E+03  0.62531460489E+03  0.00000000000E+00 0. -1.
         -2   -1    0    0    0  501 -0.00000000000E+00 -0.00000000000E+00 -0.42483673804E+02  0.42483673804E+02  0.00000000000E+00 0.  1.
         23    2    1    2    0    0  0.14870886257E+02 -0.10237792749E+03  0.18229138276E+03  0.24404510157E+03  0.12500192030E+03 0.  0.
          5    1    3    3  502    0 -0.46996500727E+02 -0.42662953633E+02  0.32987264117E+02  0.71687155664E+02  0.47000000000E+01 0.  1.
         -5    1    3    3    0  502  0.61867386984E+02 -0.59714973854E+02  0.14930411864E+03  0.17235794591E+03  0.47000000000E+01 0.  1.
        -11    1    1    2    0    0  0.88769245693E+01 -0.46853869289E+01  0.17870990451E+01  0.10195408941E+02  0.00000000000E+00 0.  1.
         11    1    1    2    0    0 -0.23747810826E+02  0.10706331442E+03  0.39875244929E+03  0.41355776818E+03  0.00000000000E+00 0. -1.
<mgrwt>
<rscale>  0 0.15591357E+03</rscale>
<asrwt>0</asrwt>
<pdfrwt beam="1">  1        2 0.96202240E-01 0.16225863E+03</pdfrwt>
<pdfrwt beam="2">  1       -2 0.65359503E-02 0.16225863E+03</pdfrwt>
<totfact> 0.60626996E+03</totfact>
</mgrwt>
</event>
<event>
 7    1  0.4230786E-006  0.1269939E+03  0.7546771E-02  0.1246795E+00
         -2   -1    0    0    0  501 -0.00000000000E+00  0.00000000000E+00  0.55550321016E+02  0.55550321016E+02  0.00000000000E+00 0.  1.
          2   -1    0    0  501    0  0.00000000000E+00 -0.00000000000E+00 -0.22595420877E+03  0.22595420877E+03  0.00000000000E+00 0. -1.
         23    2    1    2    0    0  0.66873225393E-01 -0.22402528997E+02 -0.74508664493E+02  0.14723790635E+03  0.12500232880E+03 0.  0.
          5    1    3    3  502    0  0.53250804449E+01 -0.37248888386E+02  0.25623582689E+02  0.45765643856E+02  0.47000000000E+01 0. -1.
         -5    1    3    3    0  502 -0.52582072195E+01  0.14846359389E+02 -0.10013224718E+03  0.10147226250E+03  0.47000000000E+01 0. -1.
        -11    1    1    2    0    0  0.14323699405E+02  0.51806431553E+01  0.14848493935E+02  0.21271699516E+02  0.00000000000E+00 0.  1.
         11    1    1    2    0    0 -0.14390572631E+02  0.17221885842E+02 -0.11074371720E+03  0.11299492392E+03  0.00000000000E+00 0. -1.
<mgrwt>
<rscale>  0 0.11778564E+03</rscale>
<asrwt>0</asrwt>
<pdfrwt beam="2">  1        2 0.34762186E-01 0.12699394E+03</pdfrwt>
<pdfrwt beam="1">  1       -2 0.85462033E-02 0.12699394E+03</pdfrwt>
<totfact> 0.11878908E+04</totfact>
</mgrwt>
</event>
<event>
 7    1  0.4230786E-006  0.1424129E+03  0.7546771E-02  0.1220871E+00
         -3   -1    0    0    0  501 -0.00000000000E+00  0.00000000000E+00  0.69397893475E+02  0.69397893475E+02  0.00000000000E+00 0.  1.
          3   -1    0    0  501    0  0.00000000000E+00 -0.00000000000E+00 -0.23647966332E+03  0.23647966332E+03  0.00000000000E+00 0. -1.
         23    2    1    2    0    0 -0.31150979083E+02 -0.60740533464E+02 -0.10105896937E+03  0.17462633526E+03  0.12498658238E+03 0.  0.
          5    1    3    3  502    0  0.21449497704E+00  0.30333006595E+02 -0.64608718048E+02  0.71529810185E+02  0.47000000000E+01 0.  1.
         -5    1    3    3    0  502 -0.31365474060E+02 -0.91073540060E+02 -0.36450251317E+02  0.10309652508E+03  0.47000000000E+01 0.  1.
        -11    1    1    2    0    0  0.58730164728E+02  0.44011928854E+02 -0.66432164227E+02  0.98992497565E+02  0.00000000000E+00 0. -1.
         11    1    1    2    0    0 -0.27579185645E+02  0.16728604611E+02  0.40936375105E+00  0.32258723963E+02  0.00000000000E+00 0.  1.
<mgrwt>
<rscale>  0 0.13453968E+03</rscale>
<asrwt>0</asrwt>
<pdfrwt beam="2">  1        3 0.36381487E-01 0.14241293E+03</pdfrwt>
<pdfrwt beam="1">  1       -3 0.10676599E-01 0.14241293E+03</pdfrwt>
<totfact> 0.11449359E+03</totfact>
</mgrwt>
</event>
<event>
 7    1  0.4230786E-006  0.1511738E+03  0.7546771E-02  0.1208144E+00
         -2   -1    0    0    0  501 -0.00000000000E+00  0.00000000000E+00  0.18125168560E+03  0.18125168560E+03  0.00000000000E+00 0.  1.
          2   -1    0    0  501    0  0.00000000000E+00 -0.00000000000E+00 -0.11860923122E+03  0.11860923122E+03  0.00000000000E+00 0. -1.
         23    2    1    2    0    0 -0.79724200717E+02  0.29566099342E+02  0.85355651317E+02  0.17360619446E+03  0.12499368437E+03 0.  0.
          5    1    3    3  502    0 -0.97892147931E+01  0.30208958070E+02  0.97337036465E+02  0.10249389514E+03  0.47000000000E+01 0. -1.
         -5    1    3    3    0  502 -0.69934985924E+02 -0.64285872804E+00 -0.11981385148E+02  0.71112299313E+02  0.47000000000E+01 0. -1.
        -11    1    1    2    0    0  0.71267608694E+02  0.18468823447E+02 -0.31052811127E+01  0.73687259817E+02  0.00000000000E+00 0.  1.
         11    1    1    2    0    0  0.84565920226E+01 -0.48034922788E+02 -0.19607915828E+02  0.52567462551E+02  0.00000000000E+00 0. -1.
<mgrwt>
<rscale>  0 0.14392404E+03</rscale>
<asrwt>0</asrwt>
<pdfrwt beam="2">  1        2 0.18247574E-01 0.15117382E+03</pdfrwt>
<pdfrwt beam="1">  1       -2 0.27884875E-01 0.15117382E+03</pdfrwt>
<totfact> 0.34878636E+03</totfact>
</mgrwt>
</event>
<event>
 7    1  0.4230786E-006  0.2145683E+03  0.7546771E-02  0.1141779E+00
          2   -1    0    0  501    0  0.00000000000E+00  0.00000000000E+00  0.99997445759E+03  0.99997445759E+03  0.00000000000E+00 0. -1.
         -2   -1    0    0    0  501 -0.00000000000E+00 -0.00000000000E+00 -0.44964610404E+02  0.44964610404E+02  0.00000000000E+00 0.  1.
         23    2    1    2    0    0  0.17429418004E+03 -0.56860596773E+01  0.62930038324E+03  0.66487480964E+03  0.12501498980E+03 0.  0.
          5    1    3    3  502    0  0.93446752034E+02 -0.32064795788E+02  0.16146890648E+03  0.18935349047E+03  0.47000000000E+01 0.  1.
         -5    1    3    3    0  502  0.80847428011E+02  0.26378736110E+02  0.46783147676E+03  0.47552131916E+03  0.47000000000E+01 0.  1.
        -11    1    1    2    0    0 -0.73703212848E+02  0.37010395771E+02  0.91112115008E+02  0.12289568943E+03  0.00000000000E+00 0.  1.
         11    1    1    2    0    0 -0.10059096720E+03 -0.31324336094E+02  0.23459734894E+03  0.25716856892E+03  0.00000000000E+00 0. -1.
<mgrwt>
<rscale>  0 0.20973071E+03</rscale>
<asrwt>0</asrwt>
<pdfrwt beam="1">  1        2 0.15384221E+00 0.21456826E+03</pdfrwt>
<pdfrwt beam="2">  1       -2 0.69176331E-02 0.21456826E+03</pdfrwt>
<totfact> 0.30994315E+03</totfact>
</mgrwt>
</event>
<event>
 7    1  0.4230786E-006  0.1344579E+03  0.7546771E-02  0.1232950E+00
         -2   -1    0    0    0  501 -0.00000000000E+00  0.00000000000E+00  0.53944254243E+02  0.53944254243E+02  0.00000000000E+00 0.  1.
          2   -1    0    0  501    0  0.00000000000E+00 -0.00000000000E+00 -0.28463649906E+03  0.28463649906E+03  0.00000000000E+00 0. -1.
         23    2    1    2    0    0  0.10738468369E+02 -0.48334924776E+02 -0.85062817474E+02  0.15910564999E+03  0.12500938080E+03 0.  0.
          5    1    3    3  502    0  0.19724673111E+02 -0.78848425276E+02 -0.95318786231E+02  0.12535508728E+03  0.47000000000E+01 0.  1.
         -5    1    3    3    0  502 -0.89862047417E+01  0.30513500501E+02  0.10255968757E+02  0.33750562715E+02  0.47000000000E+01 0.  1.
        -11    1    1    2    0    0  0.13524090238E+01  0.73711504879E+02 -0.12293959922E+03  0.14335047965E+03  0.00000000000E+00 0. -1.
         11    1    1    2    0    0 -0.12090877393E+02 -0.25376580103E+02 -0.22689828129E+02  0.36124623657E+02  0.00000000000E+00 0.  1.
<mgrwt>
<rscale>  0 0.12636608E+03</rscale>
<asrwt>0</asrwt>
<pdfrwt beam="2">  1        2 0.43790230E-01 0.13445789E+03</pdfrwt>
<pdfrwt beam="1">  1       -2 0.82991162E-02 0.13445789E+03</pdfrwt>
<totfact> 0.97687886E+03</totfact>
</mgrwt>
</event>
<event>
 7    1  0.4230786E-006  0.1712991E+03  0.7546771E-02  0.1182739E+00
         -1   -1    0    0    0  501 -0.00000000000E+00  0.00000000000E+00  0.12803105020E+03  0.12803105020E+03  0.00000000000E+00 0.  1.
          1   -1    0    0  501    0  0.00000000000E+00 -0.00000000000E+00 -0.20559573484E+03  0.20559573484E+03  0.00000000000E+00 0. -1.
         23    2    1    2    0    0  0.81808766522E+01  0.11683137355E+03 -0.68477639430E+02  0.18447917270E+03  0.12500752566E+03 0.  0.
          5    1    3    3  502    0 -0.38147791805E+02  0.11850987077E+03 -0.52829955472E+02  0.13532530320E+03  0.47000000000E+01 0.  1.
         -5    1    3    3    0  502  0.46328668457E+02 -0.16784972278E+01 -0.15647683958E+02  0.49153869504E+02  0.47000000000E+01 0.  1.
        -11    1    1    2    0    0  0.93032912410E+01 -0.12279634010E+03  0.87622601684E+01  0.12345958681E+03  0.00000000000E+00 0.  1.
         11    1    1    2    0    0 -0.17484167893E+02  0.59649665582E+01 -0.17849305376E+02  0.25688025525E+02  0.00000000000E+00 0. -1.
<mgrwt>
<rscale>  0 0.16539352E+03</rscale>
<asrwt>0</asrwt>
<pdfrwt beam="2">  1        1 0.31630113E-01 0.17129909E+03</pdfrwt>
<pdfrwt beam="1">  1       -1 0.19697085E-01 0.17129909E+03</pdfrwt>
<totfact> 0.28643255E+03</totfact>
</mgrwt>
</event>
<event>
 7    1  0.4230786E-006  0.1902719E+03  0.7546771E-02  0.1163055E+00
          3   -1    0    0  501    0  0.00000000000E+00  0.00000000000E+00  0.17007872333E+02  0.17007872333E+02  0.00000000000E+00 0. -1.
         -3   -1    0    0    0  501 -0.00000000000E+00 -0.00000000000E+00 -0.19081605608E+04  0.19081605608E+04  0.00000000000E+00 0.  1.
         23    2    1    2    0    0  0.73741254332E+02 -0.12304461929E+03 -0.10017191874E+04  0.10196296992E+04  0.12500256908E+03 0.  0.
          5    1    3    3  502    0 -0.29802062120E+02 -0.19928573934E+01 -0.19359200523E+03  0.19593899274E+03  0.47000000000E+01 0.  1.
         -5    1    3    3    0  502  0.10354331645E+03 -0.12105176190E+03 -0.80812718212E+03  0.82369070647E+03  0.47000000000E+01 0.  1.
        -11    1    1    2    0    0 -0.65327458857E+02  0.13150679675E+03 -0.87280918445E+03  0.88507490470E+03  0.00000000000E+00 0.  1.
         11    1    1    2    0    0 -0.84137954745E+01 -0.84621774540E+01 -0.16624316633E+02  0.20463829189E+02  0.00000000000E+00 0. -1.
<mgrwt>
<rscale>  0 0.18499461E+03</rscale>
<asrwt>0</asrwt>
<pdfrwt beam="1">  1        3 0.26165957E-02 0.19027189E+03</pdfrwt>
<pdfrwt beam="2">  1       -3 0.29356317E+00 0.19027189E+03</pdfrwt>
<totfact> 0.73879432E+01</totfact>
</mgrwt>
</event>
<event>
 7    1  0.4230786E-006  0.1262997E+03  0.7546771E-02  0.1248212E+00
         -4   -1    0    0    0  501 -0.00000000000E+00  0.00000000000E+00  0.52450847454E+03  0.52450847454E+03  0.00000000000E+00 0.  1.
          4   -1    0    0  501    0  0.00000000000E+00 -0.00000000000E+00 -0.22989604492E+02  0.22989604492E+02  0.00000000000E+00 0. -1.
         23    2    1    2    0    0  0.16878032646E+02 -0.65051366643E+01  0.30639498017E+03  0.33140533367E+03  0.12499770608E+03 0.  0.
          5    1    3    3  502    0  0.51318153372E+02  0.36681470034E+02  0.21864042890E+03  0.22760670082E+03  0.47000000000E+01 0. -1.
         -5    1    3    3    0  502 -0.34440120725E+02 -0.43186606698E+02  0.87754551270E+02  0.10379863285E+03  0.47000000000E+01 0. -1.
        -11    1    1    2    0    0 -0.47014428900E+02 -0.72966208700E+01  0.57988850617E+02  0.75008692808E+02  0.00000000000E+00 0.  1.
         11    1    1    2    0    0  0.30136396254E+02  0.13801757534E+02  0.13713503926E+03  0.14108405255E+03  0.00000000000E+00 0. -1.
<mgrwt>
<rscale>  0 0.11695193E+03</rscale>
<asrwt>0</asrwt>
<pdfrwt beam="2">  1        4 0.35368626E-02 0.12629969E+03</pdfrwt>
<pdfrwt beam="1">  1       -4 0.80693602E-01 0.12629969E+03</pdfrwt>
<totfact> 0.94486090E+02</totfact>
</mgrwt>
</event>
<event>
 7    1  0.4230786E-006  0.1347351E+03  0.7546771E-02  0.1229919E+00
         -1   -1    0    0    0  501 -0.00000000000E+00  0.00000000000E+00  0.88859692295E+02  0.88859692295E+02  0.00000000000E+00 0.  1.
          1   -1    0    0  501    0  0.00000000000E+00 -0.00000000000E+00 -0.18792424652E+03  0.18792424652E+03  0.00000000000E+00 0. -1.
         23    2    1    2    0    0 -0.24336442852E+02  0.57793082377E+02 -0.11118158237E+02  0.13519300098E+03  0.11925280395E+03 0.  0.
          5    1    3    3  502    0 -0.29620961090E+02  0.89959661569E+02 -0.27045889016E+02  0.98608884782E+02  0.47000000000E+01 0. -1.
         -5    1    3    3    0  502  0.52845182381E+01 -0.32166579192E+02  0.15927730779E+02  0.36584116194E+02  0.47000000000E+01 0.  1.
        -11    1    1    2    0    0  0.46738256606E+02 -0.21927082779E+02 -0.84681670244E+02  0.99177854711E+02  0.00000000000E+00 0. -1.
         11    1    1    2    0    0 -0.22401813754E+02 -0.35865999598E+02 -0.32647257494E+01  0.42413083133E+02  0.00000000000E+00 0.  1.
<mgrwt>
<rscale>  0 0.12835353E+03</rscale>
<asrwt>0</asrwt>
<pdfrwt beam="2">  1        1 0.28911422E-01 0.13473505E+03</pdfrwt>
<pdfrwt beam="1">  1       -1 0.13670722E-01 0.13473505E+03</pdfrwt>
<totfact> 0.56412689E+03</totfact>
</mgrwt>
</event>
<event>
 7    1  0.4230786E-006  0.1345246E+03  0.7546771E-02  0.1233314E+00
         -1   -1    0    0    0  501 -0.00000000000E+00  0.00000000000E+00  0.25047235772E+02  0.25047235772E+02  0.00000000000E+00 0.  1.
          1   -1    0    0  501    0  0.00000000000E+00 -0.00000000000E+00 -0.60169920167E+03  0.60169920167E+03  0.00000000000E+00 0. -1.
         23    2    1    2    0    0  0.25636708583E+02  0.42603546047E+02 -0.24924856828E+03  0.28323437191E+03  0.12499823070E+03 0.  0.
          5    1    3    3  502    0 -0.68243520572E+00  0.79723355814E+02 -0.20317404402E+03  0.21830726360E+03  0.47000000000E+01 0. -1.
         -5    1    3    3    0  502  0.26319143789E+02 -0.37119809767E+02 -0.46074524265E+02  0.64927108307E+02  0.47000000000E+01 0. -1.
        -11    1    1    2    0    0  0.30289356878E+02 -0.34835616721E+02 -0.12039746353E+03  0.12894384265E+03  0.00000000000E+00 0. -1.
         11    1    1    2    0    0 -0.55926065461E+02 -0.77679293263E+01 -0.20700593409E+03  0.21456822289E+03  0.00000000000E+00 0.  1.
<mgrwt>
<rscale>  0 0.12612964E+03</rscale>
<asrwt>0</asrwt>
<pdfrwt beam="2">  1        1 0.92569105E-01 0.13452457E+03</pdfrwt>
<pdfrwt beam="1">  1       -1 0.38534210E-02 0.13452457E+03</pdfrwt>
<totfact> 0.87176225E+03</totfact>
</mgrwt>
</event>
<event>
 7    1  0.4230786E-006  0.1322105E+03  0.7546771E-02  0.1237145E+00
          2   -1    0    0  501    0  0.00000000000E+00  0.00000000000E+00  0.49373262336E+02  0.49373262336E+02  0.00000000000E+00 0. -1.
         -2   -1    0    0    0  501 -0.00000000000E+00 -0.00000000000E+00 -0.28894936925E+03  0.28894936925E+03  0.00000000000E+00 0.  1.
         23    2    1    2    0    0  0.28169619607E+00 -0.43073138535E+02 -0.17048138228E+03  0.21573949199E+03  0.12499700830E+03 0.  0.
          5    1    3    3  502    0  0.28640988542E+02 -0.79680692490E+02 -0.97965458360E+02  0.12957098445E+03  0.47000000000E+01 0. -1.
         -5    1    3    3    0  502 -0.28359292346E+02  0.36607553955E+02 -0.72515923920E+02  0.86168507535E+02  0.47000000000E+01 0. -1.
        -11    1    1    2    0    0 -0.27711640864E+01  0.72069059618E+02 -0.47871773446E+02  0.86564053726E+02  0.00000000000E+00 0. -1.
         11    1    1    2    0    0  0.24894678903E+01 -0.28995921083E+02 -0.21222951185E+02  0.36019085869E+02  0.00000000000E+00 0.  1.
<mgrwt>
<rscale>  0 0.12368115E+03</rscale>
<asrwt>0</asrwt>
<pdfrwt beam="1">  1        2 0.75958864E-02 0.13221054E+03</pdfrwt>
<pdfrwt beam="2">  1       -2 0.44453750E-01 0.13221054E+03</pdfrwt>
<totfact> 0.41942383E+03</totfact>
</mgrwt>
</event>
<event>
 7    1  0.4230786E-006  0.1850903E+03  0.7546771E-02  0.1167603E+00
         -1   -1    0    0    0  501 -0.00000000000E+00  0.00000000000E+00  0.60033683934E+02  0.60033683934E+02  0.00000000000E+00 0.  1.
          1   -1    0    0  501    0  0.00000000000E+00 -0.00000000000E+00 -0.83017158476E+03  0.83017158476E+03  0.00000000000E+00 0. -1.
         23    2    1    2    0    0  0.61763089414E+02  0.12698068449E+03 -0.12347211994E+03  0.22249443499E+03  0.11966468047E+03 0.  0.
          5    1    3    3  502    0 -0.56168290348E+01  0.99959715225E+01 -0.79461983076E+02  0.80422415840E+02  0.47000000000E+01 0. -1.
         -5    1    3    3    0  502  0.67379918449E+02  0.11698471297E+03 -0.44010136866E+02  0.14207201915E+03  0.47000000000E+01 0.  1.
        -11    1    1    2    0    0  0.15614525578E+02 -0.56395872833E+01 -0.28218008275E+02  0.32739492128E+02  0.00000000000E+00 0.  1.
         11    1    1    2    0    0 -0.77377614992E+02 -0.12134109721E+03 -0.61844777261E+03  0.63497134157E+03  0.00000000000E+00 0. -1.
<mgrwt>
<rscale>  0 0.18020690E+03</rscale>
<asrwt>0</asrwt>
<pdfrwt beam="2">  1        1 0.12771869E+00 0.18509027E+03</pdfrwt>
<pdfrwt beam="1">  1       -1 0.92359525E-02 0.18509027E+03</pdfrwt>
<totfact> 0.14965503E+03</totfact>
</mgrwt>
</event>
<event>
 7    1  0.4230786E-006  0.1636812E+03  0.7546771E-02  0.1191408E+00
         -2   -1    0    0    0  501 -0.00000000000E+00  0.00000000000E+00  0.20008431274E+03  0.20008431274E+03  0.00000000000E+00 0.  1.
          2   -1    0    0  501    0  0.00000000000E+00 -0.00000000000E+00 -0.11640520992E+03  0.11640520992E+03  0.00000000000E+00 0. -1.
         23    2    1    2    0    0  0.82642331725E+02 -0.65852147538E+02  0.33645138811E+02  0.16710337165E+03  0.12500112448E+03 0.  0.
          5    1    3    3  502    0  0.49452903103E+02 -0.10032294363E+03  0.70818681782E+01  0.11217185699E+03  0.47000000000E+01 0.  1.
         -5    1    3    3    0  502  0.33189428621E+02  0.34470796093E+02  0.26563270633E+02  0.54931514654E+02  0.47000000000E+01 0.  1.
        -11    1    1    2    0    0 -0.23716744840E+02  0.35048158833E+02 -0.24983351113E+02  0.49142906469E+02  0.00000000000E+00 0. -1.
         11    1    1    2    0    0 -0.58925586884E+02  0.30803988706E+02  0.75017315123E+02  0.10024324455E+03  0.00000000000E+00 0.  1.
<mgrwt>
<rscale>  0 0.15762222E+03</rscale>
<asrwt>0</asrwt>
<pdfrwt beam="2">  1        2 0.17908494E-01 0.16368122E+03</pdfrwt>
<pdfrwt beam="1">  1       -2 0.30782202E-01 0.16368122E+03</pdfrwt>
<totfact> 0.29964225E+03</totfact>
</mgrwt>
</event>
<event>
 7    1  0.4230786E-006  0.1326050E+03  0.7546771E-02  0.1236736E+00
          2   -1    0    0  501    0  0.00000000000E+00  0.00000000000E+00  0.17365232306E+03  0.17365232306E+03  0.00000000000E+00 0. -1.
         -2   -1    0    0    0  501 -0.00000000000E+00 -0.00000000000E+00 -0.79192453357E+02  0.79192453357E+02  0.00000000000E+00 0.  1.
         23    2    1    2    0    0 -0.41231257784E+02  0.16087445689E+02  0.43612436179E+02  0.13959275720E+03  0.12500108298E+03 0.  0.
          5    1    3    3  502    0 -0.36755186678E+01 -0.50146854536E+02  0.37810472131E+02  0.63086751859E+02  0.47000000000E+01 0.  1.
         -5    1    3    3    0  502 -0.37555739116E+02  0.66234300226E+02  0.58019640482E+01  0.76506005344E+02  0.47000000000E+01 0.  1.
        -11    1    1    2    0    0  0.59711894230E+02 -0.36028439915E+02  0.50427478233E+02  0.86060963022E+02  0.00000000000E+00 0. -1.
         11    1    1    2    0    0 -0.18480636446E+02  0.19940994226E+02  0.41995528788E+00  0.27191056188E+02  0.00000000000E+00 0.  1.
<mgrwt>
<rscale>  0 0.12393970E+03</rscale>
<asrwt>0</asrwt>
<pdfrwt beam="1">  1        2 0.26715742E-01 0.13260503E+03</pdfrwt>
<pdfrwt beam="2">  1       -2 0.12183454E-01 0.13260503E+03</pdfrwt>
<totfact> 0.90717924E+03</totfact>
</mgrwt>
</event>
<event>
 7    1  0.4230786E-006  0.1349558E+03  0.7546771E-02  0.1233153E+00
          3   -1    0    0  501    0  0.00000000000E+00  0.00000000000E+00  0.27612037810E+03  0.27612037810E+03  0.00000000000E+00 0. -1.
         -3   -1    0    0    0  501 -0.00000000000E+00 -0.00000000000E+00 -0.55981627419E+02  0.55981627419E+02  0.00000000000E+00 0.  1.
         23    2    1    2    0    0  0.99573877396E+01 -0.49868066805E+02  0.76370343820E+02  0.15506608104E+03  0.12500834539E+03 0.  0.
          5    1    3    3  502    0  0.41611182763E+02  0.27933923365E+02  0.35063210210E+02  0.61345850028E+02  0.47000000000E+01 0. -1.
         -5    1    3    3    0  502 -0.31653795024E+02 -0.77801990170E+02  0.41307133610E+02  0.93720231011E+02  0.47000000000E+01 0. -1.
        -11    1    1    2    0    0  0.23948090257E+01 -0.16734106163E+02 -0.12770718139E+01  0.16952767673E+02  0.00000000000E+00 0.  1.
         11    1    1    2    0    0 -0.12352196765E+02  0.66602172969E+02  0.14504547868E+03  0.16008315681E+03  0.00000000000E+00 0. -1.
<mgrwt>
<rscale>  0 0.12623395E+03</rscale>
<asrwt>0</asrwt>
<pdfrwt beam="1">  1        3 0.42480058E-01 0.13495577E+03</pdfrwt>
<pdfrwt beam="2">  1       -3 0.86125582E-02 0.13495577E+03</pdfrwt>
<totfact> 0.12010139E+03</totfact>
</mgrwt>
</event>
<event>
 7    1  0.4230786E-006  0.1166228E+03  0.7546771E-02  0.1260742E+00
         -1   -1    0    0    0  501 -0.00000000000E+00  0.00000000000E+00  0.26198437929E+03  0.26198437929E+03  0.00000000000E+00 0.  1.
          1   -1    0    0  501    0  0.00000000000E+00 -0.00000000000E+00 -0.61468112213E+02  0.61468112213E+02  0.00000000000E+00 0. -1.
         23    2    1    2    0    0 -0.11845927573E+01 -0.28428398912E+01  0.19992896664E+03  0.23145727112E+03  0.11658212407E+03 0.  0.
          5    1    3    3  502    0  0.54797731664E+02  0.14486303868E+02  0.11312732340E+03  0.12661961023E+03  0.47000000000E+01 0. -1.
         -5    1    3    3    0  502 -0.55982324421E+02 -0.17329143760E+02  0.86801643238E+02  0.10483766089E+03  0.47000000000E+01 0.  1.
        -11    1    1    2    0    0 -0.56788063742E+01 -0.26494604014E+02  0.36282549183E+02  0.45283951450E+02  0.00000000000E+00 0.  1.
         11    1    1    2    0    0  0.68633991316E+01  0.29337443905E+02 -0.35695248746E+02  0.46711268936E+02  0.00000000000E+00 0. -1.
<mgrwt>
<rscale>  0 0.10990734E+03</rscale>
<asrwt>0</asrwt>
<pdfrwt beam="2">  1        1 0.94566328E-02 0.11662280E+03</pdfrwt>
<pdfrwt beam="1">  1       -1 0.40305289E-01 0.11662280E+03</pdfrwt>
<totfact> 0.40009239E+03</totfact>
</mgrwt>
</event>
<event>
 7    1  0.4230786E-006  0.1467920E+03  0.7546771E-02  0.1214682E+00
         -2   -1    0    0    0  501 -0.00000000000E+00  0.00000000000E+00  0.70686196715E+02  0.70686196715E+02  0.00000000000E+00 0.  1.
          2   -1    0    0  501    0  0.00000000000E+00 -0.00000000000E+00 -0.25104476365E+03  0.25104476365E+03  0.00000000000E+00 0. -1.
         23    2    1    2    0    0 -0.25866692886E+02 -0.72469274290E+02 -0.82281832031E+02  0.16828005558E+03  0.12500798257E+03 0.  0.
          5    1    3    3  502    0 -0.13725755443E+02 -0.99233199344E+02 -0.24429190722E+02  0.10322063541E+03  0.47000000000E+01 0. -1.
         -5    1    3    3    0  502 -0.12140937443E+02  0.26763925053E+02 -0.57852641309E+02  0.65059420168E+02  0.47000000000E+01 0. -1.
        -11    1    1    2    0    0  0.36647768097E+02  0.64441162023E+02 -0.23641302704E+02  0.77811525258E+02  0.00000000000E+00 0.  1.
         11    1    1    2    0    0 -0.10781075211E+02  0.80281122673E+01 -0.74435432199E+02  0.75639379532E+02  0.00000000000E+00 0. -1.
<mgrwt>
<rscale>  0 0.13899952E+03</rscale>
<asrwt>0</asrwt>
<pdfrwt beam="2">  1        2 0.38622271E-01 0.14679195E+03</pdfrwt>
<pdfrwt beam="1">  1       -2 0.10874799E-01 0.14679195E+03</pdfrwt>
<totfact> 0.73556057E+03</totfact>
</mgrwt>
</event>
<event>
 7    1  0.4230786E-006  0.2535357E+03  0.7546771E-02  0.1113463E+00
         -1   -1    0    0    0  501 -0.00000000000E+00  0.00000000000E+00  0.26341209083E+03  0.26341209083E+03  0.00000000000E+00 0.  1.
          1   -1    0    0  501    0  0.00000000000E+00 -0.00000000000E+00 -0.42235283198E+03  0.42235283198E+03  0.00000000000E+00 0. -1.
         23    2    1    2    0    0 -0.18804605573E+03  0.11531143632E+03  0.15057690593E+03  0.29487922872E+03  0.12498923358E+03 0.  0.
          5    1    3    3  502    0 -0.16852264808E+03  0.13684822451E+03  0.10644730915E+03  0.24182729187E+03  0.47000000000E+01 0. -1.
         -5    1    3    3    0  502 -0.19523407642E+02 -0.21536788189E+02  0.44129596781E+02  0.53051936850E+02  0.47000000000E+01 0. -1.
        -11    1    1    2    0    0  0.14137733488E+03 -0.59990251043E+02 -0.14527492938E+03  0.21140290004E+03  0.00000000000E+00 0. -1.
         11    1    1    2    0    0  0.46668720847E+02 -0.55321185280E+02 -0.16424271770E+03  0.17948279406E+03  0.00000000000E+00 0.  1.
<mgrwt>
<rscale>  0 0.24974949E+03</rscale>
<asrwt>0</asrwt>
<pdfrwt beam="2">  1        1 0.64977359E-01 0.25353571E+03</pdfrwt>
<pdfrwt beam="1">  1       -1 0.40524937E-01 0.25353571E+03</pdfrwt>
<totfact> 0.34334869E+02</totfact>
</mgrwt>
</event>
<event>
 6    1  0.4230786E-006  0.3514159E+03  0.7546771E-02  0.1074502E+00
          1   -1    0    0  501    0  0.00000000000E+00  0.00000000000E+00  0.40075835541E+03  0.40075835541E+03  0.00000000000E+00 0. -1.
         -1   -1    0    0    0  501 -0.00000000000E+00 -0.00000000000E+00 -0.39680590729E+03  0.39680590729E+03  0.00000000000E+00 0.  1.
          5    1    1    2  502    0 -0.12726411457E+03 -0.10849296885E+03 -0.15207181258E+03  0.22608583619E+03  0.47000000000E+01 0. -1.
         -5    1    1    2    0  502  0.13108715361E+03 -0.12497439111E+03 -0.10593044639E+03  0.20987088828E+03  0.47000000000E+01 0.  1.
        -11    1    1    2    0    0  0.32333158933E+02  0.18395142611E+03  0.21186429152E+03  0.28243590132E+03  0.00000000000E+00 0. -1.
         11    1    1    2    0    0 -0.36156197979E+02  0.49515933849E+02  0.50090415572E+02  0.79171636900E+02  0.00000000000E+00 0.  1.
<mgrwt>
<rscale>  0 0.32250555E+03</rscale>
<asrwt>0</asrwt>
<pdfrwt beam="1">  1        1 0.61655132E-01 0.35141585E+03</pdfrwt>
<pdfrwt beam="2">  1       -1 0.61047063E-01 0.35141585E+03</pdfrwt>
<totfact> 0.16996737E+02</totfact>
</mgrwt>
</event>
<event>
 7    1  0.4230786E-006  0.1287389E+03  0.7546771E-02  0.1279454E+00
          3   -1    0    0  501    0  0.00000000000E+00  0.00000000000E+00  0.13306050746E+03  0.13306050746E+03  0.00000000000E+00 0. -1.
         -3   -1    0    0    0  501 -0.00000000000E+00 -0.00000000000E+00 -0.62545914523E+02  0.62545914523E+02  0.00000000000E+00 0.  1.
         23    2    1    2    0    0 -0.10772612774E+02 -0.28838978094E+02  0.27961800513E+02  0.13174053997E+03  0.12500388690E+03 0.  0.
          5    1    3    3  502    0  0.49976100213E+02  0.73574867972E+01 -0.94431743825E+01  0.51604328761E+02  0.47000000000E+01 0. -1.
         -5    1    3    3    0  502 -0.60748712987E+02 -0.36196464891E+02  0.37404974896E+02  0.80136211210E+02  0.47000000000E+01 0. -1.
        -11    1    1    2    0    0 -0.38291858374E+00  0.25519893926E+02  0.70128483780E+01  0.26468691978E+02  0.00000000000E+00 0.  1.
         11    1    1    2    0    0  0.11155531358E+02  0.33190841675E+01  0.35539944051E+02  0.37397190038E+02  0.00000000000E+00 0. -1.
<mgrwt>
<rscale>  0 0.10040155E+03</rscale>
<asrwt>0</asrwt>
<pdfrwt beam="1">  1        3 0.20470847E-01 0.12873891E+03</pdfrwt>
<pdfrwt beam="2">  1       -3 0.96224484E-02 0.12873891E+03</pdfrwt>
<totfact> 0.38228334E+03</totfact>
</mgrwt>
</event>
<event>
 6    1  0.4230786E-006  0.1960671E+03  0.7546771E-02  0.1180454E+00
         -2   -1    0    0    0  501 -0.00000000000E+00  0.00000000000E+00  0.26602525457E+02  0.26602525457E+02  0.00000000000E+00 0.  1.
          2   -1    0    0  501    0  0.00000000000E+00 -0.00000000000E+00 -0.85088670942E+03  0.85088670942E+03  0.00000000000E+00 0. -1.
          5    1    1    2  502    0  0.15968596821E+02  0.40368806929E+02 -0.56389811161E+03  0.56558625065E+03  0.47000000000E+01 0. -1.
         -5    1    1    2    0  502  0.22654394621E+02 -0.72781106712E+01  0.66491929387E+01  0.25149438509E+02  0.47000000000E+01 0.  1.
        -11    1    1    2    0    0  0.19445985325E+02 -0.26628430841E+02 -0.17247588318E+03  0.17559940192E+03  0.00000000000E+00 0.  1.
         11    1    1    2    0    0 -0.58068976768E+02 -0.64622654166E+01 -0.94559382108E+02  0.11115414379E+03  0.00000000000E+00 0. -1.
<mgrwt>
<rscale>  0 0.16752520E+03</rscale>
<asrwt>0</asrwt>
<pdfrwt beam="2">  1        2 0.13090565E+00 0.19606707E+03</pdfrwt>
<pdfrwt beam="1">  1       -2 0.40926961E-02 0.19606707E+03</pdfrwt>
<totfact> 0.85385025E+03</totfact>
</mgrwt>
</event>
<event>
 7    1  0.4230786E-006  0.1291834E+03  0.7546771E-02  0.1243182E+00
         -2   -1    0    0    0  501 -0.00000000000E+00  0.00000000000E+00  0.43715913003E+03  0.43715913003E+03  0.00000000000E+00 0.  1.
          2   -1    0    0  501    0  0.00000000000E+00 -0.00000000000E+00 -0.31577604392E+02  0.31577604392E+02  0.00000000000E+00 0. -1.
         23    2    1    2    0    0 -0.26242550046E+02 -0.19335967902E+02  0.29646340509E+03  0.32338659447E+03  0.12500315133E+03 0.  0.
          5    1    3    3  502    0  0.28645680879E+02  0.39191147121E+02  0.10823615938E+03  0.11871679428E+03  0.47000000000E+01 0.  1.
         -5    1    3    3    0  502 -0.54888230925E+02 -0.58527115023E+02  0.18822724570E+03  0.20466980020E+03  0.47000000000E+01 0.  1.
        -11    1    1    2    0    0 -0.17462744202E+01 -0.33268724895E+02  0.22445240335E+02  0.40170217129E+02  0.00000000000E+00 0. -1.
         11    1    1    2    0    0  0.27988824466E+02  0.52604692797E+02  0.86672880218E+02  0.10517992282E+03  0.00000000000E+00 0.  1.
<mgrwt>
<rscale>  0 0.11994874E+03</rscale>
<asrwt>0</asrwt>
<pdfrwt beam="2">  1        2 0.48580933E-02 0.12918335E+03</pdfrwt>
<pdfrwt beam="1">  1       -2 0.67255247E-01 0.12918335E+03</pdfrwt>
<totfact> 0.32289105E+03</totfact>
</mgrwt>
</event>
<event>
 6    1  0.4230786E-006  0.3499790E+03  0.7546771E-02  0.1062624E+00
         -2   -1    0    0    0  501 -0.00000000000E+00  0.00000000000E+00  0.70551478096E+02  0.70551478096E+02  0.00000000000E+00 0.  1.
          2   -1    0    0  501    0  0.00000000000E+00 -0.00000000000E+00 -0.43402818077E+03  0.43402818077E+03  0.00000000000E+00 0. -1.
          5    1    1    2  502    0 -0.12080687948E+03 -0.77449889931E+02 -0.16683758789E+03  0.22011283087E+03  0.47000000000E+01 0. -1.
         -5    1    1    2    0  502  0.33834737164E+02  0.19762341911E+01 -0.75680307409E+02  0.83055968299E+02  0.47000000000E+01 0.  1.
        -11    1    1    2    0    0  0.35757606056E+02  0.97997199404E+02 -0.69121047591E+02  0.12513902949E+03  0.00000000000E+00 0.  1.
         11    1    1    2    0    0  0.51214536261E+02 -0.22523543664E+02 -0.51837759783E+02  0.76271830206E+02  0.00000000000E+00 0. -1.
<mgrwt>
<rscale>  0 0.34997903E+03</rscale>
<asrwt>0</asrwt>
<pdfrwt beam="2">  1        2 0.66773566E-01 0.34997903E+03</pdfrwt>
<pdfrwt beam="1">  1       -2 0.10854074E-01 0.34997903E+03</pdfrwt>
<totfact> 0.42582939E+03</totfact>
</mgrwt>
</event>
<event>
 7    1  0.4230786E-006  0.1932172E+03  0.7546771E-02  0.1160009E+00
          2   -1    0    0  501    0  0.00000000000E+00  0.00000000000E+00  0.44162385285E+03  0.44162385285E+03  0.00000000000E+00 0. -1.
         -2   -1    0    0    0  501 -0.00000000000E+00 -0.00000000000E+00 -0.76664273314E+02  0.76664273314E+02  0.00000000000E+00 0.  1.
         23    2    1    2    0    0 -0.90158530555E+01  0.14729811506E+03  0.20566149651E+03  0.28218706857E+03  0.12471916538E+03 0.  0.
          5    1    3    3  502    0 -0.88661735643E+01  0.16517619789E+03  0.14932188792E+03  0.22289212995E+03  0.47000000000E+01 0.  1.
         -5    1    3    3    0  502 -0.14967949129E+00 -0.17878082827E+02  0.56339608589E+02  0.59294938616E+02  0.47000000000E+01 0.  1.
        -11    1    1    2    0    0  0.27469916847E+00 -0.14093713095E+03  0.17004405138E+03  0.22085816659E+03  0.00000000000E+00 0. -1.
         11    1    1    2    0    0  0.87411538871E+01 -0.63609841114E+01 -0.10745968356E+02  0.15242891000E+02  0.00000000000E+00 0.  1.
<mgrwt>
<rscale>  0 0.18829382E+03</rscale>
<asrwt>0</asrwt>
<pdfrwt beam="1">  1        2 0.67942130E-01 0.19321721E+03</pdfrwt>
<pdfrwt beam="2">  1       -2 0.11794504E-01 0.19321721E+03</pdfrwt>
<totfact> 0.35785105E+03</totfact>
</mgrwt>
</event>
<event>
 6    1  0.4230786E-006  0.1781749E+03  0.7546771E-02  0.1185451E+00
          2   -1    0    0  501    0  0.00000000000E+00  0.00000000000E+00  0.25743124167E+03  0.25743124167E+03  0.00000000000E+00 0. -1.
         -2   -1    0    0    0  501 -0.00000000000E+00 -0.00000000000E+00 -0.89021006799E+02  0.89021006799E+02  0.00000000000E+00 0.  1.
          5    1    1    2  502    0  0.17754097510E+01 -0.32534661633E+02  0.12639448582E+03  0.13061130247E+03  0.47000000000E+01 0. -1.
         -5    1    1    2    0  502  0.67296459017E+02  0.23127242559E+02 -0.23565382344E+02  0.75107256571E+02  0.47000000000E+01 0.  1.
        -11    1    1    2    0    0  0.56896529070E+01 -0.31483619830E+02 -0.18802788225E+01  0.32048805223E+02  0.00000000000E+00 0.  1.
         11    1    1    2    0    0 -0.74761521675E+02  0.40891038904E+02  0.67461410214E+02  0.10868488420E+03  0.00000000000E+00 0. -1.
<mgrwt>
<rscale>  0 0.16290867E+03</rscale>
<asrwt>0</asrwt>
<pdfrwt beam="1">  1        2 0.39604806E-01 0.17817492E+03</pdfrwt>
<pdfrwt beam="2">  1       -2 0.13695540E-01 0.17817492E+03</pdfrwt>
<totfact> 0.50013191E+03</totfact>
</mgrwt>
</event>
<event>
 6    1  0.4230786E-006  0.3496071E+03  0.7546771E-02  0.1100498E+00
          1   -1    0    0  501    0  0.00000000000E+00  0.00000000000E+00  0.87468521360E+02  0.87468521360E+02  0.00000000000E+00 0. -1.
         -1   -1    0    0    0  501 -0.00000000000E+00 -0.00000000000E+00 -0.68463697482E+03  0.68463697482E+03  0.00000000000E+00 0.  1.
          5    1    1    2  502    0  0.93164255390E+02 -0.36978893114E+02 -0.81050769046E+01  0.10067174028E+03  0.47000000000E+01 0. -1.
         -5    1    1    2    0  502 -0.11851045106E+03 -0.45896991477E+02 -0.50117732026E+03  0.51706098014E+03  0.47000000000E+01 0.  1.
        -11    1    1    2    0    0  0.12041422284E+02  0.98087221772E+02 -0.48452562256E+02  0.11006248096E+03  0.00000000000E+00 0.  1.
         11    1    1    2    0    0  0.13304773390E+02 -0.15211337181E+02 -0.39433494040E+02  0.44310294808E+02  0.00000000000E+00 0. -1.
<mgrwt>
<rscale>  0 0.27137013E+03</rscale>
<asrwt>0</asrwt>
<pdfrwt beam="1">  1        1 0.13456696E-01 0.34960714E+03</pdfrwt>
<pdfrwt beam="2">  1       -1 0.10532876E+00 0.34960714E+03</pdfrwt>
<totfact> 0.38573768E+02</totfact>
</mgrwt>
</event>
<event>
 7    1  0.4230786E-006  0.1332378E+03  0.7546771E-02  0.1239397E+00
          2   -1    0    0  501    0  0.00000000000E+00  0.00000000000E+00  0.31994950057E+02  0.31994950057E+02  0.00000000000E+00 0. -1.
         -2   -1    0    0    0  501 -0.00000000000E+00 -0.00000000000E+00 -0.59753065425E+03  0.59753065425E+03  0.00000000000E+00 0.  1.
         23    2    1    2    0    0  0.66161128891E+01 -0.45630144067E+02 -0.49218888022E+03  0.50990410294E+03  0.12500566941E+03 0.  0.
          5    1    3    3  502    0  0.35033808711E+02  0.22282116778E+02 -0.71645891795E+02  0.82940245310E+02  0.47000000000E+01 0.  1.
         -5    1    3    3    0  502 -0.28417695822E+02 -0.67912260844E+02 -0.42054298843E+03  0.42696385763E+03  0.47000000000E+01 0.  1.
        -11    1    1    2    0    0  0.24733121251E+02  0.22373938953E+01 -0.59280264374E+02  0.64271945377E+02  0.00000000000E+00 0.  1.
         11    1    1    2    0    0 -0.31349234141E+02  0.43392750171E+02 -0.14066559590E+02  0.55349555982E+02  0.00000000000E+00 0. -1.
<mgrwt>
<rscale>  0 0.12227120E+03</rscale>
<asrwt>0</asrwt>
<pdfrwt beam="1">  1        2 0.49223007E-02 0.13323776E+03</pdfrwt>
<pdfrwt beam="2">  1       -2 0.91927781E-01 0.13323776E+03</pdfrwt>
<totfact> 0.16102188E+03</totfact>
</mgrwt>
</event>
<event>
 7    1  0.4230786E-006  0.1304911E+03  0.7546771E-02  0.1242091E+00
          1   -1    0    0  501    0  0.00000000000E+00  0.00000000000E+00  0.23110982009E+02  0.23110982009E+02  0.00000000000E+00 0. -1.
         -1   -1    0    0    0  501 -0.00000000000E+00 -0.00000000000E+00 -0.55293884463E+03  0.55293884463E+03  0.00000000000E+00 0.  1.
         23    2    1    2    0    0 -0.27476688331E+02  0.25396329852E+02 -0.32215454279E+03  0.34757944535E+03  0.12501191710E+03 0.  0.
          5    1    3    3  502    0  0.16005181038E+02 -0.33145163368E+02 -0.34081397174E+02  0.50382529791E+02  0.47000000000E+01 0.  1.
         -5    1    3    3    0  502 -0.43481869369E+02  0.58541493221E+02 -0.28807314561E+03  0.29719691556E+03  0.47000000000E+01 0.  1.
        -11    1    1    2    0    0  0.25427116913E+02  0.95871883998E+01 -0.12038420061E+02  0.29721642173E+02  0.00000000000E+00 0. -1.
         11    1    1    2    0    0  0.20495714181E+01 -0.34983518252E+02 -0.19563489977E+03  0.19874873912E+03  0.00000000000E+00 0.  1.
<mgrwt>
<rscale>  0 0.12061173E+03</rscale>
<asrwt>0</asrwt>
<pdfrwt beam="1">  1        1 0.35555358E-02 0.13049108E+03</pdfrwt>
<pdfrwt beam="2">  1       -1 0.85067512E-01 0.13049108E+03</pdfrwt>
<totfact> 0.36826664E+03</totfact>
</mgrwt>
</event>
<event>
 7    1  0.4230786E-006  0.1305785E+03  0.7546771E-02  0.1240116E+00
         -2   -1    0    0    0  501 -0.00000000000E+00  0.00000000000E+00  0.67793182220E+02  0.67793182220E+02  0.00000000000E+00 0.  1.
          2   -1    0    0  501    0  0.00000000000E+00 -0.00000000000E+00 -0.19610345313E+03  0.19610345313E+03  0.00000000000E+00 0. -1.
         23    2    1    2    0    0  0.17279908565E+02  0.33620613297E+02 -0.60200449129E+02  0.14378751736E+03  0.12498726013E+03 0.  0.
          5    1    3    3  502    0  0.39426705357E+02  0.71029409586E+02 -0.18683816660E+02  0.83491419478E+02  0.47000000000E+01 0. -1.
         -5    1    3    3    0  502 -0.22146796792E+02 -0.37408796290E+02 -0.41516632469E+02  0.60296097880E+02  0.47000000000E+01 0. -1.
        -11    1    1    2    0    0 -0.19514142030E+02 -0.64793054148E+02 -0.47393100618E+02  0.82613846243E+02  0.00000000000E+00 0. -1.
         11    1    1    2    0    0  0.22342334645E+01  0.31172440851E+02 -0.20716721166E+02  0.37495271751E+02  0.00000000000E+00 0.  1.
<mgrwt>
<rscale>  0 0.12182501E+03</rscale>
<asrwt>0</asrwt>
<pdfrwt beam="2">  1        2 0.30169762E-01 0.13057854E+03</pdfrwt>
<pdfrwt beam="1">  1       -2 0.10429720E-01 0.13057854E+03</pdfrwt>
<totfact> 0.10158130E+04</totfact>
</mgrwt>
</event>
<event>
 7    1  0.4230786E-006  0.1434463E+03  0.7546771E-02  0.1219134E+00
         -2   -1    0    0    0  501 -0.00000000000E+00  0.00000000000E+00  0.67819294140E+02  0.67819294140E+02  0.00000000000E+00 0.  1.
          2   -1    0    0  501    0  0.00000000000E+00 -0.00000000000E+00 -0.30184753266E+03  0.30184753266E+03  0.00000000000E+00 0. -1.
         23    2    1    2    0    0 -0.28491121406E+02  0.64344914009E+02 -0.48692876574E+02  0.15148540791E+03  0.12499928249E+03 0.  0.
          5    1    3    3  502    0 -0.41019870932E+02 -0.26384990767E+02 -0.31290370326E+02  0.58137550896E+02  0.47000000000E+01 0.  1.
         -5    1    3    3    0  502  0.12528749526E+02  0.90729904776E+02 -0.17402506248E+02  0.93347857014E+02  0.47000000000E+01 0.  1.
        -11    1    1    2    0    0  0.26194184735E+02  0.97846354564E+01 -0.13554371678E+02  0.31074030903E+02  0.00000000000E+00 0.  1.
         11    1    1    2    0    0  0.22969366707E+01 -0.74129549465E+02 -0.17178099027E+03  0.18710738799E+03  0.00000000000E+00 0. -1.
<mgrwt>
<rscale>  0 0.13577195E+03</rscale>
<asrwt>0</asrwt>
<pdfrwt beam="2">  1        2 0.46438082E-01 0.14344627E+03</pdfrwt>
<pdfrwt beam="1">  1       -2 0.10433738E-01 0.14344627E+03</pdfrwt>
<totfact> 0.64464431E+03</totfact>
</mgrwt>
</event>
<event>
 7    1  0.4230786E-006  0.1382173E+03  0.7546771E-02  0.1228419E+00
          2   -1    0    0  501    0  0.00000000000E+00  0.00000000000E+00  0.34014415806E+03  0.34014415806E+03  0.00000000000E+00 0. -1.
         -2   -1    0    0    0  501 -0.00000000000E+00 -0.00000000000E+00 -0.48423013844E+02  0.48423013844E+02  0.00000000000E+00 0.  1.
         23    2    1    2    0    0 -0.43872196429E+02 -0.39418295010E+02  0.10400588779E+03  0.17297762515E+03  0.12500185002E+03 0.  0.
          5    1    3    3  502    0 -0.96465400554E+00 -0.38232899103E+02 -0.18747176182E+02  0.42851274730E+02  0.47000000000E+01 0.  1.
         -5    1    3    3    0  502 -0.42907542424E+02 -0.11853959070E+01  0.12275306397E+03  0.13012635042E+03  0.47000000000E+01 0.  1.
        -11    1    1    2    0    0  0.33728165907E+02  0.57911601928E+02  0.73596548021E+02  0.99537905815E+02  0.00000000000E+00 0.  1.
         11    1    1    2    0    0  0.10144030522E+02 -0.18493306918E+02  0.11411870841E+03  0.11605164094E+03  0.00000000000E+00 0. -1.
<mgrwt>
<rscale>  0 0.12935302E+03</rscale>
<asrwt>0</asrwt>
<pdfrwt beam="1">  1        2 0.52329869E-01 0.13821734E+03</pdfrwt>
<pdfrwt beam="2">  1       -2 0.74496947E-02 0.13821734E+03</pdfrwt>
<totfact> 0.95725085E+03</totfact>
</mgrwt>
</event>
<event>
 7    1  0.4230786E-006  0.2370440E+03  0.7546771E-02  0.1124630E+00
          2   -1    0    0  501    0  0.00000000000E+00  0.00000000000E+00  0.18173423171E+03  0.18173423171E+03  0.00000000000E+00 0. -1.
         -2   -1    0    0    0  501 -0.00000000000E+00 -0.00000000000E+00 -0.56260208129E+03  0.56260208129E+03  0.00000000000E+00 0.  1.
         23    2    1    2    0    0  0.70553745546E+02  0.18864210202E+03 -0.45363821857E+03  0.51183736891E+03  0.12500474069E+03 0.  0.
          5    1    3    3  502    0  0.20046513348E+02  0.17864708593E+03 -0.39273743279E+03  0.43195072071E+03  0.47000000000E+01 0.  1.
         -5    1    3    3    0  502  0.50507232198E+02  0.99950160861E+01 -0.60900785778E+02  0.79886648191E+02  0.47000000000E+01 0.  1.
        -11    1    1    2    0    0 -0.14022312917E+02 -0.13722578309E+03  0.19417332312E+02  0.13930030007E+03  0.00000000000E+00 0. -1.
         11    1    1    2    0    0 -0.56531432629E+02 -0.51416318925E+02  0.53353036678E+02  0.93198644034E+02  0.00000000000E+00 0.  1.
<mgrwt>
<rscale>  0 0.23287880E+03</rscale>
<asrwt>0</asrwt>
<pdfrwt beam="1">  1        2 0.27959113E-01 0.23704400E+03</pdfrwt>
<pdfrwt beam="2">  1       -2 0.86554166E-01 0.23704400E+03</pdfrwt>
<totfact> 0.22796218E+02</totfact>
</mgrwt>
</event>
<event>
 7    1  0.5932503E-006  0.1701803E+03  0.7546771E-02  0.1184401E+00
          1   -1    0    0  501    0  0.00000000000E+00  0.00000000000E+00  0.30440908282E+03  0.30440908282E+03  0.00000000000E+00 0. -1.
         -1   -1    0    0    0  501 -0.00000000000E+00 -0.00000000000E+00 -0.83868111262E+02  0.83868111262E+02  0.00000000000E+00 0.  1.
         23    2    1    2    0    0 -0.89829907972E+02  0.72573664178E+02  0.91568017545E+02  0.19325123187E+03  0.12499995074E+03 0.  0.
          5    1    3    3  502    0 -0.30380751082E+02 -0.26621885683E+01  0.92219680311E+02  0.97245240094E+02  0.47000000000E+01 0.  1.
         -5    1    3    3    0  502 -0.59449156890E+02  0.75235852747E+02 -0.65166276591E+00  0.96005991781E+02  0.47000000000E+01 0.  1.
        -11    1    1    2    0    0  0.39505444292E+02  0.42921237490E+01  0.40324235237E+01  0.39941994122E+02  0.00000000000E+00 0.  1.
         11    1    1    2    0    0  0.50324463680E+02 -0.76865787927E+02  0.12494053049E+03  0.15508396809E+03  0.00000000000E+00 0. -1.
<mgrwt>
<rscale>  0 0.16386511E+03</rscale>
<asrwt>0</asrwt>
<pdfrwt beam="1">  1        1 0.46832166E-01 0.17018031E+03</pdfrwt>
<pdfrwt beam="2">  1       -1 0.12902787E-01 0.17018031E+03</pdfrwt>
<totfact> 0.34320671E+03</totfact>
</mgrwt>
</event>
<event>
 7    1  0.4230786E-006  0.1160879E+03  0.7546771E-02  0.1258559E+00
         -2   -1    0    0    0  501 -0.00000000000E+00  0.00000000000E+00  0.12595506469E+03  0.12595506469E+03  0.00000000000E+00 0.  1.
          2   -1    0    0  501    0  0.00000000000E+00 -0.00000000000E+00 -0.91820692111E+02  0.91820692111E+02  0.00000000000E+00 0. -1.
         23    2    1    2    0    0  0.28356336555E+02 -0.16462709876E+02  0.31888289354E+02  0.12038793709E+03  0.11136107830E+03 0.  0.
          5    1    3    3  502    0 -0.11565913046E+02 -0.44305931798E+02 -0.19013813818E+02  0.49803624898E+02  0.47000000000E+01 0. -1.
         -5    1    3    3    0  502  0.39922249600E+02  0.27843221922E+02  0.50902103172E+02  0.70584312191E+02  0.47000000000E+01 0.  1.
        -11    1    1    2    0    0 -0.17632576149E+02 -0.33916851281E+02  0.19698267015E+02  0.43003282036E+02  0.00000000000E+00 0. -1.
         11    1    1    2    0    0 -0.10723760406E+02  0.50379561158E+02 -0.17452183786E+02  0.54384537679E+02  0.00000000000E+00 0.  1.
<mgrwt>
<rscale>  0 0.11109318E+03</rscale>
<asrwt>0</asrwt>
<pdfrwt beam="2">  1        2 0.14126260E-01 0.11608786E+03</pdfrwt>
<pdfrwt beam="1">  1       -2 0.19377702E-01 0.11608786E+03</pdfrwt>
<totfact> 0.86447682E+03</totfact>
</mgrwt>
</event>
<event>
 7    1  0.4230786E-006  0.1560249E+03  0.7546771E-02  0.1202225E+00
          2   -1    0    0  501    0  0.00000000000E+00  0.00000000000E+00  0.31088617170E+03  0.31088617170E+03  0.00000000000E+00 0. -1.
         -2   -1    0    0    0  501 -0.00000000000E+00 -0.00000000000E+00 -0.65847646600E+02  0.65847646600E+02  0.00000000000E+00 0.  1.
         23    2    1    2    0    0  0.60812968956E+01  0.93178442083E+02  0.11325768616E+03  0.19279798378E+03  0.12499821933E+03 0.  0.
          5    1    3    3  502    0  0.33673088395E+02  0.91224647058E+02  0.25463507353E+02  0.10062948534E+03  0.47000000000E+01 0.  1.
         -5    1    3    3    0  502 -0.27591791500E+02  0.19537950251E+01  0.87794178804E+02  0.92168498441E+02  0.47000000000E+01 0.  1.
        -11    1    1    2    0    0  0.10928109767E+02 -0.65902335817E+02  0.23230949567E+02  0.70726363309E+02  0.00000000000E+00 0.  1.
         11    1    1    2    0    0 -0.17009406662E+02 -0.27276106266E+02  0.10854988937E+03  0.11320947121E+03  0.00000000000E+00 0. -1.
<mgrwt>
<rscale>  0 0.14858314E+03</rscale>
<asrwt>0</asrwt>
<pdfrwt beam="1">  1        2 0.47828641E-01 0.15602487E+03</pdfrwt>
<pdfrwt beam="2">  1       -2 0.10130407E-01 0.15602487E+03</pdfrwt>
<totfact> 0.65794524E+03</totfact>
</mgrwt>
</event>
<event>
 7    1  0.4230786E-006  0.1395873E+03  0.7546771E-02  0.1224425E+00
         -2   -1    0    0    0  501 -0.00000000000E+00  0.00000000000E+00  0.41317828470E+02  0.41317828470E+02  0.00000000000E+00 0. -1.
          2   -1    0    0  501    0  0.00000000000E+00 -0.00000000000E+00 -0.51564183425E+03  0.51564183425E+03  0.00000000000E+00 0.  1.
         23    2    1    2    0    0 -0.60401777641E+02  0.14496844098E+02 -0.11570972428E+03  0.18131014004E+03  0.12500437335E+03 0.  0.
          5    1    3    3  502    0  0.37720094872E+02 -0.37225300722E+01 -0.44372927743E+02  0.58546643830E+02  0.47000000000E+01 0.  1.
         -5    1    3    3    0  502 -0.98121872513E+02  0.18219374170E+02 -0.71336796539E+02  0.12276349621E+03  0.47000000000E+01 0.  1.
        -11    1    1    2    0    0  0.15119982754E+02  0.31864134486E+02 -0.56054964098E+02  0.66227607122E+02  0.00000000000E+00 0. -1.
         11    1    1    2    0    0  0.45281794888E+02 -0.46360978584E+02 -0.30255931740E+03  0.30942191556E+03  0.00000000000E+00 0.  1.
<mgrwt>
<rscale>  0 0.13206404E+03</rscale>
<asrwt>0</asrwt>
<pdfrwt beam="2">  1        2 0.79329513E-01 0.13958734E+03</pdfrwt>
<pdfrwt beam="1">  1       -2 0.63565890E-02 0.13958734E+03</pdfrwt>
<totfact> 0.77997380E+03</totfact>
</mgrwt>
</event>
<event>
 7    1  0.4230786E-006  0.1370479E+03  0.7546771E-02  0.1233600E+00
         -3   -1    0    0    0  501 -0.00000000000E+00  0.00000000000E+00  0.38208041252E+02  0.38208041252E+02  0.00000000000E+00 0.  1.
          3   -1    0    0  501    0  0.00000000000E+00 -0.00000000000E+00 -0.36440244829E+03  0.36440244829E+03  0.00000000000E+00 0. -1.
         23    2    1    2    0    0  0.24101543205E+02 -0.50764518978E+02 -0.21008379838E+03  0.25083326016E+03  0.12499680511E+03 0.  0.
          5    1    3    3  502    0 -0.77665227137E+01 -0.72765598389E+02 -0.19615242175E+03  0.20941111179E+03  0.47000000000E+01 0. -1.
         -5    1    3    3    0  502  0.31868065919E+02  0.22001079411E+02 -0.13931376636E+02  0.41422148370E+02  0.47000000000E+01 0. -1.
        -11    1    1    2    0    0 -0.44268858330E+02  0.60604857034E+02 -0.93853115481E+02  0.12017107722E+03  0.00000000000E+00 0.  1.
         11    1    1    2    0    0  0.20167315125E+02 -0.98403380566E+01 -0.22257493181E+02  0.31606152172E+02  0.00000000000E+00 0. -1.
<mgrwt>
<rscale>  0 0.12594505E+03</rscale>
<asrwt>0</asrwt>
<pdfrwt beam="2">  1        3 0.56061914E-01 0.13704788E+03</pdfrwt>
<pdfrwt beam="1">  1       -3 0.58781603E-02 0.13704788E+03</pdfrwt>
<totfact> 0.12853622E+03</totfact>
</mgrwt>
</event>
<event>
 6    1  0.4230786E-006  0.1582393E+03  0.7546771E-02  0.1200398E+00
          1   -1    0    0  501    0  0.00000000000E+00  0.00000000000E+00  0.24962166633E+02  0.24962166633E+02  0.00000000000E+00 0. -1.
         -1   -1    0    0    0  501 -0.00000000000E+00 -0.00000000000E+00 -0.87424141348E+03  0.87424141348E+03  0.00000000000E+00 0.  1.
          5    1    1    2  502    0  0.37772244087E+02 -0.78935594653E+01 -0.73934499219E+02  0.83531137184E+02  0.47000000000E+01 0. -1.
         -5    1    1    2    0  502 -0.66589477123E+02  0.86320398609E+02 -0.50379085274E+03  0.51547326117E+03  0.47000000000E+01 0.  1.
        -11    1    1    2    0    0 -0.23907694178E+02  0.89755404639E+01 -0.63895166534E+02  0.68809377805E+02  0.00000000000E+00 0.  1.
         11    1    1    2    0    0  0.52724927214E+02 -0.87402379608E+02 -0.20765872835E+03  0.23138980395E+03  0.00000000000E+00 0. -1.
<mgrwt>
<rscale>  0 0.15006125E+03</rscale>
<asrwt>0</asrwt>
<pdfrwt beam="1">  1        1 0.38403340E-02 0.15823933E+03</pdfrwt>
<pdfrwt beam="2">  1       -1 0.13449866E+00 0.15823933E+03</pdfrwt>
<totfact> 0.11858992E+03</totfact>
</mgrwt>
</event>
<event>
 7    1  0.4230786E-006  0.3192954E+03  0.7546771E-02  0.1077346E+00
         -3   -1    0    0    0  501 -0.00000000000E+00  0.00000000000E+00  0.23007545405E+04  0.23007545405E+04  0.00000000000E+00 0. -1.
          3   -1    0    0  501    0  0.00000000000E+00 -0.00000000000E+00 -0.50241029423E+02  0.50241029423E+02  0.00000000000E+00 0.  1.
         23    2    1    2    0    0  0.19966033354E+03  0.21565013567E+03  0.15981331431E+04  0.16297174882E+04  0.12482114576E+03 0.  0.
          5    1    3    3  502    0  0.76561451410E+02  0.13951776562E+03  0.10820730729E+04  0.10937234970E+04  0.47000000000E+01 0.  1.
         -5    1    3    3    0  502  0.12309888213E+03  0.76132370043E+02  0.51606007021E+03  0.53599399121E+03  0.47000000000E+01 0.  1.
        -11    1    1    2    0    0 -0.47493618849E+02 -0.57975288899E+02  0.86488495158E+02  0.11444229004E+03  0.00000000000E+00 0.  1.
         11    1    1    2    0    0 -0.15216671469E+03 -0.15767484677E+03  0.56589187281E+03  0.60683579169E+03  0.00000000000E+00 0. -1.
<mgrwt>
<rscale>  0 0.31634060E+03</rscale>
<asrwt>0</asrwt>
<pdfrwt beam="2">  1        3 0.77293909E-02 0.31929539E+03</pdfrwt>
<pdfrwt beam="1">  1       -3 0.35396216E+00 0.31929539E+03</pdfrwt>
<totfact> 0.63221488E+00</totfact>
</mgrwt>
</event>
<event>
 7    1  0.4230786E-006  0.1393770E+03  0.7546771E-02  0.1222492E+00
          3   -1    0    0  501    0  0.00000000000E+00  0.00000000000E+00  0.30207737193E+03  0.30207737193E+03  0.00000000000E+00 0. -1.
         -3   -1    0    0    0  501 -0.00000000000E+00 -0.00000000000E+00 -0.54398394465E+02  0.54398394465E+02  0.00000000000E+00 0.  1.
         23    2    1    2    0    0 -0.48617651746E+02 -0.37858579034E+02  0.13730711504E+03  0.19565069652E+03  0.12501601154E+03 0.  0.
          5    1    3    3  502    0 -0.34938454002E+02 -0.73930674719E+02  0.13347040127E+03  0.15659782325E+03  0.47000000000E+01 0.  1.
         -5    1    3    3    0  502 -0.13679197744E+02  0.36072095685E+02  0.38367137673E+01  0.39052873269E+02  0.47000000000E+01 0.  1.
        -11    1    1    2    0    0  0.48860923135E+02  0.51971132718E+02  0.27007826867E+02  0.76274577401E+02  0.00000000000E+00 0.  1.
         11    1    1    2    0    0 -0.24327138960E+00 -0.14112553684E+02  0.83364035561E+02  0.84550492473E+02  0.00000000000E+00 0. -1.
<mgrwt>
<rscale>  0 0.13340283E+03</rscale>
<asrwt>0</asrwt>
<pdfrwt beam="1">  1        3 0.46473441E-01 0.13937701E+03</pdfrwt>
<pdfrwt beam="2">  1       -3 0.83689839E-02 0.13937701E+03</pdfrwt>
<totfact> 0.10610107E+03</totfact>
</mgrwt>
</event>
<event>
 6    1  0.4230786E-006  0.3904388E+03  0.7546771E-02  0.1070988E+00
         -2   -1    0    0    0  501 -0.00000000000E+00  0.00000000000E+00  0.76954839641E+02  0.76954839641E+02  0.00000000000E+00 0.  1.
          2   -1    0    0  501    0  0.00000000000E+00 -0.00000000000E+00 -0.14872900385E+04  0.14872900385E+04  0.00000000000E+00 0. -1.
          5    1    1    2  502    0  0.50242379986E+02  0.13685850798E+03 -0.23418026841E+03  0.27589316060E+03  0.47000000000E+01 0. -1.
         -5    1    1    2    0  502 -0.22279816329E+03 -0.92570919839E+02 -0.27772168667E+03  0.36791279131E+03  0.47000000000E+01 0.  1.
        -11    1    1    2    0    0  0.16103862433E+03 -0.60692335463E+02 -0.86045004657E+03  0.87749147047E+03  0.00000000000E+00 0. -1.
         11    1    1    2    0    0  0.11517158965E+02  0.16404747320E+02 -0.37983197160E+02  0.42947455708E+02  0.00000000000E+00 0.  1.
<mgrwt>
<rscale>  0 0.33033675E+03</rscale>
<asrwt>0</asrwt>
<pdfrwt beam="2">  1        2 0.22881385E+00 0.39043885E+03</pdfrwt>
<pdfrwt beam="1">  1       -2 0.11839206E-01 0.39043885E+03</pdfrwt>
<totfact> 0.69472093E+02</totfact>
</mgrwt>
</event>
<event>
 7    1  0.4230786E-006  0.1606310E+03  0.7546771E-02  0.1196376E+00
         -2   -1    0    0    0  501 -0.00000000000E+00  0.00000000000E+00  0.56572879578E+02  0.56572879578E+02  0.00000000000E+00 0.  1.
          2   -1    0    0  501    0  0.00000000000E+00 -0.00000000000E+00 -0.40377666270E+03  0.40377666270E+03  0.00000000000E+00 0. -1.
         23    2    1    2    0    0  0.16380802582E+02  0.99563779660E+02 -0.13602113302E+03  0.21048529396E+03  0.12498413272E+03 0.  0.
          5    1    3    3  502    0  0.23535569683E+02 -0.13908733069E+02  0.61182108230E+01  0.28405957114E+02  0.47000000000E+01 0.  1.
         -5    1    3    3    0  502 -0.71547671013E+01  0.11347251273E+03 -0.14213934384E+03  0.18207933684E+03  0.47000000000E+01 0.  1.
        -11    1    1    2    0    0 -0.50296347807E+02 -0.51055775544E+02 -0.14008563808E+03  0.15735437972E+03  0.00000000000E+00 0.  1.
         11    1    1    2    0    0  0.33915545225E+02 -0.48508004115E+02 -0.71097012022E+02  0.92509868606E+02  0.00000000000E+00 0. -1.
<mgrwt>
<rscale>  0 0.15338333E+03</rscale>
<asrwt>0</asrwt>
<pdfrwt beam="2">  1        2 0.62119485E-01 0.16063098E+03</pdfrwt>
<pdfrwt beam="1">  1       -2 0.87035201E-02 0.16063098E+03</pdfrwt>
<totfact> 0.63248160E+03</totfact>
</mgrwt>
</event>
<event>
 7    1  0.4230786E-006  0.1755415E+03  0.7546771E-02  0.1178808E+00
         -1   -1    0    0    0  501 -0.00000000000E+00  0.00000000000E+00  0.31848726758E+03  0.31848726758E+03  0.00000000000E+00 0.  1.
          1   -1    0    0  501    0  0.00000000000E+00 -0.00000000000E+00 -0.86939483918E+02  0.86939483918E+02  0.00000000000E+00 0. -1.
         23    2    1    2    0    0 -0.97271089954E+02 -0.76189018167E+02  0.16284150136E+03  0.23944141033E+03  0.12469323551E+03 0.  0.
          5    1    3    3  502    0 -0.11859136004E+02 -0.83194234068E+02  0.50816518058E+02  0.98317486728E+02  0.47000000000E+01 0.  1.
         -5    1    3    3    0  502 -0.85411953950E+02  0.70052159014E+01  0.11202498331E+03  0.14112392360E+03  0.47000000000E+01 0.  1.
        -11    1    1    2    0    0 -0.14839321711E+02  0.21981604867E+02  0.13677124129E+02  0.29840578845E+02  0.00000000000E+00 0. -1.
         11    1    1    2    0    0  0.11211041167E+03  0.54207413300E+02  0.55029158171E+02  0.13614476233E+03  0.00000000000E+00 0.  1.
<mgrwt>
<rscale>  0 0.16908285E+03</rscale>
<asrwt>0</asrwt>
<pdfrwt beam="2">  1        1 0.13375305E-01 0.17554155E+03</pdfrwt>
<pdfrwt beam="1">  1       -1 0.48998041E-01 0.17554155E+03</pdfrwt>
<totfact> 0.18220918E+03</totfact>
</mgrwt>
</event>
<event>
 7    1  0.4230786E-006  0.1249103E+03  0.7546771E-02  0.1246342E+00
         -1   -1    0    0    0  501 -0.00000000000E+00  0.00000000000E+00  0.96826441809E+02  0.96826441809E+02  0.00000000000E+00 0.  1.
          1   -1    0    0  501    0  0.00000000000E+00 -0.00000000000E+00 -0.25166741236E+03  0.25166741236E+03  0.00000000000E+00 0. -1.
         23    2    1    2    0    0  0.23864801728E+02 -0.23025954152E+02  0.38726526952E+02  0.13077586705E+03  0.12042782148E+03 0.  0.
          5    1    3    3  502    0  0.48880835112E+02  0.35358685945E+02  0.25816644465E+02  0.65788766856E+02  0.47000000000E+01 0. -1.
         -5    1    3    3    0  502 -0.25016033383E+02 -0.58384640097E+02  0.12909882488E+02  0.64987100192E+02  0.47000000000E+01 0.  1.
        -11    1    1    2    0    0 -0.28286976044E+02 -0.87558328832E+01 -0.98307404884E+01  0.31200337846E+02  0.00000000000E+00 0.  1.
         11    1    1    2    0    0  0.44221743152E+01  0.31781787035E+02 -0.18373675701E+03  0.18651764927E+03  0.00000000000E+00 0. -1.
<mgrwt>
<rscale>  0 0.11805445E+03</rscale>
<asrwt>0</asrwt>
<pdfrwt beam="2">  1        1 0.38718063E-01 0.12491030E+03</pdfrwt>
<pdfrwt beam="1">  1       -1 0.14896376E-01 0.12491030E+03</pdfrwt>
<totfact> 0.34216522E+03</totfact>
</mgrwt>
</event>
<event>
 7    1  0.4230786E-006  0.1572793E+03  0.7546771E-02  0.1200112E+00
         -2   -1    0    0    0  501 -0.00000000000E+00  0.00000000000E+00  0.80732992294E+03  0.80732992294E+03  0.00000000000E+00 0. -1.
          2   -1    0    0  501    0  0.00000000000E+00 -0.00000000000E+00 -0.28856039240E+02  0.28856039240E+02  0.00000000000E+00 0.  1.
         23    2    1    2    0    0  0.64333195763E+02  0.70527045686E+02  0.55715479207E+03  0.57892853362E+03  0.12499584178E+03 0.  0.
          5    1    3    3  502    0  0.31491327123E+02  0.10452636328E+03  0.40898176644E+03  0.42332687085E+03  0.47000000000E+01 0.  1.
         -5    1    3    3    0  502  0.32841868640E+02 -0.33999317591E+02  0.14817302563E+03  0.15560166277E+03  0.47000000000E+01 0.  1.
        -11    1    1    2    0    0 -0.29758576413E+02 -0.43474286613E+02  0.20293650581E+03  0.20966356827E+03  0.00000000000E+00 0. -1.
         11    1    1    2    0    0 -0.34574619350E+02 -0.27052759073E+02  0.18382585824E+02  0.47593860300E+02  0.00000000000E+00 0.  1.
<mgrwt>
<rscale>  0 0.15029426E+03</rscale>
<asrwt>0</asrwt>
<pdfrwt beam="2">  1        2 0.44393913E-02 0.15727932E+03</pdfrwt>
<pdfrwt beam="1">  1       -2 0.12420459E+00 0.15727932E+03</pdfrwt>
<totfact> 0.91949790E+02</totfact>
</mgrwt>
</event>
<event>
 7    1  0.4230786E-006  0.1251670E+03  0.7546771E-02  0.1250240E+00
          2   -1    0    0  501    0  0.00000000000E+00  0.00000000000E+00  0.29644238634E+03  0.29644238634E+03  0.00000000000E+00 0. -1.
         -2   -1    0    0    0  501 -0.00000000000E+00 -0.00000000000E+00 -0.81109445223E+02  0.81109445223E+02  0.00000000000E+00 0.  1.
         23    2    1    2    0    0  0.26882869704E+01  0.61776076464E+01 -0.18395369965E+02  0.12651152676E+03  0.12498554734E+03 0.  0.
          5    1    3    3  502    0  0.35890904422E+02  0.53071988260E+02 -0.24025961749E+02  0.68586659024E+02  0.47000000000E+01 0. -1.
         -5    1    3    3    0  502 -0.33202617452E+02 -0.46894380613E+02  0.56305917838E+01  0.57924867739E+02  0.47000000000E+01 0. -1.
        -11    1    1    2    0    0  0.31743069591E+02 -0.28009160020E+02  0.65860256271E+02  0.78292457288E+02  0.00000000000E+00 0.  1.
         11    1    1    2    0    0 -0.34431356561E+02  0.21831552374E+02  0.16786805481E+03  0.17274784751E+03  0.00000000000E+00 0. -1.
<mgrwt>
<rscale>  0 0.11577174E+03</rscale>
<asrwt>0</asrwt>
<pdfrwt beam="1">  1        2 0.45606520E-01 0.12516700E+03</pdfrwt>
<pdfrwt beam="2">  1       -2 0.12478376E-01 0.12516700E+03</pdfrwt>
<totfact> 0.49040392E+03</totfact>
</mgrwt>
</event>
<event>
 7    1  0.6664651E-006  0.1719911E+03  0.7546771E-02  0.1181913E+00
          3   -1    0    0  501    0  0.00000000000E+00  0.00000000000E+00  0.32127490643E+03  0.32127490643E+03  0.00000000000E+00 0. -1.
         -3   -1    0    0    0  501 -0.00000000000E+00 -0.00000000000E+00 -0.85840985931E+02  0.85840985931E+02  0.00000000000E+00 0.  1.
         23    2    1    2    0    0 -0.10495156751E+03  0.54226249066E+02  0.75091458812E+02  0.18766904513E+03  0.12500250279E+03 0.  0.
          5    1    3    3  502    0 -0.82297544785E+02  0.31768460078E+02  0.10938140358E+03  0.14060050634E+03  0.47000000000E+01 0.  1.
         -5    1    3    3    0  502 -0.22654022728E+02  0.22457788988E+02 -0.34289944767E+02  0.47068538794E+02  0.47000000000E+01 0.  1.
        -11    1    1    2    0    0  0.82814262459E+02  0.22093658091E+01  0.12283270889E+03  0.14815855607E+03  0.00000000000E+00 0. -1.
         11    1    1    2    0    0  0.22137305055E+02 -0.56435614875E+02  0.37509752799E+02  0.71288291160E+02  0.00000000000E+00 0.  1.
<mgrwt>
<rscale>  0 0.16615936E+03</rscale>
<asrwt>0</asrwt>
<pdfrwt beam="1">  1        3 0.49426908E-01 0.17199111E+03</pdfrwt>
<pdfrwt beam="2">  1       -3 0.13206306E-01 0.17199111E+03</pdfrwt>
<totfact> 0.45273063E+02</totfact>
</mgrwt>
</event>
<event>
 7    1  0.4230786E-006  0.1494677E+03  0.7546771E-02  0.1210278E+00
          2   -1    0    0  501    0  0.00000000000E+00  0.00000000000E+00  0.13291623611E+04  0.13291623611E+04  0.00000000000E+00 0. -1.
         -2   -1    0    0    0  501 -0.00000000000E+00 -0.00000000000E+00 -0.14113223745E+02  0.14113223745E+02  0.00000000000E+00 0.  1.
         23    2    1    2    0    0  0.61943349251E+02 -0.53655959506E+02  0.79540583483E+03  0.80932752389E+03  0.12499863334E+03 0.  0.
          5    1    3    3  502    0  0.52987323343E+02  0.32416718028E+02  0.30017594328E+03  0.30657166693E+03  0.47000000000E+01 0. -1.
         -5    1    3    3    0  502  0.89560259078E+01 -0.86072677534E+02  0.49522989155E+03  0.50275585696E+03  0.47000000000E+01 0. -1.
        -11    1    1    2    0    0 -0.44172312917E+02  0.79067272189E+02  0.35226863648E+03  0.36372519711E+03  0.00000000000E+00 0.  1.
         11    1    1    2    0    0 -0.17771036334E+02 -0.25411312683E+02  0.16737466607E+03  0.17022286388E+03  0.00000000000E+00 0. -1.
<mgrwt>
<rscale>  0 0.14229173E+03</rscale>
<asrwt>0</asrwt>
<pdfrwt beam="1">  1        2 0.20448642E+00 0.14946772E+03</pdfrwt>
<pdfrwt beam="2">  1       -2 0.21712662E-02 0.14946772E+03</pdfrwt>
<totfact> 0.11279519E+04</totfact>
</mgrwt>
</event>
<event>
 7    1  0.4230786E-006  0.1349392E+03  0.7546771E-02  0.1232536E+00
         -2   -1    0    0    0  501 -0.00000000000E+00  0.00000000000E+00  0.73401383222E+02  0.73401383222E+02  0.00000000000E+00 0.  1.
          2   -1    0    0  501    0  0.00000000000E+00 -0.00000000000E+00 -0.19570795537E+03  0.19570795537E+03  0.00000000000E+00 0. -1.
         23    2    1    2    0    0 -0.22033791007E+02  0.45792448056E+02 -0.72855219628E+02  0.15335083185E+03  0.12500463335E+03 0.  0.
          5    1    3    3  502    0 -0.31322721240E+02  0.10335824564E+01 -0.96571520658E+02  0.10163822982E+03  0.47000000000E+01 0. -1.
         -5    1    3    3    0  502  0.92889302331E+01  0.44758865600E+02  0.23716301030E+02  0.51712602034E+02  0.47000000000E+01 0. -1.
        -11    1    1    2    0    0 -0.75474691993E+01 -0.57254199798E+02 -0.89400009612E+00  0.57756444853E+02  0.00000000000E+00 0.  1.
         11    1    1    2    0    0  0.29581260207E+02  0.11461751742E+02 -0.48557352421E+02  0.58002061882E+02  0.00000000000E+00 0. -1.
<mgrwt>
<rscale>  0 0.12663484E+03</rscale>
<asrwt>0</asrwt>
<pdfrwt beam="2">  1        2 0.30108916E-01 0.13493923E+03</pdfrwt>
<pdfrwt beam="1">  1       -2 0.11292521E-01 0.13493923E+03</pdfrwt>
<totfact> 0.90007434E+03</totfact>
</mgrwt>
</event>
<event>
 7    1  0.4230786E-006  0.1874634E+03  0.7546771E-02  0.1165731E+00
         -1   -1    0    0    0  501 -0.00000000000E+00  0.00000000000E+00  0.46313596430E+02  0.46313596430E+02  0.00000000000E+00 0.  1.
          1   -1    0    0  501    0  0.00000000000E+00 -0.00000000000E+00 -0.69011163342E+03  0.69011163342E+03  0.00000000000E+00 0. -1.
         23    2    1    2    0    0  0.86936514581E+02 -0.10936079055E+03 -0.38731495605E+03  0.43029688505E+03  0.12499917611E+03 0.  0.
          5    1    3    3  502    0  0.49304272962E+02 -0.12404902988E+03 -0.21391957821E+03  0.25219585462E+03  0.47000000000E+01 0.  1.
         -5    1    3    3    0  502  0.37632241619E+02  0.14688239335E+02 -0.17339537784E+03  0.17810103043E+03  0.47000000000E+01 0.  1.
        -11    1    1    2    0    0 -0.83720257440E+02  0.87396607923E+02 -0.25684103585E+03  0.28392704394E+03  0.00000000000E+00 0. -1.
         11    1    1    2    0    0 -0.32162571411E+01  0.21964182623E+02  0.35795490773E+00  0.22201300863E+02  0.00000000000E+00 0.  1.
<mgrwt>
<rscale>  0 0.18215798E+03</rscale>
<asrwt>0</asrwt>
<pdfrwt beam="2">  1        1 0.10617102E+00 0.18746342E+03</pdfrwt>
<pdfrwt beam="1">  1       -1 0.71251687E-02 0.18746342E+03</pdfrwt>
<totfact> 0.29263889E+03</totfact>
</mgrwt>
</event>
<event>
 7    1  0.4230786E-006  0.1319519E+03  0.7546771E-02  0.1235866E+00
          1   -1    0    0  501    0  0.00000000000E+00  0.00000000000E+00  0.53742218073E+02  0.53742218073E+02  0.00000000000E+00 0. -1.
         -1   -1    0    0    0  501 -0.00000000000E+00 -0.00000000000E+00 -0.79341867978E+03  0.79341867978E+03  0.00000000000E+00 0.  1.
         23    2    1    2    0    0  0.35667892185E+02  0.26854334233E+02 -0.73037700461E+03  0.74220069149E+03  0.12416901302E+03 0.  0.
          5    1    3    3  502    0  0.26342161382E+02 -0.39638895390E+02 -0.13882931074E+03  0.14683602765E+03  0.47000000000E+01 0. -1.
         -5    1    3    3    0  502  0.93257308027E+01  0.66493229622E+02 -0.59154769386E+03  0.59536466385E+03  0.47000000000E+01 0.  1.
        -11    1    1    2    0    0  0.69882234232E+00  0.31359704072E+02  0.11228401220E+02  0.33316608262E+02  0.00000000000E+00 0.  1.
         11    1    1    2    0    0 -0.36366714527E+02 -0.58214038305E+02 -0.20527858322E+02  0.71643598099E+02  0.00000000000E+00 0. -1.
<mgrwt>
<rscale>  0 0.12449159E+03</rscale>
<asrwt>0</asrwt>
<pdfrwt beam="1">  1        1 0.82680337E-02 0.13195188E+03</pdfrwt>
<pdfrwt beam="2">  1       -1 0.12206441E+00 0.13195188E+03</pdfrwt>
<totfact> 0.52527118E+02</totfact>
</mgrwt>
</event>
<event>
 7    1  0.4230786E-006  0.1990673E+03  0.7546771E-02  0.1155064E+00
         -2   -1    0    0    0  501 -0.00000000000E+00  0.00000000000E+00  0.80856083928E+02  0.80856083928E+02  0.00000000000E+00 0.  1.
          2   -1    0    0  501    0  0.00000000000E+00 -0.00000000000E+00 -0.47276257053E+03  0.47276257053E+03  0.00000000000E+00 0. -1.
         23    2    1    2    0    0 -0.11940491675E+03 -0.98726594930E+02 -0.13482490688E+03  0.24042779897E+03  0.12499318507E+03 0.  0.
          5    1    3    3  502    0 -0.75546814124E+02  0.90575973268E+01 -0.83779611686E+02  0.11327168458E+03  0.47000000000E+01 0. -1.
         -5    1    3    3    0  502 -0.43858102623E+02 -0.10778419226E+03 -0.51045295193E+02  0.12715611439E+03  0.47000000000E+01 0. -1.
        -11    1    1    2    0    0  0.63917351627E+01  0.44129109172E+02 -0.30032515368E+02  0.53760436512E+02  0.00000000000E+00 0.  1.
         11    1    1    2    0    0  0.11301318158E+03  0.54597485758E+02 -0.22704906435E+03  0.25943041897E+03  0.00000000000E+00 0. -1.
<mgrwt>
<rscale>  0 0.19381594E+03</rscale>
<asrwt>0</asrwt>
<pdfrwt beam="2">  1        2 0.72732702E-01 0.19906725E+03</pdfrwt>
<pdfrwt beam="1">  1       -2 0.12439398E-01 0.19906725E+03</pdfrwt>
<totfact> 0.30506169E+03</totfact>
</mgrwt>
</event>
<event>
 7    1  0.4230786E-006  0.1359676E+03  0.7546771E-02  0.1230924E+00
         -4   -1    0    0    0  501 -0.00000000000E+00  0.00000000000E+00  0.26513066501E+03  0.26513066501E+03  0.00000000000E+00 0.  1.
          4   -1    0    0  501    0  0.00000000000E+00 -0.00000000000E+00 -0.81890178467E+02  0.81890178467E+02  0.00000000000E+00 0. -1.
         23    2    1    2    0    0 -0.49541755985E+02  0.20200256562E+02  0.19804721384E+03  0.24022882996E+03  0.12499902352E+03 0.  0.
          5    1    3    3  502    0 -0.86477783945E+01 -0.20291079094E+02 -0.97419422127E+01  0.24566387607E+02  0.47000000000E+01 0.  1.
         -5    1    3    3    0  502 -0.40893977590E+02  0.40491335656E+02  0.20778915606E+03  0.21566244235E+03  0.47000000000E+01 0.  1.
        -11    1    1    2    0    0  0.25876966440E+02 -0.49236506561E+02  0.16451885513E+02  0.58004443859E+02  0.00000000000E+00 0.  1.
         11    1    1    2    0    0  0.23664789545E+02  0.29036249999E+02 -0.31258612815E+02  0.48787569660E+02  0.00000000000E+00 0. -1.
<mgrwt>
<rscale>  0 0.12769019E+03</rscale>
<asrwt>0</asrwt>
<pdfrwt beam="2">  1        4 0.12598489E-01 0.13596761E+03</pdfrwt>
<pdfrwt beam="1">  1       -4 0.40789333E-01 0.13596761E+03</pdfrwt>
<totfact> 0.49618423E+02</totfact>
</mgrwt>
</event>
<event>
 7    1  0.4230786E-006  0.1346584E+03  0.7546771E-02  0.1233616E+00
         -2   -1    0    0    0  501 -0.00000000000E+00  0.00000000000E+00  0.96963101423E+02  0.96963101423E+02  0.00000000000E+00 0.  1.
          2   -1    0    0  501    0  0.00000000000E+00 -0.00000000000E+00 -0.16339721238E+03  0.16339721238E+03  0.00000000000E+00 0. -1.
         23    2    1    2    0    0 -0.26690657032E+02  0.42367877247E+02  0.54155951115E+01  0.13476722968E+03  0.12500179731E+03 0.  0.
          5    1    3    3  502    0 -0.61069716407E+02  0.54157710321E+02 -0.26731135189E+02  0.86018669123E+02  0.47000000000E+01 0.  1.
         -5    1    3    3    0  502  0.34379059375E+02 -0.11789833073E+02  0.32146730301E+02  0.48748560557E+02  0.47000000000E+01 0.  1.
        -11    1    1    2    0    0  0.38665511617E+02 -0.29567335963E+02 -0.88764351117E+02  0.10123417987E+03  0.00000000000E+00 0. -1.
         11    1    1    2    0    0 -0.11974854586E+02 -0.12800541284E+02  0.16914645046E+02  0.24358904256E+02  0.00000000000E+00 0.  1.
<mgrwt>
<rscale>  0 0.12593481E+03</rscale>
<asrwt>0</asrwt>
<pdfrwt beam="2">  1        2 0.25138032E-01 0.13465837E+03</pdfrwt>
<pdfrwt beam="1">  1       -2 0.14917400E-01 0.13465837E+03</pdfrwt>
<totfact> 0.70019769E+03</totfact>
</mgrwt>
</event>
<event>
 7    1  0.4230786E-006  0.1355607E+03  0.7546771E-02  0.1231167E+00
         -1   -1    0    0    0  501 -0.00000000000E+00  0.00000000000E+00  0.38742316133E+02  0.38742316133E+02  0.00000000000E+00 0.  1.
          1   -1    0    0  501    0  0.00000000000E+00 -0.00000000000E+00 -0.37894600429E+03  0.37894600429E+03  0.00000000000E+00 0. -1.
         23    2    1    2    0    0 -0.18213962446E+02  0.49196137407E+02 -0.17621993845E+03  0.22232893980E+03  0.12499872961E+03 0.  0.
          5    1    3    3  502    0  0.18224526657E+01  0.77074019149E+02 -0.17053915882E+03  0.18721490446E+03  0.47000000000E+01 0. -1.
         -5    1    3    3    0  502 -0.20036415112E+02 -0.27877881741E+02 -0.56807796308E+01  0.35114035344E+02  0.47000000000E+01 0. -1.
        -11    1    1    2    0    0 -0.23169293431E+02 -0.42342850445E+02 -0.34713755303E+02  0.59453998597E+02  0.00000000000E+00 0.  1.
         11    1    1    2    0    0  0.41383255876E+02 -0.68532869626E+01 -0.12926999441E+03  0.13590538202E+03  0.00000000000E+00 0. -1.
<mgrwt>
<rscale>  0 0.12753018E+03</rscale>
<asrwt>0</asrwt>
<pdfrwt beam="2">  1        1 0.58299387E-01 0.13556065E+03</pdfrwt>
<pdfrwt beam="1">  1       -1 0.59603561E-02 0.13556065E+03</pdfrwt>
<totfact> 0.83444517E+03</totfact>
</mgrwt>
</event>
<event>
 7    1  0.4230786E-006  0.1408945E+03  0.7546771E-02  0.1223650E+00
         -3   -1    0    0    0  501 -0.00000000000E+00  0.00000000000E+00  0.42782657407E+03  0.42782657407E+03  0.00000000000E+00 0.  1.
          3   -1    0    0  501    0  0.00000000000E+00 -0.00000000000E+00 -0.40119285741E+02  0.40119285741E+02  0.00000000000E+00 0. -1.
         23    2    1    2    0    0 -0.14304910657E+02  0.63413044529E+02  0.28084843457E+03  0.31420867871E+03  0.12500162357E+03 0.  0.
          5    1    3    3  502    0 -0.91544924993E+01  0.39955787036E+01  0.24335553212E+03  0.24360577660E+03  0.47000000000E+01 0.  1.
         -5    1    3    3    0  502 -0.51504181574E+01  0.59417465826E+02  0.37492902449E+02  0.70602902110E+02  0.47000000000E+01 0.  1.
        -11    1    1    2    0    0 -0.33698486785E+02 -0.46875214012E+02  0.71346100932E+02  0.91777665140E+02  0.00000000000E+00 0.  1.
         11    1    1    2    0    0  0.48003397442E+02 -0.16537830517E+02  0.35512752832E+02  0.61959515959E+02  0.00000000000E+00 0. -1.
<mgrwt>
<rscale>  0 0.13259830E+03</rscale>
<asrwt>0</asrwt>
<pdfrwt beam="2">  1        3 0.61721981E-02 0.14089447E+03</pdfrwt>
<pdfrwt beam="1">  1       -3 0.65819470E-01 0.14089447E+03</pdfrwt>
<totfact> 0.85670423E+02</totfact>
</mgrwt>
</event>
<event>
 7    1  0.4230786E-006  0.1562806E+03  0.7546771E-02  0.1201972E+00
          2   -1    0    0  501    0  0.00000000000E+00  0.00000000000E+00  0.53028178831E+02  0.53028178831E+02  0.00000000000E+00 0. -1.
         -2   -1    0    0    0  501 -0.00000000000E+00 -0.00000000000E+00 -0.38653304059E+03  0.38653304059E+03  0.00000000000E+00 0.  1.
         23    2    1    2    0    0 -0.93658329031E+02  0.54097329952E+01 -0.20644900328E+03  0.25893014651E+03  0.12498992763E+03 0.  0.
          5    1    3    3  502    0 -0.10774073891E+03 -0.21574510600E+02 -0.19880323234E+03  0.22719670226E+03  0.47000000000E+01 0.  1.
         -5    1    3    3    0  502  0.14082409884E+02  0.26984243595E+02 -0.76457709360E+01  0.31733444247E+02  0.47000000000E+01 0.  1.
        -11    1    1    2    0    0  0.52915172615E+02  0.16795057329E+02 -0.12189727978E+03  0.13394415352E+03  0.00000000000E+00 0.  1.
         11    1    1    2    0    0  0.40743156416E+02 -0.22204790324E+02 -0.51585786984E+01  0.46686919392E+02  0.00000000000E+00 0. -1.
<mgrwt>
<rscale>  0 0.14878630E+03</rscale>
<asrwt>0</asrwt>
<pdfrwt beam="1">  1        2 0.81581814E-02 0.15628061E+03</pdfrwt>
<pdfrwt beam="2">  1       -2 0.59466621E-01 0.15628061E+03</pdfrwt>
<totfact> 0.21695812E+03</totfact>
</mgrwt>
</event>
<event>
 7    1  0.4230786E-006  0.2002243E+03  0.7546771E-02  0.1151738E+00
          2   -1    0    0  501    0  0.00000000000E+00  0.00000000000E+00  0.19302082308E+03  0.19302082308E+03  0.00000000000E+00 0. -1.
         -2   -1    0    0    0  501 -0.00000000000E+00 -0.00000000000E+00 -0.19854250616E+03  0.19854250616E+03  0.00000000000E+00 0.  1.
         23    2    1    2    0    0 -0.86238000976E+02  0.14277887927E+03 -0.18013767345E+02  0.20103302689E+03  0.11075640346E+03 0.  0.
          5    1    3    3  502    0  0.21560460942E+02  0.20453029432E+01 -0.74546686962E+01  0.23381591595E+02  0.47000000000E+01 0. -1.
         -5    1    3    3    0  502 -0.10779846192E+03  0.14073357632E+03 -0.10559098649E+02  0.17765143529E+03  0.47000000000E+01 0.  1.
        -11    1    1    2    0    0  0.69974525161E+02 -0.64355489067E+02 -0.30226235889E+02  0.99758149945E+02  0.00000000000E+00 0.  1.
         11    1    1    2    0    0  0.16263475816E+02 -0.78423390199E+02  0.42718320159E+02  0.90772152410E+02  0.00000000000E+00 0. -1.
<mgrwt>
<rscale>  0 0.19764907E+03</rscale>
<asrwt>0</asrwt>
<pdfrwt beam="1">  1        2 0.29695511E-01 0.20022433E+03</pdfrwt>
<pdfrwt beam="2">  1       -2 0.30545001E-01 0.20022433E+03</pdfrwt>
<totfact> 0.17364152E+03</totfact>
</mgrwt>
</event>
<event>
 7    1  0.4230786E-006  0.1263682E+03  0.7546771E-02  0.1248672E+00
         -2   -1    0    0    0  501 -0.00000000000E+00  0.00000000000E+00  0.21203940740E+03  0.21203940740E+03  0.00000000000E+00 0.  1.
          2   -1    0    0  501    0  0.00000000000E+00 -0.00000000000E+00 -0.59633526915E+02  0.59633526915E+02  0.00000000000E+00 0. -1.
         23    2    1    2    0    0  0.17466014691E+02 -0.50668523246E+01  0.11999989673E+03  0.17426673512E+03  0.12505272925E+03 0.  0.
          5    1    3    3  502    0  0.11339173954E+02  0.25456222487E+02 -0.17478433791E+02  0.33229230762E+02  0.47000000000E+01 0. -1.
         -5    1    3    3    0  502  0.61268407364E+01 -0.30523074811E+02  0.13747833052E+03  0.14103750436E+03  0.47000000000E+01 0. -1.
        -11    1    1    2    0    0  0.20947209467E+02  0.35906543173E+02  0.22096439876E+02  0.47077787568E+02  0.00000000000E+00 0.  1.
         11    1    1    2    0    0 -0.38413224157E+02 -0.30839690849E+02  0.10309543883E+02  0.50328411627E+02  0.00000000000E+00 0. -1.
<mgrwt>
<rscale>  0 0.11668287E+03</rscale>
<asrwt>0</asrwt>
<pdfrwt beam="2">  1        2 0.91743889E-02 0.12636819E+03</pdfrwt>
<pdfrwt beam="1">  1       -2 0.32621447E-01 0.12636819E+03</pdfrwt>
<totfact> 0.58979907E+03</totfact>
</mgrwt>
</event>
<event>
 7    1  0.4230786E-006  0.2013981E+03  0.7546771E-02  0.1152765E+00
          1   -1    0    0  501    0  0.00000000000E+00  0.00000000000E+00  0.17447965989E+04  0.17447965989E+04  0.00000000000E+00 0. -1.
         -1   -1    0    0    0  501 -0.00000000000E+00 -0.00000000000E+00 -0.21106911573E+02  0.21106911573E+02  0.00000000000E+00 0.  1.
         23    2    1    2    0    0  0.92629875218E+02 -0.12788788587E+03  0.92148988319E+03  0.94324164433E+03  0.12500235858E+03 0.  0.
          5    1    3    3  502    0 -0.18725061648E+02 -0.28038028745E+01  0.26480464114E+03  0.26552227253E+03  0.47000000000E+01 0.  1.
         -5    1    3    3    0  502  0.11135493687E+03 -0.12508408299E+03  0.65668524205E+03  0.67771937180E+03  0.47000000000E+01 0.  1.
        -11    1    1    2    0    0  0.16412998375E+02  0.19406399402E+02  0.69763031236E+02  0.74248739927E+02  0.00000000000E+00 0.  1.
         11    1    1    2    0    0 -0.10904287359E+03  0.10848148647E+03  0.73243677285E+03  0.74841312616E+03  0.00000000000E+00 0. -1.
<mgrwt>
<rscale>  0 0.19645462E+03</rscale>
<asrwt>0</asrwt>
<pdfrwt beam="1">  1        1 0.26843013E+00 0.20139810E+03</pdfrwt>
<pdfrwt beam="2">  1       -1 0.32472185E-02 0.20139810E+03</pdfrwt>
<totfact> 0.16617434E+03</totfact>
</mgrwt>
</event>
<event>
 7    1  0.4230786E-006  0.1569906E+03  0.7546771E-02  0.1202189E+00
         -1   -1    0    0    0  501 -0.00000000000E+00  0.00000000000E+00  0.56391919651E+03  0.56391919651E+03  0.00000000000E+00 0.  1.
          1   -1    0    0  501    0  0.00000000000E+00 -0.00000000000E+00 -0.35545832652E+02  0.35545832652E+02  0.00000000000E+00 0. -1.
         23    2    1    2    0    0  0.94355257500E+02  0.10887316101E+02  0.28491617194E+03  0.32530489505E+03  0.12499840576E+03 0.  0.
          5    1    3    3  502    0 -0.50242613386E+01  0.11714467923E+02 -0.81280320870E+01  0.15831199144E+02  0.47000000000E+01 0. -1.
         -5    1    3    3    0  502  0.99379518839E+02 -0.82715182212E+00  0.29304420403E+03  0.30947369591E+03  0.47000000000E+01 0. -1.
        -11    1    1    2    0    0 -0.65339019802E+02 -0.45476869450E+02  0.13570277977E+03  0.15732951917E+03  0.00000000000E+00 0.  1.
         11    1    1    2    0    0 -0.29016237698E+02  0.34589553349E+02  0.10775441214E+03  0.11683061494E+03  0.00000000000E+00 0. -1.
<mgrwt>
<rscale>  0 0.14861199E+03</rscale>
<asrwt>0</asrwt>
<pdfrwt beam="2">  1        1 0.54685901E-02 0.15699060E+03</pdfrwt>
<pdfrwt beam="1">  1       -1 0.86756793E-01 0.15699060E+03</pdfrwt>
<totfact> 0.19754549E+03</totfact>
</mgrwt>
</event>
<event>
 7    1  0.4230786E-006  0.2526929E+03  0.7546771E-02  0.1114051E+00
          2   -1    0    0  501    0  0.00000000000E+00  0.00000000000E+00  0.21115363163E+03  0.21115363163E+03  0.00000000000E+00 0. -1.
         -2   -1    0    0    0  501 -0.00000000000E+00 -0.00000000000E+00 -0.28592820426E+03  0.28592820426E+03  0.00000000000E+00 0.  1.
         23    2    1    2    0    0  0.17090517142E+03  0.13790803884E+03 -0.55668115765E+02  0.25875203499E+03  0.12500588667E+03 0.  0.
          5    1    3    3  502    0  0.14360894819E+03  0.15596032332E+03 -0.24772363882E+02  0.21350155143E+03  0.47000000000E+01 0.  1.
         -5    1    3    3    0  502  0.27296223232E+02 -0.18052284483E+02 -0.30895751883E+02  0.45250483558E+02  0.47000000000E+01 0.  1.
        -11    1    1    2    0    0 -0.14967784813E+03 -0.73181222754E+02  0.32329128934E+01  0.16664153537E+03  0.00000000000E+00 0. -1.
         11    1    1    2    0    0 -0.21227323292E+02 -0.64726816088E+02 -0.22339369759E+02  0.71688265541E+02  0.00000000000E+00 0.  1.
<mgrwt>
<rscale>  0 0.24882229E+03</rscale>
<asrwt>0</asrwt>
<pdfrwt beam="1">  1        2 0.32485174E-01 0.25269285E+03</pdfrwt>
<pdfrwt beam="2">  1       -2 0.43988954E-01 0.25269285E+03</pdfrwt>
<totfact> 0.79610628E+02</totfact>
</mgrwt>
</event>
<event>
 7    1  0.4230786E-006  0.1446889E+03  0.7546771E-02  0.1217000E+00
          2   -1    0    0  501    0  0.00000000000E+00  0.00000000000E+00  0.12937036726E+03  0.12937036726E+03  0.00000000000E+00 0. -1.
         -2   -1    0    0    0  501 -0.00000000000E+00 -0.00000000000E+00 -0.15746040719E+03  0.15746040719E+03  0.00000000000E+00 0.  1.
         23    2    1    2    0    0 -0.14638617099E+02 -0.71387627549E+02 -0.71909505337E+02  0.16157306954E+03  0.12499758944E+03 0.  0.
          5    1    3    3  502    0  0.13877606019E+02 -0.88784129153E+02 -0.86501803678E+02  0.12481931572E+03  0.47000000000E+01 0. -1.
         -5    1    3    3    0  502 -0.28516223118E+02  0.17396501605E+02  0.14592298341E+02  0.36753753820E+02  0.47000000000E+01 0. -1.
        -11    1    1    2    0    0  0.24626070925E+02 -0.13437795080E+02  0.25483765337E+02  0.37900395797E+02  0.00000000000E+00 0.  1.
         11    1    1    2    0    0 -0.99874538254E+01  0.84825422628E+02  0.18335700072E+02  0.87357309111E+02  0.00000000000E+00 0. -1.
<mgrwt>
<rscale>  0 0.13730634E+03</rscale>
<asrwt>0</asrwt>
<pdfrwt beam="1">  1        2 0.19903133E-01 0.14468891E+03</pdfrwt>
<pdfrwt beam="2">  1       -2 0.24224678E-01 0.14468891E+03</pdfrwt>
<totfact> 0.40368890E+03</totfact>
</mgrwt>
</event>
<event>
 7    1  0.4230786E-006  0.1429125E+03  0.7546771E-02  0.1224184E+00
         -1   -1    0    0    0  501 -0.00000000000E+00  0.00000000000E+00  0.43841224795E+02  0.43841224795E+02  0.00000000000E+00 0.  1.
          1   -1    0    0  501    0  0.00000000000E+00 -0.00000000000E+00 -0.49877781927E+03  0.49877781927E+03  0.00000000000E+00 0. -1.
         23    2    1    2    0    0 -0.68757269103E+02 -0.85093912289E+01 -0.10498543798E+03  0.17732996742E+03  0.12499601340E+03 0.  0.
          5    1    3    3  502    0  0.11091313852E+02  0.41862701973E+02 -0.13062891337E+02  0.45477820853E+02  0.47000000000E+01 0. -1.
         -5    1    3    3    0  502 -0.79848582956E+02 -0.50372093202E+02 -0.91922546642E+02  0.13185214657E+03  0.47000000000E+01 0. -1.
        -11    1    1    2    0    0  0.17844311885E+02  0.31611770855E+02 -0.61043350918E+02  0.71021223691E+02  0.00000000000E+00 0.  1.
         11    1    1    2    0    0  0.50912957219E+02 -0.23102379626E+02 -0.28890780557E+03  0.29426785295E+03  0.00000000000E+00 0. -1.
<mgrwt>
<rscale>  0 0.13222997E+03</rscale>
<asrwt>0</asrwt>
<pdfrwt beam="2">  1        1 0.76735047E-01 0.14291247E+03</pdfrwt>
<pdfrwt beam="1">  1       -1 0.67448040E-02 0.14291247E+03</pdfrwt>
<totfact> 0.48999061E+03</totfact>
</mgrwt>
</event>
<event>
 7    1  0.4230786E-006  0.2222696E+03  0.7546771E-02  0.1135623E+00
         -1   -1    0    0    0  501 -0.00000000000E+00  0.00000000000E+00  0.45354872559E+02  0.45354872559E+02  0.00000000000E+00 0.  1.
          1   -1    0    0  501    0  0.00000000000E+00 -0.00000000000E+00 -0.10088132785E+04  0.10088132785E+04  0.00000000000E+00 0. -1.
         23    2    1    2    0    0 -0.18352359294E+03 -0.97675740626E+01 -0.53871200727E+03  0.58276445950E+03  0.12500989485E+03 0.  0.
          5    1    3    3  502    0 -0.78211877292E+01 -0.90141741877E-03  0.55919199117E+01  0.10701894534E+02  0.47000000000E+01 0. -1.
         -5    1    3    3    0  502 -0.17570240521E+03 -0.97666726452E+01 -0.54430392718E+03  0.57206256497E+03  0.47000000000E+01 0. -1.
        -11    1    1    2    0    0  0.52896412622E+02 -0.22915467253E+02 -0.21138784520E+03  0.21910721167E+03  0.00000000000E+00 0. -1.
         11    1    1    2    0    0  0.13062718032E+03  0.32683041316E+02 -0.21335855351E+03  0.25229647993E+03  0.00000000000E+00 0.  1.
<mgrwt>
<rscale>  0 0.21768206E+03</rscale>
<asrwt>0</asrwt>
<pdfrwt beam="2">  1        1 0.15520203E+00 0.22226963E+03</pdfrwt>
<pdfrwt beam="1">  1       -1 0.69776732E-02 0.22226963E+03</pdfrwt>
<totfact> 0.16710075E+03</totfact>
</mgrwt>
</event>
<event>
 7    1  0.4230786E-006  0.1820867E+03  0.7546771E-02  0.1171326E+00
         -1   -1    0    0    0  501 -0.00000000000E+00  0.00000000000E+00  0.21731982355E+03  0.21731982355E+03  0.00000000000E+00 0.  1.
          1   -1    0    0  501    0  0.00000000000E+00 -0.00000000000E+00 -0.13750019268E+03  0.13750019268E+03  0.00000000000E+00 0. -1.
         23    2    1    2    0    0 -0.49315864020E+02  0.12286865926E+03  0.66527499442E+02  0.19385942105E+03  0.12500722010E+03 0.  0.
          5    1    3    3  502    0  0.26951627476E+02  0.61015183856E+02  0.68232773112E+02  0.95535565163E+02  0.47000000000E+01 0. -1.
         -5    1    3    3    0  502 -0.76267491495E+02  0.61853475401E+02 -0.17052736692E+01  0.98323855887E+02  0.47000000000E+01 0. -1.
        -11    1    1    2    0    0  0.27127493657E+02 -0.17637265187E+02 -0.30851812295E+02  0.44708034594E+02  0.00000000000E+00 0. -1.
         11    1    1    2    0    0  0.22188370363E+02 -0.10523139407E+03  0.44143943722E+02  0.11625256059E+03  0.00000000000E+00 0.  1.
<mgrwt>
<rscale>  0 0.17640752E+03</rscale>
<asrwt>0</asrwt>
<pdfrwt beam="2">  1        1 0.21153876E-01 0.18208670E+03</pdfrwt>
<pdfrwt beam="1">  1       -1 0.33433819E-01 0.18208670E+03</pdfrwt>
<totfact> 0.19817162E+03</totfact>
</mgrwt>
</event>
<event>
 7    1  0.4230786E-006  0.1548585E+03  0.7546771E-02  0.1203313E+00
          2   -1    0    0  501    0  0.00000000000E+00  0.00000000000E+00  0.75149187561E+03  0.75149187561E+03  0.00000000000E+00 0.  1.
         -2   -1    0    0    0  501 -0.00000000000E+00 -0.00000000000E+00 -0.34074629357E+02  0.34074629357E+02  0.00000000000E+00 0. -1.
         23    2    1    2    0    0 -0.84608848825E+02  0.34559310969E+02  0.20246457065E+03  0.25489815633E+03  0.12501265718E+03 0.  0.
          5    1    3    3  502    0 -0.42454636689E+02  0.19534036013E+02  0.20452900322E+03  0.20985275290E+03  0.47000000000E+01 0.  1.
         -5    1    3    3    0  502 -0.42154212135E+02  0.15025274956E+02 -0.20644325730E+01  0.45045403429E+02  0.47000000000E+01 0.  1.
        -11    1    1    2    0    0  0.20636748600E+02 -0.55298853602E+02  0.28680846821E+03  0.29281894754E+03  0.00000000000E+00 0.  1.
         11    1    1    2    0    0  0.63972100224E+02  0.20739542633E+02  0.22814420740E+03  0.23784940110E+03  0.00000000000E+00 0. -1.
<mgrwt>
<rscale>  0 0.14771166E+03</rscale>
<asrwt>0</asrwt>
<pdfrwt beam="1">  1        2 0.11561412E+00 0.15485854E+03</pdfrwt>
<pdfrwt beam="2">  1       -2 0.52422513E-02 0.15485854E+03</pdfrwt>
<totfact> 0.67988057E+03</totfact>
</mgrwt>
</event>
<event>
 7    1  0.4230786E-006  0.1551712E+03  0.7546771E-02  0.1202479E+00
          4   -1    0    0  501    0  0.00000000000E+00  0.00000000000E+00  0.67751244250E+02  0.67751244250E+02  0.00000000000E+00 0. -1.
         -4   -1    0    0    0  501 -0.00000000000E+00 -0.00000000000E+00 -0.31635479581E+03  0.31635479581E+03  0.00000000000E+00 0.  1.
         23    2    1    2    0    0 -0.55506752101E+02 -0.73297998322E+02 -0.90672636520E+02  0.17972099814E+03  0.12499805627E+03 0.  0.
          5    1    3    3  502    0 -0.30260231086E+02  0.16856351338E+02  0.15369772954E+02  0.38185574325E+02  0.47000000000E+01 0.  1.
         -5    1    3    3    0  502 -0.25246521014E+02 -0.90154349661E+02 -0.10604240947E+03  0.14153542381E+03  0.47000000000E+01 0.  1.
        -11    1    1    2    0    0  0.63846478840E+02  0.12941669527E+02 -0.10554824475E+03  0.12403342953E+03  0.00000000000E+00 0. -1.
         11    1    1    2    0    0 -0.83397267398E+01  0.60356328796E+02 -0.52382670282E+02  0.80351612390E+02  0.00000000000E+00 0.  1.
<mgrwt>
<rscale>  0 0.14837898E+03</rscale>
<asrwt>0</asrwt>
<pdfrwt beam="1">  1        4 0.10423268E-01 0.15517123E+03</pdfrwt>
<pdfrwt beam="2">  1       -4 0.48669969E-01 0.15517123E+03</pdfrwt>
<totfact> 0.49347165E+02</totfact>
</mgrwt>
</event>
<event>
 7    1  0.4230786E-006  0.1270882E+03  0.7546771E-02  0.1243395E+00
         -1   -1    0    0    0  501 -0.00000000000E+00  0.00000000000E+00  0.39986080649E+02  0.39986080649E+02  0.00000000000E+00 0.  1.
          1   -1    0    0  501    0  0.00000000000E+00 -0.00000000000E+00 -0.34923216757E+03  0.34923216757E+03  0.00000000000E+00 0. -1.
         23    2    1    2    0    0 -0.22864692543E+02  0.17079940867E+01 -0.11902962087E+03  0.17412486979E+03  0.12500283288E+03 0.  0.
          5    1    3    3  502    0 -0.57582789735E+02 -0.34569412490E+02 -0.99294702650E+02  0.11996812046E+03  0.47000000000E+01 0.  1.
         -5    1    3    3    0  502  0.34718097192E+02  0.36277406576E+02 -0.19734918220E+02  0.54156749327E+02  0.47000000000E+01 0.  1.
        -11    1    1    2    0    0  0.31916104994E+02  0.32392029760E+02 -0.39284914709E+02  0.60093143317E+02  0.00000000000E+00 0.  1.
         11    1    1    2    0    0 -0.90514124517E+01 -0.34100023847E+02 -0.15093155134E+03  0.15500023511E+03  0.00000000000E+00 0. -1.
<mgrwt>
<rscale>  0 0.11981935E+03</rscale>
<asrwt>0</asrwt>
<pdfrwt beam="2">  1        1 0.53728027E-01 0.12708824E+03</pdfrwt>
<pdfrwt beam="1">  1       -1 0.61517046E-02 0.12708824E+03</pdfrwt>
<totfact> 0.87758432E+03</totfact>
</mgrwt>
</event>
<event>
 7    1  0.4230786E-006  0.1277173E+03  0.7546771E-02  0.1245311E+00
          2   -1    0    0  501    0  0.00000000000E+00  0.00000000000E+00  0.64898723793E+02  0.64898723793E+02  0.00000000000E+00 0. -1.
         -2   -1    0    0    0  501 -0.00000000000E+00 -0.00000000000E+00 -0.19332866562E+03  0.19332866562E+03  0.00000000000E+00 0.  1.
         23    2    1    2    0    0 -0.21928588387E+02 -0.14291837269E+02 -0.86247652817E+02  0.15411157166E+03  0.12500639704E+03 0.  0.
          5    1    3    3  502    0 -0.31961827314E+02 -0.60392471829E+02 -0.81505804669E+02  0.10646170792E+03  0.47000000000E+01 0. -1.
         -5    1    3    3    0  502  0.10033238927E+02  0.46100634560E+02 -0.47418481478E+01  0.47649863736E+02  0.47000000000E+01 0. -1.
        -11    1    1    2    0    0  0.37627213742E+02  0.19788175040E+02  0.14597769143E+02  0.44949682417E+02  0.00000000000E+00 0. -1.
         11    1    1    2    0    0 -0.15698625355E+02 -0.54963377706E+01 -0.56780058157E+02  0.59166135341E+02  0.00000000000E+00 0.  1.
<mgrwt>
<rscale>  0 0.11866782E+03</rscale>
<asrwt>0</asrwt>
<pdfrwt beam="1">  1        2 0.99844192E-02 0.12771734E+03</pdfrwt>
<pdfrwt beam="2">  1       -2 0.29742871E-01 0.12771734E+03</pdfrwt>
<totfact> 0.62857790E+03</totfact>
</mgrwt>
</event>
<event>
 7    1  0.4230786E-006  0.1491763E+03  0.7546771E-02  0.1210901E+00
         -3   -1    0    0    0  501 -0.00000000000E+00  0.00000000000E+00  0.13412991544E+03  0.13412991544E+03  0.00000000000E+00 0.  1.
          3   -1    0    0  501    0  0.00000000000E+00 -0.00000000000E+00 -0.14069971250E+03  0.14069971250E+03  0.00000000000E+00 0. -1.
         23    2    1    2    0    0 -0.81058987638E+02  0.74524221926E+01  0.18815334992E+02  0.15035820048E+03  0.12500989380E+03 0.  0.
          5    1    3    3  502    0  0.18939634025E+02  0.39458764213E+02  0.36959374052E+01  0.44175261895E+02  0.47000000000E+01 0. -1.
         -5    1    3    3    0  502 -0.99998621664E+02 -0.32006342020E+02  0.15119397586E+02  0.10618293859E+03  0.47000000000E+01 0. -1.
        -11    1    1    2    0    0  0.37057175477E+02 -0.78119220931E+01 -0.58299286651E+02  0.69520264708E+02  0.00000000000E+00 0. -1.
         11    1    1    2    0    0  0.44001812161E+02  0.35949990054E+00  0.32914154606E+02  0.54951162746E+02  0.00000000000E+00 0.  1.
<mgrwt>
<rscale>  0 0.14181954E+03</rscale>
<asrwt>0</asrwt>
<pdfrwt beam="2">  1        3 0.21646110E-01 0.14917631E+03</pdfrwt>
<pdfrwt beam="1">  1       -3 0.20635372E-01 0.14917631E+03</pdfrwt>
<totfact> 0.96820646E+02</totfact>
</mgrwt>
</event>
<event>
 7    1  0.4230786E-006  0.1298876E+03  0.7546771E-02  0.1240676E+00
          1   -1    0    0  501    0  0.00000000000E+00  0.00000000000E+00  0.52401452066E+02  0.52401452066E+02  0.00000000000E+00 0. -1.
         -1   -1    0    0    0  501 -0.00000000000E+00 -0.00000000000E+00 -0.31849500232E+03  0.31849500232E+03  0.00000000000E+00 0.  1.
         23    2    1    2    0    0  0.35167205626E+02  0.33204920505E+01 -0.23189843673E+03  0.26579631197E+03  0.12499214569E+03 0.  0.
          5    1    3    3  502    0 -0.13907311638E+02  0.16986906046E+02 -0.20821494930E+03  0.20942187900E+03  0.47000000000E+01 0.  1.
         -5    1    3    3    0  502  0.49074517263E+02 -0.13666413995E+02 -0.23683487429E+02  0.56374432972E+02  0.47000000000E+01 0.  1.
        -11    1    1    2    0    0 -0.54660200182E+02  0.29432777089E+01  0.10682993512E+02  0.55772096231E+02  0.00000000000E+00 0. -1.
         11    1    1    2    0    0  0.19492994557E+02 -0.62637697594E+01 -0.44878107035E+02  0.49328046175E+02  0.00000000000E+00 0.  1.
<mgrwt>
<rscale>  0 0.12147936E+03</rscale>
<asrwt>0</asrwt>
<pdfrwt beam="1">  1        1 0.80617618E-02 0.12988762E+03</pdfrwt>
<pdfrwt beam="2">  1       -1 0.48999231E-01 0.12988762E+03</pdfrwt>
<totfact> 0.35174537E+03</totfact>
</mgrwt>
</event>
<event>
 7    1  0.4230786E-006  0.1411999E+03  0.7546771E-02  0.1228879E+00
          2   -1    0    0  501    0  0.00000000000E+00  0.00000000000E+00  0.31007005392E+03  0.31007005392E+03  0.00000000000E+00 0. -1.
         -2   -1    0    0    0  501 -0.00000000000E+00 -0.00000000000E+00 -0.72888347220E+02  0.72888347220E+02  0.00000000000E+00 0.  1.
         23    2    1    2    0    0  0.50919637503E+02  0.41505189596E+02  0.17598887719E+02  0.14229246094E+03  0.12498773278E+03 0.  0.
          5    1    3    3  502    0  0.21075511840E+02  0.32291476560E+02 -0.52556646300E+02  0.65354477490E+02  0.47000000000E+01 0. -1.
         -5    1    3    3    0  502  0.29844125663E+02  0.92137130358E+01  0.70155534019E+02  0.76937983454E+02  0.47000000000E+01 0. -1.
        -11    1    1    2    0    0  0.41403906331E+01 -0.17555112934E+02  0.63202825791E+01  0.19112058932E+02  0.00000000000E+00 0.  1.
         11    1    1    2    0    0 -0.55060028136E+02 -0.23950076662E+02  0.21326253640E+03  0.22155388126E+03  0.00000000000E+00 0. -1.
<mgrwt>
<rscale>  0 0.12904519E+03</rscale>
<asrwt>0</asrwt>
<pdfrwt beam="1">  1        2 0.47703085E-01 0.14119994E+03</pdfrwt>
<pdfrwt beam="2">  1       -2 0.11213592E-01 0.14119994E+03</pdfrwt>
<totfact> 0.55840508E+03</totfact>
</mgrwt>
</event>
<event>
 7    1  0.4230786E-006  0.1416198E+03  0.7546771E-02  0.1221866E+00
          1   -1    0    0  501    0  0.00000000000E+00  0.00000000000E+00  0.30045964494E+02  0.30045964494E+02  0.00000000000E+00 0. -1.
         -1   -1    0    0    0  501 -0.00000000000E+00 -0.00000000000E+00 -0.54335121828E+03  0.54335121828E+03  0.00000000000E+00 0.  1.
         23    2    1    2    0    0  0.14854533192E+02  0.64837109548E+02 -0.30984635370E+03  0.34067718396E+03  0.12502668852E+03 0.  0.
          5    1    3    3  502    0 -0.30146745594E+02  0.68465112335E+02 -0.94596284621E+02  0.12069318515E+03  0.47000000000E+01 0. -1.
         -5    1    3    3    0  502  0.45001278787E+02 -0.36280027873E+01 -0.21525006908E+03  0.21998399881E+03  0.47000000000E+01 0. -1.
        -11    1    1    2    0    0  0.11131853708E+02 -0.18669355634E+02  0.75158528400E+00  0.21749204289E+02  0.00000000000E+00 0. -1.
         11    1    1    2    0    0 -0.25986386900E+02 -0.46167753913E+02 -0.20421048538E+03  0.21097079453E+03  0.00000000000E+00 0.  1.
<mgrwt>
<rscale>  0 0.13384048E+03</rscale>
<asrwt>0</asrwt>
<pdfrwt beam="1">  1        1 0.46224561E-02 0.14161985E+03</pdfrwt>
<pdfrwt beam="2">  1       -1 0.83592494E-01 0.14161985E+03</pdfrwt>
<totfact> 0.26746443E+03</totfact>
</mgrwt>
</event>
<event>
 7    1  0.4230786E-006  0.1299903E+03  0.7546771E-02  0.1241482E+00
         -2   -1    0    0    0  501 -0.00000000000E+00  0.00000000000E+00  0.27738755376E+02  0.27738755376E+02  0.00000000000E+00 0.  1.
          2   -1    0    0  501    0  0.00000000000E+00 -0.00000000000E+00 -0.53603580566E+03  0.53603580566E+03  0.00000000000E+00 0. -1.
         23    2    1    2    0    0 -0.11989492350E+01  0.35648131006E+02 -0.18513689241E+03  0.22621484767E+03  0.12500104660E+03 0.  0.
          5    1    3    3  502    0 -0.43424774456E+02  0.39374657300E+02 -0.31385001330E+02  0.66657205031E+02  0.47000000000E+01 0.  1.
         -5    1    3    3    0  502  0.42225825221E+02 -0.37265262943E+01 -0.15375189108E+03  0.15955764264E+03  0.47000000000E+01 0.  1.
        -11    1    1    2    0    0 -0.20873555320E+02  0.11137503588E+02 -0.23075734229E+02  0.33049036417E+02  0.00000000000E+00 0.  1.
         11    1    1    2    0    0  0.22072504555E+02 -0.46785634593E+02 -0.30008442364E+03  0.30451067695E+03  0.00000000000E+00 0. -1.
<mgrwt>
<rscale>  0 0.12098433E+03</rscale>
<asrwt>0</asrwt>
<pdfrwt beam="2">  1        2 0.82467046E-01 0.12999034E+03</pdfrwt>
<pdfrwt beam="1">  1       -2 0.42675009E-02 0.12999034E+03</pdfrwt>
<totfact> 0.13542356E+04</totfact>
</mgrwt>
</event>
<event>
 7    1  0.4230786E-006  0.1607710E+03  0.7546771E-02  0.1196091E+00
         -1   -1    0    0    0  501 -0.00000000000E+00  0.00000000000E+00  0.34722834243E+03  0.34722834243E+03  0.00000000000E+00 0.  1.
          1   -1    0    0  501    0  0.00000000000E+00 -0.00000000000E+00 -0.81701074773E+02  0.81701074773E+02  0.00000000000E+00 0. -1.
         23    2    1    2    0    0  0.14469101753E+02  0.10007926341E+03  0.24543436594E+03  0.29340303186E+03  0.12498838846E+03 0.  0.
          5    1    3    3  502    0  0.47004318645E+02  0.11407457034E+03  0.17187353467E+03  0.21162470434E+03  0.47000000000E+01 0. -1.
         -5    1    3    3    0  502 -0.32535216892E+02 -0.13995306926E+02  0.73560831268E+02  0.81778327514E+02  0.47000000000E+01 0. -1.
        -11    1    1    2    0    0  0.35307051347E+02 -0.38911059177E+02  0.21197133061E+02  0.56656657607E+02  0.00000000000E+00 0.  1.
         11    1    1    2    0    0 -0.49776153101E+02 -0.61168204234E+02 -0.11042313419E+01  0.78869727739E+02  0.00000000000E+00 0. -1.
<mgrwt>
<rscale>  0 0.15362262E+03</rscale>
<asrwt>0</asrwt>
<pdfrwt beam="2">  1        1 0.12569396E-01 0.16077099E+03</pdfrwt>
<pdfrwt beam="1">  1       -1 0.53419744E-01 0.16077099E+03</pdfrwt>
<totfact> 0.16810796E+03</totfact>
</mgrwt>
</event>
<event>
 7    1  0.4230786E-006  0.2312801E+03  0.7546771E-02  0.1128721E+00
         -2   -1    0    0    0  501 -0.00000000000E+00  0.00000000000E+00  0.57550928846E+03  0.57550928846E+03  0.00000000000E+00 0.  1.
          2   -1    0    0  501    0  0.00000000000E+00 -0.00000000000E+00 -0.89389580876E+02  0.89389580876E+02  0.00000000000E+00 0. -1.
         23    2    1    2    0    0 -0.10968685753E+03  0.16072196895E+03  0.31171118577E+03  0.38814218314E+03  0.12501093143E+03 0.  0.
          5    1    3    3  502    0  0.19517912898E+02  0.23843804564E+02  0.10437143471E+02  0.32870958365E+02  0.47000000000E+01 0.  1.
         -5    1    3    3    0  502 -0.12920477043E+03  0.13687816439E+03  0.30127404230E+03  0.35527122477E+03  0.47000000000E+01 0.  1.
        -11    1    1    2    0    0  0.42446964042E+02 -0.12459257363E+03  0.14260340614E+03  0.19406386991E+03  0.00000000000E+00 0.  1.
         11    1    1    2    0    0  0.67239893488E+02 -0.36129395321E+02  0.31805115669E+02  0.82692816285E+02  0.00000000000E+00 0. -1.
<mgrwt>
<rscale>  0 0.22706787E+03</rscale>
<asrwt>0</asrwt>
<pdfrwt beam="2">  1        2 0.13752244E-01 0.23128011E+03</pdfrwt>
<pdfrwt beam="1">  1       -2 0.88539888E-01 0.23128011E+03</pdfrwt>
<totfact> 0.49047670E+02</totfact>
</mgrwt>
</event>
<event>
 7    1  0.4230786E-006  0.1262438E+03  0.7546771E-02  0.1245262E+00
         -1   -1    0    0    0  501 -0.00000000000E+00  0.00000000000E+00  0.63893280221E+02  0.63893280221E+02  0.00000000000E+00 0.  1.
          1   -1    0    0  501    0  0.00000000000E+00 -0.00000000000E+00 -0.21235489732E+03  0.21235489732E+03  0.00000000000E+00 0. -1.
         23    2    1    2    0    0  0.44785149242E+01 -0.17060946862E+02 -0.46946590803E+02  0.13469031151E+03  0.12500545837E+03 0.  0.
          5    1    3    3  502    0 -0.70946305154E+01 -0.70040370004E+02 -0.35840875995E+02  0.79136878916E+02  0.47000000000E+01 0. -1.
         -5    1    3    3    0  502  0.11573145440E+02  0.52979423142E+02 -0.11105714807E+02  0.55553432596E+02  0.47000000000E+01 0. -1.
        -11    1    1    2    0    0 -0.40585342928E+02 -0.17728468925E+02 -0.27410862716E+02  0.52084777678E+02  0.00000000000E+00 0.  1.
         11    1    1    2    0    0  0.36106828003E+02  0.34789415787E+02 -0.74104163584E+02  0.89473088355E+02  0.00000000000E+00 0. -1.
<mgrwt>
<rscale>  0 0.11869713E+03</rscale>
<asrwt>0</asrwt>
<pdfrwt beam="2">  1        1 0.32669985E-01 0.12624380E+03</pdfrwt>
<pdfrwt beam="1">  1       -1 0.98297353E-02 0.12624380E+03</pdfrwt>
<totfact> 0.80146596E+03</totfact>
</mgrwt>
</event>
<event>
 7    1  0.4230786E-006  0.1421898E+03  0.7546771E-02  0.1220413E+00
         -1   -1    0    0    0  501 -0.00000000000E+00  0.00000000000E+00  0.58232269087E+03  0.58232269087E+03  0.00000000000E+00 0.  1.
          1   -1    0    0  501    0  0.00000000000E+00 -0.00000000000E+00 -0.33758439647E+02  0.33758439647E+02  0.00000000000E+00 0. -1.
         23    2    1    2    0    0  0.67746476250E+02  0.23447518221E+01  0.42061599534E+03  0.44399973233E+03  0.12499145517E+03 0.  0.
          5    1    3    3  502    0 -0.17153762422E+02  0.38291457404E+02  0.20744351397E+03  0.21169645430E+03  0.47000000000E+01 0. -1.
         -5    1    3    3    0  502  0.84900238672E+02 -0.35946705582E+02  0.21317248137E+03  0.23230327803E+03  0.47000000000E+01 0. -1.
        -11    1    1    2    0    0 -0.86629619729E+02  0.14277010343E+02  0.84382871678E+02  0.12177435309E+03  0.00000000000E+00 0. -1.
         11    1    1    2    0    0  0.18883143479E+02 -0.16621762165E+02  0.43565384201E+02  0.50307045090E+02  0.00000000000E+00 0.  1.
<mgrwt>
<rscale>  0 0.13486291E+03</rscale>
<asrwt>0</asrwt>
<pdfrwt beam="2">  1        1 0.51936065E-02 0.14218983E+03</pdfrwt>
<pdfrwt beam="1">  1       -1 0.89588099E-01 0.14218983E+03</pdfrwt>
<totfact> 0.19721825E+03</totfact>
</mgrwt>
</event>
<event>
 7    1  0.4230786E-006  0.3406657E+03  0.7546771E-02  0.1067679E+00
          3   -1    0    0  501    0  0.00000000000E+00  0.00000000000E+00  0.25406602339E+03  0.25406602339E+03  0.00000000000E+00 0. -1.
         -3   -1    0    0    0  501 -0.00000000000E+00 -0.00000000000E+00 -0.46504118958E+03  0.46504118958E+03  0.00000000000E+00 0.  1.
         23    2    1    2    0    0 -0.31312677317E+03  0.48778588141E+02 -0.18638434829E+03  0.38831979980E+03  0.12500165955E+03 0.  0.
          5    1    3    3  502    0 -0.26119701702E+03  0.95375032382E+01 -0.99616860347E+02  0.27975070069E+03  0.47000000000E+01 0.  1.
         -5    1    3    3    0  502 -0.51929756147E+02  0.39241084902E+02 -0.86767487941E+02  0.10856909911E+03  0.47000000000E+01 0.  1.
        -11    1    1    2    0    0  0.30292358660E+03 -0.32527284709E+02 -0.69840391808E+01  0.30474497596E+03  0.00000000000E+00 0. -1.
         11    1    1    2    0    0  0.10203186568E+02 -0.16251303432E+02 -0.17606778722E+02  0.26042437219E+02  0.00000000000E+00 0.  1.
<mgrwt>
<rscale>  0 0.33793466E+03</rscale>
<asrwt>0</asrwt>
<pdfrwt beam="1">  1        3 0.39087081E-01 0.34066573E+03</pdfrwt>
<pdfrwt beam="2">  1       -3 0.71544798E-01 0.34066573E+03</pdfrwt>
<totfact> 0.31043793E+01</totfact>
</mgrwt>
</event>
<event>
 7    1  0.4230786E-006  0.2393367E+03  0.7546771E-02  0.1123346E+00
         -3   -1    0    0    0  501 -0.00000000000E+00  0.00000000000E+00  0.46909971619E+03  0.46909971619E+03  0.00000000000E+00 0.  1.
          3   -1    0    0  501    0  0.00000000000E+00 -0.00000000000E+00 -0.17687864465E+03  0.17687864465E+03  0.00000000000E+00 0. -1.
         23    2    1    2    0    0  0.11790121432E+03  0.16661606184E+03  0.34348255731E+03  0.41864344693E+03  0.12498183902E+03 0.  0.
          5    1    3    3  502    0  0.15426828925E+02  0.97770502863E+01  0.14288402444E+03  0.14412325352E+03  0.47000000000E+01 0. -1.
         -5    1    3    3    0  502  0.10247438539E+03  0.15683901155E+03  0.20059853286E+03  0.27452019342E+03  0.47000000000E+01 0. -1.
        -11    1    1    2    0    0 -0.37987941839E+02 -0.15468678657E+02  0.15419464290E+02  0.43819215232E+02  0.00000000000E+00 0.  1.
         11    1    1    2    0    0 -0.79913272479E+02 -0.15114738318E+03 -0.66680950059E+02  0.18351569868E+03  0.00000000000E+00 0. -1.
<mgrwt>
<rscale>  0 0.23474193E+03</rscale>
<asrwt>0</asrwt>
<pdfrwt beam="2">  1        3 0.27212099E-01 0.23933673E+03</pdfrwt>
<pdfrwt beam="1">  1       -3 0.72169187E-01 0.23933673E+03</pdfrwt>
<totfact> 0.59355191E+01</totfact>
</mgrwt>
</event>
<event>
 7    1  0.5491457E-006  0.1497891E+03  0.7546771E-02  0.1209363E+00
         -1   -1    0    0    0  501 -0.00000000000E+00  0.00000000000E+00  0.15927952557E+02  0.15927952557E+02  0.00000000000E+00 0.  1.
          1   -1    0    0  501    0  0.00000000000E+00 -0.00000000000E+00 -0.11990069368E+04  0.11990069368E+04  0.00000000000E+00 0. -1.
         23    2    1    2    0    0  0.25211914840E+02 -0.78589574016E+02 -0.56902985641E+03  0.58841459636E+03  0.12499919168E+03 0.  0.
          5    1    3    3  502    0  0.55217311204E+02 -0.87371559663E+02 -0.29602320020E+03  0.31358342742E+03  0.47000000000E+01 0. -1.
         -5    1    3    3    0  502 -0.30005396364E+02  0.87819856465E+01 -0.27300665621E+03  0.27483116894E+03  0.47000000000E+01 0. -1.
        -11    1    1    2    0    0 -0.55556819119E+02  0.21242739763E+02 -0.29982934261E+03  0.30567212636E+03  0.00000000000E+00 0. -1.
         11    1    1    2    0    0  0.30344904279E+02  0.57346834253E+02 -0.31421978523E+03  0.32084816666E+03  0.00000000000E+00 0.  1.
<mgrwt>
<rscale>  0 0.14298848E+03</rscale>
<asrwt>0</asrwt>
<pdfrwt beam="2">  1        1 0.18446271E+00 0.14978905E+03</pdfrwt>
<pdfrwt beam="1">  1       -1 0.24504529E-02 0.14978905E+03</pdfrwt>
<totfact> 0.57219939E+03</totfact>
</mgrwt>
</event>
<event>
 7    1  0.4230786E-006  0.1393891E+03  0.7546771E-02  0.1226681E+00
         -1   -1    0    0    0  501 -0.00000000000E+00  0.00000000000E+00  0.52493790272E+02  0.52493790272E+02  0.00000000000E+00 0.  1.
          1   -1    0    0  501    0  0.00000000000E+00 -0.00000000000E+00 -0.29127195124E+03  0.29127195124E+03  0.00000000000E+00 0. -1.
         23    2    1    2    0    0 -0.28354757808E+02 -0.54772027867E+02 -0.12165435516E+03  0.18501105826E+03  0.12500136888E+03 0.  0.
          5    1    3    3  502    0 -0.76327617561E+02 -0.28842366598E+02 -0.90853071222E+02  0.12220539212E+03  0.47000000000E+01 0.  1.
         -5    1    3    3    0  502  0.47972859754E+02 -0.25929661269E+02 -0.30801283937E+02  0.62805666135E+02  0.47000000000E+01 0.  1.
        -11    1    1    2    0    0  0.31717697259E+02  0.35275063739E+02 -0.83140739283E+01  0.48160837477E+02  0.00000000000E+00 0.  1.
         11    1    1    2    0    0 -0.33629394516E+01  0.19496964128E+02 -0.10880973188E+03  0.11059384577E+03  0.00000000000E+00 0. -1.
<mgrwt>
<rscale>  0 0.13052334E+03</rscale>
<asrwt>0</asrwt>
<pdfrwt beam="2">  1        1 0.44811069E-01 0.13938906E+03</pdfrwt>
<pdfrwt beam="1">  1       -1 0.80759678E-02 0.13938906E+03</pdfrwt>
<totfact> 0.73560274E+03</totfact>
</mgrwt>
</event>
<event>
 7    1  0.4230786E-006  0.1251043E+03  0.7546771E-02  0.1288833E+00
          1   -1    0    0  501    0  0.00000000000E+00  0.00000000000E+00  0.20933043404E+02  0.20933043404E+02  0.00000000000E+00 0. -1.
         -1   -1    0    0    0  501 -0.00000000000E+00 -0.00000000000E+00 -0.35164731059E+03  0.35164731059E+03  0.00000000000E+00 0.  1.
         23    2    1    2    0    0  0.49216681442E+01  0.97793236320E+00 -0.27326909460E+03  0.30054466266E+03  0.12500366805E+03 0.  0.
          5    1    3    3  502    0  0.68013771207E+01  0.59128924606E+02 -0.18766839204E+03  0.19693654772E+03  0.47000000000E+01 0. -1.
         -5    1    3    3    0  502 -0.18797089765E+01 -0.58150992242E+02 -0.85600702551E+02  0.10360811494E+03  0.47000000000E+01 0. -1.
        -11    1    1    2    0    0 -0.14221731339E+02  0.17521136778E+02 -0.33335266614E+02  0.40255283833E+02  0.00000000000E+00 0. -1.
         11    1    1    2    0    0  0.93000631952E+01 -0.18499069141E+02 -0.24109905981E+02  0.31780407501E+02  0.00000000000E+00 0.  1.
<mgrwt>
<rscale>  0 0.96048110E+02</rscale>
<asrwt>0</asrwt>
<pdfrwt beam="1">  1        1 0.32204681E-02 0.12510434E+03</pdfrwt>
<pdfrwt beam="2">  1       -1 0.54099587E-01 0.12510434E+03</pdfrwt>
<totfact> 0.10208609E+04</totfact>
</mgrwt>
</event>
<event>
 7    1  0.4230786E-006  0.1762418E+03  0.7546771E-02  0.1177453E+00
          1   -1    0    0  501    0  0.00000000000E+00  0.00000000000E+00  0.39076307874E+03  0.39076307874E+03  0.00000000000E+00 0. -1.
         -1   -1    0    0    0  501 -0.00000000000E+00 -0.00000000000E+00 -0.10092514069E+03  0.10092514069E+03  0.00000000000E+00 0.  1.
         23    2    1    2    0    0 -0.63734464461E+02 -0.10667444529E+03  0.15257755369E+02  0.17690105438E+03  0.12497865699E+03 0.  0.
          5    1    3    3  502    0 -0.25128818836E+02  0.17232880041E+02  0.33763467754E+02  0.45721892408E+02  0.47000000000E+01 0.  1.
         -5    1    3    3    0  502 -0.38605645625E+02 -0.12390732533E+03 -0.18505712385E+02  0.13117916197E+03  0.47000000000E+01 0.  1.
        -11    1    1    2    0    0  0.33677550832E+02  0.11560831351E+03  0.19413285165E+03  0.22844479349E+03  0.00000000000E+00 0.  1.
         11    1    1    2    0    0  0.30056913629E+02 -0.89338682132E+01  0.80447331029E+02  0.86342371567E+02  0.00000000000E+00 0. -1.
<mgrwt>
<rscale>  0 0.17037964E+03</rscale>
<asrwt>0</asrwt>
<pdfrwt beam="1">  1        1 0.60117396E-01 0.17624183E+03</pdfrwt>
<pdfrwt beam="2">  1       -1 0.15526945E-01 0.17624183E+03</pdfrwt>
<totfact> 0.18773655E+03</totfact>
</mgrwt>
</event>
<event>
 7    1  0.4230786E-006  0.1261430E+03  0.7546771E-02  0.1248767E+00
          1   -1    0    0  501    0  0.00000000000E+00  0.00000000000E+00  0.40288530884E+02  0.40288530884E+02  0.00000000000E+00 0. -1.
         -1   -1    0    0    0  501 -0.00000000000E+00 -0.00000000000E+00 -0.29577869086E+03  0.29577869086E+03  0.00000000000E+00 0.  1.
         23    2    1    2    0    0 -0.11212026161E+02 -0.12706050264E+02 -0.14625885038E+03  0.19314169930E+03  0.12499964580E+03 0.  0.
          5    1    3    3  502    0  0.50276854290E+02 -0.32089058564E+02 -0.86030947182E+02  0.10478971147E+03  0.47000000000E+01 0.  1.
         -5    1    3    3    0  502 -0.61488880451E+02  0.19383008300E+02 -0.60227903202E+02  0.88351987832E+02  0.47000000000E+01 0.  1.
        -11    1    1    2    0    0  0.74642205896E+01  0.51921128406E+02 -0.56380155664E+02  0.77008052285E+02  0.00000000000E+00 0.  1.
         11    1    1    2    0    0  0.37478055711E+01 -0.39215078142E+02 -0.52851153930E+02  0.65917470158E+02  0.00000000000E+00 0. -1.
<mgrwt>
<rscale>  0 0.11662743E+03</rscale>
<asrwt>0</asrwt>
<pdfrwt beam="1">  1        1 0.61982355E-02 0.12614303E+03</pdfrwt>
<pdfrwt beam="2">  1       -1 0.45504414E-01 0.12614303E+03</pdfrwt>
<totfact> 0.57147271E+03</totfact>
</mgrwt>
</event>
<event>
 7    1  0.4230786E-006  0.1394079E+03  0.7546771E-02  0.1226646E+00
         -1   -1    0    0    0  501 -0.00000000000E+00  0.00000000000E+00  0.65860205102E+02  0.65860205102E+02  0.00000000000E+00 0.  1.
          1   -1    0    0  501    0  0.00000000000E+00 -0.00000000000E+00 -0.23086011218E+03  0.23086011218E+03  0.00000000000E+00 0. -1.
         23    2    1    2    0    0  0.18675794764E+02 -0.58828634973E+02 -0.92799363671E+02  0.16747020974E+03  0.12499982260E+03 0.  0.
          5    1    3    3  502    0 -0.62475939815E+01 -0.81440281957E+02 -0.15826763426E+02  0.83331437024E+02  0.47000000000E+01 0. -1.
         -5    1    3    3    0  502  0.24923388745E+02  0.22611646984E+02 -0.76972600245E+02  0.84138772717E+02  0.47000000000E+01 0. -1.
        -11    1    1    2    0    0 -0.33795265594E+02 -0.58836925959E+01 -0.48704382967E+01  0.34647640386E+02  0.00000000000E+00 0.  1.
         11    1    1    2    0    0  0.15119470830E+02  0.64712327569E+02 -0.67330105107E+02  0.94602467152E+02  0.00000000000E+00 0. -1.
<mgrwt>
<rscale>  0 0.13054735E+03</rscale>
<asrwt>0</asrwt>
<pdfrwt beam="2">  1        1 0.35516940E-01 0.13940785E+03</pdfrwt>
<pdfrwt beam="1">  1       -1 0.10132339E-01 0.13940785E+03</pdfrwt>
<totfact> 0.69488016E+03</totfact>
</mgrwt>
</event>
<event>
 7    1  0.4230786E-006  0.1282301E+03  0.7546771E-02  0.1243215E+00
         -2   -1    0    0    0  501 -0.00000000000E+00  0.00000000000E+00  0.95093328610E+02  0.95093328610E+02  0.00000000000E+00 0. -1.
          2   -1    0    0  501    0  0.00000000000E+00 -0.00000000000E+00 -0.14930625823E+03  0.14930625823E+03  0.00000000000E+00 0.  1.
         23    2    1    2    0    0 -0.26880487221E+02  0.96910634623E+01  0.75740860759E+01  0.12845361074E+03  0.12500594397E+03 0.  0.
          5    1    3    3  502    0 -0.54904963511E+02 -0.41905836733E+02  0.16111735549E+01  0.69248393849E+02  0.47000000000E+01 0. -1.
         -5    1    3    3    0  502  0.28024476290E+02  0.51596900195E+02  0.59629125210E+01  0.59205216888E+02  0.47000000000E+01 0. -1.
        -11    1    1    2    0    0 -0.18200596207E+02  0.20490396842E+02 -0.54767664298E+02  0.61242265778E+02  0.00000000000E+00 0.  1.
         11    1    1    2    0    0  0.45081083428E+02 -0.30181460305E+02 -0.70193513976E+01  0.54703710324E+02  0.00000000000E+00 0. -1.
<mgrwt>
<rscale>  0 0.11992848E+03</rscale>
<asrwt>0</asrwt>
<pdfrwt beam="2">  1        2 0.22970194E-01 0.12823012E+03</pdfrwt>
<pdfrwt beam="1">  1       -2 0.14629743E-01 0.12823012E+03</pdfrwt>
<totfact> 0.79576064E+03</totfact>
</mgrwt>
</event>
<event>
 7    1  0.4230786E-006  0.1286670E+03  0.7546771E-02  0.1243866E+00
         -2   -1    0    0    0  501 -0.00000000000E+00  0.00000000000E+00  0.41350700637E+02  0.41350700637E+02  0.00000000000E+00 0.  1.
          2   -1    0    0  501    0  0.00000000000E+00 -0.00000000000E+00 -0.30572922475E+03  0.30572922475E+03  0.00000000000E+00 0. -1.
         23    2    1    2    0    0  0.27806381455E+02  0.12498653116E+02 -0.16117349592E+03  0.20623312445E+03  0.12500317857E+03 0.  0.
          5    1    3    3  502    0  0.13597912190E+02  0.57852844049E+02 -0.30209179928E+02  0.66832172884E+02  0.47000000000E+01 0. -1.
         -5    1    3    3    0  502  0.14208469265E+02 -0.45354190933E+02 -0.13096431599E+03  0.13940095157E+03  0.47000000000E+01 0. -1.
        -11    1    1    2    0    0 -0.58432445756E+02  0.70647556123E+01 -0.71585361827E+02  0.92675377079E+02  0.00000000000E+00 0.  1.
         11    1    1    2    0    0  0.30626064300E+02 -0.19563408729E+02 -0.31619666369E+02  0.48171423862E+02  0.00000000000E+00 0. -1.
<mgrwt>
<rscale>  0 0.11953483E+03</rscale>
<asrwt>0</asrwt>
<pdfrwt beam="2">  1        2 0.47035268E-01 0.12866703E+03</pdfrwt>
<pdfrwt beam="1">  1       -2 0.63616459E-02 0.12866703E+03</pdfrwt>
<totfact> 0.13567343E+04</totfact>
</mgrwt>
</event>
<event>
 7    1  0.4230786E-006  0.1264640E+03  0.7546771E-02  0.1247282E+00
          1   -1    0    0  501    0  0.00000000000E+00  0.00000000000E+00  0.30000346563E+03  0.30000346563E+03  0.00000000000E+00 0. -1.
         -1   -1    0    0    0  501 -0.00000000000E+00 -0.00000000000E+00 -0.58064849745E+02  0.58064849745E+02  0.00000000000E+00 0.  1.
         23    2    1    2    0    0 -0.17916832411E+02 -0.68487835383E+01  0.35836763961E+02  0.13144359022E+03  0.12500090015E+03 0.  0.
          5    1    3    3  502    0 -0.22408281172E+02  0.40120424018E+01  0.81140714004E+02  0.84404579368E+02  0.47000000000E+01 0.  1.
         -5    1    3    3    0  502  0.44914487606E+01 -0.10860825940E+02 -0.45303950042E+02  0.47039010848E+02  0.47000000000E+01 0.  1.
        -11    1    1    2    0    0 -0.41699266505E+01  0.43465855194E+02  0.14912069446E+03  0.15538227175E+03  0.00000000000E+00 0.  1.
         11    1    1    2    0    0  0.22086759062E+02 -0.36617071656E+02  0.56981157457E+02  0.71242453408E+02  0.00000000000E+00 0. -1.
<mgrwt>
<rscale>  0 0.11749832E+03</rscale>
<asrwt>0</asrwt>
<pdfrwt beam="1">  1        1 0.46154379E-01 0.12646400E+03</pdfrwt>
<pdfrwt beam="2">  1       -1 0.89330539E-02 0.12646400E+03</pdfrwt>
<totfact> 0.60503262E+03</totfact>
</mgrwt>
</event>
<event>
 7    1  0.5216513E-006  0.1562766E+03  0.7546771E-02  0.1199219E+00
         -1   -1    0    0    0  501 -0.00000000000E+00  0.00000000000E+00  0.40464950771E+02  0.40464950771E+02  0.00000000000E+00 0.  1.
          1   -1    0    0  501    0  0.00000000000E+00 -0.00000000000E+00 -0.53169839010E+03  0.53169839010E+03  0.00000000000E+00 0. -1.
         23    2    1    2    0    0 -0.67532997072E+02  0.65090490228E+02 -0.24152417615E+03  0.28767393870E+03  0.12499955893E+03 0.  0.
          5    1    3    3  502    0 -0.21038103286E+02  0.16171766084E+02  0.88157104995E+01  0.28353739785E+02  0.47000000000E+01 0.  1.
         -5    1    3    3    0  502 -0.46494893786E+02  0.48918724144E+02 -0.25033988665E+03  0.25932019892E+03  0.47000000000E+01 0.  1.
        -11    1    1    2    0    0 -0.31294813106E+01 -0.27560943022E+02 -0.16746705775E+03  0.16974868089E+03  0.00000000000E+00 0. -1.
         11    1    1    2    0    0  0.70662478383E+02 -0.37529547205E+02 -0.82242205428E+02  0.11474072127E+03  0.00000000000E+00 0.  1.
<mgrwt>
<rscale>  0 0.15102529E+03</rscale>
<asrwt>0</asrwt>
<pdfrwt beam="2">  1        1 0.81799752E-01 0.15627657E+03</pdfrwt>
<pdfrwt beam="1">  1       -1 0.62253771E-02 0.15627657E+03</pdfrwt>
<totfact> 0.51017625E+03</totfact>
</mgrwt>
</event>
<event>
 7    1  0.4230786E-006  0.1371137E+03  0.7546771E-02  0.1226177E+00
          3   -1    0    0  501    0  0.00000000000E+00  0.00000000000E+00  0.16473781515E+03  0.16473781515E+03  0.00000000000E+00 0. -1.
         -3   -1    0    0    0  501 -0.00000000000E+00 -0.00000000000E+00 -0.99402548051E+02  0.99402548051E+02  0.00000000000E+00 0.  1.
         23    2    1    2    0    0 -0.17250278640E+02  0.53640122452E+02  0.96110983222E+01  0.13745008954E+03  0.12500127621E+03 0.  0.
          5    1    3    3  502    0  0.30261263873E+02 -0.16950468976E+02  0.34012034056E+02  0.48805439761E+02  0.47000000000E+01 0. -1.
         -5    1    3    3    0  502 -0.47511542513E+02  0.70590591429E+02 -0.24400935733E+02  0.88644649782E+02  0.47000000000E+01 0. -1.
        -11    1    1    2    0    0  0.37303952874E+02 -0.59461539442E+02  0.71743972035E+02  0.10037159507E+03  0.00000000000E+00 0. -1.
         11    1    1    2    0    0 -0.20053674233E+02  0.58214169898E+01 -0.16019803262E+02  0.26318678587E+02  0.00000000000E+00 0.  1.
<mgrwt>
<rscale>  0 0.13086524E+03</rscale>
<asrwt>0</asrwt>
<pdfrwt beam="1">  1        3 0.25344279E-01 0.13711365E+03</pdfrwt>
<pdfrwt beam="2">  1       -3 0.15292700E-01 0.13711365E+03</pdfrwt>
<totfact> 0.12131875E+03</totfact>
</mgrwt>
</event>
<event>
 7    1  0.4230786E-006  0.1371796E+03  0.7546771E-02  0.1230204E+00
         -2   -1    0    0    0  501 -0.00000000000E+00  0.00000000000E+00  0.61642290126E+02  0.61642290126E+02  0.00000000000E+00 0. -1.
          2   -1    0    0  501    0  0.00000000000E+00 -0.00000000000E+00 -0.27305489412E+03  0.27305489412E+03  0.00000000000E+00 0.  1.
         23    2    1    2    0    0  0.36231851079E+02  0.43352730654E+02 -0.57716020115E+02  0.14882670769E+03  0.12500417455E+03 0.  0.
          5    1    3    3  502    0  0.78401187934E+02  0.10086162113E+02 -0.16319319461E+02  0.80851018073E+02  0.47000000000E+01 0.  1.
         -5    1    3    3    0  502 -0.42169336855E+02  0.33266568541E+02 -0.41396700654E+02  0.67975689613E+02  0.47000000000E+01 0.  1.
        -11    1    1    2    0    0  0.35382422620E+01 -0.38420032323E+02 -0.13721942379E+03  0.14254047954E+03  0.00000000000E+00 0.  1.
         11    1    1    2    0    0 -0.39770093341E+02 -0.49326983314E+01 -0.16477160087E+02  0.43329997020E+02  0.00000000000E+00 0. -1.
<mgrwt>
<rscale>  0 0.12816542E+03</rscale>
<asrwt>0</asrwt>
<pdfrwt beam="2">  1        2 0.42008445E-01 0.13717963E+03</pdfrwt>
<pdfrwt beam="1">  1       -2 0.94834293E-02 0.13717963E+03</pdfrwt>
<totfact> 0.83066734E+03</totfact>
</mgrwt>
</event>
<event>
 7    1  0.4230786E-006  0.1841598E+03  0.7546771E-02  0.1168828E+00
          2   -1    0    0  501    0  0.00000000000E+00  0.00000000000E+00  0.54554173011E+03  0.54554173011E+03  0.00000000000E+00 0. -1.
         -2   -1    0    0    0  501 -0.00000000000E+00 -0.00000000000E+00 -0.55880463639E+02  0.55880463639E+02  0.00000000000E+00 0.  1.
         23    2    1    2    0    0  0.13482931230E+03 -0.10523898181E+02  0.23764502288E+03  0.30064925772E+03  0.12500049351E+03 0.  0.
          5    1    3    3  502    0  0.73472562574E+02 -0.44403503981E+01  0.22599326750E+03  0.23772459090E+03  0.47000000000E+01 0.  1.
         -5    1    3    3    0  502  0.61356749730E+02 -0.60835477832E+01  0.11651755380E+02  0.62924666821E+02  0.47000000000E+01 0.  1.
        -11    1    1    2    0    0 -0.36143458283E+02 -0.32654730810E+02  0.40264135110E+02  0.63197164471E+02  0.00000000000E+00 0.  1.
         11    1    1    2    0    0 -0.98685854021E+02  0.43178628992E+02  0.21175210847E+03  0.23757577155E+03  0.00000000000E+00 0. -1.
<mgrwt>
<rscale>  0 0.17894530E+03</rscale>
<asrwt>0</asrwt>
<pdfrwt beam="1">  1        2 0.83929493E-01 0.18415977E+03</pdfrwt>
<pdfrwt beam="2">  1       -2 0.85969948E-02 0.18415977E+03</pdfrwt>
<totfact> 0.46635793E+03</totfact>
</mgrwt>
</event>
<event>
 7    1  0.4230786E-006  0.1688589E+03  0.7546771E-02  0.1186017E+00
         -2   -1    0    0    0  501 -0.00000000000E+00  0.00000000000E+00  0.23349615389E+02  0.23349615389E+02  0.00000000000E+00 0.  1.
          2   -1    0    0  501    0  0.00000000000E+00 -0.00000000000E+00 -0.10673228555E+04  0.10673228555E+04  0.00000000000E+00 0. -1.
         23    2    1    2    0    0 -0.84591588036E+02 -0.75473387526E+02 -0.62912476818E+03  0.65139182196E+03  0.12514536662E+03 0.  0.
          5    1    3    3  502    0 -0.23591043712E+02  0.33729072637E+02 -0.11454823833E+03  0.12180959154E+03  0.47000000000E+01 0. -1.
         -5    1    3    3    0  502 -0.61000544323E+02 -0.10920246016E+03 -0.51457652985E+03  0.52958223043E+03  0.47000000000E+01 0. -1.
        -11    1    1    2    0    0  0.11079678477E+01  0.46569018591E+02 -0.76307107509E+02  0.89401765876E+02  0.00000000000E+00 0.  1.
         11    1    1    2    0    0  0.83483620188E+02  0.28904368935E+02 -0.33854136443E+03  0.34987888306E+03  0.00000000000E+00 0. -1.
<mgrwt>
<rscale>  0 0.16239726E+03</rscale>
<asrwt>0</asrwt>
<pdfrwt beam="2">  1        2 0.16420354E+00 0.16885891E+03</pdfrwt>
<pdfrwt beam="1">  1       -2 0.35922481E-02 0.16885891E+03</pdfrwt>
<totfact> 0.75696430E+03</totfact>
</mgrwt>
</event>
<event>
 7    1  0.4230786E-006  0.1369287E+03  0.7546771E-02  0.1247275E+00
         -2   -1    0    0    0  501 -0.00000000000E+00  0.00000000000E+00  0.90121957287E+02  0.90121957287E+02  0.00000000000E+00 0.  1.
          2   -1    0    0  501    0  0.00000000000E+00 -0.00000000000E+00 -0.12737639559E+03  0.12737639559E+03  0.00000000000E+00 0. -1.
         23    2    1    2    0    0  0.47724031970E+02 -0.29229348981E+02 -0.41632221206E+02  0.14311782168E+03  0.12497012031E+03 0.  0.
          5    1    3    3  502    0  0.30827549295E+02  0.39099252509E+02 -0.51616852482E+02  0.71871265485E+02  0.47000000000E+01 0.  1.
         -5    1    3    3    0  502  0.16896482675E+02 -0.68328601490E+02  0.99846312760E+01  0.71246556198E+02  0.47000000000E+01 0.  1.
        -11    1    1    2    0    0 -0.16206817719E+02  0.21907830790E+02 -0.20055289535E+02  0.33835316296E+02  0.00000000000E+00 0. -1.
         11    1    1    2    0    0 -0.31517214251E+02  0.73215181908E+01  0.24433072435E+02  0.40545214901E+02  0.00000000000E+00 0.  1.
<mgrwt>
<rscale>  0 0.11750255E+03</rscale>
<asrwt>0</asrwt>
<pdfrwt beam="2">  1        2 0.19596369E-01 0.13692870E+03</pdfrwt>
<pdfrwt beam="1">  1       -2 0.13864916E-01 0.13692870E+03</pdfrwt>
<totfact> 0.10430529E+04</totfact>
</mgrwt>
</event>
<event>
 7    1  0.4230786E-006  0.1283004E+03  0.7546771E-02  0.1244923E+00
          1   -1    0    0  501    0  0.00000000000E+00  0.00000000000E+00  0.14753690781E+03  0.14753690781E+03  0.00000000000E+00 0. -1.
         -1   -1    0    0    0  501 -0.00000000000E+00 -0.00000000000E+00 -0.95604496627E+02  0.95604496627E+02  0.00000000000E+00 0.  1.
         23    2    1    2    0    0  0.28845938470E+02 -0.76181916281E+00 -0.12117407007E+02  0.12887136187E+03  0.12501331059E+03 0.  0.
          5    1    3    3  502    0  0.32848472584E+02 -0.52084122319E+02  0.23521498894E+02  0.66084255758E+02  0.47000000000E+01 0.  1.
         -5    1    3    3    0  502 -0.40025341137E+01  0.51322303156E+02 -0.35638905901E+02  0.62787106116E+02  0.47000000000E+01 0.  1.
        -11    1    1    2    0    0 -0.54614654239E+01  0.14116503674E+02  0.81031868469E+02  0.82433409417E+02  0.00000000000E+00 0. -1.
         11    1    1    2    0    0 -0.23384473046E+02 -0.13354684511E+02 -0.16982050283E+02  0.31836633142E+02  0.00000000000E+00 0.  1.
<mgrwt>
<rscale>  0 0.11889972E+03</rscale>
<asrwt>0</asrwt>
<pdfrwt beam="1">  1        1 0.22697986E-01 0.12830041E+03</pdfrwt>
<pdfrwt beam="2">  1       -1 0.14708384E-01 0.12830041E+03</pdfrwt>
<totfact> 0.67917509E+03</totfact>
</mgrwt>
</event>
<event>
 7    1  0.4230786E-006  0.1847273E+03  0.7546771E-02  0.1168842E+00
         -2   -1    0    0    0  501 -0.00000000000E+00  0.00000000000E+00  0.49767256582E+02  0.49767256582E+02  0.00000000000E+00 0. -1.
          2   -1    0    0  501    0  0.00000000000E+00 -0.00000000000E+00 -0.70042661676E+03  0.70042661676E+03  0.00000000000E+00 0.  1.
         23    2    1    2    0    0  0.52596670105E+02 -0.12554969253E+03 -0.20579644662E+03  0.27654357756E+03  0.12488009387E+03 0.  0.
          5    1    3    3  502    0 -0.11449070503E+02 -0.32855393382E+02 -0.14346228051E+03  0.14769588355E+03  0.47000000000E+01 0.  1.
         -5    1    3    3    0  502  0.64045740607E+02 -0.92694299152E+02 -0.62334166113E+02  0.12884769400E+03  0.47000000000E+01 0.  1.
        -11    1    1    2    0    0 -0.26746455679E+02  0.45020730335E+02 -0.31049812240E+03  0.31488303077E+03  0.00000000000E+00 0.  1.
         11    1    1    2    0    0 -0.25850214425E+02  0.80528962199E+02 -0.13436479115E+03  0.15876726502E+03  0.00000000000E+00 0. -1.
<mgrwt>
<rscale>  0 0.17893045E+03</rscale>
<asrwt>0</asrwt>
<pdfrwt beam="2">  1        2 0.10775794E+00 0.18472729E+03</pdfrwt>
<pdfrwt beam="1">  1       -2 0.76565012E-02 0.18472729E+03</pdfrwt>
<totfact> 0.41786814E+03</totfact>
</mgrwt>
</event>
<event>
 7    1  0.4230786E-006  0.1624951E+03  0.7546771E-02  0.1193389E+00
          2   -1    0    0  501    0  0.00000000000E+00  0.00000000000E+00  0.43759681997E+03  0.43759681997E+03  0.00000000000E+00 0. -1.
         -2   -1    0    0    0  501 -0.00000000000E+00 -0.00000000000E+00 -0.51515977478E+02  0.51515977478E+02  0.00000000000E+00 0.  1.
         23    2    1    2    0    0  0.98251922041E+02  0.33547213010E+02  0.21414031756E+03  0.26881355276E+03  0.12500317938E+03 0.  0.
          5    1    3    3  502    0 -0.25690682087E+02  0.22609144887E+02  0.26140255265E+02  0.43319597458E+02  0.47000000000E+01 0.  1.
         -5    1    3    3    0  502  0.12394260413E+03  0.10938068123E+02  0.18800006230E+03  0.22549395530E+03  0.47000000000E+01 0.  1.
        -11    1    1    2    0    0 -0.15280256238E+02 -0.13486050398E+02 -0.73978568219E+01  0.21681514513E+02  0.00000000000E+00 0.  1.
         11    1    1    2    0    0 -0.82971665803E+02 -0.20061162613E+02  0.17933838175E+03  0.19861773017E+03  0.00000000000E+00 0. -1.
<mgrwt>
<rscale>  0 0.15591341E+03</rscale>
<asrwt>0</asrwt>
<pdfrwt beam="1">  1        2 0.67322585E-01 0.16249508E+03</pdfrwt>
<pdfrwt beam="2">  1       -2 0.79255353E-02 0.16249508E+03</pdfrwt>
<totfact> 0.67114864E+03</totfact>
</mgrwt>
</event>
<event>
 6    1  0.4230786E-006  0.1375969E+03  0.7546771E-02  0.1232161E+00
          2   -1    0    0  501    0  0.00000000000E+00  0.00000000000E+00  0.37653978074E+03  0.37653978074E+03  0.00000000000E+00 0.  1.
         -2   -1    0    0    0  501 -0.00000000000E+00 -0.00000000000E+00 -0.50326574498E+02  0.50326574498E+02  0.00000000000E+00 0. -1.
          5    1    1    2  502    0 -0.43479315670E+02 -0.60798952336E+02 -0.53651266700E+00  0.74895536196E+02  0.47000000000E+01 0. -1.
         -5    1    1    2    0  502  0.22987019450E+02  0.20768537458E+02  0.75618380833E+02  0.81853312280E+02  0.47000000000E+01 0.  1.
        -11    1    1    2    0    0  0.13400746533E+02  0.53106555033E+02  0.24916371145E+03  0.25511260513E+03  0.00000000000E+00 0.  1.
         11    1    1    2    0    0  0.70915496872E+01 -0.13076140155E+02  0.19676266262E+01  0.15004901628E+02  0.00000000000E+00 0. -1.
<mgrwt>
<rscale>  0 0.12687962E+03</rscale>
<asrwt>0</asrwt>
<pdfrwt beam="1">  1        2 0.57929195E-01 0.13759693E+03</pdfrwt>
<pdfrwt beam="2">  1       -2 0.77425502E-02 0.13759693E+03</pdfrwt>
<totfact> 0.80936605E+03</totfact>
</mgrwt>
</event>
<event>
 7    1  0.4230786E-006  0.1310403E+03  0.7546771E-02  0.1238588E+00
         -4   -1    0    0    0  501 -0.00000000000E+00  0.00000000000E+00  0.16741404998E+03  0.16741404998E+03  0.00000000000E+00 0.  1.
          4   -1    0    0  501    0  0.00000000000E+00 -0.00000000000E+00 -0.12029238905E+03  0.12029238905E+03  0.00000000000E+00 0. -1.
         23    2    1    2    0    0 -0.87947960839E+01  0.38332609429E+02  0.10798842248E+03  0.16980298154E+03  0.12499926307E+03 0.  0.
          5    1    3    3  502    0  0.44274735447E+02  0.21125166698E+02  0.10227030951E+03  0.11352458357E+03  0.47000000000E+01 0. -1.
         -5    1    3    3    0  502 -0.53069531531E+02  0.17207442731E+02  0.57181129639E+01  0.56278397970E+02  0.47000000000E+01 0. -1.
        -11    1    1    2    0    0  0.13284038098E+02  0.47921157277E+01 -0.71810482720E+02  0.73185896659E+02  0.00000000000E+00 0. -1.
         11    1    1    2    0    0 -0.44892420143E+01 -0.43124725157E+02  0.10943721176E+02  0.44717560834E+02  0.00000000000E+00 0.  1.
<mgrwt>
<rscale>  0 0.12277495E+03</rscale>
<asrwt>0</asrwt>
<pdfrwt beam="2">  1        4 0.18506521E-01 0.13104027E+03</pdfrwt>
<pdfrwt beam="1">  1       -4 0.25756008E-01 0.13104027E+03</pdfrwt>
<totfact> 0.60505673E+02</totfact>
</mgrwt>
</event>
<event>
 7    1  0.4230786E-006  0.2028875E+03  0.7546771E-02  0.1151342E+00
         -1   -1    0    0    0  501 -0.00000000000E+00  0.00000000000E+00  0.10078421907E+03  0.10078421907E+03  0.00000000000E+00 0.  1.
          1   -1    0    0  501    0  0.00000000000E+00 -0.00000000000E+00 -0.39937299160E+03  0.39937299160E+03  0.00000000000E+00 0. -1.
         23    2    1    2    0    0  0.96285221563E+02 -0.12754511375E+03 -0.22113048139E+03  0.30010333732E+03  0.12499889335E+03 0.  0.
          5    1    3    3  502    0  0.80564856085E+02 -0.14936392258E+03 -0.21137669193E+03  0.27111339565E+03  0.47000000000E+01 0.  1.
         -5    1    3    3    0  502  0.15720365478E+02  0.21818808833E+02 -0.97537894558E+01  0.28989941676E+02  0.47000000000E+01 0.  1.
        -11    1    1    2    0    0 -0.91875156899E+02  0.10061169322E+03 -0.21688634733E+02  0.13796432200E+03  0.00000000000E+00 0.  1.
         11    1    1    2    0    0 -0.44100646640E+01  0.26933420530E+02 -0.55769656406E+02  0.62089551354E+02  0.00000000000E+00 0. -1.
<mgrwt>
<rscale>  0 0.19811211E+03</rscale>
<asrwt>0</asrwt>
<pdfrwt beam="2">  1        1 0.61441999E-01 0.20288746E+03</pdfrwt>
<pdfrwt beam="1">  1       -1 0.15505264E-01 0.20288746E+03</pdfrwt>
<totfact> 0.18362532E+03</totfact>
</mgrwt>
</event>
<event>
 7    1  0.4230786E-006  0.2656757E+03  0.7546771E-02  0.1105370E+00
         -1   -1    0    0    0  501 -0.00000000000E+00  0.00000000000E+00  0.14268477957E+03  0.14268477957E+03  0.00000000000E+00 0.  1.
          1   -1    0    0  501    0  0.00000000000E+00 -0.00000000000E+00 -0.51089904423E+03  0.51089904423E+03  0.00000000000E+00 0. -1.
         23    2    1    2    0    0 -0.19367202685E+03 -0.13210152220E+03 -0.10106532321E+03  0.28424954041E+03  0.12499574199E+03 0.  0.
          5    1    3    3  502    0 -0.20264109025E+03 -0.91799335045E+02 -0.96170443098E+02  0.24240745347E+03  0.47000000000E+01 0. -1.
         -5    1    3    3    0  502  0.89690634078E+01 -0.40302187153E+02 -0.48948801157E+01  0.41842086935E+02  0.47000000000E+01 0. -1.
        -11    1    1    2    0    0  0.16437414641E+03  0.10110830167E+03 -0.14925996860E+03  0.24396779890E+03  0.00000000000E+00 0.  1.
         11    1    1    2    0    0  0.29297880439E+02  0.30993220528E+02 -0.11788897283E+03  0.12536648449E+03  0.00000000000E+00 0. -1.
<mgrwt>
<rscale>  0 0.26297283E+03</rscale>
<asrwt>0</asrwt>
<pdfrwt beam="2">  1        1 0.78599853E-01 0.26567575E+03</pdfrwt>
<pdfrwt beam="1">  1       -1 0.21951505E-01 0.26567575E+03</pdfrwt>
<totfact> 0.76114818E+02</totfact>
</mgrwt>
</event>
<event>
 7    1  0.4230786E-006  0.1763093E+03  0.7546771E-02  0.1177765E+00
         -1   -1    0    0    0  501 -0.00000000000E+00  0.00000000000E+00  0.82910357029E+03  0.82910357029E+03  0.00000000000E+00 0.  1.
          1   -1    0    0  501    0  0.00000000000E+00 -0.00000000000E+00 -0.32669174302E+02  0.32669174302E+02  0.00000000000E+00 0. -1.
         23    2    1    2    0    0 -0.24365834089E+02 -0.12192937229E+03  0.44053124598E+03  0.47450264537E+03  0.12499806430E+03 0.  0.
          5    1    3    3  502    0  0.32060704496E+01 -0.13914619759E+03  0.30898996825E+03  0.33892304978E+03  0.47000000000E+01 0. -1.
         -5    1    3    3    0  502 -0.27571904539E+02  0.17216825302E+02  0.13154127773E+03  0.13557959559E+03  0.47000000000E+01 0. -1.
        -11    1    1    2    0    0  0.41075568513E+02  0.73422722969E+02  0.29919415313E+03  0.31079774749E+03  0.00000000000E+00 0.  1.
         11    1    1    2    0    0 -0.16709734424E+02  0.48506649323E+02  0.56708996885E+02  0.76472351741E+02  0.00000000000E+00 0. -1.
<mgrwt>
<rscale>  0 0.17007942E+03</rscale>
<asrwt>0</asrwt>
<pdfrwt beam="2">  1        1 0.50260275E-02 0.17630934E+03</pdfrwt>
<pdfrwt beam="1">  1       -1 0.12755438E+00 0.17630934E+03</pdfrwt>
<totfact> 0.93407463E+02</totfact>
</mgrwt>
</event>
<event>
 7    1  0.4230786E-006  0.1597290E+03  0.7546771E-02  0.1196648E+00
          2   -1    0    0  501    0  0.00000000000E+00  0.00000000000E+00  0.50275903406E+03  0.50275903406E+03  0.00000000000E+00 0. -1.
         -2   -1    0    0    0  501 -0.00000000000E+00 -0.00000000000E+00 -0.43304594588E+02  0.43304594588E+02  0.00000000000E+00 0.  1.
         23    2    1    2    0    0 -0.39938341213E+02  0.91070089101E+02  0.26241640931E+03  0.30720632747E+03  0.12499809413E+03 0.  0.
          5    1    3    3  502    0 -0.40470379995E+02  0.10884585449E+03  0.13357420293E+03  0.17705770072E+03  0.47000000000E+01 0. -1.
         -5    1    3    3    0  502  0.53203878206E+00 -0.17775765389E+02  0.12884220638E+03  0.13014862675E+03  0.47000000000E+01 0. -1.
        -11    1    1    2    0    0  0.69088812766E+02 -0.53097057485E+02  0.12599238581E+03  0.15318825949E+03  0.00000000000E+00 0.  1.
         11    1    1    2    0    0 -0.29150471552E+02 -0.37973031616E+02  0.71045644352E+02  0.85669041685E+02  0.00000000000E+00 0. -1.
<mgrwt>
<rscale>  0 0.15315553E+03</rscale>
<asrwt>0</asrwt>
<pdfrwt beam="1">  1        2 0.77347540E-01 0.15972901E+03</pdfrwt>
<pdfrwt beam="2">  1       -2 0.66622457E-02 0.15972901E+03</pdfrwt>
<totfact> 0.75264031E+03</totfact>
</mgrwt>
</event>
<event>
 7    1  0.4230786E-006  0.1307814E+03  0.7546771E-02  0.1237678E+00
         -1   -1    0    0    0  501 -0.00000000000E+00  0.00000000000E+00  0.70436110636E+02  0.70436110636E+02  0.00000000000E+00 0.  1.
          1   -1    0    0  501    0  0.00000000000E+00 -0.00000000000E+00 -0.21781600868E+03  0.21781600868E+03  0.00000000000E+00 0. -1.
         23    2    1    2    0    0 -0.10326648008E+02 -0.36990216987E+02 -0.34785436479E+02  0.13532845338E+03  0.12501539062E+03 0.  0.
          5    1    3    3  502    0  0.48698795515E+02 -0.49920008080E+02 -0.14240951405E+02  0.71333544621E+02  0.47000000000E+01 0. -1.
         -5    1    3    3    0  502 -0.59025443522E+02  0.12929791093E+02 -0.20544485074E+02  0.63994908764E+02  0.47000000000E+01 0. -1.
        -11    1    1    2    0    0 -0.22445271331E+02  0.58741385223E+02 -0.80551340955E+02  0.10219030812E+03  0.00000000000E+00 0.  1.
         11    1    1    2    0    0  0.32771919339E+02 -0.21751168237E+02 -0.32043120608E+02  0.50733357814E+02  0.00000000000E+00 0. -1.
<mgrwt>
<rscale>  0 0.12334559E+03</rscale>
<asrwt>0</asrwt>
<pdfrwt beam="2">  1        1 0.33510155E-01 0.13078136E+03</pdfrwt>
<pdfrwt beam="1">  1       -1 0.10836325E-01 0.13078136E+03</pdfrwt>
<totfact> 0.67096647E+03</totfact>
</mgrwt>
</event>
<event>
 7    1  0.4230786E-006  0.1270528E+03  0.7546771E-02  0.1292816E+00
         -2   -1    0    0    0  501 -0.00000000000E+00  0.00000000000E+00  0.12875027411E+02  0.12875027411E+02  0.00000000000E+00 0.  1.
          2   -1    0    0  501    0  0.00000000000E+00 -0.00000000000E+00 -0.53483083498E+03  0.53483083498E+03  0.00000000000E+00 0. -1.
         23    2    1    2    0    0 -0.30953429747E+01 -0.22541623184E+02 -0.38391030004E+03  0.40438786042E+03  0.12499886901E+03 0.  0.
          5    1    3    3  502    0 -0.12323610596E+02  0.12621501065E+02 -0.36035153202E+03  0.36081365037E+03  0.47000000000E+01 0.  1.
         -5    1    3    3    0  502  0.92282676210E+01 -0.35163124249E+02 -0.23558768017E+02  0.43574210041E+02  0.47000000000E+01 0.  1.
        -11    1    1    2    0    0 -0.10950823004E+02 -0.92454535455E+00 -0.33620545501E+02  0.35371123652E+02  0.00000000000E+00 0.  1.
         11    1    1    2    0    0  0.14046165979E+02  0.23466168538E+02 -0.10442496203E+03  0.10794687832E+03  0.00000000000E+00 0. -1.
<mgrwt>
<rscale>  0 0.94275482E+02</rscale>
<asrwt>0</asrwt>
<pdfrwt beam="2">  1        2 0.82281664E-01 0.12705284E+03</pdfrwt>
<pdfrwt beam="1">  1       -2 0.19807735E-02 0.12705284E+03</pdfrwt>
<totfact> 0.41768961E+04</totfact>
</mgrwt>
</event>
<event>
 7    1  0.4230786E-006  0.1445428E+03  0.7546771E-02  0.1218510E+00
         -1   -1    0    0    0  501 -0.00000000000E+00  0.00000000000E+00  0.91182767857E+02  0.91182767857E+02  0.00000000000E+00 0.  1.
          1   -1    0    0  501    0  0.00000000000E+00 -0.00000000000E+00 -0.18820541835E+03  0.18820541835E+03  0.00000000000E+00 0. -1.
         23    2    1    2    0    0 -0.59922619050E+02  0.40942643116E+02 -0.31661360315E+02  0.14796981135E+03  0.12500241211E+03 0.  0.
          5    1    3    3  502    0 -0.94802805340E+02  0.27594923235E+02 -0.44219178400E+02  0.10828886105E+03  0.47000000000E+01 0. -1.
         -5    1    3    3    0  502  0.34880186290E+02  0.13347719881E+02  0.12557818085E+02  0.39680950300E+02  0.47000000000E+01 0. -1.
        -11    1    1    2    0    0  0.39251773164E+02 -0.47666054075E+02 -0.82983254269E+02  0.10343584919E+03  0.00000000000E+00 0. -1.
         11    1    1    2    0    0  0.20670845886E+02  0.67234109589E+01  0.17621964093E+02  0.27982525673E+02  0.00000000000E+00 0.  1.
<mgrwt>
<rscale>  0 0.13621810E+03</rscale>
<asrwt>0</asrwt>
<pdfrwt beam="2">  1        1 0.28954679E-01 0.14454281E+03</pdfrwt>
<pdfrwt beam="1">  1       -1 0.14028118E-01 0.14454281E+03</pdfrwt>
<totfact> 0.54321938E+03</totfact>
</mgrwt>
</event>
<event>
 7    1  0.4230786E-006  0.1748851E+03  0.7546771E-02  0.1180199E+00
         -1   -1    0    0    0  501 -0.00000000000E+00  0.00000000000E+00  0.50738402052E+03  0.50738402052E+03  0.00000000000E+00 0.  1.
          1   -1    0    0  501    0  0.00000000000E+00 -0.00000000000E+00 -0.51401267596E+02  0.51401267596E+02  0.00000000000E+00 0. -1.
         23    2    1    2    0    0  0.24907720440E+02 -0.11974412808E+03  0.24533188632E+03  0.30128482573E+03  0.12500304406E+03 0.  0.
          5    1    3    3  502    0 -0.64141770718E+01 -0.28637784861E+01 -0.13270770149E+02  0.15733602101E+02  0.47000000000E+01 0.  1.
         -5    1    3    3    0  502  0.31321897512E+02 -0.11688034959E+03  0.25860265647E+03  0.28555122363E+03  0.47000000000E+01 0.  1.
        -11    1    1    2    0    0  0.26981778147E+02  0.21337239736E+02  0.31643496173E+02  0.46739758253E+02  0.00000000000E+00 0. -1.
         11    1    1    2    0    0 -0.51889498588E+02  0.98406888341E+02  0.17900737043E+03  0.21076070413E+03  0.00000000000E+00 0.  1.
<mgrwt>
<rscale>  0 0.16776494E+03</rscale>
<asrwt>0</asrwt>
<pdfrwt beam="2">  1        1 0.79078877E-02 0.17488514E+03</pdfrwt>
<pdfrwt beam="1">  1       -1 0.78059077E-01 0.17488514E+03</pdfrwt>
<totfact> 0.14950883E+03</totfact>
</mgrwt>
</event>
<event>
 7    1  0.4230786E-006  0.1536767E+03  0.7546771E-02  0.1204317E+00
          1   -1    0    0  501    0  0.00000000000E+00  0.00000000000E+00  0.70613182085E+02  0.70613182085E+02  0.00000000000E+00 0. -1.
         -1   -1    0    0    0  501 -0.00000000000E+00 -0.00000000000E+00 -0.30033011934E+03  0.30033011934E+03  0.00000000000E+00 0.  1.
         23    2    1    2    0    0 -0.35545996424E+02 -0.82042978223E+02 -0.17064503319E+03  0.22964378573E+03  0.12498789075E+03 0.  0.
          5    1    3    3  502    0  0.16733045714E+02  0.25514509023E+02 -0.55810961901E+02  0.63780392424E+02  0.47000000000E+01 0. -1.
         -5    1    3    3    0  502 -0.52279042138E+02 -0.10755748725E+03 -0.11483407129E+03  0.16586339330E+03  0.47000000000E+01 0. -1.
        -11    1    1    2    0    0 -0.19917129909E+02 -0.84475057345E+01 -0.15271715998E+02  0.26481648862E+02  0.00000000000E+00 0.  1.
         11    1    1    2    0    0  0.55463126333E+02  0.90490483957E+02 -0.43800188067E+02  0.11481786683E+03  0.00000000000E+00 0. -1.
<mgrwt>
<rscale>  0 0.14691387E+03</rscale>
<asrwt>0</asrwt>
<pdfrwt beam="1">  1        1 0.10863567E-01 0.15367674E+03</pdfrwt>
<pdfrwt beam="2">  1       -1 0.46204633E-01 0.15367674E+03</pdfrwt>
<totfact> 0.26527295E+03</totfact>
</mgrwt>
</event>
<event>
 7    1  0.4230786E-006  0.1461599E+03  0.7546771E-02  0.1210809E+00
         -1   -1    0    0    0  501 -0.00000000000E+00  0.00000000000E+00  0.46462391244E+02  0.46462391244E+02  0.00000000000E+00 0.  1.
          1   -1    0    0  501    0  0.00000000000E+00 -0.00000000000E+00 -0.53190305133E+03  0.53190305133E+03  0.00000000000E+00 0. -1.
         23    2    1    2    0    0 -0.85572822548E+02  0.35662421422E+02 -0.11543032479E+03  0.18624412189E+03  0.11299644595E+03 0.  0.
          5    1    3    3  502    0 -0.54280570900E+02 -0.31758630121E+02 -0.84881890513E+02  0.10574505332E+03  0.47000000000E+01 0. -1.
         -5    1    3    3    0  502 -0.31292251649E+02  0.67421051543E+02 -0.30548434275E+02  0.80499068573E+02  0.47000000000E+01 0.  1.
        -11    1    1    2    0    0  0.52524088078E+02  0.26645487484E+02 -0.18354072215E+03  0.19275880918E+03  0.00000000000E+00 0.  1.
         11    1    1    2    0    0  0.33048734471E+02 -0.62307908907E+02 -0.18646961315E+03  0.19936251149E+03  0.00000000000E+00 0. -1.
<mgrwt>
<rscale>  0 0.14188971E+03</rscale>
<asrwt>0</asrwt>
<pdfrwt beam="2">  1        1 0.81831241E-01 0.14615989E+03</pdfrwt>
<pdfrwt beam="1">  1       -1 0.71480600E-02 0.14615989E+03</pdfrwt>
<totfact> 0.41311610E+03</totfact>
</mgrwt>
</event>
<event>
 6    1  0.4230786E-006  0.3060157E+03  0.7546771E-02  0.1123086E+00
         -2   -1    0    0    0  501 -0.00000000000E+00  0.00000000000E+00  0.17121860130E+03  0.17121860130E+03  0.00000000000E+00 0.  1.
          2   -1    0    0  501    0  0.00000000000E+00 -0.00000000000E+00 -0.30508341694E+03  0.30508341694E+03  0.00000000000E+00 0. -1.
          5    1    1    2  502    0 -0.64983703774E+02 -0.16454433696E+03  0.33564323462E+02  0.18012877169E+03  0.47000000000E+01 0. -1.
         -5    1    1    2    0  502  0.60544306796E+02  0.10468062046E+03 -0.34674144033E+02  0.12588896556E+03  0.47000000000E+01 0.  1.
        -11    1    1    2    0    0  0.42681714060E+02  0.23315853517E+02 -0.37831173298E+02  0.61616194409E+02  0.00000000000E+00 0.  1.
         11    1    1    2    0    0 -0.38242317082E+02  0.36547862980E+02 -0.94923821767E+02  0.10866808659E+03  0.00000000000E+00 0. -1.
<mgrwt>
<rscale>  0 0.23512102E+03</rscale>
<asrwt>0</asrwt>
<pdfrwt beam="2">  1        2 0.46935910E-01 0.30601572E+03</pdfrwt>
<pdfrwt beam="1">  1       -2 0.26341323E-01 0.30601572E+03</pdfrwt>
<totfact> 0.13919809E+03</totfact>
</mgrwt>
</event>
<event>
 7    1  0.4230786E-006  0.1906730E+03  0.7546771E-02  0.1162995E+00
         -1   -1    0    0    0  501 -0.00000000000E+00  0.00000000000E+00  0.90783940549E+02  0.90783940549E+02  0.00000000000E+00 0.  1.
          1   -1    0    0  501    0  0.00000000000E+00 -0.00000000000E+00 -0.53541565561E+03  0.53541565561E+03  0.00000000000E+00 0. -1.
         23    2    1    2    0    0 -0.14372488132E+03  0.86137166099E+01 -0.50436862797E+02  0.19723097163E+03  0.12500056566E+03 0.  0.
          5    1    3    3  502    0 -0.13388941253E+03 -0.38574640684E+02 -0.51942147774E+02  0.14877652505E+03  0.47000000000E+01 0. -1.
         -5    1    3    3    0  502 -0.98354687983E+01  0.47188357294E+02  0.15052849771E+01  0.48454446581E+02  0.47000000000E+01 0. -1.
        -11    1    1    2    0    0  0.79811640943E+02  0.22472217013E+02 -0.29829053210E+03  0.30959996787E+03  0.00000000000E+00 0. -1.
         11    1    1    2    0    0  0.63913240381E+02 -0.31085933623E+02 -0.95904320163E+02  0.11936865665E+03  0.00000000000E+00 0.  1.
<mgrwt>
<rscale>  0 0.18505852E+03</rscale>
<asrwt>0</asrwt>
<pdfrwt beam="2">  1        1 0.82371639E-01 0.19067296E+03</pdfrwt>
<pdfrwt beam="1">  1       -1 0.13966760E-01 0.19067296E+03</pdfrwt>
<totfact> 0.14759369E+03</totfact>
</mgrwt>
</event>
<event>
 7    1  0.4230786E-006  0.1334085E+03  0.7546771E-02  0.1235279E+00
         -4   -1    0    0    0  501 -0.00000000000E+00  0.00000000000E+00  0.16158175811E+03  0.16158175811E+03  0.00000000000E+00 0.  1.
          4   -1    0    0  501    0  0.00000000000E+00 -0.00000000000E+00 -0.96443158234E+02  0.96443158234E+02  0.00000000000E+00 0. -1.
         23    2    1    2    0    0  0.45209103342E+02 -0.11373456202E+02 -0.56918362943E+01  0.13352982707E+03  0.12499839674E+03 0.  0.
          5    1    3    3  502    0  0.83921480477E+02 -0.14425200652E+02  0.18866321345E+02  0.87343742652E+02  0.47000000000E+01 0.  1.
         -5    1    3    3    0  502 -0.38712377135E+02  0.30517444491E+01 -0.24558157639E+02  0.46186084423E+02  0.47000000000E+01 0.  1.
        -11    1    1    2    0    0 -0.59953325001E+02 -0.85923410439E+01  0.77912811439E+02  0.98684526090E+02  0.00000000000E+00 0.  1.
         11    1    1    2    0    0  0.14744221659E+02  0.19965797246E+02 -0.70823752707E+01  0.25810563177E+02  0.00000000000E+00 0. -1.
<mgrwt>
<rscale>  0 0.12486578E+03</rscale>
<asrwt>0</asrwt>
<pdfrwt beam="2">  1        4 0.14837409E-01 0.13340846E+03</pdfrwt>
<pdfrwt beam="1">  1       -4 0.24858732E-01 0.13340846E+03</pdfrwt>
<totfact> 0.95718831E+02</totfact>
</mgrwt>
</event>
<event>
 7    1  0.4230786E-006  0.1290622E+03  0.7546771E-02  0.1242762E+00
          2   -1    0    0  501    0  0.00000000000E+00  0.00000000000E+00  0.36458540136E+03  0.36458540136E+03  0.00000000000E+00 0. -1.
         -2   -1    0    0    0  501 -0.00000000000E+00 -0.00000000000E+00 -0.45049113955E+02  0.45049113955E+02  0.00000000000E+00 0.  1.
         23    2    1    2    0    0  0.32088356752E+02  0.11954873032E+01  0.81729468723E+02  0.15276375499E+03  0.12500386775E+03 0.  0.
          5    1    3    3  502    0 -0.26023613884E+02  0.26608629554E+02  0.80881939751E+02  0.89158431033E+02  0.47000000000E+01 0. -1.
         -5    1    3    3    0  502  0.58111970636E+02 -0.25413142251E+02  0.84752897159E+00  0.63605323957E+02  0.47000000000E+01 0. -1.
        -11    1    1    2    0    0 -0.58181790529E+02 -0.22528227421E+02  0.13595918678E+03  0.14959125058E+03  0.00000000000E+00 0. -1.
         11    1    1    2    0    0  0.26093433777E+02  0.21332740118E+02  0.10184763191E+03  0.10727950975E+03  0.00000000000E+00 0.  1.
<mgrwt>
<rscale>  0 0.12020326E+03</rscale>
<asrwt>0</asrwt>
<pdfrwt beam="1">  1        2 0.56090060E-01 0.12906223E+03</pdfrwt>
<pdfrwt beam="2">  1       -2 0.69306332E-02 0.12906223E+03</pdfrwt>
<totfact> 0.98838241E+03</totfact>
</mgrwt>
</event>
<event>
 7    1  0.4230786E-006  0.1635609E+03  0.7546771E-02  0.1192130E+00
         -2   -1    0    0    0  501 -0.00000000000E+00  0.00000000000E+00  0.78232286318E+03  0.78232286318E+03  0.00000000000E+00 0.  1.
          2   -1    0    0  501    0  0.00000000000E+00 -0.00000000000E+00 -0.39079195313E+02  0.39079195313E+02  0.00000000000E+00 0. -1.
         23    2    1    2    0    0 -0.48737733932E+02 -0.93534599239E+02  0.60007600604E+03  0.62196734542E+03  0.12501231054E+03 0.  0.
          5    1    3    3  502    0  0.38053220973E+02 -0.32471935368E+02  0.28691708413E+03  0.29128332836E+03  0.47000000000E+01 0. -1.
         -5    1    3    3    0  502 -0.86790954905E+02 -0.61062663871E+02  0.31315892191E+03  0.33068401707E+03  0.47000000000E+01 0. -1.
        -11    1    1    2    0    0  0.69845039893E+02  0.89997510274E+02  0.13471169672E+03  0.17642313535E+03  0.00000000000E+00 0.  1.
         11    1    1    2    0    0 -0.21107305961E+02  0.35370889658E+01  0.84559651065E+01  0.23011577720E+02  0.00000000000E+00 0. -1.
<mgrwt>
<rscale>  0 0.15699657E+03</rscale>
<asrwt>0</asrwt>
<pdfrwt beam="2">  1        2 0.60121845E-02 0.16356089E+03</pdfrwt>
<pdfrwt beam="1">  1       -2 0.12035735E+00 0.16356089E+03</pdfrwt>
<totfact> 0.66845569E+02</totfact>
</mgrwt>
</event>
<event>
 7    1  0.4230786E-006  0.1802796E+03  0.7546771E-02  0.1173200E+00
          4   -1    0    0  501    0  0.00000000000E+00  0.00000000000E+00  0.18300673761E+03  0.18300673761E+03  0.00000000000E+00 0. -1.
         -4   -1    0    0    0  501 -0.00000000000E+00 -0.00000000000E+00 -0.33655000341E+03  0.33655000341E+03  0.00000000000E+00 0.  1.
         23    2    1    2    0    0 -0.11624331111E+03 -0.57982185027E+02 -0.26881761903E+03  0.32367212291E+03  0.12500515864E+03 0.  0.
          5    1    3    3  502    0 -0.58708453301E+02 -0.36804509737E+02 -0.24985241696E+03  0.25932522956E+03  0.47000000000E+01 0.  1.
         -5    1    3    3    0  502 -0.57534857806E+02 -0.21177675290E+02 -0.18965202071E+02  0.64346893344E+02  0.47000000000E+01 0.  1.
        -11    1    1    2    0    0  0.12812866896E+03  0.46476221133E+02  0.82899800919E+02  0.15952859284E+03  0.00000000000E+00 0.  1.
         11    1    1    2    0    0 -0.11885357856E+02  0.11505963894E+02  0.32374552317E+02  0.36356025281E+02  0.00000000000E+00 0. -1.
<mgrwt>
<rscale>  0 0.17453459E+03</rscale>
<asrwt>0</asrwt>
<pdfrwt beam="1">  1        4 0.28154883E-01 0.18027959E+03</pdfrwt>
<pdfrwt beam="2">  1       -4 0.51776923E-01 0.18027959E+03</pdfrwt>
<totfact> 0.75842827E+01</totfact>
</mgrwt>
</event>
<event>
 7    1  0.4230786E-006  0.1718420E+03  0.7546771E-02  0.1182223E+00
          2   -1    0    0  501    0  0.00000000000E+00  0.00000000000E+00  0.96223613541E+03  0.96223613541E+03  0.00000000000E+00 0. -1.
         -2   -1    0    0    0  501 -0.00000000000E+00 -0.00000000000E+00 -0.31566705421E+02  0.31566705421E+02  0.00000000000E+00 0.  1.
         23    2    1    2    0    0 -0.67892375243E+02 -0.96409601988E+02  0.30000093746E+03  0.34573147137E+03  0.12500200738E+03 0.  0.
          5    1    3    3  502    0  0.26130759066E+01 -0.27713470230E+02  0.21118793284E+03  0.21306641587E+03  0.47000000000E+01 0. -1.
         -5    1    3    3    0  502 -0.70505451150E+02 -0.68696131758E+02  0.88813004622E+02  0.13266505550E+03  0.47000000000E+01 0. -1.
        -11    1    1    2    0    0  0.70795494559E+02  0.23640250557E+02  0.36805790138E+03  0.37554957365E+03  0.00000000000E+00 0.  1.
         11    1    1    2    0    0 -0.29031193154E+01  0.72769351431E+02  0.26261059115E+03  0.27252179581E+03  0.00000000000E+00 0. -1.
<mgrwt>
<rscale>  0 0.16587177E+03</rscale>
<asrwt>0</asrwt>
<pdfrwt beam="1">  1        2 0.14803631E+00 0.17184204E+03</pdfrwt>
<pdfrwt beam="2">  1       -2 0.48564169E-02 0.17184204E+03</pdfrwt>
<totfact> 0.55754196E+03</totfact>
</mgrwt>
</event>
<event>
 7    1  0.4230786E-006  0.1306568E+03  0.7546771E-02  0.1241415E+00
         -2   -1    0    0    0  501 -0.00000000000E+00  0.00000000000E+00  0.33638758423E+02  0.33638758423E+02  0.00000000000E+00 0.  1.
          2   -1    0    0  501    0  0.00000000000E+00 -0.00000000000E+00 -0.43730392524E+03  0.43730392524E+03  0.00000000000E+00 0. -1.
         23    2    1    2    0    0  0.33935371486E+02  0.17002967569E+02 -0.14608619258E+03  0.19599074163E+03  0.12502193727E+03 0.  0.
          5    1    3    3  502    0 -0.30184897273E+02  0.35191086916E+02 -0.15166231142E+02  0.49006583116E+02  0.47000000000E+01 0.  1.
         -5    1    3    3    0  502  0.64120268759E+02 -0.18188119348E+02 -0.13091996144E+03  0.14698415852E+03  0.47000000000E+01 0.  1.
        -11    1    1    2    0    0  0.22081434401E+02  0.18109633193E+02 -0.10167892341E+03  0.10561321899E+03  0.00000000000E+00 0.  1.
         11    1    1    2    0    0 -0.56016805887E+02 -0.35112600761E+02 -0.15590005082E+03  0.16933872304E+03  0.00000000000E+00 0. -1.
<mgrwt>
<rscale>  0 0.12102534E+03</rscale>
<asrwt>0</asrwt>
<pdfrwt beam="2">  1        2 0.67277530E-01 0.13065678E+03</pdfrwt>
<pdfrwt beam="1">  1       -2 0.51751934E-02 0.13065678E+03</pdfrwt>
<totfact> 0.12680279E+04</totfact>
</mgrwt>
</event>
<event>
 7    1  0.4230786E-006  0.1332798E+03  0.7546771E-02  0.1238365E+00
          1   -1    0    0  501    0  0.00000000000E+00  0.00000000000E+00  0.65281069382E+03  0.65281069382E+03  0.00000000000E+00 0. -1.
         -1   -1    0    0    0  501 -0.00000000000E+00 -0.00000000000E+00 -0.20311375832E+02  0.20311375832E+02  0.00000000000E+00 0.  1.
         23    2    1    2    0    0 -0.20970609584E+02  0.41245597319E+02  0.34258037718E+03  0.36759329296E+03  0.12499019336E+03 0.  0.
          5    1    3    3  502    0  0.48733215210E+02  0.56719328601E+01  0.84024118798E+02  0.97412728259E+02  0.47000000000E+01 0. -1.
         -5    1    3    3    0  502 -0.69703824794E+02  0.35573664459E+02  0.25855625839E+03  0.27018056471E+03  0.47000000000E+01 0. -1.
        -11    1    1    2    0    0  0.21711372192E+02 -0.66747551143E+02  0.22800834871E+03  0.23856744612E+03  0.00000000000E+00 0.  1.
         11    1    1    2    0    0 -0.74076260749E+00  0.25501953824E+02  0.61910592094E+02  0.66961330568E+02  0.00000000000E+00 0. -1.
<mgrwt>
<rscale>  0 0.12291463E+03</rscale>
<asrwt>0</asrwt>
<pdfrwt beam="1">  1        1 0.10043240E+00 0.13327983E+03</pdfrwt>
<pdfrwt beam="2">  1       -1 0.31248276E-02 0.13327983E+03</pdfrwt>
<totfact> 0.10577346E+04</totfact>
</mgrwt>
</event>
<event>
 7    1  0.4230786E-006  0.1305828E+03  0.7546771E-02  0.1240858E+00
         -1   -1    0    0    0  501 -0.00000000000E+00  0.00000000000E+00  0.35036575288E+03  0.35036575288E+03  0.00000000000E+00 0.  1.
          1   -1    0    0  501    0  0.00000000000E+00 -0.00000000000E+00 -0.47513213993E+02  0.47513213993E+02  0.00000000000E+00 0. -1.
         23    2    1    2    0    0 -0.24288042392E+02  0.28928645867E+02  0.26096780077E+03  0.29181510533E+03  0.12500034841E+03 0.  0.
          5    1    3    3  502    0 -0.97135876539E+01  0.15895809367E+02  0.26934636400E+03  0.27003071000E+03  0.47000000000E+01 0. -1.
         -5    1    3    3    0  502 -0.14574454738E+02  0.13032836500E+02 -0.83785632282E+01  0.21784395330E+02  0.47000000000E+01 0. -1.
        -11    1    1    2    0    0  0.16527925280E+02 -0.46888523046E+02  0.61011817360E+02  0.78702908237E+02  0.00000000000E+00 0.  1.
         11    1    1    2    0    0  0.77601171116E+01  0.17959877179E+02 -0.19127079241E+02  0.27360953313E+02  0.00000000000E+00 0. -1.
<mgrwt>
<rscale>  0 0.12136753E+03</rscale>
<asrwt>0</asrwt>
<pdfrwt beam="2">  1        1 0.73097255E-02 0.13058278E+03</pdfrwt>
<pdfrwt beam="1">  1       -1 0.53902422E-01 0.13058278E+03</pdfrwt>
<totfact> 0.33689506E+03</totfact>
</mgrwt>
</event>
<event>
 7    1  0.4230786E-006  0.1942859E+03  0.7546771E-02  0.1158680E+00
         -2   -1    0    0    0  501 -0.00000000000E+00  0.00000000000E+00  0.30402465072E+02  0.30402465072E+02  0.00000000000E+00 0.  1.
          2   -1    0    0  501    0  0.00000000000E+00 -0.00000000000E+00 -0.12025766350E+04  0.12025766350E+04  0.00000000000E+00 0. -1.
         23    2    1    2    0    0  0.26845254254E+02 -0.14628729438E+03 -0.46324444964E+03  0.50233698116E+03  0.12500552928E+03 0.  0.
          5    1    3    3  502    0  0.68189014132E+01 -0.15607796083E+03 -0.44910256210E+03  0.47552290014E+03  0.47000000000E+01 0.  1.
         -5    1    3    3    0  502  0.20026352841E+02  0.97906664552E+01 -0.14141887531E+02  0.26814081015E+02  0.47000000000E+01 0.  1.
        -11    1    1    2    0    0 -0.56009243105E+02  0.82515530233E+02 -0.51142723221E+03  0.52106013270E+03  0.00000000000E+00 0. -1.
         11    1    1    2    0    0  0.29163988851E+02  0.63771764142E+02 -0.19750248813E+03  0.20958198626E+03  0.00000000000E+00 0.  1.
<mgrwt>
<rscale>  0 0.18975737E+03</rscale>
<asrwt>0</asrwt>
<pdfrwt beam="2">  1        2 0.18501181E+00 0.19428593E+03</pdfrwt>
<pdfrwt beam="1">  1       -2 0.46773019E-02 0.19428593E+03</pdfrwt>
<totfact> 0.42834475E+03</totfact>
</mgrwt>
</event>
<event>
 7    1  0.4230786E-006  0.1855380E+03  0.7546771E-02  0.1168473E+00
         -1   -1    0    0    0  501 -0.00000000000E+00  0.00000000000E+00  0.73600855340E+02  0.73600855340E+02  0.00000000000E+00 0.  1.
          1   -1    0    0  501    0  0.00000000000E+00 -0.00000000000E+00 -0.43569221249E+03  0.43569221249E+03  0.00000000000E+00 0. -1.
         23    2    1    2    0    0 -0.12721354273E+03  0.51149258179E+02 -0.13084683069E+03  0.22703580761E+03  0.12499933108E+03 0.  0.
          5    1    3    3  502    0 -0.17501470173E+02  0.52090577255E+01  0.24758997206E+02  0.31121273805E+02  0.47000000000E+01 0.  1.
         -5    1    3    3    0  502 -0.10971207255E+03  0.45940200454E+02 -0.15560582789E+03  0.19591453380E+03  0.47000000000E+01 0.  1.
        -11    1    1    2    0    0  0.50935523376E+02 -0.29219035047E+02 -0.17604759690E+03  0.18558269296E+03  0.00000000000E+00 0. -1.
         11    1    1    2    0    0  0.76278019350E+02 -0.21930223132E+02 -0.55196929564E+02  0.96674567265E+02  0.00000000000E+00 0.  1.
<mgrwt>
<rscale>  0 0.17930909E+03</rscale>
<asrwt>0</asrwt>
<pdfrwt beam="2">  1        1 0.67029571E-01 0.18553804E+03</pdfrwt>
<pdfrwt beam="1">  1       -1 0.11323209E-01 0.18553804E+03</pdfrwt>
<totfact> 0.26813069E+03</totfact>
</mgrwt>
</event>
<event>
 7    1  0.4230786E-006  0.1230825E+03  0.7546771E-02  0.1249504E+00
          3   -1    0    0  501    0  0.00000000000E+00  0.00000000000E+00  0.34743797861E+02  0.34743797861E+02  0.00000000000E+00 0. -1.
         -3   -1    0    0    0  501 -0.00000000000E+00 -0.00000000000E+00 -0.36914909582E+03  0.36914909582E+03  0.00000000000E+00 0.  1.
         23    2    1    2    0    0 -0.27714222421E+02  0.34346247654E+01 -0.22995348995E+03  0.26082161099E+03  0.11987255920E+03 0.  0.
          5    1    3    3  502    0  0.41537227815E+02 -0.21632261122E+02 -0.11450448859E+03  0.12380090437E+03  0.47000000000E+01 0. -1.
         -5    1    3    3    0  502 -0.69251450236E+02  0.25066885887E+02 -0.11544900137E+03  0.13702070663E+03  0.47000000000E+01 0.  1.
        -11    1    1    2    0    0  0.35546475462E+02  0.38489862072E+02 -0.40586819188E+02  0.66274514649E+02  0.00000000000E+00 0.  1.
         11    1    1    2    0    0 -0.78322530414E+01 -0.41924486837E+02 -0.63864988817E+02  0.76796768036E+02  0.00000000000E+00 0. -1.
<mgrwt>
<rscale>  0 0.11619837E+03</rscale>
<asrwt>0</asrwt>
<pdfrwt beam="1">  1        3 0.53452000E-02 0.12308251E+03</pdfrwt>
<pdfrwt beam="2">  1       -3 0.56792165E-01 0.12308251E+03</pdfrwt>
<totfact> 0.14290503E+03</totfact>
</mgrwt>
</event>
<event>
 7    1  0.4230786E-006  0.1456315E+03  0.7546771E-02  0.1214685E+00
         -1   -1    0    0    0  501 -0.00000000000E+00  0.00000000000E+00  0.44160226419E+03  0.44160226419E+03  0.00000000000E+00 0.  1.
          1   -1    0    0  501    0  0.00000000000E+00 -0.00000000000E+00 -0.42728555906E+02  0.42728555906E+02  0.00000000000E+00 0. -1.
         23    2    1    2    0    0 -0.36712548433E+02  0.65079426580E+02  0.27553328794E+03  0.31165223627E+03  0.12500152252E+03 0.  0.
          5    1    3    3  502    0 -0.75190200822E+02  0.70367252245E+02  0.16669439322E+03  0.19599547754E+03  0.47000000000E+01 0.  1.
         -5    1    3    3    0  502  0.38477652389E+02 -0.52878256646E+01  0.10883889473E+03  0.11565675873E+03  0.47000000000E+01 0.  1.
        -11    1    1    2    0    0  0.58484306873E+02 -0.51440262588E+02  0.12461726945E+03  0.14695570289E+03  0.00000000000E+00 0.  1.
         11    1    1    2    0    0 -0.21771758440E+02 -0.13639163992E+02 -0.12768491131E+01  0.25722880936E+02  0.00000000000E+00 0. -1.
<mgrwt>
<rscale>  0 0.13899662E+03</rscale>
<asrwt>0</asrwt>
<pdfrwt beam="2">  1        1 0.65736243E-02 0.14563147E+03</pdfrwt>
<pdfrwt beam="1">  1       -1 0.67938807E-01 0.14563147E+03</pdfrwt>
<totfact> 0.25165752E+03</totfact>
</mgrwt>
</event>
<event>
 7    1  0.4230786E-006  0.1347322E+03  0.7546771E-02  0.1232432E+00
         -1   -1    0    0    0  501 -0.00000000000E+00  0.00000000000E+00  0.21166755406E+02  0.21166755406E+02  0.00000000000E+00 0.  1.
          1   -1    0    0  501    0  0.00000000000E+00 -0.00000000000E+00 -0.71953928189E+03  0.71953928189E+03  0.00000000000E+00 0. -1.
         23    2    1    2    0    0  0.83240467486E+01 -0.49595004381E+02 -0.30438465487E+03  0.33287053150E+03  0.12499527354E+03 0.  0.
          5    1    3    3  502    0 -0.29623028489E+02 -0.13398023194E+01 -0.92993014154E+01  0.31430652140E+02  0.47000000000E+01 0. -1.
         -5    1    3    3    0  502  0.37947075238E+02 -0.48255202062E+02 -0.29508535345E+03  0.30143987936E+03  0.47000000000E+01 0. -1.
        -11    1    1    2    0    0 -0.21708432671E+00  0.75102638480E+02 -0.33069845515E+03  0.33911933249E+03  0.00000000000E+00 0. -1.
         11    1    1    2    0    0 -0.81069624219E+01 -0.25507634098E+02 -0.63289416472E+02  0.68716173310E+02  0.00000000000E+00 0.  1.
<mgrwt>
<rscale>  0 0.12670256E+03</rscale>
<asrwt>0</asrwt>
<pdfrwt beam="2">  1        1 0.11069832E+00 0.13473223E+03</pdfrwt>
<pdfrwt beam="1">  1       -1 0.32564247E-02 0.13473223E+03</pdfrwt>
<totfact> 0.86815142E+03</totfact>
</mgrwt>
</event>
<event>
 6    1  0.4230786E-006  0.2522011E+03  0.7546771E-02  0.1184928E+00
         -2   -1    0    0    0  501 -0.00000000000E+00  0.00000000000E+00  0.42847601134E+03  0.42847601134E+03  0.00000000000E+00 0.  1.
          2   -1    0    0  501    0  0.00000000000E+00 -0.00000000000E+00 -0.52335853569E+02  0.52335853569E+02  0.00000000000E+00 0. -1.
          5    1    1    2  502    0  0.11270266291E+03 -0.60443300478E+02  0.12603748029E+03  0.17961853812E+03  0.47000000000E+01 0. -1.
         -5    1    1    2    0  502 -0.11367663532E+03  0.24989248099E+02  0.21518343697E+03  0.24468927538E+03  0.47000000000E+01 0.  1.
        -11    1    1    2    0    0 -0.11446410083E+02  0.23555397312E+02  0.26842674111E+02  0.37502082605E+02  0.00000000000E+00 0. -1.
         11    1    1    2    0    0  0.12420382498E+02  0.11898655068E+02  0.80765664052E+01  0.19001968811E+02  0.00000000000E+00 0.  1.
<mgrwt>
<rscale>  0 0.16338452E+03</rscale>
<asrwt>0</asrwt>
<pdfrwt beam="2">  1        2 0.80516700E-02 0.25220112E+03</pdfrwt>
<pdfrwt beam="1">  1       -2 0.65919384E-01 0.25220112E+03</pdfrwt>
<totfact> 0.18192088E+03</totfact>
</mgrwt>
</event>
<event>
 7    1  0.4230786E-006  0.1326556E+03  0.7546771E-02  0.1236835E+00
          2   -1    0    0  501    0  0.00000000000E+00  0.00000000000E+00  0.57857047546E+03  0.57857047546E+03  0.00000000000E+00 0. -1.
         -2   -1    0    0    0  501 -0.00000000000E+00 -0.00000000000E+00 -0.23565730169E+02  0.23565730169E+02  0.00000000000E+00 0.  1.
         23    2    1    2    0    0 -0.44111018097E+02 -0.52454620089E+01  0.31653400585E+03  0.34320734214E+03  0.12499682414E+03 0.  0.
          5    1    3    3  502    0 -0.37160412087E+02 -0.71478772771E+01  0.32725045301E+03  0.32946462234E+03  0.47000000000E+01 0.  1.
         -5    1    3    3    0  502 -0.69506060098E+01  0.19024152683E+01 -0.10716447159E+02  0.13742719799E+02  0.47000000000E+01 0.  1.
        -11    1    1    2    0    0  0.65005235031E+01  0.43710314794E+02  0.77591189913E+02  0.89293007438E+02  0.00000000000E+00 0.  1.
         11    1    1    2    0    0  0.37610494594E+02 -0.38464852785E+02  0.16087954952E+03  0.16963585605E+03  0.00000000000E+00 0. -1.
<mgrwt>
<rscale>  0 0.12387696E+03</rscale>
<asrwt>0</asrwt>
<pdfrwt beam="1">  1        2 0.89010832E-01 0.13265558E+03</pdfrwt>
<pdfrwt beam="2">  1       -2 0.36254974E-02 0.13265558E+03</pdfrwt>
<totfact> 0.15862749E+04</totfact>
</mgrwt>
</event>
<event>
 7    1  0.4230786E-006  0.1405439E+03  0.7546771E-02  0.1223534E+00
          2   -1    0    0  501    0  0.00000000000E+00  0.00000000000E+00  0.38197576948E+03  0.38197576948E+03  0.00000000000E+00 0. -1.
         -2   -1    0    0    0  501 -0.00000000000E+00 -0.00000000000E+00 -0.47026209754E+02  0.47026209754E+02  0.00000000000E+00 0.  1.
         23    2    1    2    0    0  0.62637987576E+02 -0.14335689777E+02  0.11216360061E+03  0.17981455635E+03  0.12499428741E+03 0.  0.
          5    1    3    3  502    0 -0.21155482517E+02 -0.42513074722E+02  0.19183776208E+02  0.51429789349E+02  0.47000000000E+01 0. -1.
         -5    1    3    3    0  502  0.83793470094E+02  0.28177384945E+02  0.92979824401E+02  0.12838476700E+03  0.47000000000E+01 0. -1.
        -11    1    1    2    0    0 -0.11481778059E+02  0.28752864188E+02  0.17499158383E+03  0.17770934932E+03  0.00000000000E+00 0. -1.
         11    1    1    2    0    0 -0.51156209517E+02 -0.14417174412E+02  0.47794375286E+02  0.71478073555E+02  0.00000000000E+00 0.  1.
<mgrwt>
<rscale>  0 0.13267903E+03</rscale>
<asrwt>0</asrwt>
<pdfrwt beam="1">  1        2 0.58765501E-01 0.14054395E+03</pdfrwt>
<pdfrwt beam="2">  1       -2 0.72348018E-02 0.14054395E+03</pdfrwt>
<totfact> 0.88600451E+03</totfact>
</mgrwt>
</event>
<event>
 7    1  0.4230786E-006  0.1391307E+03  0.7546771E-02  0.1224713E+00
          2   -1    0    0  501    0  0.00000000000E+00  0.00000000000E+00  0.67234976016E+02  0.67234976016E+02  0.00000000000E+00 0. -1.
         -2   -1    0    0    0  501 -0.00000000000E+00 -0.00000000000E+00 -0.23591813032E+03  0.23591813032E+03  0.00000000000E+00 0.  1.
         23    2    1    2    0    0  0.71464950019E+01 -0.60785699308E+02 -0.83941336063E+02  0.16249149793E+03  0.12494544956E+03 0.  0.
          5    1    3    3  502    0 -0.10605260275E+02 -0.10183425576E+02 -0.10392918471E+03  0.10506921117E+03  0.47000000000E+01 0. -1.
         -5    1    3    3    0  502  0.17751755277E+02 -0.50602273732E+02  0.19987848648E+02  0.57422286752E+02  0.47000000000E+01 0. -1.
        -11    1    1    2    0    0 -0.28577369934E+02  0.76441162569E+02 -0.78844732011E+02  0.11347426657E+03  0.00000000000E+00 0.  1.
         11    1    1    2    0    0  0.21430874932E+02 -0.15655463261E+02 -0.58970862261E+01  0.27187341838E+02  0.00000000000E+00 0. -1.
<mgrwt>
<rscale>  0 0.13186601E+03</rscale>
<asrwt>0</asrwt>
<pdfrwt beam="1">  1        2 0.10343842E-01 0.13913065E+03</pdfrwt>
<pdfrwt beam="2">  1       -2 0.36295097E-01 0.13913065E+03</pdfrwt>
<totfact> 0.42106269E+03</totfact>
</mgrwt>
</event>
<event>
 7    1  0.4230786E-006  0.2113686E+03  0.7546771E-02  0.1144177E+00
         -1   -1    0    0    0  501 -0.00000000000E+00  0.00000000000E+00  0.10120981074E+03  0.10120981074E+03  0.00000000000E+00 0.  1.
          1   -1    0    0  501    0  0.00000000000E+00 -0.00000000000E+00 -0.40690087555E+03  0.40690087555E+03  0.00000000000E+00 0. -1.
         23    2    1    2    0    0 -0.14313587591E+03 -0.92543623801E+02 -0.17791169738E+03  0.27627753450E+03  0.12499801089E+03 0.  0.
          5    1    3    3  502    0 -0.36314083790E+02 -0.96119506609E+02 -0.10379629495E+03  0.14612813924E+03  0.47000000000E+01 0.  1.
         -5    1    3    3    0  502 -0.10682179212E+03  0.35758828078E+01 -0.74115402433E+02  0.13014939526E+03  0.47000000000E+01 0.  1.
        -11    1    1    2    0    0  0.59202374201E+01  0.43455580285E+02 -0.50476915795E+02  0.66868196455E+02  0.00000000000E+00 0. -1.
         11    1    1    2    0    0  0.13721563849E+03  0.49088043516E+02 -0.77302451632E+02  0.16496495534E+03  0.00000000000E+00 0.  1.
<mgrwt>
<rscale>  0 0.20673643E+03</rscale>
<asrwt>0</asrwt>
<pdfrwt beam="2">  1        1 0.62600134E-01 0.21136864E+03</pdfrwt>
<pdfrwt beam="1">  1       -1 0.15570740E-01 0.21136864E+03</pdfrwt>
<totfact> 0.17825056E+03</totfact>
</mgrwt>
</event>
<event>
 7    1  0.4230786E-006  0.1359500E+03  0.7546771E-02  0.1230802E+00
          2   -1    0    0  501    0  0.00000000000E+00  0.00000000000E+00  0.17091700300E+03  0.17091700300E+03  0.00000000000E+00 0. -1.
         -2   -1    0    0    0  501 -0.00000000000E+00 -0.00000000000E+00 -0.12373265772E+03  0.12373265772E+03  0.00000000000E+00 0.  1.
         23    2    1    2    0    0 -0.19303735626E+00  0.53454291458E+02 -0.55664907223E+02  0.14690469617E+03  0.12500003729E+03 0.  0.
          5    1    3    3  502    0  0.23139833908E+02  0.50063477763E+02  0.26446607459E+02  0.61345878143E+02  0.47000000000E+01 0.  1.
         -5    1    3    3    0  502 -0.23332871264E+02  0.33908136950E+01 -0.82111514682E+02  0.85558818028E+02  0.47000000000E+01 0.  1.
        -11    1    1    2    0    0  0.10276492828E+02  0.18038400383E+02  0.60677556632E+02  0.64130773207E+02  0.00000000000E+00 0. -1.
         11    1    1    2    0    0 -0.10083455471E+02 -0.71492691841E+02  0.42171695877E+02  0.83614191344E+02  0.00000000000E+00 0.  1.
<mgrwt>
<rscale>  0 0.12777075E+03</rscale>
<asrwt>0</asrwt>
<pdfrwt beam="1">  1        2 0.26294923E-01 0.13595002E+03</pdfrwt>
<pdfrwt beam="2">  1       -2 0.19035794E-01 0.13595002E+03</pdfrwt>
<totfact> 0.44531555E+03</totfact>
</mgrwt>
</event>
<event>
 7    1  0.4230786E-006  0.1261751E+03  0.7546771E-02  0.1248508E+00
         -2   -1    0    0    0  501 -0.00000000000E+00  0.00000000000E+00  0.37705147940E+02  0.37705147940E+02  0.00000000000E+00 0. -1.
          2   -1    0    0  501    0  0.00000000000E+00 -0.00000000000E+00 -0.32135819183E+03  0.32135819183E+03  0.00000000000E+00 0.  1.
         23    2    1    2    0    0 -0.33786180230E+00  0.17193189380E+02 -0.14338760997E+03  0.19099777922E+03  0.12499770024E+03 0.  0.
          5    1    3    3  502    0  0.48992406412E+02  0.10843201417E+02 -0.12977531198E+03  0.13921764437E+03  0.47000000000E+01 0. -1.
         -5    1    3    3    0  502 -0.49330268214E+02  0.63499879627E+01 -0.13612297981E+02  0.51780134854E+02  0.47000000000E+01 0. -1.
        -11    1    1    2    0    0  0.88480640893E+01 -0.53111318531E+02 -0.99037800036E+02  0.11272793012E+03  0.00000000000E+00 0.  1.
         11    1    1    2    0    0 -0.85102022870E+01  0.35918129152E+02 -0.41227633891E+02  0.55337630424E+02  0.00000000000E+00 0. -1.
<mgrwt>
<rscale>  0 0.11677856E+03</rscale>
<asrwt>0</asrwt>
<pdfrwt beam="2">  1        2 0.49439723E-01 0.12617506E+03</pdfrwt>
<pdfrwt beam="1">  1       -2 0.58007919E-02 0.12617506E+03</pdfrwt>
<totfact> 0.14777204E+04</totfact>
</mgrwt>
</event>
<event>
 7    1  0.4230786E-006  0.1393411E+03  0.7546771E-02  0.1226193E+00
         -1   -1    0    0    0  501 -0.00000000000E+00  0.00000000000E+00  0.12574885126E+03  0.12574885126E+03  0.00000000000E+00 0.  1.
          1   -1    0    0  501    0  0.00000000000E+00 -0.00000000000E+00 -0.15972555070E+03  0.15972555070E+03  0.00000000000E+00 0. -1.
         23    2    1    2    0    0  0.38850903855E+02  0.47752218491E+02  0.50349155208E+02  0.14815866987E+03  0.12500514759E+03 0.  0.
          5    1    3    3  502    0 -0.73458137425E+01  0.80700274768E+02  0.19825940723E+02  0.83556287931E+02  0.47000000000E+01 0.  1.
         -5    1    3    3    0  502  0.46196717597E+02 -0.32948056277E+02  0.30523214485E+02  0.64602381935E+02  0.47000000000E+01 0.  1.
        -11    1    1    2    0    0  0.10787718566E+02 -0.28080442303E+02  0.75832872458E+01  0.31022449246E+02  0.00000000000E+00 0.  1.
         11    1    1    2    0    0 -0.49638622421E+02 -0.19671776188E+02 -0.91909141891E+02  0.10629328284E+03  0.00000000000E+00 0. -1.
<mgrwt>
<rscale>  0 0.13085492E+03</rscale>
<asrwt>0</asrwt>
<pdfrwt beam="2">  1        1 0.24573162E-01 0.13934114E+03</pdfrwt>
<pdfrwt beam="1">  1       -1 0.19345977E-01 0.13934114E+03</pdfrwt>
<totfact> 0.40054205E+03</totfact>
</mgrwt>
</event>
<event>
 7    1  0.4230786E-006  0.1403935E+03  0.7546771E-02  0.1224145E+00
         -4   -1    0    0    0  501 -0.00000000000E+00  0.00000000000E+00  0.46730473561E+02  0.46730473561E+02  0.00000000000E+00 0.  1.
          4   -1    0    0  501    0  0.00000000000E+00 -0.00000000000E+00 -0.35777444375E+03  0.35777444375E+03  0.00000000000E+00 0. -1.
         23    2    1    2    0    0  0.16333137990E+02  0.61793233153E+02 -0.12445119225E+03  0.18761247754E+03  0.12500066966E+03 0.  0.
          5    1    3    3  502    0 -0.12526149114E+02  0.77600377810E+02 -0.24790961551E+02  0.82555465128E+02  0.47000000000E+01 0.  1.
         -5    1    3    3    0  502  0.28859287104E+02 -0.15807144657E+02 -0.99660230694E+02  0.10505701241E+03  0.47000000000E+01 0.  1.
        -11    1    1    2    0    0  0.43918133686E+01 -0.80217154760E+02 -0.11650718875E+03  0.14152033413E+03  0.00000000000E+00 0.  1.
         11    1    1    2    0    0 -0.20724951359E+02  0.18423921607E+02 -0.70085589198E+02  0.75372105645E+02  0.00000000000E+00 0. -1.
<mgrwt>
<rscale>  0 0.13225695E+03</rscale>
<asrwt>0</asrwt>
<pdfrwt beam="2">  1        4 0.55042225E-01 0.14039353E+03</pdfrwt>
<pdfrwt beam="1">  1       -4 0.71893033E-02 0.14039353E+03</pdfrwt>
<totfact> 0.69916440E+02</totfact>
</mgrwt>
</event>
<event>
 7    1  0.4230786E-006  0.1312935E+03  0.7546771E-02  0.1239175E+00
         -2   -1    0    0    0  501 -0.00000000000E+00  0.00000000000E+00  0.42769119262E+02  0.42769119262E+02  0.00000000000E+00 0.  1.
          2   -1    0    0  501    0  0.00000000000E+00 -0.00000000000E+00 -0.32657318314E+03  0.32657318314E+03  0.00000000000E+00 0. -1.
         23    2    1    2    0    0  0.39459563753E+02 -0.81402707458E+01 -0.20121255180E+03  0.24025918030E+03  0.12495863931E+03 0.  0.
          5    1    3    3  502    0 -0.98953022575E+01  0.28342919109E+02 -0.57527051589E+00  0.30391758859E+02  0.47000000000E+01 0.  1.
         -5    1    3    3    0  502  0.49354866010E+02 -0.36483189855E+02 -0.20063728129E+03  0.20986742144E+03  0.47000000000E+01 0.  1.
        -11    1    1    2    0    0  0.11708100241E+02  0.34460610307E+02 -0.53234139215E+02  0.64486330738E+02  0.00000000000E+00 0. -1.
         11    1    1    2    0    0 -0.51167663994E+02 -0.26320339562E+02 -0.29357372862E+02  0.64596791364E+02  0.00000000000E+00 0.  1.
<mgrwt>
<rscale>  0 0.12240886E+03</rscale>
<asrwt>0</asrwt>
<pdfrwt beam="2">  1        2 0.50242028E-01 0.13129350E+03</pdfrwt>
<pdfrwt beam="1">  1       -2 0.65798645E-02 0.13129350E+03</pdfrwt>
<totfact> 0.12040031E+04</totfact>
</mgrwt>
</event>
<event>
 7    1  0.4230786E-006  0.1533255E+03  0.7546771E-02  0.1205905E+00
         -1   -1    0    0    0  501 -0.00000000000E+00  0.00000000000E+00  0.10758208404E+04  0.10758208404E+04  0.00000000000E+00 0.  1.
          1   -1    0    0  501    0  0.00000000000E+00 -0.00000000000E+00 -0.18601229468E+02  0.18601229468E+02  0.00000000000E+00 0. -1.
         23    2    1    2    0    0 -0.88042763025E+02  0.11519084218E+02  0.67965121554E+03  0.69673127872E+03  0.12499793016E+03 0.  0.
          5    1    3    3  502    0 -0.13338048631E+01  0.14288778857E+02  0.46387759183E+03  0.46412332245E+03  0.47000000000E+01 0. -1.
         -5    1    3    3    0  502 -0.86708958162E+02 -0.27696946398E+01  0.21577362370E+03  0.23260795627E+03  0.47000000000E+01 0. -1.
        -11    1    1    2    0    0  0.53958416778E+02  0.25165335074E+02  0.29638660070E+03  0.30230749561E+03  0.00000000000E+00 0.  1.
         11    1    1    2    0    0  0.34084346247E+02 -0.36684419291E+02  0.81181794728E+02  0.95383295566E+02  0.00000000000E+00 0. -1.
<mgrwt>
<rscale>  0 0.14566377E+03</rscale>
<asrwt>0</asrwt>
<pdfrwt beam="2">  1        1 0.28617284E-02 0.15332547E+03</pdfrwt>
<pdfrwt beam="1">  1       -1 0.16551085E+00 0.15332547E+03</pdfrwt>
<totfact> 0.10401611E+03</totfact>
</mgrwt>
</event>
<event>
 7    1  0.4230786E-006  0.1470450E+03  0.7546771E-02  0.1213679E+00
          1   -1    0    0  501    0  0.00000000000E+00  0.00000000000E+00  0.62040251375E+03  0.62040251375E+03  0.00000000000E+00 0. -1.
         -1   -1    0    0    0  501 -0.00000000000E+00 -0.00000000000E+00 -0.30048378093E+02  0.30048378093E+02  0.00000000000E+00 0.  1.
         23    2    1    2    0    0  0.47551937861E+01  0.77295500725E+02  0.39182004792E+03  0.41850349492E+03  0.12500007602E+03 0.  0.
          5    1    3    3  502    0 -0.33526982922E+02  0.38802564310E+02  0.48017201746E+02  0.70409084957E+02  0.47000000000E+01 0. -1.
         -5    1    3    3    0  502  0.38282176708E+02  0.38492936415E+02  0.34380284618E+03  0.34809440996E+03  0.47000000000E+01 0. -1.
        -11    1    1    2    0    0  0.23758612652E+02 -0.84273883666E+02  0.16883510554E+03  0.19018899023E+03  0.00000000000E+00 0.  1.
         11    1    1    2    0    0 -0.28513806438E+02  0.69783829409E+01  0.29698982192E+02  0.41758406690E+02  0.00000000000E+00 0. -1.
<mgrwt>
<rscale>  0 0.13974037E+03</rscale>
<asrwt>0</asrwt>
<pdfrwt beam="1">  1        1 0.95446531E-01 0.14704498E+03</pdfrwt>
<pdfrwt beam="2">  1       -1 0.46228278E-02 0.14704498E+03</pdfrwt>
<totfact> 0.64275784E+03</totfact>
</mgrwt>
</event>
<event>
 7    1  0.4230786E-006  0.1432366E+03  0.7546771E-02  0.1219530E+00
         -2   -1    0    0    0  501 -0.00000000000E+00  0.00000000000E+00  0.59785573424E+02  0.59785573424E+02  0.00000000000E+00 0.  1.
          2   -1    0    0  501    0  0.00000000000E+00 -0.00000000000E+00 -0.30761936198E+03  0.30761936198E+03  0.00000000000E+00 0. -1.
         23    2    1    2    0    0  0.63080822680E+02 -0.30210274382E+02 -0.79783621476E+02  0.16395774684E+03  0.12499946250E+03 0.  0.
          5    1    3    3  502    0 -0.13110801275E+02  0.37572891660E+02 -0.13700875557E+02  0.42348781432E+02  0.47000000000E+01 0. -1.
         -5    1    3    3    0  502  0.76191623955E+02 -0.67783166041E+02 -0.66082745919E+02  0.12160896541E+03  0.47000000000E+01 0. -1.
        -11    1    1    2    0    0 -0.71154524152E+02  0.45065407482E+02 -0.16634700242E+03  0.18645423694E+03  0.00000000000E+00 0.  1.
         11    1    1    2    0    0  0.80737014717E+01 -0.14855133100E+02 -0.17031646550E+01  0.16992951619E+02  0.00000000000E+00 0. -1.
<mgrwt>
<rscale>  0 0.13548953E+03</rscale>
<asrwt>0</asrwt>
<pdfrwt beam="2">  1        2 0.47326054E-01 0.14323658E+03</pdfrwt>
<pdfrwt beam="1">  1       -2 0.91977808E-02 0.14323658E+03</pdfrwt>
<totfact> 0.77012113E+03</totfact>
</mgrwt>
</event>
<event>
 7    1  0.4230786E-006  0.1282721E+03  0.7546771E-02  0.1242089E+00
         -2   -1    0    0    0  501 -0.00000000000E+00  0.00000000000E+00  0.30546496585E+02  0.30546496585E+02  0.00000000000E+00 0. -1.
          2   -1    0    0  501    0  0.00000000000E+00 -0.00000000000E+00 -0.43745756399E+03  0.43745756399E+03  0.00000000000E+00 0.  1.
         23    2    1    2    0    0  0.26748966278E+02 -0.10675684423E+02 -0.26288578183E+03  0.29251095220E+03  0.12499698169E+03 0.  0.
          5    1    3    3  502    0  0.38091184854E+02  0.76069181982E+01 -0.12379252339E+02  0.41038268196E+02  0.47000000000E+01 0.  1.
         -5    1    3    3    0  502 -0.11342218576E+02 -0.18282602622E+02 -0.25050652949E+03  0.25147268400E+03  0.47000000000E+01 0.  1.
        -11    1    1    2    0    0 -0.40241298034E+02 -0.30542208466E+02 -0.46091583984E+02  0.68385836835E+02  0.00000000000E+00 0. -1.
         11    1    1    2    0    0  0.13492331756E+02  0.41217892889E+02 -0.97933701594E+02  0.10710727155E+03  0.00000000000E+00 0.  1.
<mgrwt>
<rscale>  0 0.12061307E+03</rscale>
<asrwt>0</asrwt>
<pdfrwt beam="2">  1        2 0.67301165E-01 0.12827207E+03</pdfrwt>
<pdfrwt beam="1">  1       -2 0.46994609E-02 0.12827207E+03</pdfrwt>
<totfact> 0.14624438E+04</totfact>
</mgrwt>
</event>
<event>
 7    1  0.4230786E-006  0.1793904E+03  0.7546771E-02  0.1175419E+00
         -1   -1    0    0    0  501 -0.00000000000E+00  0.00000000000E+00  0.26438826716E+02  0.26438826716E+02  0.00000000000E+00 0.  1.
          1   -1    0    0  501    0  0.00000000000E+00 -0.00000000000E+00 -0.10490908628E+04  0.10490908628E+04  0.00000000000E+00 0. -1.
         23    2    1    2    0    0  0.31725829222E+02  0.12468650643E+03 -0.59029240862E+03  0.61694898903E+03  0.12501069659E+03 0.  0.
          5    1    3    3  502    0  0.75319087835E+02  0.10922064589E+03 -0.42625233403E+03  0.44644737287E+03  0.47000000000E+01 0. -1.
         -5    1    3    3    0  502 -0.43593258613E+02  0.15465860539E+02 -0.16404007459E+03  0.17050161616E+03  0.47000000000E+01 0. -1.
        -11    1    1    2    0    0 -0.11908710283E+02 -0.13125840439E+03 -0.36548362521E+03  0.38852138474E+03  0.00000000000E+00 0.  1.
         11    1    1    2    0    0 -0.19817118939E+02  0.65718979533E+01 -0.66876002258E+02  0.70059315753E+02  0.00000000000E+00 0. -1.
<mgrwt>
<rscale>  0 0.17235022E+03</rscale>
<asrwt>0</asrwt>
<pdfrwt beam="2">  1        1 0.16139860E+00 0.17939043E+03</pdfrwt>
<pdfrwt beam="1">  1       -1 0.40675117E-02 0.17939043E+03</pdfrwt>
<totfact> 0.34920324E+03</totfact>
</mgrwt>
</event>
<event>
 7    1  0.4230786E-006  0.1552556E+03  0.7546771E-02  0.1201808E+00
         -2   -1    0    0    0  501 -0.00000000000E+00  0.00000000000E+00  0.40583695700E+02  0.40583695700E+02  0.00000000000E+00 0.  1.
          2   -1    0    0  501    0  0.00000000000E+00 -0.00000000000E+00 -0.51021751884E+03  0.51021751884E+03  0.00000000000E+00 0. -1.
         23    2    1    2    0    0  0.57489953866E+02 -0.71919813371E+02 -0.27837955610E+03  0.31874673728E+03  0.12500700349E+03 0.  0.
          5    1    3    3  502    0  0.81651303506E+02 -0.30473899702E+01 -0.13753578800E+03  0.16004500908E+03  0.47000000000E+01 0.  1.
         -5    1    3    3    0  502 -0.24161349641E+02 -0.68872423401E+02 -0.14084376810E+03  0.15870172820E+03  0.47000000000E+01 0.  1.
        -11    1    1    2    0    0  0.87509732153E+01  0.24379557207E+02 -0.12307197807E+03  0.12576825564E+03  0.00000000000E+00 0. -1.
         11    1    1    2    0    0 -0.66240927081E+02  0.47540256164E+02 -0.68182288976E+02  0.10628622162E+03  0.00000000000E+00 0.  1.
<mgrwt>
<rscale>  0 0.14891911E+03</rscale>
<asrwt>0</asrwt>
<pdfrwt beam="2">  1        2 0.78495000E-01 0.15525561E+03</pdfrwt>
<pdfrwt beam="1">  1       -2 0.62436457E-02 0.15525561E+03</pdfrwt>
<totfact> 0.81628697E+03</totfact>
</mgrwt>
</event>
<event>
 7    1  0.4230786E-006  0.1396071E+03  0.7546771E-02  0.1224671E+00
         -2   -1    0    0    0  501 -0.00000000000E+00  0.00000000000E+00  0.23648994833E+03  0.23648994833E+03  0.00000000000E+00 0.  1.
          2   -1    0    0  501    0  0.00000000000E+00 -0.00000000000E+00 -0.66511046777E+02  0.66511046777E+02  0.00000000000E+00 0. -1.
         23    2    1    2    0    0  0.47085910190E+02 -0.40598833857E+02  0.95425895169E+02  0.16910423374E+03  0.12499916860E+03 0.  0.
          5    1    3    3  502    0  0.40081658776E+02 -0.72091620680E+01 -0.22144482680E+02  0.46593771055E+02  0.47000000000E+01 0.  1.
         -5    1    3    3    0  502  0.70042514140E+01 -0.33389671789E+02  0.11757037785E+03  0.12251046269E+03  0.47000000000E+01 0.  1.
        -11    1    1    2    0    0  0.57769387918E+01  0.24234015804E+02 -0.14666110985E+02  0.28909433672E+02  0.00000000000E+00 0. -1.
         11    1    1    2    0    0 -0.52862848982E+02  0.16364818052E+02  0.89219117373E+02  0.10498732770E+03  0.00000000000E+00 0.  1.
<mgrwt>
<rscale>  0 0.13189480E+03</rscale>
<asrwt>0</asrwt>
<pdfrwt beam="2">  1        2 0.10232469E-01 0.13960709E+03</pdfrwt>
<pdfrwt beam="1">  1       -2 0.36383069E-01 0.13960709E+03</pdfrwt>
<totfact> 0.42485634E+03</totfact>
</mgrwt>
</event>
<event>
 6    1  0.4230786E-006  0.4389182E+03  0.7546771E-02  0.1061364E+00
         -2   -1    0    0    0  501 -0.00000000000E+00  0.00000000000E+00  0.18090238729E+03  0.18090238729E+03  0.00000000000E+00 0.  1.
          2   -1    0    0  501    0  0.00000000000E+00 -0.00000000000E+00 -0.59465152758E+03  0.59465152758E+03  0.00000000000E+00 0. -1.
          5    1    1    2  502    0  0.35119314139E+02  0.26146116854E+03 -0.20631190886E+03  0.33493581865E+03  0.47000000000E+01 0. -1.
         -5    1    1    2    0  502 -0.95173487501E+02 -0.90476179954E+02  0.35398700732E+02  0.13608486277E+03  0.47000000000E+01 0.  1.
        -11    1    1    2    0    0  0.60130782419E+02 -0.13556574753E+03 -0.19326222898E+03  0.24360638753E+03  0.00000000000E+00 0.  1.
         11    1    1    2    0    0 -0.76609056508E-01 -0.35419241057E+02 -0.49573703190E+02  0.60926845922E+02  0.00000000000E+00 0. -1.
<mgrwt>
<rscale>  0 0.35306607E+03</rscale>
<asrwt>0</asrwt>
<pdfrwt beam="2">  1        2 0.91484851E-01 0.43891817E+03</pdfrwt>
<pdfrwt beam="1">  1       -2 0.27831136E-01 0.43891817E+03</pdfrwt>
<totfact> 0.59756107E+02</totfact>
</mgrwt>
</event>
<event>
 7    1  0.4230786E-006  0.1352350E+03  0.7546771E-02  0.1231252E+00
          2   -1    0    0  501    0  0.00000000000E+00  0.00000000000E+00  0.68413032195E+03  0.68413032195E+03  0.00000000000E+00 0.  1.
         -2   -1    0    0    0  501 -0.00000000000E+00 -0.00000000000E+00 -0.22612483854E+02  0.22612483854E+02  0.00000000000E+00 0. -1.
         23    2    1    2    0    0  0.33238704147E+02 -0.39484188615E+02  0.28632548864E+03  0.31665562248E+03  0.12499874080E+03 0.  0.
          5    1    3    3  502    0  0.80333077572E+02 -0.14802568444E+02  0.16964804487E+03  0.18834826390E+03  0.47000000000E+01 0.  1.
         -5    1    3    3    0  502 -0.47094373425E+02 -0.24681620171E+02  0.11667744376E+03  0.12830735858E+03  0.47000000000E+01 0.  1.
        -11    1    1    2    0    0 -0.39765461311E+02  0.52736666990E+02  0.36758343856E+03  0.37347025619E+03  0.00000000000E+00 0.  1.
         11    1    1    2    0    0  0.65267571641E+01 -0.13252478375E+02  0.76089108978E+01  0.16616927129E+02  0.00000000000E+00 0. -1.
<mgrwt>
<rscale>  0 0.12747462E+03</rscale>
<asrwt>0</asrwt>
<pdfrwt beam="1">  1        2 0.10525080E+00 0.13523497E+03</pdfrwt>
<pdfrwt beam="2">  1       -2 0.34788442E-02 0.13523497E+03</pdfrwt>
<totfact> 0.13921783E+04</totfact>
</mgrwt>
</event>
<event>
 7    1  0.4230786E-006  0.1467915E+03  0.7546771E-02  0.1213451E+00
          1   -1    0    0  501    0  0.00000000000E+00  0.00000000000E+00  0.23747699997E+03  0.23747699997E+03  0.00000000000E+00 0. -1.
         -1   -1    0    0    0  501 -0.00000000000E+00 -0.00000000000E+00 -0.87171365291E+02  0.87171365291E+02  0.00000000000E+00 0.  1.
         23    2    1    2    0    0 -0.68118034295E+02  0.44595731662E+02  0.22414191180E+02  0.14849288189E+03  0.12214292500E+03 0.  0.
          5    1    3    3  502    0  0.32118400015E+02  0.82592642501E+01  0.24907907665E+02  0.41740878401E+02  0.47000000000E+01 0. -1.
         -5    1    3    3    0  502 -0.10023643431E+03  0.36336467412E+02 -0.24937164845E+01  0.10675200349E+03  0.47000000000E+01 0.  1.
        -11    1    1    2    0    0  0.72082674225E+02 -0.49353188696E+01  0.11192230995E+03  0.13321738911E+03  0.00000000000E+00 0. -1.
         11    1    1    2    0    0 -0.39646399304E+01 -0.39660412792E+02  0.15969133546E+02  0.42938094262E+02  0.00000000000E+00 0.  1.
<mgrwt>
<rscale>  0 0.13990917E+03</rscale>
<asrwt>0</asrwt>
<pdfrwt beam="1">  1        1 0.36534923E-01 0.14679148E+03</pdfrwt>
<pdfrwt beam="2">  1       -1 0.13410979E-01 0.14679148E+03</pdfrwt>
<totfact> 0.43677608E+03</totfact>
</mgrwt>
</event>
<event>
 7    1  0.4230786E-006  0.2076676E+03  0.7546771E-02  0.1147149E+00
          2   -1    0    0  501    0  0.00000000000E+00  0.00000000000E+00  0.52617319772E+03  0.52617319772E+03  0.00000000000E+00 0. -1.
         -2   -1    0    0    0  501 -0.00000000000E+00 -0.00000000000E+00 -0.12545323298E+03  0.12545323298E+03  0.00000000000E+00 0.  1.
         23    2    1    2    0    0 -0.13619156507E+03 -0.94618747148E+02 -0.53008852014E+00  0.20766831797E+03  0.12499999834E+03 0.  0.
          5    1    3    3  502    0 -0.24062315269E+02 -0.91523295933E+02  0.79184375355E+01  0.95080494149E+02  0.47000000000E+01 0.  1.
         -5    1    3    3    0  502 -0.11212924981E+03 -0.30954512153E+01 -0.84485260557E+01  0.11258782382E+03  0.47000000000E+01 0.  1.
        -11    1    1    2    0    0  0.12486091413E+03  0.64026368678E+02  0.22842797876E+03  0.26808387726E+03  0.00000000000E+00 0.  1.
         11    1    1    2    0    0  0.11330650941E+02  0.30592378471E+02  0.17282207450E+03  0.17587423548E+03  0.00000000000E+00 0. -1.
<mgrwt>
<rscale>  0 0.20310042E+03</rscale>
<asrwt>0</asrwt>
<pdfrwt beam="1">  1        2 0.80949721E-01 0.20766764E+03</pdfrwt>
<pdfrwt beam="2">  1       -2 0.19300498E-01 0.20766764E+03</pdfrwt>
<totfact> 0.13094643E+03</totfact>
</mgrwt>
</event>
<event>
 7    1  0.4230786E-006  0.1275849E+03  0.7546771E-02  0.1240112E+00
         -2   -1    0    0    0  501 -0.00000000000E+00  0.00000000000E+00  0.40658219972E+03  0.40658219972E+03  0.00000000000E+00 0.  1.
          2   -1    0    0  501    0  0.00000000000E+00 -0.00000000000E+00 -0.34023963544E+02  0.34023963544E+02  0.00000000000E+00 0. -1.
         23    2    1    2    0    0  0.72410359247E+01 -0.24319015388E+02  0.17782558022E+03  0.21886031478E+03  0.12503620795E+03 0.  0.
          5    1    3    3  502    0 -0.45989661738E+02 -0.36472357815E+02  0.14108928980E+03  0.15288413773E+03  0.47000000000E+01 0. -1.
         -5    1    3    3    0  502  0.53230697663E+02  0.12153342427E+02  0.36736290413E+02  0.65976177058E+02  0.47000000000E+01 0. -1.
        -11    1    1    2    0    0  0.45185940690E+02  0.24223034931E+02  0.11964116836E+03  0.13016348883E+03  0.00000000000E+00 0.  1.
         11    1    1    2    0    0 -0.52426976615E+02  0.95980456254E-01  0.75091487595E+02  0.91582359646E+02  0.00000000000E+00 0. -1.
<mgrwt>
<rscale>  0 0.12182754E+03</rscale>
<asrwt>0</asrwt>
<pdfrwt beam="2">  1        2 0.52344562E-02 0.12758488E+03</pdfrwt>
<pdfrwt beam="1">  1       -2 0.62551104E-01 0.12758488E+03</pdfrwt>
<totfact> 0.34053059E+03</totfact>
</mgrwt>
</event>
<event>
 6    1  0.4230786E-006  0.1792977E+03  0.7546771E-02  0.1195087E+00
         -1   -1    0    0    0  501 -0.00000000000E+00  0.00000000000E+00  0.42223516123E+02  0.42223516123E+02  0.00000000000E+00 0.  1.
          1   -1    0    0  501    0  0.00000000000E+00 -0.00000000000E+00 -0.53839341682E+03  0.53839341682E+03  0.00000000000E+00 0. -1.
          5    1    1    2  502    0  0.39681340132E+02  0.61446132345E+02 -0.21762234754E+03  0.22963408301E+03  0.47000000000E+01 0. -1.
         -5    1    1    2    0  502 -0.12337333033E+02 -0.33493502616E+02  0.16674475100E+02  0.39675592292E+02  0.47000000000E+01 0.  1.
        -11    1    1    2    0    0  0.30395822422E+02 -0.13328369810E+02 -0.16216935905E+03  0.16553082033E+03  0.00000000000E+00 0.  1.
         11    1    1    2    0    0 -0.57739829522E+02 -0.14624259919E+02 -0.13305266921E+03  0.14577643731E+03  0.00000000000E+00 0. -1.
<mgrwt>
<rscale>  0 0.15446883E+03</rscale>
<asrwt>0</asrwt>
<pdfrwt beam="2">  1        1 0.82829761E-01 0.17929767E+03</pdfrwt>
<pdfrwt beam="1">  1       -1 0.64959252E-02 0.17929767E+03</pdfrwt>
<totfact> 0.47368781E+03</totfact>
</mgrwt>
</event>
<event>
 7    1  0.4230786E-006  0.1147568E+03  0.7546771E-02  0.1260134E+00
          2   -1    0    0  501    0  0.00000000000E+00  0.00000000000E+00  0.97791732119E+02  0.97791732119E+02  0.00000000000E+00 0. -1.
         -2   -1    0    0    0  501 -0.00000000000E+00 -0.00000000000E+00 -0.11540759403E+03  0.11540759403E+03  0.00000000000E+00 0.  1.
         23    2    1    2    0    0  0.31358585973E+02  0.51077458109E+01 -0.94429976942E+01  0.11514461439E+03  0.11027085760E+03 0.  0.
          5    1    3    3  502    0  0.25572304331E+01  0.51204177797E+02  0.17396692761E+02  0.54342820780E+02  0.47000000000E+01 0.  1.
         -5    1    3    3    0  502  0.28801355540E+02 -0.46096431986E+02 -0.26839690455E+02  0.60801793612E+02  0.47000000000E+01 0. -1.
        -11    1    1    2    0    0 -0.24413614682E+02  0.31123657175E+02  0.26350379487E+02  0.47529455256E+02  0.00000000000E+00 0. -1.
         11    1    1    2    0    0 -0.69449712906E+01 -0.36231402986E+02 -0.34523243702E+02  0.50525256499E+02  0.00000000000E+00 0.  1.
<mgrwt>
<rscale>  0 0.11023572E+03</rscale>
<asrwt>0</asrwt>
<pdfrwt beam="1">  1        2 0.15044882E-01 0.11475675E+03</pdfrwt>
<pdfrwt beam="2">  1       -2 0.17755014E-01 0.11475675E+03</pdfrwt>
<totfact> 0.92841664E+03</totfact>
</mgrwt>
</event>
<event>
 7    1  0.4230786E-006  0.1481393E+03  0.7546771E-02  0.1214239E+00
         -1   -1    0    0    0  501 -0.00000000000E+00  0.00000000000E+00  0.46849619188E+02  0.46849619188E+02  0.00000000000E+00 0.  1.
          1   -1    0    0  501    0  0.00000000000E+00 -0.00000000000E+00 -0.37936302024E+03  0.37936302024E+03  0.00000000000E+00 0. -1.
         23    2    1    2    0    0  0.32996124344E+02 -0.72329958229E+02 -0.15678509597E+03  0.21570073203E+03  0.12499948960E+03 0.  0.
          5    1    3    3  502    0  0.49748740959E+02 -0.96720226578E+02 -0.85670091996E+02  0.13853228547E+03  0.47000000000E+01 0.  1.
         -5    1    3    3    0  502 -0.16752616615E+02  0.24390268349E+02 -0.71115003975E+02  0.77168446557E+02  0.47000000000E+01 0.  1.
        -11    1    1    2    0    0 -0.54276162363E+02  0.21876829708E+02 -0.11294349882E+03  0.12720350390E+03  0.00000000000E+00 0. -1.
         11    1    1    2    0    0  0.21280038018E+02  0.50453128522E+02 -0.62784806258E+02  0.83308403493E+02  0.00000000000E+00 0.  1.
<mgrwt>
<rscale>  0 0.13932583E+03</rscale>
<asrwt>0</asrwt>
<pdfrwt beam="2">  1        1 0.58363543E-01 0.14813926E+03</pdfrwt>
<pdfrwt beam="1">  1       -1 0.72076336E-02 0.14813926E+03</pdfrwt>
<totfact> 0.63055952E+03</totfact>
</mgrwt>
</event>
<event>
 7    1  0.4230786E-006  0.1366526E+03  0.7546771E-02  0.1231047E+00
         -1   -1    0    0    0  501 -0.00000000000E+00  0.00000000000E+00  0.20875104032E+02  0.20875104032E+02  0.00000000000E+00 0.  1.
          1   -1    0    0  501    0  0.00000000000E+00 -0.00000000000E+00 -0.69318577689E+03  0.69318577689E+03  0.00000000000E+00 0. -1.
         23    2    1    2    0    0 -0.48294672174E+02 -0.26770268092E+02 -0.38629895010E+03  0.40975701594E+03  0.12499964260E+03 0.  0.
          5    1    3    3  502    0  0.23640144924E+02 -0.22617170711E+02 -0.27569466763E+03  0.27766892628E+03  0.47000000000E+01 0.  1.
         -5    1    3    3    0  502 -0.71934817099E+02 -0.41530973804E+01 -0.11060428247E+03  0.13208808966E+03  0.47000000000E+01 0.  1.
        -11    1    1    2    0    0  0.66650543536E+02  0.76712340204E+01 -0.13243503843E+03  0.14845936208E+03  0.00000000000E+00 0.  1.
         11    1    1    2    0    0 -0.18355871362E+02  0.19099034071E+02 -0.15357668432E+03  0.15584450290E+03  0.00000000000E+00 0. -1.
<mgrwt>
<rscale>  0 0.12760921E+03</rscale>
<asrwt>0</asrwt>
<pdfrwt beam="2">  1        1 0.10664396E+00 0.13665260E+03</pdfrwt>
<pdfrwt beam="1">  1       -1 0.32115547E-02 0.13665260E+03</pdfrwt>
<totfact> 0.93540041E+03</totfact>
</mgrwt>
</event>
<event>
 7    1  0.4230786E-006  0.2856466E+03  0.7546771E-02  0.1094408E+00
         -2   -1    0    0    0  501 -0.00000000000E+00  0.00000000000E+00  0.42870905954E+03  0.42870905954E+03  0.00000000000E+00 0. -1.
          2   -1    0    0  501    0  0.00000000000E+00 -0.00000000000E+00 -0.18746313736E+03  0.18746313736E+03  0.00000000000E+00 0.  1.
         23    2    1    2    0    0 -0.19049620226E+03 -0.17229451803E+03  0.17683154660E+03  0.33595147757E+03  0.12497917981E+03 0.  0.
          5    1    3    3  502    0 -0.80160344014E+02 -0.15302674625E+03  0.11886820514E+03  0.20974891183E+03  0.47000000000E+01 0.  1.
         -5    1    3    3    0  502 -0.11033585825E+03 -0.19267771777E+02  0.57963341457E+02  0.12620256573E+03  0.47000000000E+01 0.  1.
        -11    1    1    2    0    0  0.83378031824E+02  0.10828312375E+03 -0.62644999949E+01  0.13680780329E+03  0.00000000000E+00 0. -1.
         11    1    1    2    0    0  0.10711817044E+03  0.64011394281E+02  0.70678875574E+02  0.14341291605E+03  0.00000000000E+00 0.  1.
<mgrwt>
<rscale>  0 0.28235780E+03</rscale>
<asrwt>0</asrwt>
<pdfrwt beam="2">  1        2 0.28840483E-01 0.28564663E+03</pdfrwt>
<pdfrwt beam="1">  1       -2 0.65955240E-01 0.28564663E+03</pdfrwt>
<totfact> 0.39855740E+02</totfact>
</mgrwt>
</event>
<event>
 7    1  0.4230786E-006  0.1482078E+03  0.7546771E-02  0.1212415E+00
          2   -1    0    0  501    0  0.00000000000E+00  0.00000000000E+00  0.43484406208E+03  0.43484406208E+03  0.00000000000E+00 0. -1.
         -2   -1    0    0    0  501 -0.00000000000E+00 -0.00000000000E+00 -0.41730051024E+02  0.41730051024E+02  0.00000000000E+00 0.  1.
         23    2    1    2    0    0  0.63466438471E+02 -0.48106234940E+02  0.19761243766E+03  0.24701464754E+03  0.12499344753E+03 0.  0.
          5    1    3    3  502    0  0.11763894366E+02  0.39622186911E+02  0.87944313181E+02  0.97286171305E+02  0.47000000000E+01 0. -1.
         -5    1    3    3    0  502  0.51702544105E+02 -0.87728421852E+02  0.10966812448E+03  0.14972847623E+03  0.47000000000E+01 0. -1.
        -11    1    1    2    0    0 -0.56737485495E+02  0.74067713574E+02  0.15716343371E+03  0.18277175205E+03  0.00000000000E+00 0.  1.
         11    1    1    2    0    0 -0.67289529761E+01 -0.25961478634E+02  0.38338139682E+02  0.46787713508E+02  0.00000000000E+00 0. -1.
<mgrwt>
<rscale>  0 0.14068150E+03</rscale>
<asrwt>0</asrwt>
<pdfrwt beam="1">  1        2 0.66899084E-01 0.14820783E+03</pdfrwt>
<pdfrwt beam="2">  1       -2 0.64200081E-02 0.14820783E+03</pdfrwt>
<totfact> 0.92893966E+03</totfact>
</mgrwt>
</event>
<event>
 7    1  0.4230786E-006  0.1332185E+03  0.7546771E-02  0.1236049E+00
         -2   -1    0    0    0  501 -0.00000000000E+00  0.00000000000E+00  0.39841467374E+03  0.39841467374E+03  0.00000000000E+00 0.  1.
          2   -1    0    0  501    0  0.00000000000E+00 -0.00000000000E+00 -0.41453607888E+02  0.41453607888E+02  0.00000000000E+00 0. -1.
         23    2    1    2    0    0 -0.75489065162E+01 -0.45442338689E+02  0.28821770777E+03  0.31751634393E+03  0.12500075783E+03 0.  0.
          5    1    3    3  502    0 -0.52354475488E+02  0.71750913409E+01  0.65583262439E+02  0.84354770769E+02  0.47000000000E+01 0. -1.
         -5    1    3    3    0  502  0.44805568971E+02 -0.52617430029E+02  0.22263444533E+03  0.23316157316E+03  0.47000000000E+01 0. -1.
        -11    1    1    2    0    0 -0.15306699227E+02  0.65674544886E+02  0.60834139867E+02  0.90819785623E+02  0.00000000000E+00 0.  1.
         11    1    1    2    0    0  0.22855605743E+02 -0.20232206198E+02  0.79092182190E+01  0.31532152073E+02  0.00000000000E+00 0. -1.
<mgrwt>
<rscale>  0 0.12437528E+03</rscale>
<asrwt>0</asrwt>
<pdfrwt beam="2">  1        2 0.63774784E-02 0.13321855E+03</pdfrwt>
<pdfrwt beam="1">  1       -2 0.61294562E-01 0.13321855E+03</pdfrwt>
<totfact> 0.27607532E+03</totfact>
</mgrwt>
</event>
<event>
 7    1  0.4230786E-006  0.1379755E+03  0.7546771E-02  0.1229066E+00
          2   -1    0    0  501    0  0.00000000000E+00  0.00000000000E+00  0.20821158771E+03  0.20821158771E+03  0.00000000000E+00 0. -1.
         -2   -1    0    0    0  501 -0.00000000000E+00 -0.00000000000E+00 -0.72296011456E+02  0.72296011456E+02  0.00000000000E+00 0.  1.
         23    2    1    2    0    0 -0.16364033516E+02 -0.56081163945E+02  0.58240436185E+02  0.14976379588E+03  0.12499747040E+03 0.  0.
          5    1    3    3  502    0  0.46864916516E+02 -0.15726352989E+01  0.44903032843E+02  0.65093516884E+02  0.47000000000E+01 0. -1.
         -5    1    3    3    0  502 -0.63228950032E+02 -0.54508528646E+02  0.13337403342E+02  0.84670278996E+02  0.47000000000E+01 0. -1.
        -11    1    1    2    0    0  0.23237891454E+02  0.63390445940E+02  0.17511959063E+02  0.69749673447E+02  0.00000000000E+00 0.  1.
         11    1    1    2    0    0 -0.68738579383E+01 -0.73092819951E+01  0.60163181002E+02  0.60994129837E+02  0.00000000000E+00 0. -1.
<mgrwt>
<rscale>  0 0.12892094E+03</rscale>
<asrwt>0</asrwt>
<pdfrwt beam="1">  1        2 0.32032552E-01 0.13797553E+03</pdfrwt>
<pdfrwt beam="2">  1       -2 0.11122463E-01 0.13797553E+03</pdfrwt>
<totfact> 0.86374948E+03</totfact>
</mgrwt>
</event>
<event>
 7    1  0.4230786E-006  0.1378407E+03  0.7546771E-02  0.1227967E+00
          1   -1    0    0  501    0  0.00000000000E+00  0.00000000000E+00  0.17534306561E+03  0.17534306561E+03  0.00000000000E+00 0. -1.
         -1   -1    0    0    0  501 -0.00000000000E+00 -0.00000000000E+00 -0.10439442592E+03  0.10439442592E+03  0.00000000000E+00 0.  1.
         23    2    1    2    0    0  0.28253850165E+02  0.50788284247E+02 -0.19148334699E+02  0.13916440064E+03  0.12498936682E+03 0.  0.
          5    1    3    3  502    0 -0.91032594300E+00 -0.26926488956E+02  0.31575466238E+02  0.41772773058E+02  0.47000000000E+01 0.  1.
         -5    1    3    3    0  502  0.29164176108E+02  0.77714773203E+02 -0.50723800937E+02  0.97391627585E+02  0.47000000000E+01 0.  1.
        -11    1    1    2    0    0  0.27077159621E+02 -0.25555303434E+02  0.74614164385E+01  0.37972606469E+02  0.00000000000E+00 0.  1.
         11    1    1    2    0    0 -0.55331009786E+02 -0.25232980813E+02  0.82635557951E+02  0.10260048442E+03  0.00000000000E+00 0. -1.
<mgrwt>
<rscale>  0 0.12965607E+03</rscale>
<asrwt>0</asrwt>
<pdfrwt beam="1">  1        1 0.26975856E-01 0.13784075E+03</pdfrwt>
<pdfrwt beam="2">  1       -1 0.16060681E-01 0.13784075E+03</pdfrwt>
<totfact> 0.47858082E+03</totfact>
</mgrwt>
</event>
<event>
 7    1  0.4230786E-006  0.1339484E+03  0.7546771E-02  0.1235003E+00
         -2   -1    0    0    0  501 -0.00000000000E+00  0.00000000000E+00  0.65304437775E+02  0.65304437775E+02  0.00000000000E+00 0.  1.
          2   -1    0    0  501    0  0.00000000000E+00 -0.00000000000E+00 -0.29935212015E+03  0.29935212015E+03  0.00000000000E+00 0. -1.
         23    2    1    2    0    0 -0.65846464638E+01 -0.47699242436E+02 -0.30903897394E+02  0.13746716075E+03  0.12499437632E+03 0.  0.
          5    1    3    3  502    0 -0.40515524480E+02 -0.23544933940E+02 -0.67173976125E+02  0.82038434325E+02  0.47000000000E+01 0. -1.
         -5    1    3    3    0  502  0.33930878017E+02 -0.24154308496E+02  0.36270078731E+02  0.55428726425E+02  0.47000000000E+01 0. -1.
        -11    1    1    2    0    0  0.39524073385E+02  0.52293182116E+02 -0.15849607904E+03  0.17151599443E+03  0.00000000000E+00 0.  1.
         11    1    1    2    0    0 -0.32939426921E+02 -0.45939396798E+01 -0.44647705936E+02  0.55673402744E+02  0.00000000000E+00 0. -1.
<mgrwt>
<rscale>  0 0.12504266E+03</rscale>
<asrwt>0</asrwt>
<pdfrwt beam="2">  1        2 0.46054172E-01 0.13394838E+03</pdfrwt>
<pdfrwt beam="1">  1       -2 0.10046837E-01 0.13394838E+03</pdfrwt>
<totfact> 0.68725144E+03</totfact>
</mgrwt>
</event>
<event>
 7    1  0.4230786E-006  0.1377667E+03  0.7546771E-02  0.1223693E+00
          1   -1    0    0  501    0  0.00000000000E+00  0.00000000000E+00  0.67772305225E+02  0.67772305225E+02  0.00000000000E+00 0. -1.
         -1   -1    0    0    0  501 -0.00000000000E+00 -0.00000000000E+00 -0.68524818898E+03  0.68524818898E+03  0.00000000000E+00 0.  1.
         23    2    1    2    0    0 -0.37848310753E+01  0.74587448648E+02 -0.61974831429E+03  0.63487608939E+03  0.11576728111E+03 0.  0.
          5    1    3    3  502    0  0.49807160933E+02  0.63409369551E+02 -0.31348249698E+03  0.32372035361E+03  0.47000000000E+01 0. -1.
         -5    1    3    3    0  502 -0.53591992008E+02  0.11178079097E+02 -0.30626581731E+03  0.31115573579E+03  0.47000000000E+01 0.  1.
        -11    1    1    2    0    0  0.39120406587E+02 -0.70189830498E+02  0.11962925981E+02  0.81241184844E+02  0.00000000000E+00 0. -1.
         11    1    1    2    0    0 -0.35335575512E+02 -0.43976181500E+01 -0.96904954505E+01  0.36903219971E+02  0.00000000000E+00 0.  1.
<mgrwt>
<rscale>  0 0.13256885E+03</rscale>
<asrwt>0</asrwt>
<pdfrwt beam="1">  1        1 0.10426508E-01 0.13776674E+03</pdfrwt>
<pdfrwt beam="2">  1       -1 0.10542280E+00 0.13776674E+03</pdfrwt>
<totfact> 0.54066890E+02</totfact>
</mgrwt>
</event>
<event>
 7    1  0.4230786E-006  0.1411654E+03  0.7546771E-02  0.1221887E+00
          1   -1    0    0  501    0  0.00000000000E+00  0.00000000000E+00  0.22135993016E+03  0.22135993016E+03  0.00000000000E+00 0. -1.
         -1   -1    0    0    0  501 -0.00000000000E+00 -0.00000000000E+00 -0.10799993632E+03  0.10799993632E+03  0.00000000000E+00 0.  1.
         23    2    1    2    0    0 -0.42447545700E+02 -0.52402007127E+02 -0.31871545740E+02  0.14471861015E+03  0.12401579016E+03 0.  0.
          5    1    3    3  502    0 -0.33418164020E+00 -0.79149022916E+02  0.93415980058E+01  0.79837553565E+02  0.47000000000E+01 0.  1.
         -5    1    3    3    0  502 -0.42113364060E+02  0.26747015789E+02 -0.41213143746E+02  0.64881056584E+02  0.47000000000E+01 0.  1.
        -11    1    1    2    0    0  0.17832249087E+02  0.53356163634E+02  0.24393915976E+02  0.61318287989E+02  0.00000000000E+00 0.  1.
         11    1    1    2    0    0  0.24615296614E+02 -0.95415650752E+00  0.12083762361E+03  0.12332296834E+03  0.00000000000E+00 0. -1.
<mgrwt>
<rscale>  0 0.13382585E+03</rscale>
<asrwt>0</asrwt>
<pdfrwt beam="1">  1        1 0.34055374E-01 0.14116544E+03</pdfrwt>
<pdfrwt beam="2">  1       -1 0.16615375E-01 0.14116544E+03</pdfrwt>
<totfact> 0.33982645E+03</totfact>
</mgrwt>
</event>
<event>
 7    1  0.4230786E-006  0.1319618E+03  0.7546771E-02  0.1238253E+00
         -2   -1    0    0    0  501 -0.00000000000E+00  0.00000000000E+00  0.17164950716E+02  0.17164950716E+02  0.00000000000E+00 0.  1.
          2   -1    0    0  501    0  0.00000000000E+00 -0.00000000000E+00 -0.80447555277E+03  0.80447555277E+03  0.00000000000E+00 0. -1.
         23    2    1    2    0    0 -0.36228301882E+02 -0.21801904404E+02 -0.37711227973E+03  0.39953422733E+03  0.12500445747E+03 0.  0.
          5    1    3    3  502    0 -0.39831606884E+02 -0.53328879524E+02 -0.97856314826E+02  0.11844186190E+03  0.47000000000E+01 0.  1.
         -5    1    3    3    0  502  0.36033050014E+01  0.31526975120E+02 -0.27925596491E+03  0.28109236543E+03  0.47000000000E+01 0.  1.
        -11    1    1    2    0    0  0.65467404373E+02  0.22558159828E+02 -0.25848525949E+03  0.26759947867E+03  0.00000000000E+00 0.  1.
         11    1    1    2    0    0 -0.29239102491E+02 -0.75625542431E+00 -0.15171306284E+03  0.15450679750E+03  0.00000000000E+00 0. -1.
<mgrwt>
<rscale>  0 0.12298473E+03</rscale>
<asrwt>0</asrwt>
<pdfrwt beam="2">  1        2 0.12376547E+00 0.13196184E+03</pdfrwt>
<pdfrwt beam="1">  1       -2 0.26407615E-02 0.13196184E+03</pdfrwt>
<totfact> 0.17127826E+04</totfact>
</mgrwt>
</event>
<event>
 7    1  0.4230786E-006  0.1330660E+03  0.7546771E-02  0.1235595E+00
         -1   -1    0    0    0  501 -0.00000000000E+00  0.00000000000E+00  0.87641625895E+02  0.87641625895E+02  0.00000000000E+00 0.  1.
          1   -1    0    0  501    0  0.00000000000E+00 -0.00000000000E+00 -0.18288567939E+03  0.18288567939E+03  0.00000000000E+00 0. -1.
         23    2    1    2    0    0 -0.42340917887E+02  0.17015607970E+02 -0.37407422562E+01  0.13311857920E+03  0.12499711490E+03 0.  0.
          5    1    3    3  502    0  0.17991033453E+02 -0.41046733821E+02 -0.17098019760E+02  0.48196928552E+02  0.47000000000E+01 0. -1.
         -5    1    3    3    0  502 -0.60331951340E+02  0.58062341791E+02  0.13357277504E+02  0.84921650649E+02  0.47000000000E+01 0. -1.
        -11    1    1    2    0    0  0.77509578653E+01  0.14967701499E+02  0.13970114099E+02  0.21892316550E+02  0.00000000000E+00 0.  1.
         11    1    1    2    0    0  0.34589960022E+02 -0.31983309469E+02 -0.10547342534E+03  0.11551640953E+03  0.00000000000E+00 0. -1.
<mgrwt>
<rscale>  0 0.12466425E+03</rscale>
<asrwt>0</asrwt>
<pdfrwt beam="2">  1        1 0.28136259E-01 0.13306601E+03</pdfrwt>
<pdfrwt beam="1">  1       -1 0.13483327E-01 0.13306601E+03</pdfrwt>
<totfact> 0.59574749E+03</totfact>
</mgrwt>
</event>
<event>
 7    1  0.4230786E-006  0.1256934E+03  0.7546771E-02  0.1244827E+00
         -2   -1    0    0    0  501 -0.00000000000E+00  0.00000000000E+00  0.32559146909E+02  0.32559146909E+02  0.00000000000E+00 0.  1.
          2   -1    0    0  501    0  0.00000000000E+00 -0.00000000000E+00 -0.42084029589E+03  0.42084029589E+03  0.00000000000E+00 0. -1.
         23    2    1    2    0    0  0.12091262354E+02 -0.52446071181E+01 -0.15718610248E+03  0.20126180408E+03  0.12500055376E+03 0.  0.
          5    1    3    3  502    0  0.54526164000E+02 -0.34238442322E+02 -0.12430488425E+03  0.14006843949E+03  0.47000000000E+01 0. -1.
         -5    1    3    3    0  502 -0.42434901647E+02  0.28993835203E+02 -0.32881218229E+02  0.61193364590E+02  0.47000000000E+01 0. -1.
        -11    1    1    2    0    0  0.39172892925E+02  0.18581991175E+02 -0.67907545667E+02  0.80568236264E+02  0.00000000000E+00 0.  1.
         11    1    1    2    0    0 -0.51264155279E+02 -0.13337384057E+02 -0.16318750084E+03  0.17156940246E+03  0.00000000000E+00 0. -1.
<mgrwt>
<rscale>  0 0.11895739E+03</rscale>
<asrwt>0</asrwt>
<pdfrwt beam="2">  1        2 0.64744656E-01 0.12569345E+03</pdfrwt>
<pdfrwt beam="1">  1       -2 0.50090999E-02 0.12569345E+03</pdfrwt>
<totfact> 0.13833262E+04</totfact>
</mgrwt>
</event>
<event>
 7    1  0.4230786E-006  0.1335877E+03  0.7546771E-02  0.1231326E+00
          2   -1    0    0  501    0  0.00000000000E+00  0.00000000000E+00  0.42179791714E+03  0.42179791714E+03  0.00000000000E+00 0. -1.
         -2   -1    0    0    0  501 -0.00000000000E+00 -0.00000000000E+00 -0.36922992679E+02  0.36922992679E+02  0.00000000000E+00 0.  1.
         23    2    1    2    0    0 -0.17249992854E+02 -0.43921454858E+02  0.16248265273E+03  0.21034799747E+03  0.12497604232E+03 0.  0.
          5    1    3    3  502    0 -0.45735443595E+02  0.28656315552E+02  0.52412446292E+02  0.75379504829E+02  0.47000000000E+01 0.  1.
         -5    1    3    3    0  502  0.28485450741E+02 -0.72577770410E+02  0.11007020644E+03  0.13496849265E+03  0.47000000000E+01 0.  1.
        -11    1    1    2    0    0  0.54285551248E+02  0.38346154758E+01  0.90022717113E+02  0.10519370203E+03  0.00000000000E+00 0.  1.
         11    1    1    2    0    0 -0.37035558394E+02  0.40086839382E+02  0.13236955462E+03  0.14317921032E+03  0.00000000000E+00 0. -1.
<mgrwt>
<rscale>  0 0.12742557E+03</rscale>
<asrwt>0</asrwt>
<pdfrwt beam="1">  1        2 0.64891984E-01 0.13358768E+03</pdfrwt>
<pdfrwt beam="2">  1       -2 0.56804607E-02 0.13358768E+03</pdfrwt>
<totfact> 0.11475343E+04</totfact>
</mgrwt>
</event>
<event>
 7    1  0.4230786E-006  0.1979215E+03  0.7546771E-02  0.1155609E+00
          2   -1    0    0  501    0  0.00000000000E+00  0.00000000000E+00  0.28359513021E+03  0.28359513021E+03  0.00000000000E+00 0. -1.
         -2   -1    0    0    0  501 -0.00000000000E+00 -0.00000000000E+00 -0.21157003404E+03  0.21157003404E+03  0.00000000000E+00 0.  1.
         23    2    1    2    0    0  0.15221951108E+03 -0.19274356620E+02 -0.12057699311E+03  0.23175790759E+03  0.12502254231E+03 0.  0.
          5    1    3    3  502    0  0.79527642139E+02 -0.21085156578E+02  0.92025949338E+01  0.82921694662E+02  0.47000000000E+01 0. -1.
         -5    1    3    3    0  502  0.72691868943E+02  0.18107999574E+01 -0.12977958804E+03  0.14883621293E+03  0.47000000000E+01 0. -1.
        -11    1    1    2    0    0 -0.38982220158E+02  0.33176646090E+02  0.11370565260E+03  0.12469674722E+03  0.00000000000E+00 0. -1.
         11    1    1    2    0    0 -0.11323729092E+03 -0.13902289470E+02  0.78896436668E+02  0.13871050943E+03  0.00000000000E+00 0.  1.
<mgrwt>
<rscale>  0 0.19319663E+03</rscale>
<asrwt>0</asrwt>
<pdfrwt beam="1">  1        2 0.43630020E-01 0.19792149E+03</pdfrwt>
<pdfrwt beam="2">  1       -2 0.32549236E-01 0.19792149E+03</pdfrwt>
<totfact> 0.10190858E+03</totfact>
</mgrwt>
</event>
<event>
 6    1  0.4230786E-006  0.2743898E+03  0.7546771E-02  0.1127687E+00
         -2   -1    0    0    0  501 -0.00000000000E+00  0.00000000000E+00  0.12039312018E+03  0.12039312018E+03  0.00000000000E+00 0.  1.
          2   -1    0    0  501    0  0.00000000000E+00 -0.00000000000E+00 -0.43749936443E+03  0.43749936443E+03  0.00000000000E+00 0. -1.
          5    1    1    2  502    0  0.99846604328E+02 -0.15544246638E+03 -0.64652493322E+02  0.19579003969E+03  0.47000000000E+01 0. -1.
         -5    1    1    2    0  502 -0.39629618281E+02  0.79070071578E+02 -0.14166883132E+02  0.89696005720E+02  0.47000000000E+01 0.  1.
        -11    1    1    2    0    0 -0.12820207900E+02 -0.19897614092E+02 -0.31122131670E+02  0.39100637550E+02  0.00000000000E+00 0. -1.
         11    1    1    2    0    0 -0.47396778147E+02  0.96270008894E+02 -0.20716473612E+03  0.23330580165E+03  0.00000000000E+00 0.  1.
<mgrwt>
<rscale>  0 0.22851857E+03</rscale>
<asrwt>0</asrwt>
<pdfrwt beam="2">  1        2 0.67307594E-01 0.27438985E+03</pdfrwt>
<pdfrwt beam="1">  1       -2 0.18522018E-01 0.27438985E+03</pdfrwt>
<totfact> 0.17322284E+03</totfact>
</mgrwt>
</event>
<event>
 7    1  0.4230786E-006  0.2292484E+03  0.7546771E-02  0.1130080E+00
         -1   -1    0    0    0  501 -0.00000000000E+00  0.00000000000E+00  0.16895887878E+04  0.16895887878E+04  0.00000000000E+00 0. -1.
          1   -1    0    0  501    0  0.00000000000E+00 -0.00000000000E+00 -0.37089471733E+02  0.37089471733E+02  0.00000000000E+00 0.  1.
         23    2    1    2    0    0  0.16378626349E+03  0.10051650892E+03  0.12525729288E+04  0.12733788864E+04  0.12500135048E+03 0.  0.
          5    1    3    3  502    0  0.84578856037E+02 -0.32390562801E+00  0.74655343312E+03  0.75134399998E+03  0.47000000000E+01 0. -1.
         -5    1    3    3    0  502  0.79207407454E+02  0.10084041454E+03  0.50601949567E+03  0.52203488638E+03  0.47000000000E+01 0. -1.
        -11    1    1    2    0    0 -0.76470870500E+02 -0.88278704288E+02  0.16319962849E+03  0.20068642805E+03  0.00000000000E+00 0.  1.
         11    1    1    2    0    0 -0.87315392991E+02 -0.12237804629E+02  0.23672675880E+03  0.25261294513E+03  0.00000000000E+00 0. -1.
<mgrwt>
<rscale>  0 0.22517904E+03</rscale>
<asrwt>0</asrwt>
<pdfrwt beam="2">  1        1 0.57060739E-02 0.22924844E+03</pdfrwt>
<pdfrwt beam="1">  1       -1 0.25993668E+00 0.22924844E+03</pdfrwt>
<totfact> 0.95776304E+01</totfact>
</mgrwt>
</event>
<event>
 7    1  0.4230786E-006  0.1832504E+03  0.7546771E-02  0.1170165E+00
         -1   -1    0    0    0  501 -0.00000000000E+00  0.00000000000E+00  0.40348951081E+02  0.40348951081E+02  0.00000000000E+00 0.  1.
          1   -1    0    0  501    0  0.00000000000E+00 -0.00000000000E+00 -0.73687826900E+03  0.73687826900E+03  0.00000000000E+00 0. -1.
         23    2    1    2    0    0  0.29484577197E+02  0.13071219518E+03 -0.36764083413E+03  0.41078033821E+03  0.12500274027E+03 0.  0.
          5    1    3    3  502    0 -0.42811907066E+02  0.13190797843E+02 -0.97703889828E+02  0.10758715826E+03  0.47000000000E+01 0. -1.
         -5    1    3    3    0  502  0.72296484263E+02  0.11752139734E+03 -0.26993694431E+03  0.30319317995E+03  0.47000000000E+01 0. -1.
        -11    1    1    2    0    0 -0.61121071857E+02 -0.99873235252E+02 -0.22801797475E+03  0.25632527256E+03  0.00000000000E+00 0. -1.
         11    1    1    2    0    0  0.31636494660E+02 -0.30838959927E+02 -0.10087050904E+03  0.11012160931E+03  0.00000000000E+00 0.  1.
<mgrwt>
<rscale>  0 0.17758094E+03</rscale>
<asrwt>0</asrwt>
<pdfrwt beam="2">  1        1 0.11336589E+00 0.18325038E+03</pdfrwt>
<pdfrwt beam="1">  1       -1 0.62075308E-02 0.18325038E+03</pdfrwt>
<totfact> 0.32724529E+03</totfact>
</mgrwt>
</event>
<event>
 7    1  0.4230786E-006  0.1348222E+03  0.7546771E-02  0.1233745E+00
          3   -1    0    0  501    0  0.00000000000E+00  0.00000000000E+00  0.29776630464E+02  0.29776630464E+02  0.00000000000E+00 0. -1.
         -3   -1    0    0    0  501 -0.00000000000E+00 -0.00000000000E+00 -0.50712038936E+03  0.50712038936E+03  0.00000000000E+00 0.  1.
         23    2    1    2    0    0  0.45890360846E+02  0.21091415368E+02 -0.33879813017E+03  0.36463845250E+03  0.12500501995E+03 0.  0.
          5    1    3    3  502    0 -0.14242259701E+02 -0.40418744482E+02 -0.68438694821E+02  0.80885485815E+02  0.47000000000E+01 0.  1.
         -5    1    3    3    0  502  0.60132620546E+02  0.61510159849E+02 -0.27035943535E+03  0.28375296668E+03  0.47000000000E+01 0.  1.
        -11    1    1    2    0    0 -0.10148067153E+01 -0.48995402622E+02 -0.58081212840E+02  0.75993464164E+02  0.00000000000E+00 0.  1.
         11    1    1    2    0    0 -0.44875554131E+02  0.27903987254E+02 -0.80464415888E+02  0.96265103165E+02  0.00000000000E+00 0. -1.
<mgrwt>
<rscale>  0 0.12585095E+03</rscale>
<asrwt>0</asrwt>
<pdfrwt beam="1">  1        3 0.45810199E-02 0.13482221E+03</pdfrwt>
<pdfrwt beam="2">  1       -3 0.78018524E-01 0.13482221E+03</pdfrwt>
<totfact> 0.95143789E+02</totfact>
</mgrwt>
</event>
<event>
 7    1  0.4230786E-006  0.1993433E+03  0.7546771E-02  0.1152627E+00
          1   -1    0    0  501    0  0.00000000000E+00  0.00000000000E+00  0.20742797411E+03  0.20742797411E+03  0.00000000000E+00 0. -1.
         -1   -1    0    0    0  501 -0.00000000000E+00 -0.00000000000E+00 -0.18170082360E+03  0.18170082360E+03  0.00000000000E+00 0.  1.
         23    2    1    2    0    0  0.13021968440E+03 -0.84588283227E+02  0.20654679578E+02  0.20041046903E+03  0.12500158577E+03 0.  0.
          5    1    3    3  502    0  0.13122288084E+02  0.10754054484E+02  0.44138449684E+02  0.47519857669E+02  0.47000000000E+01 0.  1.
         -5    1    3    3    0  502  0.11709739632E+03 -0.95342337711E+02 -0.23483770106E+02  0.15289061136E+03  0.47000000000E+01 0.  1.
        -11    1    1    2    0    0  0.55096492603E+01  0.42342407053E+02 -0.14783968438E+02  0.45186296516E+02  0.00000000000E+00 0.  1.
         11    1    1    2    0    0 -0.13572933366E+03  0.42245876174E+02  0.19856439369E+02  0.14353203216E+03  0.00000000000E+00 0. -1.
<mgrwt>
<rscale>  0 0.19661447E+03</rscale>
<asrwt>0</asrwt>
<pdfrwt beam="1">  1        1 0.31911996E-01 0.19934327E+03</pdfrwt>
<pdfrwt beam="2">  1       -1 0.27953973E-01 0.19934327E+03</pdfrwt>
<totfact> 0.16006573E+03</totfact>
</mgrwt>
</event>
<event>
 7    1  0.4230786E-006  0.1454746E+03  0.7546771E-02  0.1215047E+00
          2   -1    0    0  501    0  0.00000000000E+00  0.00000000000E+00  0.70282993582E+02  0.70282993582E+02  0.00000000000E+00 0. -1.
         -2   -1    0    0    0  501 -0.00000000000E+00 -0.00000000000E+00 -0.33816535996E+03  0.33816535996E+03  0.00000000000E+00 0.  1.
         23    2    1    2    0    0 -0.41373482677E+02  0.61843213845E+02 -0.24652776077E+03  0.28624952636E+03  0.12500602522E+03 0.  0.
          5    1    3    3  502    0  0.23275810756E+02  0.75550740292E+02 -0.13149814309E+03  0.15350416725E+03  0.47000000000E+01 0.  1.
         -5    1    3    3    0  502 -0.64649293433E+02 -0.13707526448E+02 -0.11502961767E+03  0.13274535911E+03  0.47000000000E+01 0.  1.
        -11    1    1    2    0    0  0.25551452650E+02  0.81884835593E+01 -0.39865676153E+02  0.48054137498E+02  0.00000000000E+00 0.  1.
         11    1    1    2    0    0  0.15822030027E+02 -0.70031697404E+02  0.18511070548E+02  0.74144689684E+02  0.00000000000E+00 0. -1.
<mgrwt>
<rscale>  0 0.13873097E+03</rscale>
<asrwt>0</asrwt>
<pdfrwt beam="1">  1        2 0.10812768E-01 0.14547458E+03</pdfrwt>
<pdfrwt beam="2">  1       -2 0.52025439E-01 0.14547458E+03</pdfrwt>
<totfact> 0.19990899E+03</totfact>
</mgrwt>
</event>
<event>
 7    1  0.4230786E-006  0.1456307E+03  0.7546771E-02  0.1216310E+00
         -2   -1    0    0    0  501 -0.00000000000E+00  0.00000000000E+00  0.25038588357E+02  0.25038588357E+02  0.00000000000E+00 0.  1.
          2   -1    0    0  501    0  0.00000000000E+00 -0.00000000000E+00 -0.69809633367E+03  0.69809633367E+03  0.00000000000E+00 0. -1.
         23    2    1    2    0    0  0.29740208303E+02 -0.68548473387E+02 -0.41728821801E+03  0.44197031370E+03  0.12499971242E+03 0.  0.
          5    1    3    3  502    0  0.30298211943E+02 -0.10283951944E+03 -0.26724999844E+03  0.28799062498E+03  0.47000000000E+01 0. -1.
         -5    1    3    3    0  502 -0.55800363999E+00  0.34291046057E+02 -0.15003821957E+03  0.15397968872E+03  0.47000000000E+01 0. -1.
        -11    1    1    2    0    0  0.20988137960E+02  0.61186764941E+02 -0.15905644370E+03  0.17170694342E+03  0.00000000000E+00 0.  1.
         11    1    1    2    0    0 -0.50728346263E+02  0.73617084462E+01 -0.96713083603E+02  0.10945766490E+03  0.00000000000E+00 0. -1.
<mgrwt>
<rscale>  0 0.13780772E+03</rscale>
<asrwt>0</asrwt>
<pdfrwt beam="2">  1        2 0.10739943E+00 0.14563070E+03</pdfrwt>
<pdfrwt beam="1">  1       -2 0.38520909E-02 0.14563070E+03</pdfrwt>
<totfact> 0.11746589E+04</totfact>
</mgrwt>
</event>
<event>
 7    1  0.4230786E-006  0.1305120E+03  0.7546771E-02  0.1245370E+00
         -4   -1    0    0    0  501 -0.00000000000E+00  0.00000000000E+00  0.21723452862E+03  0.21723452862E+03  0.00000000000E+00 0.  1.
          4   -1    0    0  501    0  0.00000000000E+00 -0.00000000000E+00 -0.64408059741E+02  0.64408059741E+02  0.00000000000E+00 0. -1.
         23    2    1    2    0    0  0.25361814615E+02 -0.27666731738E+02  0.14038479637E+03  0.19168009895E+03  0.12499879838E+03 0.  0.
          5    1    3    3  502    0 -0.88443317956E+00  0.17557784534E+02  0.13792772988E+03  0.13912299124E+03  0.47000000000E+01 0.  1.
         -5    1    3    3    0  502  0.26246247794E+02 -0.45224516272E+02  0.24570664864E+01  0.52557107712E+02  0.47000000000E+01 0.  1.
        -11    1    1    2    0    0 -0.38084241636E+02  0.48893721558E+02 -0.62097855028E+00  0.61978956777E+02  0.00000000000E+00 0. -1.
         11    1    1    2    0    0  0.12722427022E+02 -0.21226989820E+02  0.13062651063E+02  0.27983532639E+02  0.00000000000E+00 0.  1.
<mgrwt>
<rscale>  0 0.11863278E+03</rscale>
<asrwt>0</asrwt>
<pdfrwt beam="2">  1        4 0.99089324E-02 0.13051195E+03</pdfrwt>
<pdfrwt beam="1">  1       -4 0.33420696E-01 0.13051195E+03</pdfrwt>
<totfact> 0.10902300E+03</totfact>
</mgrwt>
</event>
<event>
 7    1  0.4230786E-006  0.1405837E+03  0.7546771E-02  0.1224237E+00
          1   -1    0    0  501    0  0.00000000000E+00  0.00000000000E+00  0.46154532052E+03  0.46154532052E+03  0.00000000000E+00 0. -1.
         -1   -1    0    0    0  501 -0.00000000000E+00 -0.00000000000E+00 -0.36289807137E+02  0.36289807137E+02  0.00000000000E+00 0.  1.
         23    2    1    2    0    0 -0.61897502293E+02  0.17722945493E+02  0.17475453249E+03  0.22428315545E+03  0.12497353162E+03 0.  0.
          5    1    3    3  502    0 -0.38945412791E+02 -0.33795183084E+02  0.13678983281E+02  0.53554310385E+02  0.47000000000E+01 0. -1.
         -5    1    3    3    0  502 -0.22952089502E+02  0.51518128577E+02  0.16107554920E+03  0.17072884506E+03  0.47000000000E+01 0. -1.
        -11    1    1    2    0    0  0.22940124114E+02 -0.47280249583E+02  0.76508611370E+02  0.92818311279E+02  0.00000000000E+00 0.  1.
         11    1    1    2    0    0  0.38957378178E+02  0.29557304090E+02  0.17399236953E+03  0.18073366093E+03  0.00000000000E+00 0. -1.
<mgrwt>
<rscale>  0 0.13219329E+03</rscale>
<asrwt>0</asrwt>
<pdfrwt beam="1">  1        1 0.71006968E-01 0.14058374E+03</pdfrwt>
<pdfrwt beam="2">  1       -1 0.55830476E-02 0.14058374E+03</pdfrwt>
<totfact> 0.71780364E+03</totfact>
</mgrwt>
</event>
<event>
 7    1  0.4230786E-006  0.1505033E+03  0.7546771E-02  0.1209041E+00
         -2   -1    0    0    0  501 -0.00000000000E+00  0.00000000000E+00  0.28804332043E+02  0.28804332043E+02  0.00000000000E+00 0.  1.
          2   -1    0    0  501    0  0.00000000000E+00 -0.00000000000E+00 -0.66518349129E+03  0.66518349129E+03  0.00000000000E+00 0. -1.
         23    2    1    2    0    0 -0.69015446402E+02 -0.47682038412E+02 -0.29936679235E+03  0.33506971271E+03  0.12495810251E+03 0.  0.
          5    1    3    3  502    0 -0.89550735800E+02 -0.20441405705E+02 -0.28176412470E+03  0.29639550827E+03  0.47000000000E+01 0.  1.
         -5    1    3    3    0  502  0.20535289398E+02 -0.27240632707E+02 -0.17602667644E+02  0.38674204441E+02  0.47000000000E+01 0.  1.
        -11    1    1    2    0    0 -0.16051056734E+02 -0.10660003047E+02 -0.72145761861E+02  0.74674514004E+02  0.00000000000E+00 0.  1.
         11    1    1    2    0    0  0.85066503136E+02  0.58342041458E+02 -0.26486660504E+03  0.28424359663E+03  0.00000000000E+00 0. -1.
<mgrwt>
<rscale>  0 0.14323526E+03</rscale>
<asrwt>0</asrwt>
<pdfrwt beam="2">  1        2 0.10233590E+00 0.15050328E+03</pdfrwt>
<pdfrwt beam="1">  1       -2 0.44314365E-02 0.15050328E+03</pdfrwt>
<totfact> 0.10112629E+04</totfact>
</mgrwt>
</event>
<event>
 7    1  0.4230786E-006  0.1317991E+03  0.7546771E-02  0.1238361E+00
          1   -1    0    0  501    0  0.00000000000E+00  0.00000000000E+00  0.44130653180E+02  0.44130653180E+02  0.00000000000E+00 0. -1.
         -1   -1    0    0    0  501 -0.00000000000E+00 -0.00000000000E+00 -0.31167161399E+03  0.31167161399E+03  0.00000000000E+00 0.  1.
         23    2    1    2    0    0 -0.36993449374E+02  0.19409776953E+02 -0.18018764421E+03  0.22324556558E+03  0.12500296272E+03 0.  0.
          5    1    3    3  502    0 -0.46990798520E+02  0.55940958785E+01 -0.57368412564E+01  0.47900212963E+02  0.47000000000E+01 0.  1.
         -5    1    3    3    0  502  0.99973491462E+01  0.13815681075E+02 -0.17445080296E+03  0.17534535262E+03  0.47000000000E+01 0.  1.
        -11    1    1    2    0    0 -0.17841043033E+02 -0.37101150354E+02 -0.27690046358E+02  0.49613877508E+02  0.00000000000E+00 0. -1.
         11    1    1    2    0    0  0.54834492407E+02  0.17691373400E+02 -0.59663270239E+02  0.82942824078E+02  0.00000000000E+00 0.  1.
<mgrwt>
<rscale>  0 0.12291680E+03</rscale>
<asrwt>0</asrwt>
<pdfrwt beam="1">  1        1 0.67893311E-02 0.13179907E+03</pdfrwt>
<pdfrwt beam="2">  1       -1 0.47949480E-01 0.13179907E+03</pdfrwt>
<totfact> 0.46129999E+03</totfact>
</mgrwt>
</event>
<event>
 7    1  0.4230786E-006  0.1520679E+03  0.7546771E-02  0.1206905E+00
         -1   -1    0    0    0  501 -0.00000000000E+00  0.00000000000E+00  0.10911474616E+04  0.10911474616E+04  0.00000000000E+00 0.  1.
          1   -1    0    0  501    0  0.00000000000E+00 -0.00000000000E+00 -0.17729564814E+02  0.17729564814E+02  0.00000000000E+00 0. -1.
         23    2    1    2    0    0 -0.11448626079E+01  0.86603683572E+02  0.63013862626E+03  0.64822785049E+03  0.12499259629E+03 0.  0.
          5    1    3    3  502    0 -0.62038691029E+02  0.56209756398E+02  0.34660732647E+03  0.35660491396E+03  0.47000000000E+01 0.  1.
         -5    1    3    3    0  502  0.60893828421E+02  0.30393927174E+02  0.28353129978E+03  0.29162293652E+03  0.47000000000E+01 0.  1.
        -11    1    1    2    0    0 -0.13947429675E+02 -0.73699263517E+02  0.43061184552E+03  0.43709572606E+03  0.00000000000E+00 0.  1.
         11    1    1    2    0    0  0.15092292283E+02 -0.12904420055E+02  0.12667424964E+02  0.23553449823E+02  0.00000000000E+00 0. -1.
<mgrwt>
<rscale>  0 0.14488375E+03</rscale>
<asrwt>0</asrwt>
<pdfrwt beam="2">  1        1 0.27276262E-02 0.15206794E+03</pdfrwt>
<pdfrwt beam="1">  1       -1 0.16786879E+00 0.15206794E+03</pdfrwt>
<totfact> 0.10695044E+03</totfact>
</mgrwt>
</event>
<event>
 6    1  0.4230786E-006  0.1632646E+03  0.7546771E-02  0.1205622E+00
         -2   -1    0    0    0  501 -0.00000000000E+00  0.00000000000E+00  0.83738328305E+02  0.83738328305E+02  0.00000000000E+00 0.  1.
          2   -1    0    0  501    0  0.00000000000E+00 -0.00000000000E+00 -0.27894332927E+03  0.27894332927E+03  0.00000000000E+00 0. -1.
          5    1    1    2  502    0  0.61225066573E+02  0.29318007044E+02  0.26310741584E+01  0.68096012109E+02  0.47000000000E+01 0. -1.
         -5    1    1    2    0  502 -0.91323211672E+02 -0.14816242993E+02 -0.30511793378E+02  0.97532095136E+02  0.47000000000E+01 0.  1.
        -11    1    1    2    0    0 -0.32945874258E+02 -0.15925892074E+02 -0.90787007833E+02  0.97884347371E+02  0.00000000000E+00 0.  1.
         11    1    1    2    0    0  0.63044019357E+02  0.14241280229E+01 -0.76537273908E+02  0.99169202954E+02  0.00000000000E+00 0. -1.
<mgrwt>
<rscale>  0 0.14588515E+03</rscale>
<asrwt>0</asrwt>
<pdfrwt beam="2">  1        2 0.42914359E-01 0.16326462E+03</pdfrwt>
<pdfrwt beam="1">  1       -2 0.12882820E-01 0.16326462E+03</pdfrwt>
<totfact> 0.50454023E+03</totfact>
</mgrwt>
</event>
<event>
 7    1  0.4230786E-006  0.1871649E+03  0.7546771E-02  0.1166538E+00
          2   -1    0    0  501    0  0.00000000000E+00  0.00000000000E+00  0.18348326121E+03  0.18348326121E+03  0.00000000000E+00 0. -1.
         -2   -1    0    0    0  501 -0.00000000000E+00 -0.00000000000E+00 -0.16882189135E+03  0.16882189135E+03  0.00000000000E+00 0.  1.
         23    2    1    2    0    0 -0.11094238583E+03  0.84243025126E+02  0.72115236785E+01  0.18730376199E+03  0.12500237168E+03 0.  0.
          5    1    3    3  502    0 -0.10824190533E+03  0.18978062733E+02  0.36043340222E+02  0.11574838793E+03  0.47000000000E+01 0. -1.
         -5    1    3    3    0  502 -0.27004805021E+01  0.65264962394E+02 -0.28831816544E+02  0.71555374057E+02  0.47000000000E+01 0. -1.
        -11    1    1    2    0    0  0.48740461657E+02 -0.89594392243E+02  0.10243962550E+02  0.10250720215E+03  0.00000000000E+00 0.  1.
         11    1    1    2    0    0  0.62201924171E+02  0.53513671168E+01 -0.27941163633E+01  0.62494188424E+02  0.00000000000E+00 0. -1.
<mgrwt>
<rscale>  0 0.18131319E+03</rscale>
<asrwt>0</asrwt>
<pdfrwt beam="1">  1        2 0.28228194E-01 0.18716488E+03</pdfrwt>
<pdfrwt beam="2">  1       -2 0.25972599E-01 0.18716488E+03</pdfrwt>
<totfact> 0.24494144E+03</totfact>
</mgrwt>
</event>
<event>
 7    1  0.4230786E-006  0.1260703E+03  0.7546771E-02  0.1248348E+00
          2   -1    0    0  501    0  0.00000000000E+00  0.00000000000E+00  0.58630856045E+03  0.58630856045E+03  0.00000000000E+00 0. -1.
         -2   -1    0    0    0  501 -0.00000000000E+00 -0.00000000000E+00 -0.20564903982E+02  0.20564903982E+02  0.00000000000E+00 0.  1.
         23    2    1    2    0    0 -0.13222518895E+02  0.96476131415E+01  0.34398742082E+03  0.36636191975E+03  0.12500319643E+03 0.  0.
          5    1    3    3  502    0 -0.90067977498E+01 -0.29276762327E+02  0.31715524628E+03  0.31866564211E+03  0.47000000000E+01 0. -1.
         -5    1    3    3    0  502 -0.42157211454E+01  0.38924375468E+02  0.26832174533E+02  0.47696277638E+02  0.47000000000E+01 0. -1.
        -11    1    1    2    0    0 -0.20437531509E+02 -0.40127807563E+02  0.13903531879E+03  0.14614634277E+03  0.00000000000E+00 0.  1.
         11    1    1    2    0    0  0.33660050404E+02  0.30480194422E+02  0.82720916863E+02  0.94365201911E+02  0.00000000000E+00 0. -1.
<mgrwt>
<rscale>  0 0.11687233E+03</rscale>
<asrwt>0</asrwt>
<pdfrwt beam="1">  1        2 0.90201304E-01 0.12607026E+03</pdfrwt>
<pdfrwt beam="2">  1       -2 0.31638318E-02 0.12607026E+03</pdfrwt>
<totfact> 0.19021826E+04</totfact>
</mgrwt>
</event>
<event>
 7    1  0.4230786E-006  0.1283063E+03  0.7546771E-02  0.1244443E+00
          1   -1    0    0  501    0  0.00000000000E+00  0.00000000000E+00  0.38498538752E+03  0.38498538752E+03  0.00000000000E+00 0. -1.
         -1   -1    0    0    0  501 -0.00000000000E+00 -0.00000000000E+00 -0.35203666472E+02  0.35203666472E+02  0.00000000000E+00 0.  1.
         23    2    1    2    0    0 -0.94794436573E+01 -0.27304886599E+02  0.14131734399E+03  0.19087454344E+03  0.12500833147E+03 0.  0.
          5    1    3    3  502    0  0.51922327658E+01  0.34385642753E+02  0.11806751888E+03  0.12317207769E+03  0.47000000000E+01 0. -1.
         -5    1    3    3    0  502 -0.14671676423E+02 -0.61690529352E+02  0.23249825112E+02  0.67702465749E+02  0.47000000000E+01 0. -1.
        -11    1    1    2    0    0 -0.26850387705E+02 -0.18417588108E+02  0.43624416151E+02  0.54435655192E+02  0.00000000000E+00 0.  1.
         11    1    1    2    0    0  0.36329831362E+02  0.45722474707E+02  0.16483996090E+03  0.17487885536E+03  0.00000000000E+00 0. -1.
<mgrwt>
<rscale>  0 0.11918768E+03</rscale>
<asrwt>0</asrwt>
<pdfrwt beam="1">  1        1 0.59228518E-01 0.12830627E+03</pdfrwt>
<pdfrwt beam="2">  1       -1 0.54159489E-02 0.12830627E+03</pdfrwt>
<totfact> 0.93945432E+03</totfact>
</mgrwt>
</event>
<event>
 7    1  0.4230786E-006  0.1372052E+03  0.7546771E-02  0.1222524E+00
         -2   -1    0    0    0  501 -0.00000000000E+00  0.00000000000E+00  0.10228242071E+03  0.10228242071E+03  0.00000000000E+00 0.  1.
          2   -1    0    0  501    0  0.00000000000E+00 -0.00000000000E+00 -0.16572007479E+03  0.16572007479E+03  0.00000000000E+00 0. -1.
         23    2    1    2    0    0 -0.34449370230E+02  0.44997638957E+02 -0.42916696392E+02  0.14376059261E+03  0.12495486601E+03 0.  0.
          5    1    3    3  502    0 -0.45050909755E+02 -0.20719701818E+02  0.18434885334E+02  0.53111444251E+02  0.47000000000E+01 0. -1.
         -5    1    3    3    0  502  0.10601539526E+02  0.65717340774E+02 -0.61351581726E+02  0.90649148363E+02  0.47000000000E+01 0. -1.
        -11    1    1    2    0    0 -0.17537475439E+02 -0.11943166869E+02 -0.51198356957E+02  0.55420880855E+02  0.00000000000E+00 0. -1.
         11    1    1    2    0    0  0.51986845669E+02 -0.33054472087E+02  0.30677399269E+02  0.68821022032E+02  0.00000000000E+00 0.  1.
<mgrwt>
<rscale>  0 0.13338081E+03</rscale>
<asrwt>0</asrwt>
<pdfrwt beam="2">  1        2 0.25495396E-01 0.13720519E+03</pdfrwt>
<pdfrwt beam="1">  1       -2 0.15735757E-01 0.13720519E+03</pdfrwt>
<totfact> 0.63245573E+03</totfact>
</mgrwt>
</event>
<event>
 7    1  0.4230786E-006  0.2823465E+03  0.7546771E-02  0.1096236E+00
         -2   -1    0    0    0  501 -0.00000000000E+00  0.00000000000E+00  0.67577864866E+02  0.67577864866E+02  0.00000000000E+00 0. -1.
          2   -1    0    0  501    0  0.00000000000E+00 -0.00000000000E+00 -0.11361551267E+04  0.11361551267E+04  0.00000000000E+00 0.  1.
         23    2    1    2    0    0  0.25210724499E+03 -0.23130516994E+02 -0.60550675947E+03  0.66810027666E+03  0.12500584032E+03 0.  0.
          5    1    3    3  502    0  0.16146431412E+03 -0.30450780687E+02 -0.23643464284E+03  0.28796077009E+03  0.47000000000E+01 0. -1.
         -5    1    3    3    0  502  0.90642930872E+02  0.73202636932E+01 -0.36907211663E+03  0.38013950656E+03  0.47000000000E+01 0. -1.
        -11    1    1    2    0    0 -0.16680556159E+03 -0.26855511971E+02 -0.31762653561E+03  0.35976649375E+03  0.00000000000E+00 0.  1.
         11    1    1    2    0    0 -0.85301683405E+02  0.49986028965E+02 -0.14544396680E+03  0.17586622121E+03  0.00000000000E+00 0. -1.
<mgrwt>
<rscale>  0 0.27900062E+03</rscale>
<asrwt>0</asrwt>
<pdfrwt beam="2">  1        2 0.17479310E+00 0.28234650E+03</pdfrwt>
<pdfrwt beam="1">  1       -2 0.10396594E-01 0.28234650E+03</pdfrwt>
<totfact> 0.13568618E+03</totfact>
</mgrwt>
</event>
<event>
 7    1  0.4230786E-006  0.1303981E+03  0.7546771E-02  0.1239935E+00
          1   -1    0    0  501    0  0.00000000000E+00  0.00000000000E+00  0.10692561622E+03  0.10692561622E+03  0.00000000000E+00 0. -1.
         -1   -1    0    0    0  501 -0.00000000000E+00 -0.00000000000E+00 -0.12625863289E+03  0.12625863289E+03  0.00000000000E+00 0.  1.
         23    2    1    2    0    0  0.10625253940E+02  0.35581957491E+02  0.51987926767E+01  0.13050171720E+03  0.12499879610E+03 0.  0.
          5    1    3    3  502    0  0.64022361954E+02  0.38053378892E+02  0.14554131799E+02  0.76031804054E+02  0.47000000000E+01 0. -1.
         -5    1    3    3    0  502 -0.53397108013E+02 -0.24714214009E+01 -0.93553391221E+01  0.54469913145E+02  0.47000000000E+01 0. -1.
        -11    1    1    2    0    0 -0.25292991088E+02  0.11364872989E+02 -0.42136631980E+02  0.50441961608E+02  0.00000000000E+00 0.  1.
         11    1    1    2    0    0  0.14667737148E+02 -0.46946830480E+02  0.17604822630E+02  0.52240570297E+02  0.00000000000E+00 0. -1.
<mgrwt>
<rscale>  0 0.12193746E+03</rscale>
<asrwt>0</asrwt>
<pdfrwt beam="1">  1        1 0.16450095E-01 0.13039812E+03</pdfrwt>
<pdfrwt beam="2">  1       -1 0.19424405E-01 0.13039812E+03</pdfrwt>
<totfact> 0.65995311E+03</totfact>
</mgrwt>
</event>
<event>
 7    1  0.4230786E-006  0.1275782E+03  0.7546771E-02  0.1247612E+00
          3   -1    0    0  501    0  0.00000000000E+00  0.00000000000E+00  0.73825026634E+02  0.73825026634E+02  0.00000000000E+00 0. -1.
         -3   -1    0    0    0  501 -0.00000000000E+00 -0.00000000000E+00 -0.20052916566E+03  0.20052916566E+03  0.00000000000E+00 0.  1.
         23    2    1    2    0    0 -0.21116440378E+02  0.14328664287E+02 -0.13127417406E+03  0.18305493837E+03  0.12499994805E+03 0.  0.
          5    1    3    3  502    0  0.50352234210E+02  0.64894206838E+01 -0.31313586949E+02  0.59833859966E+02  0.47000000000E+01 0.  1.
         -5    1    3    3    0  502 -0.71468674588E+02  0.78392436033E+01 -0.99960587113E+02  0.12322107841E+03  0.47000000000E+01 0.  1.
        -11    1    1    2    0    0 -0.24615159471E+02  0.82363745185E+01 -0.21793032717E+02  0.33892185176E+02  0.00000000000E+00 0.  1.
         11    1    1    2    0    0  0.45731599849E+02 -0.22565038806E+02  0.26363067750E+02  0.57407068748E+02  0.00000000000E+00 0. -1.
<mgrwt>
<rscale>  0 0.11730405E+03</rscale>
<asrwt>0</asrwt>
<pdfrwt beam="1">  1        3 0.11357696E-01 0.12757822E+03</pdfrwt>
<pdfrwt beam="2">  1       -3 0.30850641E-01 0.12757822E+03</pdfrwt>
<totfact> 0.13823290E+03</totfact>
</mgrwt>
</event>
<event>
 7    1  0.4230786E-006  0.1595859E+03  0.7546771E-02  0.1196797E+00
          1   -1    0    0  501    0  0.00000000000E+00  0.00000000000E+00  0.38300959606E+02  0.38300959606E+02  0.00000000000E+00 0.  1.
         -1   -1    0    0    0  501 -0.00000000000E+00 -0.00000000000E+00 -0.57423972581E+03  0.57423972581E+03  0.00000000000E+00 0. -1.
         23    2    1    2    0    0  0.86242210378E+02 -0.49051922355E+02 -0.32619186030E+03  0.36313740804E+03  0.12499534975E+03 0.  0.
          5    1    3    3  502    0 -0.24298894083E+02 -0.32246558023E+02 -0.14115114919E+03  0.14688775876E+03  0.47000000000E+01 0.  1.
         -5    1    3    3    0  502  0.11054110446E+03 -0.16805364332E+02 -0.18504071111E+03  0.21624964928E+03  0.47000000000E+01 0.  1.
        -11    1    1    2    0    0 -0.16729176509E+02 -0.24232365621E+02 -0.24077436383E+02  0.38036769487E+02  0.00000000000E+00 0.  1.
         11    1    1    2    0    0 -0.69513033869E+02  0.73284287976E+02 -0.18566946952E+03  0.21136650788E+03  0.00000000000E+00 0. -1.
<mgrwt>
<rscale>  0 0.15303095E+03</rscale>
<asrwt>0</asrwt>
<pdfrwt beam="1">  1        1 0.58924557E-02 0.15958586E+03</pdfrwt>
<pdfrwt beam="2">  1       -1 0.88344568E-01 0.15958586E+03</pdfrwt>
<totfact> 0.17180340E+03</totfact>
</mgrwt>
</event>
<event>
 7    1  0.4230786E-006  0.1380539E+03  0.7546771E-02  0.1226517E+00
          1   -1    0    0  501    0  0.00000000000E+00  0.00000000000E+00  0.47176821573E+02  0.47176821573E+02  0.00000000000E+00 0. -1.
         -1   -1    0    0    0  501 -0.00000000000E+00 -0.00000000000E+00 -0.54548807779E+03  0.54548807779E+03  0.00000000000E+00 0.  1.
         23    2    1    2    0    0  0.60861775318E+01 -0.58291312153E+02 -0.45212207532E+03  0.47272956805E+03  0.12499581951E+03 0.  0.
          5    1    3    3  502    0  0.27497501655E+02 -0.84145121558E+02 -0.40556467839E+03  0.41514011181E+03  0.47000000000E+01 0. -1.
         -5    1    3    3    0  502 -0.21411324123E+02  0.25853809405E+02 -0.46557396928E+02  0.57589456241E+02  0.47000000000E+01 0. -1.
        -11    1    1    2    0    0 -0.12223014742E+02 -0.61707375955E+01 -0.53078729088E+02  0.54816344036E+02  0.00000000000E+00 0.  1.
         11    1    1    2    0    0  0.61368372099E+01  0.64462049748E+02  0.68895481910E+01  0.65118987269E+02  0.00000000000E+00 0. -1.
<mgrwt>
<rscale>  0 0.13063456E+03</rscale>
<asrwt>0</asrwt>
<pdfrwt beam="1">  1        1 0.72579725E-02 0.13805388E+03</pdfrwt>
<pdfrwt beam="2">  1       -1 0.83921243E-01 0.13805388E+03</pdfrwt>
<totfact> 0.14343740E+03</totfact>
</mgrwt>
</event>
<event>
 7    1  0.4230786E-006  0.1581685E+03  0.7546771E-02  0.1198556E+00
          1   -1    0    0  501    0  0.00000000000E+00  0.00000000000E+00  0.28871756516E+02  0.28871756516E+02  0.00000000000E+00 0. -1.
         -1   -1    0    0    0  501 -0.00000000000E+00 -0.00000000000E+00 -0.79624088930E+03  0.79624088930E+03  0.00000000000E+00 0.  1.
         23    2    1    2    0    0 -0.58159396698E+02  0.77521180209E+02 -0.52689513815E+03  0.55012341486E+03  0.12500094463E+03 0.  0.
          5    1    3    3  502    0 -0.72964994148E+02  0.85569063119E+02 -0.26849337953E+03  0.29113010800E+03  0.47000000000E+01 0. -1.
         -5    1    3    3    0  502  0.14805597450E+02 -0.80478829102E+01 -0.25840175862E+03  0.25899330685E+03  0.47000000000E+01 0. -1.
        -11    1    1    2    0    0  0.32212836709E+02 -0.24795041006E+01 -0.15497879265E+03  0.15831058386E+03  0.00000000000E+00 0.  1.
         11    1    1    2    0    0  0.25946559990E+02 -0.75041676109E+02 -0.85495201978E+02  0.11667864710E+03  0.00000000000E+00 0. -1.
<mgrwt>
<rscale>  0 0.15157101E+03</rscale>
<asrwt>0</asrwt>
<pdfrwt beam="1">  1        1 0.44418098E-02 0.15816853E+03</pdfrwt>
<pdfrwt beam="2">  1       -1 0.12249857E+00 0.15816853E+03</pdfrwt>
<totfact> 0.12167279E+03</totfact>
</mgrwt>
</event>
<event>
 7    1  0.4230786E-006  0.1287571E+03  0.7546771E-02  0.1244304E+00
          1   -1    0    0  501    0  0.00000000000E+00  0.00000000000E+00  0.13802450391E+03  0.13802450391E+03  0.00000000000E+00 0.  1.
         -1   -1    0    0    0  501 -0.00000000000E+00 -0.00000000000E+00 -0.91475356560E+02  0.91475356560E+02  0.00000000000E+00 0. -1.
         23    2    1    2    0    0  0.25257860760E+02  0.17764042298E+02  0.38322790735E+02  0.13433922875E+03  0.12499948545E+03 0.  0.
          5    1    3    3  502    0  0.59830300606E+02 -0.19235251546E+02 -0.10442518882E+02  0.63881108109E+02  0.47000000000E+01 0.  1.
         -5    1    3    3    0  502 -0.34572439846E+02  0.36999293844E+02  0.48765309617E+02  0.70458120638E+02  0.47000000000E+01 0.  1.
        -11    1    1    2    0    0  0.24832230424E+02  0.12553705273E+02  0.21452523285E+02  0.35134682853E+02  0.00000000000E+00 0. -1.
         11    1    1    2    0    0 -0.50090091184E+02 -0.30317747571E+02 -0.13226166671E+02  0.60025948867E+02  0.00000000000E+00 0.  1.
<mgrwt>
<rscale>  0 0.11927118E+03</rscale>
<asrwt>0</asrwt>
<pdfrwt beam="1">  1        1 0.21234539E-01 0.12875711E+03</pdfrwt>
<pdfrwt beam="2">  1       -1 0.14073132E-01 0.12875711E+03</pdfrwt>
<totfact> 0.79165839E+03</totfact>
</mgrwt>
</event>
<event>
 7    1  0.4230786E-006  0.1528646E+03  0.7546771E-02  0.1205540E+00
         -1   -1    0    0    0  501 -0.00000000000E+00  0.00000000000E+00  0.67016353541E+02  0.67016353541E+02  0.00000000000E+00 0.  1.
          1   -1    0    0  501    0  0.00000000000E+00 -0.00000000000E+00 -0.32687152717E+03  0.32687152717E+03  0.00000000000E+00 0. -1.
         23    2    1    2    0    0  0.21577283903E+02 -0.85297015140E+02 -0.76790784239E+02  0.17106846919E+03  0.12500574641E+03 0.  0.
          5    1    3    3  502    0  0.18443359471E+01 -0.81565981996E+02  0.95685155562E+01  0.82280359042E+02  0.47000000000E+01 0. -1.
         -5    1    3    3    0  502  0.19732947956E+02 -0.37310331437E+01 -0.86359299795E+02  0.88788110153E+02  0.47000000000E+01 0. -1.
        -11    1    1    2    0    0 -0.36063321106E+02  0.18169549130E+02 -0.12972591806E+03  0.13586577738E+03  0.00000000000E+00 0. -1.
         11    1    1    2    0    0  0.14486037203E+02  0.67127466010E+02 -0.53338471325E+02  0.86953634140E+02  0.00000000000E+00 0.  1.
<mgrwt>
<rscale>  0 0.14595013E+03</rscale>
<asrwt>0</asrwt>
<pdfrwt beam="2">  1        1 0.50287925E-01 0.15286463E+03</pdfrwt>
<pdfrwt beam="1">  1       -1 0.10310209E-01 0.15286463E+03</pdfrwt>
<totfact> 0.44198279E+03</totfact>
</mgrwt>
</event>
<event>
 7    1  0.4230786E-006  0.1290169E+03  0.7546771E-02  0.1241933E+00
          3   -1    0    0  501    0  0.00000000000E+00  0.00000000000E+00  0.43291337521E+02  0.43291337521E+02  0.00000000000E+00 0. -1.
         -3   -1    0    0    0  501 -0.00000000000E+00 -0.00000000000E+00 -0.31001711305E+03  0.31001711305E+03  0.00000000000E+00 0.  1.
         23    2    1    2    0    0  0.30843555099E+02  0.83136782770E+01 -0.18212221673E+03  0.22319018340E+03  0.12499965601E+03 0.  0.
          5    1    3    3  502    0  0.44918809351E+02  0.36096343840E+01 -0.52238517856E+01  0.45608195770E+02  0.47000000000E+01 0. -1.
         -5    1    3    3    0  502 -0.14075254252E+02  0.47040438930E+01 -0.17689836494E+03  0.17758198763E+03  0.47000000000E+01 0. -1.
        -11    1    1    2    0    0 -0.60457427447E+02 -0.21323409735E+02 -0.69069993144E+02  0.94236151711E+02  0.00000000000E+00 0.  1.
         11    1    1    2    0    0  0.29613872348E+02  0.13009731458E+02 -0.15533565659E+02  0.35882115463E+02  0.00000000000E+00 0. -1.
<mgrwt>
<rscale>  0 0.12070865E+03</rscale>
<asrwt>0</asrwt>
<pdfrwt beam="1">  1        3 0.66602057E-02 0.12901688E+03</pdfrwt>
<pdfrwt beam="2">  1       -3 0.47694941E-01 0.12901688E+03</pdfrwt>
<totfact> 0.14399696E+03</totfact>
</mgrwt>
</event>
<event>
 7    1  0.4230786E-006  0.1403989E+03  0.7546771E-02  0.1223976E+00
          1   -1    0    0  501    0  0.00000000000E+00  0.00000000000E+00  0.35551080592E+02  0.35551080592E+02  0.00000000000E+00 0. -1.
         -1   -1    0    0    0  501 -0.00000000000E+00 -0.00000000000E+00 -0.44425109306E+03  0.44425109306E+03  0.00000000000E+00 0.  1.
         23    2    1    2    0    0  0.51972048850E+02  0.37212379310E+02 -0.22759816406E+03  0.26741873536E+03  0.12500400275E+03 0.  0.
          5    1    3    3  502    0  0.19890154305E+02 -0.43738814728E+02 -0.11705534766E+03  0.12662048242E+03  0.47000000000E+01 0.  1.
         -5    1    3    3    0  502  0.32081894545E+02  0.80951194038E+02 -0.11054281640E+03  0.14079825294E+03  0.47000000000E+01 0.  1.
        -11    1    1    2    0    0 -0.59991638813E+02 -0.52877800288E+02 -0.93511164812E+02  0.12304225467E+03  0.00000000000E+00 0. -1.
         11    1    1    2    0    0  0.80195899636E+01  0.15665420978E+02 -0.87590683590E+02  0.89341183613E+02  0.00000000000E+00 0.  1.
<mgrwt>
<rscale>  0 0.13237317E+03</rscale>
<asrwt>0</asrwt>
<pdfrwt beam="1">  1        1 0.54693972E-02 0.14039892E+03</pdfrwt>
<pdfrwt beam="2">  1       -1 0.68346320E-01 0.14039892E+03</pdfrwt>
<totfact> 0.31877331E+03</totfact>
</mgrwt>
</event>
<event>
 7    1  0.4230786E-006  0.1525717E+03  0.7546771E-02  0.1205826E+00
         -1   -1    0    0    0  501 -0.00000000000E+00  0.00000000000E+00  0.86680584468E+02  0.86680584468E+02  0.00000000000E+00 0.  1.
          1   -1    0    0  501    0  0.00000000000E+00 -0.00000000000E+00 -0.25741977725E+03  0.25741977725E+03  0.00000000000E+00 0. -1.
         23    2    1    2    0    0 -0.71946974655E+02 -0.49787235794E+02 -0.31743238901E+02  0.15583885820E+03  0.12499192173E+03 0.  0.
          5    1    3    3  502    0 -0.29451695013E+02 -0.33855357188E+02  0.46798652366E+02  0.65006087506E+02  0.47000000000E+01 0. -1.
         -5    1    3    3    0  502 -0.42495279642E+02 -0.15931878606E+02 -0.78541891268E+02  0.90832770693E+02  0.47000000000E+01 0. -1.
        -11    1    1    2    0    0 -0.20928145822E+01  0.51610983216E+02 -0.70368715813E+02  0.87291635490E+02  0.00000000000E+00 0. -1.
         11    1    1    2    0    0  0.74039789237E+02 -0.18237474215E+01 -0.68627238065E+02  0.10096986803E+03  0.00000000000E+00 0.  1.
<mgrwt>
<rscale>  0 0.14572516E+03</rscale>
<asrwt>0</asrwt>
<pdfrwt beam="2">  1        1 0.39603042E-01 0.15257168E+03</pdfrwt>
<pdfrwt beam="1">  1       -1 0.13335475E-01 0.15257168E+03</pdfrwt>
<totfact> 0.39949643E+03</totfact>
</mgrwt>
</event>
<event>
 7    1  0.4230786E-006  0.2794883E+03  0.7546771E-02  0.1097774E+00
          2   -1    0    0  501    0  0.00000000000E+00  0.00000000000E+00  0.10996664109E+04  0.10996664109E+04  0.00000000000E+00 0. -1.
         -2   -1    0    0    0  501 -0.00000000000E+00 -0.00000000000E+00 -0.85385328693E+02  0.85385328693E+02  0.00000000000E+00 0.  1.
         23    2    1    2    0    0 -0.17509022129E+03  0.17841879755E+03  0.24780376980E+03  0.37352435367E+03  0.12499552611E+03 0.  0.
          5    1    3    3  502    0 -0.13765416364E+03  0.56501250922E+02  0.10604094531E+03  0.18277809553E+03  0.47000000000E+01 0. -1.
         -5    1    3    3    0  502 -0.37436057646E+02  0.12191754662E+03  0.14176282448E+03  0.19074625813E+03  0.47000000000E+01 0. -1.
        -11    1    1    2    0    0 -0.26590585183E+01 -0.12393259434E+02  0.79601414473E+01  0.14967542332E+02  0.00000000000E+00 0.  1.
         11    1    1    2    0    0  0.17774927981E+03 -0.16602553811E+03  0.75851717092E+03  0.79655984355E+03  0.00000000000E+00 0. -1.
<mgrwt>
<rscale>  0 0.27621563E+03</rscale>
<asrwt>0</asrwt>
<pdfrwt beam="1">  1        2 0.16917944E+00 0.27948834E+03</pdfrwt>
<pdfrwt beam="2">  1       -2 0.13136205E-01 0.27948834E+03</pdfrwt>
<totfact> 0.97605983E+02</totfact>
</mgrwt>
</event>
<event>
 7    1  0.4230786E-006  0.2678961E+03  0.7546771E-02  0.1104535E+00
         -2   -1    0    0    0  501 -0.00000000000E+00  0.00000000000E+00  0.64161560787E+03  0.64161560787E+03  0.00000000000E+00 0.  1.
          2   -1    0    0  501    0  0.00000000000E+00 -0.00000000000E+00 -0.10711075768E+03  0.10711075768E+03  0.00000000000E+00 0. -1.
         23    2    1    2    0    0 -0.11702012662E+03  0.20603818938E+03  0.30900490965E+03  0.40896495446E+03  0.12499141676E+03 0.  0.
          5    1    3    3  502    0 -0.58823762478E+02  0.17131585097E+02  0.33904857542E+02  0.70180877773E+02  0.47000000000E+01 0.  1.
         -5    1    3    3    0  502 -0.58196364145E+02  0.18890660428E+03  0.27510005211E+03  0.33878407668E+03  0.47000000000E+01 0.  1.
        -11    1    1    2    0    0  0.28913516045E+02 -0.10294020408E+03  0.50186695295E+02  0.11811596594E+03  0.00000000000E+00 0. -1.
         11    1    1    2    0    0  0.88106610578E+02 -0.10309798530E+03  0.17531324524E+03  0.22164544516E+03  0.00000000000E+00 0.  1.
<mgrwt>
<rscale>  0 0.26438900E+03</rscale>
<asrwt>0</asrwt>
<pdfrwt beam="2">  1        2 0.16478578E-01 0.26789606E+03</pdfrwt>
<pdfrwt beam="1">  1       -2 0.98710092E-01 0.26789606E+03</pdfrwt>
<totfact> 0.30874962E+02</totfact>
</mgrwt>
</event>
<event>
 7    1  0.4230786E-006  0.1237695E+03  0.7546771E-02  0.1255838E+00
         -2   -1    0    0    0  501 -0.00000000000E+00  0.00000000000E+00  0.38606758475E+02  0.38606758475E+02  0.00000000000E+00 0.  1.
          2   -1    0    0  501    0  0.00000000000E+00 -0.00000000000E+00 -0.29011973229E+03  0.29011973229E+03  0.00000000000E+00 0. -1.
         23    2    1    2    0    0 -0.19920364504E+00 -0.80367298807E+01 -0.12091880313E+03  0.17303252885E+03  0.12350817941E+03 0.  0.
          5    1    3    3  502    0 -0.55114002096E+01 -0.63044585991E+02 -0.40288144275E+02  0.75167944792E+02  0.47000000000E+01 0. -1.
         -5    1    3    3    0  502  0.53121965645E+01  0.55007856111E+02 -0.80630658851E+02  0.97864584058E+02  0.47000000000E+01 0.  1.
        -11    1    1    2    0    0 -0.19045087960E+02 -0.14926225398E+02 -0.12220978708E+03  0.12458226053E+03  0.00000000000E+00 0. -1.
         11    1    1    2    0    0  0.19244291605E+02  0.22962955279E+02 -0.83843836045E+01  0.31111701383E+02  0.00000000000E+00 0.  1.
<mgrwt>
<rscale>  0 0.11259511E+03</rscale>
<asrwt>0</asrwt>
<pdfrwt beam="2">  1        2 0.44633805E-01 0.12376954E+03</pdfrwt>
<pdfrwt beam="1">  1       -2 0.59395014E-02 0.12376954E+03</pdfrwt>
<totfact> 0.15858803E+04</totfact>
</mgrwt>
</event>
<event>
 7    1  0.4230786E-006  0.1344143E+03  0.7546771E-02  0.1226870E+00
         -2   -1    0    0    0  501 -0.00000000000E+00  0.00000000000E+00  0.33214338200E+02  0.33214338200E+02  0.00000000000E+00 0.  1.
          2   -1    0    0  501    0  0.00000000000E+00 -0.00000000000E+00 -0.49204148747E+03  0.49204148747E+03  0.00000000000E+00 0. -1.
         23    2    1    2    0    0  0.75444938500E+02  0.51509965113E+01 -0.20862344824E+03  0.24817520829E+03  0.11112479177E+03 0.  0.
          5    1    3    3  502    0 -0.14498995725E+02 -0.60433844609E+01 -0.12070916476E+03  0.12181763350E+03  0.47000000000E+01 0. -1.
         -5    1    3    3    0  502  0.89943934225E+02  0.11194380972E+02 -0.87914283471E+02  0.12635757479E+03  0.47000000000E+01 0.  1.
        -11    1    1    2    0    0  0.31531278076E+01  0.31505926941E+02 -0.54679412822E+02  0.63185471700E+02  0.00000000000E+00 0.  1.
         11    1    1    2    0    0 -0.78598066308E+02 -0.36656923452E+02 -0.19552428822E+03  0.21389514568E+03  0.00000000000E+00 0. -1.
<mgrwt>
<rscale>  0 0.13039533E+03</rscale>
<asrwt>0</asrwt>
<pdfrwt beam="2">  1        2 0.75698689E-01 0.13441425E+03</pdfrwt>
<pdfrwt beam="1">  1       -2 0.51098983E-02 0.13441425E+03</pdfrwt>
<totfact> 0.11396090E+04</totfact>
</mgrwt>
</event>
<event>
 7    1  0.4230786E-006  0.1804453E+03  0.7546771E-02  0.1172916E+00
          2   -1    0    0  501    0  0.00000000000E+00  0.00000000000E+00  0.38702845095E+03  0.38702845095E+03  0.00000000000E+00 0. -1.
         -2   -1    0    0    0  501 -0.00000000000E+00 -0.00000000000E+00 -0.76367388052E+02  0.76367388052E+02  0.00000000000E+00 0.  1.
         23    2    1    2    0    0 -0.11227423206E+03  0.67227807348E+02  0.12790023823E+03  0.22117633526E+03  0.12423936202E+03 0.  0.
          5    1    3    3  502    0 -0.76020688467E+02  0.64924831697E+02  0.13419028975E+02  0.10097791434E+03  0.47000000000E+01 0.  1.
         -5    1    3    3    0  502 -0.36253543596E+02  0.23029756513E+01  0.11448120925E+03  0.12019842092E+03  0.47000000000E+01 0.  1.
        -11    1    1    2    0    0  0.94112045902E+02 -0.64727329818E+02  0.84032221203E+02  0.14180309802E+03  0.00000000000E+00 0.  1.
         11    1    1    2    0    0  0.18162186161E+02 -0.25004775303E+01  0.98728603464E+02  0.10041640571E+03  0.00000000000E+00 0. -1.
<mgrwt>
<rscale>  0 0.17481640E+03</rscale>
<asrwt>0</asrwt>
<pdfrwt beam="1">  1        2 0.59542837E-01 0.18044528E+03</pdfrwt>
<pdfrwt beam="2">  1       -2 0.11748829E-01 0.18044528E+03</pdfrwt>
<totfact> 0.41427353E+03</totfact>
</mgrwt>
</event>
<event>
 7    1  0.4230786E-006  0.1275035E+03  0.7546771E-02  0.1245625E+00
         -2   -1    0    0    0  501 -0.00000000000E+00  0.00000000000E+00  0.75963559030E+02  0.75963559030E+02  0.00000000000E+00 0.  1.
          2   -1    0    0  501    0  0.00000000000E+00 -0.00000000000E+00 -0.22616306174E+03  0.22616306174E+03  0.00000000000E+00 0. -1.
         23    2    1    2    0    0 -0.15623239734E+02  0.19697082746E+02 -0.37878149913E+01  0.12755977356E+03  0.12500035039E+03 0.  0.
          5    1    3    3  502    0 -0.30670416621E+02 -0.22889150588E+02 -0.49754088141E+02  0.62945587272E+02  0.47000000000E+01 0.  1.
         -5    1    3    3    0  502  0.15047176887E+02  0.42586233334E+02  0.45966273149E+02  0.64614186284E+02  0.47000000000E+01 0.  1.
        -11    1    1    2    0    0  0.13941729477E+02  0.36241199886E+02 -0.66519241196E+02  0.77023410982E+02  0.00000000000E+00 0. -1.
         11    1    1    2    0    0  0.16815102570E+01 -0.55938282632E+02 -0.79892446519E+02  0.97543436229E+02  0.00000000000E+00 0.  1.
<mgrwt>
<rscale>  0 0.11848023E+03</rscale>
<asrwt>0</asrwt>
<pdfrwt beam="2">  1        2 0.34794317E-01 0.12750352E+03</pdfrwt>
<pdfrwt beam="1">  1       -2 0.11686701E-01 0.12750352E+03</pdfrwt>
<totfact> 0.72648374E+03</totfact>
</mgrwt>
</event>
<event>
 7    1  0.4230786E-006  0.2786700E+03  0.7546771E-02  0.1098229E+00
         -1   -1    0    0    0  501 -0.00000000000E+00  0.00000000000E+00  0.46430852882E+03  0.46430852882E+03  0.00000000000E+00 0.  1.
          1   -1    0    0  501    0  0.00000000000E+00 -0.00000000000E+00 -0.17089378093E+03  0.17089378093E+03  0.00000000000E+00 0. -1.
         23    2    1    2    0    0 -0.24028135199E+03  0.65554220175E+02  0.68410358232E+02  0.28694415732E+03  0.12499795362E+03 0.  0.
          5    1    3    3  502    0 -0.19147271913E+03  0.75826430982E+02  0.98680593172E+02  0.22841059362E+03  0.47000000000E+01 0.  1.
         -5    1    3    3    0  502 -0.48808632854E+02 -0.10272210807E+02 -0.30270234941E+02  0.58533563699E+02  0.47000000000E+01 0.  1.
        -11    1    1    2    0    0  0.84256118983E+02 -0.68430943619E+02  0.10886460755E+03  0.15373155306E+03  0.00000000000E+00 0.  1.
         11    1    1    2    0    0  0.15602523300E+03  0.28767234439E+01  0.11613978211E+03  0.19452659936E+03  0.00000000000E+00 0. -1.
<mgrwt>
<rscale>  0 0.27539870E+03</rscale>
<asrwt>0</asrwt>
<pdfrwt beam="2">  1        1 0.26291351E-01 0.27867001E+03</pdfrwt>
<pdfrwt beam="1">  1       -1 0.71432081E-01 0.27867001E+03</pdfrwt>
<totfact> 0.37060293E+02</totfact>
</mgrwt>
</event>
<event>
 7    1  0.4230786E-006  0.1275659E+03  0.7546771E-02  0.1245525E+00
         -1   -1    0    0    0  501 -0.00000000000E+00  0.00000000000E+00  0.30607517108E+03  0.30607517108E+03  0.00000000000E+00 0.  1.
          1   -1    0    0  501    0  0.00000000000E+00 -0.00000000000E+00 -0.62195731833E+02  0.62195731833E+02  0.00000000000E+00 0. -1.
         23    2    1    2    0    0 -0.12759184424E+02 -0.21999588996E+02  0.24150383534E+03  0.27312481626E+03  0.12500513617E+03 0.  0.
          5    1    3    3  502    0  0.52608502428E+02 -0.12294274280E+02  0.65327372625E+02  0.84903235049E+02  0.47000000000E+01 0. -1.
         -5    1    3    3    0  502 -0.65367686852E+02 -0.97053147159E+01  0.17617646271E+03  0.18822158121E+03  0.47000000000E+01 0. -1.
        -11    1    1    2    0    0  0.24040809342E+02  0.26042739286E+02  0.41297351879E+02  0.54421099360E+02  0.00000000000E+00 0.  1.
         11    1    1    2    0    0 -0.11281624918E+02 -0.40431502900E+01 -0.38921747971E+02  0.40724987295E+02  0.00000000000E+00 0. -1.
<mgrwt>
<rscale>  0 0.11853998E+03</rscale>
<asrwt>0</asrwt>
<pdfrwt beam="2">  1        1 0.95685743E-02 0.12756592E+03</pdfrwt>
<pdfrwt beam="1">  1       -1 0.47088487E-01 0.12756592E+03</pdfrwt>
<totfact> 0.30049783E+03</totfact>
</mgrwt>
</event>
<event>
 7    1  0.4230786E-006  0.1855751E+03  0.7546771E-02  0.1167436E+00
          2   -1    0    0  501    0  0.00000000000E+00  0.00000000000E+00  0.40088021579E+03  0.40088021579E+03  0.00000000000E+00 0. -1.
         -2   -1    0    0    0  501 -0.00000000000E+00 -0.00000000000E+00 -0.77270805750E+02  0.77270805750E+02  0.00000000000E+00 0.  1.
         23    2    1    2    0    0  0.12656295892E+03 -0.52863577843E+02  0.15511289607E+03  0.24186389453E+03  0.12500157006E+03 0.  0.
          5    1    3    3  502    0  0.12059660909E+02  0.36658553972E+02  0.44933824471E+02  0.59417367682E+02  0.47000000000E+01 0. -1.
         -5    1    3    3    0  502  0.11450329801E+03 -0.89522131815E+02  0.11017907160E+03  0.18244652685E+03  0.47000000000E+01 0. -1.
        -11    1    1    2    0    0 -0.75559271528E+02 -0.12711369382E+02  0.49712811188E+02  0.91335349244E+02  0.00000000000E+00 0.  1.
         11    1    1    2    0    0 -0.51003687392E+02  0.65574947225E+02  0.11878370278E+03  0.14495177776E+03  0.00000000000E+00 0. -1.
<mgrwt>
<rscale>  0 0.18038022E+03</rscale>
<asrwt>0</asrwt>
<pdfrwt beam="1">  1        2 0.61673879E-01 0.18557514E+03</pdfrwt>
<pdfrwt beam="2">  1       -2 0.11887816E-01 0.18557514E+03</pdfrwt>
<totfact> 0.39187746E+03</totfact>
</mgrwt>
</event>
<event>
 7    1  0.4230786E-006  0.1319262E+03  0.7546771E-02  0.1235269E+00
          2   -1    0    0  501    0  0.00000000000E+00  0.00000000000E+00  0.64872566460E+03  0.64872566460E+03  0.00000000000E+00 0. -1.
         -2   -1    0    0    0  501 -0.00000000000E+00 -0.00000000000E+00 -0.32525707217E+02  0.32525707217E+02  0.00000000000E+00 0.  1.
         23    2    1    2    0    0  0.41871063353E+02 -0.30442753749E+02  0.13584710771E+03  0.18936461902E+03  0.12134486005E+03 0.  0.
          5    1    3    3  502    0 -0.27273120233E+02  0.28394657636E+02  0.54319190328E+02  0.67251350227E+02  0.47000000000E+01 0. -1.
         -5    1    3    3    0  502  0.69144183586E+02 -0.58837411385E+02  0.81527917385E+02  0.12211326879E+03  0.47000000000E+01 0.  1.
        -11    1    1    2    0    0 -0.66149707339E+02  0.42651010992E+02  0.36027031645E+03  0.36876766864E+03  0.00000000000E+00 0. -1.
         11    1    1    2    0    0  0.24278643985E+02 -0.12208257242E+02  0.12008253322E+03  0.12311908415E+03  0.00000000000E+00 0.  1.
<mgrwt>
<rscale>  0 0.12487255E+03</rscale>
<asrwt>0</asrwt>
<pdfrwt beam="1">  1        2 0.99803939E-01 0.13192620E+03</pdfrwt>
<pdfrwt beam="2">  1       -2 0.50039554E-02 0.13192620E+03</pdfrwt>
<totfact> 0.86093587E+03</totfact>
</mgrwt>
</event>
<event>
 7    1  0.4230786E-006  0.1690894E+03  0.7546771E-02  0.1185364E+00
          1   -1    0    0  501    0  0.00000000000E+00  0.00000000000E+00  0.10444557269E+03  0.10444557269E+03  0.00000000000E+00 0. -1.
         -1   -1    0    0    0  501 -0.00000000000E+00 -0.00000000000E+00 -0.30228361716E+03  0.30228361716E+03  0.00000000000E+00 0.  1.
         23    2    1    2    0    0 -0.78433899296E+02  0.82548612903E+02 -0.19849748903E+03  0.26075365994E+03  0.12500027189E+03 0.  0.
          5    1    3    3  502    0 -0.35763671542E+02  0.10701464775E+03 -0.16883847448E+03  0.20312482738E+03  0.47000000000E+01 0.  1.
         -5    1    3    3    0  502 -0.42670227754E+02 -0.24466034851E+02 -0.29659014549E+02  0.57628832557E+02  0.47000000000E+01 0.  1.
        -11    1    1    2    0    0  0.56474181280E+02 -0.80370017051E+02 -0.34800165139E+02  0.10421000089E+03  0.00000000000E+00 0.  1.
         11    1    1    2    0    0  0.21959718016E+02 -0.21785958521E+01  0.35459609686E+02  0.41765529020E+02  0.00000000000E+00 0. -1.
<mgrwt>
<rscale>  0 0.16298820E+03</rscale>
<asrwt>0</asrwt>
<pdfrwt beam="1">  1        1 0.16068550E-01 0.16908938E+03</pdfrwt>
<pdfrwt beam="2">  1       -1 0.46505172E-01 0.16908938E+03</pdfrwt>
<totfact> 0.15752461E+03</totfact>
</mgrwt>
</event>
<event>
 7    1  0.4230786E-006  0.1279474E+03  0.7546771E-02  0.1244630E+00
         -1   -1    0    0    0  501 -0.00000000000E+00  0.00000000000E+00  0.78472305405E+02  0.78472305405E+02  0.00000000000E+00 0.  1.
          1   -1    0    0  501    0  0.00000000000E+00 -0.00000000000E+00 -0.16125960054E+03  0.16125960054E+03  0.00000000000E+00 0. -1.
         23    2    1    2    0    0  0.39488742638E+02 -0.92868178611E+01 -0.35777910228E+02  0.13285553461E+03  0.12134631611E+03 0.  0.
          5    1    3    3  502    0  0.59983231457E+02  0.27504690055E+02 -0.55275777787E+02  0.86209034567E+02  0.47000000000E+01 0. -1.
         -5    1    3    3    0  502 -0.20494488819E+02 -0.36791507916E+02  0.19497867559E+02  0.46646500041E+02  0.47000000000E+01 0.  1.
        -11    1    1    2    0    0 -0.37387078147E+02 -0.32208578819E+02 -0.42421762502E+02  0.65075280220E+02  0.00000000000E+00 0.  1.
         11    1    1    2    0    0 -0.21016644904E+01  0.41495396681E+02 -0.45876224051E+01  0.41801091118E+02  0.00000000000E+00 0. -1.
<mgrwt>
<rscale>  0 0.11907533E+03</rscale>
<asrwt>0</asrwt>
<pdfrwt beam="2">  1        1 0.24809169E-01 0.12794739E+03</pdfrwt>
<pdfrwt beam="1">  1       -1 0.12072662E-01 0.12794739E+03</pdfrwt>
<totfact> 0.82494273E+03</totfact>
</mgrwt>
</event>
<event>
 7    1  0.4230786E-006  0.1271438E+03  0.7546771E-02  0.1245615E+00
         -2   -1    0    0    0  501 -0.00000000000E+00  0.00000000000E+00  0.18868874448E+02  0.18868874448E+02  0.00000000000E+00 0.  1.
          2   -1    0    0  501    0  0.00000000000E+00 -0.00000000000E+00 -0.66816494785E+03  0.66816494785E+03  0.00000000000E+00 0. -1.
         23    2    1    2    0    0  0.12655420453E+02 -0.19527741299E+02 -0.40914495877E+03  0.42844501604E+03  0.12499616848E+03 0.  0.
          5    1    3    3  502    0  0.22584230937E+02 -0.27995169412E+02 -0.25012781246E+02  0.44062526290E+02  0.47000000000E+01 0.  1.
         -5    1    3    3    0  502 -0.99288104835E+01  0.84674281127E+01 -0.38413217752E+03  0.38438248975E+03  0.47000000000E+01 0.  1.
        -11    1    1    2    0    0 -0.38023199111E+02  0.37294070470E+02 -0.20469858689E+03  0.21151388332E+03  0.00000000000E+00 0. -1.
         11    1    1    2    0    0  0.25367778658E+02 -0.17766329170E+02 -0.35452527741E+02  0.47074922936E+02  0.00000000000E+00 0.  1.
<mgrwt>
<rscale>  0 0.11848650E+03</rscale>
<asrwt>0</asrwt>
<pdfrwt beam="2">  1        2 0.10279461E+00 0.12714376E+03</pdfrwt>
<pdfrwt beam="1">  1       -2 0.29029037E-02 0.12714376E+03</pdfrwt>
<totfact> 0.18591643E+04</totfact>
</mgrwt>
</event>
<event>
 7    1  0.4230786E-006  0.1699541E+03  0.7546771E-02  0.1185352E+00
         -1   -1    0    0    0  501 -0.00000000000E+00  0.00000000000E+00  0.31772990115E+02  0.31772990115E+02  0.00000000000E+00 0.  1.
          1   -1    0    0  501    0  0.00000000000E+00 -0.00000000000E+00 -0.79268879374E+03  0.79268879374E+03  0.00000000000E+00 0. -1.
         23    2    1    2    0    0 -0.12663780547E+02 -0.11511113932E+03 -0.34930572715E+03  0.38845707065E+03  0.12439235904E+03 0.  0.
          5    1    3    3  502    0  0.14935525688E+02  0.13934424119E+02 -0.13586289962E+03  0.13747019894E+03  0.47000000000E+01 0. -1.
         -5    1    3    3    0  502 -0.27599306235E+02 -0.12904556344E+03 -0.21344282753E+03  0.25098687172E+03  0.47000000000E+01 0.  1.
        -11    1    1    2    0    0  0.29781373278E+02  0.35361427873E+02 -0.63990491774E+02  0.78943928285E+02  0.00000000000E+00 0.  1.
         11    1    1    2    0    0 -0.17117592731E+02  0.79749711451E+02 -0.34761958470E+03  0.35706078492E+03  0.00000000000E+00 0. -1.
<mgrwt>
<rscale>  0 0.16299917E+03</rscale>
<asrwt>0</asrwt>
<pdfrwt beam="2">  1        1 0.12195212E+00 0.16995413E+03</pdfrwt>
<pdfrwt beam="1">  1       -1 0.48881523E-02 0.16995413E+03</pdfrwt>
<totfact> 0.41838199E+03</totfact>
</mgrwt>
</event>
<event>
 7    1  0.4230786E-006  0.1260395E+03  0.7546771E-02  0.1247057E+00
          1   -1    0    0  501    0  0.00000000000E+00  0.00000000000E+00  0.74600000436E+02  0.74600000436E+02  0.00000000000E+00 0. -1.
         -1   -1    0    0    0  501 -0.00000000000E+00 -0.00000000000E+00 -0.20437337788E+03  0.20437337788E+03  0.00000000000E+00 0.  1.
         23    2    1    2    0    0 -0.11981236066E+02  0.10866773614E+02 -0.13307854620E+03  0.18329171256E+03  0.12499726256E+03 0.  0.
          5    1    3    3  502    0  0.55227055331E+02  0.16909361907E+02 -0.69136849505E+02  0.90210576543E+02  0.47000000000E+01 0.  1.
         -5    1    3    3    0  502 -0.67208291397E+02 -0.60425882932E+01 -0.63941696694E+02  0.93081136015E+02  0.47000000000E+01 0.  1.
        -11    1    1    2    0    0  0.52073106699E+02 -0.16753007571E+02  0.62261555671E+01  0.55054851894E+02  0.00000000000E+00 0.  1.
         11    1    1    2    0    0 -0.40091870633E+02  0.58862339574E+01 -0.29209868147E+01  0.40626813867E+02  0.00000000000E+00 0. -1.
<mgrwt>
<rscale>  0 0.11763115E+03</rscale>
<asrwt>0</asrwt>
<pdfrwt beam="1">  1        1 0.11476923E-01 0.12603949E+03</pdfrwt>
<pdfrwt beam="2">  1       -1 0.31442058E-01 0.12603949E+03</pdfrwt>
<totfact> 0.47705842E+03</totfact>
</mgrwt>
</event>
<event>
 6    1  0.4230786E-006  0.3718854E+03  0.7546771E-02  0.1053974E+00
          1   -1    0    0  501    0  0.00000000000E+00  0.00000000000E+00  0.68943636941E+03  0.68943636941E+03  0.00000000000E+00 0. -1.
         -1   -1    0    0    0  501 -0.00000000000E+00 -0.00000000000E+00 -0.50149220051E+02  0.50149220051E+02  0.00000000000E+00 0.  1.
          5    1    1    2  502    0  0.31387214453E+02 -0.13929941083E+02  0.15175562746E+02  0.37836334314E+02  0.47000000000E+01 0. -1.
         -5    1    1    2    0  502 -0.13530812572E+03  0.75996712686E+02  0.22050431738E+03  0.26968135495E+03  0.47000000000E+01 0.  1.
        -11    1    1    2    0    0  0.60649843078E+02 -0.23475365065E+02  0.33932339304E+03  0.34549943747E+03  0.00000000000E+00 0.  1.
         11    1    1    2    0    0  0.43271068185E+02 -0.38591406539E+02  0.64283876204E+02  0.86568462735E+02  0.00000000000E+00 0. -1.
<mgrwt>
<rscale>  0 0.37188545E+03</rscale>
<asrwt>0</asrwt>
<pdfrwt beam="1">  1        1 0.10606713E+00 0.37188545E+03</pdfrwt>
<pdfrwt beam="2">  1       -1 0.77152651E-02 0.37188545E+03</pdfrwt>
<totfact> 0.26327727E+03</totfact>
</mgrwt>
</event>
<event>
 7    1  0.4230786E-006  0.1464244E+03  0.7546771E-02  0.1214073E+00
         -1   -1    0    0    0  501 -0.00000000000E+00  0.00000000000E+00  0.29728788260E+03  0.29728788260E+03  0.00000000000E+00 0.  1.
          1   -1    0    0  501    0  0.00000000000E+00 -0.00000000000E+00 -0.62624401651E+02  0.62624401651E+02  0.00000000000E+00 0. -1.
         23    2    1    2    0    0 -0.30297015613E+02 -0.69985370782E+02  0.16566142239E+03  0.22109683628E+03  0.12499697143E+03 0.  0.
          5    1    3    3  502    0 -0.25271789581E+02 -0.10273191708E+03  0.92351020543E+02  0.14051089328E+03  0.47000000000E+01 0.  1.
         -5    1    3    3    0  502 -0.50252260318E+01  0.32746546295E+02  0.73310401846E+02  0.80585943003E+02  0.47000000000E+01 0.  1.
        -11    1    1    2    0    0  0.36716474337E+02  0.47794723358E+02  0.89520438396E+02  0.10791822811E+03  0.00000000000E+00 0.  1.
         11    1    1    2    0    0 -0.64194587240E+01  0.22190647424E+02 -0.20518379838E+02  0.30897219852E+02  0.00000000000E+00 0. -1.
<mgrwt>
<rscale>  0 0.13944813E+03</rscale>
<asrwt>0</asrwt>
<pdfrwt beam="2">  1        1 0.96345235E-02 0.14642440E+03</pdfrwt>
<pdfrwt beam="1">  1       -1 0.45736597E-01 0.14642440E+03</pdfrwt>
<totfact> 0.31611247E+03</totfact>
</mgrwt>
</event>
<event>
 7    1  0.4230786E-006  0.1912139E+03  0.7546771E-02  0.1162110E+00
          1   -1    0    0  501    0  0.00000000000E+00  0.00000000000E+00  0.52458516929E+02  0.52458516929E+02  0.00000000000E+00 0. -1.
         -1   -1    0    0    0  501 -0.00000000000E+00 -0.00000000000E+00 -0.63206708024E+03  0.63206708024E+03  0.00000000000E+00 0.  1.
         23    2    1    2    0    0  0.42041537515E+02 -0.13846014493E+03 -0.33894817035E+03  0.38916397685E+03  0.12499614426E+03 0.  0.
          5    1    3    3  502    0 -0.14272787715E+02 -0.10078889658E+03 -0.28423954278E+03  0.30195417173E+03  0.47000000000E+01 0.  1.
         -5    1    3    3    0  502  0.56314325230E+02 -0.37671248347E+02 -0.54708627574E+02  0.87209805120E+02  0.47000000000E+01 0.  1.
        -11    1    1    2    0    0 -0.29056583533E+02  0.63522707956E+02 -0.19386138036E+03  0.20606225823E+03  0.00000000000E+00 0.  1.
         11    1    1    2    0    0 -0.12984953982E+02  0.74937436972E+02 -0.46799012601E+02  0.89299362093E+02  0.00000000000E+00 0. -1.
<mgrwt>
<rscale>  0 0.18601030E+03</rscale>
<asrwt>0</asrwt>
<pdfrwt beam="1">  1        1 0.80705413E-02 0.19121386E+03</pdfrwt>
<pdfrwt beam="2">  1       -1 0.97241086E-01 0.19121386E+03</pdfrwt>
<totfact> 0.91575081E+02</totfact>
</mgrwt>
</event>
<event>
 7    1  0.4230786E-006  0.1601656E+03  0.7546771E-02  0.1196784E+00
         -3   -1    0    0    0  501 -0.00000000000E+00  0.00000000000E+00  0.24948427218E+03  0.24948427218E+03  0.00000000000E+00 0.  1.
          3   -1    0    0  501    0  0.00000000000E+00 -0.00000000000E+00 -0.93384294299E+02  0.93384294299E+02  0.00000000000E+00 0. -1.
         23    2    1    2    0    0 -0.98352950082E+00 -0.10014429181E+03  0.13121886568E+03  0.20705412394E+03  0.12499269187E+03 0.  0.
          5    1    3    3  502    0 -0.79286847224E+00 -0.12223337507E+03  0.13707722170E+03  0.18372229405E+03  0.47000000000E+01 0.  1.
         -5    1    3    3    0  502 -0.19066102858E+00  0.22089083260E+02 -0.58583560263E+01  0.23331829894E+02  0.47000000000E+01 0.  1.
        -11    1    1    2    0    0 -0.65695938883E+01  0.23939743254E+02  0.49500218553E+02  0.55376371385E+02  0.00000000000E+00 0.  1.
         11    1    1    2    0    0  0.75531233891E+01  0.76204548553E+02 -0.24619106349E+02  0.80438071151E+02  0.00000000000E+00 0. -1.
<mgrwt>
<rscale>  0 0.15304184E+03</rscale>
<asrwt>0</asrwt>
<pdfrwt beam="2">  1        3 0.14366815E-01 0.16016560E+03</pdfrwt>
<pdfrwt beam="1">  1       -3 0.38382196E-01 0.16016560E+03</pdfrwt>
<totfact> 0.63763929E+02</totfact>
</mgrwt>
</event>
<event>
 7    1  0.4230786E-006  0.1827837E+03  0.7546771E-02  0.1170562E+00
         -1   -1    0    0    0  501 -0.00000000000E+00  0.00000000000E+00  0.50492506884E+03  0.50492506884E+03  0.00000000000E+00 0.  1.
          1   -1    0    0  501    0  0.00000000000E+00 -0.00000000000E+00 -0.13089860330E+03  0.13089860330E+03  0.00000000000E+00 0. -1.
         23    2    1    2    0    0 -0.12007385503E+03  0.58038001367E+02  0.42821708074E+03  0.46559611029E+03  0.12499491753E+03 0.  0.
          5    1    3    3  502    0  0.11388864524E+02  0.69760939223E+00  0.16784598125E+03  0.16829900866E+03  0.47000000000E+01 0. -1.
         -5    1    3    3    0  502 -0.13146271956E+03  0.57340391975E+02  0.26037109949E+03  0.29729710163E+03  0.47000000000E+01 0. -1.
        -11    1    1    2    0    0  0.57968737240E+02  0.18618574684E+01 -0.60377417577E+02  0.83721404453E+02  0.00000000000E+00 0. -1.
         11    1    1    2    0    0  0.62105117794E+02 -0.59899858836E+02  0.61868023705E+01  0.86506157401E+02  0.00000000000E+00 0.  1.
<mgrwt>
<rscale>  0 0.17717802E+03</rscale>
<asrwt>0</asrwt>
<pdfrwt beam="2">  1        1 0.20138247E-01 0.18278367E+03</pdfrwt>
<pdfrwt beam="1">  1       -1 0.77680779E-01 0.18278367E+03</pdfrwt>
<totfact> 0.44090437E+02</totfact>
</mgrwt>
</event>
<event>
 7    1  0.4230786E-006  0.1312661E+03  0.7546771E-02  0.1238456E+00
          2   -1    0    0  501    0  0.00000000000E+00  0.00000000000E+00  0.45220096832E+03  0.45220096832E+03  0.00000000000E+00 0. -1.
         -2   -1    0    0    0  501 -0.00000000000E+00 -0.00000000000E+00 -0.31354067690E+02  0.31354067690E+02  0.00000000000E+00 0.  1.
         23    2    1    2    0    0  0.38849571745E+02  0.92327496553E+01  0.18256150611E+03  0.22485436472E+03  0.12504498762E+03 0.  0.
          5    1    3    3  502    0  0.79150422141E+02 -0.19199480948E+02  0.11857809294E+03  0.14393145424E+03  0.47000000000E+01 0.  1.
         -5    1    3    3    0  502 -0.40300850396E+02  0.28432230603E+02  0.63983413172E+02  0.80922910482E+02  0.47000000000E+01 0.  1.
        -11    1    1    2    0    0  0.75876929590E+01  0.31569358292E+02  0.13019567883E+03  0.13418312954E+03  0.00000000000E+00 0. -1.
         11    1    1    2    0    0 -0.46437264704E+02 -0.40802107947E+02  0.10808971569E+03  0.12451754176E+03  0.00000000000E+00 0.  1.
<mgrwt>
<rscale>  0 0.12285754E+03</rscale>
<asrwt>0</asrwt>
<pdfrwt beam="1">  1        2 0.69569375E-01 0.13126607E+03</pdfrwt>
<pdfrwt beam="2">  1       -2 0.48237031E-02 0.13126607E+03</pdfrwt>
<totfact> 0.13596181E+04</totfact>
</mgrwt>
</event>
<event>
 7    1  0.4230786E-006  0.1292579E+03  0.7546771E-02  0.1243392E+00
          1   -1    0    0  501    0  0.00000000000E+00  0.00000000000E+00  0.21073080534E+03  0.21073080534E+03  0.00000000000E+00 0. -1.
         -1   -1    0    0    0  501 -0.00000000000E+00 -0.00000000000E+00 -0.61798773727E+02  0.61798773727E+02  0.00000000000E+00 0.  1.
         23    2    1    2    0    0 -0.15337822333E+02  0.29115810717E+02  0.61715388930E+02  0.14323547809E+03  0.12499853489E+03 0.  0.
          5    1    3    3  502    0 -0.68957578619E+02  0.23014414627E+02  0.22105425008E+02  0.76128514660E+02  0.47000000000E+01 0.  1.
         -5    1    3    3    0  502  0.53619756285E+02  0.61013960902E+01  0.39609963922E+02  0.67106963426E+02  0.47000000000E+01 0.  1.
        -11    1    1    2    0    0 -0.14345251904E+02  0.27535271646E+02  0.34482754834E+02  0.46400838545E+02  0.00000000000E+00 0.  1.
         11    1    1    2    0    0  0.29683074237E+02 -0.56651082363E+02  0.52733887845E+02  0.82893262430E+02  0.00000000000E+00 0. -1.
<mgrwt>
<rscale>  0 0.11982130E+03</rscale>
<asrwt>0</asrwt>
<pdfrwt beam="1">  1        1 0.32420124E-01 0.12925793E+03</pdfrwt>
<pdfrwt beam="2">  1       -1 0.95075037E-02 0.12925793E+03</pdfrwt>
<totfact> 0.85271749E+03</totfact>
</mgrwt>
</event>
<event>
 7    1  0.4230786E-006  0.1256126E+03  0.7546771E-02  0.1250269E+00
          2   -1    0    0  501    0  0.00000000000E+00  0.00000000000E+00  0.75913530443E+03  0.75913530443E+03  0.00000000000E+00 0. -1.
         -2   -1    0    0    0  501 -0.00000000000E+00 -0.00000000000E+00 -0.15610807509E+02  0.15610807509E+02  0.00000000000E+00 0.  1.
         23    2    1    2    0    0  0.79761237778E+01  0.99043807475E+01  0.38600062587E+03  0.40592489452E+03  0.12496728175E+03 0.  0.
          5    1    3    3  502    0 -0.12874456395E+02  0.61463572651E+02  0.26928944829E+03  0.27655455040E+03  0.47000000000E+01 0. -1.
         -5    1    3    3    0  502  0.20850580173E+02 -0.51559191903E+02  0.11671117758E+03  0.12937034411E+03  0.47000000000E+01 0. -1.
        -11    1    1    2    0    0  0.25429183183E+02  0.25396858751E+02  0.89856118163E+02  0.96776886513E+02  0.00000000000E+00 0.  1.
         11    1    1    2    0    0 -0.33405306961E+02 -0.35301239498E+02  0.26766775289E+03  0.27204433091E+03  0.00000000000E+00 0. -1.
<mgrwt>
<rscale>  0 0.11575505E+03</rscale>
<asrwt>0</asrwt>
<pdfrwt beam="1">  1        2 0.11679002E+00 0.12561265E+03</pdfrwt>
<pdfrwt beam="2">  1       -2 0.24016633E-02 0.12561265E+03</pdfrwt>
<totfact> 0.21044346E+04</totfact>
</mgrwt>
</event>
<event>
 7    1  0.4230786E-006  0.1474841E+03  0.7546771E-02  0.1217346E+00
          2   -1    0    0  501    0  0.00000000000E+00  0.00000000000E+00  0.76176969575E+03  0.76176969575E+03  0.00000000000E+00 0. -1.
         -2   -1    0    0    0  501 -0.00000000000E+00 -0.00000000000E+00 -0.22256435390E+02  0.22256435390E+02  0.00000000000E+00 0.  1.
         23    2    1    2    0    0 -0.57520262581E+02  0.53082276170E+02  0.36424777295E+03  0.39297327724E+03  0.12500099151E+03 0.  0.
          5    1    3    3  502    0  0.51120427121E+01  0.29344642251E+02  0.90484696435E+01  0.31483421231E+02  0.47000000000E+01 0.  1.
         -5    1    3    3    0  502 -0.62632305293E+02  0.23737633919E+02  0.35519930331E+03  0.36148985601E+03  0.47000000000E+01 0.  1.
        -11    1    1    2    0    0  0.31629705274E+02  0.33216498408E+01  0.45593142230E+02  0.55589623419E+02  0.00000000000E+00 0.  1.
         11    1    1    2    0    0  0.25890557307E+02 -0.56403926011E+02  0.32967234518E+03  0.33546323048E+03  0.00000000000E+00 0. -1.
<mgrwt>
<rscale>  0 0.13705622E+03</rscale>
<asrwt>0</asrwt>
<pdfrwt beam="1">  1        2 0.11719532E+00 0.14748409E+03</pdfrwt>
<pdfrwt beam="2">  1       -2 0.34240676E-02 0.14748409E+03</pdfrwt>
<totfact> 0.12600272E+04</totfact>
</mgrwt>
</event>
<event>
 7    1  0.4230786E-006  0.1598661E+03  0.7546771E-02  0.1195339E+00
         -2   -1    0    0    0  501 -0.00000000000E+00  0.00000000000E+00  0.94842316174E+02  0.94842316174E+02  0.00000000000E+00 0.  1.
          2   -1    0    0  501    0  0.00000000000E+00 -0.00000000000E+00 -0.23498333814E+03  0.23498333814E+03  0.00000000000E+00 0. -1.
         23    2    1    2    0    0 -0.17976667027E+02  0.97984380387E+02 -0.79857293156E+02  0.17870184800E+03  0.12503225125E+03 0.  0.
          5    1    3    3  502    0  0.34019334396E+02  0.20491998308E+02  0.17595699984E+02  0.43691369460E+02  0.47000000000E+01 0. -1.
         -5    1    3    3    0  502 -0.51996001423E+02  0.77492382079E+02 -0.97452993140E+02  0.13501047854E+03  0.47000000000E+01 0. -1.
        -11    1    1    2    0    0  0.48122900276E+02 -0.50370306333E+02 -0.14846223529E+01  0.69679160403E+02  0.00000000000E+00 0.  1.
         11    1    1    2    0    0 -0.30146233249E+02 -0.47614074054E+02 -0.58799106458E+02  0.81444645910E+02  0.00000000000E+00 0. -1.
<mgrwt>
<rscale>  0 0.15425597E+03</rscale>
<asrwt>0</asrwt>
<pdfrwt beam="2">  1        2 0.36151282E-01 0.15986608E+03</pdfrwt>
<pdfrwt beam="1">  1       -2 0.14591126E-01 0.15986608E+03</pdfrwt>
<totfact> 0.49455552E+03</totfact>
</mgrwt>
</event>
<event>
 7    1  0.4230786E-006  0.1652350E+03  0.7546771E-02  0.1189934E+00
         -2   -1    0    0    0  501 -0.00000000000E+00  0.00000000000E+00  0.39849047784E+02  0.39849047784E+02  0.00000000000E+00 0.  1.
          2   -1    0    0  501    0  0.00000000000E+00 -0.00000000000E+00 -0.73070548126E+03  0.73070548126E+03  0.00000000000E+00 0. -1.
         23    2    1    2    0    0  0.39926019895E+02  0.10041518224E+03 -0.19830526664E+03  0.25812318858E+03  0.12500122325E+03 0.  0.
          5    1    3    3  502    0 -0.13381546588E+02 -0.87433718428E+01  0.81390298788E+01  0.18543088945E+02  0.47000000000E+01 0.  1.
         -5    1    3    3    0  502  0.53307566483E+02  0.10915855409E+03 -0.20644429652E+03  0.23958009963E+03  0.47000000000E+01 0.  1.
        -11    1    1    2    0    0 -0.65004315315E+02 -0.75526286739E+02 -0.42099391305E+03  0.43262646223E+03  0.00000000000E+00 0.  1.
         11    1    1    2    0    0  0.25078295420E+02 -0.24888895504E+02 -0.71557253785E+02  0.79804878234E+02  0.00000000000E+00 0. -1.
<mgrwt>
<rscale>  0 0.15890913E+03</rscale>
<asrwt>0</asrwt>
<pdfrwt beam="2">  1        2 0.11241622E+00 0.16523499E+03</pdfrwt>
<pdfrwt beam="1">  1       -2 0.61306232E-02 0.16523499E+03</pdfrwt>
<totfact> 0.55641570E+03</totfact>
</mgrwt>
</event>
<event>
 6    1  0.4230786E-006  0.1556237E+03  0.7546771E-02  0.1207894E+00
         -2   -1    0    0    0  501 -0.00000000000E+00  0.00000000000E+00  0.17644880081E+03  0.17644880081E+03  0.00000000000E+00 0. -1.
          2   -1    0    0  501    0  0.00000000000E+00 -0.00000000000E+00 -0.11932005223E+03  0.11932005223E+03  0.00000000000E+00 0.  1.
          5    1    1    2  502    0 -0.90744396836E+01  0.39368346022E+02  0.46256919472E+01  0.40935304445E+02  0.47000000000E+01 0. -1.
         -5    1    1    2    0  502  0.52478840039E+02 -0.96636832399E+02  0.81270162234E+02  0.13681971823E+03  0.47000000000E+01 0.  1.
        -11    1    1    2    0    0 -0.55164655918E+02  0.47458543714E+02 -0.52526230953E+02  0.89746629865E+02  0.00000000000E+00 0. -1.
         11    1    1    2    0    0  0.11760255563E+02  0.98099426633E+01  0.23759125353E+02  0.28267200489E+02  0.00000000000E+00 0.  1.
<mgrwt>
<rscale>  0 0.14411681E+03</rscale>
<asrwt>0</asrwt>
<pdfrwt beam="2">  1        2 0.18356931E-01 0.15562375E+03</pdfrwt>
<pdfrwt beam="1">  1       -2 0.27145970E-01 0.15562375E+03</pdfrwt>
<totfact> 0.36393056E+03</totfact>
</mgrwt>
</event>
<event>
 7    1  0.4230786E-006  0.1475884E+03  0.7546771E-02  0.1211442E+00
          1   -1    0    0  501    0  0.00000000000E+00  0.00000000000E+00  0.30923199924E+03  0.30923199924E+03  0.00000000000E+00 0. -1.
         -1   -1    0    0    0  501 -0.00000000000E+00 -0.00000000000E+00 -0.60034580958E+02  0.60034580958E+02  0.00000000000E+00 0.  1.
         23    2    1    2    0    0 -0.32031092146E+02  0.71637495084E+02  0.14661498474E+03  0.20803431725E+03  0.12499760733E+03 0.  0.
          5    1    3    3  502    0 -0.19831751635E+02 -0.17594345656E+02 -0.88185858907E+01  0.28332257748E+02  0.47000000000E+01 0. -1.
         -5    1    3    3    0  502 -0.12199340511E+02  0.89231840740E+02  0.15543357063E+03  0.17970205951E+03  0.47000000000E+01 0. -1.
        -11    1    1    2    0    0  0.23444093660E+02 -0.10858831466E+02  0.96095455613E+02  0.99508172217E+02  0.00000000000E+00 0. -1.
         11    1    1    2    0    0  0.85869984854E+01 -0.60778663618E+02  0.64869779307E+01  0.61724090733E+02  0.00000000000E+00 0.  1.
<mgrwt>
<rscale>  0 0.14141152E+03</rscale>
<asrwt>0</asrwt>
<pdfrwt beam="1">  1        1 0.47574153E-01 0.14758836E+03</pdfrwt>
<pdfrwt beam="2">  1       -1 0.92360896E-02 0.14758836E+03</pdfrwt>
<totfact> 0.55919893E+03</totfact>
</mgrwt>
</event>
<event>
 7    1  0.4230786E-006  0.1390084E+03  0.7546771E-02  0.1227043E+00
          1   -1    0    0  501    0  0.00000000000E+00  0.00000000000E+00  0.41257556771E+03  0.41257556771E+03  0.00000000000E+00 0. -1.
         -1   -1    0    0    0  501 -0.00000000000E+00 -0.00000000000E+00 -0.40568011101E+02  0.40568011101E+02  0.00000000000E+00 0.  1.
         23    2    1    2    0    0 -0.57861928437E+02 -0.18654077886E+02  0.13870712847E+03  0.19637462039E+03  0.12500938629E+03 0.  0.
          5    1    3    3  502    0  0.15596382412E+02 -0.14359742672E+02 -0.14662360201E+02  0.26201606069E+02  0.47000000000E+01 0. -1.
         -5    1    3    3    0  502 -0.73458310849E+02 -0.42943352144E+01  0.15336948867E+03  0.17017301432E+03  0.47000000000E+01 0. -1.
        -11    1    1    2    0    0 -0.13453289976E+02  0.30029670535E+02  0.98377434907E+02  0.10373471850E+03  0.00000000000E+00 0. -1.
         11    1    1    2    0    0  0.71315218414E+02 -0.11375592649E+02  0.13492299323E+03  0.15303423992E+03  0.00000000000E+00 0.  1.
<mgrwt>
<rscale>  0 0.13027876E+03</rscale>
<asrwt>0</asrwt>
<pdfrwt beam="1">  1        1 0.63473161E-01 0.13900836E+03</pdfrwt>
<pdfrwt beam="2">  1       -1 0.62412328E-02 0.13900836E+03</pdfrwt>
<totfact> 0.70108017E+03</totfact>
</mgrwt>
</event>
<event>
 7    1  0.4230786E-006  0.1300792E+03  0.7546771E-02  0.1242173E+00
          1   -1    0    0  501    0  0.00000000000E+00  0.00000000000E+00  0.12356669235E+03  0.12356669235E+03  0.00000000000E+00 0. -1.
         -1   -1    0    0    0  501 -0.00000000000E+00 -0.00000000000E+00 -0.10364093874E+03  0.10364093874E+03  0.00000000000E+00 0.  1.
         23    2    1    2    0    0 -0.92960113665E+01  0.34790260363E+02  0.60268127447E+01  0.13021878497E+03  0.12499532569E+03 0.  0.
          5    1    3    3  502    0 -0.97705870008E+01 -0.46586113163E+02  0.89121750385E+01  0.48654364387E+02  0.47000000000E+01 0. -1.
         -5    1    3    3    0  502  0.47457563425E+00  0.81376373526E+02 -0.28853622938E+01  0.81564420588E+02  0.47000000000E+01 0. -1.
        -11    1    1    2    0    0 -0.23065198074E+02 -0.50610403415E+02 -0.58223078054E+01  0.55922406638E+02  0.00000000000E+00 0.  1.
         11    1    1    2    0    0  0.32361209441E+02  0.15820143052E+02  0.19721248667E+02  0.41066439481E+02  0.00000000000E+00 0. -1.
<mgrwt>
<rscale>  0 0.12056188E+03</rscale>
<asrwt>0</asrwt>
<pdfrwt beam="1">  1        1 0.19010260E-01 0.13007924E+03</pdfrwt>
<pdfrwt beam="2">  1       -1 0.15944760E-01 0.13007924E+03</pdfrwt>
<totfact> 0.74987007E+03</totfact>
</mgrwt>
</event>
<event>
 7    1  0.4230786E-006  0.1282173E+03  0.7546771E-02  0.1244660E+00
          2   -1    0    0  501    0  0.00000000000E+00  0.00000000000E+00  0.74639800409E+02  0.74639800409E+02  0.00000000000E+00 0. -1.
         -2   -1    0    0    0  501 -0.00000000000E+00 -0.00000000000E+00 -0.21589772713E+03  0.21589772713E+03  0.00000000000E+00 0.  1.
         23    2    1    2    0    0 -0.67534986341E+01  0.27740759387E+02 -0.14697978201E+03  0.19504547073E+03  0.12499807941E+03 0.  0.
          5    1    3    3  502    0  0.54914749226E+02 -0.87426570926E+01 -0.73763659898E+02  0.92494493117E+02  0.47000000000E+01 0.  1.
         -5    1    3    3    0  502 -0.61668247860E+02  0.36483416480E+02 -0.73216122109E+02  0.10255097761E+03  0.47000000000E+01 0.  1.
        -11    1    1    2    0    0 -0.32387621211E+02 -0.35796702366E+02 -0.14903085777E+02  0.50521914786E+02  0.00000000000E+00 0.  1.
         11    1    1    2    0    0  0.39141119845E+02  0.80559429787E+01  0.20624941063E+02  0.44970142026E+02  0.00000000000E+00 0. -1.
<mgrwt>
<rscale>  0 0.11905744E+03</rscale>
<asrwt>0</asrwt>
<pdfrwt beam="1">  1        2 0.11483046E-01 0.12821731E+03</pdfrwt>
<pdfrwt beam="2">  1       -2 0.33215035E-01 0.12821731E+03</pdfrwt>
<totfact> 0.43437276E+03</totfact>
</mgrwt>
</event>
<event>
 7    1  0.4230786E-006  0.1708908E+03  0.7546771E-02  0.1182982E+00
         -3   -1    0    0    0  501 -0.00000000000E+00  0.00000000000E+00  0.82840388232E+02  0.82840388232E+02  0.00000000000E+00 0.  1.
          3   -1    0    0  501    0  0.00000000000E+00 -0.00000000000E+00 -0.31186498540E+03  0.31186498540E+03  0.00000000000E+00 0. -1.
         23    2    1    2    0    0 -0.53341991925E+02 -0.10360634134E+03 -0.10356681569E+03  0.19982430459E+03  0.12499610124E+03 0.  0.
          5    1    3    3  502    0  0.14349585215E+02  0.17616508127E+02  0.47286123297E+01  0.23679141221E+02  0.47000000000E+01 0.  1.
         -5    1    3    3    0  502 -0.67691577140E+02 -0.12122284946E+03 -0.10829542802E+03  0.17614516337E+03  0.47000000000E+01 0.  1.
        -11    1    1    2    0    0  0.47508097343E+02  0.22065577702E+01 -0.40269149221E+02  0.62317674774E+02  0.00000000000E+00 0.  1.
         11    1    1    2    0    0  0.58338945822E+01  0.10139978357E+03 -0.85188632259E+02  0.13256339427E+03  0.00000000000E+00 0. -1.
<mgrwt>
<rscale>  0 0.16516894E+03</rscale>
<asrwt>0</asrwt>
<pdfrwt beam="2">  1        3 0.47979228E-01 0.17089081E+03</pdfrwt>
<pdfrwt beam="1">  1       -3 0.12744675E-01 0.17089081E+03</pdfrwt>
<totfact> 0.50987747E+02</totfact>
</mgrwt>
</event>
<event>
 7    1  0.4230786E-006  0.3438516E+03  0.7546771E-02  0.1066050E+00
         -3   -1    0    0    0  501 -0.00000000000E+00  0.00000000000E+00  0.12271335210E+04  0.12271335210E+04  0.00000000000E+00 0. -1.
          3   -1    0    0  501    0  0.00000000000E+00 -0.00000000000E+00 -0.10193394791E+03  0.10193394791E+03  0.00000000000E+00 0.  1.
         23    2    1    2    0    0 -0.31642141991E+03 -0.49848570732E+02  0.75386964963E+03  0.82858516125E+03  0.12500610317E+03 0.  0.
          5    1    3    3  502    0 -0.28955547056E+03 -0.58971245100E+02  0.73963990737E+03  0.79649812357E+03  0.47000000000E+01 0. -1.
         -5    1    3    3    0  502 -0.26865949351E+02  0.91226743678E+01  0.14229742259E+02  0.32087037678E+02  0.47000000000E+01 0. -1.
        -11    1    1    2    0    0  0.30664945234E+03  0.64172087345E+02  0.36714271882E+03  0.48264450623E+03  0.00000000000E+00 0. -1.
         11    1    1    2    0    0  0.97719675687E+01 -0.14323516613E+02  0.41872046904E+01  0.17837801475E+02  0.00000000000E+00 0.  1.
<mgrwt>
<rscale>  0 0.34175821E+03</rscale>
<asrwt>0</asrwt>
<pdfrwt beam="2">  1        3 0.15682147E-01 0.34385160E+03</pdfrwt>
<pdfrwt beam="1">  1       -3 0.18878976E+00 0.34385160E+03</pdfrwt>
<totfact> 0.16052577E+01</totfact>
</mgrwt>
</event>
<event>
 7    1  0.4230786E-006  0.1555387E+03  0.7546771E-02  0.1202597E+00
         -1   -1    0    0    0  501 -0.00000000000E+00  0.00000000000E+00  0.37805958531E+02  0.37805958531E+02  0.00000000000E+00 0.  1.
          1   -1    0    0  501    0  0.00000000000E+00 -0.00000000000E+00 -0.54047976166E+03  0.54047976166E+03  0.00000000000E+00 0. -1.
         23    2    1    2    0    0  0.30542533491E+02  0.87366807196E+02 -0.30775728253E+03  0.34482871311E+03  0.12500596418E+03 0.  0.
          5    1    3    3  502    0  0.20123190363E+02 -0.23930429338E+02 -0.23647769256E+02  0.39483100555E+02  0.47000000000E+01 0. -1.
         -5    1    3    3    0  502  0.10419343128E+02  0.11129723653E+03 -0.28410951328E+03  0.30534561255E+03  0.47000000000E+01 0. -1.
        -11    1    1    2    0    0 -0.22752470692E+02 -0.98336911303E+02 -0.19546920693E+03  0.21999098596E+03  0.00000000000E+00 0. -1.
         11    1    1    2    0    0 -0.77900627989E+01  0.10970104107E+02  0.55268633691E+00  0.13466021116E+02  0.00000000000E+00 0.  1.
<mgrwt>
<rscale>  0 0.14828472E+03</rscale>
<asrwt>0</asrwt>
<pdfrwt beam="2">  1        1 0.83150722E-01 0.15553873E+03</pdfrwt>
<pdfrwt beam="1">  1       -1 0.58163021E-02 0.15553873E+03</pdfrwt>
<totfact> 0.55243953E+03</totfact>
</mgrwt>
</event>
<event>
 7    1  0.4230786E-006  0.1575035E+03  0.7546771E-02  0.1199622E+00
          1   -1    0    0  501    0  0.00000000000E+00  0.00000000000E+00  0.38678476688E+03  0.38678476688E+03  0.00000000000E+00 0. -1.
         -1   -1    0    0    0  501 -0.00000000000E+00 -0.00000000000E+00 -0.60552200151E+02  0.60552200151E+02  0.00000000000E+00 0.  1.
         23    2    1    2    0    0  0.39159085710E+02  0.87458888468E+02  0.10359487014E+03  0.18851856558E+03  0.12499944514E+03 0.  0.
          5    1    3    3  502    0  0.71592358706E+01  0.50800717913E+01 -0.28121065145E+02  0.29831964276E+02  0.47000000000E+01 0.  1.
         -5    1    3    3    0  502  0.31999849840E+02  0.82378816677E+02  0.13171593528E+03  0.15868660131E+03  0.47000000000E+01 0.  1.
        -11    1    1    2    0    0 -0.59847892204E+02 -0.66609849310E+02  0.10708760939E+03  0.13959369008E+03  0.00000000000E+00 0.  1.
         11    1    1    2    0    0  0.20688806494E+02 -0.20849039159E+02  0.11555008720E+03  0.11922471136E+03  0.00000000000E+00 0. -1.
<mgrwt>
<rscale>  0 0.15069432E+03</rscale>
<asrwt>0</asrwt>
<pdfrwt beam="1">  1        1 0.59505347E-01 0.15750350E+03</pdfrwt>
<pdfrwt beam="2">  1       -1 0.93157234E-02 0.15750350E+03</pdfrwt>
<totfact> 0.41855853E+03</totfact>
</mgrwt>
</event>
<event>
 7    1  0.4230786E-006  0.1605075E+03  0.7546771E-02  0.1196827E+00
          2   -1    0    0  501    0  0.00000000000E+00  0.00000000000E+00  0.12784905016E+03  0.12784905016E+03  0.00000000000E+00 0. -1.
         -2   -1    0    0    0  501 -0.00000000000E+00 -0.00000000000E+00 -0.20127002489E+03  0.20127002489E+03  0.00000000000E+00 0.  1.
         23    2    1    2    0    0  0.94308937965E+02  0.35279262608E+02 -0.10635885791E+03  0.19254834880E+03  0.12499543120E+03 0.  0.
          5    1    3    3  502    0 -0.29841549428E+02  0.40634484587E+01 -0.33024456199E+02  0.44941455171E+02  0.47000000000E+01 0. -1.
         -5    1    3    3    0  502  0.12415048739E+03  0.31215814149E+02 -0.73334401714E+02  0.14760689363E+03  0.47000000000E+01 0. -1.
        -11    1    1    2    0    0 -0.65035462502E+02  0.39419360136E+01 -0.16283757523E+02  0.67158849018E+02  0.00000000000E+00 0.  1.
         11    1    1    2    0    0 -0.29273475463E+02 -0.39221198622E+02  0.49221640710E+02  0.69411877234E+02  0.00000000000E+00 0. -1.
<mgrwt>
<rscale>  0 0.15300572E+03</rscale>
<asrwt>0</asrwt>
<pdfrwt beam="1">  1        2 0.19669085E-01 0.16050751E+03</pdfrwt>
<pdfrwt beam="2">  1       -2 0.30964619E-01 0.16050751E+03</pdfrwt>
<totfact> 0.26601771E+03</totfact>
</mgrwt>
</event>
<event>
 7    1  0.4230786E-006  0.1274604E+03  0.7546771E-02  0.1246033E+00
          2   -1    0    0  501    0  0.00000000000E+00  0.00000000000E+00  0.54280109815E+02  0.54280109815E+02  0.00000000000E+00 0.  1.
         -2   -1    0    0    0  501 -0.00000000000E+00 -0.00000000000E+00 -0.26208762401E+03  0.26208762401E+03  0.00000000000E+00 0. -1.
         23    2    1    2    0    0 -0.47054388300E+01  0.24390989974E+02 -0.17489107135E+03  0.21640940151E+03  0.12501632165E+03 0.  0.
          5    1    3    3  502    0 -0.16505326564E+02  0.74112724152E+02 -0.10094750977E+03  0.12640257677E+03  0.47000000000E+01 0.  1.
         -5    1    3    3    0  502  0.11799887734E+02 -0.49721734179E+02 -0.73943561588E+02  0.90006824745E+02  0.47000000000E+01 0.  1.
        -11    1    1    2    0    0  0.45668219070E+02  0.18618631140E+01 -0.14829917486E+02  0.48051838882E+02  0.00000000000E+00 0.  1.
         11    1    1    2    0    0 -0.40962780241E+02 -0.26252853087E+02 -0.18086525352E+02  0.51906493424E+02  0.00000000000E+00 0. -1.
<mgrwt>
<rscale>  0 0.11823742E+03</rscale>
<asrwt>0</asrwt>
<pdfrwt beam="1">  1        2 0.83507862E-02 0.12746036E+03</pdfrwt>
<pdfrwt beam="2">  1       -2 0.40321173E-01 0.12746036E+03</pdfrwt>
<totfact> 0.44760431E+03</totfact>
</mgrwt>
</event>
<event>
 7    1  0.4230786E-006  0.1575299E+03  0.7546771E-02  0.1199127E+00
          2   -1    0    0  501    0  0.00000000000E+00  0.00000000000E+00  0.54972511016E+03  0.54972511016E+03  0.00000000000E+00 0. -1.
         -2   -1    0    0    0  501 -0.00000000000E+00 -0.00000000000E+00 -0.38487396234E+02  0.38487396234E+02  0.00000000000E+00 0.  1.
         23    2    1    2    0    0 -0.95811703040E+02  0.32828591031E+01  0.28153454026E+03  0.32261022736E+03  0.12500000734E+03 0.  0.
          5    1    3    3  502    0  0.27307611659E+02 -0.24456368204E+01  0.94967043363E+02  0.98957142841E+02  0.47000000000E+01 0. -1.
         -5    1    3    3    0  502 -0.12311931470E+03  0.57284959235E+01  0.18656749690E+03  0.22365308452E+03  0.47000000000E+01 0. -1.
        -11    1    1    2    0    0  0.14936897421E+02 -0.40508450801E+02  0.91965141136E+02  0.10159543629E+03  0.00000000000E+00 0.  1.
         11    1    1    2    0    0  0.80874805619E+02  0.37225591698E+02  0.13773803253E+03  0.16400684274E+03  0.00000000000E+00 0. -1.
<mgrwt>
<rscale>  0 0.15110081E+03</rscale>
<asrwt>0</asrwt>
<pdfrwt beam="1">  1        2 0.84573088E-01 0.15752987E+03</pdfrwt>
<pdfrwt beam="2">  1       -2 0.59211383E-02 0.15752987E+03</pdfrwt>
<totfact> 0.81505123E+03</totfact>
</mgrwt>
</event>
<event>
 7    1  0.4230786E-006  0.2021063E+03  0.7546771E-02  0.1152173E+00
          1   -1    0    0  501    0  0.00000000000E+00  0.00000000000E+00  0.78714821598E+02  0.78714821598E+02  0.00000000000E+00 0. -1.
         -1   -1    0    0    0  501 -0.00000000000E+00 -0.00000000000E+00 -0.47371584688E+03  0.47371584688E+03  0.00000000000E+00 0.  1.
         23    2    1    2    0    0  0.55146615727E+02  0.14893372995E+03 -0.18618898479E+03  0.27479679351E+03  0.12499813808E+03 0.  0.
          5    1    3    3  502    0  0.72683259665E+02  0.14418815195E+03 -0.19569966046E+03  0.25375879592E+03  0.47000000000E+01 0. -1.
         -5    1    3    3    0  502 -0.17536643937E+02  0.47455779925E+01  0.95106756696E+01  0.21037997594E+02  0.47000000000E+01 0. -1.
        -11    1    1    2    0    0 -0.54703211131E+01 -0.28057355538E+02  0.30077198417E+01  0.28743451280E+02  0.00000000000E+00 0. -1.
         11    1    1    2    0    0 -0.49676294614E+02 -0.12087637441E+03 -0.21181976033E+03  0.24889042369E+03  0.00000000000E+00 0.  1.
<mgrwt>
<rscale>  0 0.19714235E+03</rscale>
<asrwt>0</asrwt>
<pdfrwt beam="1">  1        1 0.12109972E-01 0.20210626E+03</pdfrwt>
<pdfrwt beam="2">  1       -1 0.72879361E-01 0.20210626E+03</pdfrwt>
<totfact> 0.97465743E+02</totfact>
</mgrwt>
</event>
<event>
 6    1  0.4230786E-006  0.2098114E+03  0.7546771E-02  0.1148866E+00
         -1   -1    0    0    0  501 -0.00000000000E+00  0.00000000000E+00  0.53807512533E+03  0.53807512533E+03  0.00000000000E+00 0.  1.
          1   -1    0    0  501    0  0.00000000000E+00 -0.00000000000E+00 -0.69746484586E+02  0.69746484586E+02  0.00000000000E+00 0. -1.
          5    1    1    2  502    0 -0.99789707208E+02 -0.48250346008E+02  0.21334444703E+03  0.24046626506E+03  0.47000000000E+01 0. -1.
         -5    1    1    2    0  502 -0.52209778652E+02  0.66982572696E+02  0.59870683766E+02  0.10401497395E+03  0.47000000000E+01 0. -1.
        -11    1    1    2    0    0  0.70363109183E+02 -0.45229334396E+02  0.13404773629E+03  0.15800460572E+03  0.00000000000E+00 0.  1.
         11    1    1    2    0    0  0.81636376677E+02  0.26497107708E+02  0.61065773656E+02  0.10533576518E+03  0.00000000000E+00 0. -1.
<mgrwt>
<rscale>  0 0.20103800E+03</rscale>
<asrwt>0</asrwt>
<pdfrwt beam="2">  1        1 0.10730229E-01 0.20981138E+03</pdfrwt>
<pdfrwt beam="1">  1       -1 0.82780786E-01 0.20981138E+03</pdfrwt>
<totfact> 0.88236736E+02</totfact>
</mgrwt>
</event>
<event>
 7    1  0.4333160E-006  0.1844316E+03  0.7546771E-02  0.1168861E+00
          1   -1    0    0  501    0  0.00000000000E+00  0.00000000000E+00  0.86995280047E+03  0.86995280047E+03  0.00000000000E+00 0. -1.
         -1   -1    0    0    0  501 -0.00000000000E+00 -0.00000000000E+00 -0.34777113222E+02  0.34777113222E+02  0.00000000000E+00 0.  1.
         23    2    1    2    0    0  0.27591476213E+02  0.13277129454E+03  0.43085155698E+03  0.46866629401E+03  0.12500209910E+03 0.  0.
          5    1    3    3  502    0 -0.46678760815E+02  0.24159836263E+02  0.12279185264E+03  0.13365078928E+03  0.47000000000E+01 0. -1.
         -5    1    3    3    0  502  0.74270237028E+02  0.10861145828E+03  0.30805970434E+03  0.33501550474E+03  0.47000000000E+01 0. -1.
        -11    1    1    2    0    0 -0.42583576139E+02 -0.82000593239E+02  0.14911307541E+03  0.17541997465E+03  0.00000000000E+00 0. -1.
         11    1    1    2    0    0  0.14992099925E+02 -0.50770701301E+02  0.25521105486E+03  0.26064364502E+03  0.00000000000E+00 0.  1.
<mgrwt>
<rscale>  0 0.17891079E+03</rscale>
<asrwt>0</asrwt>
<pdfrwt beam="1">  1        1 0.13383888E+00 0.18443164E+03</pdfrwt>
<pdfrwt beam="2">  1       -1 0.53503257E-02 0.18443164E+03</pdfrwt>
<totfact> 0.31743423E+03</totfact>
</mgrwt>
</event>
<event>
 6    1  0.4230786E-006  0.1592751E+03  0.7546771E-02  0.1199494E+00
          3   -1    0    0  501    0  0.00000000000E+00  0.00000000000E+00  0.66707532627E+02  0.66707532627E+02  0.00000000000E+00 0. -1.
         -3   -1    0    0    0  501 -0.00000000000E+00 -0.00000000000E+00 -0.69400736470E+03  0.69400736470E+03  0.00000000000E+00 0.  1.
          5    1    1    2  502    0  0.29555321190E+02 -0.12907534664E+02 -0.22975701433E+03  0.23205709878E+03  0.47000000000E+01 0. -1.
         -5    1    1    2    0  502 -0.86072125782E+02  0.81953649973E+02 -0.38157404254E+03  0.39968193794E+03  0.47000000000E+01 0.  1.
        -11    1    1    2    0    0  0.30019943447E+02  0.16804681854E+02 -0.18562417241E+02  0.39091657302E+02  0.00000000000E+00 0.  1.
         11    1    1    2    0    0  0.26496861144E+02 -0.85850797163E+02  0.25936420327E+01  0.89884203301E+02  0.00000000000E+00 0. -1.
<mgrwt>
<rscale>  0 0.15079931E+03</rscale>
<asrwt>0</asrwt>
<pdfrwt beam="1">  1        3 0.10262697E-01 0.15927507E+03</pdfrwt>
<pdfrwt beam="2">  1       -3 0.10677037E+00 0.15927507E+03</pdfrwt>
<totfact> 0.13122166E+02</totfact>
</mgrwt>
</event>
<event>
 7    1  0.4230786E-006  0.1543733E+03  0.7546771E-02  0.1202274E+00
         -1   -1    0    0    0  501 -0.00000000000E+00  0.00000000000E+00  0.13097594421E+03  0.13097594421E+03  0.00000000000E+00 0.  1.
          1   -1    0    0  501    0  0.00000000000E+00 -0.00000000000E+00 -0.15806929647E+03  0.15806929647E+03  0.00000000000E+00 0. -1.
         23    2    1    2    0    0 -0.59910062201E+02  0.67902432688E+02 -0.22361328007E+01  0.15438949531E+03  0.12502463780E+03 0.  0.
          5    1    3    3  502    0 -0.35430904849E+02  0.96630838435E+02 -0.29990419102E+02  0.10730509398E+03  0.47000000000E+01 0.  1.
         -5    1    3    3    0  502 -0.24479157352E+02 -0.28728405747E+02  0.27754286301E+02  0.47084401340E+02  0.47000000000E+01 0.  1.
        -11    1    1    2    0    0 -0.25058514389E+02 -0.80434950765E+01  0.43931911505E+01  0.26681961789E+02  0.00000000000E+00 0.  1.
         11    1    1    2    0    0  0.84968576590E+02 -0.59858937611E+02 -0.29250410608E+02  0.10797378358E+03  0.00000000000E+00 0. -1.
<mgrwt>
<rscale>  0 0.14854335E+03</rscale>
<asrwt>0</asrwt>
<pdfrwt beam="2">  1        1 0.24318353E-01 0.15437330E+03</pdfrwt>
<pdfrwt beam="1">  1       -1 0.20150145E-01 0.15437330E+03</pdfrwt>
<totfact> 0.38222047E+03</totfact>
</mgrwt>
</event>
<event>
 7    1  0.4230786E-006  0.1736580E+03  0.7546771E-02  0.1180500E+00
         -1   -1    0    0    0  501 -0.00000000000E+00  0.00000000000E+00  0.67345775888E+02  0.67345775888E+02  0.00000000000E+00 0.  1.
          1   -1    0    0  501    0  0.00000000000E+00 -0.00000000000E+00 -0.48649288720E+03  0.48649288720E+03  0.00000000000E+00 0. -1.
         23    2    1    2    0    0 -0.25922402746E+02 -0.11772121524E+03 -0.98278712315E+02  0.19953902293E+03  0.12500744336E+03 0.  0.
          5    1    3    3  502    0 -0.18762530060E+01 -0.14021792642E+03 -0.81888302558E+02  0.16245729073E+03  0.47000000000E+01 0.  1.
         -5    1    3    3    0  502 -0.24046149740E+02  0.22496711176E+02 -0.16390409757E+02  0.37081732202E+02  0.47000000000E+01 0.  1.
        -11    1    1    2    0    0  0.25503454900E+02  0.69923365471E+02 -0.28494649788E+03  0.29450672302E+03  0.00000000000E+00 0. -1.
         11    1    1    2    0    0  0.41894784671E+00  0.47797849769E+02 -0.35921901112E+02  0.59792917134E+02  0.00000000000E+00 0.  1.
<mgrwt>
<rscale>  0 0.16748146E+03</rscale>
<asrwt>0</asrwt>
<pdfrwt beam="2">  1        1 0.74845063E-01 0.17365804E+03</pdfrwt>
<pdfrwt beam="1">  1       -1 0.10360888E-01 0.17365804E+03</pdfrwt>
<totfact> 0.26596445E+03</totfact>
</mgrwt>
</event>
<event>
 7    1  0.4230786E-006  0.1263164E+03  0.7546771E-02  0.1248132E+00
         -1   -1    0    0    0  501 -0.00000000000E+00  0.00000000000E+00  0.54279234610E+02  0.54279234610E+02  0.00000000000E+00 0.  1.
          1   -1    0    0  501    0  0.00000000000E+00 -0.00000000000E+00 -0.23578220964E+03  0.23578220964E+03  0.00000000000E+00 0. -1.
         23    2    1    2    0    0 -0.10288514698E+02  0.15157303245E+02 -0.68383180600E+02  0.14363879316E+03  0.12498098309E+03 0.  0.
          5    1    3    3  502    0 -0.63217444825E+00  0.20550416951E+02  0.34294260098E+02  0.40260471396E+02  0.47000000000E+01 0.  1.
         -5    1    3    3    0  502 -0.96563402497E+01 -0.53931137061E+01 -0.10267744070E+03  0.10337832176E+03  0.47000000000E+01 0.  1.
        -11    1    1    2    0    0  0.31970883433E+02  0.22824688024E+02 -0.21221510126E+02  0.44648138403E+02  0.00000000000E+00 0.  1.
         11    1    1    2    0    0 -0.21682368735E+02 -0.37981991269E+02 -0.91898284303E+02  0.10177451269E+03  0.00000000000E+00 0. -1.
<mgrwt>
<rscale>  0 0.11699873E+03</rscale>
<asrwt>0</asrwt>
<pdfrwt beam="2">  1        1 0.36274187E-01 0.12631644E+03</pdfrwt>
<pdfrwt beam="1">  1       -1 0.83506514E-02 0.12631644E+03</pdfrwt>
<totfact> 0.90165252E+03</totfact>
</mgrwt>
</event>
<event>
 7    1  0.4230786E-006  0.1336950E+03  0.7546771E-02  0.1245913E+00
         -1   -1    0    0    0  501 -0.00000000000E+00  0.00000000000E+00  0.45911907273E+02  0.45911907273E+02  0.00000000000E+00 0.  1.
          1   -1    0    0  501    0  0.00000000000E+00 -0.00000000000E+00 -0.33177561518E+03  0.33177561518E+03  0.00000000000E+00 0. -1.
         23    2    1    2    0    0 -0.24277406108E+01 -0.47369177001E+02 -0.79287745048E+02  0.15543779210E+03  0.12499851136E+03 0.  0.
          5    1    3    3  502    0 -0.56992913401E+02 -0.41674712592E+02 -0.70117551397E+02  0.99616940635E+02  0.47000000000E+01 0. -1.
         -5    1    3    3    0  502  0.54565172790E+02 -0.56944644094E+01 -0.91701936518E+01  0.55820851463E+02  0.47000000000E+01 0. -1.
        -11    1    1    2    0    0  0.26716863829E+02  0.20212782323E+02 -0.15808914902E+03  0.16159989610E+03  0.00000000000E+00 0. -1.
         11    1    1    2    0    0 -0.24289123218E+02  0.27156394679E+02 -0.48486813834E+02  0.60649834249E+02  0.00000000000E+00 0.  1.
<mgrwt>
<rscale>  0 0.11830912E+03</rscale>
<asrwt>0</asrwt>
<pdfrwt beam="2">  1        1 0.51042403E-01 0.13369503E+03</pdfrwt>
<pdfrwt beam="1">  1       -1 0.70633703E-02 0.13369503E+03</pdfrwt>
<totfact> 0.76363114E+03</totfact>
</mgrwt>
</event>
<event>
 7    1  0.4230786E-006  0.1360348E+03  0.7546771E-02  0.1229771E+00
         -1   -1    0    0    0  501 -0.00000000000E+00  0.00000000000E+00  0.19418957891E+02  0.19418957891E+02  0.00000000000E+00 0.  1.
          1   -1    0    0  501    0  0.00000000000E+00 -0.00000000000E+00 -0.78461726664E+03  0.78461726664E+03  0.00000000000E+00 0. -1.
         23    2    1    2    0    0  0.52428182503E+02  0.11507551798E+02 -0.36653116160E+03  0.39096105883E+03  0.12499727608E+03 0.  0.
          5    1    3    3  502    0  0.49743101783E+01  0.56542021768E+02 -0.88086341448E+02  0.10489536471E+03  0.47000000000E+01 0.  1.
         -5    1    3    3    0  502  0.47453872325E+02 -0.45034469971E+02 -0.27844482016E+03  0.28606569413E+03  0.47000000000E+01 0.  1.
        -11    1    1    2    0    0 -0.78895087807E+02 -0.65428339376E+01 -0.32884989380E+03  0.33824472828E+03  0.00000000000E+00 0.  1.
         11    1    1    2    0    0  0.26466905303E+02 -0.49647178600E+01 -0.69817253341E+02  0.74830437416E+02  0.00000000000E+00 0. -1.
<mgrwt>
<rscale>  0 0.12845181E+03</rscale>
<asrwt>0</asrwt>
<pdfrwt beam="2">  1        1 0.12071038E+00 0.13603476E+03</pdfrwt>
<pdfrwt beam="1">  1       -1 0.29875312E-02 0.13603476E+03</pdfrwt>
<totfact> 0.86737874E+03</totfact>
</mgrwt>
</event>
<event>
 7    1  0.4230786E-006  0.2224690E+03  0.7546771E-02  0.1135110E+00
         -2   -1    0    0    0  501 -0.00000000000E+00  0.00000000000E+00  0.18455416197E+03  0.18455416197E+03  0.00000000000E+00 0.  1.
          2   -1    0    0  501    0  0.00000000000E+00 -0.00000000000E+00 -0.24987014850E+03  0.24987014850E+03  0.00000000000E+00 0. -1.
         23    2    1    2    0    0 -0.18401521364E+03  0.22199984604E+01 -0.44626506926E+02  0.22690077180E+03  0.12500363146E+03 0.  0.
          5    1    3    3  502    0 -0.53430409735E+02  0.39090828268E+02 -0.61001410175E+02  0.90145236050E+02  0.47000000000E+01 0. -1.
         -5    1    3    3    0  502 -0.13058480391E+03 -0.36870829808E+02  0.16374903250E+02  0.13675553575E+03  0.47000000000E+01 0. -1.
        -11    1    1    2    0    0  0.16759675690E+03 -0.14814619165E+02  0.12171714047E+02  0.16868994186E+03  0.00000000000E+00 0.  1.
         11    1    1    2    0    0  0.16418456748E+02  0.12594620704E+02 -0.32861193652E+02  0.38833596807E+02  0.00000000000E+00 0. -1.
<mgrwt>
<rscale>  0 0.21836178E+03</rscale>
<asrwt>0</asrwt>
<pdfrwt beam="2">  1        2 0.38441561E-01 0.22246895E+03</pdfrwt>
<pdfrwt beam="1">  1       -2 0.28392948E-01 0.22246895E+03</pdfrwt>
<totfact> 0.15007218E+03</totfact>
</mgrwt>
</event>
<event>
 6    1  0.4230786E-006  0.1369405E+03  0.7546771E-02  0.1236774E+00
          3   -1    0    0  501    0  0.00000000000E+00  0.00000000000E+00  0.20887404891E+03  0.20887404891E+03  0.00000000000E+00 0. -1.
         -3   -1    0    0    0  501 -0.00000000000E+00 -0.00000000000E+00 -0.73895950356E+02  0.73895950356E+02  0.00000000000E+00 0.  1.
          5    1    1    2  502    0 -0.36689358434E+02  0.16566674330E+02  0.54599290719E+02  0.67998060764E+02  0.47000000000E+01 0. -1.
         -5    1    1    2    0  502  0.53438753743E+02 -0.35678635041E+02 -0.30109616767E+02  0.71115008415E+02  0.47000000000E+01 0.  1.
        -11    1    1    2    0    0  0.14706083369E+01  0.40520512603E+02  0.10808733747E+03  0.11544239755E+03  0.00000000000E+00 0.  1.
         11    1    1    2    0    0 -0.18220003646E+02 -0.21408551892E+02  0.24010871319E+01  0.28214532539E+02  0.00000000000E+00 0. -1.
<mgrwt>
<rscale>  0 0.12391531E+03</rscale>
<asrwt>0</asrwt>
<pdfrwt beam="1">  1        3 0.32134469E-01 0.13694050E+03</pdfrwt>
<pdfrwt beam="2">  1       -3 0.11368608E-01 0.13694050E+03</pdfrwt>
<totfact> 0.12947007E+03</totfact>
</mgrwt>
</event>
<event>
 7    1  0.4230786E-006  0.1292574E+03  0.7546771E-02  0.1243293E+00
         -1   -1    0    0    0  501 -0.00000000000E+00  0.00000000000E+00  0.26117886932E+03  0.26117886932E+03  0.00000000000E+00 0.  1.
          1   -1    0    0  501    0  0.00000000000E+00 -0.00000000000E+00 -0.48467799945E+02  0.48467799945E+02  0.00000000000E+00 0. -1.
         23    2    1    2    0    0 -0.31856120575E+02 -0.49196569214E+01  0.11714000299E+03  0.17443984201E+03  0.12517373023E+03 0.  0.
          5    1    3    3  502    0 -0.11125197344E+02 -0.61532192984E+02  0.33104694270E+02  0.70908332177E+02  0.47000000000E+01 0. -1.
         -5    1    3    3    0  502 -0.20730923231E+02  0.56612536062E+02  0.84035308717E+02  0.10353150983E+03  0.47000000000E+01 0. -1.
        -11    1    1    2    0    0  0.74040255304E+00 -0.39153474828E+02  0.55850812058E+02  0.68211846439E+02  0.00000000000E+00 0.  1.
         11    1    1    2    0    0  0.31115718022E+02  0.44073131749E+02  0.39720254327E+02  0.66994980812E+02  0.00000000000E+00 0. -1.
<mgrwt>
<rscale>  0 0.11988139E+03</rscale>
<asrwt>0</asrwt>
<pdfrwt beam="2">  1        1 0.74565848E-02 0.12925741E+03</pdfrwt>
<pdfrwt beam="1">  1       -1 0.40181364E-01 0.12925741E+03</pdfrwt>
<totfact> 0.55614576E+03</totfact>
</mgrwt>
</event>
<event>
 7    1  0.4230786E-006  0.1371451E+03  0.7546771E-02  0.1229402E+00
         -2   -1    0    0    0  501 -0.00000000000E+00  0.00000000000E+00  0.55878274879E+02  0.55878274879E+02  0.00000000000E+00 0.  1.
          2   -1    0    0  501    0  0.00000000000E+00 -0.00000000000E+00 -0.30415228752E+03  0.30415228752E+03  0.00000000000E+00 0. -1.
         23    2    1    2    0    0 -0.25437217481E+02  0.50358458961E+02 -0.73910900080E+02  0.15579348699E+03  0.12500305203E+03 0.  0.
          5    1    3    3  502    0  0.28196608671E+02  0.25390053917E+02  0.21175940367E+02  0.43705995342E+02  0.47000000000E+01 0. -1.
         -5    1    3    3    0  502 -0.53633826152E+02  0.24968405044E+02 -0.95086840446E+02  0.11208749165E+03  0.47000000000E+01 0. -1.
        -11    1    1    2    0    0 -0.20626760619E+02 -0.22355175009E+02 -0.11224350329E+02  0.32422263086E+02  0.00000000000E+00 0.  1.
         11    1    1    2    0    0  0.46063978099E+02 -0.28003283952E+02 -0.16313876224E+03  0.17181481233E+03  0.00000000000E+00 0. -1.
<mgrwt>
<rscale>  0 0.12869733E+03</rscale>
<asrwt>0</asrwt>
<pdfrwt beam="2">  1        2 0.46792659E-01 0.13714514E+03</pdfrwt>
<pdfrwt beam="1">  1       -2 0.85966577E-02 0.13714514E+03</pdfrwt>
<totfact> 0.86342303E+03</totfact>
</mgrwt>
</event>
<event>
 6    1  0.4230786E-006  0.6876696E+03  0.7546771E-02  0.9738554E-01
         -1   -1    0    0    0  501 -0.00000000000E+00  0.00000000000E+00  0.48276472526E+03  0.48276472526E+03  0.00000000000E+00 0.  1.
          1   -1    0    0  501    0  0.00000000000E+00 -0.00000000000E+00 -0.24488608322E+03  0.24488608322E+03  0.00000000000E+00 0. -1.
          5    1    1    2  502    0 -0.77268918715E+01 -0.15045012285E+02  0.30329828548E+03  0.30380585450E+03  0.47000000000E+01 0. -1.
         -5    1    1    2    0  502 -0.34468041961E+02  0.91009517269E+02  0.14744288341E+03  0.17672654588E+03  0.47000000000E+01 0.  1.
        -11    1    1    2    0    0 -0.21032408353E+02 -0.28845457388E+02 -0.12048571787E+03  0.12566316415E+03  0.00000000000E+00 0.  1.
         11    1    1    2    0    0  0.63227342185E+02 -0.47119047596E+02 -0.92376808982E+02  0.12145524395E+03  0.00000000000E+00 0. -1.
<mgrwt>
<rscale>  0 0.68766958E+03</rscale>
<asrwt>0</asrwt>
<pdfrwt beam="2">  1        1 0.37674782E-01 0.68766958E+03</pdfrwt>
<pdfrwt beam="1">  1       -1 0.74271496E-01 0.68766958E+03</pdfrwt>
<totfact> 0.21158146E+02</totfact>
</mgrwt>
</event>
<event>
 7    1  0.4230786E-006  0.1309490E+03  0.7546771E-02  0.1239457E+00
         -1   -1    0    0    0  501 -0.00000000000E+00  0.00000000000E+00  0.29554699762E+02  0.29554699762E+02  0.00000000000E+00 0.  1.
          1   -1    0    0  501    0  0.00000000000E+00 -0.00000000000E+00 -0.45661145459E+03  0.45661145459E+03  0.00000000000E+00 0. -1.
         23    2    1    2    0    0  0.30958624937E+02  0.23799733283E+02 -0.21095925415E+03  0.24829711409E+03  0.12499114446E+03 0.  0.
          5    1    3    3  502    0  0.70164772697E+02  0.15100303489E+01 -0.66159227034E+02  0.96563496420E+02  0.47000000000E+01 0. -1.
         -5    1    3    3    0  502 -0.39206147760E+02  0.22289702934E+02 -0.14480002711E+03  0.15173361767E+03  0.47000000000E+01 0. -1.
        -11    1    1    2    0    0 -0.25039872750E+02  0.32857150760E+02 -0.73494693142E+02  0.84309296661E+02  0.00000000000E+00 0.  1.
         11    1    1    2    0    0 -0.59187521868E+01 -0.56656884043E+02 -0.14260280754E+03  0.15355974360E+03  0.00000000000E+00 0. -1.
<mgrwt>
<rscale>  0 0.12223367E+03</rscale>
<asrwt>0</asrwt>
<pdfrwt beam="2">  1        1 0.70247917E-01 0.13094904E+03</pdfrwt>
<pdfrwt beam="1">  1       -1 0.45468768E-02 0.13094904E+03</pdfrwt>
<totfact> 0.98152154E+03</totfact>
</mgrwt>
</event>
<event>
 7    1  0.4230786E-006  0.1181040E+03  0.7546771E-02  0.1257719E+00
          1   -1    0    0  501    0  0.00000000000E+00  0.00000000000E+00  0.11017103484E+04  0.11017103484E+04  0.00000000000E+00 0. -1.
         -1   -1    0    0    0  501 -0.00000000000E+00 -0.00000000000E+00 -0.10353077386E+02  0.10353077386E+02  0.00000000000E+00 0.  1.
         23    2    1    2    0    0  0.10645923483E+01  0.44308637873E+01  0.67199568186E+03  0.68229520843E+03  0.11801605441E+03 0.  0.
          5    1    3    3  502    0  0.59354499448E+02  0.19573537282E+01  0.33838088139E+03  0.34358477663E+03  0.47000000000E+01 0. -1.
         -5    1    3    3    0  502 -0.58289907099E+02  0.24735100591E+01  0.33361480047E+03  0.33871043181E+03  0.47000000000E+01 0.  1.
        -11    1    1    2    0    0 -0.29886122056E+02  0.33905953830E+02  0.23227605839E+03  0.23663254489E+03  0.00000000000E+00 0.  1.
         11    1    1    2    0    0  0.28821529708E+02 -0.38336817617E+02  0.18708553073E+03  0.19313567244E+03  0.00000000000E+00 0. -1.
<mgrwt>
<rscale>  0 0.11155370E+03</rscale>
<asrwt>0</asrwt>
<pdfrwt beam="1">  1        1 0.16949381E+00 0.11810400E+03</pdfrwt>
<pdfrwt beam="2">  1       -1 0.15927820E-02 0.11810400E+03</pdfrwt>
<totfact> 0.12287367E+04</totfact>
</mgrwt>
</event>
<event>
 7    1  0.4230786E-006  0.1337488E+03  0.7546771E-02  0.1235362E+00
         -1   -1    0    0    0  501 -0.00000000000E+00  0.00000000000E+00  0.17047147855E+02  0.17047147855E+02  0.00000000000E+00 0.  1.
          1   -1    0    0  501    0  0.00000000000E+00 -0.00000000000E+00 -0.81749001736E+03  0.81749001736E+03  0.00000000000E+00 0. -1.
         23    2    1    2    0    0 -0.42538608534E+02 -0.21310297812E+02 -0.49129024162E+03  0.50917072953E+03  0.12500027315E+03 0.  0.
          5    1    3    3  502    0 -0.13989412526E+02 -0.55832263210E+02 -0.10143755639E+03  0.11672451810E+03  0.47000000000E+01 0.  1.
         -5    1    3    3    0  502 -0.28549196008E+02  0.34521965399E+02 -0.38985268523E+03  0.39244621144E+03  0.47000000000E+01 0.  1.
        -11    1    1    2    0    0 -0.21092677441E+02  0.29192712966E+02 -0.13720963989E+03  0.14185767801E+03  0.00000000000E+00 0. -1.
         11    1    1    2    0    0  0.63631285975E+02 -0.78824151541E+01 -0.17194298799E+03  0.18350875768E+03  0.00000000000E+00 0.  1.
<mgrwt>
<rscale>  0 0.12481263E+03</rscale>
<asrwt>0</asrwt>
<pdfrwt beam="2">  1        1 0.12576769E+00 0.13374876E+03</pdfrwt>
<pdfrwt beam="1">  1       -1 0.26226382E-02 0.13374876E+03</pdfrwt>
<totfact> 0.98427878E+03</totfact>
</mgrwt>
</event>
<event>
 7    1  0.4230786E-006  0.1335348E+03  0.7546771E-02  0.1233438E+00
          1   -1    0    0  501    0  0.00000000000E+00  0.00000000000E+00  0.47737977146E+03  0.47737977146E+03  0.00000000000E+00 0. -1.
         -1   -1    0    0    0  501 -0.00000000000E+00 -0.00000000000E+00 -0.38055565318E+02  0.38055565318E+02  0.00000000000E+00 0.  1.
         23    2    1    2    0    0 -0.46969604960E+02 -0.12581480210E+01  0.12201993488E+03  0.18088786503E+03  0.12499531383E+03 0.  0.
          5    1    3    3  502    0  0.26165872581E+02  0.14834673746E+02 -0.73640476998E+01  0.31321552190E+02  0.47000000000E+01 0. -1.
         -5    1    3    3    0  502 -0.73135477541E+02 -0.16092821767E+02  0.12938398258E+03  0.14956631284E+03  0.47000000000E+01 0. -1.
        -11    1    1    2    0    0 -0.18549007702E+02 -0.25546114334E+02  0.61510290470E+02  0.69138885426E+02  0.00000000000E+00 0.  1.
         11    1    1    2    0    0  0.65518612662E+02  0.26804262355E+02  0.25579398080E+03  0.26540858633E+03  0.00000000000E+00 0. -1.
<mgrwt>
<rscale>  0 0.12604969E+03</rscale>
<asrwt>0</asrwt>
<pdfrwt beam="1">  1        1 0.73443038E-01 0.13353485E+03</pdfrwt>
<pdfrwt beam="2">  1       -1 0.58547027E-02 0.13353485E+03</pdfrwt>
<totfact> 0.63841362E+03</totfact>
</mgrwt>
</event>
<event>
 7    1  0.4230786E-006  0.2122596E+03  0.7546771E-02  0.1143405E+00
         -2   -1    0    0    0  501 -0.00000000000E+00  0.00000000000E+00  0.42134317515E+03  0.42134317515E+03  0.00000000000E+00 0.  1.
          2   -1    0    0  501    0  0.00000000000E+00 -0.00000000000E+00 -0.10435448299E+03  0.10435448299E+03  0.00000000000E+00 0. -1.
         23    2    1    2    0    0  0.12808581708E+03  0.11411867959E+03  0.22871494591E+03  0.31203312679E+03  0.12500038465E+03 0.  0.
          5    1    3    3  502    0 -0.20704841577E+02 -0.28341062399E+01  0.35991035709E+02  0.41882780164E+02  0.47000000000E+01 0.  1.
         -5    1    3    3    0  502  0.14879065866E+03  0.11695278583E+03  0.19272391020E+03  0.27015034662E+03  0.47000000000E+01 0.  1.
        -11    1    1    2    0    0 -0.12617895816E+03 -0.80318410507E+02  0.97537682645E+02  0.17856588724E+03  0.00000000000E+00 0.  1.
         11    1    1    2    0    0 -0.19068589217E+01 -0.33800269084E+02 -0.92639363895E+01  0.35098644112E+02  0.00000000000E+00 0. -1.
<mgrwt>
<rscale>  0 0.20769379E+03</rscale>
<asrwt>0</asrwt>
<pdfrwt beam="2">  1        2 0.16054536E-01 0.21225962E+03</pdfrwt>
<pdfrwt beam="1">  1       -2 0.64822026E-01 0.21225962E+03</pdfrwt>
<totfact> 0.80407376E+02</totfact>
</mgrwt>
</event>
<event>
 7    1  0.4230786E-006  0.1387778E+03  0.7546771E-02  0.1226427E+00
          1   -1    0    0  501    0  0.00000000000E+00  0.00000000000E+00  0.47958236248E+02  0.47958236248E+02  0.00000000000E+00 0. -1.
         -1   -1    0    0    0  501 -0.00000000000E+00 -0.00000000000E+00 -0.43849084363E+03  0.43849084363E+03  0.00000000000E+00 0.  1.
         23    2    1    2    0    0 -0.20220402098E+02  0.56777024586E+02 -0.33783870926E+03  0.36523180414E+03  0.12500712821E+03 0.  0.
          5    1    3    3  502    0 -0.32150652268E+02 -0.54365741991E+01 -0.14991106632E+02  0.36194530779E+02  0.47000000000E+01 0.  1.
         -5    1    3    3    0  502  0.11930250170E+02  0.62213598785E+02 -0.32284760262E+03  0.32903727336E+03  0.47000000000E+01 0.  1.
        -11    1    1    2    0    0  0.39843792620E+02 -0.19019571340E+02 -0.63475595122E+02  0.77320263065E+02  0.00000000000E+00 0.  1.
         11    1    1    2    0    0 -0.19623390522E+02 -0.37757453246E+02  0.10781696996E+02  0.43897012669E+02  0.00000000000E+00 0. -1.
<mgrwt>
<rscale>  0 0.13069554E+03</rscale>
<asrwt>0</asrwt>
<pdfrwt beam="1">  1        1 0.73781902E-02 0.13877780E+03</pdfrwt>
<pdfrwt beam="2">  1       -1 0.67460130E-01 0.13877780E+03</pdfrwt>
<totfact> 0.21780902E+03</totfact>
</mgrwt>
</event>
<event>
 7    1  0.4230786E-006  0.1269438E+03  0.7546771E-02  0.1246326E+00
         -2   -1    0    0    0  501 -0.00000000000E+00  0.00000000000E+00  0.16973685252E+04  0.16973685252E+04  0.00000000000E+00 0. -1.
          2   -1    0    0  501    0  0.00000000000E+00 -0.00000000000E+00 -0.11369603020E+02  0.11369603020E+02  0.00000000000E+00 0.  1.
         23    2    1    2    0    0  0.92830407890E+00  0.22501450064E+02  0.14310895386E+04  0.14367087329E+04  0.12493013583E+03 0.  0.
          5    1    3    3  502    0  0.16452053751E+01 -0.36583604695E+02  0.15865805064E+03  0.16289731080E+03  0.47000000000E+01 0.  1.
         -5    1    3    3    0  502 -0.71690129625E+00  0.59085054758E+02  0.12724314879E+04  0.12738114221E+04  0.47000000000E+01 0.  1.
        -11    1    1    2    0    0  0.38400003572E+02  0.71834932641E+01  0.65041477869E+02  0.75871975677E+02  0.00000000000E+00 0.  1.
         11    1    1    2    0    0 -0.39328307651E+02 -0.29684943328E+02  0.18986790575E+03  0.19615741963E+03  0.00000000000E+00 0. -1.
<mgrwt>
<rscale>  0 0.11806374E+03</rscale>
<asrwt>0</asrwt>
<pdfrwt beam="2">  1        2 0.17491710E-02 0.12694375E+03</pdfrwt>
<pdfrwt beam="1">  1       -2 0.26113342E+00 0.12694375E+03</pdfrwt>
<totfact> 0.40041636E+02</totfact>
</mgrwt>
</event>
<event>
 7    1  0.4230786E-006  0.1259863E+03  0.7546771E-02  0.1247411E+00
         -2   -1    0    0    0  501 -0.00000000000E+00  0.00000000000E+00  0.34053279591E+03  0.34053279591E+03  0.00000000000E+00 0.  1.
          2   -1    0    0  501    0  0.00000000000E+00 -0.00000000000E+00 -0.36108365679E+02  0.36108365679E+02  0.00000000000E+00 0. -1.
         23    2    1    2    0    0 -0.60427109980E+01  0.14606634201E+02  0.18840246468E+03  0.22664518141E+03  0.12499072541E+03 0.  0.
          5    1    3    3  502    0  0.16896561123E+02 -0.37877880250E+02  0.15423747291E+03  0.15978584305E+03  0.47000000000E+01 0. -1.
         -5    1    3    3    0  502 -0.22939272121E+02  0.52484514451E+02  0.34164991773E+02  0.66859338356E+02  0.47000000000E+01 0. -1.
        -11    1    1    2    0    0 -0.15796783803E+02 -0.46167871665E+02  0.93574485731E+02  0.10553291019E+03  0.00000000000E+00 0.  1.
         11    1    1    2    0    0  0.21839494801E+02  0.31561237464E+02  0.22447479820E+02  0.44463069999E+02  0.00000000000E+00 0. -1.
<mgrwt>
<rscale>  0 0.11742207E+03</rscale>
<asrwt>0</asrwt>
<pdfrwt beam="2">  1        2 0.55551334E-02 0.12598631E+03</pdfrwt>
<pdfrwt beam="1">  1       -2 0.52389659E-01 0.12598631E+03</pdfrwt>
<totfact> 0.45151457E+03</totfact>
</mgrwt>
</event>
<event>
 7    1  0.4230786E-006  0.1651901E+03  0.7546771E-02  0.1189783E+00
         -3   -1    0    0    0  501 -0.00000000000E+00  0.00000000000E+00  0.15311273118E+03  0.15311273118E+03  0.00000000000E+00 0.  1.
          3   -1    0    0  501    0  0.00000000000E+00 -0.00000000000E+00 -0.15412016249E+03  0.15412016249E+03  0.00000000000E+00 0. -1.
         23    2    1    2    0    0  0.92788718844E+02  0.55228205386E+02 -0.45680530486E+01  0.16525323850E+03  0.12501145832E+03 0.  0.
          5    1    3    3  502    0  0.24926638212E+01  0.67512370268E+02 -0.24201177427E+02  0.71916065666E+02  0.47000000000E+01 0.  1.
         -5    1    3    3    0  502  0.90296055023E+02 -0.12284164882E+02  0.19633124378E+02  0.93337172833E+02  0.47000000000E+01 0.  1.
        -11    1    1    2    0    0  0.86163057566E+01 -0.35098586307E+02  0.12424410475E+02  0.38216717040E+02  0.00000000000E+00 0.  1.
         11    1    1    2    0    0 -0.10140502460E+03 -0.20129619079E+02 -0.88637887335E+01  0.10376293813E+03  0.00000000000E+00 0. -1.
<mgrwt>
<rscale>  0 0.15904147E+03</rscale>
<asrwt>0</asrwt>
<pdfrwt beam="2">  1        3 0.23710794E-01 0.16519009E+03</pdfrwt>
<pdfrwt beam="1">  1       -3 0.23555805E-01 0.16519009E+03</pdfrwt>
<totfact> 0.65895543E+02</totfact>
</mgrwt>
</event>
<event>
 7    1  0.4230786E-006  0.1320084E+03  0.7546771E-02  0.1237274E+00
         -2   -1    0    0    0  501 -0.00000000000E+00  0.00000000000E+00  0.75376603870E+02  0.75376603870E+02  0.00000000000E+00 0. -1.
          2   -1    0    0  501    0  0.00000000000E+00 -0.00000000000E+00 -0.18077829678E+03  0.18077829678E+03  0.00000000000E+00 0.  1.
         23    2    1    2    0    0  0.19534574388E+00  0.42444093421E+02 -0.58853999543E+02  0.14453379344E+03  0.12499873982E+03 0.  0.
          5    1    3    3  502    0  0.27631850849E+01 -0.41530763035E+02 -0.67339040574E-01  0.41887157992E+02  0.47000000000E+01 0.  1.
         -5    1    3    3    0  502 -0.25678393410E+01  0.83974856456E+02 -0.58786660503E+02  0.10264663545E+03  0.47000000000E+01 0.  1.
        -11    1    1    2    0    0 -0.42251084393E+02 -0.88345398369E+01 -0.37193814565E+02  0.56978794902E+02  0.00000000000E+00 0.  1.
         11    1    1    2    0    0  0.42055738649E+02 -0.33609553584E+02 -0.93538787966E+01  0.54642312304E+02  0.00000000000E+00 0. -1.
<mgrwt>
<rscale>  0 0.12359952E+03</rscale>
<asrwt>0</asrwt>
<pdfrwt beam="2">  1        2 0.27812046E-01 0.13200842E+03</pdfrwt>
<pdfrwt beam="1">  1       -2 0.11596401E-01 0.13200842E+03</pdfrwt>
<totfact> 0.93897826E+03</totfact>
</mgrwt>
</event>
<event>
 7    1  0.4230786E-006  0.1535124E+03  0.7546771E-02  0.1205106E+00
          4   -1    0    0  501    0  0.00000000000E+00  0.00000000000E+00  0.14831913533E+03  0.14831913533E+03  0.00000000000E+00 0. -1.
         -4   -1    0    0    0  501 -0.00000000000E+00 -0.00000000000E+00 -0.13710300534E+03  0.13710300534E+03  0.00000000000E+00 0.  1.
         23    2    1    2    0    0  0.62033292026E+02  0.63971579606E+02 -0.20584879475E+02  0.15488635612E+03  0.12500221492E+03 0.  0.
          5    1    3    3  502    0 -0.25225713841E+02 -0.19344085781E+02 -0.10144084397E+02  0.33697518332E+02  0.47000000000E+01 0.  1.
         -5    1    3    3    0  502  0.87259005866E+02  0.83315665387E+02 -0.10440795078E+02  0.12118883779E+03  0.47000000000E+01 0.  1.
        -11    1    1    2    0    0 -0.19668209255E+02 -0.96657951548E+01  0.53913322881E+02  0.58197185803E+02  0.00000000000E+00 0. -1.
         11    1    1    2    0    0 -0.42365082771E+02 -0.54305784451E+02 -0.22112313420E+02  0.72338598741E+02  0.00000000000E+00 0.  1.
<mgrwt>
<rscale>  0 0.14629127E+03</rscale>
<asrwt>0</asrwt>
<pdfrwt beam="1">  1        4 0.22818329E-01 0.15351236E+03</pdfrwt>
<pdfrwt beam="2">  1       -4 0.21092770E-01 0.15351236E+03</pdfrwt>
<totfact> 0.61638795E+02</totfact>
</mgrwt>
</event>
<event>
 7    1  0.4230786E-006  0.2916197E+03  0.7546771E-02  0.1091152E+00
         -1   -1    0    0    0  501 -0.00000000000E+00  0.00000000000E+00  0.96070901772E+02  0.96070901772E+02  0.00000000000E+00 0.  1.
          1   -1    0    0  501    0  0.00000000000E+00 -0.00000000000E+00 -0.87228136686E+03  0.87228136686E+03  0.00000000000E+00 0. -1.
         23    2    1    2    0    0 -0.25250703806E+03 -0.75216673384E+02 -0.31545637443E+03  0.42959839544E+03  0.12499881990E+03 0.  0.
          5    1    3    3  502    0 -0.42474249888E+02  0.32354417401E+02 -0.40164326152E+02  0.66978603480E+02  0.47000000000E+01 0.  1.
         -5    1    3    3    0  502 -0.21003278817E+03 -0.10757109078E+03 -0.27529204828E+03  0.36261979196E+03  0.47000000000E+01 0.  1.
        -11    1    1    2    0    0  0.16436821707E+03  0.92301682881E+02 -0.33206213711E+03  0.38183998526E+03  0.00000000000E+00 0. -1.
         11    1    1    2    0    0  0.88138820992E+02 -0.17085009496E+02 -0.12869195354E+03  0.15691388792E+03  0.00000000000E+00 0.  1.
<mgrwt>
<rscale>  0 0.28846798E+03</rscale>
<asrwt>0</asrwt>
<pdfrwt beam="2">  1        1 0.13419713E+00 0.29161971E+03</pdfrwt>
<pdfrwt beam="1">  1       -1 0.14780140E-01 0.29161971E+03</pdfrwt>
<totfact> 0.66288317E+02</totfact>
</mgrwt>
</event>
<event>
 7    1  0.4230786E-006  0.1271734E+03  0.7546771E-02  0.1245686E+00
         -1   -1    0    0    0  501 -0.00000000000E+00  0.00000000000E+00  0.56929508597E+03  0.56929508597E+03  0.00000000000E+00 0.  1.
          1   -1    0    0  501    0  0.00000000000E+00 -0.00000000000E+00 -0.35484345841E+02  0.35484345841E+02  0.00000000000E+00 0. -1.
         23    2    1    2    0    0  0.49938100990E+01 -0.22862309660E+02  0.47663511618E+03  0.49330933940E+03  0.12500178808E+03 0.  0.
          5    1    3    3  502    0  0.11418366825E+01  0.22780986466E+02  0.41850157779E+03  0.41914906388E+03  0.47000000000E+01 0.  1.
         -5    1    3    3    0  502  0.38519734165E+01 -0.45643296126E+02  0.58133538389E+02  0.74160275526E+02  0.47000000000E+01 0.  1.
        -11    1    1    2    0    0  0.14720685267E+02  0.36243125596E+02  0.73032510853E+02  0.82849323288E+02  0.00000000000E+00 0.  1.
         11    1    1    2    0    0 -0.19714495366E+02 -0.13380815936E+02 -0.15856886906E+02  0.28620769119E+02  0.00000000000E+00 0. -1.
<mgrwt>
<rscale>  0 0.11844413E+03</rscale>
<asrwt>0</asrwt>
<pdfrwt beam="2">  1        1 0.54591306E-02 0.12717339E+03</pdfrwt>
<pdfrwt beam="1">  1       -1 0.87583852E-01 0.12717339E+03</pdfrwt>
<totfact> 0.19228632E+03</totfact>
</mgrwt>
</event>
<event>
 7    1  0.4230786E-006  0.1660662E+03  0.7546771E-02  0.1187253E+00
          2   -1    0    0  501    0  0.00000000000E+00  0.00000000000E+00  0.12237842148E+03  0.12237842148E+03  0.00000000000E+00 0. -1.
         -2   -1    0    0    0  501 -0.00000000000E+00 -0.00000000000E+00 -0.21068479530E+03  0.21068479530E+03  0.00000000000E+00 0.  1.
         23    2    1    2    0    0  0.10756891487E+03  0.19487193189E+02 -0.81914838768E+02  0.18517025117E+03  0.12500863555E+03 0.  0.
          5    1    3    3  502    0 -0.22396832873E+02  0.25107257695E+02 -0.60562658950E+01  0.34507403094E+02  0.47000000000E+01 0. -1.
         -5    1    3    3    0  502  0.12996574774E+03 -0.56200645058E+01 -0.75858572873E+02  0.15066284807E+03  0.47000000000E+01 0. -1.
        -11    1    1    2    0    0 -0.90264995737E+02 -0.21191448045E+02 -0.46830269680E+02  0.10387454493E+03  0.00000000000E+00 0.  1.
         11    1    1    2    0    0 -0.17303919132E+02  0.17042548563E+01  0.40438734625E+02  0.44018420690E+02  0.00000000000E+00 0. -1.
<mgrwt>
<rscale>  0 0.16128587E+03</rscale>
<asrwt>0</asrwt>
<pdfrwt beam="1">  1        2 0.18827450E-01 0.16606619E+03</pdfrwt>
<pdfrwt beam="2">  1       -2 0.32413045E-01 0.16606619E+03</pdfrwt>
<totfact> 0.25768854E+03</totfact>
</mgrwt>
</event>
<event>
 7    1  0.4230786E-006  0.1697937E+03  0.7546771E-02  0.1184908E+00
         -1   -1    0    0    0  501 -0.00000000000E+00  0.00000000000E+00  0.88449106146E+03  0.88449106146E+03  0.00000000000E+00 0.  1.
          1   -1    0    0  501    0  0.00000000000E+00 -0.00000000000E+00 -0.30761555461E+02  0.30761555461E+02  0.00000000000E+00 0. -1.
         23    2    1    2    0    0  0.10516961314E+03 -0.46350150231E+02  0.59043813089E+03  0.61436721239E+03  0.12498360415E+03 0.  0.
          5    1    3    3  502    0  0.86543443840E+02 -0.19322540035E+02  0.16277843036E+03  0.18542393485E+03  0.47000000000E+01 0.  1.
         -5    1    3    3    0  502  0.18626169298E+02 -0.27027610196E+02  0.42765970052E+03  0.42894327754E+03  0.47000000000E+01 0.  1.
        -11    1    1    2    0    0 -0.38462376178E+02 -0.15978387163E+02  0.14842477274E+03  0.15415763491E+03  0.00000000000E+00 0.  1.
         11    1    1    2    0    0 -0.66707236959E+02  0.62328537394E+02  0.11486660237E+03  0.14672776961E+03  0.00000000000E+00 0. -1.
<mgrwt>
<rscale>  0 0.16340218E+03</rscale>
<asrwt>0</asrwt>
<pdfrwt beam="2">  1        1 0.47325477E-02 0.16979365E+03</pdfrwt>
<pdfrwt beam="1">  1       -1 0.13607553E+00 0.16979365E+03</pdfrwt>
<totfact> 0.86511895E+02</totfact>
</mgrwt>
</event>
<event>
 7    1  0.4230786E-006  0.2262647E+03  0.7546771E-02  0.1132500E+00
         -3   -1    0    0    0  501 -0.00000000000E+00  0.00000000000E+00  0.23352409438E+03  0.23352409438E+03  0.00000000000E+00 0.  1.
          3   -1    0    0  501    0  0.00000000000E+00 -0.00000000000E+00 -0.32427938927E+03  0.32427938927E+03  0.00000000000E+00 0. -1.
         23    2    1    2    0    0 -0.33105498250E+02 -0.18567375927E+03  0.12399844259E+03  0.25801420350E+03  0.12499998620E+03 0.  0.
          5    1    3    3  502    0 -0.64258039669E+02 -0.14875961210E+03  0.50235336431E+02  0.16971799221E+03  0.47000000000E+01 0. -1.
         -5    1    3    3    0  502  0.31152541418E+02 -0.36914147165E+02  0.73763106154E+02  0.88296211285E+02  0.47000000000E+01 0. -1.
        -11    1    1    2    0    0 -0.28167993913E+02  0.87655179175E+02 -0.11325981568E+03  0.14596113238E+03  0.00000000000E+00 0.  1.
         11    1    1    2    0    0  0.61273492163E+02  0.98018580092E+02 -0.10149392180E+03  0.15382814777E+03  0.00000000000E+00 0. -1.
<mgrwt>
<rscale>  0 0.22186581E+03</rscale>
<asrwt>0</asrwt>
<pdfrwt beam="2">  1        3 0.49889137E-01 0.22626470E+03</pdfrwt>
<pdfrwt beam="1">  1       -3 0.35926784E-01 0.22626470E+03</pdfrwt>
<totfact> 0.75660379E+01</totfact>
</mgrwt>
</event>
<event>
 7    1  0.4230786E-006  0.2107691E+03  0.7546771E-02  0.1143531E+00
          2   -1    0    0  501    0  0.00000000000E+00  0.00000000000E+00  0.65463812282E+03  0.65463812282E+03  0.00000000000E+00 0. -1.
         -2   -1    0    0    0  501 -0.00000000000E+00 -0.00000000000E+00 -0.64162311744E+02  0.64162311744E+02  0.00000000000E+00 0.  1.
         23    2    1    2    0    0  0.16475414774E+03 -0.40624532235E+02  0.27940059842E+03  0.34998332362E+03  0.12501740118E+03 0.  0.
          5    1    3    3  502    0  0.15431724834E+03 -0.76728014350E+02  0.21947303513E+03  0.27909049513E+03  0.47000000000E+01 0. -1.
         -5    1    3    3    0  502  0.10436899399E+02  0.36103482115E+02  0.59927563284E+02  0.70892828488E+02  0.47000000000E+01 0. -1.
        -11    1    1    2    0    0 -0.10794077510E+03  0.65810230276E+02  0.25711512390E+03  0.28651419559E+03  0.00000000000E+00 0. -1.
         11    1    1    2    0    0 -0.56813372643E+02 -0.25185698041E+02  0.53960088762E+02  0.82302915356E+02  0.00000000000E+00 0.  1.
<mgrwt>
<rscale>  0 0.20753754E+03</rscale>
<asrwt>0</asrwt>
<pdfrwt beam="1">  1        2 0.10071355E+00 0.21076914E+03</pdfrwt>
<pdfrwt beam="2">  1       -2 0.98711253E-02 0.21076914E+03</pdfrwt>
<totfact> 0.30538892E+03</totfact>
</mgrwt>
</event>
<event>
 7    1  0.4230786E-006  0.1362710E+03  0.7546771E-02  0.1230552E+00
         -2   -1    0    0    0  501 -0.00000000000E+00  0.00000000000E+00  0.12783383159E+03  0.12783383159E+03  0.00000000000E+00 0.  1.
          2   -1    0    0  501    0  0.00000000000E+00 -0.00000000000E+00 -0.13347394551E+03  0.13347394551E+03  0.00000000000E+00 0. -1.
         23    2    1    2    0    0 -0.37132387514E+02 -0.39577296877E+02  0.45594153951E+02  0.14369622962E+03  0.12499841160E+03 0.  0.
          5    1    3    3  502    0 -0.51643093712E+02 -0.35746169509E+02  0.82374910181E+02  0.10369432767E+03  0.47000000000E+01 0.  1.
         -5    1    3    3    0  502  0.14510706198E+02 -0.38311273686E+01 -0.36780756229E+02  0.40001901956E+02  0.47000000000E+01 0.  1.
        -11    1    1    2    0    0  0.18363277094E+02 -0.10295288593E+02  0.19740097373E+02  0.28859562664E+02  0.00000000000E+00 0.  1.
         11    1    1    2    0    0  0.18769110420E+02  0.49872585471E+02 -0.70974365244E+02  0.88751984819E+02  0.00000000000E+00 0. -1.
<mgrwt>
<rscale>  0 0.12793555E+03</rscale>
<asrwt>0</asrwt>
<pdfrwt beam="2">  1        2 0.20534453E-01 0.13627098E+03</pdfrwt>
<pdfrwt beam="1">  1       -2 0.19666743E-01 0.13627098E+03</pdfrwt>
<totfact> 0.55498453E+03</totfact>
</mgrwt>
</event>
<event>
 7    1  0.4230786E-006  0.1322854E+03  0.7546771E-02  0.1235751E+00
         -2   -1    0    0    0  501 -0.00000000000E+00  0.00000000000E+00  0.16263882353E+02  0.16263882353E+02  0.00000000000E+00 0.  1.
          2   -1    0    0  501    0  0.00000000000E+00 -0.00000000000E+00 -0.85933374739E+03  0.85933374739E+03  0.00000000000E+00 0. -1.
         23    2    1    2    0    0 -0.33195622096E+02  0.27821932279E+02 -0.45627948385E+03  0.47506883445E+03  0.12499368321E+03 0.  0.
          5    1    3    3  502    0 -0.28435158253E+01  0.74924536879E+02 -0.28829643554E+03  0.29792397781E+03  0.47000000000E+01 0. -1.
         -5    1    3    3    0  502 -0.30352106271E+02 -0.47102604600E+02 -0.16798304831E+03  0.17714485664E+03  0.47000000000E+01 0. -1.
        -11    1    1    2    0    0  0.20854031107E+02  0.25991605277E+02 -0.56017545111E+02  0.65179901186E+02  0.00000000000E+00 0.  1.
         11    1    1    2    0    0  0.12341590989E+02 -0.53813537555E+02 -0.33077283608E+03  0.33534889411E+03  0.00000000000E+00 0. -1.
<mgrwt>
<rscale>  0 0.12456467E+03</rscale>
<asrwt>0</asrwt>
<pdfrwt beam="2">  1        2 0.13220523E+00 0.13228541E+03</pdfrwt>
<pdfrwt beam="1">  1       -2 0.25021350E-02 0.13228541E+03</pdfrwt>
<totfact> 0.17055285E+04</totfact>
</mgrwt>
</event>
<event>
 7    1  0.4230786E-006  0.2796006E+03  0.7546771E-02  0.1097778E+00
         -1   -1    0    0    0  501 -0.00000000000E+00  0.00000000000E+00  0.60348395303E+02  0.60348395303E+02  0.00000000000E+00 0.  1.
          1   -1    0    0  501    0  0.00000000000E+00 -0.00000000000E+00 -0.12404279365E+04  0.12404279365E+04  0.00000000000E+00 0. -1.
         23    2    1    2    0    0 -0.20347319689E+03  0.14543062719E+03 -0.55908592450E+03  0.62510286670E+03  0.12500045523E+03 0.  0.
          5    1    3    3  502    0 -0.50609709791E+01 -0.19598591776E+02 -0.31134135314E+02  0.37431839504E+02  0.47000000000E+01 0. -1.
         -5    1    3    3    0  502 -0.19841222591E+03  0.16502921897E+03 -0.52795178919E+03  0.58767102720E+03  0.47000000000E+01 0. -1.
        -11    1    1    2    0    0  0.85888652815E+02 -0.59323792847E+02 -0.15074461383E+03  0.18335787869E+03  0.00000000000E+00 0.  1.
         11    1    1    2    0    0  0.11758454407E+03 -0.86106834344E+02 -0.47024900288E+03  0.49231558643E+03  0.00000000000E+00 0. -1.
<mgrwt>
<rscale>  0 0.27620759E+03</rscale>
<asrwt>0</asrwt>
<pdfrwt beam="2">  1        1 0.19083506E+00 0.27960065E+03</pdfrwt>
<pdfrwt beam="1">  1       -1 0.92843688E-02 0.27960065E+03</pdfrwt>
<totfact> 0.73498614E+02</totfact>
</mgrwt>
</event>
<event>
 7    1  0.4230786E-006  0.1355954E+03  0.7546771E-02  0.1231275E+00
          1   -1    0    0  501    0  0.00000000000E+00  0.00000000000E+00  0.67087868537E+02  0.67087868537E+02  0.00000000000E+00 0. -1.
         -1   -1    0    0    0  501 -0.00000000000E+00 -0.00000000000E+00 -0.22994700459E+03  0.22994700459E+03  0.00000000000E+00 0.  1.
         23    2    1    2    0    0 -0.19843412591E+02  0.48658387401E+02 -0.12553242313E+03  0.18478229993E+03  0.12499883769E+03 0.  0.
          5    1    3    3  502    0 -0.22601899070E+02 -0.82453237291E+01  0.17916376631E+02  0.30363098599E+02  0.47000000000E+01 0.  1.
         -5    1    3    3    0  502  0.27584864786E+01  0.56903711130E+02 -0.14344879976E+03  0.15441920133E+03  0.47000000000E+01 0.  1.
        -11    1    1    2    0    0 -0.85766979436E+01 -0.86464921442E+01 -0.57804614213E+02  0.59073640469E+02  0.00000000000E+00 0.  1.
         11    1    1    2    0    0  0.28420110535E+02 -0.40011895257E+02  0.20477901288E+02  0.53178932727E+02  0.00000000000E+00 0. -1.
<mgrwt>
<rscale>  0 0.12745932E+03</rscale>
<asrwt>0</asrwt>
<pdfrwt beam="1">  1        1 0.10321211E-01 0.13559539E+03</pdfrwt>
<pdfrwt beam="2">  1       -1 0.35376462E-01 0.13559539E+03</pdfrwt>
<totfact> 0.45103641E+03</totfact>
</mgrwt>
</event>
<event>
 7    1  0.4230786E-006  0.1260659E+03  0.7546771E-02  0.1248683E+00
          2   -1    0    0  501    0  0.00000000000E+00  0.00000000000E+00  0.20349923435E+03  0.20349923435E+03  0.00000000000E+00 0. -1.
         -2   -1    0    0    0  501 -0.00000000000E+00 -0.00000000000E+00 -0.64186230340E+02  0.64186230340E+02  0.00000000000E+00 0.  1.
         23    2    1    2    0    0 -0.15276035530E+02  0.58466499303E+01  0.40685309371E+02  0.13246853759E+03  0.12500031390E+03 0.  0.
          5    1    3    3  502    0  0.41455011997E+02  0.40590388091E+02  0.10014616351E+02  0.59063357217E+02  0.47000000000E+01 0. -1.
         -5    1    3    3    0  502 -0.56731047527E+02 -0.34743738160E+02  0.30670693020E+02  0.73405180370E+02  0.47000000000E+01 0. -1.
        -11    1    1    2    0    0 -0.15955434542E+02  0.26848097670E+02  0.55255144396E+01  0.31716360916E+02  0.00000000000E+00 0.  1.
         11    1    1    2    0    0  0.31231470072E+02 -0.32694747600E+02  0.93102180202E+02  0.10350056619E+03  0.00000000000E+00 0. -1.
<mgrwt>
<rscale>  0 0.11667650E+03</rscale>
<asrwt>0</asrwt>
<pdfrwt beam="1">  1        2 0.31307574E-01 0.12606593E+03</pdfrwt>
<pdfrwt beam="2">  1       -2 0.98748048E-02 0.12606593E+03</pdfrwt>
<totfact> 0.10605306E+04</totfact>
</mgrwt>
</event>
<event>
 6    1  0.4230786E-006  0.2096290E+03  0.7546771E-02  0.1149109E+00
         -1   -1    0    0    0  501 -0.00000000000E+00  0.00000000000E+00  0.16056297704E+03  0.16056297704E+03  0.00000000000E+00 0.  1.
          1   -1    0    0  501    0  0.00000000000E+00 -0.00000000000E+00 -0.47033273776E+03  0.47033273776E+03  0.00000000000E+00 0. -1.
          5    1    1    2  502    0  0.61199067502E+02  0.16751759409E+02 -0.42140252014E+02  0.76314075676E+02  0.47000000000E+01 0. -1.
         -5    1    1    2    0  502  0.87901850832E+02 -0.39534663303E+02  0.10484307775E+03  0.14249170479E+03  0.47000000000E+01 0.  1.
        -11    1    1    2    0    0 -0.11095838633E+03 -0.26387694290E+02 -0.23811846101E+03  0.26402362656E+03  0.00000000000E+00 0. -1.
         11    1    1    2    0    0 -0.38142532000E+02  0.49170598185E+02 -0.13435412545E+03  0.14806630778E+03  0.00000000000E+00 0.  1.
<mgrwt>
<rscale>  0 0.20074867E+03</rscale>
<asrwt>0</asrwt>
<pdfrwt beam="2">  1        1 0.72358882E-01 0.20962902E+03</pdfrwt>
<pdfrwt beam="1">  1       -1 0.24701997E-01 0.20962902E+03</pdfrwt>
<totfact> 0.69931153E+02</totfact>
</mgrwt>
</event>
<event>
 7    1  0.4230786E-006  0.1377465E+03  0.7546771E-02  0.1227360E+00
          2   -1    0    0  501    0  0.00000000000E+00  0.00000000000E+00  0.47546251619E+02  0.47546251619E+02  0.00000000000E+00 0. -1.
         -2   -1    0    0    0  501 -0.00000000000E+00 -0.00000000000E+00 -0.32876318157E+03  0.32876318157E+03  0.00000000000E+00 0.  1.
         23    2    1    2    0    0  0.19878853406E+02 -0.54348352457E+02 -0.18426499002E+03  0.23006020256E+03  0.12500079211E+03 0.  0.
          5    1    3    3  502    0  0.57814379648E+02 -0.28492569253E+02 -0.16982389551E+03  0.18170463528E+03  0.47000000000E+01 0.  1.
         -5    1    3    3    0  502 -0.37935526243E+02 -0.25855783204E+02 -0.14441094510E+02  0.48355567281E+02  0.47000000000E+01 0.  1.
        -11    1    1    2    0    0 -0.24890510952E+02  0.67679091819E+02 -0.10684935828E+03  0.12890609904E+03  0.00000000000E+00 0.  1.
         11    1    1    2    0    0  0.50116575462E+01 -0.13330739362E+02  0.98974183476E+01  0.17343131587E+02  0.00000000000E+00 0. -1.
<mgrwt>
<rscale>  0 0.13006460E+03</rscale>
<asrwt>0</asrwt>
<pdfrwt beam="1">  1        2 0.73148081E-02 0.13774654E+03</pdfrwt>
<pdfrwt beam="2">  1       -2 0.50578950E-01 0.13774654E+03</pdfrwt>
<totfact> 0.34265789E+03</totfact>
</mgrwt>
</event>
<event>
 7    1  0.4230786E-006  0.1454560E+03  0.7546771E-02  0.1215961E+00
          2   -1    0    0  501    0  0.00000000000E+00  0.00000000000E+00  0.56689222263E+02  0.56689222263E+02  0.00000000000E+00 0. -1.
         -2   -1    0    0    0  501 -0.00000000000E+00 -0.00000000000E+00 -0.34694774942E+03  0.34694774942E+03  0.00000000000E+00 0.  1.
         23    2    1    2    0    0 -0.43459653035E+02 -0.60342537787E+02 -0.22725239528E+03  0.26981678342E+03  0.12500992818E+03 0.  0.
          5    1    3    3  502    0  0.36190399639E+02  0.74221400950E+01 -0.36039069347E+02  0.51824103552E+02  0.47000000000E+01 0. -1.
         -5    1    3    3    0  502 -0.79650052673E+02 -0.67764677882E+02 -0.19121332594E+03  0.21799267987E+03  0.47000000000E+01 0. -1.
        -11    1    1    2    0    0  0.64743613198E+02  0.56114528246E+02 -0.23655309463E+02  0.88882784588E+02  0.00000000000E+00 0. -1.
         11    1    1    2    0    0 -0.21283960164E+02  0.42280095410E+01 -0.39350822412E+02  0.44937403679E+02  0.00000000000E+00 0.  1.
<mgrwt>
<rscale>  0 0.13806196E+03</rscale>
<asrwt>0</asrwt>
<pdfrwt beam="1">  1        2 0.87214188E-02 0.14545599E+03</pdfrwt>
<pdfrwt beam="2">  1       -2 0.53376577E-01 0.14545599E+03</pdfrwt>
<totfact> 0.24753798E+03</totfact>
</mgrwt>
</event>
<event>
 7    1  0.4230786E-006  0.1439952E+03  0.7546771E-02  0.1218516E+00
          1   -1    0    0  501    0  0.00000000000E+00  0.00000000000E+00  0.13891184382E+03  0.13891184382E+03  0.00000000000E+00 0. -1.
         -1   -1    0    0    0  501 -0.00000000000E+00 -0.00000000000E+00 -0.12267334657E+03  0.12267334657E+03  0.00000000000E+00 0.  1.
         23    2    1    2    0    0  0.49036947095E+02  0.52015935535E+02 -0.61588422564E+01  0.14412689746E+03  0.12499740598E+03 0.  0.
          5    1    3    3  502    0  0.57489007615E+01  0.86752030202E+02  0.54120692297E+01  0.87237291896E+02  0.47000000000E+01 0. -1.
         -5    1    3    3    0  502  0.43288046333E+02 -0.34736094666E+02 -0.11570911486E+02  0.56889605559E+02  0.47000000000E+01 0. -1.
        -11    1    1    2    0    0 -0.67968971615E+02 -0.55771334730E+02  0.39207786913E-01  0.87921694804E+02  0.00000000000E+00 0.  1.
         11    1    1    2    0    0  0.18932024521E+02  0.37553991942E+01  0.22358131711E+02  0.29536598131E+02  0.00000000000E+00 0. -1.
<mgrwt>
<rscale>  0 0.13621389E+03</rscale>
<asrwt>0</asrwt>
<pdfrwt beam="1">  1        1 0.21371053E-01 0.14399525E+03</pdfrwt>
<pdfrwt beam="2">  1       -1 0.18872822E-01 0.14399525E+03</pdfrwt>
<totfact> 0.49801202E+03</totfact>
</mgrwt>
</event>
<event>
 7    1  0.4230786E-006  0.1261461E+03  0.7546771E-02  0.1248971E+00
          2   -1    0    0  501    0  0.00000000000E+00  0.00000000000E+00  0.30276718292E+03  0.30276718292E+03  0.00000000000E+00 0. -1.
         -2   -1    0    0    0  501 -0.00000000000E+00 -0.00000000000E+00 -0.39768657291E+02  0.39768657291E+02  0.00000000000E+00 0.  1.
         23    2    1    2    0    0  0.89328022810E+01 -0.14426758106E+02  0.13206225339E+03  0.18262878941E+03  0.12499963858E+03 0.  0.
          5    1    3    3  502    0  0.52773102675E+02 -0.42326238736E+01  0.12627571505E+03  0.13700569945E+03  0.47000000000E+01 0. -1.
         -5    1    3    3    0  502 -0.43840300394E+02 -0.10194134232E+02  0.57865383379E+01  0.45623089958E+02  0.47000000000E+01 0. -1.
        -11    1    1    2    0    0 -0.19337031985E+02  0.44074539011E+02  0.11502303240E+03  0.12468674259E+03  0.00000000000E+00 0. -1.
         11    1    1    2    0    0  0.10404229704E+02 -0.29647780906E+02  0.15913239841E+02  0.35220308213E+02  0.00000000000E+00 0.  1.
<mgrwt>
<rscale>  0 0.11650854E+03</rscale>
<asrwt>0</asrwt>
<pdfrwt beam="1">  1        2 0.46579565E-01 0.12614609E+03</pdfrwt>
<pdfrwt beam="2">  1       -2 0.61182552E-02 0.12614609E+03</pdfrwt>
<totfact> 0.14518913E+04</totfact>
</mgrwt>
</event>
<event>
 7    1  0.4230786E-006  0.1322841E+03  0.7546771E-02  0.1242422E+00
          4   -1    0    0  501    0  0.00000000000E+00  0.00000000000E+00  0.26482599292E+02  0.26482599292E+02  0.00000000000E+00 0. -1.
         -4   -1    0    0    0  501 -0.00000000000E+00 -0.00000000000E+00 -0.46984902691E+03  0.46984902691E+03  0.00000000000E+00 0.  1.
         23    2    1    2    0    0  0.43114004849E+02 -0.44203819707E+00 -0.26365841292E+03  0.29498276712E+03  0.12506023102E+03 0.  0.
          5    1    3    3  502    0  0.33558483690E+02 -0.58012715791E+02 -0.94263874837E+02  0.11575584270E+03  0.47000000000E+01 0.  1.
         -5    1    3    3    0  502  0.95555211590E+01  0.57570677594E+02 -0.16939453808E+03  0.17922692442E+03  0.47000000000E+01 0.  1.
        -11    1    1    2    0    0  0.75593819985E+01  0.16389238550E+02 -0.49791695300E+01  0.18722807633E+02  0.00000000000E+00 0. -1.
         11    1    1    2    0    0 -0.50673386848E+02 -0.15947200353E+02 -0.17472884516E+03  0.18262605144E+03  0.00000000000E+00 0.  1.
<mgrwt>
<rscale>  0 0.12041030E+03</rscale>
<asrwt>0</asrwt>
<pdfrwt beam="1">  1        4 0.40742463E-02 0.13228407E+03</pdfrwt>
<pdfrwt beam="2">  1       -4 0.72284460E-01 0.13228407E+03</pdfrwt>
<totfact> 0.97085719E+02</totfact>
</mgrwt>
</event>
<event>
 7    1  0.4230786E-006  0.2448259E+03  0.7546771E-02  0.1119300E+00
          1   -1    0    0  501    0  0.00000000000E+00  0.00000000000E+00  0.52977678468E+02  0.52977678468E+02  0.00000000000E+00 0. -1.
         -1   -1    0    0    0  501 -0.00000000000E+00 -0.00000000000E+00 -0.11323621369E+04  0.11323621369E+04  0.00000000000E+00 0.  1.
         23    2    1    2    0    0  0.20315953502E+03 -0.55171315708E+02 -0.70746192239E+03  0.74862678886E+03  0.12498810587E+03 0.  0.
          5    1    3    3  502    0  0.86005710975E+02  0.31398556326E+02 -0.36707296536E+03  0.37834838914E+03  0.47000000000E+01 0. -1.
         -5    1    3    3    0  502  0.11715382405E+03 -0.86569872034E+02 -0.34038895703E+03  0.37027839972E+03  0.47000000000E+01 0. -1.
        -11    1    1    2    0    0 -0.13213340606E+03 -0.95975006678E+01 -0.22627107870E+03  0.26220211683E+03  0.00000000000E+00 0. -1.
         11    1    1    2    0    0 -0.71026128961E+02  0.64768816376E+02 -0.14565145730E+03  0.17451090964E+03  0.00000000000E+00 0.  1.
<mgrwt>
<rscale>  0 0.24074150E+03</rscale>
<asrwt>0</asrwt>
<pdfrwt beam="1">  1        1 0.81504127E-02 0.24482585E+03</pdfrwt>
<pdfrwt beam="2">  1       -1 0.17420955E+00 0.24482585E+03</pdfrwt>
<totfact> 0.21349040E+02</totfact>
</mgrwt>
</event>
<event>
 7    1  0.4230786E-006  0.1311295E+03  0.7546771E-02  0.1239367E+00
         -4   -1    0    0    0  501 -0.00000000000E+00  0.00000000000E+00  0.14712002192E+03  0.14712002192E+03  0.00000000000E+00 0.  1.
          4   -1    0    0  501    0  0.00000000000E+00 -0.00000000000E+00 -0.95197362826E+02  0.95197362826E+02  0.00000000000E+00 0. -1.
         23    2    1    2    0    0 -0.53167354975E+01  0.39260877390E+02  0.57039111739E+02  0.14299789219E+03  0.12500101092E+03 0.  0.
          5    1    3    3  502    0  0.51006493774E+02  0.58885481180E+01 -0.61041467851E+01  0.51920015543E+02  0.47000000000E+01 0.  1.
         -5    1    3    3    0  502 -0.56323229271E+02  0.33372329272E+02  0.63143258524E+02  0.91077876642E+02  0.47000000000E+01 0.  1.
        -11    1    1    2    0    0  0.34915318040E+02 -0.36145558818E+02  0.25727425653E+02  0.56457783227E+02  0.00000000000E+00 0.  1.
         11    1    1    2    0    0 -0.29598582543E+02 -0.31153185721E+01 -0.30843878299E+02  0.42861709332E+02  0.00000000000E+00 0. -1.
<mgrwt>
<rscale>  0 0.12228962E+03</rscale>
<asrwt>0</asrwt>
<pdfrwt beam="2">  1        4 0.14645748E-01 0.13112947E+03</pdfrwt>
<pdfrwt beam="1">  1       -4 0.22633850E-01 0.13112947E+03</pdfrwt>
<totfact> 0.11585009E+03</totfact>
</mgrwt>
</event>
<event>
 7    1  0.4230786E-006  0.1404806E+03  0.7546771E-02  0.1224416E+00
         -2   -1    0    0    0  501 -0.00000000000E+00  0.00000000000E+00  0.22459776005E+03  0.22459776005E+03  0.00000000000E+00 0.  1.
          2   -1    0    0  501    0  0.00000000000E+00 -0.00000000000E+00 -0.71652149121E+02  0.71652149121E+02  0.00000000000E+00 0. -1.
         23    2    1    2    0    0  0.61903546679E+02  0.16664472920E+02  0.10992490428E+03  0.17837683122E+03  0.12500022235E+03 0.  0.
          5    1    3    3  502    0 -0.26978631364E+02 -0.19240007445E+02  0.63461927598E+02  0.71746293919E+02  0.47000000000E+01 0.  1.
         -5    1    3    3    0  502  0.88882178043E+02  0.35904480364E+02  0.46462976678E+02  0.10663053730E+03  0.47000000000E+01 0.  1.
        -11    1    1    2    0    0 -0.81344420297E+02 -0.77728087845E+01  0.49495800827E+02  0.95536200308E+02  0.00000000000E+00 0.  1.
         11    1    1    2    0    0  0.19440873618E+02 -0.88916641354E+01 -0.64750941728E+01  0.22336877639E+02  0.00000000000E+00 0. -1.
<mgrwt>
<rscale>  0 0.13207039E+03</rscale>
<asrwt>0</asrwt>
<pdfrwt beam="2">  1        2 0.11023408E-01 0.14048064E+03</pdfrwt>
<pdfrwt beam="1">  1       -2 0.34553501E-01 0.14048064E+03</pdfrwt>
<totfact> 0.42703964E+03</totfact>
</mgrwt>
</event>
<event>
 7    1  0.4230786E-006  0.1488856E+03  0.7546771E-02  0.1211416E+00
         -1   -1    0    0    0  501 -0.00000000000E+00  0.00000000000E+00  0.11443837502E+04  0.11443837502E+04  0.00000000000E+00 0.  1.
          1   -1    0    0  501    0  0.00000000000E+00 -0.00000000000E+00 -0.16082256778E+02  0.16082256778E+02  0.00000000000E+00 0. -1.
         23    2    1    2    0    0 -0.36604134762E+02  0.72129148921E+02  0.67574401204E+03  0.69195151867E+03  0.12499783027E+03 0.  0.
          5    1    3    3  502    0 -0.37474481623E+02  0.10180368673E+03  0.39666142029E+03  0.41125503006E+03  0.47000000000E+01 0.  1.
         -5    1    3    3    0  502  0.87034686035E+00 -0.29674537809E+02  0.27908259175E+03  0.28069648861E+03  0.47000000000E+01 0.  1.
        -11    1    1    2    0    0 -0.18008861834E+02  0.31520972690E+01  0.25078704834E+02  0.31035403299E+02  0.00000000000E+00 0. -1.
         11    1    1    2    0    0  0.54612996596E+02 -0.75281246190E+02  0.42747877656E+03  0.43747908503E+03  0.00000000000E+00 0.  1.
<mgrwt>
<rscale>  0 0.14143120E+03</rscale>
<asrwt>0</asrwt>
<pdfrwt beam="2">  1        1 0.24741943E-02 0.14888564E+03</pdfrwt>
<pdfrwt beam="1">  1       -1 0.17605897E+00 0.14888564E+03</pdfrwt>
<totfact> 0.10723592E+03</totfact>
</mgrwt>
</event>
<event>
 7    1  0.4230786E-006  0.1710842E+03  0.7546771E-02  0.1183477E+00
          1   -1    0    0  501    0  0.00000000000E+00  0.00000000000E+00  0.24953592170E+03  0.24953592170E+03  0.00000000000E+00 0. -1.
         -1   -1    0    0    0  501 -0.00000000000E+00 -0.00000000000E+00 -0.15282167781E+03  0.15282167781E+03  0.00000000000E+00 0.  1.
         23    2    1    2    0    0  0.50280061614E+02 -0.10543429138E+03 -0.65737451615E+02  0.18327902759E+03  0.12500126005E+03 0.  0.
          5    1    3    3  502    0 -0.21124106090E+02 -0.16063958671E+02 -0.63261641035E+02  0.68763390352E+02  0.47000000000E+01 0. -1.
         -5    1    3    3    0  502  0.71404167704E+02 -0.89370332713E+02 -0.24758105797E+01  0.11451563724E+03  0.47000000000E+01 0. -1.
        -11    1    1    2    0    0  0.53165972401E+01  0.23786756089E+02 -0.47938415626E+01  0.24840629790E+02  0.00000000000E+00 0.  1.
         11    1    1    2    0    0 -0.55596658854E+02  0.81647535295E+02  0.16724553706E+03  0.19423794213E+03  0.00000000000E+00 0. -1.
<mgrwt>
<rscale>  0 0.16471240E+03</rscale>
<asrwt>0</asrwt>
<pdfrwt beam="1">  1        1 0.38390142E-01 0.17108416E+03</pdfrwt>
<pdfrwt beam="2">  1       -1 0.23511027E-01 0.17108416E+03</pdfrwt>
<totfact> 0.16867165E+03</totfact>
</mgrwt>
</event>
<event>
 7    1  0.4230786E-006  0.1681186E+03  0.7546771E-02  0.1186478E+00
         -2   -1    0    0    0  501 -0.00000000000E+00  0.00000000000E+00  0.14606460256E+03  0.14606460256E+03  0.00000000000E+00 0.  1.
          2   -1    0    0  501    0  0.00000000000E+00 -0.00000000000E+00 -0.19837793433E+03  0.19837793433E+03  0.00000000000E+00 0. -1.
         23    2    1    2    0    0 -0.13315864575E+02  0.11162902585E+03  0.39791590904E+02  0.17276356560E+03  0.12500210891E+03 0.  0.
          5    1    3    3  502    0 -0.45891711304E+02  0.80745124292E+02 -0.22654832167E+02  0.95713926279E+02  0.47000000000E+01 0. -1.
         -5    1    3    3    0  502  0.32575846729E+02  0.30883901561E+02  0.62446423071E+02  0.77049639325E+02  0.47000000000E+01 0. -1.
        -11    1    1    2    0    0  0.37642040537E+02 -0.97166293856E+01 -0.35219488640E+02  0.52457110885E+02  0.00000000000E+00 0.  1.
         11    1    1    2    0    0 -0.24326175961E+02 -0.10191239647E+03 -0.56885434041E+02  0.11922186040E+03  0.00000000000E+00 0. -1.
<mgrwt>
<rscale>  0 0.16198111E+03</rscale>
<asrwt>0</asrwt>
<pdfrwt beam="2">  1        2 0.30519682E-01 0.16811865E+03</pdfrwt>
<pdfrwt beam="1">  1       -2 0.22471477E-01 0.16811865E+03</pdfrwt>
<totfact> 0.28835978E+03</totfact>
</mgrwt>
</event>
<event>
 7    1  0.4230786E-006  0.1253854E+03  0.7546771E-02  0.1249343E+00
         -1   -1    0    0    0  501 -0.00000000000E+00  0.00000000000E+00  0.23084280346E+02  0.23084280346E+02  0.00000000000E+00 0.  1.
          1   -1    0    0  501    0  0.00000000000E+00 -0.00000000000E+00 -0.51595381653E+03  0.51595381653E+03  0.00000000000E+00 0. -1.
         23    2    1    2    0    0 -0.79034498612E+01  0.56082239694E+01 -0.27498394833E+03  0.30222121484E+03  0.12501029622E+03 0.  0.
          5    1    3    3  502    0 -0.20875917192E+01 -0.59357030712E+02 -0.14336030896E+03  0.15524781261E+03  0.47000000000E+01 0. -1.
         -5    1    3    3    0  502 -0.58158581420E+01  0.64965254681E+02 -0.13162363937E+03  0.14697340223E+03  0.47000000000E+01 0. -1.
        -11    1    1    2    0    0  0.32536595258E+02 -0.35634864498E+02 -0.78712140857E+02  0.92325915739E+02  0.00000000000E+00 0.  1.
         11    1    1    2    0    0 -0.24633145397E+02  0.30026640529E+02 -0.13917344699E+03  0.14449096630E+03  0.00000000000E+00 0. -1.
<mgrwt>
<rscale>  0 0.11629167E+03</rscale>
<asrwt>0</asrwt>
<pdfrwt beam="2">  1        1 0.79377520E-01 0.12538537E+03</pdfrwt>
<pdfrwt beam="1">  1       -1 0.35514273E-02 0.12538537E+03</pdfrwt>
<totfact> 0.11999085E+04</totfact>
</mgrwt>
</event>
<event>
 7    1  0.4230786E-006  0.1903778E+03  0.7546771E-02  0.1163093E+00
          1   -1    0    0  501    0  0.00000000000E+00  0.00000000000E+00  0.26152349902E+03  0.26152349902E+03  0.00000000000E+00 0. -1.
         -1   -1    0    0    0  501 -0.00000000000E+00 -0.00000000000E+00 -0.12638952288E+03  0.12638952288E+03  0.00000000000E+00 0.  1.
         23    2    1    2    0    0  0.99801060343E+01  0.14325294565E+03  0.44037922271E+02  0.19540486177E+03  0.12499084947E+03 0.  0.
          5    1    3    3  502    0 -0.43344623536E+02  0.12316282281E+03  0.45102394054E+02  0.13821777477E+03  0.47000000000E+01 0. -1.
         -5    1    3    3    0  502  0.53324729570E+02  0.20090122837E+02 -0.10644717831E+01  0.57187087000E+02  0.47000000000E+01 0. -1.
        -11    1    1    2    0    0  0.27332295799E+01 -0.15266261095E+03  0.88495874980E+02  0.17647907302E+03  0.00000000000E+00 0. -1.
         11    1    1    2    0    0 -0.12713335614E+02  0.94096652948E+01  0.26001788872E+01  0.16029087112E+02  0.00000000000E+00 0.  1.
<mgrwt>
<rscale>  0 0.18495352E+03</rscale>
<asrwt>0</asrwt>
<pdfrwt beam="1">  1        1 0.40234384E-01 0.19037784E+03</pdfrwt>
<pdfrwt beam="2">  1       -1 0.19444542E-01 0.19037784E+03</pdfrwt>
<totfact> 0.21739121E+03</totfact>
</mgrwt>
</event>
<event>
 7    1  0.4230786E-006  0.1383453E+03  0.7546771E-02  0.1225962E+00
          1   -1    0    0  501    0  0.00000000000E+00  0.00000000000E+00  0.66081905692E+03  0.66081905692E+03  0.00000000000E+00 0. -1.
         -1   -1    0    0    0  501 -0.00000000000E+00 -0.00000000000E+00 -0.38299401968E+02  0.38299401968E+02  0.00000000000E+00 0.  1.
         23    2    1    2    0    0  0.42261594240E+02  0.41559806262E+02  0.11605780622E+03  0.18057916002E+03  0.12500463514E+03 0.  0.
          5    1    3    3  502    0 -0.14080866641E+02 -0.28230243487E+01  0.10708239315E+03  0.10814328086E+03  0.47000000000E+01 0.  1.
         -5    1    3    3    0  502  0.56342460881E+02  0.44382830611E+02  0.89754130675E+01  0.72435879168E+02  0.47000000000E+01 0.  1.
        -11    1    1    2    0    0 -0.59798181777E+02 -0.60702152825E+02  0.37899540824E+03  0.38845603789E+03  0.00000000000E+00 0.  1.
         11    1    1    2    0    0  0.17536587538E+02  0.19142346563E+02  0.12746644049E+03  0.13008326097E+03  0.00000000000E+00 0. -1.
<mgrwt>
<rscale>  0 0.13101190E+03</rscale>
<asrwt>0</asrwt>
<pdfrwt beam="1">  1        1 0.10166446E+00 0.13834529E+03</pdfrwt>
<pdfrwt beam="2">  1       -1 0.58922162E-02 0.13834529E+03</pdfrwt>
<totfact> 0.40959624E+03</totfact>
</mgrwt>
</event>
<event>
 7    1  0.4230786E-006  0.1292141E+03  0.7546771E-02  0.1244070E+00
          2   -1    0    0  501    0  0.00000000000E+00  0.00000000000E+00  0.14528579355E+03  0.14528579355E+03  0.00000000000E+00 0. -1.
         -2   -1    0    0    0  501 -0.00000000000E+00 -0.00000000000E+00 -0.87777409354E+02  0.87777409354E+02  0.00000000000E+00 0.  1.
         23    2    1    2    0    0 -0.30237860459E+02  0.12588870881E+02  0.16431399955E+02  0.13025470007E+03  0.12499395230E+03 0.  0.
          5    1    3    3  502    0 -0.28431205069E+02 -0.54443803283E+02  0.27905047963E+01  0.61663101241E+02  0.47000000000E+01 0.  1.
         -5    1    3    3    0  502 -0.18066553897E+01  0.67032674164E+02  0.13640895159E+02  0.68591598829E+02  0.47000000000E+01 0.  1.
        -11    1    1    2    0    0 -0.17314965120E+02  0.23739757020E+02 -0.14110625310E+01  0.29417259865E+02  0.00000000000E+00 0.  1.
         11    1    1    2    0    0  0.47552825579E+02 -0.36328627901E+02  0.42488046767E+02  0.73391242964E+02  0.00000000000E+00 0. -1.
<mgrwt>
<rscale>  0 0.11941202E+03</rscale>
<asrwt>0</asrwt>
<pdfrwt beam="1">  1        2 0.22351660E-01 0.12921415E+03</pdfrwt>
<pdfrwt beam="2">  1       -2 0.13504217E-01 0.12921415E+03</pdfrwt>
<totfact> 0.93450211E+03</totfact>
</mgrwt>
</event>
<event>
 7    1  0.4230786E-006  0.1925873E+03  0.7546771E-02  0.1160869E+00
          1   -1    0    0  501    0  0.00000000000E+00  0.00000000000E+00  0.40196636588E+02  0.40196636588E+02  0.00000000000E+00 0. -1.
         -1   -1    0    0    0  501 -0.00000000000E+00 -0.00000000000E+00 -0.82912803717E+03  0.82912803717E+03  0.00000000000E+00 0.  1.
         23    2    1    2    0    0 -0.73750925063E+02  0.12655542123E+03 -0.42251771736E+03  0.46433939184E+03  0.12503749734E+03 0.  0.
          5    1    3    3  502    0 -0.99179030873E+02  0.73934303246E+02 -0.34899790307E+03  0.37030310248E+03  0.47000000000E+01 0. -1.
         -5    1    3    3    0  502  0.25428105810E+02  0.52621117982E+02 -0.73519814294E+02  0.94036289360E+02  0.47000000000E+01 0. -1.
        -11    1    1    2    0    0  0.14372519680E+02 -0.88717987098E+02 -0.27676837081E+03  0.29099515741E+03  0.00000000000E+00 0.  1.
         11    1    1    2    0    0  0.59378405383E+02 -0.37837434130E+02 -0.89645312408E+02  0.11399012450E+03  0.00000000000E+00 0. -1.
<mgrwt>
<rscale>  0 0.18735444E+03</rscale>
<asrwt>0</asrwt>
<pdfrwt beam="1">  1        1 0.61840982E-02 0.19258725E+03</pdfrwt>
<pdfrwt beam="2">  1       -1 0.12755815E+00 0.19258725E+03</pdfrwt>
<totfact> 0.70378968E+02</totfact>
</mgrwt>
</event>
<event>
 7    1  0.4230786E-006  0.1213050E+03  0.7546771E-02  0.1251354E+00
         -1   -1    0    0    0  501 -0.00000000000E+00  0.00000000000E+00  0.38274094616E+02  0.38274094616E+02  0.00000000000E+00 0.  1.
          1   -1    0    0  501    0  0.00000000000E+00 -0.00000000000E+00 -0.37982459662E+03  0.37982459662E+03  0.00000000000E+00 0. -1.
         23    2    1    2    0    0 -0.13739520630E+02 -0.35430914525E+02 -0.99814230078E+02  0.15709166867E+03  0.11519890498E+03 0.  0.
          5    1    3    3  502    0  0.32525941732E+02  0.16125532251E+02 -0.74826726094E+02  0.83301252174E+02  0.47000000000E+01 0. -1.
         -5    1    3    3    0  502 -0.46265462362E+02 -0.51556446776E+02 -0.24987503985E+02  0.73790416499E+02  0.47000000000E+01 0.  1.
        -11    1    1    2    0    0 -0.25705524171E+02 -0.18444386091E+02 -0.80132522147E+02  0.86152135533E+02  0.00000000000E+00 0.  1.
         11    1    1    2    0    0  0.39445044801E+02  0.53875300617E+02 -0.16160374978E+03  0.17485488703E+03  0.00000000000E+00 0. -1.
<mgrwt>
<rscale>  0 0.11513033E+03</rscale>
<asrwt>0</asrwt>
<pdfrwt beam="2">  1        1 0.58434551E-01 0.12130504E+03</pdfrwt>
<pdfrwt beam="1">  1       -1 0.58883224E-02 0.12130504E+03</pdfrwt>
<totfact> 0.84059515E+03</totfact>
</mgrwt>
</event>
<event>
 7    1  0.4230786E-006  0.1754124E+03  0.7546771E-02  0.1177947E+00
         -2   -1    0    0    0  501 -0.00000000000E+00  0.00000000000E+00  0.25195426472E+03  0.25195426472E+03  0.00000000000E+00 0. -1.
          2   -1    0    0  501    0  0.00000000000E+00 -0.00000000000E+00 -0.13559944831E+03  0.13559944831E+03  0.00000000000E+00 0.  1.
         23    2    1    2    0    0 -0.10164576963E+03 -0.69375139919E+02  0.14851867491E+03  0.22984190406E+03  0.12499892615E+03 0.  0.
          5    1    3    3  502    0  0.90965652114E+01 -0.79330312517E+01  0.88807762063E+02  0.89747362558E+02  0.47000000000E+01 0.  1.
         -5    1    3    3    0  502 -0.11074233484E+03 -0.61442108667E+02  0.59710912850E+02  0.14009454150E+03  0.47000000000E+01 0.  1.
        -11    1    1    2    0    0  0.98936596615E+02  0.58958991424E+02 -0.58560714270E+02  0.12920514725E+03  0.00000000000E+00 0.  1.
         11    1    1    2    0    0  0.27091730171E+01  0.10416148495E+02  0.26396855773E+02  0.28506661723E+02  0.00000000000E+00 0. -1.
<mgrwt>
<rscale>  0 0.16990457E+03</rscale>
<asrwt>0</asrwt>
<pdfrwt beam="2">  1        2 0.20861454E-01 0.17541238E+03</pdfrwt>
<pdfrwt beam="1">  1       -2 0.38762194E-01 0.17541238E+03</pdfrwt>
<totfact> 0.16475382E+03</totfact>
</mgrwt>
</event>
<event>
 7    1  0.4230786E-006  0.1291262E+03  0.7546771E-02  0.1258199E+00
          1   -1    0    0  501    0  0.00000000000E+00  0.00000000000E+00  0.58154900604E+02  0.58154900604E+02  0.00000000000E+00 0. -1.
         -1   -1    0    0    0  501 -0.00000000000E+00 -0.00000000000E+00 -0.18372011742E+03  0.18372011742E+03  0.00000000000E+00 0.  1.
         23    2    1    2    0    0 -0.34199659870E+02 -0.25044917169E+02 -0.10838112581E+03  0.16858248673E+03  0.12197016762E+03 0.  0.
          5    1    3    3  502    0 -0.48060467128E+02  0.31369641463E+02 -0.16722385554E+02  0.59963247783E+02  0.47000000000E+01 0. -1.
         -5    1    3    3    0  502  0.13860807259E+02 -0.56414558632E+02 -0.91658740261E+02  0.10861923895E+03  0.47000000000E+01 0.  1.
        -11    1    1    2    0    0  0.82350809681E+01  0.39151385285E+02 -0.17677016652E+02  0.43739278069E+02  0.00000000000E+00 0. -1.
         11    1    1    2    0    0  0.25964578902E+02 -0.14106468116E+02  0.49292565258E+00  0.29553253221E+02  0.00000000000E+00 0.  1.
<mgrwt>
<rscale>  0 0.11129008E+03</rscale>
<asrwt>0</asrwt>
<pdfrwt beam="1">  1        1 0.89469079E-02 0.12912624E+03</pdfrwt>
<pdfrwt beam="2">  1       -1 0.28264633E-01 0.12912624E+03</pdfrwt>
<totfact> 0.79414439E+03</totfact>
</mgrwt>
</event>
<event>
 7    1  0.4230786E-006  0.1491413E+03  0.7546771E-02  0.1211832E+00
          3   -1    0    0  501    0  0.00000000000E+00  0.00000000000E+00  0.30678410127E+03  0.30678410127E+03  0.00000000000E+00 0. -1.
         -3   -1    0    0    0  501 -0.00000000000E+00 -0.00000000000E+00 -0.61017919639E+02  0.61017919639E+02  0.00000000000E+00 0.  1.
         23    2    1    2    0    0 -0.18300442408E+02 -0.76833322747E+02  0.10132196833E+03  0.18030328976E+03  0.12651035276E+03 0.  0.
          5    1    3    3  502    0 -0.18769796940E+02  0.23326730203E+02  0.68320076175E+02  0.74740647760E+02  0.47000000000E+01 0. -1.
         -5    1    3    3    0  502  0.46935453220E+00 -0.10016005295E+03  0.33001892154E+02  0.10556264200E+03  0.47000000000E+01 0.  1.
        -11    1    1    2    0    0  0.29362418027E+02  0.93399958251E+02  0.13066983203E+03  0.16327984811E+03  0.00000000000E+00 0. -1.
         11    1    1    2    0    0 -0.11061975619E+02 -0.16566635504E+02  0.13774381270E+02  0.24218883044E+02  0.00000000000E+00 0.  1.
<mgrwt>
<rscale>  0 0.14111844E+03</rscale>
<asrwt>0</asrwt>
<pdfrwt beam="1">  1        3 0.47197553E-01 0.14914133E+03</pdfrwt>
<pdfrwt beam="2">  1       -3 0.93873724E-02 0.14914133E+03</pdfrwt>
<totfact> 0.86129962E+02</totfact>
</mgrwt>
</event>
<event>
 7    1  0.4462282E-006  0.1666357E+03  0.7546771E-02  0.1188037E+00
         -1   -1    0    0    0  501 -0.00000000000E+00  0.00000000000E+00  0.23896166119E+02  0.23896166119E+02  0.00000000000E+00 0.  1.
          1   -1    0    0  501    0  0.00000000000E+00 -0.00000000000E+00 -0.10700391899E+04  0.10700391899E+04  0.00000000000E+00 0. -1.
         23    2    1    2    0    0  0.91306129350E+02 -0.61693567754E+02 -0.42778132590E+03  0.45909076620E+03  0.12499825304E+03 0.  0.
          5    1    3    3  502    0  0.12654507877E+02 -0.58495808058E+02 -0.67733757103E+02  0.90508828195E+02  0.47000000000E+01 0. -1.
         -5    1    3    3    0  502  0.78651621474E+02 -0.31977596962E+01 -0.36004756880E+03  0.36858193801E+03  0.47000000000E+01 0. -1.
        -11    1    1    2    0    0 -0.94228504268E+02  0.19108350223E+02 -0.49649059910E+03  0.50571440068E+03  0.00000000000E+00 0.  1.
         11    1    1    2    0    0  0.29223749178E+01  0.42585217531E+02 -0.12187109874E+03  0.12913018909E+03  0.00000000000E+00 0. -1.
<mgrwt>
<rscale>  0 0.16058616E+03</rscale>
<asrwt>0</asrwt>
<pdfrwt beam="2">  1        1 0.16462138E+00 0.16663574E+03</pdfrwt>
<pdfrwt beam="1">  1       -1 0.36763341E-02 0.16663574E+03</pdfrwt>
<totfact> 0.39078011E+03</totfact>
</mgrwt>
</event>
<event>
 7    1  0.4230786E-006  0.1284063E+03  0.7546771E-02  0.1244113E+00
         -1   -1    0    0    0  501 -0.00000000000E+00  0.00000000000E+00  0.95591096621E+02  0.95591096621E+02  0.00000000000E+00 0.  1.
          1   -1    0    0  501    0  0.00000000000E+00 -0.00000000000E+00 -0.16630838131E+03  0.16630838131E+03  0.00000000000E+00 0. -1.
         23    2    1    2    0    0  0.15640850015E+02  0.24851292995E+02  0.19877782068E+02  0.12993575855E+03  0.12500380865E+03 0.  0.
          5    1    3    3  502    0  0.28763218465E+02  0.63012681389E+02  0.44467794985E+02  0.82446319160E+02  0.47000000000E+01 0.  1.
         -5    1    3    3    0  502 -0.13122368450E+02 -0.38161388394E+02 -0.24590012918E+02  0.47489439386E+02  0.47000000000E+01 0.  1.
        -11    1    1    2    0    0  0.69369758793E+01 -0.41844353214E+02 -0.94361099238E+02  0.10345573246E+03  0.00000000000E+00 0. -1.
         11    1    1    2    0    0 -0.22577825894E+02  0.16993060220E+02  0.37660324805E+01  0.28507986923E+02  0.00000000000E+00 0.  1.
<mgrwt>
<rscale>  0 0.11938623E+03</rscale>
<asrwt>0</asrwt>
<pdfrwt beam="2">  1        1 0.25585904E-01 0.12840629E+03</pdfrwt>
<pdfrwt beam="1">  1       -1 0.14706323E-01 0.12840629E+03</pdfrwt>
<totfact> 0.58451934E+03</totfact>
</mgrwt>
</event>
<event>
 6    1  0.4230786E-006  0.1402402E+03  0.7546771E-02  0.1233624E+00
         -2   -1    0    0    0  501 -0.00000000000E+00  0.00000000000E+00  0.41578672354E+03  0.41578672354E+03  0.00000000000E+00 0.  1.
          2   -1    0    0  501    0  0.00000000000E+00 -0.00000000000E+00 -0.37057218482E+02  0.37057218482E+02  0.00000000000E+00 0. -1.
          5    1    1    2  502    0 -0.89458899278E+01 -0.52287104482E+02  0.18947615264E+03  0.19681786672E+03  0.47000000000E+01 0.  1.
         -5    1    1    2    0  502  0.47193385088E+02  0.60694519626E+02  0.11512784372E+03  0.13851913481E+03  0.47000000000E+01 0.  1.
        -11    1    1    2    0    0 -0.18273132935E+02  0.16751259550E+02  0.80954908980E+02  0.84665278431E+02  0.00000000000E+00 0.  1.
         11    1    1    2    0    0 -0.19974362225E+02 -0.25158674694E+02 -0.68294002816E+01  0.32841662061E+02  0.00000000000E+00 0. -1.
<mgrwt>
<rscale>  0 0.12592906E+03</rscale>
<asrwt>0</asrwt>
<pdfrwt beam="2">  1        2 0.57011108E-02 0.14024019E+03</pdfrwt>
<pdfrwt beam="1">  1       -2 0.63967185E-01 0.14024019E+03</pdfrwt>
<totfact> 0.29289433E+03</totfact>
</mgrwt>
</event>
<event>
 7    1  0.4230786E-006  0.2526900E+03  0.7546771E-02  0.1115074E+00
          2   -1    0    0  501    0  0.00000000000E+00  0.00000000000E+00  0.54765770989E+03  0.54765770989E+03  0.00000000000E+00 0. -1.
         -2   -1    0    0    0  501 -0.00000000000E+00 -0.00000000000E+00 -0.13237852816E+03  0.13237852816E+03  0.00000000000E+00 0.  1.
         23    2    1    2    0    0 -0.21318525281E+03 -0.52711638346E+02  0.66291479527E+02  0.26124091209E+03  0.12500314019E+03 0.  0.
          5    1    3    3  502    0 -0.18049947488E+03 -0.37334741451E+02 -0.13833508976E+01  0.18438532212E+03  0.47000000000E+01 0. -1.
         -5    1    3    3    0  502 -0.32685777926E+02 -0.15376896895E+02  0.67674830424E+02  0.76855589971E+02  0.47000000000E+01 0. -1.
        -11    1    1    2    0    0  0.12895466209E+03  0.44112949632E+01  0.24247054743E+03  0.27466476070E+03  0.00000000000E+00 0.  1.
         11    1    1    2    0    0  0.84230590715E+02  0.48300343383E+02  0.10651715476E+03  0.14413056526E+03  0.00000000000E+00 0. -1.
<mgrwt>
<rscale>  0 0.24722009E+03</rscale>
<asrwt>0</asrwt>
<pdfrwt beam="1">  1        2 0.84255032E-01 0.25269004E+03</pdfrwt>
<pdfrwt beam="2">  1       -2 0.20365928E-01 0.25269004E+03</pdfrwt>
<totfact> 0.11437046E+03</totfact>
</mgrwt>
</event>
<event>
 7    1  0.4230786E-006  0.1253402E+03  0.7546771E-02  0.1250026E+00
          3   -1    0    0  501    0  0.00000000000E+00  0.00000000000E+00  0.32880472024E+03  0.32880472024E+03  0.00000000000E+00 0. -1.
         -3   -1    0    0    0  501 -0.00000000000E+00 -0.00000000000E+00 -0.36837035374E+02  0.36837035374E+02  0.00000000000E+00 0.  1.
         23    2    1    2    0    0  0.61070817527E+01 -0.69438612521E+01  0.13757353541E+03  0.18610925064E+03  0.12499864748E+03 0.  0.
          5    1    3    3  502    0 -0.57277373082E+02  0.10376885353E+02  0.52636464126E+02  0.78619746709E+02  0.47000000000E+01 0.  1.
         -5    1    3    3    0  502  0.63384454835E+02 -0.17320746605E+02  0.84937071280E+02  0.10748950393E+03  0.47000000000E+01 0.  1.
        -11    1    1    2    0    0  0.61246649062E+01 -0.33899728651E+02  0.23068331584E+02  0.41459028509E+02  0.00000000000E+00 0.  1.
         11    1    1    2    0    0 -0.12231746659E+02  0.40843589903E+02  0.13132581787E+03  0.13807347646E+03  0.00000000000E+00 0. -1.
<mgrwt>
<rscale>  0 0.11589545E+03</rscale>
<asrwt>0</asrwt>
<pdfrwt beam="1">  1        3 0.50585340E-01 0.12534024E+03</pdfrwt>
<pdfrwt beam="2">  1       -3 0.56672364E-02 0.12534024E+03</pdfrwt>
<totfact> 0.16505866E+03</totfact>
</mgrwt>
</event>
<event>
 7    1  0.4230786E-006  0.2607439E+03  0.7546771E-02  0.1109566E+00
         -2   -1    0    0    0  501 -0.00000000000E+00  0.00000000000E+00  0.66791223454E+03  0.66791223454E+03  0.00000000000E+00 0.  1.
          2   -1    0    0  501    0  0.00000000000E+00 -0.00000000000E+00 -0.95785429925E+02  0.95785429925E+02  0.00000000000E+00 0. -1.
         23    2    1    2    0    0 -0.22700552215E+03  0.28832228663E+02  0.25621113058E+03  0.36555648389E+03  0.12499837992E+03 0.  0.
          5    1    3    3  502    0 -0.18639879338E+03 -0.25663512892E+02  0.15641655945E+03  0.24472710544E+03  0.47000000000E+01 0.  1.
         -5    1    3    3    0  502 -0.40606728772E+02  0.54495741554E+02  0.99794571127E+02  0.12082937845E+03  0.47000000000E+01 0.  1.
        -11    1    1    2    0    0  0.16770823812E+03 -0.51273057572E+02  0.19983157793E+03  0.26587147103E+03  0.00000000000E+00 0.  1.
         11    1    1    2    0    0  0.59297284035E+02  0.22440828909E+02  0.11608409611E+03  0.13226970955E+03  0.00000000000E+00 0. -1.
<mgrwt>
<rscale>  0 0.25600773E+03</rscale>
<asrwt>0</asrwt>
<pdfrwt beam="2">  1        2 0.14736220E-01 0.26074393E+03</pdfrwt>
<pdfrwt beam="1">  1       -2 0.10275573E+00 0.26074393E+03</pdfrwt>
<totfact> 0.32091810E+02</totfact>
</mgrwt>
</event>
<event>
 7    1  0.4230786E-006  0.1305156E+03  0.7546771E-02  0.1240022E+00
         -2   -1    0    0    0  501 -0.00000000000E+00  0.00000000000E+00  0.39361883336E+02  0.39361883336E+02  0.00000000000E+00 0.  1.
          2   -1    0    0  501    0  0.00000000000E+00 -0.00000000000E+00 -0.36745947578E+03  0.36745947578E+03  0.00000000000E+00 0. -1.
         23    2    1    2    0    0  0.36379430094E+02  0.91892952460E+01 -0.12478365077E+03  0.18056932517E+03  0.12500566232E+03 0.  0.
          5    1    3    3  502    0 -0.38685990939E+02  0.32869096935E+02 -0.58146243565E+02  0.77330841641E+02  0.47000000000E+01 0.  1.
         -5    1    3    3    0  502  0.75065421033E+02 -0.23679801689E+02 -0.66637407207E+02  0.10323848353E+03  0.47000000000E+01 0.  1.
        -11    1    1    2    0    0 -0.33590802890E+02  0.37613159583E+02 -0.82916795848E+02  0.97047858536E+02  0.00000000000E+00 0.  1.
         11    1    1    2    0    0 -0.27886272046E+01 -0.46802454829E+02 -0.12039714582E+03  0.12920417540E+03  0.00000000000E+00 0. -1.
<mgrwt>
<rscale>  0 0.12188358E+03</rscale>
<asrwt>0</asrwt>
<pdfrwt beam="2">  1        2 0.56532225E-01 0.13051560E+03</pdfrwt>
<pdfrwt beam="1">  1       -2 0.60556746E-02 0.13051560E+03</pdfrwt>
<totfact> 0.12046329E+04</totfact>
</mgrwt>
</event>
<event>
 7    1  0.4230786E-006  0.1266946E+03  0.7546771E-02  0.1247277E+00
          3   -1    0    0  501    0  0.00000000000E+00  0.00000000000E+00  0.74358067616E+03  0.74358067616E+03  0.00000000000E+00 0. -1.
         -3   -1    0    0    0  501 -0.00000000000E+00 -0.00000000000E+00 -0.17566712155E+02  0.17566712155E+02  0.00000000000E+00 0.  1.
         23    2    1    2    0    0 -0.20527931522E+02  0.19867533876E+01  0.31380880802E+03  0.33841911871E+03  0.12500475493E+03 0.  0.
          5    1    3    3  502    0  0.33812337346E+02  0.28858462055E+02  0.47373500806E+02  0.65133889548E+02  0.47000000000E+01 0. -1.
         -5    1    3    3    0  502 -0.54340268868E+02 -0.26871708668E+02  0.26643530722E+03  0.27328522916E+03  0.47000000000E+01 0. -1.
        -11    1    1    2    0    0  0.18610864936E+02 -0.45786774833E+02  0.23936541629E+03  0.24441480225E+03  0.00000000000E+00 0.  1.
         11    1    1    2    0    0  0.19170665863E+01  0.43800021446E+02  0.17283973970E+03  0.17831346736E+03  0.00000000000E+00 0. -1.
<mgrwt>
<rscale>  0 0.11750144E+03</rscale>
<asrwt>0</asrwt>
<pdfrwt beam="1">  1        3 0.11439700E+00 0.12669464E+03</pdfrwt>
<pdfrwt beam="2">  1       -3 0.27025717E-02 0.12669464E+03</pdfrwt>
<totfact> 0.90945548E+02</totfact>
</mgrwt>
</event>
<event>
 7    1  0.4230786E-006  0.1282792E+03  0.7546771E-02  0.1243770E+00
          4   -1    0    0  501    0  0.00000000000E+00  0.00000000000E+00  0.53520177507E+02  0.53520177507E+02  0.00000000000E+00 0. -1.
         -4   -1    0    0    0  501 -0.00000000000E+00 -0.00000000000E+00 -0.24193682746E+03  0.24193682746E+03  0.00000000000E+00 0.  1.
         23    2    1    2    0    0 -0.92208654644E+01  0.27313927309E+02 -0.12823540199E+03  0.18138324701E+03  0.12499795593E+03 0.  0.
          5    1    3    3  502    0 -0.58295670423E+02 -0.16431948975E+02 -0.47215304912E+02  0.76940036100E+02  0.47000000000E+01 0. -1.
         -5    1    3    3    0  502  0.49074804958E+02  0.43745876283E+02 -0.81020097079E+02  0.10444321091E+03  0.47000000000E+01 0. -1.
        -11    1    1    2    0    0 -0.38904864453E+00  0.14271661767E+02  0.19211386785E+02  0.23935519017E+02  0.00000000000E+00 0. -1.
         11    1    1    2    0    0  0.96099141089E+01 -0.41585589075E+02 -0.79392634748E+02  0.90138238946E+02  0.00000000000E+00 0.  1.
<mgrwt>
<rscale>  0 0.11959320E+03</rscale>
<asrwt>0</asrwt>
<pdfrwt beam="1">  1        4 0.82338732E-02 0.12827924E+03</pdfrwt>
<pdfrwt beam="2">  1       -4 0.37221052E-01 0.12827924E+03</pdfrwt>
<totfact> 0.12019643E+03</totfact>
</mgrwt>
</event>
<event>
 7    1  0.4230786E-006  0.1749128E+03  0.7546771E-02  0.1178830E+00
          1   -1    0    0  501    0  0.00000000000E+00  0.00000000000E+00  0.66167388996E+03  0.66167388996E+03  0.00000000000E+00 0. -1.
         -1   -1    0    0    0  501 -0.00000000000E+00 -0.00000000000E+00 -0.40545284142E+02  0.40545284142E+02  0.00000000000E+00 0.  1.
         23    2    1    2    0    0 -0.39792809179E+02 -0.11570265622E+03  0.32849413677E+03  0.37215974778E+03  0.12499563054E+03 0.  0.
          5    1    3    3  502    0 -0.76541282881E+02 -0.36803453236E+02  0.19480013717E+03  0.21256115731E+03  0.47000000000E+01 0.  1.
         -5    1    3    3    0  502  0.36748473701E+02 -0.78899202982E+02  0.13369399961E+03  0.15959859047E+03  0.47000000000E+01 0.  1.
        -11    1    1    2    0    0  0.27535628469E+02  0.22282769504E+02  0.18043112938E+02  0.39752818472E+02  0.00000000000E+00 0.  1.
         11    1    1    2    0    0  0.12257180710E+02  0.93419886714E+02  0.27459135611E+03  0.29030660785E+03  0.00000000000E+00 0. -1.
<mgrwt>
<rscale>  0 0.16906186E+03</rscale>
<asrwt>0</asrwt>
<pdfrwt beam="1">  1        1 0.10179598E+00 0.17491278E+03</pdfrwt>
<pdfrwt beam="2">  1       -1 0.62377365E-02 0.17491278E+03</pdfrwt>
<totfact> 0.37889392E+03</totfact>
</mgrwt>
</event>
<event>
 7    1  0.4230786E-006  0.1560378E+03  0.7546771E-02  0.1202029E+00
         -2   -1    0    0    0  501 -0.00000000000E+00  0.00000000000E+00  0.10335396065E+03  0.10335396065E+03  0.00000000000E+00 0. -1.
          2   -1    0    0  501    0  0.00000000000E+00 -0.00000000000E+00 -0.20715426932E+03  0.20715426932E+03  0.00000000000E+00 0.  1.
         23    2    1    2    0    0  0.54555788123E+02 -0.75812326519E+02 -0.21206392686E+02  0.15747221966E+03  0.12499578395E+03 0.  0.
          5    1    3    3  502    0  0.30932976807E+02 -0.46626724231E+02 -0.73767041158E+02  0.92706886626E+02  0.47000000000E+01 0.  1.
         -5    1    3    3    0  502  0.23622811317E+02 -0.29185602288E+02  0.52560648473E+02  0.64765333036E+02  0.47000000000E+01 0.  1.
        -11    1    1    2    0    0 -0.39080537677E+02  0.48271191203E+02 -0.99433813901E+02  0.11723685288E+03  0.00000000000E+00 0.  1.
         11    1    1    2    0    0 -0.15475250446E+02  0.27541135315E+02  0.16839897918E+02  0.35799157430E+02  0.00000000000E+00 0. -1.
<mgrwt>
<rscale>  0 0.14874082E+03</rscale>
<asrwt>0</asrwt>
<pdfrwt beam="2">  1        2 0.31869888E-01 0.15603778E+03</pdfrwt>
<pdfrwt beam="1">  1       -2 0.15900609E-01 0.15603778E+03</pdfrwt>
<totfact> 0.49127940E+03</totfact>
</mgrwt>
</event>
<event>
 7    1  0.4230786E-006  0.1353075E+03  0.7546771E-02  0.1228274E+00
         -2   -1    0    0    0  501 -0.00000000000E+00  0.00000000000E+00  0.35944289033E+02  0.35944289033E+02  0.00000000000E+00 0.  1.
          2   -1    0    0  501    0  0.00000000000E+00 -0.00000000000E+00 -0.43264524656E+03  0.43264524656E+03  0.00000000000E+00 0. -1.
         23    2    1    2    0    0  0.33503357582E+02 -0.39645359932E+02 -0.19772593593E+03  0.23959063512E+03  0.12495558076E+03 0.  0.
          5    1    3    3  502    0  0.69102765831E+02 -0.27458639513E+02 -0.18524881135E+03  0.19967068196E+03  0.47000000000E+01 0.  1.
         -5    1    3    3    0  502 -0.35599408249E+02 -0.12186720419E+02 -0.12477124581E+02  0.39919953157E+02  0.47000000000E+01 0.  1.
        -11    1    1    2    0    0 -0.15753588360E+01 -0.31101568654E+02 -0.30914906321E+02  0.43880756158E+02  0.00000000000E+00 0.  1.
         11    1    1    2    0    0 -0.31927998746E+02  0.70746928586E+02 -0.16806011528E+03  0.18511814432E+03  0.00000000000E+00 0. -1.
<mgrwt>
<rscale>  0 0.12944998E+03</rscale>
<asrwt>0</asrwt>
<pdfrwt beam="2">  1        2 0.66560807E-01 0.13530753E+03</pdfrwt>
<pdfrwt beam="1">  1       -2 0.55298906E-02 0.13530753E+03</pdfrwt>
<totfact> 0.11639547E+04</totfact>
</mgrwt>
</event>
<event>
 7    1  0.4230786E-006  0.1356622E+03  0.7546771E-02  0.1231466E+00
         -2   -1    0    0    0  501 -0.00000000000E+00  0.00000000000E+00  0.13240510770E+02  0.13240510770E+02  0.00000000000E+00 0.  1.
          2   -1    0    0  501    0  0.00000000000E+00 -0.00000000000E+00 -0.11117442737E+04  0.11117442737E+04  0.00000000000E+00 0. -1.
         23    2    1    2    0    0  0.26668325995E+02  0.45516069766E+02 -0.55164839532E+03  0.56808465169E+03  0.12498522797E+03 0.  0.
          5    1    3    3  502    0  0.51808606971E+02  0.78063066498E+02 -0.40358524989E+03  0.41434420237E+03  0.47000000000E+01 0.  1.
         -5    1    3    3    0  502 -0.25140280976E+02 -0.32546996732E+02 -0.14806314542E+03  0.15374044932E+03  0.47000000000E+01 0.  1.
        -11    1    1    2    0    0 -0.57074593070E+02 -0.90828290488E+01 -0.30857957257E+03  0.31394483522E+03  0.00000000000E+00 0. -1.
         11    1    1    2    0    0  0.30406267075E+02 -0.36433240717E+02 -0.23827579509E+03  0.24295529760E+03  0.00000000000E+00 0.  1.
<mgrwt>
<rscale>  0 0.12733436E+03</rscale>
<asrwt>0</asrwt>
<pdfrwt beam="2">  1        2 0.17103762E+00 0.13566215E+03</pdfrwt>
<pdfrwt beam="1">  1       -2 0.20370012E-02 0.13566215E+03</pdfrwt>
<totfact> 0.16231106E+04</totfact>
</mgrwt>
</event>
<event>
 7    1  0.4230786E-006  0.1196138E+03  0.7546771E-02  0.1253732E+00
          1   -1    0    0  501    0  0.00000000000E+00  0.00000000000E+00  0.32164873424E+03  0.32164873424E+03  0.00000000000E+00 0. -1.
         -1   -1    0    0    0  501 -0.00000000000E+00 -0.00000000000E+00 -0.13237100230E+03  0.13237100230E+03  0.00000000000E+00 0.  1.
         23    2    1    2    0    0 -0.36741598632E+02  0.85177227159E+01 -0.95383272937E+02  0.15298834960E+03  0.11351198037E+03 0.  0.
          5    1    3    3  502    0  0.31907633085E+02 -0.64992764865E+01 -0.71351955388E+02  0.78571809077E+02  0.47000000000E+01 0. -1.
         -5    1    3    3    0  502 -0.68649231717E+02  0.15016999202E+02 -0.24031317548E+02  0.74416540524E+02  0.47000000000E+01 0.  1.
        -11    1    1    2    0    0  0.17999918249E+02  0.41097223949E+02  0.12779396235E+03  0.13544104137E+03  0.00000000000E+00 0. -1.
         11    1    1    2    0    0  0.18741680383E+02 -0.49614946665E+02  0.15686704252E+03  0.16559034557E+03  0.00000000000E+00 0.  1.
<mgrwt>
<rscale>  0 0.11377637E+03</rscale>
<asrwt>0</asrwt>
<pdfrwt beam="1">  1        1 0.49484420E-01 0.11961382E+03</pdfrwt>
<pdfrwt beam="2">  1       -1 0.20364770E-01 0.11961382E+03</pdfrwt>
<totfact> 0.15392133E+03</totfact>
</mgrwt>
</event>
<event>
 7    1  0.4230786E-006  0.1339686E+03  0.7546771E-02  0.1234287E+00
          2   -1    0    0  501    0  0.00000000000E+00  0.00000000000E+00  0.29930951104E+02  0.29930951104E+02  0.00000000000E+00 0. -1.
         -2   -1    0    0    0  501 -0.00000000000E+00 -0.00000000000E+00 -0.48589573364E+03  0.48589573364E+03  0.00000000000E+00 0.  1.
         23    2    1    2    0    0  0.45205018257E+02 -0.16432460460E+02 -0.30323591895E+03  0.33151110569E+03  0.12503627964E+03 0.  0.
          5    1    3    3  502    0 -0.18584756585E+02  0.42639237319E+02 -0.11354868562E+03  0.12279613895E+03  0.47000000000E+01 0. -1.
         -5    1    3    3    0  502  0.63789774842E+02 -0.59071697779E+02 -0.18968723333E+03  0.20871496674E+03  0.47000000000E+01 0. -1.
        -11    1    1    2    0    0  0.20584634900E+02 -0.14436923238E+02 -0.69051315087E+02  0.73486298463E+02  0.00000000000E+00 0.  1.
         11    1    1    2    0    0 -0.65789653157E+02  0.30869383698E+02 -0.83677548505E+02  0.11082928059E+03  0.00000000000E+00 0. -1.
<mgrwt>
<rscale>  0 0.12550218E+03</rscale>
<asrwt>0</asrwt>
<pdfrwt beam="1">  1        2 0.46047619E-02 0.13396862E+03</pdfrwt>
<pdfrwt beam="2">  1       -2 0.74753187E-01 0.13396862E+03</pdfrwt>
<totfact> 0.27727236E+03</totfact>
</mgrwt>
</event>
<event>
 7    1  0.4230786E-006  0.1539565E+03  0.7546771E-02  0.1203988E+00
          2   -1    0    0  501    0  0.00000000000E+00  0.00000000000E+00  0.54844668168E+03  0.54844668168E+03  0.00000000000E+00 0. -1.
         -2   -1    0    0    0  501 -0.00000000000E+00 -0.00000000000E+00 -0.39439118336E+02  0.39439118336E+02  0.00000000000E+00 0.  1.
         23    2    1    2    0    0 -0.69972535673E+02  0.56414999073E+02  0.19411276913E+03  0.24775464796E+03  0.12499516221E+03 0.  0.
          5    1    3    3  502    0 -0.91323118775E+02  0.79891159673E+02  0.14551008725E+03  0.18951987998E+03  0.47000000000E+01 0. -1.
         -5    1    3    3    0  502  0.21350583101E+02 -0.23476160600E+02  0.48602681878E+02  0.58234767974E+02  0.47000000000E+01 0. -1.
        -11    1    1    2    0    0 -0.18613912670E+02 -0.28432464178E+02  0.61841763202E+02  0.70564059124E+02  0.00000000000E+00 0.  1.
         11    1    1    2    0    0  0.88586448344E+02 -0.27982534895E+02  0.25305303101E+03  0.26956709294E+03  0.00000000000E+00 0. -1.
<mgrwt>
<rscale>  0 0.14717503E+03</rscale>
<asrwt>0</asrwt>
<pdfrwt beam="1">  1        2 0.84376407E-01 0.15395648E+03</pdfrwt>
<pdfrwt beam="2">  1       -2 0.60675571E-02 0.15395648E+03</pdfrwt>
<totfact> 0.78629894E+03</totfact>
</mgrwt>
</event>
<event>
 6    1  0.4230786E-006  0.2297378E+03  0.7546771E-02  0.1133600E+00
         -1   -1    0    0    0  501 -0.00000000000E+00  0.00000000000E+00  0.11402358858E+03  0.11402358858E+03  0.00000000000E+00 0.  1.
          1   -1    0    0  501    0  0.00000000000E+00 -0.00000000000E+00 -0.43225258879E+03  0.43225258879E+03  0.00000000000E+00 0. -1.
          5    1    1    2  502    0  0.10256157193E+03 -0.47380132992E+02 -0.61618153986E+02  0.12877359954E+03  0.47000000000E+01 0. -1.
         -5    1    1    2    0  502 -0.37888467795E+02 -0.10806381762E+03 -0.29261883465E+02  0.11828640029E+03  0.47000000000E+01 0.  1.
        -11    1    1    2    0    0 -0.56774018588E+01 -0.11024529895E+02 -0.39407981261E+02  0.41312977844E+02  0.00000000000E+00 0.  1.
         11    1    1    2    0    0 -0.58995702273E+02  0.16646848050E+03 -0.18794098149E+03  0.25790319969E+03  0.00000000000E+00 0. -1.
<mgrwt>
<rscale>  0 0.22038002E+03</rscale>
<asrwt>0</asrwt>
<pdfrwt beam="2">  1        1 0.66500397E-01 0.22973781E+03</pdfrwt>
<pdfrwt beam="1">  1       -1 0.17542091E-01 0.22973781E+03</pdfrwt>
<totfact> 0.13649768E+03</totfact>
</mgrwt>
</event>
<event>
 7    1  0.4230786E-006  0.1283221E+03  0.7546771E-02  0.1243928E+00
          1   -1    0    0  501    0  0.00000000000E+00  0.00000000000E+00  0.27381956086E+03  0.27381956086E+03  0.00000000000E+00 0. -1.
         -1   -1    0    0    0  501 -0.00000000000E+00 -0.00000000000E+00 -0.46149269245E+02  0.46149269245E+02  0.00000000000E+00 0.  1.
         23    2    1    2    0    0  0.24914148048E+02  0.14799222622E+02  0.13043426394E+03  0.18297448796E+03  0.12500733686E+03 0.  0.
          5    1    3    3  502    0  0.49263309939E+02  0.59183181381E+02  0.72100226535E+02  0.10559382241E+03  0.47000000000E+01 0.  1.
         -5    1    3    3    0  502 -0.24349161891E+02 -0.44383958758E+02  0.58334037410E+02  0.77380665547E+02  0.47000000000E+01 0.  1.
        -11    1    1    2    0    0  0.34445186125E+02 -0.10909702198E+02  0.45932596297E+02  0.58440532610E+02  0.00000000000E+00 0.  1.
         11    1    1    2    0    0 -0.59359334173E+02 -0.38895204243E+01  0.51303431377E+02  0.78553809542E+02  0.00000000000E+00 0. -1.
<mgrwt>
<rscale>  0 0.11949783E+03</rscale>
<asrwt>0</asrwt>
<pdfrwt beam="1">  1        1 0.42126085E-01 0.12832212E+03</pdfrwt>
<pdfrwt beam="2">  1       -1 0.70998877E-02 0.12832212E+03</pdfrwt>
<totfact> 0.95801131E+03</totfact>
</mgrwt>
</event>
<event>
 7    1  0.4230786E-006  0.3081407E+03  0.7546771E-02  0.1082725E+00
          3   -1    0    0  501    0  0.00000000000E+00  0.00000000000E+00  0.10711213197E+03  0.10711213197E+03  0.00000000000E+00 0. -1.
         -3   -1    0    0    0  501 -0.00000000000E+00 -0.00000000000E+00 -0.86816006024E+03  0.86816006024E+03  0.00000000000E+00 0.  1.
         23    2    1    2    0    0 -0.17849300000E+02 -0.28108190564E+03 -0.45409372557E+03  0.54877300677E+03  0.12500026468E+03 0.  0.
          5    1    3    3  502    0 -0.58173147546E+02 -0.24905418981E+03 -0.39025950076E+03  0.46662262321E+03  0.47000000000E+01 0.  1.
         -5    1    3    3    0  502  0.40323847546E+02 -0.32027715830E+02 -0.63834224809E+02  0.82150383561E+02  0.47000000000E+01 0.  1.
        -11    1    1    2    0    0  0.19595029377E+02  0.43902445178E+02 -0.10305630618E+03  0.11371891713E+03  0.00000000000E+00 0.  1.
         11    1    1    2    0    0 -0.17457293765E+01  0.23717946047E+03 -0.20389789652E+03  0.31278026831E+03  0.00000000000E+00 0. -1.
<mgrwt>
<rscale>  0 0.30508777E+03</rscale>
<asrwt>0</asrwt>
<pdfrwt beam="1">  1        3 0.16478789E-01 0.30814072E+03</pdfrwt>
<pdfrwt beam="2">  1       -3 0.13356309E+00 0.30814072E+03</pdfrwt>
<totfact> 0.36074793E+01</totfact>
</mgrwt>
</event>
<event>
 7    1  0.4230786E-006  0.1697130E+03  0.7546771E-02  0.1184848E+00
         -2   -1    0    0    0  501 -0.00000000000E+00  0.00000000000E+00  0.20102522736E+03  0.20102522736E+03  0.00000000000E+00 0.  1.
          2   -1    0    0  501    0  0.00000000000E+00 -0.00000000000E+00 -0.18378439752E+03  0.18378439752E+03  0.00000000000E+00 0. -1.
         23    2    1    2    0    0  0.10947512575E+03  0.34539270767E+02  0.11859505881E+03  0.20704418501E+03  0.12499896875E+03 0.  0.
          5    1    3    3  502    0  0.11337818895E+03  0.64567781905E+02  0.66291613728E+02  0.14642499868E+03  0.47000000000E+01 0.  1.
         -5    1    3    3    0  502 -0.39030631998E+01 -0.30028511138E+02  0.52303445077E+02  0.60619186323E+02  0.47000000000E+01 0.  1.
        -11    1    1    2    0    0 -0.43361039167E+02  0.30708394682E+02 -0.35533648920E+02  0.63920461725E+02  0.00000000000E+00 0.  1.
         11    1    1    2    0    0 -0.66114086579E+02 -0.65247665449E+02 -0.65820580055E+02  0.11384497815E+03  0.00000000000E+00 0. -1.
<mgrwt>
<rscale>  0 0.16345748E+03</rscale>
<asrwt>0</asrwt>
<pdfrwt beam="2">  1        2 0.28274523E-01 0.16971301E+03</pdfrwt>
<pdfrwt beam="1">  1       -2 0.30926958E-01 0.16971301E+03</pdfrwt>
<totfact> 0.17817339E+03</totfact>
</mgrwt>
</event>
<event>
 7    1  0.4230786E-006  0.1336872E+03  0.7546771E-02  0.1234639E+00
          1   -1    0    0  501    0  0.00000000000E+00  0.00000000000E+00  0.17461419901E+03  0.17461419901E+03  0.00000000000E+00 0. -1.
         -1   -1    0    0    0  501 -0.00000000000E+00 -0.00000000000E+00 -0.80498787980E+02  0.80498787980E+02  0.00000000000E+00 0.  1.
         23    2    1    2    0    0  0.41570973708E+02  0.22782178435E+02  0.46292914288E+02  0.14147540133E+03  0.12500032704E+03 0.  0.
          5    1    3    3  502    0 -0.24588498644E+02  0.37456668914E+01 -0.29569990862E+02  0.38924268080E+02  0.47000000000E+01 0.  1.
         -5    1    3    3    0  502  0.66159472352E+02  0.19036511543E+02  0.75862905149E+02  0.10255113325E+03  0.47000000000E+01 0.  1.
        -11    1    1    2    0    0 -0.52517581468E+02  0.12910306949E+02  0.14448360356E+01  0.54100461550E+02  0.00000000000E+00 0.  1.
         11    1    1    2    0    0  0.10946607760E+02 -0.35692485384E+02  0.46377660709E+02  0.59537124109E+02  0.00000000000E+00 0. -1.
<mgrwt>
<rscale>  0 0.12527548E+03</rscale>
<asrwt>0</asrwt>
<pdfrwt beam="1">  1        1 0.26863723E-01 0.13368715E+03</pdfrwt>
<pdfrwt beam="2">  1       -1 0.12384429E-01 0.13368715E+03</pdfrwt>
<totfact> 0.72027630E+03</totfact>
</mgrwt>
</event>
<event>
 7    1  0.4230786E-006  0.1598469E+03  0.7546771E-02  0.1196270E+00
          1   -1    0    0  501    0  0.00000000000E+00  0.00000000000E+00  0.81930482060E+02  0.81930482060E+02  0.00000000000E+00 0. -1.
         -1   -1    0    0    0  501 -0.00000000000E+00 -0.00000000000E+00 -0.35590928066E+03  0.35590928066E+03  0.00000000000E+00 0.  1.
         23    2    1    2    0    0  0.38120788656E+02  0.92053038821E+02 -0.25461584073E+03  0.30063308675E+03  0.12499628000E+03 0.  0.
          5    1    3    3  502    0  0.41025934162E+02 -0.50829996635E+01 -0.15850010954E+03  0.16386988401E+03  0.47000000000E+01 0. -1.
         -5    1    3    3    0  502 -0.29051455059E+01  0.97136038485E+02 -0.96115731188E+02  0.13676320274E+03  0.47000000000E+01 0. -1.
        -11    1    1    2    0    0 -0.23546475890E+01 -0.15265307377E+02  0.33824504218E+02  0.37184285124E+02  0.00000000000E+00 0. -1.
         11    1    1    2    0    0 -0.35766141067E+02 -0.76787731445E+02 -0.53187462088E+02  0.10002239085E+03  0.00000000000E+00 0.  1.
<mgrwt>
<rscale>  0 0.15347226E+03</rscale>
<asrwt>0</asrwt>
<pdfrwt beam="1">  1        1 0.12604690E-01 0.15984688E+03</pdfrwt>
<pdfrwt beam="2">  1       -1 0.54755274E-01 0.15984688E+03</pdfrwt>
<totfact> 0.15993100E+03</totfact>
</mgrwt>
</event>
<event>
 7    1  0.4230786E-006  0.1404401E+03  0.7546771E-02  0.1227316E+00
         -2   -1    0    0    0  501 -0.00000000000E+00  0.00000000000E+00  0.48362963220E+02  0.48362963220E+02  0.00000000000E+00 0.  1.
          2   -1    0    0  501    0  0.00000000000E+00 -0.00000000000E+00 -0.53146595787E+03  0.53146595787E+03  0.00000000000E+00 0. -1.
         23    2    1    2    0    0 -0.59472218950E+02 -0.23621697924E+02 -0.75772437240E+02  0.15957722178E+03  0.12501399132E+03 0.  0.
          5    1    3    3  502    0 -0.85746769265E+02 -0.98656349194E+01 -0.96767053940E+01  0.86980272586E+02  0.47000000000E+01 0.  1.
         -5    1    3    3    0  502  0.26274550316E+02 -0.13756063004E+02 -0.66095731846E+02  0.72596949191E+02  0.47000000000E+01 0.  1.
        -11    1    1    2    0    0 -0.10863600721E+02  0.22543871912E+02 -0.48332850420E+02  0.54427092620E+02  0.00000000000E+00 0.  1.
         11    1    1    2    0    0  0.70335819670E+02  0.10778260115E+01 -0.35899770699E+03  0.36582460669E+03  0.00000000000E+00 0. -1.
<mgrwt>
<rscale>  0 0.13009404E+03</rscale>
<asrwt>0</asrwt>
<pdfrwt beam="2">  1        2 0.81763994E-01 0.14044012E+03</pdfrwt>
<pdfrwt beam="1">  1       -2 0.74404558E-02 0.14044012E+03</pdfrwt>
<totfact> 0.59301258E+03</totfact>
</mgrwt>
</event>
<event>
 7    1  0.4230786E-006  0.1713318E+03  0.7546771E-02  0.1182248E+00
          1   -1    0    0  501    0  0.00000000000E+00  0.00000000000E+00  0.12026955692E+03  0.12026955692E+03  0.00000000000E+00 0. -1.
         -1   -1    0    0    0  501 -0.00000000000E+00 -0.00000000000E+00 -0.21840432335E+03  0.21840432335E+03  0.00000000000E+00 0.  1.
         23    2    1    2    0    0 -0.60933509835E+02 -0.10005862940E+03 -0.72674530465E+02  0.18610799569E+03  0.12501990538E+03 0.  0.
          5    1    3    3  502    0  0.30307789891E+01 -0.82596460640E+02 -0.84833781042E+02  0.11853362956E+03  0.47000000000E+01 0. -1.
         -5    1    3    3    0  502 -0.63964288824E+02 -0.17462168764E+02  0.12159250577E+02  0.67574366126E+02  0.47000000000E+01 0. -1.
        -11    1    1    2    0    0  0.31949091783E+02  0.36030174333E+02 -0.57772905115E+02  0.75210547756E+02  0.00000000000E+00 0.  1.
         11    1    1    2    0    0  0.28984418052E+02  0.64028455070E+02  0.32312669146E+02  0.77355336828E+02  0.00000000000E+00 0. -1.
<mgrwt>
<rscale>  0 0.16584777E+03</rscale>
<asrwt>0</asrwt>
<pdfrwt beam="1">  1        1 0.18503009E-01 0.17133184E+03</pdfrwt>
<pdfrwt beam="2">  1       -1 0.33600665E-01 0.17133184E+03</pdfrwt>
<totfact> 0.23275150E+03</totfact>
</mgrwt>
</event>
<event>
 7    1  0.4230786E-006  0.2291134E+03  0.7546771E-02  0.1130879E+00
         -2   -1    0    0    0  501 -0.00000000000E+00  0.00000000000E+00  0.51732693372E+03  0.51732693372E+03  0.00000000000E+00 0.  1.
          2   -1    0    0  501    0  0.00000000000E+00 -0.00000000000E+00 -0.10899562549E+03  0.10899562549E+03  0.00000000000E+00 0. -1.
         23    2    1    2    0    0 -0.18183569044E+03 -0.61767098001E+02  0.33169157743E+03  0.40312810038E+03  0.12495427188E+03 0.  0.
          5    1    3    3  502    0  0.47968415416E+01  0.17495935568E+02  0.64324830643E+01  0.19813739893E+02  0.47000000000E+01 0. -1.
         -5    1    3    3    0  502 -0.18663253198E+03 -0.79263033569E+02  0.32525909437E+03  0.38331436048E+03  0.47000000000E+01 0. -1.
        -11    1    1    2    0    0  0.89291680710E+02  0.27578566698E+02 -0.71922480414E+01  0.93729984621E+02  0.00000000000E+00 0. -1.
         11    1    1    2    0    0  0.92544009726E+02  0.34188531304E+02  0.83831978839E+02  0.12946447422E+03  0.00000000000E+00 0.  1.
<mgrwt>
<rscale>  0 0.22407739E+03</rscale>
<asrwt>0</asrwt>
<pdfrwt beam="2">  1        2 0.16768558E-01 0.22911343E+03</pdfrwt>
<pdfrwt beam="1">  1       -2 0.79588758E-01 0.22911343E+03</pdfrwt>
<totfact> 0.49165309E+02</totfact>
</mgrwt>
</event>
<event>
 7    1  0.4230786E-006  0.1714770E+03  0.7546771E-02  0.1182800E+00
          2   -1    0    0  501    0  0.00000000000E+00  0.00000000000E+00  0.39135444351E+03  0.39135444351E+03  0.00000000000E+00 0. -1.
         -2   -1    0    0    0  501 -0.00000000000E+00 -0.00000000000E+00 -0.70255621849E+02  0.70255621849E+02  0.00000000000E+00 0.  1.
         23    2    1    2    0    0  0.11731504515E+03 -0.42212410003E+01  0.11015943843E+03  0.20381234308E+03  0.12499492238E+03 0.  0.
          5    1    3    3  502    0  0.12992866431E+03 -0.46313316844E+01  0.45589261695E+02  0.13785273963E+03  0.47000000000E+01 0. -1.
         -5    1    3    3    0  502 -0.12613619162E+02  0.41009068418E+00  0.64570176739E+02  0.65959603446E+02  0.47000000000E+01 0. -1.
        -11    1    1    2    0    0  0.10948116919E+02  0.95963615604E+01  0.55331283808E+01  0.15574560313E+02  0.00000000000E+00 0.  1.
         11    1    1    2    0    0 -0.12826316206E+03 -0.53751205601E+01  0.20540625485E+03  0.24222316197E+03  0.00000000000E+00 0. -1.
<mgrwt>
<rscale>  0 0.16533659E+03</rscale>
<asrwt>0</asrwt>
<pdfrwt beam="1">  1        2 0.60208375E-01 0.17147702E+03</pdfrwt>
<pdfrwt beam="2">  1       -2 0.10808557E-01 0.17147702E+03</pdfrwt>
<totfact> 0.46658456E+03</totfact>
</mgrwt>
</event>
<event>
 7    1  0.4230786E-006  0.1389264E+03  0.7546771E-02  0.1214972E+00
          2   -1    0    0  501    0  0.00000000000E+00  0.00000000000E+00  0.26696073446E+03  0.26696073446E+03  0.00000000000E+00 0. -1.
         -2   -1    0    0    0  501 -0.00000000000E+00 -0.00000000000E+00 -0.15215335708E+03  0.15215335708E+03  0.00000000000E+00 0.  1.
         23    2    1    2    0    0 -0.53816373605E+02  0.27920537727E+02 -0.94633037628E+02  0.16809508768E+03  0.12499915278E+03 0.  0.
          5    1    3    3  502    0 -0.25509917271E+02  0.77040524097E+02 -0.47000836303E+02  0.93899770210E+02  0.47000000000E+01 0.  1.
         -5    1    3    3    0  502 -0.28306456335E+02 -0.49119986370E+02 -0.47632201325E+02  0.74195317469E+02  0.47000000000E+01 0.  1.
        -11    1    1    2    0    0  0.17860390467E+02 -0.55354017308E+02  0.19508164512E+03  0.20356794699E+03  0.00000000000E+00 0. -1.
         11    1    1    2    0    0  0.35955983138E+02  0.27433479581E+02  0.14358769891E+02  0.47451056871E+02  0.00000000000E+00 0.  1.
<mgrwt>
<rscale>  0 0.13878619E+03</rscale>
<asrwt>0</asrwt>
<pdfrwt beam="1">  1        2 0.41070882E-01 0.13892641E+03</pdfrwt>
<pdfrwt beam="2">  1       -2 0.23408209E-01 0.13892641E+03</pdfrwt>
<totfact> 0.19379947E+03</totfact>
</mgrwt>
</event>
<event>
 7    1  0.4230786E-006  0.1490845E+03  0.7546771E-02  0.1210366E+00
          2   -1    0    0  501    0  0.00000000000E+00  0.00000000000E+00  0.66079974767E+03  0.66079974767E+03  0.00000000000E+00 0.  1.
         -2   -1    0    0    0  501 -0.00000000000E+00 -0.00000000000E+00 -0.30145935316E+02  0.30145935316E+02  0.00000000000E+00 0. -1.
         23    2    1    2    0    0 -0.79453302914E+02 -0.16989009740E+02  0.25347351550E+03  0.29406631853E+03  0.12499889136E+03 0.  0.
          5    1    3    3  502    0 -0.77223125973E+02 -0.48235252673E+02  0.24479650330E+03  0.26122302504E+03  0.47000000000E+01 0. -1.
         -5    1    3    3    0  502 -0.22301769414E+01  0.31246242933E+02  0.86770122015E+01  0.32843293492E+02  0.47000000000E+01 0. -1.
        -11    1    1    2    0    0  0.91132377512E+02 -0.98835605873E+01  0.31629666447E+03  0.32931197208E+03  0.00000000000E+00 0.  1.
         11    1    1    2    0    0 -0.11679074597E+02  0.26872570327E+02  0.60883632380E+02  0.67567392367E+02  0.00000000000E+00 0. -1.
<mgrwt>
<rscale>  0 0.14222528E+03</rscale>
<asrwt>0</asrwt>
<pdfrwt beam="1">  1        2 0.10166149E+00 0.14908446E+03</pdfrwt>
<pdfrwt beam="2">  1       -2 0.46378367E-02 0.14908446E+03</pdfrwt>
<totfact> 0.95138778E+03</totfact>
</mgrwt>
</event>
<event>
 7    1  0.4230786E-006  0.1477453E+03  0.7546771E-02  0.1214009E+00
         -3   -1    0    0    0  501 -0.00000000000E+00  0.00000000000E+00  0.19628545478E+03  0.19628545478E+03  0.00000000000E+00 0.  1.
          3   -1    0    0  501    0  0.00000000000E+00 -0.00000000000E+00 -0.91757564951E+02  0.91757564951E+02  0.00000000000E+00 0. -1.
         23    2    1    2    0    0  0.84638301714E+01 -0.78304877349E+02  0.80311701317E+02  0.16816255297E+03  0.12500153845E+03 0.  0.
          5    1    3    3  502    0  0.39423811747E+01 -0.61653417284E+02 -0.20896279235E+02  0.65386777853E+02  0.47000000000E+01 0.  1.
         -5    1    3    3    0  502  0.45214489967E+01 -0.16651460065E+02  0.10120798055E+03  0.10277577512E+03  0.47000000000E+01 0.  1.
        -11    1    1    2    0    0  0.98599716499E+01  0.73775206785E+02 -0.15390758213E+02  0.76005760410E+02  0.00000000000E+00 0. -1.
         11    1    1    2    0    0 -0.18323801821E+02  0.45296705637E+01  0.39606946728E+02  0.43874706354E+02  0.00000000000E+00 0.  1.
<mgrwt>
<rscale>  0 0.13949567E+03</rscale>
<asrwt>0</asrwt>
<pdfrwt beam="2">  1        3 0.14116549E-01 0.14774530E+03</pdfrwt>
<pdfrwt beam="1">  1       -3 0.30197762E-01 0.14774530E+03</pdfrwt>
<totfact> 0.10208342E+03</totfact>
</mgrwt>
</event>
<event>
 7    1  0.4230786E-006  0.1254854E+03  0.7546771E-02  0.1249881E+00
          4   -1    0    0  501    0  0.00000000000E+00  0.00000000000E+00  0.10866139060E+03  0.10866139060E+03  0.00000000000E+00 0. -1.
         -4   -1    0    0    0  501 -0.00000000000E+00 -0.00000000000E+00 -0.11867612849E+03  0.11867612849E+03  0.00000000000E+00 0.  1.
         23    2    1    2    0    0  0.10255892964E+02  0.41229000653E+01 -0.38806920338E+02  0.13134905580E+03  0.12499766297E+03 0.  0.
          5    1    3    3  502    0  0.51115199890E+02  0.21418287714E+02 -0.60120140512E+02  0.81902551875E+02  0.47000000000E+01 0.  1.
         -5    1    3    3    0  502 -0.40859306926E+02 -0.17295387649E+02  0.21313220174E+02  0.49446503927E+02  0.47000000000E+01 0.  1.
        -11    1    1    2    0    0 -0.29688677071E+02 -0.38705176587E+02  0.34196841925E+01  0.48899923117E+02  0.00000000000E+00 0.  1.
         11    1    1    2    0    0  0.19432784107E+02  0.34582276521E+02  0.25372498253E+02  0.47088540168E+02  0.00000000000E+00 0. -1.
<mgrwt>
<rscale>  0 0.11597959E+03</rscale>
<asrwt>0</asrwt>
<pdfrwt beam="1">  1        4 0.16717137E-01 0.12548545E+03</pdfrwt>
<pdfrwt beam="2">  1       -4 0.18257866E-01 0.12548545E+03</pdfrwt>
<totfact> 0.13397482E+03</totfact>
</mgrwt>
</event>
<event>
 7    1  0.4230786E-006  0.1307443E+03  0.7546771E-02  0.1240600E+00
          2   -1    0    0  501    0  0.00000000000E+00  0.00000000000E+00  0.35818738993E+03  0.35818738993E+03  0.00000000000E+00 0. -1.
         -2   -1    0    0    0  501 -0.00000000000E+00 -0.00000000000E+00 -0.37879307465E+02  0.37879307465E+02  0.00000000000E+00 0.  1.
         23    2    1    2    0    0 -0.26556896855E+02  0.27552976639E+02  0.22136129110E+03  0.25708929171E+03  0.12501858832E+03 0.  0.
          5    1    3    3  502    0  0.33633065374E+02 -0.73339660921E+01  0.12544252577E+02  0.36938034839E+02  0.47000000000E+01 0.  1.
         -5    1    3    3    0  502 -0.60189962229E+02  0.34886942732E+02  0.20881703852E+03  0.22015125687E+03  0.47000000000E+01 0.  1.
        -11    1    1    2    0    0  0.52316695199E+02 -0.22012594246E+02  0.27987820070E+02  0.63284350153E+02  0.00000000000E+00 0.  1.
         11    1    1    2    0    0 -0.25759798344E+02 -0.55403823935E+01  0.70958971296E+02  0.75693055528E+02  0.00000000000E+00 0. -1.
<mgrwt>
<rscale>  0 0.12152651E+03</rscale>
<asrwt>0</asrwt>
<pdfrwt beam="1">  1        2 0.55105750E-01 0.13074434E+03</pdfrwt>
<pdfrwt beam="2">  1       -2 0.58275860E-02 0.13074434E+03</pdfrwt>
<totfact> 0.13120548E+04</totfact>
</mgrwt>
</event>
<event>
 7    1  0.4230786E-006  0.2554961E+03  0.7546771E-02  0.1111938E+00
          2   -1    0    0  501    0  0.00000000000E+00  0.00000000000E+00  0.36895177501E+03  0.36895177501E+03  0.00000000000E+00 0. -1.
         -2   -1    0    0    0  501 -0.00000000000E+00 -0.00000000000E+00 -0.16803920197E+03  0.16803920197E+03  0.00000000000E+00 0.  1.
         23    2    1    2    0    0 -0.41373928934E+02  0.21895984442E+03  0.10574131967E+03  0.27651305157E+03  0.12499210191E+03 0.  0.
          5    1    3    3  502    0 -0.22490114242E+02  0.13775974745E+02  0.59546247417E+02  0.65294933190E+02  0.47000000000E+01 0.  1.
         -5    1    3    3    0  502 -0.18883814692E+02  0.20518386967E+03  0.46195072251E+02  0.21121811838E+03  0.47000000000E+01 0.  1.
        -11    1    1    2    0    0 -0.18458303085E+02 -0.13787898566E+03  0.36273448673E+02  0.14376051863E+03  0.00000000000E+00 0.  1.
         11    1    1    2    0    0  0.59832232019E+02 -0.81080858757E+02  0.58897804705E+02  0.11671740677E+03  0.00000000000E+00 0. -1.
<mgrwt>
<rscale>  0 0.25217509E+03</rscale>
<asrwt>0</asrwt>
<pdfrwt beam="1">  1        2 0.56761811E-01 0.25549607E+03</pdfrwt>
<pdfrwt beam="2">  1       -2 0.25852185E-01 0.25549607E+03</pdfrwt>
<totfact> 0.11678505E+03</totfact>
</mgrwt>
</event>
<event>
 7    1  0.4230786E-006  0.1403776E+03  0.7546771E-02  0.1222371E+00
         -1   -1    0    0    0  501 -0.00000000000E+00  0.00000000000E+00  0.78966581484E+02  0.78966581484E+02  0.00000000000E+00 0.  1.
          1   -1    0    0  501    0  0.00000000000E+00 -0.00000000000E+00 -0.20624874610E+03  0.20624874610E+03  0.00000000000E+00 0. -1.
         23    2    1    2    0    0  0.15252000563E+02 -0.62034675789E+02 -0.73626480932E+02  0.15851409938E+03  0.12499974594E+03 0.  0.
          5    1    3    3  502    0 -0.10388098570E+02 -0.37864058687E+01 -0.91466580047E+02  0.92252234264E+02  0.47000000000E+01 0.  1.
         -5    1    3    3    0  502  0.25640099132E+02 -0.58248269920E+02  0.17840099114E+02  0.66261865116E+02  0.47000000000E+01 0.  1.
        -11    1    1    2    0    0 -0.32826690683E+01  0.23328243519E+02  0.27369117510E+02  0.36111652623E+02  0.00000000000E+00 0.  1.
         11    1    1    2    0    0 -0.11969331494E+02  0.38706432270E+02 -0.81024801196E+02  0.90589575583E+02  0.00000000000E+00 0. -1.
<mgrwt>
<rscale>  0 0.13348704E+03</rscale>
<asrwt>0</asrwt>
<pdfrwt beam="2">  1        1 0.31730576E-01 0.14037757E+03</pdfrwt>
<pdfrwt beam="1">  1       -1 0.12148705E-01 0.14037757E+03</pdfrwt>
<totfact> 0.60495755E+03</totfact>
</mgrwt>
</event>
<event>
 7    1  0.4230786E-006  0.1357672E+03  0.7546771E-02  0.1230329E+00
          1   -1    0    0  501    0  0.00000000000E+00  0.00000000000E+00  0.70430845484E+03  0.70430845484E+03  0.00000000000E+00 0. -1.
         -1   -1    0    0    0  501 -0.00000000000E+00 -0.00000000000E+00 -0.21073124854E+02  0.21073124854E+02  0.00000000000E+00 0.  1.
         23    2    1    2    0    0  0.26260687197E+02  0.46068901176E+02  0.36191923233E+03  0.38654656876E+03  0.12498300581E+03 0.  0.
          5    1    3    3  502    0  0.60899570326E+02  0.63514233355E+02  0.30525938661E+03  0.31772346249E+03  0.47000000000E+01 0.  1.
         -5    1    3    3    0  502 -0.34638883130E+02 -0.17445332178E+02  0.56659845719E+02  0.68823106267E+02  0.47000000000E+01 0.  1.
        -11    1    1    2    0    0 -0.52073524325E+01  0.26468844643E+02  0.45808405026E+02  0.53161322661E+02  0.00000000000E+00 0.  1.
         11    1    1    2    0    0 -0.21053334764E+02 -0.72537745819E+02  0.27550769264E+03  0.28567368828E+03  0.00000000000E+00 0. -1.
<mgrwt>
<rscale>  0 0.12808251E+03</rscale>
<asrwt>0</asrwt>
<pdfrwt beam="1">  1        1 0.10835513E+00 0.13576715E+03</pdfrwt>
<pdfrwt beam="2">  1       -1 0.32420197E-02 0.13576715E+03</pdfrwt>
<totfact> 0.90149674E+03</totfact>
</mgrwt>
</event>
<event>
 7    1  0.4230786E-006  0.1516100E+03  0.7546771E-02  0.1208051E+00
         -2   -1    0    0    0  501 -0.00000000000E+00  0.00000000000E+00  0.17632050153E+03  0.17632050153E+03  0.00000000000E+00 0.  1.
          2   -1    0    0  501    0  0.00000000000E+00 -0.00000000000E+00 -0.11417479204E+03  0.11417479204E+03  0.00000000000E+00 0. -1.
         23    2    1    2    0    0  0.77450077688E+02  0.36820785080E+02  0.69757788800E+02  0.16688837738E+03  0.12502518409E+03 0.  0.
          5    1    3    3  502    0 -0.24786762386E+02 -0.18237964654E+02  0.32120881097E+02  0.44730838878E+02  0.47000000000E+01 0.  1.
         -5    1    3    3    0  502  0.10223684007E+03  0.55058749734E+02  0.37636907703E+02  0.12215753850E+03  0.47000000000E+01 0.  1.
        -11    1    1    2    0    0 -0.57338877738E+02  0.21623468846E+02 -0.79803995132E+01  0.61798123609E+02  0.00000000000E+00 0.  1.
         11    1    1    2    0    0 -0.20111199950E+02 -0.58444253927E+02  0.36832020409E+00  0.61808792581E+02  0.00000000000E+00 0. -1.
<mgrwt>
<rscale>  0 0.14399593E+03</rscale>
<asrwt>0</asrwt>
<pdfrwt beam="2">  1        2 0.17565353E-01 0.15160996E+03</pdfrwt>
<pdfrwt beam="1">  1       -2 0.27126231E-01 0.15160996E+03</pdfrwt>
<totfact> 0.38277667E+03</totfact>
</mgrwt>
</event>
<event>
 7    1  0.4230786E-006  0.1338586E+03  0.7546771E-02  0.1234389E+00
          1   -1    0    0  501    0  0.00000000000E+00  0.00000000000E+00  0.12442408020E+03  0.12442408020E+03  0.00000000000E+00 0. -1.
         -1   -1    0    0    0  501 -0.00000000000E+00 -0.00000000000E+00 -0.14986930709E+03  0.14986930709E+03  0.00000000000E+00 0.  1.
         23    2    1    2    0    0  0.26986076068E+02 -0.39676321117E+02 -0.81620328967E+02  0.15678008630E+03  0.12496262882E+03 0.  0.
          5    1    3    3  502    0  0.56130660148E+02 -0.70920023559E+02 -0.50323805192E+02  0.10360924727E+03  0.47000000000E+01 0. -1.
         -5    1    3    3    0  502 -0.29144584080E+02  0.31243702442E+02 -0.31296523776E+02  0.53170839037E+02  0.47000000000E+01 0. -1.
        -11    1    1    2    0    0  0.45823644328E+01  0.19472800630E+02 -0.22657224470E+02  0.30224788648E+02  0.00000000000E+00 0.  1.
         11    1    1    2    0    0 -0.31568440501E+02  0.20203520487E+02  0.78832326555E+02  0.87288512336E+02  0.00000000000E+00 0. -1.
<mgrwt>
<rscale>  0 0.12543605E+03</rscale>
<asrwt>0</asrwt>
<pdfrwt beam="1">  1        1 0.19142166E-01 0.13385857E+03</pdfrwt>
<pdfrwt beam="2">  1       -1 0.23056816E-01 0.13385857E+03</pdfrwt>
<totfact> 0.41294765E+03</totfact>
</mgrwt>
</event>
<event>
 7    1  0.4230786E-006  0.1415690E+03  0.7546771E-02  0.1223200E+00
          2   -1    0    0  501    0  0.00000000000E+00  0.00000000000E+00  0.28690123213E+03  0.28690123213E+03  0.00000000000E+00 0. -1.
         -2   -1    0    0    0  501 -0.00000000000E+00 -0.00000000000E+00 -0.55208137061E+02  0.55208137061E+02  0.00000000000E+00 0.  1.
         23    2    1    2    0    0  0.31320447927E+01 -0.66384483531E+02  0.12443899571E+03  0.18848563129E+03  0.12500024076E+03 0.  0.
          5    1    3    3  502    0  0.62266018047E+02 -0.49974668726E+02  0.68047509049E+02  0.10500989480E+03  0.47000000000E+01 0.  1.
         -5    1    3    3    0  502 -0.59133973255E+02 -0.16409814806E+02  0.56391486658E+02  0.83475736489E+02  0.47000000000E+01 0.  1.
        -11    1    1    2    0    0 -0.34254037235E+02 -0.25425930557E+01  0.34448331494E+02  0.48646596891E+02  0.00000000000E+00 0.  1.
         11    1    1    2    0    0  0.31121992442E+02  0.68927076587E+02  0.72805767866E+02  0.10497714101E+03  0.00000000000E+00 0. -1.
<mgrwt>
<rscale>  0 0.13291068E+03</rscale>
<asrwt>0</asrwt>
<pdfrwt beam="1">  1        2 0.44138650E-01 0.14156896E+03</pdfrwt>
<pdfrwt beam="2">  1       -2 0.84935597E-02 0.14156896E+03</pdfrwt>
<totfact> 0.93803736E+03</totfact>
</mgrwt>
</event>
<event>
 7    1  0.4230786E-006  0.1336283E+03  0.7546771E-02  0.1237460E+00
         -2   -1    0    0    0  501 -0.00000000000E+00  0.00000000000E+00  0.44795763578E+02  0.44795763578E+02  0.00000000000E+00 0.  1.
          2   -1    0    0  501    0  0.00000000000E+00 -0.00000000000E+00 -0.34498438488E+03  0.34498438488E+03  0.00000000000E+00 0. -1.
         23    2    1    2    0    0  0.34680311503E+02  0.32086676725E+02 -0.99220386100E+02  0.16643679133E+03  0.12499696661E+03 0.  0.
          5    1    3    3  502    0  0.65362033260E+02  0.61546940438E+02 -0.76159407489E+02  0.11782430402E+03  0.47000000000E+01 0.  1.
         -5    1    3    3    0  502 -0.30681721757E+02 -0.29460263713E+02 -0.23060978612E+02  0.48612487310E+02  0.47000000000E+01 0.  1.
        -11    1    1    2    0    0  0.27646430588E+02 -0.24797410610E+01 -0.46327972452E+02  0.54006992803E+02  0.00000000000E+00 0.  1.
         11    1    1    2    0    0 -0.62326742091E+02 -0.29606935664E+02 -0.15464026275E+03  0.16933636433E+03  0.00000000000E+00 0. -1.
<mgrwt>
<rscale>  0 0.12348241E+03</rscale>
<asrwt>0</asrwt>
<pdfrwt beam="2">  1        2 0.53074522E-01 0.13362829E+03</pdfrwt>
<pdfrwt beam="1">  1       -2 0.68916558E-02 0.13362829E+03</pdfrwt>
<totfact> 0.10599567E+04</totfact>
</mgrwt>
</event>
<event>
 7    1  0.4230786E-006  0.1264985E+03  0.7546771E-02  0.1247725E+00
         -2   -1    0    0    0  501 -0.00000000000E+00  0.00000000000E+00  0.22887232678E+02  0.22887232678E+02  0.00000000000E+00 0.  1.
          2   -1    0    0  501    0  0.00000000000E+00 -0.00000000000E+00 -0.61803698928E+03  0.61803698928E+03  0.00000000000E+00 0. -1.
         23    2    1    2    0    0  0.51634039550E+01  0.18696212435E+02 -0.21470173055E+03  0.24919612216E+03  0.12500266037E+03 0.  0.
          5    1    3    3  502    0  0.31686699880E+02 -0.32556136950E+02 -0.27655520294E+02  0.53393509017E+02  0.47000000000E+01 0. -1.
         -5    1    3    3    0  502 -0.26523295925E+02  0.51252349384E+02 -0.18704621026E+03  0.19580261315E+03  0.47000000000E+01 0. -1.
        -11    1    1    2    0    0  0.41826731853E+02 -0.18136924270E+01 -0.20926154412E+03  0.21340843195E+03  0.00000000000E+00 0.  1.
         11    1    1    2    0    0 -0.46990135808E+02 -0.16882520008E+02 -0.17118648192E+03  0.17831966784E+03  0.00000000000E+00 0. -1.
<mgrwt>
<rscale>  0 0.11723779E+03</rscale>
<asrwt>0</asrwt>
<pdfrwt beam="2">  1        2 0.95082594E-01 0.12649851E+03</pdfrwt>
<pdfrwt beam="1">  1       -2 0.35211134E-02 0.12649851E+03</pdfrwt>
<totfact> 0.15309232E+04</totfact>
</mgrwt>
</event>
<event>
 7    1  0.4230786E-006  0.1531623E+03  0.7546771E-02  0.1205291E+00
          2   -1    0    0  501    0  0.00000000000E+00  0.00000000000E+00  0.14509797164E+03  0.14509797164E+03  0.00000000000E+00 0. -1.
         -2   -1    0    0    0  501 -0.00000000000E+00 -0.00000000000E+00 -0.14255422809E+03  0.14255422809E+03  0.00000000000E+00 0.  1.
         23    2    1    2    0    0 -0.50004799281E+02  0.72878742052E+02 -0.31138814150E+02  0.15629555571E+03  0.12508750534E+03 0.  0.
          5    1    3    3  502    0 -0.91651502319E+02  0.57320091465E+02 -0.17916073004E+02  0.10967527723E+03  0.47000000000E+01 0.  1.
         -5    1    3    3    0  502  0.41646703038E+02  0.15558650587E+02 -0.13222741146E+02  0.46620278479E+02  0.47000000000E+01 0.  1.
        -11    1    1    2    0    0  0.15389096065E+02 -0.70941885406E+02 -0.12446827977E+02  0.73651197610E+02  0.00000000000E+00 0.  1.
         11    1    1    2    0    0  0.34615703216E+02 -0.19368566465E+01  0.46129385678E+02  0.57705446414E+02  0.00000000000E+00 0. -1.
<mgrwt>
<rscale>  0 0.14614522E+03</rscale>
<asrwt>0</asrwt>
<pdfrwt beam="1">  1        2 0.22322765E-01 0.15316225E+03</pdfrwt>
<pdfrwt beam="2">  1       -2 0.21931420E-01 0.15316225E+03</pdfrwt>
<totfact> 0.42268699E+03</totfact>
</mgrwt>
</event>
<event>
 7    1  0.4230786E-006  0.1493225E+03  0.7546771E-02  0.1210412E+00
         -1   -1    0    0    0  501 -0.00000000000E+00  0.00000000000E+00  0.58180662045E+02  0.58180662045E+02  0.00000000000E+00 0.  1.
          1   -1    0    0  501    0  0.00000000000E+00 -0.00000000000E+00 -0.38537951010E+03  0.38537951010E+03  0.00000000000E+00 0. -1.
         23    2    1    2    0    0  0.49170609087E+02 -0.65227032975E+02 -0.84496213471E+02  0.17157160755E+03  0.12499956720E+03 0.  0.
          5    1    3    3  502    0 -0.20733654966E+01 -0.90469987624E+02 -0.62964435498E+02  0.11034367967E+03  0.47000000000E+01 0. -1.
         -5    1    3    3    0  502  0.51243974584E+02  0.25242954649E+02 -0.21531777973E+02  0.61227927886E+02  0.47000000000E+01 0. -1.
        -11    1    1    2    0    0 -0.17017290134E+02 -0.20242049771E+01  0.97443801480E+00  0.17164938064E+02  0.00000000000E+00 0.  1.
         11    1    1    2    0    0 -0.32153318953E+02  0.67251237952E+02 -0.24367707260E+03  0.25482362652E+03  0.00000000000E+00 0. -1.
<mgrwt>
<rscale>  0 0.14219019E+03</rscale>
<asrwt>0</asrwt>
<pdfrwt beam="2">  1        1 0.59289154E-01 0.14932249E+03</pdfrwt>
<pdfrwt beam="1">  1       -1 0.89508714E-02 0.14932249E+03</pdfrwt>
<totfact> 0.44569441E+03</totfact>
</mgrwt>
</event>
<event>
 6    1  0.4230786E-006  0.3867697E+03  0.7546771E-02  0.1048460E+00
          3   -1    0    0  501    0  0.00000000000E+00  0.00000000000E+00  0.71660184909E+02  0.71660184909E+02  0.00000000000E+00 0. -1.
         -3   -1    0    0    0  501 -0.00000000000E+00 -0.00000000000E+00 -0.52187545201E+03  0.52187545201E+03  0.00000000000E+00 0.  1.
          5    1    1    2  502    0  0.44240476826E+01 -0.23957741098E+02 -0.23910244009E+02  0.34457732441E+02  0.47000000000E+01 0. -1.
         -5    1    1    2    0  502 -0.38930555263E+02  0.16952317028E+03 -0.28643655948E+03  0.33514427640E+03  0.47000000000E+01 0.  1.
        -11    1    1    2    0    0 -0.30678438544E+02 -0.37897789555E+02 -0.44612565535E+02  0.66088501634E+02  0.00000000000E+00 0.  1.
         11    1    1    2    0    0  0.65184946124E+02 -0.10766763963E+03 -0.95255898074E+02  0.15784512644E+03  0.00000000000E+00 0. -1.
<mgrwt>
<rscale>  0 0.38676965E+03</rscale>
<asrwt>0</asrwt>
<pdfrwt beam="1">  1        3 0.11024644E-01 0.38676965E+03</pdfrwt>
<pdfrwt beam="2">  1       -3 0.80288529E-01 0.38676965E+03</pdfrwt>
<totfact> 0.24066290E+02</totfact>
</mgrwt>
</event>
<event>
 7    1  0.4230786E-006  0.1172564E+03  0.7546771E-02  0.1256644E+00
          1   -1    0    0  501    0  0.00000000000E+00  0.00000000000E+00  0.10361788343E+03  0.10361788343E+03  0.00000000000E+00 0. -1.
         -1   -1    0    0    0  501 -0.00000000000E+00 -0.00000000000E+00 -0.15315152043E+03  0.15315152043E+03  0.00000000000E+00 0.  1.
         23    2    1    2    0    0  0.19499095907E+02  0.11871856625E+02 -0.92799129016E+02  0.14953508688E+03  0.11501264340E+03 0.  0.
          5    1    3    3  502    0 -0.13695240237E+02  0.56624200973E+02 -0.30873193792E+02  0.66099196939E+02  0.47000000000E+01 0. -1.
         -5    1    3    3    0  502  0.33194336144E+02 -0.44752344348E+02 -0.61925935224E+02  0.83435889940E+02  0.47000000000E+01 0.  1.
        -11    1    1    2    0    0  0.33236976767E+02 -0.17151278857E+02 -0.21144220315E+01  0.37461096775E+02  0.00000000000E+00 0.  1.
         11    1    1    2    0    0 -0.52736072674E+02  0.52794222322E+01  0.45379914047E+02  0.69773220214E+02  0.00000000000E+00 0. -1.
<mgrwt>
<rscale>  0 0.11214772E+03</rscale>
<asrwt>0</asrwt>
<pdfrwt beam="1">  1        1 0.15941213E-01 0.11725640E+03</pdfrwt>
<pdfrwt beam="2">  1       -1 0.23561772E-01 0.11725640E+03</pdfrwt>
<totfact> 0.49957687E+03</totfact>
</mgrwt>
</event>
<event>
 7    1  0.4230786E-006  0.1381296E+03  0.7546771E-02  0.1227888E+00
          3   -1    0    0  501    0  0.00000000000E+00  0.00000000000E+00  0.62458182171E+02  0.62458182171E+02  0.00000000000E+00 0. -1.
         -3   -1    0    0    0  501 -0.00000000000E+00 -0.00000000000E+00 -0.28619020130E+03  0.28619020130E+03  0.00000000000E+00 0.  1.
         23    2    1    2    0    0 -0.53965711867E+02  0.23303656851E+02 -0.19224532020E+03  0.23672357949E+03  0.12499772584E+03 0.  0.
          5    1    3    3  502    0 -0.86351996491E+02  0.58801642170E+01 -0.17611834198E+03  0.19629315834E+03  0.47000000000E+01 0.  1.
         -5    1    3    3    0  502  0.32386284624E+02  0.17423492634E+02 -0.16126978221E+02  0.40430421144E+02  0.47000000000E+01 0.  1.
        -11    1    1    2    0    0  0.13664300656E+02 -0.50526197950E+02 -0.35314259289E+02  0.63140372986E+02  0.00000000000E+00 0.  1.
         11    1    1    2    0    0  0.40301411211E+02  0.27222541099E+02  0.38275603642E+01  0.48784430998E+02  0.00000000000E+00 0. -1.
<mgrwt>
<rscale>  0 0.12970921E+03</rscale>
<asrwt>0</asrwt>
<pdfrwt beam="1">  1        3 0.96089509E-02 0.13812961E+03</pdfrwt>
<pdfrwt beam="2">  1       -3 0.44029263E-01 0.13812961E+03</pdfrwt>
<totfact> 0.93884399E+02</totfact>
</mgrwt>
</event>
<event>
 7    1  0.4230786E-006  0.1481139E+03  0.7546771E-02  0.1212370E+00
          3   -1    0    0  501    0  0.00000000000E+00  0.00000000000E+00  0.31637430466E+02  0.31637430466E+02  0.00000000000E+00 0. -1.
         -3   -1    0    0    0  501 -0.00000000000E+00 -0.00000000000E+00 -0.62359474428E+03  0.62359474428E+03  0.00000000000E+00 0.  1.
         23    2    1    2    0    0  0.49268462318E+02  0.62330269648E+02 -0.41846833552E+03  0.44390704074E+03  0.12500107636E+03 0.  0.
          5    1    3    3  502    0  0.73281432054E+02 -0.56305892166E+01 -0.17279534020E+03  0.18783554353E+03  0.47000000000E+01 0. -1.
         -5    1    3    3    0  502 -0.24012969736E+02  0.67960858864E+02 -0.24567299532E+03  0.25607149721E+03  0.47000000000E+01 0. -1.
        -11    1    1    2    0    0 -0.37926438074E+02 -0.86234209417E+02 -0.13529708897E+03  0.16486374939E+03  0.00000000000E+00 0.  1.
         11    1    1    2    0    0 -0.11342024244E+02  0.23903939769E+02 -0.38191889325E+02  0.46461384618E+02  0.00000000000E+00 0. -1.
<mgrwt>
<rscale>  0 0.14071536E+03</rscale>
<asrwt>0</asrwt>
<pdfrwt beam="1">  1        3 0.48672973E-02 0.14811385E+03</pdfrwt>
<pdfrwt beam="2">  1       -3 0.95937647E-01 0.14811385E+03</pdfrwt>
<totfact> 0.55569221E+02</totfact>
</mgrwt>
</event>
<event>
 7    1  0.4230786E-006  0.1326027E+03  0.7546771E-02  0.1237161E+00
          1   -1    0    0  501    0  0.00000000000E+00  0.00000000000E+00  0.16091681779E+03  0.16091681779E+03  0.00000000000E+00 0. -1.
         -1   -1    0    0    0  501 -0.00000000000E+00 -0.00000000000E+00 -0.86551709248E+02  0.86551709248E+02  0.00000000000E+00 0.  1.
         23    2    1    2    0    0  0.37176569982E+02  0.24045983636E+02  0.22393510957E+02  0.13448030376E+03  0.12499270412E+03 0.  0.
          5    1    3    3  502    0  0.41120149690E+02  0.61117645697E+02  0.48860110792E+02  0.88519115182E+02  0.47000000000E+01 0.  1.
         -5    1    3    3    0  502 -0.39435797074E+01 -0.37071662061E+02 -0.26466599836E+02  0.45961188580E+02  0.47000000000E+01 0.  1.
        -11    1    1    2    0    0  0.21810367256E+02 -0.19934132936E+02 -0.60334899805E+01  0.30157333720E+02  0.00000000000E+00 0.  1.
         11    1    1    2    0    0 -0.58986937238E+02 -0.41118507002E+01  0.58005087564E+02  0.82830889554E+02  0.00000000000E+00 0. -1.
<mgrwt>
<rscale>  0 0.12367093E+03</rscale>
<asrwt>0</asrwt>
<pdfrwt beam="1">  1        1 0.24756433E-01 0.13260273E+03</pdfrwt>
<pdfrwt beam="2">  1       -1 0.13315648E-01 0.13260273E+03</pdfrwt>
<totfact> 0.71271946E+03</totfact>
</mgrwt>
</event>
<event>
 7    1  0.4230786E-006  0.1319774E+03  0.7546771E-02  0.1233372E+00
         -2   -1    0    0    0  501 -0.00000000000E+00  0.00000000000E+00  0.16516619083E+03  0.16516619083E+03  0.00000000000E+00 0. -1.
          2   -1    0    0  501    0  0.00000000000E+00 -0.00000000000E+00 -0.93251905837E+02  0.93251905837E+02  0.00000000000E+00 0.  1.
         23    2    1    2    0    0  0.14168500273E+02 -0.39864936122E+02  0.67806390913E+02  0.14837698531E+03  0.12501225375E+03 0.  0.
          5    1    3    3  502    0  0.44582902187E+02 -0.59268792686E+02  0.33831790341E+01  0.74390596545E+02  0.47000000000E+01 0. -1.
         -5    1    3    3    0  502 -0.30414401914E+02  0.19403856564E+02  0.64423211879E+02  0.73986388763E+02  0.47000000000E+01 0. -1.
        -11    1    1    2    0    0 -0.52615621602E+02 -0.24025780940E+01  0.48997721414E+01  0.52897861820E+02  0.00000000000E+00 0.  1.
         11    1    1    2    0    0  0.38447121329E+02  0.42267514216E+02 -0.79187806583E+00  0.57143249535E+02  0.00000000000E+00 0. -1.
<mgrwt>
<rscale>  0 0.12609202E+03</rscale>
<asrwt>0</asrwt>
<pdfrwt beam="2">  1        2 0.14346447E-01 0.13197736E+03</pdfrwt>
<pdfrwt beam="1">  1       -2 0.25410183E-01 0.13197736E+03</pdfrwt>
<totfact> 0.53888796E+03</totfact>
</mgrwt>
</event>
<event>
 7    1  0.4230786E-006  0.1306012E+03  0.7546771E-02  0.1240111E+00
          2   -1    0    0  501    0  0.00000000000E+00  0.00000000000E+00  0.34213286347E+03  0.34213286347E+03  0.00000000000E+00 0. -1.
         -2   -1    0    0    0  501 -0.00000000000E+00 -0.00000000000E+00 -0.40357731999E+02  0.40357731999E+02  0.00000000000E+00 0.  1.
         23    2    1    2    0    0  0.37627207041E+02  0.39216489801E+01  0.12993547605E+03  0.18422785615E+03  0.12500195601E+03 0.  0.
          5    1    3    3  502    0  0.82065612359E+02 -0.10323608111E+02  0.72623718328E+02  0.11017094027E+03  0.47000000000E+01 0.  1.
         -5    1    3    3    0  502 -0.44438405318E+02  0.14245257091E+02  0.57311757725E+02  0.74056915884E+02  0.47000000000E+01 0.  1.
        -11    1    1    2    0    0 -0.31144660746E+02  0.39669953754E+02  0.62075575812E+02  0.79981699383E+02  0.00000000000E+00 0.  1.
         11    1    1    2    0    0 -0.64825462954E+01 -0.43591602734E+02  0.10976407961E+03  0.11828103993E+03  0.00000000000E+00 0. -1.
<mgrwt>
<rscale>  0 0.12182841E+03</rscale>
<asrwt>0</asrwt>
<pdfrwt beam="1">  1        2 0.52635823E-01 0.13060121E+03</pdfrwt>
<pdfrwt beam="2">  1       -2 0.62088821E-02 0.13060121E+03</pdfrwt>
<totfact> 0.12512621E+04</totfact>
</mgrwt>
</event>
<event>
 7    1  0.4230786E-006  0.2069938E+03  0.7546771E-02  0.1147986E+00
          1   -1    0    0  501    0  0.00000000000E+00  0.00000000000E+00  0.79069348857E+03  0.79069348857E+03  0.00000000000E+00 0. -1.
         -1   -1    0    0    0  501 -0.00000000000E+00 -0.00000000000E+00 -0.62639021646E+02  0.62639021646E+02  0.00000000000E+00 0.  1.
         23    2    1    2    0    0  0.15111403669E+03  0.66227386864E+02  0.18140211060E+03  0.27523293903E+03  0.12499970456E+03 0.  0.
          5    1    3    3  502    0  0.16204331400E+03  0.27691965870E+02  0.16054140345E+03  0.22982713680E+03  0.47000000000E+01 0. -1.
         -5    1    3    3    0  502 -0.10929277307E+02  0.38535420993E+02  0.20860707144E+02  0.45405802230E+02  0.47000000000E+01 0. -1.
        -11    1    1    2    0    0 -0.12381116499E+02  0.14032677102E+02  0.19109038769E+02  0.26746278902E+02  0.00000000000E+00 0.  1.
         11    1    1    2    0    0 -0.13873292020E+03 -0.80260063965E+02  0.52754331756E+03  0.55135329229E+03  0.00000000000E+00 0. -1.
<mgrwt>
<rscale>  0 0.20209144E+03</rscale>
<asrwt>0</asrwt>
<pdfrwt beam="1">  1        1 0.12164514E+00 0.20699383E+03</pdfrwt>
<pdfrwt beam="2">  1       -1 0.96367731E-02 0.20699383E+03</pdfrwt>
<totfact> 0.15123699E+03</totfact>
</mgrwt>
</event>
<event>
 7    1  0.4230786E-006  0.2135046E+03  0.7546771E-02  0.1142674E+00
         -2   -1    0    0    0  501 -0.00000000000E+00  0.00000000000E+00  0.56692527304E+02  0.56692527304E+02  0.00000000000E+00 0.  1.
          2   -1    0    0  501    0  0.00000000000E+00 -0.00000000000E+00 -0.73547712459E+03  0.73547712459E+03  0.00000000000E+00 0. -1.
         23    2    1    2    0    0  0.16443113099E+03 -0.54052815223E+02 -0.37052027684E+03  0.42763242643E+03  0.12499965165E+03 0.  0.
          5    1    3    3  502    0  0.17345002857E+03 -0.55674231881E+02 -0.26498298349E+03  0.32159384951E+03  0.47000000000E+01 0. -1.
         -5    1    3    3    0  502 -0.90188975855E+01  0.16214166588E+01 -0.10553729336E+03  0.10603857692E+03  0.47000000000E+01 0. -1.
        -11    1    1    2    0    0 -0.50637470556E+02  0.34007800037E+02 -0.41364906934E+02  0.73700335232E+02  0.00000000000E+00 0.  1.
         11    1    1    2    0    0 -0.11379366043E+03  0.20045015186E+02 -0.26689941350E+03  0.29083689023E+03  0.00000000000E+00 0. -1.
<mgrwt>
<rscale>  0 0.20860693E+03</rscale>
<asrwt>0</asrwt>
<pdfrwt beam="2">  1        2 0.11315031E+00 0.21350461E+03</pdfrwt>
<pdfrwt beam="1">  1       -2 0.87219282E-02 0.21350461E+03</pdfrwt>
<totfact> 0.32275870E+03</totfact>
</mgrwt>
</event>
<event>
 7    1  0.4230786E-006  0.1332498E+03  0.7546771E-02  0.1235807E+00
          2   -1    0    0  501    0  0.00000000000E+00  0.00000000000E+00  0.75803934256E+03  0.75803934256E+03  0.00000000000E+00 0. -1.
         -2   -1    0    0    0  501 -0.00000000000E+00 -0.00000000000E+00 -0.18623922405E+02  0.18623922405E+02  0.00000000000E+00 0.  1.
         23    2    1    2    0    0  0.34986418664E+02  0.30095814318E+02  0.36002864234E+03  0.38389598868E+03  0.12500279713E+03 0.  0.
          5    1    3    3  502    0  0.48350507089E+02  0.46567590557E+02  0.86921711340E+02  0.10992627497E+03  0.47000000000E+01 0.  1.
         -5    1    3    3    0  502 -0.13364088425E+02 -0.16471776239E+02  0.27310693100E+03  0.27396971371E+03  0.47000000000E+01 0.  1.
        -11    1    1    2    0    0 -0.56432582470E+02 -0.35472440927E+02  0.34829448809E+03  0.35461525752E+03  0.00000000000E+00 0. -1.
         11    1    1    2    0    0  0.21446163805E+02  0.53766266090E+01  0.31092289724E+02  0.38152018766E+02  0.00000000000E+00 0.  1.
<mgrwt>
<rscale>  0 0.12452941E+03</rscale>
<asrwt>0</asrwt>
<pdfrwt beam="1">  1        2 0.11662141E+00 0.13324979E+03</pdfrwt>
<pdfrwt beam="2">  1       -2 0.28652194E-02 0.13324979E+03</pdfrwt>
<totfact> 0.16365415E+04</totfact>
</mgrwt>
</event>
<event>
 7    1  0.4230786E-006  0.3042806E+03  0.7546771E-02  0.1084558E+00
         -1   -1    0    0    0  501 -0.00000000000E+00  0.00000000000E+00  0.32256125220E+03  0.32256125220E+03  0.00000000000E+00 0.  1.
          1   -1    0    0  501    0  0.00000000000E+00 -0.00000000000E+00 -0.28421290521E+03  0.28421290521E+03  0.00000000000E+00 0. -1.
         23    2    1    2    0    0  0.24622377729E+03  0.12780613017E+03  0.70106836132E+02  0.31225252013E+03  0.12500444969E+03 0.  0.
          5    1    3    3  502    0  0.26825479326E+01 -0.11871716519E+02  0.24532022423E+02  0.27785676897E+02  0.47000000000E+01 0. -1.
         -5    1    3    3    0  502  0.24354122936E+03  0.13967784669E+03  0.45574813710E+02  0.28446684323E+03  0.47000000000E+01 0. -1.
        -11    1    1    2    0    0 -0.54363800472E+02 -0.57007874105E+02  0.24362438696E+02  0.82455132836E+02  0.00000000000E+00 0.  1.
         11    1    1    2    0    0 -0.19185997682E+03 -0.70798256063E+02 -0.56120927841E+02  0.21206650445E+03  0.00000000000E+00 0. -1.
<mgrwt>
<rscale>  0 0.30137003E+03</rscale>
<asrwt>0</asrwt>
<pdfrwt beam="2">  1        1 0.43725062E-01 0.30428057E+03</pdfrwt>
<pdfrwt beam="1">  1       -1 0.49624808E-01 0.30428057E+03</pdfrwt>
<totfact> 0.39259084E+02</totfact>
</mgrwt>
</event>
<event>
 7    1  0.4230786E-006  0.1403056E+03  0.7546771E-02  0.1224967E+00
          1   -1    0    0  501    0  0.00000000000E+00  0.00000000000E+00  0.39430380979E+03  0.39430380979E+03  0.00000000000E+00 0.  1.
         -1   -1    0    0    0  501 -0.00000000000E+00 -0.00000000000E+00 -0.39494980192E+02  0.39494980192E+02  0.00000000000E+00 0. -1.
         23    2    1    2    0    0  0.24220701637E+01  0.63859352523E+02  0.18778877308E+03  0.23441478600E+03  0.12490710659E+03 0.  0.
          5    1    3    3  502    0  0.33519985702E+02  0.64138057848E+02  0.39009898053E+02  0.82347690023E+02  0.47000000000E+01 0.  1.
         -5    1    3    3    0  502 -0.31097915538E+02 -0.27870532472E+00  0.14877887502E+03  0.15206709598E+03  0.47000000000E+01 0.  1.
        -11    1    1    2    0    0  0.30101110452E+02 -0.67107509788E+02  0.13438720248E+03  0.15319730713E+03  0.00000000000E+00 0.  1.
         11    1    1    2    0    0 -0.32523180616E+02  0.32481572647E+01  0.32632854043E+02  0.46186696851E+02  0.00000000000E+00 0. -1.
<mgrwt>
<rscale>  0 0.13169189E+03</rscale>
<asrwt>0</asrwt>
<pdfrwt beam="1">  1        1 0.60662122E-01 0.14030563E+03</pdfrwt>
<pdfrwt beam="2">  1       -1 0.60761511E-02 0.14030563E+03</pdfrwt>
<totfact> 0.77311551E+03</totfact>
</mgrwt>
</event>
<event>
 7    1  0.4230786E-006  0.1539842E+03  0.7546771E-02  0.1204335E+00
         -1   -1    0    0    0  501 -0.00000000000E+00  0.00000000000E+00  0.25207004695E+03  0.25207004695E+03  0.00000000000E+00 0.  1.
          1   -1    0    0  501    0  0.00000000000E+00 -0.00000000000E+00 -0.79539958914E+02  0.79539958914E+02  0.00000000000E+00 0. -1.
         23    2    1    2    0    0 -0.89181139891E+02 -0.11526865832E+02  0.11214651718E+03  0.19049401931E+03  0.12499994292E+03 0.  0.
          5    1    3    3  502    0 -0.88304492294E+01 -0.58002600844E+02  0.28253693521E+02  0.65288894429E+02  0.47000000000E+01 0.  1.
         -5    1    3    3    0  502 -0.80350690661E+02  0.46475735012E+02  0.83892823664E+02  0.12520512488E+03  0.47000000000E+01 0.  1.
        -11    1    1    2    0    0  0.85410604087E+02 -0.99235996425E+01  0.10422958031E+02  0.86614589848E+02  0.00000000000E+00 0. -1.
         11    1    1    2    0    0  0.37705358032E+01  0.21450465474E+02  0.49960612816E+02  0.54501396700E+02  0.00000000000E+00 0.  1.
<mgrwt>
<rscale>  0 0.14690019E+03</rscale>
<asrwt>0</asrwt>
<pdfrwt beam="2">  1        1 0.12236917E-01 0.15398419E+03</pdfrwt>
<pdfrwt beam="1">  1       -1 0.38780007E-01 0.15398419E+03</pdfrwt>
<totfact> 0.30945551E+03</totfact>
</mgrwt>
</event>
<event>
 7    1  0.4230786E-006  0.1261530E+03  0.7546771E-02  0.1256056E+00
         -2   -1    0    0    0  501 -0.00000000000E+00  0.00000000000E+00  0.67663306516E+02  0.67663306516E+02  0.00000000000E+00 0.  1.
          2   -1    0    0  501    0  0.00000000000E+00 -0.00000000000E+00 -0.16204131843E+03  0.16204131843E+03  0.00000000000E+00 0. -1.
         23    2    1    2    0    0 -0.12907779240E+02 -0.11125610736E+02 -0.36923357494E+02  0.13144547484E+03  0.12499675415E+03 0.  0.
          5    1    3    3  502    0 -0.22830211358E+02 -0.43263064711E+01 -0.81582182687E+02  0.84956918555E+02  0.47000000000E+01 0.  1.
         -5    1    3    3    0  502  0.99224321179E+01 -0.67993042644E+01  0.44658825193E+02  0.46488556283E+02  0.47000000000E+01 0.  1.
        -11    1    1    2    0    0 -0.28020027086E+02  0.96139241429E+01 -0.25098713391E+01  0.29729596523E+02  0.00000000000E+00 0.  1.
         11    1    1    2    0    0  0.40927806325E+02  0.15116865927E+01 -0.54944783085E+02  0.68529553590E+02  0.00000000000E+00 0. -1.
<mgrwt>
<rscale>  0 0.11247411E+03</rscale>
<asrwt>0</asrwt>
<pdfrwt beam="2">  1        2 0.24929434E-01 0.12615300E+03</pdfrwt>
<pdfrwt beam="1">  1       -2 0.10409739E-01 0.12615300E+03</pdfrwt>
<totfact> 0.12509387E+04</totfact>
</mgrwt>
</event>
<event>
 7    1  0.4230786E-006  0.3606357E+03  0.7546771E-02  0.1059371E+00
         -4   -1    0    0    0  501 -0.00000000000E+00  0.00000000000E+00  0.87925503907E+03  0.87925503907E+03  0.00000000000E+00 0.  1.
          4   -1    0    0  501    0  0.00000000000E+00 -0.00000000000E+00 -0.14902158994E+03  0.14902158994E+03  0.00000000000E+00 0. -1.
         23    2    1    2    0    0 -0.13666698072E+03  0.30944444431E+03  0.27311356446E+03  0.45238159459E+03  0.12499744115E+03 0.  0.
          5    1    3    3  502    0 -0.14865208093E+03  0.23655401746E+03  0.17583373025E+03  0.33014365818E+03  0.47000000000E+01 0.  1.
         -5    1    3    3    0  502  0.11985100208E+02  0.72890426850E+02  0.97279834213E+02  0.12223793641E+03  0.47000000000E+01 0.  1.
        -11    1    1    2    0    0  0.60990411426E+02 -0.14744469303E+03  0.29078328454E+03  0.33168461881E+03  0.00000000000E+00 0.  1.
         11    1    1    2    0    0  0.75676569296E+02 -0.16199975128E+03  0.16633660012E+03  0.24421041561E+03  0.00000000000E+00 0. -1.
<mgrwt>
<rscale>  0 0.35801855E+03</rscale>
<asrwt>0</asrwt>
<pdfrwt beam="2">  1        4 0.22926399E-01 0.36063567E+03</pdfrwt>
<pdfrwt beam="1">  1       -4 0.13527000E+00 0.36063567E+03</pdfrwt>
<totfact> 0.13464873E+01</totfact>
</mgrwt>
</event>
<event>
 7    1  0.4230786E-006  0.1703662E+03  0.7546771E-02  0.1184289E+00
         -1   -1    0    0    0  501 -0.00000000000E+00  0.00000000000E+00  0.31464763288E+02  0.31464763288E+02  0.00000000000E+00 0.  1.
          1   -1    0    0  501    0  0.00000000000E+00 -0.00000000000E+00 -0.85688386043E+03  0.85688386043E+03  0.00000000000E+00 0. -1.
         23    2    1    2    0    0  0.10628011658E+03  0.40118364631E+02 -0.32405468918E+03  0.36610939274E+03  0.12696337863E+03 0.  0.
          5    1    3    3  502    0 -0.15210564107E+02  0.45824962682E+02 -0.99143360016E+02  0.11037565085E+03  0.47000000000E+01 0. -1.
         -5    1    3    3    0  502  0.12149068069E+03 -0.57065980504E+01 -0.22491132917E+03  0.25573374189E+03  0.47000000000E+01 0.  1.
        -11    1    1    2    0    0 -0.82546948898E+02 -0.68597409884E+02 -0.33412828241E+03  0.35094346058E+03  0.00000000000E+00 0.  1.
         11    1    1    2    0    0 -0.23733167685E+02  0.28479045252E+02 -0.16723612555E+03  0.17129577040E+03  0.00000000000E+00 0. -1.
<mgrwt>
<rscale>  0 0.16396718E+03</rscale>
<asrwt>0</asrwt>
<pdfrwt beam="2">  1        1 0.13182829E+00 0.17036621E+03</pdfrwt>
<pdfrwt beam="1">  1       -1 0.48407328E-02 0.17036621E+03</pdfrwt>
<totfact> 0.37653990E+03</totfact>
</mgrwt>
</event>
<event>
 7    1  0.4230786E-006  0.1846183E+03  0.7546771E-02  0.1168797E+00
          1   -1    0    0  501    0  0.00000000000E+00  0.00000000000E+00  0.32663358342E+03  0.32663358342E+03  0.00000000000E+00 0. -1.
         -1   -1    0    0    0  501 -0.00000000000E+00 -0.00000000000E+00 -0.93875396786E+02  0.93875396786E+02  0.00000000000E+00 0.  1.
         23    2    1    2    0    0  0.80403415499E+02 -0.10950813737E+03  0.98299510099E+02  0.20915717816E+03  0.12500876016E+03 0.  0.
          5    1    3    3  502    0  0.10609412503E+03 -0.88112205433E+02  0.43308023041E+02  0.14462848603E+03  0.47000000000E+01 0. -1.
         -5    1    3    3    0  502 -0.25690709528E+02 -0.21395931937E+02  0.54991487059E+02  0.64528692133E+02  0.47000000000E+01 0. -1.
        -11    1    1    2    0    0 -0.46182798819E+02  0.53094436457E+02  0.10803253856E+02  0.71193963110E+02  0.00000000000E+00 0.  1.
         11    1    1    2    0    0 -0.34220616680E+02  0.56413700912E+02  0.12365542268E+03  0.14015783894E+03  0.00000000000E+00 0. -1.
<mgrwt>
<rscale>  0 0.17897684E+03</rscale>
<asrwt>0</asrwt>
<pdfrwt beam="1">  1        1 0.50251320E-01 0.18461834E+03</pdfrwt>
<pdfrwt beam="2">  1       -1 0.14442369E-01 0.18461834E+03</pdfrwt>
<totfact> 0.26421126E+03</totfact>
</mgrwt>
</event>
<event>
 7    1  0.4230786E-006  0.1169334E+03  0.7546771E-02  0.1259589E+00
          3   -1    0    0  501    0  0.00000000000E+00  0.00000000000E+00  0.66628958551E+02  0.66628958551E+02  0.00000000000E+00 0. -1.
         -3   -1    0    0    0  501 -0.00000000000E+00 -0.00000000000E+00 -0.21037056278E+03  0.21037056278E+03  0.00000000000E+00 0.  1.
         23    2    1    2    0    0  0.12225422777E+02 -0.18820292214E+02 -0.14157447939E+03  0.18362119651E+03  0.11475951478E+03 0.  0.
          5    1    3    3  502    0 -0.51341438414E+02 -0.94158594068E+01 -0.59853674279E+02  0.79555980489E+02  0.47000000000E+01 0. -1.
         -5    1    3    3    0  502  0.63566861191E+02 -0.94044328072E+01 -0.81720805111E+02  0.10406521602E+03  0.47000000000E+01 0.  1.
        -11    1    1    2    0    0 -0.16717441615E+02 -0.34447072394E+02  0.76016529073E+01  0.39036633789E+02  0.00000000000E+00 0.  1.
         11    1    1    2    0    0  0.44920188373E+01  0.53267364608E+02 -0.97687777480E+01  0.54341691032E+02  0.00000000000E+00 0. -1.
<mgrwt>
<rscale>  0 0.11053151E+03</rscale>
<asrwt>0</asrwt>
<pdfrwt beam="1">  1        3 0.10250609E-01 0.11693336E+03</pdfrwt>
<pdfrwt beam="2">  1       -3 0.32364701E-01 0.11693336E+03</pdfrwt>
<totfact> 0.14765919E+03</totfact>
</mgrwt>
</event>
<event>
 7    1  0.4230786E-006  0.2270416E+03  0.7546771E-02  0.1131961E+00
          2   -1    0    0  501    0  0.00000000000E+00  0.00000000000E+00  0.76806312522E+03  0.76806312522E+03  0.00000000000E+00 0. -1.
         -2   -1    0    0    0  501 -0.00000000000E+00 -0.00000000000E+00 -0.69986920034E+02  0.69986920034E+02  0.00000000000E+00 0.  1.
         23    2    1    2    0    0 -0.10547463037E+03  0.15747112310E+03  0.22079405837E+03  0.31669845853E+03  0.12500338060E+03 0.  0.
          5    1    3    3  502    0 -0.60883272477E+02  0.14300517622E+03  0.22021452315E+03  0.26958074764E+03  0.47000000000E+01 0. -1.
         -5    1    3    3    0  502 -0.44591357892E+02  0.14465946882E+02  0.57953521610E+00  0.47117710884E+02  0.47000000000E+01 0. -1.
        -11    1    1    2    0    0  0.12031746852E+02 -0.97224720318E+02  0.24390421807E+03  0.26284344535E+03  0.00000000000E+00 0.  1.
         11    1    1    2    0    0  0.93442883516E+02 -0.60246402786E+02  0.23337792875E+03  0.25850814138E+03  0.00000000000E+00 0. -1.
<mgrwt>
<rscale>  0 0.22259842E+03</rscale>
<asrwt>0</asrwt>
<pdfrwt beam="1">  1        2 0.11816355E+00 0.22704162E+03</pdfrwt>
<pdfrwt beam="2">  1       -2 0.10767219E-01 0.22704162E+03</pdfrwt>
<totfact> 0.21931708E+03</totfact>
</mgrwt>
</event>
<event>
 7    1  0.4230786E-006  0.1360455E+03  0.7546771E-02  0.1231201E+00
         -4   -1    0    0    0  501 -0.00000000000E+00  0.00000000000E+00  0.14431693465E+03  0.14431693465E+03  0.00000000000E+00 0.  1.
          4   -1    0    0  501    0  0.00000000000E+00 -0.00000000000E+00 -0.10441938288E+03  0.10441938288E+03  0.00000000000E+00 0. -1.
         23    2    1    2    0    0 -0.38942303230E+02  0.36985282918E+02  0.45920419463E+02  0.14358644353E+03  0.12499587077E+03 0.  0.
          5    1    3    3  502    0 -0.78289150906E+02 -0.11636360204E+01  0.13076032609E+02  0.79521178482E+02  0.47000000000E+01 0.  1.
         -5    1    3    3    0  502  0.39346847677E+02  0.38148918939E+02  0.32844386853E+02  0.64065265051E+02  0.47000000000E+01 0.  1.
        -11    1    1    2    0    0  0.27517384695E+02 -0.35545142602E+02  0.38485505404E+02  0.59175989634E+02  0.00000000000E+00 0.  1.
         11    1    1    2    0    0  0.11424918535E+02 -0.14401403169E+01 -0.44508373098E+02  0.45973884364E+02  0.00000000000E+00 0. -1.
<mgrwt>
<rscale>  0 0.12750786E+03</rscale>
<asrwt>0</asrwt>
<pdfrwt beam="2">  1        4 0.16064520E-01 0.13604551E+03</pdfrwt>
<pdfrwt beam="1">  1       -4 0.22202605E-01 0.13604551E+03</pdfrwt>
<totfact> 0.10285941E+03</totfact>
</mgrwt>
</event>
<event>
 7    1  0.4230786E-006  0.1255626E+03  0.7546771E-02  0.1259512E+00
         -2   -1    0    0    0  501 -0.00000000000E+00  0.00000000000E+00  0.77697528786E+03  0.77697528786E+03  0.00000000000E+00 0.  1.
          2   -1    0    0  501    0  0.00000000000E+00 -0.00000000000E+00 -0.13032196269E+02  0.13032196269E+02  0.00000000000E+00 0. -1.
         23    2    1    2    0    0  0.11843336685E+02 -0.19373513228E+00  0.49298607157E+03  0.50872509953E+03  0.12500263184E+03 0.  0.
          5    1    3    3  502    0 -0.97868602855E+01  0.54596605330E+02  0.13715716524E+03  0.14802280204E+03  0.47000000000E+01 0. -1.
         -5    1    3    3    0  502  0.21630196970E+02 -0.54790340463E+02  0.35582890633E+03  0.36070229748E+03  0.47000000000E+01 0. -1.
        -11    1    1    2    0    0 -0.12150913235E+02  0.33552522343E+02  0.19621138252E+03  0.19942999543E+03  0.00000000000E+00 0.  1.
         11    1    1    2    0    0  0.30757655083E+00 -0.33358787211E+02  0.74745637495E+02  0.81852389165E+02  0.00000000000E+00 0. -1.
<mgrwt>
<rscale>  0 0.11057304E+03</rscale>
<asrwt>0</asrwt>
<pdfrwt beam="2">  1        2 0.20049539E-02 0.12556257E+03</pdfrwt>
<pdfrwt beam="1">  1       -2 0.11953462E+00 0.12556257E+03</pdfrwt>
<totfact> 0.28946360E+03</totfact>
</mgrwt>
</event>
<event>
 7    1  0.4230786E-006  0.1580411E+03  0.7546771E-02  0.1198678E+00
          2   -1    0    0  501    0  0.00000000000E+00  0.00000000000E+00  0.35577309470E+02  0.35577309470E+02  0.00000000000E+00 0. -1.
         -2   -1    0    0    0  501 -0.00000000000E+00 -0.00000000000E+00 -0.59667767874E+03  0.59667767874E+03  0.00000000000E+00 0.  1.
         23    2    1    2    0    0  0.80360844868E+02 -0.53526530939E+02 -0.30253097369E+03  0.34132386254E+03  0.12511608287E+03 0.  0.
          5    1    3    3  502    0  0.12973335479E+02 -0.23652411999E+01 -0.22812645781E+03  0.22855562245E+03  0.47000000000E+01 0.  1.
         -5    1    3    3    0  502  0.67387509389E+02 -0.51161289739E+02 -0.74404515880E+02  0.11276824009E+03  0.47000000000E+01 0.  1.
        -11    1    1    2    0    0 -0.34175037710E+02  0.60284466093E+02 -0.21911780526E+03  0.22981462668E+03  0.00000000000E+00 0.  1.
         11    1    1    2    0    0 -0.46185807159E+02 -0.67579351540E+01 -0.39451590323E+02  0.61116498995E+02  0.00000000000E+00 0. -1.
<mgrwt>
<rscale>  0 0.15147031E+03</rscale>
<asrwt>0</asrwt>
<pdfrwt beam="1">  1        2 0.54734326E-02 0.15804110E+03</pdfrwt>
<pdfrwt beam="2">  1       -2 0.91796559E-01 0.15804110E+03</pdfrwt>
<totfact> 0.14196987E+03</totfact>
</mgrwt>
</event>
<event>
 7    1  0.4230786E-006  0.1296734E+03  0.7546771E-02  0.1241705E+00
         -1   -1    0    0    0  501 -0.00000000000E+00  0.00000000000E+00  0.32400714623E+02  0.32400714623E+02  0.00000000000E+00 0.  1.
          1   -1    0    0  501    0  0.00000000000E+00 -0.00000000000E+00 -0.41040725123E+03  0.41040725123E+03  0.00000000000E+00 0. -1.
         23    2    1    2    0    0  0.66809160591E+01 -0.34082326480E+02 -0.17867987101E+03  0.22077518485E+03  0.12493576878E+03 0.  0.
          5    1    3    3  502    0  0.20266097422E+02 -0.71772877306E+02 -0.61286955330E+02  0.96644924932E+02  0.47000000000E+01 0. -1.
         -5    1    3    3    0  502 -0.13585181363E+02  0.37690550826E+02 -0.11739291568E+03  0.12413025991E+03  0.47000000000E+01 0. -1.
        -11    1    1    2    0    0 -0.26112327284E+02  0.55652365435E+02 -0.16997006548E+03  0.18074529752E+03  0.00000000000E+00 0.  1.
         11    1    1    2    0    0  0.19431411225E+02 -0.21570038955E+02 -0.29356600118E+02  0.41287483492E+02  0.00000000000E+00 0. -1.
<mgrwt>
<rscale>  0 0.12084747E+03</rscale>
<asrwt>0</asrwt>
<pdfrwt beam="2">  1        1 0.63139575E-01 0.12967338E+03</pdfrwt>
<pdfrwt beam="1">  1       -1 0.49847255E-02 0.12967338E+03</pdfrwt>
<totfact> 0.98083855E+03</totfact>
</mgrwt>
</event>
<event>
 7    1  0.4230786E-006  0.1482961E+03  0.7546771E-02  0.1211749E+00
         -2   -1    0    0    0  501 -0.00000000000E+00  0.00000000000E+00  0.35474078275E+03  0.35474078275E+03  0.00000000000E+00 0. -1.
          2   -1    0    0  501    0  0.00000000000E+00 -0.00000000000E+00 -0.60680286546E+02  0.60680286546E+02  0.00000000000E+00 0.  1.
         23    2    1    2    0    0 -0.43822281039E+02  0.66688983260E+02  0.24005749916E+03  0.28216896332E+03  0.12499563254E+03 0.  0.
          5    1    3    3  502    0 -0.58797889316E+02 -0.16111547393E+02  0.12897804315E+03  0.14273821970E+03  0.47000000000E+01 0.  1.
         -5    1    3    3    0  502  0.14975608276E+02  0.82800530653E+02  0.11107945600E+03  0.13943074362E+03  0.47000000000E+01 0.  1.
        -11    1    1    2    0    0  0.48739396864E+02 -0.37576093977E+01  0.50116534342E+02  0.70009395438E+02  0.00000000000E+00 0.  1.
         11    1    1    2    0    0 -0.49171158250E+01 -0.62931373862E+02  0.38864627043E+01  0.63242710541E+02  0.00000000000E+00 0. -1.
<mgrwt>
<rscale>  0 0.14118082E+03</rscale>
<asrwt>0</asrwt>
<pdfrwt beam="2">  1        2 0.93354289E-02 0.14829606E+03</pdfrwt>
<pdfrwt beam="1">  1       -2 0.54575504E-01 0.14829606E+03</pdfrwt>
<totfact> 0.21775205E+03</totfact>
</mgrwt>
</event>
<event>
 7    1  0.4230786E-006  0.1294854E+03  0.7546771E-02  0.1242842E+00
         -1   -1    0    0    0  501 -0.00000000000E+00  0.00000000000E+00  0.20821640759E+02  0.20821640759E+02  0.00000000000E+00 0.  1.
          1   -1    0    0  501    0  0.00000000000E+00 -0.00000000000E+00 -0.61431554466E+03  0.61431554466E+03  0.00000000000E+00 0. -1.
         23    2    1    2    0    0 -0.28919495914E+02  0.17471092019E+02 -0.36529255646E+03  0.38756306843E+03  0.12499961562E+03 0.  0.
          5    1    3    3  502    0 -0.25686293923E+02 -0.51281348920E+02 -0.12590889270E+03  0.13843663426E+03  0.47000000000E+01 0. -1.
         -5    1    3    3    0  502 -0.32332019913E+01  0.68752440939E+02 -0.23938366376E+03  0.24912643417E+03  0.47000000000E+01 0. -1.
        -11    1    1    2    0    0  0.13725615783E+02  0.35767212493E+02 -0.12100743420E+03  0.12692708596E+03  0.00000000000E+00 0.  1.
         11    1    1    2    0    0  0.15193880131E+02 -0.53238304511E+02 -0.10719391324E+03  0.12064703103E+03  0.00000000000E+00 0. -1.
<mgrwt>
<rscale>  0 0.12015447E+03</rscale>
<asrwt>0</asrwt>
<pdfrwt beam="2">  1        1 0.94510083E-01 0.12948544E+03</pdfrwt>
<pdfrwt beam="1">  1       -1 0.32033294E-02 0.12948544E+03</pdfrwt>
<totfact> 0.11072683E+04</totfact>
</mgrwt>
</event>
<event>
 7    1  0.5663785E-006  0.1573149E+03  0.7546771E-02  0.1198576E+00
          1   -1    0    0  501    0  0.00000000000E+00  0.00000000000E+00  0.54470233530E+02  0.54470233530E+02  0.00000000000E+00 0. -1.
         -1   -1    0    0    0  501 -0.00000000000E+00 -0.00000000000E+00 -0.40444462974E+03  0.40444462974E+03  0.00000000000E+00 0.  1.
         23    2    1    2    0    0 -0.41911928424E+02 -0.85828305302E+02 -0.22524799573E+03  0.27474464823E+03  0.12499941764E+03 0.  0.
          5    1    3    3  502    0 -0.54770435026E+02 -0.42761051993E+02 -0.21815284243E+03  0.22900013271E+03  0.47000000000E+01 0.  1.
         -5    1    3    3    0  502  0.12858506601E+02 -0.43067253309E+02 -0.70951533072E+01  0.45744515519E+02  0.47000000000E+01 0.  1.
        -11    1    1    2    0    0 -0.13217878242E+02  0.58545004154E+02 -0.10247526253E+03  0.11875777552E+03  0.00000000000E+00 0.  1.
         11    1    1    2    0    0  0.55129806667E+02  0.27283301148E+02 -0.22251137951E+02  0.65412439526E+02  0.00000000000E+00 0. -1.
<mgrwt>
<rscale>  0 0.15155395E+03</rscale>
<asrwt>0</asrwt>
<pdfrwt beam="1">  1        1 0.83800361E-02 0.15731485E+03</pdfrwt>
<pdfrwt beam="2">  1       -1 0.62222250E-01 0.15731485E+03</pdfrwt>
<totfact> 0.21585373E+03</totfact>
</mgrwt>
</event>
<event>
 7    1  0.4230786E-006  0.1277904E+03  0.7546771E-02  0.1244864E+00
         -2   -1    0    0    0  501 -0.00000000000E+00  0.00000000000E+00  0.13283813728E+02  0.13283813728E+02  0.00000000000E+00 0.  1.
          2   -1    0    0  501    0  0.00000000000E+00 -0.00000000000E+00 -0.96624013807E+03  0.96624013807E+03  0.00000000000E+00 0. -1.
         23    2    1    2    0    0  0.23901687925E+02 -0.11538337205E+02 -0.46523434977E+03  0.48246595660E+03  0.12500390057E+03 0.  0.
          5    1    3    3  502    0  0.11683327124E+02 -0.32189091725E+02 -0.45441642045E+03  0.45572909819E+03  0.47000000000E+01 0.  1.
         -5    1    3    3    0  502  0.12218360801E+02  0.20650754520E+02 -0.10817929319E+02  0.26736858411E+02  0.47000000000E+01 0.  1.
        -11    1    1    2    0    0  0.29140456905E+02  0.27345203346E+02 -0.17811624498E+03  0.18254403058E+03  0.00000000000E+00 0.  1.
         11    1    1    2    0    0 -0.53042144830E+02 -0.15806866141E+02 -0.30960572959E+03  0.31451396462E+03  0.00000000000E+00 0. -1.
<mgrwt>
<rscale>  0 0.11893548E+03</rscale>
<asrwt>0</asrwt>
<pdfrwt beam="2">  1        2 0.14865231E+00 0.12779045E+03</pdfrwt>
<pdfrwt beam="1">  1       -2 0.20436639E-02 0.12779045E+03</pdfrwt>
<totfact> 0.19580660E+04</totfact>
</mgrwt>
</event>
<event>
 7    1  0.4230786E-006  0.1899814E+03  0.7546771E-02  0.1163428E+00
         -1   -1    0    0    0  501 -0.00000000000E+00  0.00000000000E+00  0.11785022404E+03  0.11785022404E+03  0.00000000000E+00 0.  1.
          1   -1    0    0  501    0  0.00000000000E+00 -0.00000000000E+00 -0.42674811597E+03  0.42674811597E+03  0.00000000000E+00 0. -1.
         23    2    1    2    0    0  0.65791811316E+01  0.14291737403E+03  0.26540039065E+01  0.18999989081E+03  0.12499701335E+03 0.  0.
          5    1    3    3  502    0  0.35019401389E+02  0.26570623072E+01 -0.26025805229E+02  0.43964201250E+02  0.47000000000E+01 0. -1.
         -5    1    3    3    0  502 -0.28440220257E+02  0.14026031172E+03  0.28679809136E+02  0.14603568956E+03  0.47000000000E+01 0. -1.
        -11    1    1    2    0    0  0.26267638552E+02 -0.13220120810E+03 -0.24869361478E+03  0.28287039840E+03  0.00000000000E+00 0.  1.
         11    1    1    2    0    0 -0.32846819683E+02 -0.10716165930E+02 -0.62858281049E+02  0.71728050803E+02  0.00000000000E+00 0. -1.
<mgrwt>
<rscale>  0 0.18459591E+03</rscale>
<asrwt>0</asrwt>
<pdfrwt beam="2">  1        1 0.65653558E-01 0.18998135E+03</pdfrwt>
<pdfrwt beam="1">  1       -1 0.18130803E-01 0.18998135E+03</pdfrwt>
<totfact> 0.13126393E+03</totfact>
</mgrwt>
</event>
<event>
 7    1  0.4230786E-006  0.1360769E+03  0.7546771E-02  0.1230662E+00
         -1   -1    0    0    0  501 -0.00000000000E+00  0.00000000000E+00  0.51151919873E+02  0.51151919873E+02  0.00000000000E+00 0.  1.
          1   -1    0    0  501    0  0.00000000000E+00 -0.00000000000E+00 -0.33418948415E+03  0.33418948415E+03  0.00000000000E+00 0. -1.
         23    2    1    2    0    0  0.34821507062E+02 -0.42454311714E+02 -0.84319053559E+02  0.16008315848E+03  0.12450706365E+03 0.  0.
          5    1    3    3  502    0  0.18141688296E+00 -0.60319623665E+02 -0.10075360637E+03  0.11752390866E+03  0.47000000000E+01 0.  1.
         -5    1    3    3    0  502  0.34640090179E+02  0.17865311951E+02  0.16434552810E+02  0.42559249815E+02  0.47000000000E+01 0.  1.
        -11    1    1    2    0    0  0.30316813570E+02  0.13349152960E+02 -0.45889741398E+02  0.56596620353E+02  0.00000000000E+00 0.  1.
         11    1    1    2    0    0 -0.65138320632E+02  0.29105158753E+02 -0.15282876932E+03  0.16866162520E+03  0.00000000000E+00 0. -1.
<mgrwt>
<rscale>  0 0.12786246E+03</rscale>
<asrwt>0</asrwt>
<pdfrwt beam="2">  1        1 0.51413766E-01 0.13607687E+03</pdfrwt>
<pdfrwt beam="1">  1       -1 0.78695263E-02 0.13607687E+03</pdfrwt>
<totfact> 0.64402055E+03</totfact>
</mgrwt>
</event>
<event>
 7    1  0.4230786E-006  0.1610212E+03  0.7546771E-02  0.1195121E+00
          2   -1    0    0  501    0  0.00000000000E+00  0.00000000000E+00  0.35114517161E+03  0.35114517161E+03  0.00000000000E+00 0. -1.
         -2   -1    0    0    0  501 -0.00000000000E+00 -0.00000000000E+00 -0.63347186381E+02  0.63347186381E+02  0.00000000000E+00 0.  1.
         23    2    1    2    0    0  0.42804897208E+02 -0.92055804375E+02  0.13889818063E+03  0.21265118000E+03  0.12498515683E+03 0.  0.
          5    1    3    3  502    0 -0.16410889667E+00 -0.78639826938E+02  0.14689874857E+03  0.16669007662E+03  0.47000000000E+01 0.  1.
         -5    1    3    3    0  502  0.42969006104E+02 -0.13415977437E+02 -0.80005679372E+01  0.45961103376E+02  0.47000000000E+01 0.  1.
        -11    1    1    2    0    0 -0.31072399849E+02  0.96261286042E+02  0.15715326708E+03  0.18689269268E+03  0.00000000000E+00 0. -1.
         11    1    1    2    0    0 -0.11732497359E+02 -0.42054816663E+01 -0.82534624817E+01  0.14948485317E+02  0.00000000000E+00 0.  1.
<mgrwt>
<rscale>  0 0.15444006E+03</rscale>
<asrwt>0</asrwt>
<pdfrwt beam="1">  1        2 0.54022333E-01 0.16102118E+03</pdfrwt>
<pdfrwt beam="2">  1       -2 0.97457211E-02 0.16102118E+03</pdfrwt>
<totfact> 0.61535018E+03</totfact>
</mgrwt>
</event>
<event>
 7    1  0.4230786E-006  0.1813848E+03  0.7546771E-02  0.1172868E+00
         -3   -1    0    0    0  501 -0.00000000000E+00  0.00000000000E+00  0.48542051223E+02  0.48542051223E+02  0.00000000000E+00 0.  1.
          3   -1    0    0  501    0  0.00000000000E+00 -0.00000000000E+00 -0.59340000050E+03  0.59340000050E+03  0.00000000000E+00 0. -1.
         23    2    1    2    0    0 -0.10413085974E+03  0.80256575811E+02 -0.32102671525E+03  0.36872565657E+03  0.12496441091E+03 0.  0.
          5    1    3    3  502    0  0.11840118099E+02  0.49846222023E+02 -0.47426321562E+02  0.69972710563E+02  0.47000000000E+01 0. -1.
         -5    1    3    3    0  502 -0.11597097784E+03  0.30410353788E+02 -0.27360039369E+03  0.29875294601E+03  0.47000000000E+01 0. -1.
        -11    1    1    2    0    0  0.54030290598E+01  0.96314158595E+01 -0.64039441493E+02  0.64984667124E+02  0.00000000000E+00 0. -1.
         11    1    1    2    0    0  0.98727830684E+02 -0.89887991670E+02 -0.15979179253E+03  0.20823172803E+03  0.00000000000E+00 0.  1.
<mgrwt>
<rscale>  0 0.17486385E+03</rscale>
<asrwt>0</asrwt>
<pdfrwt beam="2">  1        3 0.91292309E-01 0.18138483E+03</pdfrwt>
<pdfrwt beam="1">  1       -3 0.74680078E-02 0.18138483E+03</pdfrwt>
<totfact> 0.32134601E+02</totfact>
</mgrwt>
</event>
<event>
 7    1  0.4230786E-006  0.1486146E+03  0.7546771E-02  0.1211544E+00
         -2   -1    0    0    0  501 -0.00000000000E+00  0.00000000000E+00  0.32332811473E+02  0.32332811473E+02  0.00000000000E+00 0.  1.
          2   -1    0    0  501    0  0.00000000000E+00 -0.00000000000E+00 -0.56846211855E+03  0.56846211855E+03  0.00000000000E+00 0. -1.
         23    2    1    2    0    0 -0.15852912833E+02  0.78803638989E+02 -0.31991205399E+03  0.35274639761E+03  0.12499988151E+03 0.  0.
          5    1    3    3  502    0  0.34436504709E+02 -0.59312258102E+01 -0.29284809087E+02  0.45833855821E+02  0.47000000000E+01 0. -1.
         -5    1    3    3    0  502 -0.50289417542E+02  0.84734864799E+02 -0.29062724490E+03  0.30691254179E+03  0.47000000000E+01 0. -1.
        -11    1    1    2    0    0 -0.94272687401E+00 -0.50581155179E+02 -0.29703754082E+02  0.58665620254E+02  0.00000000000E+00 0.  1.
         11    1    1    2    0    0  0.16795639707E+02 -0.28222483810E+02 -0.18651349901E+03  0.18938291216E+03  0.00000000000E+00 0. -1.
<mgrwt>
<rscale>  0 0.14133467E+03</rscale>
<asrwt>0</asrwt>
<pdfrwt beam="2">  1        2 0.87455704E-01 0.14861460E+03</pdfrwt>
<pdfrwt beam="1">  1       -2 0.49742790E-02 0.14861460E+03</pdfrwt>
<totfact> 0.10178163E+04</totfact>
</mgrwt>
</event>
<event>
 7    1  0.4230786E-006  0.1487804E+03  0.7546771E-02  0.1211355E+00
          2   -1    0    0  501    0  0.00000000000E+00  0.00000000000E+00  0.54855121259E+02  0.54855121259E+02  0.00000000000E+00 0. -1.
         -2   -1    0    0    0  501 -0.00000000000E+00 -0.00000000000E+00 -0.46334376846E+03  0.46334376846E+03  0.00000000000E+00 0.  1.
         23    2    1    2    0    0  0.26876580354E+02  0.76058421908E+02 -0.35575202820E+03  0.38561004760E+03  0.12501347576E+03 0.  0.
          5    1    3    3  502    0 -0.30720488119E+01  0.38651880352E+02 -0.15584700458E+02  0.42052089449E+02  0.47000000000E+01 0.  1.
         -5    1    3    3    0  502  0.29948629166E+02  0.37406541556E+02 -0.34016732775E+03  0.34355795815E+03  0.47000000000E+01 0.  1.
        -11    1    1    2    0    0 -0.43797175651E+02 -0.61970636061E+02 -0.71046584292E+02  0.10395272708E+03  0.00000000000E+00 0.  1.
         11    1    1    2    0    0  0.16920595297E+02 -0.14087785848E+02  0.18309965297E+02  0.28636115038E+02  0.00000000000E+00 0. -1.
<mgrwt>
<rscale>  0 0.14147738E+03</rscale>
<asrwt>0</asrwt>
<pdfrwt beam="1">  1        2 0.84392497E-02 0.14878039E+03</pdfrwt>
<pdfrwt beam="2">  1       -2 0.71283654E-01 0.14878039E+03</pdfrwt>
<totfact> 0.14188394E+03</totfact>
</mgrwt>
</event>
<event>
 7    1  0.4230786E-006  0.1380045E+03  0.7546771E-02  0.1228409E+00
         -2   -1    0    0    0  501 -0.00000000000E+00  0.00000000000E+00  0.16613127437E+03  0.16613127437E+03  0.00000000000E+00 0.  1.
          2   -1    0    0  501    0  0.00000000000E+00 -0.00000000000E+00 -0.89999882179E+02  0.89999882179E+02  0.00000000000E+00 0. -1.
         23    2    1    2    0    0 -0.27193675408E+02 -0.51800325530E+02  0.44103980407E+02  0.14488065339E+03  0.12498989132E+03 0.  0.
          5    1    3    3  502    0 -0.36990489493E+02 -0.84439471243E+02  0.56604340796E+02  0.10827955492E+03  0.47000000000E+01 0.  1.
         -5    1    3    3    0  502  0.97968140853E+01  0.32639145713E+02 -0.12500360389E+02  0.36601098467E+02  0.47000000000E+01 0.  1.
        -11    1    1    2    0    0 -0.92620289260E+01  0.10672411190E+02  0.51144886599E+02  0.53061143652E+02  0.00000000000E+00 0.  1.
         11    1    1    2    0    0  0.36455704334E+02  0.41127914339E+02 -0.19117474819E+02  0.58189359507E+02  0.00000000000E+00 0. -1.
<mgrwt>
<rscale>  0 0.12935965E+03</rscale>
<asrwt>0</asrwt>
<pdfrwt beam="2">  1        2 0.13846136E-01 0.13800450E+03</pdfrwt>
<pdfrwt beam="1">  1       -2 0.25558657E-01 0.13800450E+03</pdfrwt>
<totfact> 0.55791110E+03</totfact>
</mgrwt>
</event>
<event>
 7    1  0.4230786E-006  0.1705513E+03  0.7546771E-02  0.1190426E+00
         -2   -1    0    0    0  501 -0.00000000000E+00  0.00000000000E+00  0.56517714064E+02  0.56517714064E+02  0.00000000000E+00 0.  1.
          2   -1    0    0  501    0  0.00000000000E+00 -0.00000000000E+00 -0.39229815574E+03  0.39229815574E+03  0.00000000000E+00 0. -1.
         23    2    1    2    0    0 -0.46690580330E+02  0.10653157140E+03 -0.19823334035E+03  0.26150375631E+03  0.12473480405E+03 0.  0.
          5    1    3    3  502    0  0.33622775069E+02  0.69490500575E+02 -0.12300334017E+03  0.14529739284E+03  0.47000000000E+01 0. -1.
         -5    1    3    3    0  502 -0.80313355400E+02  0.37041070823E+02 -0.75230000177E+02  0.11620636347E+03  0.47000000000E+01 0. -1.
        -11    1    1    2    0    0  0.13696682205E+02 -0.14144814621E+02 -0.17228472476E+01  0.19764692933E+02  0.00000000000E+00 0.  1.
         11    1    1    2    0    0  0.32993898126E+02 -0.92386756776E+02 -0.13582425408E+03  0.16754742056E+03  0.00000000000E+00 0. -1.
<mgrwt>
<rscale>  0 0.15847792E+03</rscale>
<asrwt>0</asrwt>
<pdfrwt beam="2">  1        2 0.60353562E-01 0.17055133E+03</pdfrwt>
<pdfrwt beam="1">  1       -2 0.86950330E-02 0.17055133E+03</pdfrwt>
<totfact> 0.65557529E+03</totfact>
</mgrwt>
</event>
<event>
 7    1  0.4230786E-006  0.1376539E+03  0.7546771E-02  0.1226640E+00
         -2   -1    0    0    0  501 -0.00000000000E+00  0.00000000000E+00  0.14780023014E+03  0.14780023014E+03  0.00000000000E+00 0.  1.
          2   -1    0    0  501    0  0.00000000000E+00 -0.00000000000E+00 -0.12767347507E+03  0.12767347507E+03  0.00000000000E+00 0. -1.
         23    2    1    2    0    0  0.38788464340E+02  0.42645897379E+02  0.68852797211E+02  0.15391327013E+03  0.12500147802E+03 0.  0.
          5    1    3    3  502    0 -0.18307280575E+02 -0.32395333652E+02  0.40809239784E+02  0.55426511853E+02  0.47000000000E+01 0.  1.
         -5    1    3    3    0  502  0.57095744915E+02  0.75041231031E+02  0.28043557427E+02  0.98486758274E+02  0.47000000000E+01 0.  1.
        -11    1    1    2    0    0 -0.19053470120E+02 -0.55275905478E+02  0.90965640297E+01  0.59171005798E+02  0.00000000000E+00 0.  1.
         11    1    1    2    0    0 -0.19734994221E+02  0.12630008099E+02 -0.57822606177E+02  0.62389429286E+02  0.00000000000E+00 0. -1.
<mgrwt>
<rscale>  0 0.13055121E+03</rscale>
<asrwt>0</asrwt>
<pdfrwt beam="2">  1        2 0.19642073E-01 0.13765387E+03</pdfrwt>
<pdfrwt beam="1">  1       -2 0.22738497E-01 0.13765387E+03</pdfrwt>
<totfact> 0.45590261E+03</totfact>
</mgrwt>
</event>
<event>
 7    1  0.4230786E-006  0.1528906E+03  0.7546771E-02  0.1206627E+00
          2   -1    0    0  501    0  0.00000000000E+00  0.00000000000E+00  0.15547288162E+03  0.15547288162E+03  0.00000000000E+00 0. -1.
         -2   -1    0    0    0  501 -0.00000000000E+00 -0.00000000000E+00 -0.12361400748E+03  0.12361400748E+03  0.00000000000E+00 0.  1.
         23    2    1    2    0    0 -0.36011032178E+02  0.80337835573E+02  0.24484272578E+02  0.15483871749E+03  0.12499834626E+03 0.  0.
          5    1    3    3  502    0  0.97552844425E+01 -0.30735692887E+02  0.31950716376E+01  0.32743653959E+02  0.47000000000E+01 0. -1.
         -5    1    3    3    0  502 -0.45766316620E+02  0.11107352846E+03  0.21289200941E+02  0.12209506353E+03  0.47000000000E+01 0. -1.
        -11    1    1    2    0    0  0.33755445124E+02 -0.71308984686E+01 -0.26547627179E+02  0.43532244340E+02  0.00000000000E+00 0.  1.
         11    1    1    2    0    0  0.22555870540E+01 -0.73206937105E+02  0.33922228745E+02  0.80715927277E+02  0.00000000000E+00 0. -1.
<mgrwt>
<rscale>  0 0.14509973E+03</rscale>
<asrwt>0</asrwt>
<pdfrwt beam="1">  1        2 0.23918905E-01 0.15289064E+03</pdfrwt>
<pdfrwt beam="2">  1       -2 0.19017539E-01 0.15289064E+03</pdfrwt>
<totfact> 0.49871164E+03</totfact>
</mgrwt>
</event>
<event>
 7    1  0.4908727E-006  0.2030625E+03  0.7546771E-02  0.1150954E+00
          1   -1    0    0  501    0  0.00000000000E+00  0.00000000000E+00  0.22315316266E+02  0.22315316266E+02  0.00000000000E+00 0. -1.
         -1   -1    0    0    0  501 -0.00000000000E+00 -0.00000000000E+00 -0.18309587826E+04  0.18309587826E+04  0.00000000000E+00 0.  1.
         23    2    1    2    0    0 -0.14216367463E+03 -0.73481067463E+02 -0.11959272724E+04  0.12130442730E+04  0.12499755898E+03 0.  0.
          5    1    3    3  502    0 -0.11835351558E+03 -0.76969685173E+02 -0.11652099632E+04  0.11737411280E+04  0.47000000000E+01 0.  1.
         -5    1    3    3    0  502 -0.23810159049E+02  0.34886177108E+01 -0.30717309197E+02  0.39303145062E+02  0.47000000000E+01 0.  1.
        -11    1    1    2    0    0  0.51783647058E+02  0.59020318326E+02 -0.15848309365E+03  0.17686671550E+03  0.00000000000E+00 0. -1.
         11    1    1    2    0    0  0.90380027569E+02  0.14460749136E+02 -0.45423310024E+03  0.46336311032E+03  0.00000000000E+00 0.  1.
<mgrwt>
<rscale>  0 0.19856710E+03</rscale>
<asrwt>0</asrwt>
<pdfrwt beam="1">  1        1 0.34331246E-02 0.20306247E+03</pdfrwt>
<pdfrwt beam="2">  1       -1 0.28168605E+00 0.20306247E+03</pdfrwt>
<totfact> 0.14257496E+02</totfact>
</mgrwt>
</event>
<event>
 7    1  0.4230786E-006  0.1414165E+03  0.7546771E-02  0.1221156E+00
         -2   -1    0    0    0  501 -0.00000000000E+00  0.00000000000E+00  0.16265750716E+03  0.16265750716E+03  0.00000000000E+00 0.  1.
          2   -1    0    0  501    0  0.00000000000E+00 -0.00000000000E+00 -0.14129077569E+03  0.14129077569E+03  0.00000000000E+00 0. -1.
         23    2    1    2    0    0 -0.46262939187E+02  0.47274133026E+02  0.92133186176E+02  0.16878139304E+03  0.12499412564E+03 0.  0.
          5    1    3    3  502    0 -0.26714494682E+02  0.21265496198E+02 -0.27889994538E+02  0.44337651607E+02  0.47000000000E+01 0.  1.
         -5    1    3    3    0  502 -0.19548444505E+02  0.26008636828E+02  0.12002318071E+03  0.12444374143E+03  0.47000000000E+01 0.  1.
        -11    1    1    2    0    0  0.18383902794E+01 -0.34048739088E+02  0.15330283966E+02  0.37386012341E+02  0.00000000000E+00 0.  1.
         11    1    1    2    0    0  0.44424548907E+02 -0.13225393939E+02 -0.86096738674E+02  0.97780877479E+02  0.00000000000E+00 0. -1.
<mgrwt>
<rscale>  0 0.13433899E+03</rscale>
<asrwt>0</asrwt>
<pdfrwt beam="2">  1        2 0.21737042E-01 0.14141653E+03</pdfrwt>
<pdfrwt beam="1">  1       -2 0.25024232E-01 0.14141653E+03</pdfrwt>
<totfact> 0.34494237E+03</totfact>
</mgrwt>
</event>
<event>
 7    1  0.4230786E-006  0.1367176E+03  0.7546771E-02  0.1228446E+00
          2   -1    0    0  501    0  0.00000000000E+00  0.00000000000E+00  0.17572687669E+02  0.17572687669E+02  0.00000000000E+00 0. -1.
         -2   -1    0    0    0  501 -0.00000000000E+00 -0.00000000000E+00 -0.91964822988E+03  0.91964822988E+03  0.00000000000E+00 0.  1.
         23    2    1    2    0    0 -0.54305624533E+02  0.10993829047E+02 -0.61402552003E+03  0.62906202721E+03  0.12498691809E+03 0.  0.
          5    1    3    3  502    0  0.46288583753E+01  0.48566681660E+02 -0.41862549897E+03  0.42148493127E+03  0.47000000000E+01 0. -1.
         -5    1    3    3    0  502 -0.58934482909E+02 -0.37572852612E+02 -0.19540002106E+03  0.20757709594E+03  0.47000000000E+01 0. -1.
        -11    1    1    2    0    0 -0.63022137069E+01  0.32654807041E+02 -0.66400995313E+02  0.74264032337E+02  0.00000000000E+00 0. -1.
         11    1    1    2    0    0  0.60607838240E+02 -0.43648636088E+02 -0.22164902687E+03  0.23389485800E+03  0.00000000000E+00 0.  1.
<mgrwt>
<rscale>  0 0.12933513E+03</rscale>
<asrwt>0</asrwt>
<pdfrwt beam="1">  1        2 0.27034902E-02 0.13671757E+03</pdfrwt>
<pdfrwt beam="2">  1       -2 0.14148435E+00 0.13671757E+03</pdfrwt>
<totfact> 0.12841996E+03</totfact>
</mgrwt>
</event>
<event>
 6    1  0.4230786E-006  0.3025106E+03  0.7546771E-02  0.1100491E+00
         -2   -1    0    0    0  501 -0.00000000000E+00  0.00000000000E+00  0.25041935283E+03  0.25041935283E+03  0.00000000000E+00 0.  1.
          2   -1    0    0  501    0  0.00000000000E+00 -0.00000000000E+00 -0.35268447809E+03  0.35268447809E+03  0.00000000000E+00 0. -1.
          5    1    1    2  502    0 -0.29705684987E+02 -0.85741354059E+01 -0.80176336813E+02  0.86059737992E+02  0.47000000000E+01 0. -1.
         -5    1    1    2    0  502 -0.13536040614E+03 -0.51705191012E+02  0.18295902882E+03  0.23343513565E+03  0.47000000000E+01 0.  1.
        -11    1    1    2    0    0  0.12925473133E+03  0.64085543390E+02 -0.20093281884E+03  0.24736155750E+03  0.00000000000E+00 0. -1.
         11    1    1    2    0    0  0.35811359795E+02 -0.38062169727E+01 -0.41149984314E+01  0.36247399770E+02  0.00000000000E+00 0.  1.
<mgrwt>
<rscale>  0 0.27138258E+03</rscale>
<asrwt>0</asrwt>
<pdfrwt beam="2">  1        2 0.54259150E-01 0.30251065E+03</pdfrwt>
<pdfrwt beam="1">  1       -2 0.38526055E-01 0.30251065E+03</pdfrwt>
<totfact> 0.58909364E+02</totfact>
</mgrwt>
</event>
<event>
 7    1  0.4230786E-006  0.1478603E+03  0.7546771E-02  0.1212667E+00
          2   -1    0    0  501    0  0.00000000000E+00  0.00000000000E+00  0.11874213766E+03  0.11874213766E+03  0.00000000000E+00 0. -1.
         -2   -1    0    0    0  501 -0.00000000000E+00 -0.00000000000E+00 -0.17999267841E+03  0.17999267841E+03  0.00000000000E+00 0.  1.
         23    2    1    2    0    0  0.49112272350E+01 -0.78826084505E+02 -0.92265102079E+02  0.17428575841E+03  0.12500001909E+03 0.  0.
          5    1    3    3  502    0 -0.56873525831E+02 -0.51612198657E+02 -0.30855478338E+02  0.82900950140E+02  0.47000000000E+01 0.  1.
         -5    1    3    3    0  502  0.61784753066E+02 -0.27213885849E+02 -0.61409623741E+02  0.91384808270E+02  0.47000000000E+01 0.  1.
        -11    1    1    2    0    0 -0.44287757633E+02  0.19083463513E+02  0.19306801261E+02  0.51945515983E+02  0.00000000000E+00 0. -1.
         11    1    1    2    0    0  0.39376530398E+02  0.59742620992E+02  0.11707760067E+02  0.72503541672E+02  0.00000000000E+00 0.  1.
<mgrwt>
<rscale>  0 0.14049334E+03</rscale>
<asrwt>0</asrwt>
<pdfrwt beam="1">  1        2 0.18268021E-01 0.14786033E+03</pdfrwt>
<pdfrwt beam="2">  1       -2 0.27691181E-01 0.14786033E+03</pdfrwt>
<totfact> 0.35225352E+03</totfact>
</mgrwt>
</event>
<event>
 7    1  0.4230786E-006  0.1280324E+03  0.7546771E-02  0.1239955E+00
          2   -1    0    0  501    0  0.00000000000E+00  0.00000000000E+00  0.77064522833E+02  0.77064522833E+02  0.00000000000E+00 0. -1.
         -2   -1    0    0    0  501 -0.00000000000E+00 -0.00000000000E+00 -0.18514976870E+03  0.18514976870E+03  0.00000000000E+00 0.  1.
         23    2    1    2    0    0 -0.27464624009E+02  0.36687286275E+01 -0.87092545468E+02  0.15484642005E+03  0.12499814873E+03 0.  0.
          5    1    3    3  502    0 -0.54563870691E+02 -0.42464131310E+02 -0.69954563990E+02  0.98469027901E+02  0.47000000000E+01 0.  1.
         -5    1    3    3    0  502  0.27099246682E+02  0.46132859938E+02 -0.17137981478E+02  0.56377392152E+02  0.47000000000E+01 0.  1.
        -11    1    1    2    0    0 -0.37965047143E+02  0.52549656100E+01 -0.14638846175E+02  0.41027494262E+02  0.00000000000E+00 0.  1.
         11    1    1    2    0    0  0.65429671152E+02 -0.89236942375E+01 -0.63538542256E+01  0.66340377218E+02  0.00000000000E+00 0. -1.
<mgrwt>
<rscale>  0 0.12192494E+03</rscale>
<asrwt>0</asrwt>
<pdfrwt beam="1">  1        2 0.11856080E-01 0.12803243E+03</pdfrwt>
<pdfrwt beam="2">  1       -2 0.28484580E-01 0.12803243E+03</pdfrwt>
<totfact> 0.55137731E+03</totfact>
</mgrwt>
</event>
<event>
 7    1  0.4230786E-006  0.1337002E+03  0.7546771E-02  0.1234732E+00
          2   -1    0    0  501    0  0.00000000000E+00  0.00000000000E+00  0.17868287162E+03  0.17868287162E+03  0.00000000000E+00 0. -1.
         -2   -1    0    0    0  501 -0.00000000000E+00 -0.00000000000E+00 -0.81024017533E+02  0.81024017533E+02  0.00000000000E+00 0.  1.
         23    2    1    2    0    0  0.43142883060E+02  0.19708748221E+02  0.31348162677E+02  0.13732604148E+03  0.12500396494E+03 0.  0.
          5    1    3    3  502    0  0.19336142188E+02  0.23320161636E+01  0.78778554603E+02  0.81286378684E+02  0.47000000000E+01 0.  1.
         -5    1    3    3    0  502  0.23806740872E+02  0.17376732058E+02 -0.47430391926E+02  0.56039662795E+02  0.47000000000E+01 0.  1.
        -11    1    1    2    0    0 -0.60705772921E+02 -0.16469325202E+02  0.10484970221E+02  0.63768049516E+02  0.00000000000E+00 0.  1.
         11    1    1    2    0    0  0.17562889860E+02 -0.32394230191E+01  0.55825721193E+02  0.58612798163E+02  0.00000000000E+00 0. -1.
<mgrwt>
<rscale>  0 0.12521590E+03</rscale>
<asrwt>0</asrwt>
<pdfrwt beam="1">  1        2 0.27489673E-01 0.13370017E+03</pdfrwt>
<pdfrwt beam="2">  1       -2 0.12465233E-01 0.13370017E+03</pdfrwt>
<totfact> 0.84822705E+03</totfact>
</mgrwt>
</event>
<event>
 7    1  0.4230786E-006  0.1582321E+03  0.7546771E-02  0.1199184E+00
         -2   -1    0    0    0  501 -0.00000000000E+00  0.00000000000E+00  0.82045977364E+02  0.82045977364E+02  0.00000000000E+00 0.  1.
          2   -1    0    0  501    0  0.00000000000E+00 -0.00000000000E+00 -0.25618297843E+03  0.25618297843E+03  0.00000000000E+00 0. -1.
         23    2    1    2    0    0  0.80597132690E+02 -0.53994051043E+02 -0.87328317535E+02  0.18073080650E+03  0.12500453604E+03 0.  0.
          5    1    3    3  502    0  0.18257903640E+02  0.28548902537E+01  0.30358831347E+02  0.35850384718E+02  0.47000000000E+01 0. -1.
         -5    1    3    3    0  502  0.62339229049E+02 -0.56848941297E+02 -0.11768714888E+03  0.14488042179E+03  0.47000000000E+01 0. -1.
        -11    1    1    2    0    0 -0.67117815744E+02  0.32365689161E+02 -0.10313171026E+03  0.12723399187E+03  0.00000000000E+00 0. -1.
         11    1    1    2    0    0 -0.13479316946E+02  0.21628361883E+02  0.16323026728E+02  0.30264157425E+02  0.00000000000E+00 0.  1.
<mgrwt>
<rscale>  0 0.15105398E+03</rscale>
<asrwt>0</asrwt>
<pdfrwt beam="2">  1        2 0.39412766E-01 0.15823207E+03</pdfrwt>
<pdfrwt beam="1">  1       -2 0.12622458E-01 0.15823207E+03</pdfrwt>
<totfact> 0.57000219E+03</totfact>
</mgrwt>
</event>
<event>
 7    1  0.4230786E-006  0.1574618E+03  0.7546771E-02  0.1198912E+00
          4   -1    0    0  501    0  0.00000000000E+00  0.00000000000E+00  0.28404564823E+03  0.28404564823E+03  0.00000000000E+00 0.  1.
         -4   -1    0    0    0  501 -0.00000000000E+00 -0.00000000000E+00 -0.84456262343E+02  0.84456262343E+02  0.00000000000E+00 0. -1.
         23    2    1    2    0    0  0.91265546016E+02  0.28899344799E+02  0.44875583995E+02  0.16373156390E+03  0.12501853846E+03 0.  0.
          5    1    3    3  502    0  0.68243437306E+02  0.77437469022E+02  0.25439668999E+02  0.10640956302E+03  0.47000000000E+01 0. -1.
         -5    1    3    3    0  502  0.23022108710E+02 -0.48538124222E+02  0.19435914996E+02  0.57322000874E+02  0.47000000000E+01 0. -1.
        -11    1    1    2    0    0 -0.26503133043E+02 -0.36672740251E+02  0.10438857485E+02  0.46435715610E+02  0.00000000000E+00 0. -1.
         11    1    1    2    0    0 -0.64762412973E+02  0.77733954520E+01  0.14427494440E+03  0.15833463106E+03  0.00000000000E+00 0.  1.
<mgrwt>
<rscale>  0 0.15127735E+03</rscale>
<asrwt>0</asrwt>
<pdfrwt beam="1">  1        4 0.43699330E-01 0.15746176E+03</pdfrwt>
<pdfrwt beam="2">  1       -4 0.12993271E-01 0.15746176E+03</pdfrwt>
<totfact> 0.42172728E+02</totfact>
</mgrwt>
</event>
<event>
 7    1  0.4236755E-006  0.1493433E+03  0.7546771E-02  0.1203413E+00
         -1   -1    0    0    0  501 -0.00000000000E+00  0.00000000000E+00  0.19481916473E+02  0.19481916473E+02  0.00000000000E+00 0.  1.
          1   -1    0    0  501    0  0.00000000000E+00 -0.00000000000E+00 -0.11079315051E+04  0.11079315051E+04  0.00000000000E+00 0. -1.
         23    2    1    2    0    0 -0.54532723855E+02  0.60862214348E+02 -0.49302350808E+03  0.51514618799E+03  0.12500155351E+03 0.  0.
          5    1    3    3  502    0 -0.24391632203E+02 -0.37082855025E+02 -0.11232205662E+03  0.12086531455E+03  0.47000000000E+01 0. -1.
         -5    1    3    3    0  502 -0.30141091651E+02  0.97945069373E+02 -0.38070145146E+03  0.39428087344E+03  0.47000000000E+01 0. -1.
        -11    1    1    2    0    0  0.88322761892E+02 -0.34557716734E+02 -0.47698747458E+03  0.48632519672E+03  0.00000000000E+00 0.  1.
         11    1    1    2    0    0 -0.33790038037E+02 -0.26304497614E+02 -0.11843860597E+03  0.12594203686E+03  0.00000000000E+00 0. -1.
<mgrwt>
<rscale>  0 0.14763194E+03</rscale>
<asrwt>0</asrwt>
<pdfrwt beam="2">  1        1 0.17045098E+00 0.14934328E+03</pdfrwt>
<pdfrwt beam="1">  1       -1 0.29972183E-02 0.14934328E+03</pdfrwt>
<totfact> 0.49373511E+03</totfact>
</mgrwt>
</event>
<event>
 7    1  0.4230786E-006  0.1328569E+03  0.7546771E-02  0.1236065E+00
          1   -1    0    0  501    0  0.00000000000E+00  0.00000000000E+00  0.27854592817E+03  0.27854592817E+03  0.00000000000E+00 0.  1.
         -1   -1    0    0    0  501 -0.00000000000E+00 -0.00000000000E+00 -0.51808729658E+02  0.51808729658E+02  0.00000000000E+00 0. -1.
         23    2    1    2    0    0  0.35023248378E+02  0.28282545204E+02  0.93086872021E+02  0.16222247461E+03  0.12499774093E+03 0.  0.
          5    1    3    3  502    0  0.20920640384E+02 -0.14183557269E+02  0.11089328298E+03  0.11383433885E+03  0.47000000000E+01 0.  1.
         -5    1    3    3    0  502  0.14102607994E+02  0.42466102472E+02 -0.17806410961E+02  0.48388135764E+02  0.47000000000E+01 0.  1.
        -11    1    1    2    0    0 -0.65530311641E+02 -0.96053336925E+01  0.87843298258E+02  0.11001331387E+03  0.00000000000E+00 0. -1.
         11    1    1    2    0    0  0.30507063262E+02 -0.18677211511E+02  0.45807028233E+02  0.58118869347E+02  0.00000000000E+00 0.  1.
<mgrwt>
<rscale>  0 0.12436517E+03</rscale>
<asrwt>0</asrwt>
<pdfrwt beam="1">  1        1 0.42853219E-01 0.13285694E+03</pdfrwt>
<pdfrwt beam="2">  1       -1 0.79705740E-02 0.13285694E+03</pdfrwt>
<totfact> 0.79037698E+03</totfact>
</mgrwt>
</event>
<event>
 7    1  0.4230786E-006  0.1378770E+03  0.7546771E-02  0.1229402E+00
         -2   -1    0    0    0  501 -0.00000000000E+00  0.00000000000E+00  0.11850643327E+03  0.11850643327E+03  0.00000000000E+00 0.  1.
          2   -1    0    0  501    0  0.00000000000E+00 -0.00000000000E+00 -0.12464295149E+03  0.12464295149E+03  0.00000000000E+00 0. -1.
         23    2    1    2    0    0  0.37713189482E+02  0.44317017302E+02  0.44701053161E+01  0.13794941067E+03  0.12499510142E+03 0.  0.
          5    1    3    3  502    0 -0.38264976823E+02  0.29333757089E+02  0.29146475793E+02  0.56535694985E+02  0.47000000000E+01 0.  1.
         -5    1    3    3    0  502  0.75978166304E+02  0.14983260213E+02 -0.24676370477E+02  0.81413715684E+02  0.47000000000E+01 0.  1.
        -11    1    1    2    0    0 -0.23283655496E+02 -0.32302841401E+02 -0.48594331198E+02  0.62825243338E+02  0.00000000000E+00 0. -1.
         11    1    1    2    0    0 -0.14429533986E+02 -0.12014175901E+02  0.37987707662E+02  0.42374730760E+02  0.00000000000E+00 0.  1.
<mgrwt>
<rscale>  0 0.12869688E+03</rscale>
<asrwt>0</asrwt>
<pdfrwt beam="2">  1        2 0.19175839E-01 0.13787697E+03</pdfrwt>
<pdfrwt beam="1">  1       -2 0.18231759E-01 0.13787697E+03</pdfrwt>
<totfact> 0.68165683E+03</totfact>
</mgrwt>
</event>
<event>
 7    1  0.4230786E-006  0.1172292E+03  0.7546771E-02  0.1256304E+00
          2   -1    0    0  501    0  0.00000000000E+00  0.00000000000E+00  0.11088507120E+03  0.11088507120E+03  0.00000000000E+00 0. -1.
         -2   -1    0    0    0  501 -0.00000000000E+00 -0.00000000000E+00 -0.10557556087E+03  0.10557556087E+03  0.00000000000E+00 0.  1.
         23    2    1    2    0    0 -0.32902087603E+02 -0.94970120466E+01 -0.29609428131E+01  0.11726656847E+03  0.11211574507E+03 0.  0.
          5    1    3    3  502    0 -0.54564679932E+02 -0.47805813204E+02 -0.57178239353E+01  0.72921077767E+02  0.47000000000E+01 0. -1.
         -5    1    3    3    0  502  0.21662592330E+02  0.38308801157E+02  0.27568811222E+01  0.44345490707E+02  0.47000000000E+01 0.  1.
        -11    1    1    2    0    0 -0.41751392439E+01 -0.25716107348E+02  0.33285625531E+02  0.42269171175E+02  0.00000000000E+00 0. -1.
         11    1    1    2    0    0  0.37077226847E+02  0.35213119394E+02 -0.25015172388E+02  0.56924892426E+02  0.00000000000E+00 0.  1.
<mgrwt>
<rscale>  0 0.11233615E+03</rscale>
<asrwt>0</asrwt>
<pdfrwt beam="1">  1        2 0.17059242E-01 0.11722918E+03</pdfrwt>
<pdfrwt beam="2">  1       -2 0.16242394E-01 0.11722918E+03</pdfrwt>
<totfact> 0.93169835E+03</totfact>
</mgrwt>
</event>
<event>
 7    1  0.4230786E-006  0.1586902E+03  0.7546771E-02  0.1196912E+00
         -2   -1    0    0    0  501 -0.00000000000E+00  0.00000000000E+00  0.29997899738E+02  0.29997899738E+02  0.00000000000E+00 0.  1.
          2   -1    0    0  501    0  0.00000000000E+00 -0.00000000000E+00 -0.76358017376E+03  0.76358017376E+03  0.00000000000E+00 0. -1.
         23    2    1    2    0    0 -0.96009239820E+02  0.18406165072E+02 -0.30730031875E+03  0.34585556876E+03  0.12500410991E+03 0.  0.
          5    1    3    3  502    0 -0.24208674470E+02 -0.52280018931E+02 -0.10933065476E+03  0.12367110564E+03  0.47000000000E+01 0.  1.
         -5    1    3    3    0  502 -0.71800565349E+02  0.70686184003E+02 -0.19796966399E+03  0.22218446312E+03  0.47000000000E+01 0.  1.
        -11    1    1    2    0    0  0.70312910160E+02 -0.54882850259E+02 -0.23637631705E+03  0.25264559337E+03  0.00000000000E+00 0. -1.
         11    1    1    2    0    0  0.25696329660E+02  0.36476685187E+02 -0.18990563822E+03  0.19507691137E+03  0.00000000000E+00 0.  1.
<mgrwt>
<rscale>  0 0.15293480E+03</rscale>
<asrwt>0</asrwt>
<pdfrwt beam="2">  1        2 0.11747387E+00 0.15869023E+03</pdfrwt>
<pdfrwt beam="1">  1       -2 0.46150616E-02 0.15869023E+03</pdfrwt>
<totfact> 0.80874392E+03</totfact>
</mgrwt>
</event>
<event>
 7    1  0.4230786E-006  0.1369906E+03  0.7546771E-02  0.1229149E+00
         -2   -1    0    0    0  501 -0.00000000000E+00  0.00000000000E+00  0.20454390222E+03  0.20454390222E+03  0.00000000000E+00 0. -1.
          2   -1    0    0  501    0  0.00000000000E+00 -0.00000000000E+00 -0.73099322845E+02  0.73099322845E+02  0.00000000000E+00 0.  1.
         23    2    1    2    0    0  0.21867248639E+02 -0.51593260867E+02  0.80505327964E+02  0.15889472614E+03  0.12500554001E+03 0.  0.
          5    1    3    3  502    0 -0.48777194931E+02 -0.19169308541E+02  0.94177078384E+01  0.53455218232E+02  0.47000000000E+01 0. -1.
         -5    1    3    3    0  502  0.70644443571E+02 -0.32423952326E+02  0.71087620126E+02  0.10543950790E+03  0.47000000000E+01 0. -1.
        -11    1    1    2    0    0 -0.50537131226E+02  0.29777857047E+02  0.29370931032E+01  0.58731157989E+02  0.00000000000E+00 0.  1.
         11    1    1    2    0    0  0.28669882586E+02  0.21815403821E+02  0.48002158311E+02  0.60017340943E+02  0.00000000000E+00 0. -1.
<mgrwt>
<rscale>  0 0.12886516E+03</rscale>
<asrwt>0</asrwt>
<pdfrwt beam="2">  1        2 0.11246050E-01 0.13699061E+03</pdfrwt>
<pdfrwt beam="1">  1       -2 0.31468292E-01 0.13699061E+03</pdfrwt>
<totfact> 0.49370583E+03</totfact>
</mgrwt>
</event>
<event>
 7    1  0.4230786E-006  0.1340122E+03  0.7546771E-02  0.1233523E+00
         -2   -1    0    0    0  501 -0.00000000000E+00  0.00000000000E+00  0.75234166306E+02  0.75234166306E+02  0.00000000000E+00 0.  1.
          2   -1    0    0  501    0  0.00000000000E+00 -0.00000000000E+00 -0.18936677122E+03  0.18936677122E+03  0.00000000000E+00 0. -1.
         23    2    1    2    0    0  0.48057446453E+02  0.49280111163E+01 -0.64608221771E+02  0.14877333544E+03  0.12500191824E+03 0.  0.
          5    1    3    3  502    0  0.16283604963E+02  0.55641306385E+02  0.31479207915E+01  0.58250409201E+02  0.47000000000E+01 0.  1.
         -5    1    3    3    0  502  0.31773841491E+02 -0.50713295268E+02 -0.67756142562E+02  0.90522926240E+02  0.47000000000E+01 0.  1.
        -11    1    1    2    0    0 -0.63227823678E+02 -0.96999780432E+01 -0.16314769140E+00  0.63967756551E+02  0.00000000000E+00 0.  1.
         11    1    1    2    0    0  0.15170377224E+02  0.47719669268E+01 -0.49361235454E+02  0.51859845536E+02  0.00000000000E+00 0. -1.
<mgrwt>
<rscale>  0 0.12599444E+03</rscale>
<asrwt>0</asrwt>
<pdfrwt beam="2">  1        2 0.29133349E-01 0.13401225E+03</pdfrwt>
<pdfrwt beam="1">  1       -2 0.11574487E-01 0.13401225E+03</pdfrwt>
<totfact> 0.89648024E+03</totfact>
</mgrwt>
</event>
<event>
 7    1  0.4230786E-006  0.1309811E+03  0.7546771E-02  0.1239096E+00
          2   -1    0    0  501    0  0.00000000000E+00  0.00000000000E+00  0.33890114924E+03  0.33890114924E+03  0.00000000000E+00 0. -1.
         -2   -1    0    0    0  501 -0.00000000000E+00 -0.00000000000E+00 -0.41160794806E+02  0.41160794806E+02  0.00000000000E+00 0.  1.
         23    2    1    2    0    0  0.17623980889E+02 -0.34941094638E+02  0.12876364506E+03  0.18367396592E+03  0.12499825868E+03 0.  0.
          5    1    3    3  502    0 -0.23862532609E+02  0.13162965054E+02 -0.11247857775E+02  0.29854453873E+02  0.47000000000E+01 0. -1.
         -5    1    3    3    0  502  0.41486513498E+02 -0.48104059692E+02  0.14001150284E+03  0.15381951205E+03  0.47000000000E+01 0. -1.
        -11    1    1    2    0    0 -0.20734500617E+02  0.63622236887E+02  0.14160697228E+03  0.15662133680E+03  0.00000000000E+00 0.  1.
         11    1    1    2    0    0  0.31105197281E+01 -0.28681142249E+02  0.27369737101E+02  0.39766641330E+02  0.00000000000E+00 0. -1.
<mgrwt>
<rscale>  0 0.12245836E+03</rscale>
<asrwt>0</asrwt>
<pdfrwt beam="1">  1        2 0.52138636E-01 0.13098110E+03</pdfrwt>
<pdfrwt beam="2">  1       -2 0.63324302E-02 0.13098110E+03</pdfrwt>
<totfact> 0.12269400E+04</totfact>
</mgrwt>
</event>
<event>
 7    1  0.4230786E-006  0.1376273E+03  0.7546771E-02  0.1228230E+00
         -2   -1    0    0    0  501 -0.00000000000E+00  0.00000000000E+00  0.27869229235E+03  0.27869229235E+03  0.00000000000E+00 0.  1.
          2   -1    0    0  501    0  0.00000000000E+00 -0.00000000000E+00 -0.12738502407E+03  0.12738502407E+03  0.00000000000E+00 0. -1.
         23    2    1    2    0    0 -0.24578070056E+02  0.52057667668E+02  0.23313286831E+03  0.27072531779E+03  0.12500872414E+03 0.  0.
          5    1    3    3  502    0  0.36757339890E+02 -0.15126231064E+02  0.11356221946E+03  0.12040918815E+03  0.47000000000E+01 0.  1.
         -5    1    3    3    0  502 -0.61335409946E+02  0.67183898731E+02  0.11957064886E+03  0.15031612964E+03  0.47000000000E+01 0.  1.
        -11    1    1    2    0    0 -0.15188344359E+02 -0.12338747544E+02 -0.76422706963E+02  0.78888279451E+02  0.00000000000E+00 0. -1.
         11    1    1    2    0    0  0.39766414415E+02 -0.39718920124E+02 -0.54028930715E+01  0.56463719190E+02  0.00000000000E+00 0.  1.
<mgrwt>
<rscale>  0 0.12947957E+03</rscale>
<asrwt>0</asrwt>
<pdfrwt beam="2">  1        2 0.19597696E-01 0.13762726E+03</pdfrwt>
<pdfrwt beam="1">  1       -2 0.42875737E-01 0.13762726E+03</pdfrwt>
<totfact> 0.14466113E+03</totfact>
</mgrwt>
</event>
<event>
 7    1  0.4230786E-006  0.1395085E+03  0.7546771E-02  0.1231123E+00
         -2   -1    0    0    0  501 -0.00000000000E+00  0.00000000000E+00  0.42561041679E+02  0.42561041679E+02  0.00000000000E+00 0.  1.
          2   -1    0    0  501    0  0.00000000000E+00 -0.00000000000E+00 -0.41836201139E+03  0.41836201139E+03  0.00000000000E+00 0. -1.
         23    2    1    2    0    0 -0.38780637307E+02 -0.48324005930E+02 -0.10955709970E+03  0.17738481207E+03  0.12499386417E+03 0.  0.
          5    1    3    3  502    0 -0.47122907695E+02 -0.84833935387E+02 -0.56884474849E+02  0.11258462818E+03  0.47000000000E+01 0.  1.
         -5    1    3    3    0  502  0.83422703873E+01  0.36509929456E+02 -0.52672624849E+02  0.64800183893E+02  0.47000000000E+01 0.  1.
        -11    1    1    2    0    0  0.57402507712E+02  0.42148430618E+02 -0.15499331925E+03  0.17057100312E+03  0.00000000000E+00 0.  1.
         11    1    1    2    0    0 -0.18621870404E+02  0.61755753123E+01 -0.11125055076E+03  0.11296723788E+03  0.00000000000E+00 0. -1.
<mgrwt>
<rscale>  0 0.12755937E+03</rscale>
<asrwt>0</asrwt>
<pdfrwt beam="2">  1        2 0.64363388E-01 0.13950847E+03</pdfrwt>
<pdfrwt beam="1">  1       -2 0.65478523E-02 0.13950847E+03</pdfrwt>
<totfact> 0.93590577E+03</totfact>
</mgrwt>
</event>
<event>
 7    1  0.4230786E-006  0.1843140E+03  0.7546771E-02  0.1169164E+00
         -2   -1    0    0    0  501 -0.00000000000E+00  0.00000000000E+00  0.85389086613E+03  0.85389086613E+03  0.00000000000E+00 0.  1.
          2   -1    0    0  501    0  0.00000000000E+00 -0.00000000000E+00 -0.36355484827E+02  0.36355484827E+02  0.00000000000E+00 0. -1.
         23    2    1    2    0    0  0.91546511708E+01 -0.13514008276E+03  0.51233176593E+03  0.54447725088E+03  0.12499995493E+03 0.  0.
          5    1    3    3  502    0 -0.13578312841E+02  0.21493766615E+02  0.65455935693E+02  0.70376999797E+02  0.47000000000E+01 0. -1.
         -5    1    3    3    0  502  0.22732964011E+02 -0.15663384938E+03  0.44687583024E+03  0.47410025108E+03  0.47000000000E+01 0. -1.
        -11    1    1    2    0    0  0.38895070948E+02  0.79032651039E+02  0.15178696933E+03  0.17549436040E+03  0.00000000000E+00 0.  1.
         11    1    1    2    0    0 -0.48049722119E+02  0.56107431722E+02  0.15341664604E+03  0.17027473968E+03  0.00000000000E+00 0. -1.
<mgrwt>
<rscale>  0 0.17860089E+03</rscale>
<asrwt>0</asrwt>
<pdfrwt beam="2">  1        2 0.55931522E-02 0.18431397E+03</pdfrwt>
<pdfrwt beam="1">  1       -2 0.13136781E+00 0.18431397E+03</pdfrwt>
<totfact> 0.59512245E+02</totfact>
</mgrwt>
</event>
<event>
 6    1  0.4230786E-006  0.3208408E+03  0.7546771E-02  0.1098660E+00
          1   -1    0    0  501    0  0.00000000000E+00  0.00000000000E+00  0.55032337851E+03  0.55032337851E+03  0.00000000000E+00 0. -1.
         -1   -1    0    0    0  501 -0.00000000000E+00 -0.00000000000E+00 -0.15316994559E+03  0.15316994559E+03  0.00000000000E+00 0.  1.
          5    1    1    2  502    0  0.12092464958E+03 -0.32808934110E+02 -0.39209047671E+02  0.13137212966E+03  0.47000000000E+01 0. -1.
         -5    1    1    2    0  502 -0.48313490450E+02  0.15989000599E+03  0.10135280401E+03  0.19543154365E+03  0.47000000000E+01 0.  1.
        -11    1    1    2    0    0  0.17290690915E+02 -0.16121988597E+02  0.90436882728E+02  0.93475752290E+02  0.00000000000E+00 0.  1.
         11    1    1    2    0    0 -0.89901850040E+02 -0.11095908328E+03  0.24457279386E+03  0.28321389850E+03  0.00000000000E+00 0. -1.
<mgrwt>
<rscale>  0 0.27462821E+03</rscale>
<asrwt>0</asrwt>
<pdfrwt beam="1">  1        1 0.84665134E-01 0.32084076E+03</pdfrwt>
<pdfrwt beam="2">  1       -1 0.23564607E-01 0.32084076E+03</pdfrwt>
<totfact> 0.61107466E+02</totfact>
</mgrwt>
</event>
<event>
 7    1  0.4230786E-006  0.1495978E+03  0.7546771E-02  0.1210071E+00
         -1   -1    0    0    0  501 -0.00000000000E+00  0.00000000000E+00  0.11267850824E+03  0.11267850824E+03  0.00000000000E+00 0.  1.
          1   -1    0    0  501    0  0.00000000000E+00 -0.00000000000E+00 -0.21917631891E+03  0.21917631891E+03  0.00000000000E+00 0. -1.
         23    2    1    2    0    0  0.55980855179E+02 -0.60172326329E+02  0.25149123242E+02  0.15169699303E+03  0.12499973716E+03 0.  0.
          5    1    3    3  502    0  0.11329508595E+01  0.28412052040E+02  0.36811320533E+02  0.46751380708E+02  0.47000000000E+01 0. -1.
         -5    1    3    3    0  502  0.54847904320E+02 -0.88584378369E+02 -0.11662197291E+02  0.10494561232E+03  0.47000000000E+01 0. -1.
        -11    1    1    2    0    0 -0.74299637851E+02  0.19269554891E+02 -0.69577240741E+02  0.10359895926E+03  0.00000000000E+00 0.  1.
         11    1    1    2    0    0  0.18318782672E+02  0.40902771438E+02 -0.62069693173E+02  0.76558874864E+02  0.00000000000E+00 0. -1.
<mgrwt>
<rscale>  0 0.14244892E+03</rscale>
<asrwt>0</asrwt>
<pdfrwt beam="2">  1        1 0.33719433E-01 0.14959779E+03</pdfrwt>
<pdfrwt beam="1">  1       -1 0.17335155E-01 0.14959779E+03</pdfrwt>
<totfact> 0.32255969E+03</totfact>
</mgrwt>
</event>
<event>
 7    1  0.4230786E-006  0.1255445E+03  0.7546771E-02  0.1249691E+00
          2   -1    0    0  501    0  0.00000000000E+00  0.00000000000E+00  0.53947747732E+03  0.53947747732E+03  0.00000000000E+00 0.  1.
         -2   -1    0    0    0  501 -0.00000000000E+00 -0.00000000000E+00 -0.25102337297E+02  0.25102337297E+02  0.00000000000E+00 0. -1.
         23    2    1    2    0    0 -0.11489749516E+02  0.22062518631E+01  0.19208005331E+03  0.22946930142E+03  0.12499812608E+03 0.  0.
          5    1    3    3  502    0 -0.54163784387E+02  0.34125170869E+02  0.14351461263E+03  0.15721570171E+03  0.47000000000E+01 0. -1.
         -5    1    3    3    0  502  0.42674034871E+02 -0.31918919006E+02  0.48565440674E+02  0.72253599707E+02  0.47000000000E+01 0. -1.
        -11    1    1    2    0    0 -0.15381787769E+02  0.35445529964E+02  0.85300329586E+02  0.93643639490E+02  0.00000000000E+00 0. -1.
         11    1    1    2    0    0  0.26871537285E+02 -0.37651781827E+02  0.23699475713E+03  0.24146687371E+03  0.00000000000E+00 0.  1.
<mgrwt>
<rscale>  0 0.11608978E+03</rscale>
<asrwt>0</asrwt>
<pdfrwt beam="1">  1        2 0.82996526E-01 0.12554447E+03</pdfrwt>
<pdfrwt beam="2">  1       -2 0.38618984E-02 0.12554447E+03</pdfrwt>
<totfact> 0.15552325E+04</totfact>
</mgrwt>
</event>
<event>
 7    1  0.4230786E-006  0.1575371E+03  0.7546771E-02  0.1199626E+00
          2   -1    0    0  501    0  0.00000000000E+00  0.00000000000E+00  0.26722595728E+03  0.26722595728E+03  0.00000000000E+00 0. -1.
         -2   -1    0    0    0  501 -0.00000000000E+00 -0.00000000000E+00 -0.10020343499E+03  0.10020343499E+03  0.00000000000E+00 0.  1.
         23    2    1    2    0    0  0.66779132481E+02  0.68795799719E+02  0.38004250221E+01  0.15758290777E+03  0.12500245996E+03 0.  0.
          5    1    3    3  502    0  0.41523316566E+02  0.66048506887E+02 -0.53508303287E+02  0.94719689619E+02  0.47000000000E+01 0.  1.
         -5    1    3    3    0  502  0.25255815914E+02  0.27472928311E+01  0.57308728310E+02  0.62863218147E+02  0.47000000000E+01 0.  1.
        -11    1    1    2    0    0 -0.43914679885E+02 -0.80803069149E+02  0.15899618496E+03  0.18367749433E+03  0.00000000000E+00 0. -1.
         11    1    1    2    0    0 -0.22864452596E+02  0.12007269431E+02  0.42259123024E+01  0.26168990169E+02  0.00000000000E+00 0.  1.
<mgrwt>
<rscale>  0 0.15069100E+03</rscale>
<asrwt>0</asrwt>
<pdfrwt beam="1">  1        2 0.41111685E-01 0.15753707E+03</pdfrwt>
<pdfrwt beam="2">  1       -2 0.15415913E-01 0.15753707E+03</pdfrwt>
<totfact> 0.39348512E+03</totfact>
</mgrwt>
</event>
<event>
 7    1  0.4230786E-006  0.1479368E+03  0.7546771E-02  0.1212315E+00
         -2   -1    0    0    0  501 -0.00000000000E+00  0.00000000000E+00  0.94795027437E+02  0.94795027437E+02  0.00000000000E+00 0.  1.
          2   -1    0    0  501    0  0.00000000000E+00 -0.00000000000E+00 -0.24063127788E+03  0.24063127788E+03  0.00000000000E+00 0. -1.
         23    2    1    2    0    0  0.79120299247E+02  0.97475447257E+00 -0.28576629374E+01  0.14796441961E+03  0.12499732530E+03 0.  0.
          5    1    3    3  502    0  0.44087382163E+02  0.61108562297E+02  0.12538045658E+02  0.76532648203E+02  0.47000000000E+01 0. -1.
         -5    1    3    3    0  502  0.35032917084E+02 -0.60133807825E+02 -0.15395708596E+02  0.71431771405E+02  0.47000000000E+01 0. -1.
        -11    1    1    2    0    0 -0.78854717365E+02  0.17671683635E+02 -0.55538855300E+02  0.98055694895E+02  0.00000000000E+00 0.  1.
         11    1    1    2    0    0 -0.26558188140E+00 -0.18646438107E+02 -0.87439732200E+02  0.89406190810E+02  0.00000000000E+00 0. -1.
<mgrwt>
<rscale>  0 0.14075651E+03</rscale>
<asrwt>0</asrwt>
<pdfrwt beam="2">  1        2 0.37020197E-01 0.14793682E+03</pdfrwt>
<pdfrwt beam="1">  1       -2 0.14583850E-01 0.14793682E+03</pdfrwt>
<totfact> 0.48037213E+03</totfact>
</mgrwt>
</event>
<event>
 7    1  0.4230786E-006  0.1568106E+03  0.7546771E-02  0.1200321E+00
         -2   -1    0    0    0  501 -0.00000000000E+00  0.00000000000E+00  0.12952962136E+03  0.12952962136E+03  0.00000000000E+00 0.  1.
          2   -1    0    0  501    0  0.00000000000E+00 -0.00000000000E+00 -0.16361808141E+03  0.16361808141E+03  0.00000000000E+00 0. -1.
         23    2    1    2    0    0 -0.94254994442E+02 -0.89702749240E+01 -0.38056615792E+02  0.16136250485E+03  0.12500032863E+03 0.  0.
          5    1    3    3  502    0 -0.84255044870E+02 -0.32522648305E+02  0.24428904611E+02  0.93677620696E+02  0.47000000000E+01 0.  1.
         -5    1    3    3    0  502 -0.99999495723E+01  0.23552373381E+02 -0.62485520402E+02  0.67684884157E+02  0.47000000000E+01 0.  1.
        -11    1    1    2    0    0  0.23575210883E+02  0.45585496046E+02  0.86589588311E+01  0.52046187046E+02  0.00000000000E+00 0.  1.
         11    1    1    2    0    0  0.70679783559E+02 -0.36615221122E+02 -0.46908030868E+01  0.79739010876E+02  0.00000000000E+00 0. -1.
<mgrwt>
<rscale>  0 0.15012357E+03</rscale>
<asrwt>0</asrwt>
<pdfrwt beam="2">  1        2 0.25172012E-01 0.15681056E+03</pdfrwt>
<pdfrwt beam="1">  1       -2 0.19927634E-01 0.15681056E+03</pdfrwt>
<totfact> 0.43607118E+03</totfact>
</mgrwt>
</event>
<event>
 7    1  0.4230786E-006  0.1384986E+03  0.7546771E-02  0.1227055E+00
          2   -1    0    0  501    0  0.00000000000E+00  0.00000000000E+00  0.26110814429E+03  0.26110814429E+03  0.00000000000E+00 0. -1.
         -2   -1    0    0    0  501 -0.00000000000E+00 -0.00000000000E+00 -0.58376344901E+02  0.58376344901E+02  0.00000000000E+00 0.  1.
         23    2    1    2    0    0 -0.58315465507E+02 -0.12436674674E+02  0.11559121809E+03  0.18039734465E+03  0.12500603131E+03 0.  0.
          5    1    3    3  502    0 -0.82652747965E+02 -0.47057804939E+02  0.71319453645E+02  0.11897255238E+03  0.47000000000E+01 0.  1.
         -5    1    3    3    0  502  0.24337282459E+02  0.34621130265E+02  0.44271764442E+02  0.61424792268E+02  0.47000000000E+01 0.  1.
        -11    1    1    2    0    0  0.59195053270E+02 -0.28058597181E+02  0.39260161776E+02  0.76372112123E+02  0.00000000000E+00 0. -1.
         11    1    1    2    0    0 -0.87958776341E+00  0.40495271856E+02  0.47880419525E+02  0.62715032418E+02  0.00000000000E+00 0.  1.
<mgrwt>
<rscale>  0 0.13027076E+03</rscale>
<asrwt>0</asrwt>
<pdfrwt beam="1">  1        2 0.40170483E-01 0.13849864E+03</pdfrwt>
<pdfrwt beam="2">  1       -2 0.89809763E-02 0.13849864E+03</pdfrwt>
<totfact> 0.94902271E+03</totfact>
</mgrwt>
</event>
<event>
 7    1  0.6131320E-006  0.2151354E+03  0.7546771E-02  0.1140796E+00
         -3   -1    0    0    0  501 -0.00000000000E+00  0.00000000000E+00  0.23490723957E+03  0.23490723957E+03  0.00000000000E+00 0.  1.
          3   -1    0    0  501    0  0.00000000000E+00 -0.00000000000E+00 -0.18745446268E+03  0.18745446268E+03  0.00000000000E+00 0. -1.
         23    2    1    2    0    0 -0.13005249035E+03 -0.11724077701E+03  0.58921389861E+02  0.22305821645E+03  0.12499675077E+03 0.  0.
          5    1    3    3  502    0 -0.12029641166E+03 -0.37013433085E+02  0.55077660081E+01  0.12607000584E+03  0.47000000000E+01 0.  1.
         -5    1    3    3    0  502 -0.97560786903E+01 -0.80227343921E+02  0.53413623853E+02  0.96988210609E+02  0.47000000000E+01 0.  1.
        -11    1    1    2    0    0  0.12957838719E+03  0.70312715062E+02 -0.26983209847E+02  0.14987504775E+03  0.00000000000E+00 0. -1.
         11    1    1    2    0    0  0.47410315904E+00  0.46928061944E+02  0.15514596870E+02  0.49428438046E+02  0.00000000000E+00 0.  1.
<mgrwt>
<rscale>  0 0.21097576E+03</rscale>
<asrwt>0</asrwt>
<pdfrwt beam="2">  1        3 0.28839148E-01 0.21513539E+03</pdfrwt>
<pdfrwt beam="1">  1       -3 0.36139575E-01 0.21513539E+03</pdfrwt>
<totfact> 0.21469476E+02</totfact>
</mgrwt>
</event>
<event>
 7    1  0.4230786E-006  0.1950421E+03  0.7546771E-02  0.1158239E+00
         -2   -1    0    0    0  501 -0.00000000000E+00  0.00000000000E+00  0.15820062686E+03  0.15820062686E+03  0.00000000000E+00 0.  1.
          2   -1    0    0  501    0  0.00000000000E+00 -0.00000000000E+00 -0.23946230088E+03  0.23946230088E+03  0.00000000000E+00 0. -1.
         23    2    1    2    0    0 -0.32100153055E+02  0.14624131636E+03  0.16693004302E+02  0.19575517042E+03  0.12499795165E+03 0.  0.
          5    1    3    3  502    0  0.24193935055E+02 -0.11568631811E+02  0.54206938224E+01  0.27760649433E+02  0.47000000000E+01 0. -1.
         -5    1    3    3    0  502 -0.56294088110E+02  0.15780994817E+03  0.11272310480E+02  0.16799452098E+03  0.47000000000E+01 0. -1.
        -11    1    1    2    0    0  0.15576180241E+02 -0.11885683254E+03 -0.25284612576E+02  0.12251071653E+03  0.00000000000E+00 0.  1.
         11    1    1    2    0    0  0.16523972814E+02 -0.27384483816E+02 -0.72670065739E+02  0.79397040789E+02  0.00000000000E+00 0. -1.
<mgrwt>
<rscale>  0 0.19024631E+03</rscale>
<asrwt>0</asrwt>
<pdfrwt beam="2">  1        2 0.36840354E-01 0.19504212E+03</pdfrwt>
<pdfrwt beam="1">  1       -2 0.24338558E-01 0.19504212E+03</pdfrwt>
<totfact> 0.20583716E+03</totfact>
</mgrwt>
</event>
<event>
 7    1  0.4230786E-006  0.1763157E+03  0.7546771E-02  0.1177502E+00
          2   -1    0    0  501    0  0.00000000000E+00  0.00000000000E+00  0.31520251383E+03  0.31520251383E+03  0.00000000000E+00 0. -1.
         -2   -1    0    0    0  501 -0.00000000000E+00 -0.00000000000E+00 -0.86471072180E+02  0.86471072180E+02  0.00000000000E+00 0.  1.
         23    2    1    2    0    0 -0.51831682663E+02 -0.11303682585E+03  0.11372765945E+03  0.20981229123E+03  0.12499347864E+03 0.  0.
          5    1    3    3  502    0  0.41156816518E+02 -0.43219778677E+02  0.35771230107E+02  0.69738825041E+02  0.47000000000E+01 0.  1.
         -5    1    3    3    0  502 -0.92988499181E+02 -0.69817047174E+02  0.77956429340E+02  0.14007346619E+03  0.47000000000E+01 0.  1.
        -11    1    1    2    0    0  0.12182814592E+02  0.88417345245E+02  0.11451429547E+03  0.14518805660E+03  0.00000000000E+00 0. -1.
         11    1    1    2    0    0  0.39648868070E+02  0.24619480607E+02  0.48948673092E+00  0.46673238176E+02  0.00000000000E+00 0.  1.
<mgrwt>
<rscale>  0 0.17033246E+03</rscale>
<asrwt>0</asrwt>
<pdfrwt beam="1">  1        2 0.48492694E-01 0.17631567E+03</pdfrwt>
<pdfrwt beam="2">  1       -2 0.13303242E-01 0.17631567E+03</pdfrwt>
<totfact> 0.42203927E+03</totfact>
</mgrwt>
</event>
<event>
 7    1  0.4230786E-006  0.1293269E+03  0.7546771E-02  0.1242511E+00
         -1   -1    0    0    0  501 -0.00000000000E+00  0.00000000000E+00  0.41483623374E+03  0.41483623374E+03  0.00000000000E+00 0.  1.
          1   -1    0    0  501    0  0.00000000000E+00 -0.00000000000E+00 -0.34598040599E+02  0.34598040599E+02  0.00000000000E+00 0. -1.
         23    2    1    2    0    0 -0.33089463024E+02  0.21436709591E+01  0.28741393146E+03  0.31517014107E+03  0.12500376770E+03 0.  0.
          5    1    3    3  502    0 -0.49702505825E+02  0.75294303268E+00  0.32295161696E+02  0.59464051977E+02  0.47000000000E+01 0.  1.
         -5    1    3    3    0  502  0.16613042801E+02  0.13907279265E+01  0.25511876976E+03  0.25570608910E+03  0.47000000000E+01 0.  1.
        -11    1    1    2    0    0 -0.11743727103E+02 -0.36395080646E+02  0.23513423297E+02  0.44893185414E+02  0.00000000000E+00 0. -1.
         11    1    1    2    0    0  0.44833190128E+02  0.34251409686E+02  0.69310838387E+02  0.89370947855E+02  0.00000000000E+00 0.  1.
<mgrwt>
<rscale>  0 0.12035617E+03</rscale>
<asrwt>0</asrwt>
<pdfrwt beam="2">  1        1 0.53227758E-02 0.12932691E+03</pdfrwt>
<pdfrwt beam="1">  1       -1 0.63820955E-01 0.12932691E+03</pdfrwt>
<totfact> 0.37607528E+03</totfact>
</mgrwt>
</event>
<event>
 7    1  0.4230786E-006  0.1491065E+03  0.7546771E-02  0.1210802E+00
          1   -1    0    0  501    0  0.00000000000E+00  0.00000000000E+00  0.49363493947E+03  0.49363493947E+03  0.00000000000E+00 0. -1.
         -1   -1    0    0    0  501 -0.00000000000E+00 -0.00000000000E+00 -0.87553534020E+02  0.87553534020E+02  0.00000000000E+00 0.  1.
         23    2    1    2    0    0  0.19550876613E+01  0.81266411981E+02 -0.81058045342E+01  0.14932670554E+03  0.12499883534E+03 0.  0.
          5    1    3    3  502    0 -0.51526191649E+02  0.16358812987E+01 -0.12262303177E+02  0.53198483180E+02  0.47000000000E+01 0. -1.
         -5    1    3    3    0  502  0.53481279310E+02  0.79630530683E+02  0.41564986424E+01  0.96128222361E+02  0.47000000000E+01 0. -1.
        -11    1    1    2    0    0  0.10225286307E+02 -0.94337272729E+02  0.39227666234E+03  0.40359020965E+03  0.00000000000E+00 0. -1.
         11    1    1    2    0    0 -0.12180373968E+02  0.13070860748E+02  0.21910547639E+02  0.28271558296E+02  0.00000000000E+00 0.  1.
<mgrwt>
<rscale>  0 0.14189449E+03</rscale>
<asrwt>0</asrwt>
<pdfrwt beam="1">  1        1 0.75943835E-01 0.14910654E+03</pdfrwt>
<pdfrwt beam="2">  1       -1 0.13469775E-01 0.14910654E+03</pdfrwt>
<totfact> 0.17309794E+03</totfact>
</mgrwt>
</event>
<event>
 7    1  0.4230786E-006  0.2936131E+03  0.7546771E-02  0.1088478E+00
         -2   -1    0    0    0  501 -0.00000000000E+00  0.00000000000E+00  0.30021534547E+02  0.30021534547E+02  0.00000000000E+00 0.  1.
          2   -1    0    0  501    0  0.00000000000E+00 -0.00000000000E+00 -0.71789009908E+03  0.71789009908E+03  0.00000000000E+00 0. -1.
         23    2    1    2    0    0 -0.38371261981E+01  0.18837664569E+02 -0.28377943844E+03  0.31068487380E+03  0.12499895992E+03 0.  0.
          5    1    3    3  502    0 -0.27412826175E+02  0.66169245887E+02 -0.13819223644E+03  0.15572095669E+03  0.47000000000E+01 0. -1.
         -5    1    3    3    0  502  0.23575699977E+02 -0.47331581318E+02 -0.14558720200E+03  0.15496391711E+03  0.47000000000E+01 0. -1.
        -11    1    1    2    0    0  0.53829115520E+02 -0.73943175613E+02 -0.19755616167E+03  0.21770072097E+03  0.00000000000E+00 0. -1.
         11    1    1    2    0    0 -0.49991989321E+02  0.55105511044E+02 -0.20653296442E+03  0.21952603886E+03  0.00000000000E+00 0.  1.
<mgrwt>
<rscale>  0 0.29361310E+03</rscale>
<asrwt>0</asrwt>
<pdfrwt beam="2">  1        2 0.11044462E+00 0.29361310E+03</pdfrwt>
<pdfrwt beam="1">  1       -2 0.46186983E-02 0.29361310E+03</pdfrwt>
<totfact> 0.89765340E+03</totfact>
</mgrwt>
</event>
<event>
 6    1  0.4230786E-006  0.2440761E+03  0.7546771E-02  0.1162530E+00
         -1   -1    0    0    0  501 -0.00000000000E+00  0.00000000000E+00  0.15037417986E+04  0.15037417986E+04  0.00000000000E+00 0.  1.
          1   -1    0    0  501    0  0.00000000000E+00 -0.00000000000E+00 -0.17654478516E+02  0.17654478516E+02  0.00000000000E+00 0. -1.
          5    1    1    2  502    0 -0.13534824780E+03  0.46079657480E+02  0.71956241463E+03  0.73364476524E+03  0.47000000000E+01 0. -1.
         -5    1    1    2    0  502  0.64223283193E+02 -0.76637332345E+02  0.42013180343E+03  0.43189203867E+03  0.47000000000E+01 0.  1.
        -11    1    1    2    0    0  0.25399333174E+02  0.24581650568E+02  0.15779653623E+03  0.16170692785E+03  0.00000000000E+00 0. -1.
         11    1    1    2    0    0  0.45725631436E+02  0.59760242975E+01  0.18859656582E+03  0.19415254537E+03  0.00000000000E+00 0.  1.
<mgrwt>
<rscale>  0 0.18555750E+03</rscale>
<asrwt>0</asrwt>
<pdfrwt beam="2">  1        1 0.27160748E-02 0.24407608E+03</pdfrwt>
<pdfrwt beam="1">  1       -1 0.23134479E+00 0.24407608E+03</pdfrwt>
<totfact> 0.40862277E+02</totfact>
</mgrwt>
</event>
<event>
 7    1  0.4230786E-006  0.1410075E+03  0.7546771E-02  0.1223085E+00
          1   -1    0    0  501    0  0.00000000000E+00  0.00000000000E+00  0.60133314500E+03  0.60133314500E+03  0.00000000000E+00 0. -1.
         -1   -1    0    0    0  501 -0.00000000000E+00 -0.00000000000E+00 -0.26908486094E+02  0.26908486094E+02  0.00000000000E+00 0.  1.
         23    2    1    2    0    0 -0.44412382708E+01 -0.65113904639E+02  0.28285737737E+03  0.31605600387E+03  0.12499422576E+03 0.  0.
          5    1    3    3  502    0 -0.51804033601E+01 -0.27326329229E+02 -0.23610153007E+01  0.28305993029E+02  0.47000000000E+01 0. -1.
         -5    1    3    3    0  502  0.73916508926E+00 -0.37787575411E+02  0.28521839267E+03  0.28775001084E+03  0.47000000000E+01 0. -1.
        -11    1    1    2    0    0  0.15979405379E+02  0.64821561003E+02  0.29304119616E+03  0.30055002714E+03  0.00000000000E+00 0. -1.
         11    1    1    2    0    0 -0.11538167108E+02  0.29234363632E+00 -0.14739146242E+01  0.11635600085E+02  0.00000000000E+00 0.  1.
<mgrwt>
<rscale>  0 0.13299052E+03</rscale>
<asrwt>0</asrwt>
<pdfrwt beam="1">  1        1 0.92512782E-01 0.14100745E+03</pdfrwt>
<pdfrwt beam="2">  1       -1 0.41397675E-02 0.14100745E+03</pdfrwt>
<totfact> 0.78758006E+03</totfact>
</mgrwt>
</event>
<event>
 7    1  0.4230786E-006  0.1407895E+03  0.7546771E-02  0.1222694E+00
         -1   -1    0    0    0  501 -0.00000000000E+00  0.00000000000E+00  0.26681649581E+03  0.26681649581E+03  0.00000000000E+00 0.  1.
          1   -1    0    0  501    0  0.00000000000E+00 -0.00000000000E+00 -0.60779968383E+02  0.60779968383E+02  0.00000000000E+00 0. -1.
         23    2    1    2    0    0  0.62105255282E+02  0.18376892265E+02  0.10058652765E+03  0.17302982867E+03  0.12500759641E+03 0.  0.
          5    1    3    3  502    0  0.31026184460E+02  0.28772109162E+02 -0.20676025530E+02  0.47329128658E+02  0.47000000000E+01 0.  1.
         -5    1    3    3    0  502  0.31079070822E+02 -0.10395216897E+02  0.12126255318E+03  0.12570070001E+03  0.47000000000E+01 0.  1.
        -11    1    1    2    0    0 -0.36270760863E+02 -0.10320630178E+01 -0.78044155756E+01  0.37115254951E+02  0.00000000000E+00 0. -1.
         11    1    1    2    0    0 -0.25834494419E+02 -0.17344829247E+02  0.11325441535E+03  0.11745138058E+03  0.00000000000E+00 0.  1.
<mgrwt>
<rscale>  0 0.13326200E+03</rscale>
<asrwt>0</asrwt>
<pdfrwt beam="2">  1        1 0.93507645E-02 0.14078946E+03</pdfrwt>
<pdfrwt beam="1">  1       -1 0.41048691E-01 0.14078946E+03</pdfrwt>
<totfact> 0.39789874E+03</totfact>
</mgrwt>
</event>
<event>
 7    1  0.4230786E-006  0.1207196E+03  0.7546771E-02  0.1288691E+00
          1   -1    0    0  501    0  0.00000000000E+00  0.00000000000E+00  0.23301157046E+02  0.23301157046E+02  0.00000000000E+00 0. -1.
         -1   -1    0    0    0  501 -0.00000000000E+00 -0.00000000000E+00 -0.36678043500E+03  0.36678043500E+03  0.00000000000E+00 0.  1.
         23    2    1    2    0    0  0.46582800171E+02 -0.35558487600E+01 -0.30547085728E+03  0.32845952630E+03  0.11131313688E+03 0.  0.
          5    1    3    3  502    0 -0.54573749737E+00 -0.37760348736E+01  0.87771758167E+01  0.10662320765E+02  0.47000000000E+01 0. -1.
         -5    1    3    3    0  502  0.47128537668E+02  0.22018611361E+00 -0.31424803309E+03  0.31779720554E+03  0.47000000000E+01 0.  1.
        -11    1    1    2    0    0 -0.14997891864E+02 -0.41682754143E+01 -0.86213463650E+01  0.17794350042E+02  0.00000000000E+00 0. -1.
         11    1    1    2    0    0 -0.31584908307E+02  0.77241241743E+01 -0.29387074317E+02  0.43827715705E+02  0.00000000000E+00 0.  1.
<mgrwt>
<rscale>  0 0.96112015E+02</rscale>
<asrwt>0</asrwt>
<pdfrwt beam="1">  1        1 0.35847934E-02 0.12071957E+03</pdfrwt>
<pdfrwt beam="2">  1       -1 0.56427758E-01 0.12071957E+03</pdfrwt>
<totfact> 0.81179177E+03</totfact>
</mgrwt>
</event>
<event>
 7    1  0.4230786E-006  0.1403855E+03  0.7546771E-02  0.1218108E+00
         -2   -1    0    0    0  501 -0.00000000000E+00  0.00000000000E+00  0.19057026627E+03  0.19057026627E+03  0.00000000000E+00 0.  1.
          2   -1    0    0  501    0  0.00000000000E+00 -0.00000000000E+00 -0.16031867668E+03  0.16031867668E+03  0.00000000000E+00 0. -1.
         23    2    1    2    0    0  0.83321586412E+02  0.14649784442E+02  0.12941730473E+03  0.19093695372E+03  0.11203115006E+03 0.  0.
          5    1    3    3  502    0  0.72123341114E+02  0.14288131025E+02  0.14138237592E+02  0.75019376056E+02  0.47000000000E+01 0. -1.
         -5    1    3    3    0  502  0.11198245298E+02  0.36165341706E+00  0.11527906713E+03  0.11591757766E+03  0.47000000000E+01 0.  1.
        -11    1    1    2    0    0 -0.52252284738E+02 -0.52246839590E+02 -0.42716333450E+02  0.85350563272E+02  0.00000000000E+00 0.  1.
         11    1    1    2    0    0 -0.31069301674E+02  0.37597055147E+02 -0.56449381686E+02  0.74601425958E+02  0.00000000000E+00 0. -1.
<mgrwt>
<rscale>  0 0.13650685E+03</rscale>
<asrwt>0</asrwt>
<pdfrwt beam="2">  1        2 0.24664412E-01 0.14038547E+03</pdfrwt>
<pdfrwt beam="1">  1       -2 0.29318503E-01 0.14038547E+03</pdfrwt>
<totfact> 0.22634226E+03</totfact>
</mgrwt>
</event>
<event>
 7    1  0.4230786E-006  0.1906977E+03  0.7546771E-02  0.1162796E+00
          3   -1    0    0  501    0  0.00000000000E+00  0.00000000000E+00  0.82419800602E+03  0.82419800602E+03  0.00000000000E+00 0.  1.
         -3   -1    0    0    0  501 -0.00000000000E+00 -0.00000000000E+00 -0.57428963692E+02  0.57428963692E+02  0.00000000000E+00 0. -1.
         23    2    1    2    0    0  0.12102846193E+03  0.78069942681E+02  0.15215355020E+03  0.24395965444E+03  0.12499122214E+03 0.  0.
          5    1    3    3  502    0  0.13217984252E+03  0.52111800425E+02  0.73047492560E+02  0.15982858531E+03  0.47000000000E+01 0.  1.
         -5    1    3    3    0  502 -0.11151380598E+02  0.25958142255E+02  0.79106057639E+02  0.84131069135E+02  0.47000000000E+01 0.  1.
        -11    1    1    2    0    0 -0.18056537838E+02  0.18824456260E+02  0.14117112880E+03  0.14356074087E+03  0.00000000000E+00 0. -1.
         11    1    1    2    0    0 -0.10297192409E+03 -0.96894398941E+02  0.47344436332E+03  0.49410657439E+03  0.00000000000E+00 0.  1.
<mgrwt>
<rscale>  0 0.18527211E+03</rscale>
<asrwt>0</asrwt>
<pdfrwt beam="1">  1        3 0.12679968E+00 0.19069769E+03</pdfrwt>
<pdfrwt beam="2">  1       -3 0.88352258E-02 0.19069769E+03</pdfrwt>
<totfact> 0.11449641E+02</totfact>
</mgrwt>
</event>
<event>
 7    1  0.4230786E-006  0.1812376E+03  0.7546771E-02  0.1172781E+00
          1   -1    0    0  501    0  0.00000000000E+00  0.00000000000E+00  0.21764419641E+03  0.21764419641E+03  0.00000000000E+00 0. -1.
         -1   -1    0    0    0  501 -0.00000000000E+00 -0.00000000000E+00 -0.13180652518E+03  0.13180652518E+03  0.00000000000E+00 0.  1.
         23    2    1    2    0    0  0.13102472156E+03  0.79059374085E+01  0.40989862337E+02  0.18581502569E+03  0.12496828977E+03 0.  0.
          5    1    3    3  502    0  0.12399204426E+03  0.48266136691E+02  0.86671080888E+01  0.13341984768E+03  0.47000000000E+01 0. -1.
         -5    1    3    3    0  502  0.70326772995E+01 -0.40360199283E+02  0.32322754249E+02  0.52395178007E+02  0.47000000000E+01 0. -1.
        -11    1    1    2    0    0 -0.98012723053E+02  0.87628125044E+01  0.68355070732E+02  0.11981525970E+03  0.00000000000E+00 0. -1.
         11    1    1    2    0    0 -0.33011998511E+02 -0.16668749913E+02 -0.23507261835E+02  0.43820436195E+02  0.00000000000E+00 0.  1.
<mgrwt>
<rscale>  0 0.17495109E+03</rscale>
<asrwt>0</asrwt>
<pdfrwt beam="1">  1        1 0.33483722E-01 0.18123756E+03</pdfrwt>
<pdfrwt beam="2">  1       -1 0.20277927E-01 0.18123756E+03</pdfrwt>
<totfact> 0.25507305E+03</totfact>
</mgrwt>
</event>
<event>
 7    1  0.4230786E-006  0.1340678E+03  0.7546771E-02  0.1233865E+00
          3   -1    0    0  501    0  0.00000000000E+00  0.00000000000E+00  0.71407122461E+02  0.71407122461E+02  0.00000000000E+00 0. -1.
         -3   -1    0    0    0  501 -0.00000000000E+00 -0.00000000000E+00 -0.20102164694E+03  0.20102164694E+03  0.00000000000E+00 0.  1.
         23    2    1    2    0    0  0.39851180420E+02 -0.27763900714E+02 -0.89026112422E+02  0.16093425419E+03  0.12496093276E+03 0.  0.
          5    1    3    3  502    0  0.13487339015E+02  0.35737358471E+02  0.10485233660E+02  0.39888560129E+02  0.47000000000E+01 0.  1.
         -5    1    3    3    0  502  0.26363841405E+02 -0.63501259186E+02 -0.99511346082E+02  0.12104569406E+03  0.47000000000E+01 0.  1.
        -11    1    1    2    0    0  0.47023836517E+01  0.34816268528E+02  0.16435153555E+02  0.38786585807E+02  0.00000000000E+00 0. -1.
         11    1    1    2    0    0 -0.44553564072E+02 -0.70523678135E+01 -0.57023565615E+02  0.72707929407E+02  0.00000000000E+00 0.  1.
<mgrwt>
<rscale>  0 0.12577345E+03</rscale>
<asrwt>0</asrwt>
<pdfrwt beam="1">  1        3 0.10985711E-01 0.13406784E+03</pdfrwt>
<pdfrwt beam="2">  1       -3 0.30926406E-01 0.13406784E+03</pdfrwt>
<totfact> 0.14668359E+03</totfact>
</mgrwt>
</event>
<event>
 7    1  0.4230786E-006  0.1902479E+03  0.7546771E-02  0.1163061E+00
         -2   -1    0    0    0  501 -0.00000000000E+00  0.00000000000E+00  0.12285701743E+03  0.12285701743E+03  0.00000000000E+00 0.  1.
          2   -1    0    0  501    0  0.00000000000E+00 -0.00000000000E+00 -0.26640279407E+03  0.26640279407E+03  0.00000000000E+00 0. -1.
         23    2    1    2    0    0  0.14321178510E+03 -0.98604379669E+01 -0.58010882237E+02  0.19889578115E+03  0.12484961222E+03 0.  0.
          5    1    3    3  502    0 -0.15051492291E+02  0.22799652790E+02 -0.19675880095E+01  0.27790879621E+02  0.47000000000E+01 0. -1.
         -5    1    3    3    0  502  0.15826327740E+03 -0.32660090757E+02 -0.56043294227E+02  0.17110490153E+03  0.47000000000E+01 0. -1.
        -11    1    1    2    0    0 -0.11119606279E+03  0.26727780064E+01 -0.10437147037E+03  0.15252905281E+03  0.00000000000E+00 0. -1.
         11    1    1    2    0    0 -0.32015722312E+02  0.71876599605E+01  0.18836575968E+02  0.37834977534E+02  0.00000000000E+00 0.  1.
<mgrwt>
<rscale>  0 0.18498816E+03</rscale>
<asrwt>0</asrwt>
<pdfrwt beam="2">  1        2 0.40985045E-01 0.19024792E+03</pdfrwt>
<pdfrwt beam="1">  1       -2 0.18901080E-01 0.19024792E+03</pdfrwt>
<totfact> 0.28338273E+03</totfact>
</mgrwt>
</event>
<event>
 6    1  0.4230786E-006  0.3902307E+03  0.7546771E-02  0.1047216E+00
         -2   -1    0    0    0  501 -0.00000000000E+00  0.00000000000E+00  0.61800731031E+02  0.61800731031E+02  0.00000000000E+00 0.  1.
          2   -1    0    0  501    0  0.00000000000E+00 -0.00000000000E+00 -0.61601221124E+03  0.61601221124E+03  0.00000000000E+00 0. -1.
          5    1    1    2  502    0  0.95064994398E+02  0.12661755498E+03 -0.28313746001E+03  0.32443530888E+03  0.47000000000E+01 0. -1.
         -5    1    1    2    0  502  0.70825479228E+01 -0.67150983972E+01  0.12544954861E+02  0.16574707359E+02  0.47000000000E+01 0.  1.
        -11    1    1    2    0    0 -0.47198932609E+02 -0.38652519448E+02 -0.19602176617E+03  0.20529561444E+03  0.00000000000E+00 0. -1.
         11    1    1    2    0    0 -0.54948609712E+02 -0.81249937139E+02 -0.87597208895E+02  0.13150731159E+03  0.00000000000E+00 0.  1.
<mgrwt>
<rscale>  0 0.39023073E+03</rscale>
<asrwt>0</asrwt>
<pdfrwt beam="2">  1        2 0.94771112E-01 0.39023073E+03</pdfrwt>
<pdfrwt beam="1">  1       -2 0.95078045E-02 0.39023073E+03</pdfrwt>
<totfact> 0.35380513E+03</totfact>
</mgrwt>
</event>
<event>
 6    1  0.4230786E-006  0.1834351E+03  0.7546771E-02  0.1187429E+00
         -2   -1    0    0    0  501 -0.00000000000E+00  0.00000000000E+00  0.15393071016E+03  0.15393071016E+03  0.00000000000E+00 0.  1.
          2   -1    0    0  501    0  0.00000000000E+00 -0.00000000000E+00 -0.16206445754E+03  0.16206445754E+03  0.00000000000E+00 0. -1.
          5    1    1    2  502    0 -0.24505208631E+02 -0.74778442699E+02 -0.43280176834E+02  0.89930998267E+02  0.47000000000E+01 0. -1.
         -5    1    1    2    0  502 -0.14168893126E+02  0.26953495305E+02  0.96157511630E+02  0.10097329095E+03  0.47000000000E+01 0.  1.
        -11    1    1    2    0    0 -0.28662489346E+02  0.10359466762E+02 -0.27543569260E+02  0.41079253336E+02  0.00000000000E+00 0.  1.
         11    1    1    2    0    0  0.67336591103E+02  0.37465480631E+02 -0.33467512906E+02  0.84011625151E+02  0.00000000000E+00 0. -1.
<mgrwt>
<rscale>  0 0.16112793E+03</rscale>
<asrwt>0</asrwt>
<pdfrwt beam="2">  1        2 0.24932993E-01 0.18343510E+03</pdfrwt>
<pdfrwt beam="1">  1       -2 0.23681648E-01 0.18343510E+03</pdfrwt>
<totfact> 0.33016546E+03</totfact>
</mgrwt>
</event>
<event>
 7    1  0.4230786E-006  0.1308079E+03  0.7546771E-02  0.1239284E+00
         -1   -1    0    0    0  501 -0.00000000000E+00  0.00000000000E+00  0.11744662498E+03  0.11744662498E+03  0.00000000000E+00 0.  1.
          1   -1    0    0  501    0  0.00000000000E+00 -0.00000000000E+00 -0.12957369386E+03  0.12957369386E+03  0.00000000000E+00 0. -1.
         23    2    1    2    0    0  0.17871613303E+02  0.34145406636E+02  0.36412313449E+02  0.13578126821E+03  0.12500157146E+03 0.  0.
          5    1    3    3  502    0  0.67142142376E+02  0.62411690243E+01 -0.12627677929E+01  0.67606982303E+02  0.47000000000E+01 0. -1.
         -5    1    3    3    0  502 -0.49270529073E+02  0.27904237612E+02  0.37675081242E+02  0.68174285903E+02  0.47000000000E+01 0. -1.
        -11    1    1    2    0    0  0.39790519342E+01 -0.40277921034E+02 -0.69447636152E+02  0.80381079516E+02  0.00000000000E+00 0. -1.
         11    1    1    2    0    0 -0.21850665237E+02  0.61325143979E+01  0.20908253822E+02  0.30857971127E+02  0.00000000000E+00 0.  1.
<mgrwt>
<rscale>  0 0.12234136E+03</rscale>
<asrwt>0</asrwt>
<pdfrwt beam="2">  1        1 0.19934414E-01 0.13080786E+03</pdfrwt>
<pdfrwt beam="1">  1       -1 0.18068711E-01 0.13080786E+03</pdfrwt>
<totfact> 0.57956090E+03</totfact>
</mgrwt>
</event>
<event>
 7    1  0.4230786E-006  0.1779057E+03  0.7546771E-02  0.1175720E+00
         -4   -1    0    0    0  501 -0.00000000000E+00  0.00000000000E+00  0.35244440843E+03  0.35244440843E+03  0.00000000000E+00 0.  1.
          4   -1    0    0  501    0  0.00000000000E+00 -0.00000000000E+00 -0.85172789429E+02  0.85172789429E+02  0.00000000000E+00 0. -1.
         23    2    1    2    0    0 -0.12470120142E+03 -0.21847805984E+02  0.20109252653E+03  0.26849330940E+03  0.12499094649E+03 0.  0.
          5    1    3    3  502    0 -0.13489141891E+03 -0.47494475055E+02  0.13501205022E+03  0.19672763853E+03  0.47000000000E+01 0.  1.
         -5    1    3    3    0  502  0.10190217483E+02  0.25646669072E+02  0.66080476313E+02  0.71765670878E+02  0.47000000000E+01 0.  1.
        -11    1    1    2    0    0  0.11573742387E+03  0.35202180799E+02  0.23124055542E+02  0.12316276533E+03  0.00000000000E+00 0. -1.
         11    1    1    2    0    0  0.89637775486E+01 -0.13354374815E+02  0.43055036928E+02  0.45961123132E+02  0.00000000000E+00 0.  1.
<mgrwt>
<rscale>  0 0.17205665E+03</rscale>
<asrwt>0</asrwt>
<pdfrwt beam="2">  1        4 0.13103506E-01 0.17790574E+03</pdfrwt>
<pdfrwt beam="1">  1       -4 0.54222216E-01 0.17790574E+03</pdfrwt>
<totfact> 0.27338480E+02</totfact>
</mgrwt>
</event>
<event>
 7    1  0.4230786E-006  0.1506936E+03  0.7546771E-02  0.1208530E+00
          2   -1    0    0  501    0  0.00000000000E+00  0.00000000000E+00  0.78416643139E+03  0.78416643139E+03  0.00000000000E+00 0. -1.
         -2   -1    0    0    0  501 -0.00000000000E+00 -0.00000000000E+00 -0.25312357117E+02  0.25312357117E+02  0.00000000000E+00 0.  1.
         23    2    1    2    0    0 -0.83823815521E+02  0.75395262324E+01  0.32653610243E+03  0.35963088355E+03  0.12500107881E+03 0.  0.
          5    1    3    3  502    0 -0.66964790987E+00  0.29492591376E+02  0.98707413033E+01  0.31460815442E+02  0.47000000000E+01 0. -1.
         -5    1    3    3    0  502 -0.83154167611E+02 -0.21953065144E+02  0.31666536113E+03  0.32817006810E+03  0.47000000000E+01 0. -1.
        -11    1    1    2    0    0  0.13842529820E+02 -0.40386645381E+02  0.10142270981E+03  0.11004209568E+03  0.00000000000E+00 0. -1.
         11    1    1    2    0    0  0.69981285701E+02  0.32847119149E+02  0.33089526203E+03  0.33980580928E+03  0.00000000000E+00 0.  1.
<mgrwt>
<rscale>  0 0.14362740E+03</rscale>
<asrwt>0</asrwt>
<pdfrwt beam="1">  1        2 0.12064097E+00 0.15069355E+03</pdfrwt>
<pdfrwt beam="2">  1       -2 0.38942094E-02 0.15069355E+03</pdfrwt>
<totfact> 0.10058412E+04</totfact>
</mgrwt>
</event>
<event>
 7    1  0.4230786E-006  0.2587064E+03  0.7546771E-02  0.1110237E+00
          1   -1    0    0  501    0  0.00000000000E+00  0.00000000000E+00  0.59898080308E+03  0.59898080308E+03  0.00000000000E+00 0. -1.
         -1   -1    0    0    0  501 -0.00000000000E+00 -0.00000000000E+00 -0.15884054107E+03  0.15884054107E+03  0.00000000000E+00 0.  1.
         23    2    1    2    0    0  0.21178245202E+03 -0.80319029108E+02  0.47121607409E+01  0.25874932935E+03  0.12500423017E+03 0.  0.
          5    1    3    3  502    0  0.16155122983E+03 -0.25316420136E+02  0.50475318053E+02  0.17120037594E+03  0.47000000000E+01 0. -1.
         -5    1    3    3    0  502  0.50231222186E+02 -0.55002608972E+02 -0.45763157312E+02  0.87548953410E+02  0.47000000000E+01 0. -1.
        -11    1    1    2    0    0 -0.13723616151E+03  0.89886308204E+02  0.34078689789E+03  0.37821822035E+03  0.00000000000E+00 0.  1.
         11    1    1    2    0    0 -0.74546290505E+02 -0.95672790963E+01  0.94641203381E+02  0.12085379446E+03  0.00000000000E+00 0. -1.
<mgrwt>
<rscale>  0 0.25491620E+03</rscale>
<asrwt>0</asrwt>
<pdfrwt beam="1">  1        1 0.92150891E-01 0.25870642E+03</pdfrwt>
<pdfrwt beam="2">  1       -1 0.24437007E-01 0.25870642E+03</pdfrwt>
<totfact> 0.51311824E+02</totfact>
</mgrwt>
</event>
<event>
 7    1  0.4230786E-006  0.1369251E+03  0.7546771E-02  0.1229626E+00
          1   -1    0    0  501    0  0.00000000000E+00  0.00000000000E+00  0.34272832970E+03  0.34272832970E+03  0.00000000000E+00 0. -1.
         -1   -1    0    0    0  501 -0.00000000000E+00 -0.00000000000E+00 -0.45155437775E+02  0.45155437775E+02  0.00000000000E+00 0.  1.
         23    2    1    2    0    0  0.20522839141E+02 -0.51982609888E+02  0.12636975393E+03  0.18632712767E+03  0.12500042056E+03 0.  0.
          5    1    3    3  502    0 -0.49818110711E+01  0.39412535511E+02  0.52392199848E+02  0.65918123470E+02  0.47000000000E+01 0. -1.
         -5    1    3    3    0  502  0.25504650212E+02 -0.91395145398E+02  0.73977554085E+02  0.12040900420E+03  0.47000000000E+01 0. -1.
        -11    1    1    2    0    0 -0.37726643163E+02  0.11885356445E+02  0.20274886131E+02  0.44448085559E+02  0.00000000000E+00 0.  1.
         11    1    1    2    0    0  0.17203804022E+02  0.40097253442E+02  0.15092825186E+03  0.15710855424E+03  0.00000000000E+00 0. -1.
<mgrwt>
<rscale>  0 0.12854851E+03</rscale>
<asrwt>0</asrwt>
<pdfrwt beam="1">  1        1 0.52727434E-01 0.13692510E+03</pdfrwt>
<pdfrwt beam="2">  1       -1 0.69469907E-02 0.13692510E+03</pdfrwt>
<totfact> 0.75306563E+03</totfact>
</mgrwt>
</event>
<event>
 7    1  0.4230786E-006  0.1611285E+03  0.7546771E-02  0.1194787E+00
          2   -1    0    0  501    0  0.00000000000E+00  0.00000000000E+00  0.11328072720E+03  0.11328072720E+03  0.00000000000E+00 0. -1.
         -2   -1    0    0    0  501 -0.00000000000E+00 -0.00000000000E+00 -0.20309477042E+03  0.20309477042E+03  0.00000000000E+00 0.  1.
         23    2    1    2    0    0  0.97193691468E+02 -0.29842367707E+02 -0.77591107718E+02  0.17883730415E+03  0.12500088315E+03 0.  0.
          5    1    3    3  502    0 -0.34067037537E+01  0.38107529986E+02 -0.10051075162E+02  0.39835958430E+02  0.47000000000E+01 0. -1.
         -5    1    3    3    0  502  0.10060039522E+03 -0.67949897694E+02 -0.67540032556E+02  0.13900134572E+03  0.47000000000E+01 0. -1.
        -11    1    1    2    0    0 -0.91883890790E+02 -0.52368302818E+01 -0.31357527682E+02  0.97228433703E+02  0.00000000000E+00 0.  1.
         11    1    1    2    0    0 -0.53098006784E+01  0.35079197989E+02  0.19134592174E+02  0.40309759767E+02  0.00000000000E+00 0. -1.
<mgrwt>
<rscale>  0 0.15472294E+03</rscale>
<asrwt>0</asrwt>
<pdfrwt beam="1">  1        2 0.17427804E-01 0.16112852E+03</pdfrwt>
<pdfrwt beam="2">  1       -2 0.31245349E-01 0.16112852E+03</pdfrwt>
<totfact> 0.30070012E+03</totfact>
</mgrwt>
</event>
<event>
 7    1  0.4230786E-006  0.1910837E+03  0.7546771E-02  0.1162053E+00
          1   -1    0    0  501    0  0.00000000000E+00  0.00000000000E+00  0.58897431082E+03  0.58897431082E+03  0.00000000000E+00 0. -1.
         -1   -1    0    0    0  501 -0.00000000000E+00 -0.00000000000E+00 -0.58126465892E+02  0.58126465892E+02  0.00000000000E+00 0.  1.
         23    2    1    2    0    0 -0.41107932395E+02  0.14084707498E+03  0.21573373177E+03  0.28819095569E+03  0.12241414657E+03 0.  0.
          5    1    3    3  502    0 -0.16887974944E+02 -0.12159996821E+02 -0.14446634796E+01  0.21383317633E+02  0.47000000000E+01 0. -1.
         -5    1    3    3    0  502 -0.24219957450E+02  0.15300707180E+03  0.21717839525E+03  0.26680763806E+03  0.47000000000E+01 0.  1.
        -11    1    1    2    0    0 -0.24615966437E+02 -0.40301667125E+02  0.12925876762E+03  0.13761540314E+03  0.00000000000E+00 0.  1.
         11    1    1    2    0    0  0.65723898832E+02 -0.10054540786E+03  0.18585534554E+03  0.22129441788E+03  0.00000000000E+00 0. -1.
<mgrwt>
<rscale>  0 0.18607203E+03</rscale>
<asrwt>0</asrwt>
<pdfrwt beam="1">  1        1 0.90611428E-01 0.19108371E+03</pdfrwt>
<pdfrwt beam="2">  1       -1 0.89425336E-02 0.19108371E+03</pdfrwt>
<totfact> 0.25887570E+03</totfact>
</mgrwt>
</event>
<event>
 6    1  0.4230786E-006  0.3840013E+03  0.7546771E-02  0.1094019E+00
         -1   -1    0    0    0  501 -0.00000000000E+00  0.00000000000E+00  0.15042175631E+03  0.15042175631E+03  0.00000000000E+00 0.  1.
          1   -1    0    0  501    0  0.00000000000E+00 -0.00000000000E+00 -0.51763295758E+03  0.51763295758E+03  0.00000000000E+00 0. -1.
          5    1    1    2  502    0 -0.37159726755E+02 -0.21613780292E+03 -0.11905789041E+03  0.24958619034E+03  0.47000000000E+01 0. -1.
         -5    1    1    2    0  502  0.11101250128E+02  0.15509185554E+03 -0.11425131760E+02  0.15597866856E+03  0.47000000000E+01 0.  1.
        -11    1    1    2    0    0  0.52328542467E+02  0.63617888857E+01 -0.10735757172E+03  0.11960099047E+03  0.00000000000E+00 0.  1.
         11    1    1    2    0    0 -0.26270065840E+02  0.54684158489E+02 -0.12937060738E+03  0.14288886452E+03  0.00000000000E+00 0. -1.
<mgrwt>
<rscale>  0 0.28307897E+03</rscale>
<asrwt>0</asrwt>
<pdfrwt beam="2">  1        1 0.79635841E-01 0.38400135E+03</pdfrwt>
<pdfrwt beam="1">  1       -1 0.23141808E-01 0.38400135E+03</pdfrwt>
<totfact> 0.68339715E+02</totfact>
</mgrwt>
</event>
<event>
 7    1  0.4230786E-006  0.1470662E+03  0.7546771E-02  0.1214070E+00
          1   -1    0    0  501    0  0.00000000000E+00  0.00000000000E+00  0.67036408665E+03  0.67036408665E+03  0.00000000000E+00 0. -1.
         -1   -1    0    0    0  501 -0.00000000000E+00 -0.00000000000E+00 -0.40504820707E+02  0.40504820707E+02  0.00000000000E+00 0.  1.
         23    2    1    2    0    0  0.47060474295E+01  0.77339137521E+02  0.12752267250E+03  0.19465484686E+03  0.12499995333E+03 0.  0.
          5    1    3    3  502    0 -0.11369744850E+02  0.45826180339E+02 -0.13382978865E+02  0.49300142248E+02  0.47000000000E+01 0. -1.
         -5    1    3    3    0  502  0.16075792279E+02  0.31512957182E+02  0.14090565136E+03  0.14535470462E+03  0.47000000000E+01 0. -1.
        -11    1    1    2    0    0  0.90314001162E+01 -0.93443593978E+02  0.45131727370E+03  0.46097782266E+03  0.00000000000E+00 0. -1.
         11    1    1    2    0    0 -0.13737447546E+02  0.16104456458E+02  0.51019319747E+02  0.55236237836E+02  0.00000000000E+00 0.  1.
<mgrwt>
<rscale>  0 0.13945090E+03</rscale>
<asrwt>0</asrwt>
<pdfrwt beam="1">  1        1 0.10313293E+00 0.14706623E+03</pdfrwt>
<pdfrwt beam="2">  1       -1 0.62315114E-02 0.14706623E+03</pdfrwt>
<totfact> 0.37014403E+03</totfact>
</mgrwt>
</event>
<event>
 6    1  0.4230786E-006  0.2387030E+03  0.7546771E-02  0.1154692E+00
         -3   -1    0    0    0  501 -0.00000000000E+00  0.00000000000E+00  0.70770642187E+02  0.70770642187E+02  0.00000000000E+00 0.  1.
          3   -1    0    0  501    0  0.00000000000E+00 -0.00000000000E+00 -0.41683034024E+03  0.41683034024E+03  0.00000000000E+00 0. -1.
          5    1    1    2  502    0  0.33046265359E+02  0.10127293965E+03 -0.24244961327E+03  0.26486254725E+03  0.47000000000E+01 0. -1.
         -5    1    1    2    0  502 -0.48434734491E+02 -0.61655437286E+02 -0.46196838171E+01  0.78681306107E+02  0.47000000000E+01 0.  1.
        -11    1    1    2    0    0 -0.90255952956E+01 -0.64760903963E+02 -0.82654245227E+02  0.10539051336E+03  0.00000000000E+00 0.  1.
         11    1    1    2    0    0  0.24414064428E+02  0.25143401601E+02 -0.16336155732E+02  0.38666615705E+02  0.00000000000E+00 0. -1.
<mgrwt>
<rscale>  0 0.19423919E+03</rscale>
<asrwt>0</asrwt>
<pdfrwt beam="2">  1        3 0.64127744E-01 0.23870304E+03</pdfrwt>
<pdfrwt beam="1">  1       -3 0.10887791E-01 0.23870304E+03</pdfrwt>
<totfact> 0.38226009E+02</totfact>
</mgrwt>
</event>
<event>
 7    1  0.4230786E-006  0.2730516E+03  0.7546771E-02  0.1101522E+00
         -2   -1    0    0    0  501 -0.00000000000E+00  0.00000000000E+00  0.14200012591E+04  0.14200012591E+04  0.00000000000E+00 0.  1.
          2   -1    0    0  501    0  0.00000000000E+00 -0.00000000000E+00 -0.50348141891E+02  0.50348141891E+02  0.00000000000E+00 0. -1.
         23    2    1    2    0    0  0.23955625317E+03  0.39300745129E+02  0.63413533324E+03  0.69042365020E+03  0.12500179554E+03 0.  0.
          5    1    3    3  502    0  0.29910870796E+02  0.30853472066E+01  0.11682773892E+02  0.32599950383E+02  0.47000000000E+01 0. -1.
         -5    1    3    3    0  502  0.20964538237E+03  0.36215397922E+02  0.62245255935E+03  0.65782369982E+03  0.47000000000E+01 0. -1.
        -11    1    1    2    0    0 -0.20048638073E+03 -0.48443767786E+02  0.68518740749E+03  0.71555808351E+03  0.00000000000E+00 0. -1.
         11    1    1    2    0    0 -0.39069872444E+02  0.91430226574E+01  0.50330376516E+02  0.64367667321E+02  0.00000000000E+00 0.  1.
<mgrwt>
<rscale>  0 0.26957752E+03</rscale>
<asrwt>0</asrwt>
<pdfrwt beam="2">  1        2 0.77458691E-02 0.27305164E+03</pdfrwt>
<pdfrwt beam="1">  1       -2 0.21846170E+00 0.27305164E+03</pdfrwt>
<totfact> 0.98021790E+01</totfact>
</mgrwt>
</event>
<event>
 7    1  0.4230786E-006  0.1135742E+03  0.7546771E-02  0.1267292E+00
          1   -1    0    0  501    0  0.00000000000E+00  0.00000000000E+00  0.12342841977E+03  0.12342841977E+03  0.00000000000E+00 0. -1.
         -1   -1    0    0    0  501 -0.00000000000E+00 -0.00000000000E+00 -0.82102458399E+02  0.82102458399E+02  0.00000000000E+00 0.  1.
         23    2    1    2    0    0  0.25530885630E+01 -0.25693602169E+02  0.19855298210E+02  0.11529667736E+03  0.11060023277E+03 0.  0.
          5    1    3    3  502    0 -0.11772783712E+02 -0.62092062181E+02 -0.12162644645E+02  0.64529392891E+02  0.47000000000E+01 0. -1.
         -5    1    3    3    0  502  0.14325872275E+02  0.36398460011E+02  0.32017942855E+02  0.50767284468E+02  0.47000000000E+01 0.  1.
        -11    1    1    2    0    0  0.23860995062E+02  0.57547482660E+01  0.43871489422E+02  0.50270983650E+02  0.00000000000E+00 0. -1.
         11    1    1    2    0    0 -0.26414083625E+02  0.19938853903E+02 -0.22400826260E+02  0.39963217161E+02  0.00000000000E+00 0.  1.
<mgrwt>
<rscale>  0 0.10644823E+03</rscale>
<asrwt>0</asrwt>
<pdfrwt beam="1">  1        1 0.18988988E-01 0.11357416E+03</pdfrwt>
<pdfrwt beam="2">  1       -1 0.12631147E-01 0.11357416E+03</pdfrwt>
<totfact> 0.10673326E+04</totfact>
</mgrwt>
</event>
<event>
 7    1  0.4230786E-006  0.2547690E+03  0.7546771E-02  0.1112680E+00
          1   -1    0    0  501    0  0.00000000000E+00  0.00000000000E+00  0.34174584815E+03  0.34174584815E+03  0.00000000000E+00 0. -1.
         -1   -1    0    0    0  501 -0.00000000000E+00 -0.00000000000E+00 -0.27403739106E+03  0.27403739106E+03  0.00000000000E+00 0.  1.
         23    2    1    2    0    0  0.13440532465E+03 -0.17668280327E+03 -0.14668082588E+03  0.29397704512E+03  0.12500253642E+03 0.  0.
          5    1    3    3  502    0  0.13752872052E+03 -0.13430189799E+03 -0.67131638031E+02  0.20366613757E+03  0.47000000000E+01 0. -1.
         -5    1    3    3    0  502 -0.31233958625E+01 -0.42380905280E+02 -0.79549187854E+02  0.90310907549E+02  0.47000000000E+01 0. -1.
        -11    1    1    2    0    0 -0.70302924045E+02  0.15556228870E+03  0.13524671959E+03  0.21779302550E+03  0.00000000000E+00 0.  1.
         11    1    1    2    0    0 -0.64102400609E+02  0.21120514565E+02  0.79142563386E+02  0.10401316858E+03  0.00000000000E+00 0. -1.
<mgrwt>
<rscale>  0 0.25099172E+03</rscale>
<asrwt>0</asrwt>
<pdfrwt beam="1">  1        1 0.52576284E-01 0.25476899E+03</pdfrwt>
<pdfrwt beam="2">  1       -1 0.42159599E-01 0.25476899E+03</pdfrwt>
<totfact> 0.41954778E+02</totfact>
</mgrwt>
</event>
<event>
 7    1  0.4230786E-006  0.1791600E+03  0.7546771E-02  0.1174186E+00
         -2   -1    0    0    0  501 -0.00000000000E+00  0.00000000000E+00  0.24203281688E+03  0.24203281688E+03  0.00000000000E+00 0.  1.
          2   -1    0    0  501    0  0.00000000000E+00 -0.00000000000E+00 -0.14713379143E+03  0.14713379143E+03  0.00000000000E+00 0. -1.
         23    2    1    2    0    0  0.11866886457E+03 -0.48914923815E+02  0.13737244889E+03  0.22576422951E+03  0.12499331351E+03 0.  0.
          5    1    3    3  502    0  0.56252198224E+02 -0.74911592576E+02  0.12593622044E+03  0.15702890857E+03  0.47000000000E+01 0.  1.
         -5    1    3    3    0  502  0.62416666341E+02  0.25996668761E+02  0.11436228458E+02  0.68735320943E+02  0.47000000000E+01 0.  1.
        -11    1    1    2    0    0 -0.68411539798E+02  0.48560531977E+02 -0.67106638662E+02  0.10743167594E+03  0.00000000000E+00 0. -1.
         11    1    1    2    0    0 -0.50257324767E+02  0.35439183756E+00  0.24633215222E+02  0.55970702858E+02  0.00000000000E+00 0.  1.
<mgrwt>
<rscale>  0 0.17355922E+03</rscale>
<asrwt>0</asrwt>
<pdfrwt beam="2">  1        2 0.22635968E-01 0.17915998E+03</pdfrwt>
<pdfrwt beam="1">  1       -2 0.37235818E-01 0.17915998E+03</pdfrwt>
<totfact> 0.16218623E+03</totfact>
</mgrwt>
</event>
<event>
 7    1  0.4230786E-006  0.1287038E+03  0.7546771E-02  0.1243726E+00
          2   -1    0    0  501    0  0.00000000000E+00  0.00000000000E+00  0.64737521725E+02  0.64737521725E+02  0.00000000000E+00 0.  1.
         -2   -1    0    0    0  501 -0.00000000000E+00 -0.00000000000E+00 -0.19570327365E+03  0.19570327365E+03  0.00000000000E+00 0. -1.
         23    2    1    2    0    0 -0.23328596016E+02 -0.19884974227E+02 -0.82416367137E+02  0.15283041958E+03  0.12500017595E+03 0.  0.
          5    1    3    3  502    0 -0.26330753866E+02 -0.66029363278E+02 -0.18148876451E+02  0.73516373214E+02  0.47000000000E+01 0.  1.
         -5    1    3    3    0  502  0.30021578501E+01  0.46144389051E+02 -0.64267490686E+02  0.79314046371E+02  0.47000000000E+01 0.  1.
        -11    1    1    2    0    0 -0.72271690036E+01 -0.14344703548E+02  0.19670532843E+02  0.25395518385E+02  0.00000000000E+00 0.  1.
         11    1    1    2    0    0  0.30555765019E+02  0.34229677775E+02 -0.68219917631E+02  0.82214857405E+02  0.00000000000E+00 0. -1.
<mgrwt>
<rscale>  0 0.11961961E+03</rscale>
<asrwt>0</asrwt>
<pdfrwt beam="1">  1        2 0.99596189E-02 0.12870384E+03</pdfrwt>
<pdfrwt beam="2">  1       -2 0.30108195E-01 0.12870384E+03</pdfrwt>
<totfact> 0.61719804E+03</totfact>
</mgrwt>
</event>
<event>
 7    1  0.4230786E-006  0.1383835E+03  0.7546771E-02  0.1226773E+00
          2   -1    0    0  501    0  0.00000000000E+00  0.00000000000E+00  0.40369240449E+03  0.40369240449E+03  0.00000000000E+00 0. -1.
         -2   -1    0    0    0  501 -0.00000000000E+00 -0.00000000000E+00 -0.43494075336E+02  0.43494075336E+02  0.00000000000E+00 0.  1.
         23    2    1    2    0    0 -0.95237333203E+01  0.58605449093E+02  0.11954210917E+03  0.18286689539E+03  0.12499874162E+03 0.  0.
          5    1    3    3  502    0  0.11820498905E+02  0.67703404406E+01  0.12547578698E+03  0.12630053374E+03  0.47000000000E+01 0. -1.
         -5    1    3    3    0  502 -0.21344232226E+02  0.51835108653E+02 -0.59336778147E+01  0.56566361654E+02  0.47000000000E+01 0. -1.
        -11    1    1    2    0    0 -0.22611734477E+02 -0.70091182237E+02  0.14261759608E+03  0.16051119299E+03  0.00000000000E+00 0. -1.
         11    1    1    2    0    0  0.32135467797E+02  0.11485733144E+02  0.98038623909E+02  0.10380839145E+03  0.00000000000E+00 0.  1.
<mgrwt>
<rscale>  0 0.13046125E+03</rscale>
<asrwt>0</asrwt>
<pdfrwt beam="1">  1        2 0.62106521E-01 0.13838347E+03</pdfrwt>
<pdfrwt beam="2">  1       -2 0.66913965E-02 0.13838347E+03</pdfrwt>
<totfact> 0.94024188E+03</totfact>
</mgrwt>
</event>
<event>
 7    1  0.4230786E-006  0.1367616E+03  0.7546771E-02  0.1225685E+00
         -4   -1    0    0    0  501 -0.00000000000E+00  0.00000000000E+00  0.50486670609E+03  0.50486670609E+03  0.00000000000E+00 0.  1.
          4   -1    0    0  501    0  0.00000000000E+00 -0.00000000000E+00 -0.54832813829E+02  0.54832813829E+02  0.00000000000E+00 0. -1.
         23    2    1    2    0    0  0.47555590537E+02 -0.28630218636E+02  0.41757325057E+03  0.43939863147E+03  0.12499005613E+03 0.  0.
          5    1    3    3  502    0 -0.28207359802E+02 -0.30642049139E+02  0.56056175990E+02  0.69992679540E+02  0.47000000000E+01 0. -1.
         -5    1    3    3    0  502  0.75762950339E+02  0.20118305035E+01  0.36151707458E+03  0.36940595193E+03  0.47000000000E+01 0. -1.
        -11    1    1    2    0    0 -0.67719590345E+02 -0.13016922516E+02  0.25426605769E+02  0.73497588187E+02  0.00000000000E+00 0.  1.
         11    1    1    2    0    0  0.20163999809E+02  0.41647141151E+02  0.70340359215E+01  0.46803300265E+02  0.00000000000E+00 0. -1.
<mgrwt>
<rscale>  0 0.13120083E+03</rscale>
<asrwt>0</asrwt>
<pdfrwt beam="2">  1        4 0.84358178E-02 0.13676161E+03</pdfrwt>
<pdfrwt beam="1">  1       -4 0.77671798E-01 0.13676161E+03</pdfrwt>
<totfact> 0.25615054E+02</totfact>
</mgrwt>
</event>
<event>
 7    1  0.4230786E-006  0.1275944E+03  0.7546771E-02  0.1244377E+00
         -2   -1    0    0    0  501 -0.00000000000E+00  0.00000000000E+00  0.38660410159E+02  0.38660410159E+02  0.00000000000E+00 0.  1.
          2   -1    0    0  501    0  0.00000000000E+00 -0.00000000000E+00 -0.32868992313E+03  0.32868992313E+03  0.00000000000E+00 0. -1.
         23    2    1    2    0    0 -0.20758078716E+02  0.15059166839E+02 -0.15140084263E+03  0.19799632714E+03  0.12499061595E+03 0.  0.
          5    1    3    3  502    0 -0.14439370530E+02  0.91494511273E+01 -0.17318522198E+03  0.17409026104E+03  0.47000000000E+01 0.  1.
         -5    1    3    3    0  502 -0.63187081857E+01  0.59097157117E+01  0.21784379348E+02  0.23906066102E+02  0.47000000000E+01 0.  1.
        -11    1    1    2    0    0 -0.30943364055E+02 -0.17940209205E+02 -0.22638584098E+02  0.42330230041E+02  0.00000000000E+00 0.  1.
         11    1    1    2    0    0  0.51701442771E+02  0.28810423660E+01 -0.11599008625E+03  0.12702377611E+03  0.00000000000E+00 0. -1.
<mgrwt>
<rscale>  0 0.11922754E+03</rscale>
<asrwt>0</asrwt>
<pdfrwt beam="2">  1        2 0.50567678E-01 0.12759440E+03</pdfrwt>
<pdfrwt beam="1">  1       -2 0.59477557E-02 0.12759440E+03</pdfrwt>
<totfact> 0.13906609E+04</totfact>
</mgrwt>
</event>
<event>
 7    1  0.4230786E-006  0.1280299E+03  0.7546771E-02  0.1243880E+00
         -1   -1    0    0    0  501 -0.00000000000E+00  0.00000000000E+00  0.15551864351E+03  0.15551864351E+03  0.00000000000E+00 0.  1.
          1   -1    0    0  501    0  0.00000000000E+00 -0.00000000000E+00 -0.87086264450E+02  0.87086264450E+02  0.00000000000E+00 0. -1.
         23    2    1    2    0    0  0.17254589781E+02  0.21721322293E+02  0.68803277754E+02  0.14534628464E+03  0.12498845834E+03 0.  0.
          5    1    3    3  502    0 -0.43579512609E+02 -0.89801523509E+00  0.67220680899E+02  0.80253911376E+02  0.47000000000E+01 0. -1.
         -5    1    3    3    0  502  0.60834102390E+02  0.22619337528E+02  0.15825968550E+01  0.65092373260E+02  0.47000000000E+01 0. -1.
        -11    1    1    2    0    0 -0.14025264955E+02  0.73011780384E+01  0.42523304801E+02  0.45367903952E+02  0.00000000000E+00 0.  1.
         11    1    1    2    0    0 -0.32293248258E+01 -0.29022500332E+02 -0.42894203491E+02  0.51890719377E+02  0.00000000000E+00 0. -1.
<mgrwt>
<rscale>  0 0.11952665E+03</rscale>
<asrwt>0</asrwt>
<pdfrwt beam="2">  1        1 0.13397887E-01 0.12802988E+03</pdfrwt>
<pdfrwt beam="1">  1       -1 0.23925945E-01 0.12802988E+03</pdfrwt>
<totfact> 0.61372095E+03</totfact>
</mgrwt>
</event>
<event>
 7    1  0.4230786E-006  0.1673976E+03  0.7546771E-02  0.1186256E+00
         -3   -1    0    0    0  501 -0.00000000000E+00  0.00000000000E+00  0.24369878767E+03  0.24369878767E+03  0.00000000000E+00 0.  1.
          3   -1    0    0  501    0  0.00000000000E+00 -0.00000000000E+00 -0.10810799244E+03  0.10810799244E+03  0.00000000000E+00 0. -1.
         23    2    1    2    0    0 -0.88019192217E+02  0.68176447988E+02  0.11452136603E+03  0.20282283301E+03  0.12500620807E+03 0.  0.
          5    1    3    3  502    0  0.70703397492E+01  0.28176188371E+01  0.82501156565E+02  0.82984694460E+02  0.47000000000E+01 0.  1.
         -5    1    3    3    0  502 -0.95089531966E+02  0.65358829151E+02  0.32020209460E+02  0.11983813855E+03  0.47000000000E+01 0.  1.
        -11    1    1    2    0    0  0.84370676724E+01 -0.25519047304E+02 -0.33909020292E+02  0.43269244775E+02  0.00000000000E+00 0. -1.
         11    1    1    2    0    0  0.79582124545E+02 -0.42657400684E+02  0.54978449497E+02  0.10571470233E+03  0.00000000000E+00 0.  1.
<mgrwt>
<rscale>  0 0.16218104E+03</rscale>
<asrwt>0</asrwt>
<pdfrwt beam="2">  1        3 0.16631999E-01 0.16739761E+03</pdfrwt>
<pdfrwt beam="1">  1       -3 0.37492121E-01 0.16739761E+03</pdfrwt>
<totfact> 0.52138857E+02</totfact>
</mgrwt>
</event>
<event>
 7    1  0.4230786E-006  0.1923369E+03  0.7546771E-02  0.1161047E+00
          2   -1    0    0  501    0  0.00000000000E+00  0.00000000000E+00  0.64571384691E+03  0.64571384691E+03  0.00000000000E+00 0. -1.
         -2   -1    0    0    0  501 -0.00000000000E+00 -0.00000000000E+00 -0.52650805978E+02  0.52650805978E+02  0.00000000000E+00 0.  1.
         23    2    1    2    0    0 -0.12543214276E+03 -0.75121992558E+02  0.36339953037E+03  0.41116020817E+03  0.12496784347E+03 0.  0.
          5    1    3    3  502    0 -0.52197795764E+02 -0.83555645496E+02  0.11250827965E+03  0.14962071637E+03  0.47000000000E+01 0. -1.
         -5    1    3    3    0  502 -0.73234346995E+02  0.84336529373E+01  0.25089125072E+03  0.26153949180E+03  0.47000000000E+01 0. -1.
        -11    1    1    2    0    0  0.86161970983E+02  0.67942042145E+02  0.89902422772E+02  0.14185362863E+03  0.00000000000E+00 0. -1.
         11    1    1    2    0    0  0.39270171775E+02  0.71799504134E+01  0.13976108779E+03  0.14535081609E+03  0.00000000000E+00 0.  1.
<mgrwt>
<rscale>  0 0.18716153E+03</rscale>
<asrwt>0</asrwt>
<pdfrwt beam="1">  1        2 0.99340586E-01 0.19233694E+03</pdfrwt>
<pdfrwt beam="2">  1       -2 0.81001245E-02 0.19233694E+03</pdfrwt>
<totfact> 0.42231552E+03</totfact>
</mgrwt>
</event>
<event>
 7    1  0.4230786E-006  0.1263525E+03  0.7546771E-02  0.1248096E+00
         -1   -1    0    0    0  501 -0.00000000000E+00  0.00000000000E+00  0.13418209561E+03  0.13418209561E+03  0.00000000000E+00 0.  1.
          1   -1    0    0  501    0  0.00000000000E+00 -0.00000000000E+00 -0.91292955083E+02  0.91292955083E+02  0.00000000000E+00 0. -1.
         23    2    1    2    0    0  0.12601514801E+02  0.13426786101E+02  0.39776918784E+02  0.13246566685E+03  0.12500349141E+03 0.  0.
          5    1    3    3  502    0  0.18745297484E+02  0.68056023765E+02  0.27759211305E+02  0.75997844448E+02  0.47000000000E+01 0. -1.
         -5    1    3    3    0  502 -0.61437826839E+01 -0.54629237664E+02  0.12017707479E+02  0.56467822399E+02  0.47000000000E+01 0. -1.
        -11    1    1    2    0    0 -0.48401369818E+02 -0.38699286920E+01 -0.16248894014E+02  0.51202495105E+02  0.00000000000E+00 0. -1.
         11    1    1    2    0    0  0.35799855017E+02 -0.95568574091E+01  0.19361115756E+02  0.41806888740E+02  0.00000000000E+00 0.  1.
<mgrwt>
<rscale>  0 0.11701963E+03</rscale>
<asrwt>0</asrwt>
<pdfrwt beam="2">  1        1 0.14045070E-01 0.12635248E+03</pdfrwt>
<pdfrwt beam="1">  1       -1 0.20643399E-01 0.12635248E+03</pdfrwt>
<totfact> 0.73236664E+03</totfact>
</mgrwt>
</event>
<event>
 7    1  0.4230786E-006  0.1292327E+03  0.7546771E-02  0.1245336E+00
         -1   -1    0    0    0  501 -0.00000000000E+00  0.00000000000E+00  0.27749917375E+03  0.27749917375E+03  0.00000000000E+00 0.  1.
          1   -1    0    0  501    0  0.00000000000E+00 -0.00000000000E+00 -0.58554901918E+02  0.58554901918E+02  0.00000000000E+00 0. -1.
         23    2    1    2    0    0 -0.22003152238E+02 -0.24332446204E+02  0.20618670703E+03  0.24333937650E+03  0.12499954942E+03 0.  0.
          5    1    3    3  502    0  0.23772144369E+02 -0.34899770800E+02  0.18800441971E+03  0.19274558538E+03  0.47000000000E+01 0. -1.
         -5    1    3    3    0  502 -0.45775296607E+02  0.10567324596E+02  0.18182287312E+02  0.50593791126E+02  0.47000000000E+01 0. -1.
        -11    1    1    2    0    0  0.40165282831E+02  0.31715630859E+02 -0.19664878297E+02  0.54825528945E+02  0.00000000000E+00 0. -1.
         11    1    1    2    0    0 -0.18162130593E+02 -0.73831846547E+01  0.32422443103E+02  0.37889170222E+02  0.00000000000E+00 0.  1.
<mgrwt>
<rscale>  0 0.11865302E+03</rscale>
<asrwt>0</asrwt>
<pdfrwt beam="2">  1        1 0.90084466E-02 0.12923271E+03</pdfrwt>
<pdfrwt beam="1">  1       -1 0.42692180E-01 0.12923271E+03</pdfrwt>
<totfact> 0.38814941E+03</totfact>
</mgrwt>
</event>
<event>
 7    1  0.4230786E-006  0.1698112E+03  0.7546771E-02  0.1184686E+00
         -1   -1    0    0    0  501 -0.00000000000E+00  0.00000000000E+00  0.76789583178E+03  0.76789583178E+03  0.00000000000E+00 0. -1.
          1   -1    0    0  501    0  0.00000000000E+00 -0.00000000000E+00 -0.33232632487E+02  0.33232632487E+02  0.00000000000E+00 0.  1.
         23    2    1    2    0    0  0.46187585855E+02 -0.10525058124E+03  0.33618911892E+03  0.37664167855E+03  0.12499940962E+03 0.  0.
          5    1    3    3  502    0  0.23426897549E+02 -0.74689737369E+02  0.62515099498E+02  0.10028760672E+03  0.47000000000E+01 0.  1.
         -5    1    3    3    0  502  0.22760688306E+02 -0.30560843872E+02  0.27367401942E+03  0.27635407183E+03  0.47000000000E+01 0.  1.
        -11    1    1    2    0    0 -0.28446817429E+02  0.64750175186E+02  0.35675016880E+03  0.36369285056E+03  0.00000000000E+00 0. -1.
         11    1    1    2    0    0 -0.17740768426E+02  0.40500406055E+02  0.41723911575E+02  0.60793935159E+02  0.00000000000E+00 0.  1.
<mgrwt>
<rscale>  0 0.16360451E+03</rscale>
<asrwt>0</asrwt>
<pdfrwt beam="2">  1        1 0.51127133E-02 0.16981116E+03</pdfrwt>
<pdfrwt beam="1">  1       -1 0.11813781E+00 0.16981116E+03</pdfrwt>
<totfact> 0.10946857E+03</totfact>
</mgrwt>
</event>
<event>
 7    1  0.6920118E-006  0.1858467E+03  0.7546771E-02  0.1167367E+00
         -1   -1    0    0    0  501 -0.00000000000E+00  0.00000000000E+00  0.69743254302E+02  0.69743254302E+02  0.00000000000E+00 0.  1.
          1   -1    0    0  501    0  0.00000000000E+00 -0.00000000000E+00 -0.44894179272E+03  0.44894179272E+03  0.00000000000E+00 0. -1.
         23    2    1    2    0    0  0.30910693454E+02  0.13400897807E+03 -0.16771824703E+03  0.25033659180E+03  0.12500048653E+03 0.  0.
          5    1    3    3  502    0 -0.44088540936E+02  0.33036538477E+02 -0.26975943447E+02  0.61522384879E+02  0.47000000000E+01 0.  1.
         -5    1    3    3    0  502  0.74999234390E+02  0.10097243959E+03 -0.14074230359E+03  0.18881420692E+03  0.47000000000E+01 0.  1.
        -11    1    1    2    0    0 -0.22550491800E+02 -0.54848258384E+02 -0.16688085554E+03  0.17710470370E+03  0.00000000000E+00 0. -1.
         11    1    1    2    0    0 -0.83602016545E+01 -0.79160719686E+02 -0.44599435839E+02  0.91243751513E+02  0.00000000000E+00 0.  1.
<mgrwt>
<rscale>  0 0.18045154E+03</rscale>
<asrwt>0</asrwt>
<pdfrwt beam="2">  1        1 0.69067969E-01 0.18584671E+03</pdfrwt>
<pdfrwt beam="1">  1       -1 0.10729731E-01 0.18584671E+03</pdfrwt>
<totfact> 0.28037755E+03</totfact>
</mgrwt>
</event>
<event>
 7    1  0.4230786E-006  0.1281979E+03  0.7546771E-02  0.1243930E+00
         -1   -1    0    0    0  501 -0.00000000000E+00  0.00000000000E+00  0.44852816242E+03  0.44852816242E+03  0.00000000000E+00 0.  1.
          1   -1    0    0  501    0  0.00000000000E+00 -0.00000000000E+00 -0.34858510917E+02  0.34858510917E+02  0.00000000000E+00 0. -1.
         23    2    1    2    0    0  0.14436636767E+02  0.24528378013E+02  0.33491886189E+03  0.35861588916E+03  0.12499861640E+03 0.  0.
          5    1    3    3  502    0  0.27296738416E+02  0.23370312611E+02  0.34147382674E+03  0.34339153715E+03  0.47000000000E+01 0.  1.
         -5    1    3    3    0  502 -0.12860101649E+02  0.11580654017E+01 -0.65549648514E+01  0.15224352009E+02  0.47000000000E+01 0.  1.
        -11    1    1    2    0    0  0.39520236076E+02 -0.10109960802E+02  0.36516576821E+02  0.54749618717E+02  0.00000000000E+00 0.  1.
         11    1    1    2    0    0 -0.53956872843E+02 -0.14418417211E+02  0.42234212796E+02  0.70021165460E+02  0.00000000000E+00 0. -1.
<mgrwt>
<rscale>  0 0.11949656E+03</rscale>
<asrwt>0</asrwt>
<pdfrwt beam="2">  1        1 0.53628481E-02 0.12819794E+03</pdfrwt>
<pdfrwt beam="1">  1       -1 0.69004329E-01 0.12819794E+03</pdfrwt>
<totfact> 0.31965487E+03</totfact>
</mgrwt>
</event>
<event>
 7    1  0.4230786E-006  0.1317664E+03  0.7546771E-02  0.1237615E+00
         -2   -1    0    0    0  501 -0.00000000000E+00  0.00000000000E+00  0.13098555040E+03  0.13098555040E+03  0.00000000000E+00 0.  1.
          2   -1    0    0  501    0  0.00000000000E+00 -0.00000000000E+00 -0.15898273257E+03  0.15898273257E+03  0.00000000000E+00 0. -1.
         23    2    1    2    0    0  0.41479640429E+02 -0.40828962613E+01  0.69839933122E+02  0.14913085425E+03  0.12500065927E+03 0.  0.
          5    1    3    3  502    0  0.21139702954E+02  0.57785623682E+02  0.14149548443E+02  0.63311650321E+02  0.47000000000E+01 0. -1.
         -5    1    3    3    0  502  0.20339937476E+02 -0.61868519943E+02  0.55690384679E+02  0.85819203924E+02  0.47000000000E+01 0. -1.
        -11    1    1    2    0    0 -0.60537376759E+02 -0.14538059533E+02 -0.95617998519E+02  0.11410052936E+03  0.00000000000E+00 0.  1.
         11    1    1    2    0    0  0.19057736329E+02  0.18620955794E+02 -0.22191167712E+01  0.26736899370E+02  0.00000000000E+00 0. -1.
<mgrwt>
<rscale>  0 0.12338527E+03</rscale>
<asrwt>0</asrwt>
<pdfrwt beam="2">  1        2 0.24458882E-01 0.13176644E+03</pdfrwt>
<pdfrwt beam="1">  1       -2 0.20151623E-01 0.13176644E+03</pdfrwt>
<totfact> 0.43726280E+03</totfact>
</mgrwt>
</event>
<event>
 7    1  0.4230786E-006  0.1279607E+03  0.7546771E-02  0.1246770E+00
          1   -1    0    0  501    0  0.00000000000E+00  0.00000000000E+00  0.17748303473E+03  0.17748303473E+03  0.00000000000E+00 0. -1.
         -1   -1    0    0    0  501 -0.00000000000E+00 -0.00000000000E+00 -0.77487847771E+02  0.77487847771E+02  0.00000000000E+00 0.  1.
         23    2    1    2    0    0  0.27351404472E+02 -0.55287838588E+00  0.13342898540E+02  0.12865446283E+03  0.12500213144E+03 0.  0.
          5    1    3    3  502    0  0.16178205933E+02  0.15983210828E+01  0.69311714174E+02  0.71347688815E+02  0.47000000000E+01 0. -1.
         -5    1    3    3    0  502  0.11173198539E+02 -0.21511994687E+01 -0.55968815634E+02  0.57306774017E+02  0.47000000000E+01 0. -1.
        -11    1    1    2    0    0 -0.27006039277E+02 -0.27293203536E+02  0.34188498330E+01  0.38547809936E+02  0.00000000000E+00 0.  1.
         11    1    1    2    0    0 -0.34536519495E+00  0.27846081922E+02  0.83233438587E+02  0.87768609734E+02  0.00000000000E+00 0. -1.
<mgrwt>
<rscale>  0 0.11780037E+03</rscale>
<asrwt>0</asrwt>
<pdfrwt beam="1">  1        1 0.27305082E-01 0.12796069E+03</pdfrwt>
<pdfrwt beam="2">  1       -1 0.11921207E-01 0.12796069E+03</pdfrwt>
<totfact> 0.74613666E+03</totfact>
</mgrwt>
</event>
<event>
 7    1  0.4230786E-006  0.1319155E+03  0.7546771E-02  0.1237134E+00
          1   -1    0    0  501    0  0.00000000000E+00  0.00000000000E+00  0.60714561398E+02  0.60714561398E+02  0.00000000000E+00 0. -1.
         -1   -1    0    0    0  501 -0.00000000000E+00 -0.00000000000E+00 -0.24006623446E+03  0.24006623446E+03  0.00000000000E+00 0.  1.
         23    2    1    2    0    0 -0.22422372765E+02 -0.35756719052E+02 -0.13756230662E+03  0.19059140888E+03  0.12498156336E+03 0.  0.
          5    1    3    3  502    0 -0.15119185916E+02 -0.16252781127E+02 -0.15883793044E+03  0.16045036873E+03  0.47000000000E+01 0. -1.
         -5    1    3    3    0  502 -0.73031868494E+01 -0.19503937925E+02  0.21275623821E+02  0.30141040156E+02  0.47000000000E+01 0. -1.
        -11    1    1    2    0    0 -0.10979982234E+02 -0.66694003132E+01 -0.53429140790E+02  0.54951924407E+02  0.00000000000E+00 0.  1.
         11    1    1    2    0    0  0.33402354999E+02  0.42426119365E+02  0.11639774351E+02  0.55237462567E+02  0.00000000000E+00 0. -1.
<mgrwt>
<rscale>  0 0.12368776E+03</rscale>
<asrwt>0</asrwt>
<pdfrwt beam="1">  1        1 0.93407016E-02 0.13191549E+03</pdfrwt>
<pdfrwt beam="2">  1       -1 0.36933267E-01 0.13191549E+03</pdfrwt>
<totfact> 0.47722509E+03</totfact>
</mgrwt>
</event>
<event>
 7    1  0.4230786E-006  0.1281222E+03  0.7546771E-02  0.1244387E+00
         -4   -1    0    0    0  501 -0.00000000000E+00  0.00000000000E+00  0.42678986028E+03  0.42678986028E+03  0.00000000000E+00 0.  1.
          4   -1    0    0  501    0  0.00000000000E+00 -0.00000000000E+00 -0.32695523610E+02  0.32695523610E+02  0.00000000000E+00 0. -1.
         23    2    1    2    0    0 -0.12705674859E+01 -0.28075007260E+02  0.29424869219E+03  0.32093236702E+03  0.12500188388E+03 0.  0.
          5    1    3    3  502    0 -0.42804685238E+02  0.28006228701E+02  0.17799718107E+03  0.18526110329E+03  0.47000000000E+01 0. -1.
         -5    1    3    3    0  502  0.41534117753E+02 -0.56081235962E+02  0.11625151112E+03  0.13567126373E+03  0.47000000000E+01 0. -1.
        -11    1    1    2    0    0 -0.16971453471E+02  0.23005553336E+02  0.11230588979E+03  0.11588743935E+03  0.00000000000E+00 0.  1.
         11    1    1    2    0    0  0.18242020957E+02  0.50694539244E+01 -0.12460245301E+02  0.22665577527E+02  0.00000000000E+00 0. -1.
<mgrwt>
<rscale>  0 0.11922173E+03</rscale>
<asrwt>0</asrwt>
<pdfrwt beam="2">  1        4 0.50300809E-02 0.12812217E+03</pdfrwt>
<pdfrwt beam="1">  1       -4 0.65659974E-01 0.12812217E+03</pdfrwt>
<totfact> 0.84661955E+02</totfact>
</mgrwt>
</event>
<event>
 7    1  0.4230786E-006  0.2076908E+03  0.7546771E-02  0.1147356E+00
         -1   -1    0    0    0  501 -0.00000000000E+00  0.00000000000E+00  0.27955433390E+03  0.27955433390E+03  0.00000000000E+00 0.  1.
          1   -1    0    0  501    0  0.00000000000E+00 -0.00000000000E+00 -0.34720337172E+03  0.34720337172E+03  0.00000000000E+00 0. -1.
         23    2    1    2    0    0  0.85768675039E+02 -0.14193373672E+03  0.20708623339E+03  0.29329195962E+03  0.12503605192E+03 0.  0.
          5    1    3    3  502    0  0.79550234320E+02 -0.15142877088E+03  0.21780817986E+03  0.27698629144E+03  0.47000000000E+01 0. -1.
         -5    1    3    3    0  502  0.62184407192E+01  0.94950341609E+01 -0.10721946471E+02  0.16305668180E+02  0.47000000000E+01 0. -1.
        -11    1    1    2    0    0 -0.27284516700E+02  0.13102066551E+02 -0.12016687469E+03  0.12392008220E+03  0.00000000000E+00 0. -1.
         11    1    1    2    0    0 -0.58484158339E+02  0.12883167017E+03 -0.15456839653E+03  0.20954566381E+03  0.00000000000E+00 0.  1.
<mgrwt>
<rscale>  0 0.20285082E+03</rscale>
<asrwt>0</asrwt>
<pdfrwt beam="2">  1        1 0.53415903E-01 0.20769079E+03</pdfrwt>
<pdfrwt beam="1">  1       -1 0.43008359E-01 0.20769079E+03</pdfrwt>
<totfact> 0.39778368E+02</totfact>
</mgrwt>
</event>
<event>
 7    1  0.4230786E-006  0.1254589E+03  0.7546771E-02  0.1243145E+00
          3   -1    0    0  501    0  0.00000000000E+00  0.00000000000E+00  0.40859648293E+03  0.40859648293E+03  0.00000000000E+00 0. -1.
         -3   -1    0    0    0  501 -0.00000000000E+00 -0.00000000000E+00 -0.32543098006E+02  0.32543098006E+02  0.00000000000E+00 0.  1.
         23    2    1    2    0    0  0.66261502002E+00 -0.10736583649E+02  0.19431304877E+03  0.23129523493E+03  0.12499684594E+03 0.  0.
          5    1    3    3  502    0 -0.67853679517E+01 -0.52523295088E+02  0.29014729876E+02  0.60569648298E+02  0.47000000000E+01 0.  1.
         -5    1    3    3    0  502  0.74479829717E+01  0.41786711439E+02  0.16529831889E+03  0.17072558664E+03  0.47000000000E+01 0.  1.
        -11    1    1    2    0    0  0.30788536829E+02 -0.32453408151E+02  0.46941372449E+02  0.64843273730E+02  0.00000000000E+00 0.  1.
         11    1    1    2    0    0 -0.31451151849E+02  0.43189991800E+02  0.13479896370E+03  0.14500107227E+03  0.00000000000E+00 0. -1.
<mgrwt>
<rscale>  0 0.11997071E+03</rscale>
<asrwt>0</asrwt>
<pdfrwt beam="1">  1        3 0.62860994E-01 0.12545886E+03</pdfrwt>
<pdfrwt beam="2">  1       -3 0.50066307E-02 0.12545886E+03</pdfrwt>
<totfact> 0.12919409E+03</totfact>
</mgrwt>
</event>
<event>
 7    1  0.4230786E-006  0.1389437E+03  0.7546771E-02  0.1226548E+00
          3   -1    0    0  501    0  0.00000000000E+00  0.00000000000E+00  0.13996817765E+03  0.13996817765E+03  0.00000000000E+00 0. -1.
         -3   -1    0    0    0  501 -0.00000000000E+00 -0.00000000000E+00 -0.11111127710E+03  0.11111127710E+03  0.00000000000E+00 0.  1.
         23    2    1    2    0    0 -0.46185726965E+02  0.39361702014E+02  0.54730451337E+00  0.13894474293E+03  0.12499150806E+03 0.  0.
          5    1    3    3  502    0  0.32893241799E+02 -0.10001363750E+02 -0.24290500512E+02  0.42356948049E+02  0.47000000000E+01 0. -1.
         -5    1    3    3    0  502 -0.79078968764E+02  0.49363065765E+02  0.24837805025E+02  0.96587794886E+02  0.47000000000E+01 0. -1.
        -11    1    1    2    0    0  0.57294953035E+02 -0.15331537401E+01  0.41275967243E+02  0.70631208934E+02  0.00000000000E+00 0.  1.
         11    1    1    2    0    0 -0.11109226070E+02 -0.37828548274E+02 -0.12966371206E+02  0.41503502872E+02  0.00000000000E+00 0. -1.
<mgrwt>
<rscale>  0 0.13061374E+03</rscale>
<asrwt>0</asrwt>
<pdfrwt beam="1">  1        3 0.21533566E-01 0.13894367E+03</pdfrwt>
<pdfrwt beam="2">  1       -3 0.17094043E-01 0.13894367E+03</pdfrwt>
<totfact> 0.13438990E+03</totfact>
</mgrwt>
</event>
<event>
 6    1  0.4230786E-006  0.1358265E+03  0.7546771E-02  0.1238723E+00
         -4   -1    0    0    0  501 -0.00000000000E+00  0.00000000000E+00  0.45412486582E+03  0.45412486582E+03  0.00000000000E+00 0.  1.
          4   -1    0    0  501    0  0.00000000000E+00 -0.00000000000E+00 -0.30166517506E+02  0.30166517506E+02  0.00000000000E+00 0. -1.
          5    1    1    2  502    0 -0.39035224731E+02 -0.60657862483E+02  0.17728794570E+03  0.19145816969E+03  0.47000000000E+01 0. -1.
         -5    1    1    2    0  502  0.34309503836E+02  0.52959167631E+02  0.13537671575E+03  0.14943480404E+03  0.47000000000E+01 0.  1.
        -11    1    1    2    0    0  0.37152529432E+02 -0.23709978678E+02  0.43316942896E+02  0.61796691448E+02  0.00000000000E+00 0. -1.
         11    1    1    2    0    0 -0.32426808536E+02  0.31408673530E+02  0.67976743966E+02  0.81601718150E+02  0.00000000000E+00 0.  1.
<mgrwt>
<rscale>  0 0.12269062E+03</rscale>
<asrwt>0</asrwt>
<pdfrwt beam="2">  1        4 0.46410030E-02 0.13582647E+03</pdfrwt>
<pdfrwt beam="1">  1       -4 0.69865359E-01 0.13582647E+03</pdfrwt>
<totfact> 0.85361031E+02</totfact>
</mgrwt>
</event>
<event>
 7    1  0.4230786E-006  0.2547859E+03  0.7546771E-02  0.1112666E+00
          2   -1    0    0  501    0  0.00000000000E+00  0.00000000000E+00  0.74222959362E+03  0.74222959362E+03  0.00000000000E+00 0. -1.
         -2   -1    0    0    0  501 -0.00000000000E+00 -0.00000000000E+00 -0.87408725702E+02  0.87408725702E+02  0.00000000000E+00 0.  1.
         23    2    1    2    0    0 -0.19994377502E+03  0.96502371143E+02  0.23803539433E+03  0.34867848743E+03  0.12500247133E+03 0.  0.
          5    1    3    3  502    0 -0.16703529528E+03  0.18472863377E+02  0.13782473577E+03  0.21739315615E+03  0.47000000000E+01 0.  1.
         -5    1    3    3    0  502 -0.32908479742E+02  0.78029507766E+02  0.10021065856E+03  0.13128533128E+03  0.47000000000E+01 0.  1.
        -11    1    1    2    0    0  0.14037744806E+03 -0.34926575330E+02  0.32312073642E+03  0.35402359229E+03  0.00000000000E+00 0. -1.
         11    1    1    2    0    0  0.59566326961E+02 -0.61575795813E+02  0.93664737167E+02  0.12693623961E+03  0.00000000000E+00 0.  1.
<mgrwt>
<rscale>  0 0.25101278E+03</rscale>
<asrwt>0</asrwt>
<pdfrwt beam="1">  1        2 0.11418916E+00 0.25478587E+03</pdfrwt>
<pdfrwt beam="2">  1       -2 0.13447497E-01 0.25478587E+03</pdfrwt>
<totfact> 0.15992444E+03</totfact>
</mgrwt>
</event>
<event>
 7    1  0.4230786E-006  0.1335339E+03  0.7546771E-02  0.1233330E+00
          2   -1    0    0  501    0  0.00000000000E+00  0.00000000000E+00  0.12579904317E+03  0.12579904317E+03  0.00000000000E+00 0. -1.
         -2   -1    0    0    0  501 -0.00000000000E+00 -0.00000000000E+00 -0.11452600607E+03  0.11452600607E+03  0.00000000000E+00 0.  1.
         23    2    1    2    0    0 -0.14648335529E+02 -0.44627705196E+02  0.61055184819E+00  0.13353529604E+03  0.12500038684E+03 0.  0.
          5    1    3    3  502    0 -0.36412711921E+02 -0.77571651649E+02 -0.20896193704E+02  0.88328860744E+02  0.47000000000E+01 0. -1.
         -5    1    3    3    0  502  0.21764376392E+02  0.32943946454E+02  0.21506745553E+02  0.45206435293E+02  0.47000000000E+01 0. -1.
        -11    1    1    2    0    0  0.38542183475E+02  0.43305583828E+02 -0.25575053650E+02  0.63363687290E+02  0.00000000000E+00 0.  1.
         11    1    1    2    0    0 -0.23893847946E+02  0.13221213680E+01  0.36237538909E+02  0.43426065914E+02  0.00000000000E+00 0. -1.
<mgrwt>
<rscale>  0 0.12611947E+03</rscale>
<asrwt>0</asrwt>
<pdfrwt beam="1">  1        2 0.19353699E-01 0.13353390E+03</pdfrwt>
<pdfrwt beam="2">  1       -2 0.17619386E-01 0.13353390E+03</pdfrwt>
<totfact> 0.71248984E+03</totfact>
</mgrwt>
</event>
<event>
 7    1  0.4230786E-006  0.1482416E+03  0.7546771E-02  0.1211622E+00
         -2   -1    0    0    0  501 -0.00000000000E+00  0.00000000000E+00  0.42553234755E+03  0.42553234755E+03  0.00000000000E+00 0.  1.
          2   -1    0    0  501    0  0.00000000000E+00 -0.00000000000E+00 -0.43480439564E+02  0.43480439564E+02  0.00000000000E+00 0. -1.
         23    2    1    2    0    0  0.78948439779E+02 -0.10850380378E+02  0.23381931451E+03  0.27685201202E+03  0.12499991128E+03 0.  0.
          5    1    3    3  502    0  0.15464411722E+02 -0.63175587508E+02  0.90763088863E+02  0.11176015026E+03  0.47000000000E+01 0. -1.
         -5    1    3    3    0  502  0.63484028057E+02  0.52325207130E+02  0.14305622565E+03  0.16509186175E+03  0.47000000000E+01 0. -1.
        -11    1    1    2    0    0 -0.13700232470E+02  0.44074502618E+02  0.78411238752E+02  0.90986705146E+02  0.00000000000E+00 0.  1.
         11    1    1    2    0    0 -0.65248207309E+02 -0.33224122240E+02  0.69821354723E+02  0.10117406995E+03  0.00000000000E+00 0. -1.
<mgrwt>
<rscale>  0 0.14127589E+03</rscale>
<asrwt>0</asrwt>
<pdfrwt beam="2">  1        2 0.66892987E-02 0.14824158E+03</pdfrwt>
<pdfrwt beam="1">  1       -2 0.65466512E-01 0.14824158E+03</pdfrwt>
<totfact> 0.22794824E+03</totfact>
</mgrwt>
</event>
<event>
 7    1  0.4230786E-006  0.1425041E+03  0.7546771E-02  0.1221815E+00
          2   -1    0    0  501    0  0.00000000000E+00  0.00000000000E+00  0.66612832503E+02  0.66612832503E+02  0.00000000000E+00 0. -1.
         -2   -1    0    0    0  501 -0.00000000000E+00 -0.00000000000E+00 -0.29796832903E+03  0.29796832903E+03  0.00000000000E+00 0.  1.
         23    2    1    2    0    0 -0.48283896893E+02 -0.48492712602E+02 -0.20638819837E+03  0.25080568749E+03  0.12499810628E+03 0.  0.
          5    1    3    3  502    0  0.40617356408E+02 -0.28573290218E+02 -0.56799572445E+02  0.75594206031E+02  0.47000000000E+01 0. -1.
         -5    1    3    3    0  502 -0.88901253301E+02 -0.19919422383E+02 -0.14958862593E+03  0.17521148146E+03  0.47000000000E+01 0. -1.
        -11    1    1    2    0    0  0.86317054178E+01 -0.24737328645E+02 -0.14215248287E+02  0.29807969585E+02  0.00000000000E+00 0.  1.
         11    1    1    2    0    0  0.39652191475E+02  0.73230041247E+02 -0.10752049871E+02  0.83967504466E+02  0.00000000000E+00 0. -1.
<mgrwt>
<rscale>  0 0.13387618E+03</rscale>
<asrwt>0</asrwt>
<pdfrwt beam="1">  1        2 0.10248128E-01 0.14250405E+03</pdfrwt>
<pdfrwt beam="2">  1       -2 0.45841281E-01 0.14250405E+03</pdfrwt>
<totfact> 0.27359944E+03</totfact>
</mgrwt>
</event>
<event>
 7    1  0.4230786E-006  0.1348674E+03  0.7546771E-02  0.1232311E+00
          2   -1    0    0  501    0  0.00000000000E+00  0.00000000000E+00  0.24440266698E+03  0.24440266698E+03  0.00000000000E+00 0. -1.
         -2   -1    0    0    0  501 -0.00000000000E+00 -0.00000000000E+00 -0.59099097636E+02  0.59099097636E+02  0.00000000000E+00 0.  1.
         23    2    1    2    0    0 -0.50533737428E+02 -0.31200646344E+01  0.98194072663E+02  0.16682712945E+03  0.12500328713E+03 0.  0.
          5    1    3    3  502    0 -0.10391020842E+02  0.59233367058E+02  0.39072928620E+02  0.71870361333E+02  0.47000000000E+01 0. -1.
         -5    1    3    3    0  502 -0.40142716586E+02 -0.62353431693E+02  0.59121144043E+02  0.94956768120E+02  0.47000000000E+01 0. -1.
        -11    1    1    2    0    0  0.65599259510E+02 -0.69857483974E+01  0.95992221301E+02  0.11647562011E+03  0.00000000000E+00 0. -1.
         11    1    1    2    0    0 -0.15065522082E+02  0.10105813032E+02 -0.88827246201E+01  0.20199015058E+02  0.00000000000E+00 0.  1.
<mgrwt>
<rscale>  0 0.12678151E+03</rscale>
<asrwt>0</asrwt>
<pdfrwt beam="1">  1        2 0.37600410E-01 0.13486740E+03</pdfrwt>
<pdfrwt beam="2">  1       -2 0.90921690E-02 0.13486740E+03</pdfrwt>
<totfact> 0.99696142E+03</totfact>
</mgrwt>
</event>
<event>
 7    1  0.4230786E-006  0.1404129E+03  0.7546771E-02  0.1223757E+00
          4   -1    0    0  501    0  0.00000000000E+00  0.00000000000E+00  0.12639199899E+03  0.12639199899E+03  0.00000000000E+00 0. -1.
         -4   -1    0    0    0  501 -0.00000000000E+00 -0.00000000000E+00 -0.12580418752E+03  0.12580418752E+03  0.00000000000E+00 0.  1.
         23    2    1    2    0    0 -0.63564404881E+02  0.71129461191E+01 -0.63811542836E+01  0.14055783223E+03  0.12499903000E+03 0.  0.
          5    1    3    3  502    0  0.44497193005E+01  0.34123823180E+02 -0.45660072692E+02  0.57368698334E+02  0.47000000000E+01 0.  1.
         -5    1    3    3    0  502 -0.68014124181E+02 -0.27010877061E+02  0.39278918408E+02  0.83189133900E+02  0.47000000000E+01 0.  1.
        -11    1    1    2    0    0  0.11536717383E+02 -0.40518036377E+02 -0.16859742399E+02  0.45376844685E+02  0.00000000000E+00 0.  1.
         11    1    1    2    0    0  0.52027687497E+02  0.33405090258E+02  0.23828708153E+02  0.66261509594E+02  0.00000000000E+00 0. -1.
<mgrwt>
<rscale>  0 0.13252465E+03</rscale>
<asrwt>0</asrwt>
<pdfrwt beam="1">  1        4 0.19444923E-01 0.14041291E+03</pdfrwt>
<pdfrwt beam="2">  1       -4 0.19354490E-01 0.14041291E+03</pdfrwt>
<totfact> 0.94516947E+02</totfact>
</mgrwt>
</event>
<event>
 7    1  0.4230786E-006  0.1371903E+03  0.7546771E-02  0.1228931E+00
          1   -1    0    0  501    0  0.00000000000E+00  0.00000000000E+00  0.49338335826E+02  0.49338335826E+02  0.00000000000E+00 0. -1.
         -1   -1    0    0    0  501 -0.00000000000E+00 -0.00000000000E+00 -0.31730483561E+03  0.31730483561E+03  0.00000000000E+00 0.  1.
         23    2    1    2    0    0  0.53045087954E+02  0.19542938667E+02 -0.18847883636E+03  0.23312111807E+03  0.12500190450E+03 0.  0.
          5    1    3    3  502    0 -0.13501600664E+02  0.14786458078E+02  0.10578336021E+02  0.23128418795E+02  0.47000000000E+01 0.  1.
         -5    1    3    3    0  502  0.66546688618E+02  0.47564805891E+01 -0.19905717238E+03  0.20999269928E+03  0.47000000000E+01 0.  1.
        -11    1    1    2    0    0 -0.75284704546E+02  0.31994800171E+01 -0.58767962233E+02  0.95559912077E+02  0.00000000000E+00 0.  1.
         11    1    1    2    0    0  0.22239616592E+02 -0.22742418684E+02 -0.20719701194E+02  0.37962141290E+02  0.00000000000E+00 0. -1.
<mgrwt>
<rscale>  0 0.12901087E+03</rscale>
<asrwt>0</asrwt>
<pdfrwt beam="1">  1        1 0.75905127E-02 0.13719032E+03</pdfrwt>
<pdfrwt beam="2">  1       -1 0.48816132E-01 0.13719032E+03</pdfrwt>
<totfact> 0.38520376E+03</totfact>
</mgrwt>
</event>
<event>
 7    1  0.4230786E-006  0.1493687E+03  0.7546771E-02  0.1210527E+00
          2   -1    0    0  501    0  0.00000000000E+00  0.00000000000E+00  0.34210309108E+03  0.34210309108E+03  0.00000000000E+00 0.  1.
         -2   -1    0    0    0  501 -0.00000000000E+00 -0.00000000000E+00 -0.54073900856E+02  0.54073900856E+02  0.00000000000E+00 0. -1.
         23    2    1    2    0    0 -0.80591619709E+02  0.13803852211E+02  0.14915651373E+03  0.21108925421E+03  0.12500180859E+03 0.  0.
          5    1    3    3  502    0  0.11461566930E+02 -0.21608641229E+02 -0.74100639166E+01  0.25986533811E+02  0.47000000000E+01 0. -1.
         -5    1    3    3    0  502 -0.92053186639E+02  0.35412493440E+02  0.15656657765E+03  0.18510272040E+03  0.47000000000E+01 0. -1.
        -11    1    1    2    0    0  0.60927160477E+02 -0.51468512678E+02  0.94366222395E+02  0.12355610309E+03  0.00000000000E+00 0.  1.
         11    1    1    2    0    0  0.19664459232E+02  0.37664660467E+02  0.44506454096E+02  0.61531634638E+02  0.00000000000E+00 0. -1.
<mgrwt>
<rscale>  0 0.14210329E+03</rscale>
<asrwt>0</asrwt>
<pdfrwt beam="1">  1        2 0.52631243E-01 0.14936870E+03</pdfrwt>
<pdfrwt beam="2">  1       -2 0.83190619E-02 0.14936870E+03</pdfrwt>
<totfact> 0.80655014E+03</totfact>
</mgrwt>
</event>
<event>
 7    1  0.4230786E-006  0.1369834E+03  0.7546771E-02  0.1229113E+00
          1   -1    0    0  501    0  0.00000000000E+00  0.00000000000E+00  0.84342554121E+02  0.84342554121E+02  0.00000000000E+00 0. -1.
         -1   -1    0    0    0  501 -0.00000000000E+00 -0.00000000000E+00 -0.18309269160E+03  0.18309269160E+03  0.00000000000E+00 0.  1.
         23    2    1    2    0    0 -0.23406320271E+02 -0.50866754567E+02 -0.79426896682E+02  0.15834485292E+03  0.12501671081E+03 0.  0.
          5    1    3    3  502    0  0.37493864240E+02 -0.42247295810E+02  0.13631317853E+01  0.56697195585E+02  0.47000000000E+01 0. -1.
         -5    1    3    3    0  502 -0.60900184511E+02 -0.86194587571E+01 -0.80790028468E+02  0.10164765734E+03  0.47000000000E+01 0. -1.
        -11    1    1    2    0    0 -0.25798717991E+01 -0.11799365475E+02 -0.37052644759E+02  0.38971518417E+02  0.00000000000E+00 0.  1.
         11    1    1    2    0    0  0.25986192070E+02  0.62666120042E+02  0.17729403963E+02  0.70118874380E+02  0.00000000000E+00 0. -1.
<mgrwt>
<rscale>  0 0.12888937E+03</rscale>
<asrwt>0</asrwt>
<pdfrwt beam="1">  1        1 0.12975777E-01 0.13698343E+03</pdfrwt>
<pdfrwt beam="2">  1       -1 0.28168107E-01 0.13698343E+03</pdfrwt>
<totfact> 0.49111712E+03</totfact>
</mgrwt>
</event>
<event>
 7    1  0.4230786E-006  0.1430539E+03  0.7546771E-02  0.1219005E+00
         -1   -1    0    0    0  501 -0.00000000000E+00  0.00000000000E+00  0.50187597445E+03  0.50187597445E+03  0.00000000000E+00 0.  1.
          1   -1    0    0  501    0  0.00000000000E+00 -0.00000000000E+00 -0.35818584615E+02  0.35818584615E+02  0.00000000000E+00 0. -1.
         23    2    1    2    0    0 -0.65998157725E+02 -0.21983905694E+02  0.32307139046E+03  0.35332638550E+03  0.12500144969E+03 0.  0.
          5    1    3    3  502    0  0.17367196671E+02  0.23506586003E+02  0.17407949443E+03  0.17657842305E+03  0.47000000000E+01 0.  1.
         -5    1    3    3    0  502 -0.83365354396E+02 -0.45490491697E+02  0.14899189603E+03  0.17674796245E+03  0.47000000000E+01 0.  1.
        -11    1    1    2    0    0  0.22617440291E+02 -0.28296453346E+02  0.13155519246E+02  0.38539662219E+02  0.00000000000E+00 0. -1.
         11    1    1    2    0    0  0.43380717433E+02  0.50280359041E+02  0.12983048013E+03  0.14582851135E+03  0.00000000000E+00 0.  1.
<mgrwt>
<rscale>  0 0.13586376E+03</rscale>
<asrwt>0</asrwt>
<pdfrwt beam="2">  1        1 0.55105518E-02 0.14305388E+03</pdfrwt>
<pdfrwt beam="1">  1       -1 0.77211683E-01 0.14305388E+03</pdfrwt>
<totfact> 0.24763684E+03</totfact>
</mgrwt>
</event>
<event>
 7    1  0.4230786E-006  0.1421555E+03  0.7546771E-02  0.1220552E+00
         -2   -1    0    0    0  501 -0.00000000000E+00  0.00000000000E+00  0.45895572584E+02  0.45895572584E+02  0.00000000000E+00 0.  1.
          2   -1    0    0  501    0  0.00000000000E+00 -0.00000000000E+00 -0.36696920633E+03  0.36696920633E+03  0.00000000000E+00 0. -1.
         23    2    1    2    0    0 -0.61517144420E+02 -0.28235085035E+02 -0.14839918370E+03  0.20550063511E+03  0.12500645672E+03 0.  0.
          5    1    3    3  502    0 -0.43137480956E+02 -0.41126431197E+02 -0.16609752658E+03  0.17652961208E+03  0.47000000000E+01 0.  1.
         -5    1    3    3    0  502 -0.18379663464E+02  0.12891346161E+02  0.17698342873E+02  0.28971023029E+02  0.47000000000E+01 0.  1.
        -11    1    1    2    0    0  0.67949600481E+02 -0.15981452809E+02 -0.11287688699E+03  0.13271679116E+03  0.00000000000E+00 0.  1.
         11    1    1    2    0    0 -0.64324560608E+01  0.44216537844E+02 -0.59797563050E+02  0.74647352643E+02  0.00000000000E+00 0. -1.
<mgrwt>
<rscale>  0 0.13476476E+03</rscale>
<asrwt>0</asrwt>
<pdfrwt beam="2">  1        2 0.56456802E-01 0.14215553E+03</pdfrwt>
<pdfrwt beam="1">  1       -2 0.70608572E-02 0.14215553E+03</pdfrwt>
<totfact> 0.96061164E+03</totfact>
</mgrwt>
</event>
<event>
 7    1  0.4230786E-006  0.1307747E+03  0.7546771E-02  0.1240446E+00
         -1   -1    0    0    0  501 -0.00000000000E+00  0.00000000000E+00  0.23630767365E+03  0.23630767365E+03  0.00000000000E+00 0.  1.
          1   -1    0    0  501    0  0.00000000000E+00 -0.00000000000E+00 -0.57302334725E+02  0.57302334725E+02  0.00000000000E+00 0. -1.
         23    2    1    2    0    0 -0.49186237744E+01 -0.38115083996E+02  0.12920000314E+03  0.18383326776E+03  0.12500030815E+03 0.  0.
          5    1    3    3  502    0  0.52762058355E+01  0.40543025548E+02  0.81123280987E+02  0.90965114119E+02  0.47000000000E+01 0.  1.
         -5    1    3    3    0  502 -0.10194829610E+02 -0.78658109544E+02  0.48076722153E+02  0.92868153642E+02  0.47000000000E+01 0.  1.
        -11    1    1    2    0    0  0.17289112736E+02  0.60690739874E+02  0.54771266252E+02  0.83559385664E+02  0.00000000000E+00 0.  1.
         11    1    1    2    0    0 -0.12370488962E+02 -0.22575655878E+02 -0.49659304626E+01  0.26217354955E+02  0.00000000000E+00 0. -1.
<mgrwt>
<rscale>  0 0.12162110E+03</rscale>
<asrwt>0</asrwt>
<pdfrwt beam="2">  1        1 0.88157439E-02 0.13077473E+03</pdfrwt>
<pdfrwt beam="1">  1       -1 0.36355026E-01 0.13077473E+03</pdfrwt>
<totfact> 0.52934401E+03</totfact>
</mgrwt>
</event>
<event>
 7    1  0.4230786E-006  0.1353216E+03  0.7546771E-02  0.1232372E+00
          1   -1    0    0  501    0  0.00000000000E+00  0.00000000000E+00  0.23345576370E+03  0.23345576370E+03  0.00000000000E+00 0. -1.
         -1   -1    0    0    0  501 -0.00000000000E+00 -0.00000000000E+00 -0.62409050957E+02  0.62409050957E+02  0.00000000000E+00 0.  1.
         23    2    1    2    0    0 -0.39784060879E+02  0.33227664958E+02  0.11513069413E+03  0.17767104563E+03  0.12500029802E+03 0.  0.
          5    1    3    3  502    0  0.40772024586E+02  0.66977992210E+01  0.70161538259E+02  0.81559487211E+02  0.47000000000E+01 0.  1.
         -5    1    3    3    0  502 -0.80556085465E+02  0.26529865737E+02  0.44969155874E+02  0.96111558418E+02  0.47000000000E+01 0.  1.
        -11    1    1    2    0    0  0.25064798557E+02 -0.33993261169E+02  0.79708052479E+02  0.90206205782E+02  0.00000000000E+00 0. -1.
         11    1    1    2    0    0  0.14719262322E+02  0.76559621096E+00 -0.23792033868E+02  0.27987563246E+02  0.00000000000E+00 0.  1.
<mgrwt>
<rscale>  0 0.12674177E+03</rscale>
<asrwt>0</asrwt>
<pdfrwt beam="1">  1        1 0.35916271E-01 0.13532156E+03</pdfrwt>
<pdfrwt beam="2">  1       -1 0.96013926E-02 0.13532156E+03</pdfrwt>
<totfact> 0.74248716E+03</totfact>
</mgrwt>
</event>
<event>
 7    1  0.4230786E-006  0.1354568E+03  0.7546771E-02  0.1232175E+00
          1   -1    0    0  501    0  0.00000000000E+00  0.00000000000E+00  0.64097334845E+03  0.64097334845E+03  0.00000000000E+00 0. -1.
         -1   -1    0    0    0  501 -0.00000000000E+00 -0.00000000000E+00 -0.22603643935E+02  0.22603643935E+02  0.00000000000E+00 0.  1.
         23    2    1    2    0    0  0.46014541763E+02 -0.24605222334E+02  0.31858833133E+03  0.34618936587E+03  0.12500318861E+03 0.  0.
          5    1    3    3  502    0  0.45146340827E+02  0.11484163912E+02  0.30654044837E+02  0.55962832091E+02  0.47000000000E+01 0.  1.
         -5    1    3    3    0  502  0.86820093626E+00 -0.36089386245E+02  0.28793428649E+03  0.29022653378E+03  0.47000000000E+01 0.  1.
        -11    1    1    2    0    0 -0.50128310153E+02 -0.20296593511E+02  0.11348871756E+03  0.12571590274E+03  0.00000000000E+00 0.  1.
         11    1    1    2    0    0  0.41137683894E+01  0.44901815844E+02  0.18629265562E+03  0.19167172378E+03  0.00000000000E+00 0. -1.
<mgrwt>
<rscale>  0 0.12687018E+03</rscale>
<asrwt>0</asrwt>
<pdfrwt beam="1">  1        1 0.98611271E-01 0.13545683E+03</pdfrwt>
<pdfrwt beam="2">  1       -1 0.34774842E-02 0.13545683E+03</pdfrwt>
<totfact> 0.92920889E+03</totfact>
</mgrwt>
</event>
<event>
 7    1  0.4230786E-006  0.2184261E+03  0.7546771E-02  0.1138524E+00
         -1   -1    0    0    0  501 -0.00000000000E+00  0.00000000000E+00  0.13575499937E+03  0.13575499937E+03  0.00000000000E+00 0.  1.
          1   -1    0    0  501    0  0.00000000000E+00 -0.00000000000E+00 -0.34949681736E+03  0.34949681736E+03  0.00000000000E+00 0. -1.
         23    2    1    2    0    0  0.17730272774E+03 -0.25513880980E+02 -0.45157582247E+02  0.22304526349E+03  0.12499106746E+03 0.  0.
          5    1    3    3  502    0  0.43541330938E+02 -0.63259684944E+02 -0.32105379761E+02  0.83369542692E+02  0.47000000000E+01 0. -1.
         -5    1    3    3    0  502  0.13376139680E+03  0.37745803964E+02 -0.13052202486E+02  0.13967572080E+03  0.47000000000E+01 0. -1.
        -11    1    1    2    0    0 -0.58659821445E+02  0.29191490068E+02 -0.13480240007E+02  0.66894204645E+02  0.00000000000E+00 0.  1.
         11    1    1    2    0    0 -0.11864290629E+03 -0.36776090875E+01 -0.15510399573E+03  0.19531234859E+03  0.00000000000E+00 0. -1.
<mgrwt>
<rscale>  0 0.21388690E+03</rscale>
<asrwt>0</asrwt>
<pdfrwt beam="2">  1        1 0.53768740E-01 0.21842615E+03</pdfrwt>
<pdfrwt beam="1">  1       -1 0.20885385E-01 0.21842615E+03</pdfrwt>
<totfact> 0.13495439E+03</totfact>
</mgrwt>
</event>
<event>
 7    1  0.4230786E-006  0.1502774E+03  0.7546771E-02  0.1211062E+00
          2   -1    0    0  501    0  0.00000000000E+00  0.00000000000E+00  0.27639871635E+02  0.27639871635E+02  0.00000000000E+00 0. -1.
         -2   -1    0    0    0  501 -0.00000000000E+00 -0.00000000000E+00 -0.65482183003E+03  0.65482183003E+03  0.00000000000E+00 0.  1.
         23    2    1    2    0    0  0.26904441769E+02  0.78952983831E+02 -0.35027712305E+03  0.38115268783E+03  0.12500354340E+03 0.  0.
          5    1    3    3  502    0 -0.24680787054E+02 -0.15715135380E+02 -0.15716562255E+03  0.15993507946E+03  0.47000000000E+01 0. -1.
         -5    1    3    3    0  502  0.51585228823E+02  0.94668119211E+02 -0.19311150050E+03  0.22121760837E+03  0.47000000000E+01 0. -1.
        -11    1    1    2    0    0 -0.55105942865E+02 -0.60882493587E+02 -0.22518573761E+03  0.23969138363E+03  0.00000000000E+00 0.  1.
         11    1    1    2    0    0  0.28201501096E+02 -0.18070490244E+02 -0.51719097740E+02  0.61617630211E+02  0.00000000000E+00 0. -1.
<mgrwt>
<rscale>  0 0.14169823E+03</rscale>
<asrwt>0</asrwt>
<pdfrwt beam="1">  1        2 0.42522878E-02 0.15027744E+03</pdfrwt>
<pdfrwt beam="2">  1       -2 0.10074182E+00 0.15027744E+03</pdfrwt>
<totfact> 0.15947627E+03</totfact>
</mgrwt>
</event>
<event>
 7    1  0.4230786E-006  0.1303196E+03  0.7546771E-02  0.1240663E+00
         -2   -1    0    0    0  501 -0.00000000000E+00  0.00000000000E+00  0.39306254870E+02  0.39306254870E+02  0.00000000000E+00 0.  1.
          2   -1    0    0  501    0  0.00000000000E+00 -0.00000000000E+00 -0.34288483521E+03  0.34288483521E+03  0.00000000000E+00 0. -1.
         23    2    1    2    0    0 -0.29861530827E+02  0.21593392066E+02 -0.20480927231E+03  0.24275507059E+03  0.12500080267E+03 0.  0.
          5    1    3    3  502    0  0.22048919624E+02  0.38269615807E+02 -0.17710498193E+02  0.47817048182E+02  0.47000000000E+01 0. -1.
         -5    1    3    3    0  502 -0.51910450450E+02 -0.16676223741E+02 -0.18709877411E+03  0.19493802240E+03  0.47000000000E+01 0. -1.
        -11    1    1    2    0    0  0.54508167723E+01 -0.55153458494E+02 -0.68274086102E+02  0.87937285724E+02  0.00000000000E+00 0. -1.
         11    1    1    2    0    0  0.24410714054E+02  0.33560066428E+02 -0.30495221932E+02  0.51498733771E+02  0.00000000000E+00 0.  1.
<mgrwt>
<rscale>  0 0.12148734E+03</rscale>
<asrwt>0</asrwt>
<pdfrwt beam="2">  1        2 0.52751515E-01 0.13031955E+03</pdfrwt>
<pdfrwt beam="1">  1       -2 0.60471159E-02 0.13031955E+03</pdfrwt>
<totfact> 0.12991152E+04</totfact>
</mgrwt>
</event>
<event>
 7    1  0.4230786E-006  0.1562315E+03  0.7546771E-02  0.1202046E+00
         -2   -1    0    0    0  501 -0.00000000000E+00  0.00000000000E+00  0.10566557575E+03  0.10566557575E+03  0.00000000000E+00 0.  1.
          2   -1    0    0  501    0  0.00000000000E+00 -0.00000000000E+00 -0.19967239901E+03  0.19967239901E+03  0.00000000000E+00 0. -1.
         23    2    1    2    0    0  0.46457863327E+02  0.81404059231E+02 -0.20788547018E+02  0.15760854155E+03  0.12499333886E+03 0.  0.
          5    1    3    3  502    0  0.72761169028E+02  0.41753883250E+01  0.97876580904E+00  0.73038822338E+02  0.47000000000E+01 0.  1.
         -5    1    3    3    0  502 -0.26303305700E+02  0.77228670906E+02 -0.21767312827E+02  0.84569719216E+02  0.47000000000E+01 0.  1.
        -11    1    1    2    0    0  0.25501259783E+02 -0.23886029678E+02 -0.29644896224E+02  0.45822227537E+02  0.00000000000E+00 0.  1.
         11    1    1    2    0    0 -0.71959123110E+02 -0.57518029553E+02 -0.43573380014E+02  0.10190720567E+03  0.00000000000E+00 0. -1.
<mgrwt>
<rscale>  0 0.14872718E+03</rscale>
<asrwt>0</asrwt>
<pdfrwt beam="2">  1        2 0.30718830E-01 0.15623152E+03</pdfrwt>
<pdfrwt beam="1">  1       -2 0.16256243E-01 0.15623152E+03</pdfrwt>
<totfact> 0.49295657E+03</totfact>
</mgrwt>
</event>
<event>
 6    1  0.4230786E-006  0.1824772E+03  0.7546771E-02  0.1188936E+00
         -1   -1    0    0    0  501 -0.00000000000E+00  0.00000000000E+00  0.47538596936E+03  0.47538596936E+03  0.00000000000E+00 0.  1.
          1   -1    0    0  501    0  0.00000000000E+00 -0.00000000000E+00 -0.56866092438E+02  0.56866092438E+02  0.00000000000E+00 0. -1.
          5    1    1    2  502    0  0.60076797657E+02 -0.49805514914E+02  0.13456528245E+03  0.15562684914E+03  0.47000000000E+01 0. -1.
         -5    1    1    2    0  502 -0.43598345043E+02  0.92828362086E+02  0.23934057787E+03  0.26043026459E+03  0.47000000000E+01 0.  1.
        -11    1    1    2    0    0 -0.44153094548E+02 -0.27873555140E+02 -0.99608535515E+01  0.53156838109E+02  0.00000000000E+00 0.  1.
         11    1    1    2    0    0  0.27674641934E+02 -0.15149292033E+02  0.54574870160E+02  0.63038109967E+02  0.00000000000E+00 0. -1.
<mgrwt>
<rscale>  0 0.15978828E+03</rscale>
<asrwt>0</asrwt>
<pdfrwt beam="2">  1        1 0.87486300E-02 0.18247720E+03</pdfrwt>
<pdfrwt beam="1">  1       -1 0.73136300E-01 0.18247720E+03</pdfrwt>
<totfact> 0.14907734E+03</totfact>
</mgrwt>
</event>
<event>
 7    1  0.4230786E-006  0.1324838E+03  0.7546771E-02  0.1236968E+00
         -2   -1    0    0    0  501 -0.00000000000E+00  0.00000000000E+00  0.33828797485E+02  0.33828797485E+02  0.00000000000E+00 0.  1.
          2   -1    0    0  501    0  0.00000000000E+00 -0.00000000000E+00 -0.40288214736E+03  0.40288214736E+03  0.00000000000E+00 0. -1.
         23    2    1    2    0    0 -0.43035781249E+02 -0.81486769043E+01 -0.21134547025E+03  0.24943710860E+03  0.12503393119E+03 0.  0.
          5    1    3    3  502    0  0.35263256808E+01  0.42474436362E+02 -0.22547364169E+02  0.48445705156E+02  0.47000000000E+01 0. -1.
         -5    1    3    3    0  502 -0.46562106930E+02 -0.50623113267E+02 -0.18879810609E+03  0.20099140345E+03  0.47000000000E+01 0. -1.
        -11    1    1    2    0    0  0.12797248174E+02  0.26714063218E+02 -0.44397532921E+01  0.29951997325E+02  0.00000000000E+00 0.  1.
         11    1    1    2    0    0  0.30238533075E+02 -0.18565386314E+02 -0.15326812633E+03  0.15732183892E+03  0.00000000000E+00 0. -1.
<mgrwt>
<rscale>  0 0.12379287E+03</rscale>
<asrwt>0</asrwt>
<pdfrwt beam="2">  1        2 0.61981872E-01 0.13248382E+03</pdfrwt>
<pdfrwt beam="1">  1       -2 0.52044301E-02 0.13248382E+03</pdfrwt>
<totfact> 0.13744119E+04</totfact>
</mgrwt>
</event>
<event>
 7    1  0.4230786E-006  0.1518691E+03  0.7546771E-02  0.1207209E+00
         -1   -1    0    0    0  501 -0.00000000000E+00  0.00000000000E+00  0.46361904717E+03  0.46361904717E+03  0.00000000000E+00 0.  1.
          1   -1    0    0  501    0  0.00000000000E+00 -0.00000000000E+00 -0.46025676629E+02  0.46025676629E+02  0.00000000000E+00 0. -1.
         23    2    1    2    0    0  0.80596778193E+02  0.30595302792E+02  0.30806484052E+03  0.34346496541E+03  0.12502928973E+03 0.  0.
          5    1    3    3  502    0  0.94266315706E+02 -0.21819050802E+02  0.21191006484E+03  0.23300252109E+03  0.47000000000E+01 0.  1.
         -5    1    3    3    0  502 -0.13669537513E+02  0.52414353595E+02  0.96154775678E+02  0.11046244432E+03  0.47000000000E+01 0.  1.
        -11    1    1    2    0    0 -0.56957846895E+02 -0.17018809092E+02  0.12237097139E+03  0.13604591440E+03  0.00000000000E+00 0.  1.
         11    1    1    2    0    0 -0.23638931298E+02 -0.13576493700E+02 -0.12842441360E+02  0.30133843999E+02  0.00000000000E+00 0. -1.
<mgrwt>
<rscale>  0 0.14464704E+03</rscale>
<asrwt>0</asrwt>
<pdfrwt beam="2">  1        1 0.70808736E-02 0.15186914E+03</pdfrwt>
<pdfrwt beam="1">  1       -1 0.71326004E-01 0.15186914E+03</pdfrwt>
<totfact> 0.20711645E+03</totfact>
</mgrwt>
</event>
<event>
 7    1  0.4230786E-006  0.1553902E+03  0.7546771E-02  0.1199957E+00
         -2   -1    0    0    0  501 -0.00000000000E+00  0.00000000000E+00  0.36058228039E+03  0.36058228039E+03  0.00000000000E+00 0.  1.
          2   -1    0    0  501    0  0.00000000000E+00 -0.00000000000E+00 -0.61855538476E+02  0.61855538476E+02  0.00000000000E+00 0. -1.
         23    2    1    2    0    0  0.13660129341E+02 -0.91282378187E+02  0.20352347074E+03  0.25606233110E+03  0.12500816999E+03 0.  0.
          5    1    3    3  502    0 -0.13074989216E+02 -0.69868971353E+02  0.20922590484E+03  0.22102080843E+03  0.47000000000E+01 0. -1.
         -5    1    3    3    0  502  0.26735118556E+02 -0.21413406833E+02 -0.57024341021E+01  0.35041522671E+02  0.47000000000E+01 0. -1.
        -11    1    1    2    0    0 -0.34850806121E+02  0.55609558926E+02  0.34986203402E+01  0.65720940921E+02  0.00000000000E+00 0. -1.
         11    1    1    2    0    0  0.21190676781E+02  0.35672819260E+02  0.91704650835E+02  0.10065454685E+03  0.00000000000E+00 0.  1.
<mgrwt>
<rscale>  0 0.15042043E+03</rscale>
<asrwt>0</asrwt>
<pdfrwt beam="2">  1        2 0.95162369E-02 0.15539020E+03</pdfrwt>
<pdfrwt beam="1">  1       -2 0.55474196E-01 0.15539020E+03</pdfrwt>
<totfact> 0.20623507E+03</totfact>
</mgrwt>
</event>
<event>
 7    1  0.4230786E-006  0.1417862E+03  0.7546771E-02  0.1221258E+00
         -2   -1    0    0    0  501 -0.00000000000E+00  0.00000000000E+00  0.22780548453E+02  0.22780548453E+02  0.00000000000E+00 0. -1.
          2   -1    0    0  501    0  0.00000000000E+00 -0.00000000000E+00 -0.73736792062E+03  0.73736792062E+03  0.00000000000E+00 0.  1.
         23    2    1    2    0    0 -0.58934756242E+02  0.31731112703E+02 -0.33400403168E+03  0.36285261992E+03  0.12499264618E+03 0.  0.
          5    1    3    3  502    0 -0.72395530345E+02  0.67022955176E+01 -0.83997659298E+02  0.11119231244E+03  0.47000000000E+01 0. -1.
         -5    1    3    3    0  502  0.13460774103E+02  0.25028817186E+02 -0.25000637238E+03  0.25166030748E+03  0.47000000000E+01 0. -1.
        -11    1    1    2    0    0  0.77356190059E+02 -0.23986990377E+02 -0.35840953077E+03  0.36744625130E+03  0.00000000000E+00 0.  1.
         11    1    1    2    0    0 -0.18421433817E+02 -0.77441223262E+01 -0.22173809725E+02  0.29849597856E+02  0.00000000000E+00 0. -1.
<mgrwt>
<rscale>  0 0.13426714E+03</rscale>
<asrwt>0</asrwt>
<pdfrwt beam="2">  1        2 0.11344122E+00 0.14178621E+03</pdfrwt>
<pdfrwt beam="1">  1       -2 0.35046996E-02 0.14178621E+03</pdfrwt>
<totfact> 0.12632926E+04</totfact>
</mgrwt>
</event>
<event>
 6    1  0.4230786E-006  0.1744009E+03  0.7546771E-02  0.1197190E+00
         -1   -1    0    0    0  501 -0.00000000000E+00  0.00000000000E+00  0.91729220305E+02  0.91729220305E+02  0.00000000000E+00 0.  1.
          1   -1    0    0  501    0  0.00000000000E+00 -0.00000000000E+00 -0.20931599928E+03  0.20931599928E+03  0.00000000000E+00 0. -1.
          5    1    1    2  502    0  0.73233000737E+02 -0.75796368555E+02 -0.19318764228E+02  0.10725421453E+03  0.47000000000E+01 0. -1.
         -5    1    1    2    0  502  0.23071713541E+02  0.58800462041E+02 -0.48879103920E+02  0.80006594116E+02  0.47000000000E+01 0.  1.
        -11    1    1    2    0    0 -0.12273559465E+02 -0.53903269735E+01  0.70964911440E+00  0.13423840310E+02  0.00000000000E+00 0. -1.
         11    1    1    2    0    0 -0.84031154813E+02  0.22386233487E+02 -0.50098559941E+02  0.10036057063E+03  0.00000000000E+00 0.  1.
<mgrwt>
<rscale>  0 0.15270370E+03</rscale>
<asrwt>0</asrwt>
<pdfrwt beam="2">  1        1 0.32202461E-01 0.17440086E+03</pdfrwt>
<pdfrwt beam="1">  1       -1 0.14112188E-01 0.17440086E+03</pdfrwt>
<totfact> 0.47633442E+03</totfact>
</mgrwt>
</event>
<event>
 7    1  0.4230786E-006  0.1509802E+03  0.7546771E-02  0.1208621E+00
          1   -1    0    0  501    0  0.00000000000E+00  0.00000000000E+00  0.33651811863E+03  0.33651811863E+03  0.00000000000E+00 0. -1.
         -1   -1    0    0    0  501 -0.00000000000E+00 -0.00000000000E+00 -0.56511955961E+02  0.56511955961E+02  0.00000000000E+00 0.  1.
         23    2    1    2    0    0 -0.83381021651E+02 -0.14704415070E+02  0.17373111302E+03  0.23016843693E+03  0.12500558041E+03 0.  0.
          5    1    3    3  502    0  0.97221939966E+01 -0.34867042058E+02  0.56831994349E+01  0.36940769264E+02  0.47000000000E+01 0.  1.
         -5    1    3    3    0  502 -0.93103215647E+02  0.20162626988E+02  0.16804791359E+03  0.19322766767E+03  0.47000000000E+01 0.  1.
        -11    1    1    2    0    0  0.56880589429E+02  0.11704943334E+02  0.51743887786E+01  0.58302499530E+02  0.00000000000E+00 0.  1.
         11    1    1    2    0    0  0.26500432222E+02  0.29994717356E+01  0.10110066086E+03  0.10455913813E+03  0.00000000000E+00 0. -1.
<mgrwt>
<rscale>  0 0.14355744E+03</rscale>
<asrwt>0</asrwt>
<pdfrwt beam="1">  1        1 0.51772017E-01 0.15098016E+03</pdfrwt>
<pdfrwt beam="2">  1       -1 0.86941472E-02 0.15098016E+03</pdfrwt>
<totfact> 0.55251180E+03</totfact>
</mgrwt>
</event>
<event>
 7    1  0.4637083E-006  0.2092855E+03  0.7546771E-02  0.1145902E+00
         -3   -1    0    0    0  501 -0.00000000000E+00  0.00000000000E+00  0.34032453762E+03  0.34032453762E+03  0.00000000000E+00 0.  1.
          3   -1    0    0  501    0  0.00000000000E+00 -0.00000000000E+00 -0.14228778688E+03  0.14228778688E+03  0.00000000000E+00 0. -1.
         23    2    1    2    0    0  0.40540602504E+02  0.16288648634E+03  0.20266692905E+03  0.29133196027E+03  0.12499951623E+03 0.  0.
          5    1    3    3  502    0 -0.31890819412E+01  0.35114707885E+02  0.13614653112E+03  0.14071666884E+03  0.47000000000E+01 0.  1.
         -5    1    3    3    0  502  0.43729684445E+02  0.12777177845E+03  0.66520397938E+02  0.15061529143E+03  0.47000000000E+01 0.  1.
        -11    1    1    2    0    0 -0.16363853906E+02 -0.89680855716E+02  0.42858153774E+02  0.10073357405E+03  0.00000000000E+00 0.  1.
         11    1    1    2    0    0 -0.24176748598E+02 -0.73205630623E+02 -0.47488332081E+02  0.90546790178E+02  0.00000000000E+00 0. -1.
<mgrwt>
<rscale>  0 0.20461627E+03</rscale>
<asrwt>0</asrwt>
<pdfrwt beam="2">  1        3 0.21890429E-01 0.20928552E+03</pdfrwt>
<pdfrwt beam="1">  1       -3 0.52357621E-01 0.20928552E+03</pdfrwt>
<totfact> 0.17055318E+02</totfact>
</mgrwt>
</event>
<event>
 7    1  0.4230786E-006  0.1254119E+03  0.7546771E-02  0.1249749E+00
         -2   -1    0    0    0  501 -0.00000000000E+00  0.00000000000E+00  0.10076617433E+03  0.10076617433E+03  0.00000000000E+00 0.  1.
          2   -1    0    0  501    0  0.00000000000E+00 -0.00000000000E+00 -0.11877716998E+03  0.11877716998E+03  0.00000000000E+00 0. -1.
         23    2    1    2    0    0  0.13779741321E+01 -0.10018484665E+02  0.19654916997E+01  0.12542731977E+03  0.12500352211E+03 0.  0.
          5    1    3    3  502    0 -0.20004874058E+02 -0.63605389572E+02 -0.54651532146E+01  0.67065628069E+02  0.47000000000E+01 0. -1.
         -5    1    3    3    0  502  0.21382848190E+02  0.53586904906E+02  0.74306449143E+01  0.58361691699E+02  0.47000000000E+01 0. -1.
        -11    1    1    2    0    0 -0.16847086459E+02  0.28950021144E+02 -0.46974643881E+02  0.57693545689E+02  0.00000000000E+00 0. -1.
         11    1    1    2    0    0  0.15469112327E+02 -0.18931536478E+02  0.26998156528E+02  0.36422478849E+02  0.00000000000E+00 0.  1.
<mgrwt>
<rscale>  0 0.11605597E+03</rscale>
<asrwt>0</asrwt>
<pdfrwt beam="2">  1        2 0.18273411E-01 0.12541192E+03</pdfrwt>
<pdfrwt beam="1">  1       -2 0.15502488E-01 0.12541192E+03</pdfrwt>
<totfact> 0.93484618E+03</totfact>
</mgrwt>
</event>
<event>
 7    1  0.4230786E-006  0.1280912E+03  0.7546771E-02  0.1258696E+00
          2   -1    0    0  501    0  0.00000000000E+00  0.00000000000E+00  0.12323627201E+03  0.12323627201E+03  0.00000000000E+00 0.  1.
         -2   -1    0    0    0  501 -0.00000000000E+00 -0.00000000000E+00 -0.83882759188E+02  0.83882759188E+02  0.00000000000E+00 0. -1.
         23    2    1    2    0    0  0.22120255113E+02  0.17813045866E+02  0.80253750282E+01  0.12834240837E+03  0.12490298976E+03 0.  0.
          5    1    3    3  502    0  0.30285934908E+02  0.68814764566E+02  0.12188447752E+02  0.76310929323E+02  0.47000000000E+01 0. -1.
         -5    1    3    3    0  502 -0.81656797958E+01 -0.51001718700E+02 -0.41630727241E+01  0.52031479043E+02  0.47000000000E+01 0. -1.
        -11    1    1    2    0    0  0.34400649373E+01 -0.19607180703E+02 -0.15611953780E+02  0.25298392889E+02  0.00000000000E+00 0. -1.
         11    1    1    2    0    0 -0.25560320050E+02  0.17941348373E+01  0.46940091574E+02  0.53478229943E+02  0.00000000000E+00 0.  1.
<mgrwt>
<rscale>  0 0.11101793E+03</rscale>
<asrwt>0</asrwt>
<pdfrwt beam="1">  1        2 0.18959426E-01 0.12809125E+03</pdfrwt>
<pdfrwt beam="2">  1       -2 0.12905040E-01 0.12809125E+03</pdfrwt>
<totfact> 0.12089721E+04</totfact>
</mgrwt>
</event>
<event>
 6    1  0.4230786E-006  0.2175910E+03  0.7546771E-02  0.1142169E+00
          2   -1    0    0  501    0  0.00000000000E+00  0.00000000000E+00  0.99060578204E+03  0.99060578204E+03  0.00000000000E+00 0. -1.
         -2   -1    0    0    0  501 -0.00000000000E+00 -0.00000000000E+00 -0.41921192454E+02  0.41921192454E+02  0.00000000000E+00 0.  1.
          5    1    1    2  502    0 -0.62918785656E+01 -0.11543211244E+03  0.49732542213E+03  0.51060633154E+03  0.47000000000E+01 0. -1.
         -5    1    1    2    0  502  0.61167152539E+02 -0.36370107521E+02  0.84490605709E+02  0.11056653076E+03  0.47000000000E+01 0.  1.
        -11    1    1    2    0    0  0.19069098061E+02  0.78110993095E+02  0.13620768336E+03  0.15816918394E+03  0.00000000000E+00 0.  1.
         11    1    1    2    0    0 -0.73944372035E+02  0.73691226866E+02  0.23066087839E+03  0.25318492825E+03  0.00000000000E+00 0. -1.
<mgrwt>
<rscale>  0 0.20924063E+03</rscale>
<asrwt>0</asrwt>
<pdfrwt beam="1">  1        2 0.15240087E+00 0.21759098E+03</pdfrwt>
<pdfrwt beam="2">  1       -2 0.64494150E-02 0.21759098E+03</pdfrwt>
<totfact> 0.35001989E+03</totfact>
</mgrwt>
</event>
<event>
 7    1  0.4230786E-006  0.1269153E+03  0.7546771E-02  0.1247022E+00
         -1   -1    0    0    0  501 -0.00000000000E+00  0.00000000000E+00  0.44709819816E+02  0.44709819816E+02  0.00000000000E+00 0.  1.
          1   -1    0    0  501    0  0.00000000000E+00 -0.00000000000E+00 -0.27279318129E+03  0.27279318129E+03  0.00000000000E+00 0. -1.
         23    2    1    2    0    0  0.10751998025E+02  0.19158749143E+02 -0.13843238706E+03  0.18780581478E+03  0.12499934060E+03 0.  0.
          5    1    3    3  502    0 -0.56591425092E+00 -0.38932981670E+01  0.23242254919E+02  0.24036855936E+02  0.47000000000E+01 0.  1.
         -5    1    3    3    0  502  0.11317912276E+02  0.23052047310E+02 -0.16167464198E+03  0.16376895885E+03  0.47000000000E+01 0.  1.
        -11    1    1    2    0    0  0.39246984928E+02  0.62063118607E+00 -0.30106119393E+02  0.49468064789E+02  0.00000000000E+00 0.  1.
         11    1    1    2    0    0 -0.49998982954E+02 -0.19779380329E+02 -0.59544855024E+02  0.80229121536E+02  0.00000000000E+00 0. -1.
<mgrwt>
<rscale>  0 0.11765150E+03</rscale>
<asrwt>0</asrwt>
<pdfrwt beam="2">  1        1 0.41968182E-01 0.12691532E+03</pdfrwt>
<pdfrwt beam="1">  1       -1 0.68784338E-02 0.12691532E+03</pdfrwt>
<totfact> 0.10083356E+04</totfact>
</mgrwt>
</event>
<event>
 7    1  0.4230786E-006  0.1405976E+03  0.7546771E-02  0.1223280E+00
          2   -1    0    0  501    0  0.00000000000E+00  0.00000000000E+00  0.32989812044E+03  0.32989812044E+03  0.00000000000E+00 0. -1.
         -2   -1    0    0    0  501 -0.00000000000E+00 -0.00000000000E+00 -0.12928335135E+03  0.12928335135E+03  0.00000000000E+00 0.  1.
         23    2    1    2    0    0  0.81298591758E+01 -0.65231006493E+02 -0.76636591901E+02  0.16012757549E+03  0.12428392654E+03 0.  0.
          5    1    3    3  502    0 -0.52292600884E+02 -0.24889042997E+02 -0.63635714280E+02  0.86171774384E+02  0.47000000000E+01 0. -1.
         -5    1    3    3    0  502  0.60422460060E+02 -0.40341963496E+02 -0.13000877621E+02  0.73955801106E+02  0.47000000000E+01 0.  1.
        -11    1    1    2    0    0 -0.23024894929E+02 -0.18286133362E+01  0.14048112808E+02  0.27034035709E+02  0.00000000000E+00 0.  1.
         11    1    1    2    0    0  0.14895035754E+02  0.67059619829E+02  0.26320324819E+03  0.27201986059E+03  0.00000000000E+00 0. -1.
<mgrwt>
<rscale>  0 0.13285512E+03</rscale>
<asrwt>0</asrwt>
<pdfrwt beam="1">  1        2 0.50753557E-01 0.14059756E+03</pdfrwt>
<pdfrwt beam="2">  1       -2 0.19889747E-01 0.14059756E+03</pdfrwt>
<totfact> 0.20466165E+03</totfact>
</mgrwt>
</event>
<event>
 7    1  0.4230786E-006  0.4610231E+03  0.7546771E-02  0.1024485E+00
          1   -1    0    0  501    0  0.00000000000E+00  0.00000000000E+00  0.16783907423E+03  0.16783907423E+03  0.00000000000E+00 0. -1.
         -1   -1    0    0    0  501 -0.00000000000E+00 -0.00000000000E+00 -0.31658640175E+03  0.31658640175E+03  0.00000000000E+00 0.  1.
         23    2    1    2    0    0  0.13039924698E+03 -0.66489016461E+02 -0.13192801329E+03  0.23335237495E+03  0.12499430901E+03 0.  0.
          5    1    3    3  502    0  0.69691099764E+02  0.31886697386E+02 -0.52975577557E+02  0.93285114964E+02  0.47000000000E+01 0. -1.
         -5    1    3    3    0  502  0.60708147212E+02 -0.98375713847E+02 -0.78952435731E+02  0.14006725999E+03  0.47000000000E+01 0. -1.
        -11    1    1    2    0    0 -0.66690480024E+02 -0.27935520228E+02  0.75436354307E+02  0.10449237756E+03  0.00000000000E+00 0. -1.
         11    1    1    2    0    0 -0.63708766952E+02  0.94424536689E+02 -0.92255668534E+02  0.14658072347E+03  0.00000000000E+00 0.  1.
<mgrwt>
<rscale>  0 0.46102307E+03</rscale>
<asrwt>0</asrwt>
<pdfrwt beam="1">  1        1 0.25821396E-01 0.46102307E+03</pdfrwt>
<pdfrwt beam="2">  1       -1 0.48705600E-01 0.46102307E+03</pdfrwt>
<totfact> 0.79401696E+02</totfact>
</mgrwt>
</event>
<event>
 7    1  0.4230786E-006  0.1362090E+03  0.7546771E-02  0.1231165E+00
          2   -1    0    0  501    0  0.00000000000E+00  0.00000000000E+00  0.24485521069E+03  0.24485521069E+03  0.00000000000E+00 0. -1.
         -2   -1    0    0    0  501 -0.00000000000E+00 -0.00000000000E+00 -0.59950492111E+02  0.59950492111E+02  0.00000000000E+00 0.  1.
         23    2    1    2    0    0  0.52787066479E+02 -0.11918609298E+02  0.88024748219E+02  0.16217657945E+03  0.12499743592E+03 0.  0.
          5    1    3    3  502    0 -0.37262626813E+02 -0.11767700485E+00  0.29968709730E+01  0.37677426140E+02  0.47000000000E+01 0.  1.
         -5    1    3    3    0  502  0.90049693291E+02 -0.11800932293E+02  0.85027877246E+02  0.12449915331E+03  0.47000000000E+01 0.  1.
        -11    1    1    2    0    0 -0.24668527139E+02  0.44158995493E+02  0.83821314683E+02  0.97900796265E+02  0.00000000000E+00 0. -1.
         11    1    1    2    0    0 -0.28118539340E+02 -0.32240386195E+02  0.13058655681E+02  0.44728327096E+02  0.00000000000E+00 0.  1.
<mgrwt>
<rscale>  0 0.12753149E+03</rscale>
<asrwt>0</asrwt>
<pdfrwt beam="1">  1        2 0.37670032E-01 0.13620898E+03</pdfrwt>
<pdfrwt beam="2">  1       -2 0.92231527E-02 0.13620898E+03</pdfrwt>
<totfact> 0.97375496E+03</totfact>
</mgrwt>
</event>
<event>
 7    1  0.4230786E-006  0.1387906E+03  0.7546771E-02  0.1226429E+00
         -2   -1    0    0    0  501 -0.00000000000E+00  0.00000000000E+00  0.60328186039E+02  0.60328186039E+02  0.00000000000E+00 0.  1.
          2   -1    0    0  501    0  0.00000000000E+00 -0.00000000000E+00 -0.28998505897E+03  0.28998505897E+03  0.00000000000E+00 0. -1.
         23    2    1    2    0    0  0.49760092058E+02  0.34087038711E+02 -0.66189713861E+02  0.15376573197E+03  0.12499931654E+03 0.  0.
          5    1    3    3  502    0  0.80871552130E+02 -0.71987653908E+01 -0.60872305639E+02  0.10158522413E+03  0.47000000000E+01 0. -1.
         -5    1    3    3    0  502 -0.31111460072E+02  0.41285804102E+02 -0.53174082215E+01  0.52180507839E+02  0.47000000000E+01 0. -1.
        -11    1    1    2    0    0 -0.70020188963E+01 -0.40585734167E+02 -0.18287642412E+02  0.45062933233E+02  0.00000000000E+00 0.  1.
         11    1    1    2    0    0 -0.42758073162E+02  0.64986954562E+01 -0.14517951666E+03  0.15148457981E+03  0.00000000000E+00 0. -1.
<mgrwt>
<rscale>  0 0.13069418E+03</rscale>
<asrwt>0</asrwt>
<pdfrwt beam="2">  1        2 0.44613087E-01 0.13879057E+03</pdfrwt>
<pdfrwt beam="1">  1       -2 0.92812593E-02 0.13879057E+03</pdfrwt>
<totfact> 0.80668197E+03</totfact>
</mgrwt>
</event>
<event>
 7    1  0.4230786E-006  0.1345144E+03  0.7546771E-02  0.1233258E+00
         -4   -1    0    0    0  501 -0.00000000000E+00  0.00000000000E+00  0.29385712909E+03  0.29385712909E+03  0.00000000000E+00 0.  1.
          4   -1    0    0  501    0  0.00000000000E+00 -0.00000000000E+00 -0.90502447785E+02  0.90502447785E+02  0.00000000000E+00 0. -1.
         23    2    1    2    0    0 -0.66880257198E+01  0.49245588263E+02  0.23905849106E+03  0.27430473425E+03  0.12499706969E+03 0.  0.
          5    1    3    3  502    0 -0.52164875007E+02  0.60468511468E+02  0.10355272013E+03  0.13085438820E+03  0.47000000000E+01 0. -1.
         -5    1    3    3    0  502  0.45476849287E+02 -0.11222923205E+02  0.13550577093E+03  0.14345034605E+03  0.47000000000E+01 0. -1.
        -11    1    1    2    0    0  0.21091102973E+02 -0.55125200253E+02 -0.58077135897E+02  0.82804444576E+02  0.00000000000E+00 0. -1.
         11    1    1    2    0    0 -0.14403077253E+02  0.58796119899E+01  0.22373326143E+02  0.27250398056E+02  0.00000000000E+00 0.  1.
<mgrwt>
<rscale>  0 0.12616583E+03</rscale>
<asrwt>0</asrwt>
<pdfrwt beam="2">  1        4 0.13923454E-01 0.13451440E+03</pdfrwt>
<pdfrwt beam="1">  1       -4 0.45208789E-01 0.13451440E+03</pdfrwt>
<totfact> 0.33960289E+02</totfact>
</mgrwt>
</event>
<event>
 7    1  0.4230786E-006  0.1304525E+03  0.7546771E-02  0.1240909E+00
         -4   -1    0    0    0  501 -0.00000000000E+00  0.00000000000E+00  0.10203175981E+03  0.10203175981E+03  0.00000000000E+00 0. -1.
          4   -1    0    0  501    0  0.00000000000E+00 -0.00000000000E+00 -0.14238179795E+03  0.14238179795E+03  0.00000000000E+00 0.  1.
         23    2    1    2    0    0  0.36765262320E+02 -0.64550206078E+01  0.16408612574E+02  0.13148042142E+03  0.12499802737E+03 0.  0.
          5    1    3    3  502    0  0.67965362629E+02 -0.41723200499E+02 -0.39016768390E+01  0.79983930007E+02  0.47000000000E+01 0.  1.
         -5    1    3    3    0  502 -0.31200100309E+02  0.35268179891E+02  0.20310289413E+02  0.51496491416E+02  0.47000000000E+01 0.  1.
        -11    1    1    2    0    0 -0.36964568750E+02  0.43561558098E+02 -0.48445385139E+02  0.74906234908E+02  0.00000000000E+00 0. -1.
         11    1    1    2    0    0  0.19930643011E+00 -0.37106537490E+02 -0.83132655735E+01  0.38026901426E+02  0.00000000000E+00 0.  1.
<mgrwt>
<rscale>  0 0.12133590E+03</rscale>
<asrwt>0</asrwt>
<pdfrwt beam="2">  1        4 0.21904892E-01 0.13045251E+03</pdfrwt>
<pdfrwt beam="1">  1       -4 0.15697194E-01 0.13045251E+03</pdfrwt>
<totfact> 0.10881380E+03</totfact>
</mgrwt>
</event>
<event>
 7    1  0.4230786E-006  0.1530879E+03  0.7546771E-02  0.1204608E+00
         -1   -1    0    0    0  501 -0.00000000000E+00  0.00000000000E+00  0.10444437873E+03  0.10444437873E+03  0.00000000000E+00 0.  1.
          1   -1    0    0  501    0  0.00000000000E+00 -0.00000000000E+00 -0.20572702500E+03  0.20572702500E+03  0.00000000000E+00 0. -1.
         23    2    1    2    0    0  0.76362041299E+02 -0.44504113433E+02 -0.12611811655E+02  0.15360655791E+03  0.12499655745E+03 0.  0.
          5    1    3    3  502    0 -0.27208358799E+02  0.28170048818E+01 -0.27018262499E+02  0.38733794205E+02  0.47000000000E+01 0.  1.
         -5    1    3    3    0  502  0.10357040010E+03 -0.47321118315E+02  0.14406450844E+02  0.11487276370E+03  0.47000000000E+01 0.  1.
        -11    1    1    2    0    0  0.50575303274E+01  0.14757332762E+02  0.14854329302E+02  0.21540858439E+02  0.00000000000E+00 0.  1.
         11    1    1    2    0    0 -0.81419571626E+02  0.29746780671E+02 -0.10352516392E+03  0.13502398738E+03  0.00000000000E+00 0. -1.
<mgrwt>
<rscale>  0 0.14668396E+03</rscale>
<asrwt>0</asrwt>
<pdfrwt beam="2">  1        1 0.31650311E-01 0.15308794E+03</pdfrwt>
<pdfrwt beam="1">  1       -1 0.16068366E-01 0.15308794E+03</pdfrwt>
<totfact> 0.39404838E+03</totfact>
</mgrwt>
</event>
<event>
 7    1  0.4230786E-006  0.1395436E+03  0.7546771E-02  0.1225800E+00
         -3   -1    0    0    0  501 -0.00000000000E+00  0.00000000000E+00  0.26324211754E+03  0.26324211754E+03  0.00000000000E+00 0.  1.
          3   -1    0    0  501    0  0.00000000000E+00 -0.00000000000E+00 -0.69686033816E+02  0.69686033816E+02  0.00000000000E+00 0. -1.
         23    2    1    2    0    0 -0.58459070204E+02 -0.20721454571E+02  0.17292021916E+03  0.22220223213E+03  0.12500235278E+03 0.  0.
          5    1    3    3  502    0 -0.61305545413E+02 -0.28247104450E+02  0.19057979166E+03  0.20223505086E+03  0.47000000000E+01 0. -1.
         -5    1    3    3    0  502  0.28464752087E+01  0.75256498789E+01 -0.17659572494E+02  0.19967181271E+02  0.47000000000E+01 0. -1.
        -11    1    1    2    0    0  0.23671768018E+02  0.15906836431E+02 -0.34867123023E+02  0.45045491609E+02  0.00000000000E+00 0. -1.
         11    1    1    2    0    0  0.34787302187E+02  0.48146181399E+01  0.55502987589E+02  0.65680427622E+02  0.00000000000E+00 0.  1.
<mgrwt>
<rscale>  0 0.13112207E+03</rscale>
<asrwt>0</asrwt>
<pdfrwt beam="2">  1        3 0.10720928E-01 0.13954365E+03</pdfrwt>
<pdfrwt beam="1">  1       -3 0.40498787E-01 0.13954365E+03</pdfrwt>
<totfact> 0.92277469E+02</totfact>
</mgrwt>
</event>
<event>
 7    1  0.4230786E-006  0.1668890E+03  0.7546771E-02  0.1187749E+00
         -2   -1    0    0    0  501 -0.00000000000E+00  0.00000000000E+00  0.34734846806E+03  0.34734846806E+03  0.00000000000E+00 0.  1.
          2   -1    0    0  501    0  0.00000000000E+00 -0.00000000000E+00 -0.13981769107E+03  0.13981769107E+03  0.00000000000E+00 0. -1.
         23    2    1    2    0    0  0.49956933560E+02 -0.98643989197E+02  0.28000686130E+03  0.32596900264E+03  0.12500246594E+03 0.  0.
          5    1    3    3  502    0  0.54112525678E+01 -0.74502877783E+02  0.49082646880E+02  0.89505065091E+02  0.47000000000E+01 0. -1.
         -5    1    3    3    0  502  0.44545680992E+02 -0.24141111415E+02  0.23092421442E+03  0.23646393755E+03  0.47000000000E+01 0. -1.
        -11    1    1    2    0    0 -0.36488615239E+02  0.10766002036E+03 -0.32760726195E+02  0.11830200423E+03  0.00000000000E+00 0.  1.
         11    1    1    2    0    0 -0.13468318321E+02 -0.90160311588E+01 -0.39715358114E+02  0.42895152248E+02  0.00000000000E+00 0. -1.
<mgrwt>
<rscale>  0 0.16084231E+03</rscale>
<asrwt>0</asrwt>
<pdfrwt beam="2">  1        2 0.21510414E-01 0.16688903E+03</pdfrwt>
<pdfrwt beam="1">  1       -2 0.53438225E-01 0.16688903E+03</pdfrwt>
<totfact> 0.84969231E+02</totfact>
</mgrwt>
</event>
<event>
 7    1  0.4230786E-006  0.1763509E+03  0.7546771E-02  0.1177368E+00
          2   -1    0    0  501    0  0.00000000000E+00  0.00000000000E+00  0.84808548058E+03  0.84808548058E+03  0.00000000000E+00 0. -1.
         -2   -1    0    0    0  501 -0.00000000000E+00 -0.00000000000E+00 -0.52364589267E+02  0.52364589267E+02  0.00000000000E+00 0.  1.
         23    2    1    2    0    0 -0.10514378817E+03 -0.66488119563E+02  0.13516367596E+03  0.22219108096E+03  0.12499508361E+03 0.  0.
          5    1    3    3  502    0  0.31265460402E+01 -0.77429348893E+01 -0.21091052587E+02  0.23165725330E+02  0.47000000000E+01 0. -1.
         -5    1    3    3    0  502 -0.10827033421E+03 -0.58745184674E+02  0.15625472854E+03  0.19902535563E+03  0.47000000000E+01 0. -1.
        -11    1    1    2    0    0  0.83745985017E+02 -0.30875653827E+00  0.35009736594E+03  0.35997451434E+03  0.00000000000E+00 0. -1.
         11    1    1    2    0    0  0.21397803152E+02  0.66796876101E+02  0.31045984942E+03  0.31828447455E+03  0.00000000000E+00 0.  1.
<mgrwt>
<rscale>  0 0.17046121E+03</rscale>
<asrwt>0</asrwt>
<pdfrwt beam="1">  1        2 0.13047468E+00 0.17635095E+03</pdfrwt>
<pdfrwt beam="2">  1       -2 0.80560913E-02 0.17635095E+03</pdfrwt>
<totfact> 0.30402671E+03</totfact>
</mgrwt>
</event>
<event>
 7    1  0.4230786E-006  0.1285761E+03  0.7546771E-02  0.1244113E+00
         -1   -1    0    0    0  501 -0.00000000000E+00  0.00000000000E+00  0.10683533856E+03  0.10683533856E+03  0.00000000000E+00 0.  1.
          1   -1    0    0  501    0  0.00000000000E+00 -0.00000000000E+00 -0.11878226288E+03  0.11878226288E+03  0.00000000000E+00 0. -1.
         23    2    1    2    0    0  0.26395859016E+02 -0.14505430964E+02 -0.18115026269E+02  0.12984591840E+03  0.12499863779E+03 0.  0.
          5    1    3    3  502    0  0.32004238965E+02 -0.18636793568E+02 -0.68903499261E+02  0.78366980270E+02  0.47000000000E+01 0. -1.
         -5    1    3    3    0  502 -0.56083799495E+01  0.41313626031E+01  0.50788472992E+02  0.51478938135E+02  0.47000000000E+01 0. -1.
        -11    1    1    2    0    0  0.32151746866E+02  0.18080688042E+02  0.35352025695E+01  0.37055954499E+02  0.00000000000E+00 0.  1.
         11    1    1    2    0    0 -0.58547605882E+02 -0.35752570779E+01  0.26328993816E+01  0.58715728530E+02  0.00000000000E+00 0. -1.
<mgrwt>
<rscale>  0 0.11938610E+03</rscale>
<asrwt>0</asrwt>
<pdfrwt beam="2">  1        1 0.18274194E-01 0.12857608E+03</pdfrwt>
<pdfrwt beam="1">  1       -1 0.16436206E-01 0.12857608E+03</pdfrwt>
<totfact> 0.75112677E+03</totfact>
</mgrwt>
</event>
<event>
 7    1  0.4230786E-006  0.2097846E+03  0.7546771E-02  0.1144176E+00
         -2   -1    0    0    0  501 -0.00000000000E+00  0.00000000000E+00  0.10270490107E+03  0.10270490107E+03  0.00000000000E+00 0.  1.
          2   -1    0    0  501    0  0.00000000000E+00 -0.00000000000E+00 -0.41721143536E+03  0.41721143536E+03  0.00000000000E+00 0. -1.
         23    2    1    2    0    0 -0.96778608063E+02  0.13790772588E+03 -0.20709234628E+03  0.29478263281E+03  0.12499968352E+03 0.  0.
          5    1    3    3  502    0 -0.11349131920E+03  0.59150366449E+02 -0.11235279862E+03  0.17036515707E+03  0.47000000000E+01 0.  1.
         -5    1    3    3    0  502  0.16712711138E+02  0.78757359431E+02 -0.94739547659E+02  0.12441747574E+03  0.47000000000E+01 0.  1.
        -11    1    1    2    0    0  0.48418969629E+02 -0.18696221753E+01 -0.62853347327E+01  0.48861002238E+02  0.00000000000E+00 0.  1.
         11    1    1    2    0    0  0.48359638433E+02 -0.13603810370E+03 -0.10112885328E+03  0.17627270139E+03  0.00000000000E+00 0. -1.
<mgrwt>
<rscale>  0 0.20673689E+03</rscale>
<asrwt>0</asrwt>
<pdfrwt beam="2">  1        2 0.64186375E-01 0.20978456E+03</pdfrwt>
<pdfrwt beam="1">  1       -2 0.15800754E-01 0.20978456E+03</pdfrwt>
<totfact> 0.23684556E+03</totfact>
</mgrwt>
</event>
<event>
 7    1  0.4230786E-006  0.1267861E+03  0.7546771E-02  0.1247545E+00
          1   -1    0    0  501    0  0.00000000000E+00  0.00000000000E+00  0.56779815715E+03  0.56779815715E+03  0.00000000000E+00 0. -1.
         -1   -1    0    0    0  501 -0.00000000000E+00 -0.00000000000E+00 -0.28922819933E+02  0.28922819933E+02  0.00000000000E+00 0.  1.
         23    2    1    2    0    0  0.19651679450E+02  0.81337028294E+01  0.14778334940E+03  0.19471681902E+03  0.12498950205E+03 0.  0.
          5    1    3    3  502    0  0.12873778891E+02 -0.61501465076E+01 -0.20617900243E+02  0.25509729427E+02  0.47000000000E+01 0.  1.
         -5    1    3    3    0  502  0.67779005594E+01  0.14283849337E+02  0.16840124964E+03  0.16920708959E+03  0.47000000000E+01 0.  1.
        -11    1    1    2    0    0  0.24977604704E+02  0.26303708111E+02  0.13565340893E+03  0.14041941871E+03  0.00000000000E+00 0. -1.
         11    1    1    2    0    0 -0.44629284154E+02 -0.34437410940E+02  0.25543857889E+03  0.26158473935E+03  0.00000000000E+00 0.  1.
<mgrwt>
<rscale>  0 0.11734333E+03</rscale>
<asrwt>0</asrwt>
<pdfrwt beam="1">  1        1 0.87353555E-01 0.12678612E+03</pdfrwt>
<pdfrwt beam="2">  1       -1 0.44496650E-02 0.12678612E+03</pdfrwt>
<totfact> 0.76033480E+03</totfact>
</mgrwt>
</event>
<event>
 7    1  0.4230786E-006  0.1536886E+03  0.7546771E-02  0.1204585E+00
         -2   -1    0    0    0  501 -0.00000000000E+00  0.00000000000E+00  0.37332256299E+03  0.37332256299E+03  0.00000000000E+00 0.  1.
          2   -1    0    0  501    0  0.00000000000E+00 -0.00000000000E+00 -0.53582516691E+02  0.53582516691E+02  0.00000000000E+00 0. -1.
         23    2    1    2    0    0 -0.65777826631E+02  0.60561308201E+02  0.19702894420E+03  0.24988112463E+03  0.12500310823E+03 0.  0.
          5    1    3    3  502    0 -0.70308811731E+02  0.24448390327E+02  0.19961231509E+03  0.21309204380E+03  0.47000000000E+01 0.  1.
         -5    1    3    3    0  502  0.45309850995E+01  0.36112917874E+02 -0.25833708847E+01  0.36789080833E+02  0.47000000000E+01 0.  1.
        -11    1    1    2    0    0  0.25780980182E+02 -0.74449552469E+02  0.51336858282E+02  0.94036523864E+02  0.00000000000E+00 0. -1.
         11    1    1    2    0    0  0.39996846449E+02  0.13888244268E+02  0.71374243813E+02  0.82987431185E+02  0.00000000000E+00 0.  1.
<mgrwt>
<rscale>  0 0.14670204E+03</rscale>
<asrwt>0</asrwt>
<pdfrwt beam="2">  1        2 0.82434643E-02 0.15368855E+03</pdfrwt>
<pdfrwt beam="1">  1       -2 0.57434239E-01 0.15368855E+03</pdfrwt>
<totfact> 0.22972975E+03</totfact>
</mgrwt>
</event>
<event>
 7    1  0.4230786E-006  0.1751602E+03  0.7546771E-02  0.1178980E+00
         -3   -1    0    0    0  501 -0.00000000000E+00  0.00000000000E+00  0.32600255978E+03  0.32600255978E+03  0.00000000000E+00 0.  1.
          3   -1    0    0  501    0  0.00000000000E+00 -0.00000000000E+00 -0.88225703266E+02  0.88225703266E+02  0.00000000000E+00 0. -1.
         23    2    1    2    0    0  0.12226348670E+03 -0.10393213752E+02  0.18250835499E+03  0.25296321202E+03  0.12499883168E+03 0.  0.
          5    1    3    3  502    0 -0.95277087075E+01  0.23483142271E+02  0.65026591087E+00  0.25782708350E+02  0.47000000000E+01 0.  1.
         -5    1    3    3    0  502  0.13179119541E+03 -0.33876356022E+02  0.18185808908E+03  0.22718050367E+03  0.47000000000E+01 0.  1.
        -11    1    1    2    0    0 -0.48541732905E+02 -0.35786143145E+02  0.43411895058E+01  0.60463160693E+02  0.00000000000E+00 0.  1.
         11    1    1    2    0    0 -0.73721753794E+02  0.46179356897E+02  0.50927312024E+02  0.10080189034E+03  0.00000000000E+00 0. -1.
<mgrwt>
<rscale>  0 0.16891906E+03</rscale>
<asrwt>0</asrwt>
<pdfrwt beam="2">  1        3 0.13573185E-01 0.17516018E+03</pdfrwt>
<pdfrwt beam="1">  1       -3 0.50154239E-01 0.17516018E+03</pdfrwt>
<totfact> 0.42037504E+02</totfact>
</mgrwt>
</event>
<event>
 7    1  0.4230786E-006  0.1956847E+03  0.7546771E-02  0.1157881E+00
          2   -1    0    0  501    0  0.00000000000E+00  0.00000000000E+00  0.19263726936E+03  0.19263726936E+03  0.00000000000E+00 0. -1.
         -2   -1    0    0    0  501 -0.00000000000E+00 -0.00000000000E+00 -0.18214458969E+03  0.18214458969E+03  0.00000000000E+00 0.  1.
         23    2    1    2    0    0  0.13866092882E+03 -0.58649311167E+02  0.27771990742E+02  0.19764556073E+03  0.12500355724E+03 0.  0.
          5    1    3    3  502    0  0.42541008385E+02 -0.60340204411E+02  0.60935148817E+02  0.95842892402E+02  0.47000000000E+01 0. -1.
         -5    1    3    3    0  502  0.96119920436E+02  0.16908932435E+01 -0.33163158074E+02  0.10180266832E+03  0.47000000000E+01 0. -1.
        -11    1    1    2    0    0 -0.11311068717E+03  0.24136529939E+01 -0.21745219249E+02  0.11520723863E+03  0.00000000000E+00 0.  1.
         11    1    1    2    0    0 -0.25550241653E+02  0.56235658173E+02  0.44659081827E+01  0.61929059694E+02  0.00000000000E+00 0. -1.
<mgrwt>
<rscale>  0 0.19064500E+03</rscale>
<asrwt>0</asrwt>
<pdfrwt beam="1">  1        2 0.29636503E-01 0.19568466E+03</pdfrwt>
<pdfrwt beam="2">  1       -2 0.28022245E-01 0.19568466E+03</pdfrwt>
<totfact> 0.20316982E+03</totfact>
</mgrwt>
</event>
<event>
 7    1  0.4230786E-006  0.2370962E+03  0.7546771E-02  0.1123613E+00
          1   -1    0    0  501    0  0.00000000000E+00  0.00000000000E+00  0.56795878030E+03  0.56795878030E+03  0.00000000000E+00 0. -1.
         -1   -1    0    0    0  501 -0.00000000000E+00 -0.00000000000E+00 -0.16676000132E+03  0.16676000132E+03  0.00000000000E+00 0.  1.
         23    2    1    2    0    0  0.15197327209E+03  0.14334410592E+03 -0.38494878519E+02  0.24020084549E+03  0.11212128420E+03 0.  0.
          5    1    3    3  502    0  0.18751367353E+02  0.32785376772E+02  0.35335326401E+02  0.51934285396E+02  0.47000000000E+01 0. -1.
         -5    1    3    3    0  502  0.13322190473E+03  0.11055872915E+03 -0.73830204920E+02  0.18826656010E+03  0.47000000000E+01 0.  1.
        -11    1    1    2    0    0 -0.12226724040E+03 -0.61932361676E+02  0.23185926345E+03  0.26933921650E+03  0.00000000000E+00 0.  1.
         11    1    1    2    0    0 -0.29706031691E+02 -0.81411744247E+02  0.20783439405E+03  0.22517871962E+03  0.00000000000E+00 0. -1.
<mgrwt>
<rscale>  0 0.23435308E+03</rscale>
<asrwt>0</asrwt>
<pdfrwt beam="1">  1        1 0.87378273E-01 0.23709616E+03</pdfrwt>
<pdfrwt beam="2">  1       -1 0.25655385E-01 0.23709616E+03</pdfrwt>
<totfact> 0.50981409E+02</totfact>
</mgrwt>
</event>
<event>
 7    1  0.4563230E-006  0.1786142E+03  0.7546771E-02  0.1174795E+00
          3   -1    0    0  501    0  0.00000000000E+00  0.00000000000E+00  0.67971381756E+02  0.67971381756E+02  0.00000000000E+00 0. -1.
         -3   -1    0    0    0  501 -0.00000000000E+00 -0.00000000000E+00 -0.42020374902E+03  0.42020374902E+03  0.00000000000E+00 0.  1.
         23    2    1    2    0    0  0.81791583544E+02  0.97919000230E+02 -0.21588309905E+03  0.28019377922E+03  0.12500019086E+03 0.  0.
          5    1    3    3  502    0 -0.26730192460E+02 -0.65168160124E+01 -0.32319113167E+02  0.42703479434E+02  0.47000000000E+01 0.  1.
         -5    1    3    3    0  502  0.10852177600E+03  0.10443581624E+03 -0.18356398588E+03  0.23749029979E+03  0.47000000000E+01 0.  1.
        -11    1    1    2    0    0 -0.62568264152E+02 -0.13092371207E+02 -0.87063614158E+02  0.10801051233E+03  0.00000000000E+00 0.  1.
         11    1    1    2    0    0 -0.19223319392E+02 -0.84826629023E+02 -0.49285654061E+02  0.99970839228E+02  0.00000000000E+00 0. -1.
<mgrwt>
<rscale>  0 0.17296070E+03</rscale>
<asrwt>0</asrwt>
<pdfrwt beam="1">  1        3 0.10457136E-01 0.17861423E+03</pdfrwt>
<pdfrwt beam="2">  1       -3 0.64646729E-01 0.17861423E+03</pdfrwt>
<totfact> 0.38848976E+02</totfact>
</mgrwt>
</event>
<event>
 7    1  0.4230786E-006  0.1262883E+03  0.7546771E-02  0.1247418E+00
          1   -1    0    0  501    0  0.00000000000E+00  0.00000000000E+00  0.78551113072E+02  0.78551113072E+02  0.00000000000E+00 0. -1.
         -1   -1    0    0    0  501 -0.00000000000E+00 -0.00000000000E+00 -0.18012626284E+03  0.18012626284E+03  0.00000000000E+00 0.  1.
         23    2    1    2    0    0 -0.17633216763E+02 -0.36561786008E+01 -0.10500571640E+03  0.16424050671E+03  0.12499778235E+03 0.  0.
          5    1    3    3  502    0  0.14521814982E+02 -0.53240440786E+02 -0.16641038841E+02  0.57831149211E+02  0.47000000000E+01 0. -1.
         -5    1    3    3    0  502 -0.32155031745E+02  0.49584262185E+02 -0.88364677557E+02  0.10640935750E+03  0.47000000000E+01 0. -1.
        -11    1    1    2    0    0  0.21685514556E+02  0.41777489700E+02 -0.18144755289E+02  0.50446529431E+02  0.00000000000E+00 0. -1.
         11    1    1    2    0    0 -0.40522977931E+01 -0.38121311099E+02  0.21575321919E+02  0.43990339772E+02  0.00000000000E+00 0.  1.
<mgrwt>
<rscale>  0 0.11741839E+03</rscale>
<asrwt>0</asrwt>
<pdfrwt beam="1">  1        1 0.12084787E-01 0.12628834E+03</pdfrwt>
<pdfrwt beam="2">  1       -1 0.27711733E-01 0.12628834E+03</pdfrwt>
<totfact> 0.55084118E+03</totfact>
</mgrwt>
</event>
<event>
 6    1  0.4230786E-006  0.1429681E+03  0.7546771E-02  0.1228803E+00
         -1   -1    0    0    0  501 -0.00000000000E+00  0.00000000000E+00  0.32817433029E+02  0.32817433029E+02  0.00000000000E+00 0.  1.
          1   -1    0    0  501    0  0.00000000000E+00 -0.00000000000E+00 -0.55974061286E+03  0.55974061286E+03  0.00000000000E+00 0. -1.
          5    1    1    2  502    0 -0.21170683354E+02 -0.73157264302E+02 -0.10262336444E+03  0.12788208664E+03  0.47000000000E+01 0. -1.
         -5    1    1    2    0  502 -0.35729190695E+01  0.65204029491E+02 -0.62187839140E+02  0.90298109335E+02  0.47000000000E+01 0.  1.
        -11    1    1    2    0    0 -0.50000991847E+01 -0.38598815300E+02 -0.17530953946E+03  0.17957812829E+03  0.00000000000E+00 0. -1.
         11    1    1    2    0    0  0.29743701609E+02  0.46552050111E+02 -0.18680243679E+03  0.19479972162E+03  0.00000000000E+00 0.  1.
<mgrwt>
<rscale>  0 0.12909589E+03</rscale>
<asrwt>0</asrwt>
<pdfrwt beam="2">  1        1 0.86113934E-01 0.14296806E+03</pdfrwt>
<pdfrwt beam="1">  1       -1 0.50488362E-02 0.14296806E+03</pdfrwt>
<totfact> 0.64775441E+03</totfact>
</mgrwt>
</event>
<event>
 7    1  0.4230786E-006  0.1268155E+03  0.7546771E-02  0.1248611E+00
         -1   -1    0    0    0  501 -0.00000000000E+00  0.00000000000E+00  0.21186234878E+02  0.21186234878E+02  0.00000000000E+00 0.  1.
          1   -1    0    0  501    0  0.00000000000E+00 -0.00000000000E+00 -0.63265769757E+03  0.63265769757E+03  0.00000000000E+00 0. -1.
         23    2    1    2    0    0  0.18287493931E+02  0.11131872396E+02 -0.24064126414E+03  0.27201173656E+03  0.12499526313E+03 0.  0.
          5    1    3    3  502    0 -0.12115622737E+02 -0.25255194006E+02 -0.17953360898E+01  0.28459205370E+02  0.47000000000E+01 0.  1.
         -5    1    3    3    0  502  0.30403116668E+02  0.36387066402E+02 -0.23884592805E+03  0.24355253119E+03  0.47000000000E+01 0.  1.
        -11    1    1    2    0    0  0.30690073108E+02  0.68308618502E+01 -0.73230107655E+02  0.79694353176E+02  0.00000000000E+00 0.  1.
         11    1    1    2    0    0 -0.48977567039E+02 -0.17962734246E+02 -0.29760009090E+03  0.30213784271E+03  0.00000000000E+00 0. -1.
<mgrwt>
<rscale>  0 0.11671809E+03</rscale>
<asrwt>0</asrwt>
<pdfrwt beam="2">  1        1 0.97331954E-01 0.12681548E+03</pdfrwt>
<pdfrwt beam="1">  1       -1 0.32594207E-02 0.12681548E+03</pdfrwt>
<totfact> 0.10353395E+04</totfact>
</mgrwt>
</event>
<event>
 7    1  0.4230786E-006  0.1290377E+03  0.7546771E-02  0.1237735E+00
          1   -1    0    0  501    0  0.00000000000E+00  0.00000000000E+00  0.80212857693E+02  0.80212857693E+02  0.00000000000E+00 0. -1.
         -1   -1    0    0    0  501 -0.00000000000E+00 -0.00000000000E+00 -0.19734465360E+03  0.19734465360E+03  0.00000000000E+00 0.  1.
         23    2    1    2    0    0  0.29503451950E+02 -0.16557214397E+02 -0.11026421536E+03  0.16973195418E+03  0.12452366866E+03 0.  0.
          5    1    3    3  502    0  0.43344492226E+02 -0.60490819571E+02 -0.37445396308E+02  0.83439390958E+02  0.47000000000E+01 0. -1.
         -5    1    3    3    0  502 -0.13841040276E+02  0.43933605175E+02 -0.72818819047E+02  0.86292563220E+02  0.47000000000E+01 0.  1.
        -11    1    1    2    0    0 -0.72491808774E+01  0.11508059496E+02 -0.53878538535E+02  0.55568722960E+02  0.00000000000E+00 0.  1.
         11    1    1    2    0    0 -0.22254271073E+02  0.50491549005E+01  0.47010957980E+02  0.52256834159E+02  0.00000000000E+00 0. -1.
<mgrwt>
<rscale>  0 0.12330972E+03</rscale>
<asrwt>0</asrwt>
<pdfrwt beam="1">  1        1 0.12340440E-01 0.12903774E+03</pdfrwt>
<pdfrwt beam="2">  1       -1 0.30360716E-01 0.12903774E+03</pdfrwt>
<totfact> 0.46084097E+03</totfact>
</mgrwt>
</event>
<event>
 7    1  0.4230786E-006  0.1631355E+03  0.7546771E-02  0.1192667E+00
         -2   -1    0    0    0  501 -0.00000000000E+00  0.00000000000E+00  0.12146150429E+03  0.12146150429E+03  0.00000000000E+00 0.  1.
          2   -1    0    0  501    0  0.00000000000E+00 -0.00000000000E+00 -0.21181083657E+03  0.21181083657E+03  0.00000000000E+00 0. -1.
         23    2    1    2    0    0 -0.10231429379E+03  0.22819292366E+02  0.83920927774E+01  0.16335118025E+03  0.12499698416E+03 0.  0.
          5    1    3    3  502    0 -0.32667519184E+02 -0.32890383788E+02  0.46883681701E+02  0.66099272048E+02  0.47000000000E+01 0. -1.
         -5    1    3    3    0  502 -0.69646774608E+02  0.55709676155E+02 -0.38491588924E+02  0.97251908199E+02  0.47000000000E+01 0. -1.
        -11    1    1    2    0    0  0.23842698982E+02 -0.48932262864E+02 -0.50078115965E+02  0.73963898912E+02  0.00000000000E+00 0. -1.
         11    1    1    2    0    0  0.78471594810E+02  0.26112970497E+02 -0.48663309101E+02  0.95957261700E+02  0.00000000000E+00 0.  1.
<mgrwt>
<rscale>  0 0.15653330E+03</rscale>
<asrwt>0</asrwt>
<pdfrwt beam="2">  1        2 0.32586283E-01 0.16313547E+03</pdfrwt>
<pdfrwt beam="1">  1       -2 0.18686385E-01 0.16313547E+03</pdfrwt>
<totfact> 0.36734978E+03</totfact>
</mgrwt>
</event>
<event>
 7    1  0.4230786E-006  0.1399902E+03  0.7546771E-02  0.1221501E+00
          1   -1    0    0  501    0  0.00000000000E+00  0.00000000000E+00  0.47860691943E+03  0.47860691943E+03  0.00000000000E+00 0. -1.
         -1   -1    0    0    0  501 -0.00000000000E+00 -0.00000000000E+00 -0.41139119442E+02  0.41139119442E+02  0.00000000000E+00 0.  1.
         23    2    1    2    0    0 -0.75245044909E+02 -0.12788410982E+01  0.13232458734E+03  0.19263190921E+03  0.11804153426E+03 0.  0.
          5    1    3    3  502    0 -0.84083282025E+02 -0.32854876857E+02  0.13140362447E+03  0.15949433775E+03  0.47000000000E+01 0. -1.
         -5    1    3    3    0  502  0.88382371166E+01  0.31576035759E+02  0.92096287214E+00  0.33137571459E+02  0.47000000000E+01 0.  1.
        -11    1    1    2    0    0  0.25396768591E+02  0.44225404123E+02  0.11182122956E+03  0.12290186982E+03  0.00000000000E+00 0.  1.
         11    1    1    2    0    0  0.49848276317E+02 -0.42946563024E+02  0.19332198309E+03  0.20421225985E+03  0.00000000000E+00 0. -1.
<mgrwt>
<rscale>  0 0.13409605E+03</rscale>
<asrwt>0</asrwt>
<pdfrwt beam="1">  1        1 0.73631830E-01 0.13999020E+03</pdfrwt>
<pdfrwt beam="2">  1       -1 0.63290956E-02 0.13999020E+03</pdfrwt>
<totfact> 0.56803304E+03</totfact>
</mgrwt>
</event>
<event>
 7    1  0.4230786E-006  0.1445231E+03  0.7546771E-02  0.1216728E+00
         -1   -1    0    0    0  501 -0.00000000000E+00  0.00000000000E+00  0.88413356660E+02  0.88413356660E+02  0.00000000000E+00 0.  1.
          1   -1    0    0  501    0  0.00000000000E+00 -0.00000000000E+00 -0.19552359752E+03  0.19552359752E+03  0.00000000000E+00 0. -1.
         23    2    1    2    0    0 -0.72496848582E+02  0.50586343278E+00 -0.60173322076E+02  0.15654956829E+03  0.12502355654E+03 0.  0.
          5    1    3    3  502    0 -0.21438760649E+02  0.25954461987E+02 -0.86947553981E+02  0.93355351740E+02  0.47000000000E+01 0. -1.
         -5    1    3    3    0  502 -0.51058087933E+02 -0.25448598554E+02  0.26774231905E+02  0.63194216554E+02  0.47000000000E+01 0. -1.
        -11    1    1    2    0    0  0.18040421822E+02  0.16706240802E+02  0.25314191939E+02  0.35289709758E+02  0.00000000000E+00 0.  1.
         11    1    1    2    0    0  0.54456426760E+02 -0.17212104235E+02 -0.72251110724E+02  0.92097676130E+02  0.00000000000E+00 0. -1.
<mgrwt>
<rscale>  0 0.13750353E+03</rscale>
<asrwt>0</asrwt>
<pdfrwt beam="2">  1        1 0.30080553E-01 0.14452314E+03</pdfrwt>
<pdfrwt beam="1">  1       -1 0.13602055E-01 0.14452314E+03</pdfrwt>
<totfact> 0.54351656E+03</totfact>
</mgrwt>
</event>
<event>
 7    1  0.4230786E-006  0.2058804E+03  0.7546771E-02  0.1148989E+00
         -2   -1    0    0    0  501 -0.00000000000E+00  0.00000000000E+00  0.12387638909E+03  0.12387638909E+03  0.00000000000E+00 0.  1.
          2   -1    0    0  501    0  0.00000000000E+00 -0.00000000000E+00 -0.31100402141E+03  0.31100402141E+03  0.00000000000E+00 0. -1.
         23    2    1    2    0    0 -0.12986126112E+03  0.99503039072E+02 -0.95017252371E+02  0.22674882617E+03  0.12498779939E+03 0.  0.
          5    1    3    3  502    0 -0.41040184024E+02 -0.32253868606E+01  0.22454084168E+02  0.47127229082E+02  0.47000000000E+01 0. -1.
         -5    1    3    3    0  502 -0.88821077095E+02  0.10272842593E+03 -0.11747133654E+03  0.17962159708E+03  0.47000000000E+01 0. -1.
        -11    1    1    2    0    0  0.13239095598E+03 -0.58254539309E+02 -0.78810900522E+02  0.16471828865E+03  0.00000000000E+00 0.  1.
         11    1    1    2    0    0 -0.25296948576E+01 -0.41248499763E+02 -0.13299479429E+02  0.43413295680E+02  0.00000000000E+00 0. -1.
<mgrwt>
<rscale>  0 0.20089189E+03</rscale>
<asrwt>0</asrwt>
<pdfrwt beam="2">  1        2 0.47846772E-01 0.20588043E+03</pdfrwt>
<pdfrwt beam="1">  1       -2 0.19057906E-01 0.20588043E+03</pdfrwt>
<totfact> 0.23734412E+03</totfact>
</mgrwt>
</event>
<event>
 7    1  0.4230786E-006  0.1304524E+03  0.7546771E-02  0.1238616E+00
          2   -1    0    0  501    0  0.00000000000E+00  0.00000000000E+00  0.19652426007E+03  0.19652426007E+03  0.00000000000E+00 0. -1.
         -2   -1    0    0    0  501 -0.00000000000E+00 -0.00000000000E+00 -0.69503339002E+02  0.69503339002E+02  0.00000000000E+00 0.  1.
         23    2    1    2    0    0  0.19014747894E+02  0.32089701289E+02  0.58919305440E+02  0.14314091255E+03  0.12500610676E+03 0.  0.
          5    1    3    3  502    0 -0.14071050897E+02  0.74717161243E+02  0.37343321011E+02  0.84836680049E+02  0.47000000000E+01 0.  1.
         -5    1    3    3    0  502  0.33085798790E+02 -0.42627459954E+02  0.21575984429E+02  0.58304232504E+02  0.47000000000E+01 0.  1.
        -11    1    1    2    0    0  0.27694667975E+02  0.61151650433E-01 -0.72065851024E+01  0.28617009673E+02  0.00000000000E+00 0. -1.
         11    1    1    2    0    0 -0.46709415869E+02 -0.32150852939E+02  0.75308200735E+02  0.94269676850E+02  0.00000000000E+00 0.  1.
<mgrwt>
<rscale>  0 0.12275742E+03</rscale>
<asrwt>0</asrwt>
<pdfrwt beam="1">  1        2 0.30234501E-01 0.13045243E+03</pdfrwt>
<pdfrwt beam="2">  1       -2 0.10692821E-01 0.13045243E+03</pdfrwt>
<totfact> 0.97434226E+03</totfact>
</mgrwt>
</event>
<event>
 7    1  0.4230786E-006  0.1364428E+03  0.7546771E-02  0.1231113E+00
          1   -1    0    0  501    0  0.00000000000E+00  0.00000000000E+00  0.28841076643E+03  0.28841076643E+03  0.00000000000E+00 0. -1.
         -1   -1    0    0    0  501 -0.00000000000E+00 -0.00000000000E+00 -0.51276812270E+02  0.51276812270E+02  0.00000000000E+00 0.  1.
         23    2    1    2    0    0 -0.45359975870E+02 -0.30563021345E+02  0.10990955593E+03  0.17520488135E+03  0.12500005712E+03 0.  0.
          5    1    3    3  502    0  0.32382512834E+02 -0.40840544716E+02  0.20549298831E+02  0.56222245709E+02  0.47000000000E+01 0.  1.
         -5    1    3    3    0  502 -0.77742488704E+02  0.10277523371E+02  0.89360257097E+02  0.11898263564E+03  0.47000000000E+01 0.  1.
        -11    1    1    2    0    0 -0.53843604542E+01 -0.24795719747E+02  0.53664246598E+02  0.59360512280E+02  0.00000000000E+00 0.  1.
         11    1    1    2    0    0  0.50744336324E+02  0.55358741092E+02  0.73560151630E+02  0.10512218506E+03  0.00000000000E+00 0. -1.
<mgrwt>
<rscale>  0 0.12756579E+03</rscale>
<asrwt>0</asrwt>
<pdfrwt beam="1">  1        1 0.44370886E-01 0.13644281E+03</pdfrwt>
<pdfrwt beam="2">  1       -1 0.78887405E-02 0.13644281E+03</pdfrwt>
<totfact> 0.77037028E+03</totfact>
</mgrwt>
</event>
<event>
 7    1  0.4230786E-006  0.1443534E+03  0.7546771E-02  0.1217137E+00
         -2   -1    0    0    0  501 -0.00000000000E+00  0.00000000000E+00  0.13943370614E+02  0.13943370614E+02  0.00000000000E+00 0. -1.
          2   -1    0    0  501    0  0.00000000000E+00 -0.00000000000E+00 -0.12458119606E+04  0.12458119606E+04  0.00000000000E+00 0.  1.
         23    2    1    2    0    0  0.30151105644E+02  0.65606264440E+02 -0.61260677096E+03  0.62938459597E+03  0.12499857085E+03 0.  0.
          5    1    3    3  502    0  0.70310856664E+02  0.38132511172E+02 -0.50339063460E+03  0.50972730551E+03  0.47000000000E+01 0. -1.
         -5    1    3    3    0  502 -0.40159751020E+02  0.27473753267E+02 -0.10921613636E+03  0.11965729047E+03  0.47000000000E+01 0. -1.
        -11    1    1    2    0    0 -0.57004719754E+02 -0.68809141888E+02 -0.51286038615E+03  0.52058621934E+03  0.00000000000E+00 0.  1.
         11    1    1    2    0    0  0.26853614110E+02  0.32028774486E+01 -0.10640143289E+03  0.10978451592E+03  0.00000000000E+00 0. -1.
<mgrwt>
<rscale>  0 0.13720726E+03</rscale>
<asrwt>0</asrwt>
<pdfrwt beam="2">  1        2 0.19166335E+00 0.14435343E+03</pdfrwt>
<pdfrwt beam="1">  1       -2 0.21451343E-02 0.14435343E+03</pdfrwt>
<totfact> 0.12718256E+04</totfact>
</mgrwt>
</event>
<event>
 7    1  0.4230786E-006  0.1275673E+03  0.7546771E-02  0.1245440E+00
          1   -1    0    0  501    0  0.00000000000E+00  0.00000000000E+00  0.69215056200E+02  0.69215056200E+02  0.00000000000E+00 0. -1.
         -1   -1    0    0    0  501 -0.00000000000E+00 -0.00000000000E+00 -0.18013220359E+03  0.18013220359E+03  0.00000000000E+00 0.  1.
         23    2    1    2    0    0 -0.18251831719E+01  0.25412308148E+02 -0.71500377735E+02  0.14623858798E+03  0.12499721556E+03 0.  0.
          5    1    3    3  502    0  0.30149884323E+02 -0.40620820982E+02 -0.13422972972E+02  0.52548385563E+02  0.47000000000E+01 0. -1.
         -5    1    3    3    0  502 -0.31975067494E+02  0.66033129130E+02 -0.58077404763E+02  0.93690202412E+02  0.47000000000E+01 0. -1.
        -11    1    1    2    0    0  0.10944862531E+02 -0.59101155349E+02 -0.28644946981E+02  0.66582802336E+02  0.00000000000E+00 0.  1.
         11    1    1    2    0    0 -0.91196793588E+01  0.33688847200E+02 -0.10771822672E+02  0.36525869476E+02  0.00000000000E+00 0. -1.
<mgrwt>
<rscale>  0 0.11859098E+03</rscale>
<asrwt>0</asrwt>
<pdfrwt beam="1">  1        1 0.10648470E-01 0.12756732E+03</pdfrwt>
<pdfrwt beam="2">  1       -1 0.27712647E-01 0.12756732E+03</pdfrwt>
<totfact> 0.65090729E+03</totfact>
</mgrwt>
</event>
<event>
 7    1  0.4230786E-006  0.2005960E+03  0.7546771E-02  0.1153379E+00
          2   -1    0    0  501    0  0.00000000000E+00  0.00000000000E+00  0.41960890115E+03  0.41960890115E+03  0.00000000000E+00 0.  1.
         -2   -1    0    0    0  501 -0.00000000000E+00 -0.00000000000E+00 -0.87260211068E+02  0.87260211068E+02  0.00000000000E+00 0. -1.
         23    2    1    2    0    0  0.10043595685E+03 -0.12052355454E+03  0.18286342761E+03  0.27143651791E+03  0.12500176588E+03 0.  0.
          5    1    3    3  502    0  0.53173497832E+02  0.14154237571E+02  0.71478384975E+02  0.90327254091E+02  0.47000000000E+01 0. -1.
         -5    1    3    3    0  502  0.47262459018E+02 -0.13467779211E+03  0.11138504263E+03  0.18110926382E+03  0.47000000000E+01 0. -1.
        -11    1    1    2    0    0 -0.28512080602E+02  0.21954105438E+02 -0.73429971585E+01  0.36726572030E+02  0.00000000000E+00 0. -1.
         11    1    1    2    0    0 -0.71923876249E+02  0.98569449098E+02  0.15682825964E+03  0.19870602228E+03  0.00000000000E+00 0.  1.
<mgrwt>
<rscale>  0 0.19574548E+03</rscale>
<asrwt>0</asrwt>
<pdfrwt beam="1">  1        2 0.64555214E-01 0.20059599E+03</pdfrwt>
<pdfrwt beam="2">  1       -2 0.13424648E-01 0.20059599E+03</pdfrwt>
<totfact> 0.30727193E+03</totfact>
</mgrwt>
</event>
<event>
 7    1  0.4230786E-006  0.1543881E+03  0.7546771E-02  0.1201750E+00
         -1   -1    0    0    0  501 -0.00000000000E+00  0.00000000000E+00  0.69258373886E+02  0.69258373886E+02  0.00000000000E+00 0.  1.
          1   -1    0    0  501    0  0.00000000000E+00 -0.00000000000E+00 -0.40533838318E+03  0.40533838318E+03  0.00000000000E+00 0. -1.
         23    2    1    2    0    0 -0.77232959535E+02 -0.47432710560E+02 -0.56068638464E+02  0.16425404858E+03  0.12498363168E+03 0.  0.
          5    1    3    3  502    0 -0.78333513374E+02  0.16869754221E+02 -0.23088710596E+01  0.80300366192E+02  0.47000000000E+01 0.  1.
         -5    1    3    3    0  502  0.11005538388E+01 -0.64302464780E+02 -0.53759767405E+02  0.83953682391E+02  0.47000000000E+01 0.  1.
        -11    1    1    2    0    0 -0.19298471301E+02  0.29476740513E+02 -0.63823006446E+02  0.72901888711E+02  0.00000000000E+00 0.  1.
         11    1    1    2    0    0  0.96531430836E+02  0.17955970046E+02 -0.21618836439E+03  0.23744081978E+03  0.00000000000E+00 0. -1.
<mgrwt>
<rscale>  0 0.14896560E+03</rscale>
<asrwt>0</asrwt>
<pdfrwt beam="2">  1        1 0.62359750E-01 0.15438815E+03</pdfrwt>
<pdfrwt beam="1">  1       -1 0.10655135E-01 0.15438815E+03</pdfrwt>
<totfact> 0.32083173E+03</totfact>
</mgrwt>
</event>
<event>
 7    1  0.4230786E-006  0.1896708E+03  0.7546771E-02  0.1163440E+00
          2   -1    0    0  501    0  0.00000000000E+00  0.00000000000E+00  0.39158590433E+03  0.39158590433E+03  0.00000000000E+00 0. -1.
         -2   -1    0    0    0  501 -0.00000000000E+00 -0.00000000000E+00 -0.86052574553E+02  0.86052574553E+02  0.00000000000E+00 0.  1.
         23    2    1    2    0    0 -0.66202381048E+02  0.12634788780E+03  0.11328600377E+03  0.22092697839E+03  0.12501386772E+03 0.  0.
          5    1    3    3  502    0  0.49999135426E+01 -0.19488696378E+02 -0.34643608189E+01  0.20949945533E+02  0.47000000000E+01 0.  1.
         -5    1    3    3    0  502 -0.71202294591E+02  0.14583658417E+03  0.11675036459E+03  0.19997703286E+03  0.47000000000E+01 0.  1.
        -11    1    1    2    0    0  0.68134808386E+02 -0.75538604548E+02  0.17608646722E+03  0.20335898512E+03  0.00000000000E+00 0. -1.
         11    1    1    2    0    0 -0.19324273383E+01 -0.50809283248E+02  0.16160858778E+02  0.53352515367E+02  0.00000000000E+00 0.  1.
<mgrwt>
<rscale>  0 0.18458269E+03</rscale>
<asrwt>0</asrwt>
<pdfrwt beam="1">  1        2 0.60243984E-01 0.18967080E+03</pdfrwt>
<pdfrwt beam="2">  1       -2 0.13238858E-01 0.18967080E+03</pdfrwt>
<totfact> 0.33807435E+03</totfact>
</mgrwt>
</event>
<event>
 6    1  0.4230786E-006  0.1670673E+03  0.7546771E-02  0.1191756E+00
          1   -1    0    0  501    0  0.00000000000E+00  0.00000000000E+00  0.55870158120E+03  0.55870158120E+03  0.00000000000E+00 0. -1.
         -1   -1    0    0    0  501 -0.00000000000E+00 -0.00000000000E+00 -0.71921447472E+02  0.71921447472E+02  0.00000000000E+00 0.  1.
          5    1    1    2  502    0 -0.18202756363E+02 -0.29107166352E+02 -0.15469915431E+01  0.34685020616E+02  0.47000000000E+01 0. -1.
         -5    1    1    2    0  502  0.83414995025E+02  0.99419970484E+02  0.51355000026E+02  0.13964890960E+03  0.47000000000E+01 0.  1.
        -11    1    1    2    0    0 -0.50093888407E+01  0.21190052486E+02  0.77403334055E+02  0.80407639088E+02  0.00000000000E+00 0.  1.
         11    1    1    2    0    0 -0.60202849821E+02 -0.91502856618E+02  0.35956879119E+03  0.37588145936E+03  0.00000000000E+00 0. -1.
<mgrwt>
<rscale>  0 0.15731976E+03</rscale>
<asrwt>0</asrwt>
<pdfrwt beam="1">  1        1 0.85954087E-01 0.16706730E+03</pdfrwt>
<pdfrwt beam="2">  1       -1 0.11064838E-01 0.16706730E+03</pdfrwt>
<totfact> 0.19982714E+03</totfact>
</mgrwt>
</event>
<event>
 7    1  0.4230786E-006  0.1316968E+03  0.7546771E-02  0.1239525E+00
          1   -1    0    0  501    0  0.00000000000E+00  0.00000000000E+00  0.58490989258E+03  0.58490989258E+03  0.00000000000E+00 0. -1.
         -1   -1    0    0    0  501 -0.00000000000E+00 -0.00000000000E+00 -0.28018569234E+02  0.28018569234E+02  0.00000000000E+00 0.  1.
         23    2    1    2    0    0  0.14499840111E+02  0.38819680730E+02  0.17651338338E+03  0.22022946937E+03  0.12500732654E+03 0.  0.
          5    1    3    3  502    0  0.14416119064E+02  0.57978676736E+02  0.18805563684E+03  0.19737366590E+03  0.47000000000E+01 0.  1.
         -5    1    3    3    0  502  0.83721047165E-01 -0.19158996007E+02 -0.11542253456E+02  0.22855803465E+02  0.47000000000E+01 0.  1.
        -11    1    1    2    0    0  0.37342249430E+02 -0.16860691002E+02  0.17619176954E+03  0.18089296876E+03  0.00000000000E+00 0.  1.
         11    1    1    2    0    0 -0.51842089541E+02 -0.21958989728E+02  0.20418617043E+03  0.21180602369E+03  0.00000000000E+00 0. -1.
<mgrwt>
<rscale>  0 0.12219128E+03</rscale>
<asrwt>0</asrwt>
<pdfrwt beam="1">  1        1 0.89986128E-01 0.13169679E+03</pdfrwt>
<pdfrwt beam="2">  1       -1 0.43105496E-02 0.13169679E+03</pdfrwt>
<totfact> 0.76736542E+03</totfact>
</mgrwt>
</event>
<event>
 7    1  0.4230786E-006  0.1562367E+03  0.7546771E-02  0.1200987E+00
          2   -1    0    0  501    0  0.00000000000E+00  0.00000000000E+00  0.50163168335E+03  0.50163168335E+03  0.00000000000E+00 0. -1.
         -2   -1    0    0    0  501 -0.00000000000E+00 -0.00000000000E+00 -0.54755107333E+02  0.54755107333E+02  0.00000000000E+00 0.  1.
         23    2    1    2    0    0  0.69773505019E+02 -0.62519004097E+02  0.99993995327E+02  0.18549585014E+03  0.12503176973E+03 0.  0.
          5    1    3    3  502    0  0.74433599302E+01  0.36306046855E+02  0.12294590445E+02  0.39329118977E+02  0.47000000000E+01 0.  1.
         -5    1    3    3    0  502  0.62330145089E+02 -0.98825050951E+02  0.87699404882E+02  0.14616673116E+03  0.47000000000E+01 0.  1.
        -11    1    1    2    0    0 -0.13582644840E+02  0.44068686349E+02  0.49370134192E+02  0.67556994512E+02  0.00000000000E+00 0.  1.
         11    1    1    2    0    0 -0.56190860180E+02  0.18450317747E+02  0.29751244650E+03  0.30333394603E+03  0.00000000000E+00 0. -1.
<mgrwt>
<rscale>  0 0.14958260E+03</rscale>
<asrwt>0</asrwt>
<pdfrwt beam="1">  1        2 0.77174102E-01 0.15623672E+03</pdfrwt>
<pdfrwt beam="2">  1       -2 0.84238630E-02 0.15623672E+03</pdfrwt>
<totfact> 0.52467799E+03</totfact>
</mgrwt>
</event>
<event>
 7    1  0.4230786E-006  0.1334877E+03  0.7546771E-02  0.1234429E+00
         -2   -1    0    0    0  501 -0.00000000000E+00  0.00000000000E+00  0.16750520330E+02  0.16750520330E+02  0.00000000000E+00 0.  1.
          2   -1    0    0  501    0  0.00000000000E+00 -0.00000000000E+00 -0.88988380725E+03  0.88988380725E+03  0.00000000000E+00 0. -1.
         23    2    1    2    0    0 -0.43858817971E+02 -0.16423437118E+02 -0.38318016782E+03  0.40576595673E+03  0.12500258168E+03 0.  0.
          5    1    3    3  502    0  0.29043174630E+02 -0.15541576628E+02 -0.26318227190E+03  0.26527729801E+03  0.47000000000E+01 0. -1.
         -5    1    3    3    0  502 -0.72901992601E+02 -0.88186048990E+00 -0.11999789592E+03  0.14048865872E+03  0.47000000000E+01 0. -1.
        -11    1    1    2    0    0 -0.74628536241E+01 -0.32345344553E+02 -0.15470529237E+03  0.15822655588E+03  0.00000000000E+00 0.  1.
         11    1    1    2    0    0  0.51321671595E+02  0.48768781671E+02 -0.33524782672E+03  0.34264181497E+03  0.00000000000E+00 0. -1.
<mgrwt>
<rscale>  0 0.12541071E+03</rscale>
<asrwt>0</asrwt>
<pdfrwt beam="2">  1        2 0.13690520E+00 0.13348772E+03</pdfrwt>
<pdfrwt beam="1">  1       -2 0.25770032E-02 0.13348772E+03</pdfrwt>
<totfact> 0.15627129E+04</totfact>
</mgrwt>
</event>
<event>
 7    1  0.4230786E-006  0.2065099E+03  0.7546771E-02  0.1148922E+00
         -1   -1    0    0    0  501 -0.00000000000E+00  0.00000000000E+00  0.26538175681E+02  0.26538175681E+02  0.00000000000E+00 0.  1.
          1   -1    0    0  501    0  0.00000000000E+00 -0.00000000000E+00 -0.14559098243E+04  0.14559098243E+04  0.00000000000E+00 0. -1.
         23    2    1    2    0    0  0.14495083953E+03  0.77489457912E+02 -0.81536676183E+03  0.84111194893E+03  0.12502396714E+03 0.  0.
          5    1    3    3  502    0  0.13414291157E+03  0.94590184869E+02 -0.52680137716E+03  0.55180014930E+03  0.47000000000E+01 0.  1.
         -5    1    3    3    0  502  0.10807927968E+02 -0.17100726957E+02 -0.28856538468E+03  0.28931179963E+03  0.47000000000E+01 0.  1.
        -11    1    1    2    0    0 -0.11568220921E+02 -0.35829375487E+02 -0.22199435360E+03  0.22516451966E+03  0.00000000000E+00 0. -1.
         11    1    1    2    0    0 -0.13338261861E+03 -0.41660082425E+02 -0.39201053323E+03  0.41617153144E+03  0.00000000000E+00 0.  1.
<mgrwt>
<rscale>  0 0.20097091E+03</rscale>
<asrwt>0</asrwt>
<pdfrwt beam="2">  1        1 0.22398620E+00 0.20650994E+03</pdfrwt>
<pdfrwt beam="1">  1       -1 0.40827950E-02 0.20650994E+03</pdfrwt>
<totfact> 0.18274368E+03</totfact>
</mgrwt>
</event>
<event>
 7    1  0.4230786E-006  0.1951887E+03  0.7546771E-02  0.1159828E+00
         -2   -1    0    0    0  501 -0.00000000000E+00  0.00000000000E+00  0.28363195222E+02  0.28363195222E+02  0.00000000000E+00 0.  1.
          2   -1    0    0  501    0  0.00000000000E+00 -0.00000000000E+00 -0.12434483430E+04  0.12434483430E+04  0.00000000000E+00 0. -1.
         23    2    1    2    0    0 -0.12869369219E+03 -0.76885815711E+02 -0.49747290243E+03  0.53439491980E+03  0.12500058635E+03 0.  0.
          5    1    3    3  502    0 -0.40334520385E+02 -0.71619903718E+02 -0.11285405347E+03  0.13969399245E+03  0.47000000000E+01 0. -1.
         -5    1    3    3    0  502 -0.88359171803E+02 -0.52659119931E+01 -0.38461884897E+03  0.39470092735E+03  0.47000000000E+01 0. -1.
        -11    1    1    2    0    0  0.39447508847E+02  0.69588606873E+02 -0.35724053324E+03  0.36608670933E+03  0.00000000000E+00 0.  1.
         11    1    1    2    0    0  0.89246183341E+02  0.72972088382E+01 -0.36037171213E+03  0.37132990911E+03  0.00000000000E+00 0. -1.
<mgrwt>
<rscale>  0 0.18849297E+03</rscale>
<asrwt>0</asrwt>
<pdfrwt beam="2">  1        2 0.19129969E+00 0.19518873E+03</pdfrwt>
<pdfrwt beam="1">  1       -2 0.43635696E-02 0.19518873E+03</pdfrwt>
<totfact> 0.45129656E+03</totfact>
</mgrwt>
</event>
<event>
 7    1  0.4230786E-006  0.1797499E+03  0.7546771E-02  0.1173427E+00
         -2   -1    0    0    0  501 -0.00000000000E+00  0.00000000000E+00  0.84676802302E+02  0.84676802302E+02  0.00000000000E+00 0.  1.
          2   -1    0    0  501    0  0.00000000000E+00 -0.00000000000E+00 -0.34950248359E+03  0.34950248359E+03  0.00000000000E+00 0. -1.
         23    2    1    2    0    0 -0.12169476583E+03  0.43336786112E+02 -0.10220642088E+03  0.20677566437E+03  0.12498931893E+03 0.  0.
          5    1    3    3  502    0 -0.20668515364E+01  0.20260507394E+02  0.23639259430E+02  0.31554153792E+02  0.47000000000E+01 0. -1.
         -5    1    3    3    0  502 -0.11962791429E+03  0.23076278719E+02 -0.12584568031E+03  0.17522151058E+03  0.47000000000E+01 0. -1.
        -11    1    1    2    0    0  0.37828420988E+01 -0.21546838753E+02 -0.77046259404E+02  0.80091836305E+02  0.00000000000E+00 0. -1.
         11    1    1    2    0    0  0.11791192373E+03 -0.21789947359E+02 -0.85573001011E+02  0.14731178522E+03  0.00000000000E+00 0.  1.
<mgrwt>
<rscale>  0 0.17430968E+03</rscale>
<asrwt>0</asrwt>
<pdfrwt beam="2">  1        2 0.53769613E-01 0.17974989E+03</pdfrwt>
<pdfrwt beam="1">  1       -2 0.13027200E-01 0.17974989E+03</pdfrwt>
<totfact> 0.39128631E+03</totfact>
</mgrwt>
</event>
<event>
 6    1  0.4230786E-006  0.3733451E+03  0.7546771E-02  0.1086340E+00
          2   -1    0    0  501    0  0.00000000000E+00  0.00000000000E+00  0.23259463900E+03  0.23259463900E+03  0.00000000000E+00 0. -1.
         -2   -1    0    0    0  501 -0.00000000000E+00 -0.00000000000E+00 -0.35625032186E+03  0.35625032186E+03  0.00000000000E+00 0.  1.
          5    1    1    2  502    0  0.55555372768E+02 -0.18690804627E+03 -0.45010104443E+02  0.20017246740E+03  0.47000000000E+01 0. -1.
         -5    1    1    2    0  502 -0.13302154752E+03  0.92669151417E+02 -0.15054391991E+03  0.22128683999E+03  0.47000000000E+01 0.  1.
        -11    1    1    2    0    0  0.96565408839E+02  0.87053087518E+02  0.56195951166E+02  0.14163722377E+03  0.00000000000E+00 0. -1.
         11    1    1    2    0    0 -0.19099234085E+02  0.71858073329E+01  0.15702390331E+02  0.25748429695E+02  0.00000000000E+00 0.  1.
<mgrwt>
<rscale>  0 0.29781068E+03</rscale>
<asrwt>0</asrwt>
<pdfrwt beam="1">  1        2 0.35783791E-01 0.37334511E+03</pdfrwt>
<pdfrwt beam="2">  1       -2 0.54807742E-01 0.37334511E+03</pdfrwt>
<totfact> 0.46192766E+02</totfact>
</mgrwt>
</event>
<event>
 7    1  0.4230786E-006  0.2235520E+03  0.7546771E-02  0.1134626E+00
         -2   -1    0    0    0  501 -0.00000000000E+00  0.00000000000E+00  0.16319312110E+03  0.16319312110E+03  0.00000000000E+00 0.  1.
          2   -1    0    0  501    0  0.00000000000E+00 -0.00000000000E+00 -0.34726220137E+03  0.34726220137E+03  0.00000000000E+00 0. -1.
         23    2    1    2    0    0 -0.59399786849E+02  0.17556182943E+03  0.14990477217E+02  0.22405400983E+03  0.12500077713E+03 0.  0.
          5    1    3    3  502    0  0.27464153154E+02  0.62235028084E+02  0.39944400786E+02  0.79026094319E+02  0.47000000000E+01 0. -1.
         -5    1    3    3    0  502 -0.86863940004E+02  0.11332680134E+03 -0.24953923568E+02  0.14502791551E+03  0.47000000000E+01 0. -1.
        -11    1    1    2    0    0  0.97969938763E+01 -0.68686741102E+02 -0.13620790844E+03  0.15286086423E+03  0.00000000000E+00 0.  1.
         11    1    1    2    0    0  0.49602792973E+02 -0.10687508832E+03 -0.62851649043E+02  0.13354044841E+03  0.00000000000E+00 0. -1.
<mgrwt>
<rscale>  0 0.21900594E+03</rscale>
<asrwt>0</asrwt>
<pdfrwt beam="2">  1        2 0.53424953E-01 0.22355197E+03</pdfrwt>
<pdfrwt beam="1">  1       -2 0.25106635E-01 0.22355197E+03</pdfrwt>
<totfact> 0.13108549E+03</totfact>
</mgrwt>
</event>
<event>
 6    1  0.4230786E-006  0.2285646E+03  0.7546771E-02  0.1139438E+00
         -1   -1    0    0    0  501 -0.00000000000E+00  0.00000000000E+00  0.22713550188E+03  0.22713550188E+03  0.00000000000E+00 0.  1.
          1   -1    0    0  501    0  0.00000000000E+00 -0.00000000000E+00 -0.24408850500E+03  0.24408850500E+03  0.00000000000E+00 0. -1.
          5    1    1    2  502    0 -0.27937865911E+02 -0.31528854481E+02  0.26435816677E+02  0.49955334249E+02  0.47000000000E+01 0. -1.
         -5    1    1    2    0  502  0.99505740342E+02  0.15692049824E+03  0.87632600995E+02  0.20549208716E+03  0.47000000000E+01 0.  1.
        -11    1    1    2    0    0 -0.69599158586E+02 -0.10417099323E+03 -0.14396325289E+03  0.19084301635E+03  0.00000000000E+00 0. -1.
         11    1    1    2    0    0 -0.19687158453E+01 -0.21220650530E+02  0.12941832099E+02  0.24933569120E+02  0.00000000000E+00 0.  1.
<mgrwt>
<rscale>  0 0.21270960E+03</rscale>
<asrwt>0</asrwt>
<pdfrwt beam="2">  1        1 0.37552078E-01 0.22856461E+03</pdfrwt>
<pdfrwt beam="1">  1       -1 0.34943923E-01 0.22856461E+03</pdfrwt>
<totfact> 0.89325619E+02</totfact>
</mgrwt>
</event>
<event>
 6    1  0.4230786E-006  0.2139201E+03  0.7546771E-02  0.1151413E+00
          4   -1    0    0  501    0  0.00000000000E+00  0.00000000000E+00  0.88087418968E+02  0.88087418968E+02  0.00000000000E+00 0. -1.
         -4   -1    0    0    0  501 -0.00000000000E+00 -0.00000000000E+00 -0.50136764826E+03  0.50136764826E+03  0.00000000000E+00 0.  1.
          5    1    1    2  502    0 -0.59205568365E+02  0.23337206274E+02 -0.32239386566E+02  0.71494003722E+02  0.47000000000E+01 0. -1.
         -5    1    1    2    0  502  0.58763472187E+02  0.95873508698E+02 -0.33628248649E+03  0.35461651971E+03  0.47000000000E+01 0.  1.
        -11    1    1    2    0    0 -0.21500712772E+02 -0.82476315682E+01 -0.44643169810E+02  0.50232625721E+02  0.00000000000E+00 0.  1.
         11    1    1    2    0    0  0.21942808949E+02 -0.11096308340E+03 -0.11518643155E+00  0.11311191808E+03  0.00000000000E+00 0. -1.
<mgrwt>
<rscale>  0 0.19802851E+03</rscale>
<asrwt>0</asrwt>
<pdfrwt beam="1">  1        4 0.13551911E-01 0.21392010E+03</pdfrwt>
<pdfrwt beam="2">  1       -4 0.77133485E-01 0.21392010E+03</pdfrwt>
<totfact> 0.12444315E+02</totfact>
</mgrwt>
</event>
<event>
 7    1  0.4230786E-006  0.1541310E+03  0.7546771E-02  0.1204013E+00
         -1   -1    0    0    0  501 -0.00000000000E+00  0.00000000000E+00  0.16825316436E+03  0.16825316436E+03  0.00000000000E+00 0.  1.
          1   -1    0    0  501    0  0.00000000000E+00 -0.00000000000E+00 -0.15401911422E+03  0.15401911422E+03  0.00000000000E+00 0. -1.
         23    2    1    2    0    0  0.46929902694E+01  0.90046997305E+02  0.84939191866E+02  0.17598590066E+03  0.12500354009E+03 0.  0.
          5    1    3    3  502    0  0.31834923472E+01  0.12026979971E+03  0.52427799068E+02  0.13132297385E+03  0.47000000000E+01 0.  1.
         -5    1    3    3    0  502  0.15094979222E+01 -0.30222802409E+02  0.32511392797E+02  0.44662926808E+02  0.47000000000E+01 0.  1.
        -11    1    1    2    0    0  0.15089177651E+02 -0.71477116446E+02 -0.87800506037E+02  0.11421729430E+03  0.00000000000E+00 0. -1.
         11    1    1    2    0    0 -0.19782167921E+02 -0.18569880859E+02  0.17095364308E+02  0.32069083610E+02  0.00000000000E+00 0.  1.
<mgrwt>
<rscale>  0 0.14715487E+03</rscale>
<asrwt>0</asrwt>
<pdfrwt beam="2">  1        1 0.23695248E-01 0.15413102E+03</pdfrwt>
<pdfrwt beam="1">  1       -1 0.25885102E-01 0.15413102E+03</pdfrwt>
<totfact> 0.26239429E+03</totfact>
</mgrwt>
</event>
<event>
 7    1  0.4230786E-006  0.1363164E+03  0.7546771E-02  0.1230187E+00
          3   -1    0    0  501    0  0.00000000000E+00  0.00000000000E+00  0.24668850944E+03  0.24668850944E+03  0.00000000000E+00 0. -1.
         -3   -1    0    0    0  501 -0.00000000000E+00 -0.00000000000E+00 -0.59940538336E+02  0.59940538336E+02  0.00000000000E+00 0.  1.
         23    2    1    2    0    0  0.17125481048E+02  0.52505906279E+02  0.96919842268E+02  0.16725914009E+03  0.12462749224E+03 0.  0.
          5    1    3    3  502    0 -0.32786339216E+02  0.74507221582E+02  0.56232999142E+02  0.99048020170E+02  0.47000000000E+01 0. -1.
         -5    1    3    3    0  502  0.49911820264E+02 -0.22001315303E+02  0.40686843126E+02  0.68211119919E+02  0.47000000000E+01 0.  1.
        -11    1    1    2    0    0  0.24008242347E+02  0.12483221703E+02  0.37899537350E+02  0.46568245146E+02  0.00000000000E+00 0.  1.
         11    1    1    2    0    0 -0.41133723395E+02 -0.64989127983E+02  0.51928591482E+02  0.92801662536E+02  0.00000000000E+00 0. -1.
<mgrwt>
<rscale>  0 0.12817665E+03</rscale>
<asrwt>0</asrwt>
<pdfrwt beam="1">  1        3 0.37952078E-01 0.13631641E+03</pdfrwt>
<pdfrwt beam="2">  1       -3 0.92216214E-02 0.13631641E+03</pdfrwt>
<totfact> 0.13363961E+03</totfact>
</mgrwt>
</event>
<event>
 7    1  0.5326884E-006  0.1813642E+03  0.7546771E-02  0.1172210E+00
         -3   -1    0    0    0  501 -0.00000000000E+00  0.00000000000E+00  0.24580966493E+03  0.24580966493E+03  0.00000000000E+00 0.  1.
          3   -1    0    0  501    0  0.00000000000E+00 -0.00000000000E+00 -0.12977081113E+03  0.12977081113E+03  0.00000000000E+00 0. -1.
         23    2    1    2    0    0 -0.47362134963E+02 -0.12257495436E+03  0.11818077570E+03  0.21647090828E+03  0.12500066849E+03 0.  0.
          5    1    3    3  502    0 -0.49220852030E+02 -0.14557330779E+03  0.11644066758E+03  0.19285953251E+03  0.47000000000E+01 0.  1.
         -5    1    3    3    0  502  0.18587170676E+01  0.22998353428E+02  0.17401081239E+01  0.23611375771E+02  0.47000000000E+01 0.  1.
        -11    1    1    2    0    0  0.10697061580E+02  0.82322061294E+02  0.38163497457E+02  0.91366303637E+02  0.00000000000E+00 0.  1.
         11    1    1    2    0    0  0.36665073383E+02  0.40252893067E+02 -0.40305419361E+02  0.67743264140E+02  0.00000000000E+00 0. -1.
<mgrwt>
<rscale>  0 0.17552050E+03</rscale>
<asrwt>0</asrwt>
<pdfrwt beam="2">  1        3 0.19964740E-01 0.18136416E+03</pdfrwt>
<pdfrwt beam="1">  1       -3 0.37816871E-01 0.18136416E+03</pdfrwt>
<totfact> 0.37611477E+02</totfact>
</mgrwt>
</event>
<event>
 7    1  0.4230786E-006  0.1317641E+03  0.7546771E-02  0.1236090E+00
         -2   -1    0    0    0  501 -0.00000000000E+00  0.00000000000E+00  0.27669354048E+02  0.27669354048E+02  0.00000000000E+00 0.  1.
          2   -1    0    0  501    0  0.00000000000E+00 -0.00000000000E+00 -0.54879480010E+03  0.54879480010E+03  0.00000000000E+00 0. -1.
         23    2    1    2    0    0  0.36988773649E+02  0.19207306019E+02 -0.20672516234E+03  0.24514701703E+03  0.12499870891E+03 0.  0.
          5    1    3    3  502    0  0.58887320616E+02  0.44134953555E+02 -0.61246264786E+02  0.95858257885E+02  0.47000000000E+01 0.  1.
         -5    1    3    3    0  502 -0.21898546967E+02 -0.24927647536E+02 -0.14547889756E+03  0.14928875914E+03  0.47000000000E+01 0.  1.
        -11    1    1    2    0    0 -0.59466077048E+02  0.11442710228E+02 -0.13538483313E+03  0.14831116943E+03  0.00000000000E+00 0.  1.
         11    1    1    2    0    0  0.22477303399E+02 -0.30650016247E+02 -0.17901545058E+03  0.18300596769E+03  0.00000000000E+00 0. -1.
<mgrwt>
<rscale>  0 0.12434920E+03</rscale>
<asrwt>0</asrwt>
<pdfrwt beam="2">  1        2 0.84429974E-01 0.13176406E+03</pdfrwt>
<pdfrwt beam="1">  1       -2 0.42568234E-02 0.13176406E+03</pdfrwt>
<totfact> 0.13255964E+04</totfact>
</mgrwt>
</event>
<event>
 7    1  0.4230786E-006  0.1330466E+03  0.7546771E-02  0.1235716E+00
         -1   -1    0    0    0  501 -0.00000000000E+00  0.00000000000E+00  0.13941141986E+03  0.13941141986E+03  0.00000000000E+00 0. -1.
          1   -1    0    0  501    0  0.00000000000E+00 -0.00000000000E+00 -0.10515757253E+03  0.10515757253E+03  0.00000000000E+00 0.  1.
         23    2    1    2    0    0 -0.21816824224E+02 -0.40015728085E+02  0.47803563755E+02  0.14137388164E+03  0.12499664551E+03 0.  0.
          5    1    3    3  502    0  0.45544947175E+02 -0.61272744836E+01 -0.87291491789E+01  0.47012485056E+02  0.47000000000E+01 0.  1.
         -5    1    3    3    0  502 -0.67361771398E+02 -0.33888453601E+02  0.56532712934E+02  0.94361396583E+02  0.47000000000E+01 0.  1.
        -11    1    1    2    0    0  0.14545707619E+02 -0.24692004167E+02 -0.23833045725E+02  0.37273137089E+02  0.00000000000E+00 0.  1.
         11    1    1    2    0    0  0.72711166050E+01  0.64707732252E+02  0.10283329306E+02  0.65921973662E+02  0.00000000000E+00 0. -1.
<mgrwt>
<rscale>  0 0.12458722E+03</rscale>
<asrwt>0</asrwt>
<pdfrwt beam="2">  1        1 0.16178088E-01 0.13304658E+03</pdfrwt>
<pdfrwt beam="1">  1       -1 0.21447911E-01 0.13304658E+03</pdfrwt>
<totfact> 0.57578911E+03</totfact>
</mgrwt>
</event>
<event>
 7    1  0.6816838E-006  0.3635220E+03  0.7546771E-02  0.1058190E+00
         -1   -1    0    0    0  501 -0.00000000000E+00  0.00000000000E+00  0.20679047423E+04  0.20679047423E+04  0.00000000000E+00 0.  1.
          1   -1    0    0  501    0  0.00000000000E+00 -0.00000000000E+00 -0.63278452432E+02  0.63278452432E+02  0.00000000000E+00 0. -1.
         23    2    1    2    0    0 -0.32329127114E+03 -0.10956816903E+03  0.11578090909E+04  0.12135362012E+04  0.12500316376E+03 0.  0.
          5    1    3    3  502    0 -0.23581654394E+03 -0.17646985875E+02  0.75960774818E+03  0.79557958722E+03  0.47000000000E+01 0. -1.
         -5    1    3    3    0  502 -0.87474727202E+02 -0.91921183152E+02  0.39820134269E+03  0.41795661394E+03  0.47000000000E+01 0. -1.
        -11    1    1    2    0    0  0.81514555557E+02 -0.55548146698E+01  0.26182401999E+03  0.27427594896E+03  0.00000000000E+00 0.  1.
         11    1    1    2    0    0  0.24177671558E+03  0.11512298370E+03  0.58499317904E+03  0.64337104466E+03  0.00000000000E+00 0. -1.
<mgrwt>
<rscale>  0 0.36099534E+03</rscale>
<asrwt>0</asrwt>
<pdfrwt beam="2">  1        1 0.97351482E-02 0.36352197E+03</pdfrwt>
<pdfrwt beam="1">  1       -1 0.31813914E+00 0.36352197E+03</pdfrwt>
<totfact> 0.19372147E+01</totfact>
</mgrwt>
</event>
<event>
 7    1  0.4230786E-006  0.1250025E+03  0.7546771E-02  0.1250557E+00
          1   -1    0    0  501    0  0.00000000000E+00  0.00000000000E+00  0.41983085478E+03  0.41983085478E+03  0.00000000000E+00 0. -1.
         -1   -1    0    0    0  501 -0.00000000000E+00 -0.00000000000E+00 -0.30082286110E+02  0.30082286110E+02  0.00000000000E+00 0.  1.
         23    2    1    2    0    0 -0.35829817983E+01  0.20250152172E+01  0.16280483774E+03  0.20525845368E+03  0.12493469962E+03 0.  0.
          5    1    3    3  502    0 -0.38757971833E+02  0.83932601185E+01  0.14880144548E+01  0.39961623879E+02  0.47000000000E+01 0.  1.
         -5    1    3    3    0  502  0.35174990035E+02 -0.63682449013E+01  0.16131682329E+03  0.16529682980E+03  0.47000000000E+01 0.  1.
        -11    1    1    2    0    0 -0.19863503486E+02 -0.40944031476E+02  0.12565651068E+03  0.13364329822E+03  0.00000000000E+00 0.  1.
         11    1    1    2    0    0  0.23446485284E+02  0.38919016259E+02  0.10128722025E+03  0.11101138899E+03  0.00000000000E+00 0. -1.
<mgrwt>
<rscale>  0 0.11558880E+03</rscale>
<asrwt>0</asrwt>
<pdfrwt beam="1">  1        1 0.64589358E-01 0.12500247E+03</pdfrwt>
<pdfrwt beam="2">  1       -1 0.46280443E-02 0.12500247E+03</pdfrwt>
<totfact> 0.10604573E+04</totfact>
</mgrwt>
</event>
<event>
 7    1  0.4230786E-006  0.1507962E+03  0.7546771E-02  0.1209023E+00
          2   -1    0    0  501    0  0.00000000000E+00  0.00000000000E+00  0.41305252195E+03  0.41305252195E+03  0.00000000000E+00 0. -1.
         -2   -1    0    0    0  501 -0.00000000000E+00 -0.00000000000E+00 -0.54820912750E+02  0.54820912750E+02  0.00000000000E+00 0.  1.
         23    2    1    2    0    0 -0.15896370599E+02 -0.82834693865E+02  0.97224142981E+02  0.17942136388E+03  0.12500084293E+03 0.  0.
          5    1    3    3  502    0 -0.54185439612E+02 -0.86657436118E+02  0.39042006092E+02  0.10950772274E+03  0.47000000000E+01 0.  1.
         -5    1    3    3    0  502  0.38289069013E+02  0.38227422521E+01  0.58182136889E+02  0.69913641138E+02  0.47000000000E+01 0.  1.
        -11    1    1    2    0    0  0.17970685739E+02  0.66808868170E+02  0.26320336028E+03  0.27214404141E+03  0.00000000000E+00 0. -1.
         11    1    1    2    0    0 -0.20743151400E+01  0.16025825695E+02 -0.21958940609E+01  0.16308029410E+02  0.00000000000E+00 0.  1.
<mgrwt>
<rscale>  0 0.14324909E+03</rscale>
<asrwt>0</asrwt>
<pdfrwt beam="1">  1        2 0.63546540E-01 0.15079619E+03</pdfrwt>
<pdfrwt beam="2">  1       -2 0.84339868E-02 0.15079619E+03</pdfrwt>
<totfact> 0.64582657E+03</totfact>
</mgrwt>
</event>
<event>
 7    1  0.4230786E-006  0.1548771E+03  0.7546771E-02  0.1198439E+00
          2   -1    0    0  501    0  0.00000000000E+00  0.00000000000E+00  0.26049754662E+02  0.26049754662E+02  0.00000000000E+00 0. -1.
         -2   -1    0    0    0  501 -0.00000000000E+00 -0.00000000000E+00 -0.88572701068E+03  0.88572701068E+03  0.00000000000E+00 0.  1.
         23    2    1    2    0    0 -0.36424850851E+02  0.10145315981E+03 -0.54069245369E+03  0.56243689166E+03  0.11120887655E+03 0.  0.
          5    1    3    3  502    0  0.34778693576E+02  0.34791763716E+02 -0.10661672679E+03  0.11751272604E+03  0.47000000000E+01 0. -1.
         -5    1    3    3    0  502 -0.71203544427E+02  0.66661396092E+02 -0.43407572691E+03  0.44492416562E+03  0.47000000000E+01 0.  1.
        -11    1    1    2    0    0  0.58452460146E+02 -0.47989073648E+02 -0.23873357088E+03  0.25042635474E+03  0.00000000000E+00 0. -1.
         11    1    1    2    0    0 -0.22027609294E+02 -0.53464086160E+02 -0.80251231451E+02  0.98913518942E+02  0.00000000000E+00 0.  1.
<mgrwt>
<rscale>  0 0.15166760E+03</rscale>
<asrwt>0</asrwt>
<pdfrwt beam="1">  1        2 0.40076541E-02 0.15487714E+03</pdfrwt>
<pdfrwt beam="2">  1       -2 0.13626571E+00 0.15487714E+03</pdfrwt>
<totfact> 0.83790658E+02</totfact>
</mgrwt>
</event>
<event>
 7    1  0.4230786E-006  0.1683823E+03  0.7546771E-02  0.1185091E+00
          2   -1    0    0  501    0  0.00000000000E+00  0.00000000000E+00  0.30338587075E+03  0.30338587075E+03  0.00000000000E+00 0. -1.
         -2   -1    0    0    0  501 -0.00000000000E+00 -0.00000000000E+00 -0.89902714746E+02  0.89902714746E+02  0.00000000000E+00 0.  1.
         23    2    1    2    0    0 -0.11076977728E+03 -0.21316141416E+02  0.57902935238E+02  0.17805996864E+03  0.12501312362E+03 0.  0.
          5    1    3    3  502    0 -0.59937163880E+02  0.41754981105E+02 -0.78539138943E+01  0.73618720612E+02  0.47000000000E+01 0.  1.
         -5    1    3    3    0  502 -0.50832613398E+02 -0.63071122521E+02  0.65756849133E+02  0.10444124802E+03  0.47000000000E+01 0.  1.
        -11    1    1    2    0    0  0.55049405452E+02 -0.29044510012E+02  0.11269579129E+03  0.12874145400E+03  0.00000000000E+00 0.  1.
         11    1    1    2    0    0  0.55720371826E+02  0.50360651428E+02  0.42884429472E+02  0.86487162862E+02  0.00000000000E+00 0. -1.
<mgrwt>
<rscale>  0 0.16323600E+03</rscale>
<asrwt>0</asrwt>
<pdfrwt beam="1">  1        2 0.46674749E-01 0.16838231E+03</pdfrwt>
<pdfrwt beam="2">  1       -2 0.13831187E-01 0.16838231E+03</pdfrwt>
<totfact> 0.41175896E+03</totfact>
</mgrwt>
</event>
<event>
 7    1  0.4230786E-006  0.1390885E+03  0.7546771E-02  0.1225904E+00
         -2   -1    0    0    0  501 -0.00000000000E+00  0.00000000000E+00  0.90397209213E+02  0.90397209213E+02  0.00000000000E+00 0.  1.
          2   -1    0    0  501    0  0.00000000000E+00 -0.00000000000E+00 -0.25222730466E+03  0.25222730466E+03  0.00000000000E+00 0. -1.
         23    2    1    2    0    0 -0.14183076994E+02 -0.58027648096E+02  0.92961580176E+01  0.13939884345E+03  0.12560752917E+03 0.  0.
          5    1    3    3  502    0  0.38520504547E+02  0.16807785557E+02  0.20621646603E+02  0.47049688995E+02  0.47000000000E+01 0. -1.
         -5    1    3    3    0  502 -0.52703581541E+02 -0.74835433653E+02 -0.11325488586E+02  0.92349154457E+02  0.47000000000E+01 0. -1.
        -11    1    1    2    0    0  0.47065168330E+02  0.21344836523E+02 -0.12691274078E+03  0.13703129529E+03  0.00000000000E+00 0. -1.
         11    1    1    2    0    0 -0.32882091336E+02  0.36682811573E+02 -0.44213512687E+02  0.66194375136E+02  0.00000000000E+00 0.  1.
<mgrwt>
<rscale>  0 0.13105109E+03</rscale>
<asrwt>0</asrwt>
<pdfrwt beam="2">  1        2 0.38804200E-01 0.13908853E+03</pdfrwt>
<pdfrwt beam="1">  1       -2 0.13907263E-01 0.13908853E+03</pdfrwt>
<totfact> 0.49178376E+03</totfact>
</mgrwt>
</event>
<event>
 7    1  0.4230786E-006  0.1306148E+03  0.7546771E-02  0.1240502E+00
          4   -1    0    0  501    0  0.00000000000E+00  0.00000000000E+00  0.10684775251E+03  0.10684775251E+03  0.00000000000E+00 0. -1.
         -4   -1    0    0    0  501 -0.00000000000E+00 -0.00000000000E+00 -0.12360280068E+03  0.12360280068E+03  0.00000000000E+00 0.  1.
         23    2    1    2    0    0 -0.13686688597E+02 -0.35294398159E+02 -0.20946307679E+02  0.13228369559E+03  0.12500883300E+03 0.  0.
          5    1    3    3  502    0 -0.53381318066E+02 -0.46847407630E+02 -0.45012747595E+02  0.84216875780E+02  0.47000000000E+01 0. -1.
         -5    1    3    3    0  502  0.39694629469E+02  0.11553009470E+02  0.24066439916E+02  0.48066819811E+02  0.47000000000E+01 0. -1.
        -11    1    1    2    0    0 -0.32086417095E+02  0.52780919493E+00  0.20913941136E+02  0.38304173120E+02  0.00000000000E+00 0. -1.
         11    1    1    2    0    0  0.45773105692E+02  0.34766588965E+02 -0.16722681625E+02  0.59862684485E+02  0.00000000000E+00 0.  1.
<mgrwt>
<rscale>  0 0.12158682E+03</rscale>
<asrwt>0</asrwt>
<pdfrwt beam="1">  1        4 0.16438116E-01 0.13061481E+03</pdfrwt>
<pdfrwt beam="2">  1       -4 0.19015816E-01 0.13061481E+03</pdfrwt>
<totfact> 0.12950778E+03</totfact>
</mgrwt>
</event>
<event>
 7    1  0.4230786E-006  0.1493266E+03  0.7546771E-02  0.1207373E+00
          4   -1    0    0  501    0  0.00000000000E+00  0.00000000000E+00  0.18204232455E+02  0.18204232455E+02  0.00000000000E+00 0. -1.
         -4   -1    0    0    0  501 -0.00000000000E+00 -0.00000000000E+00 -0.13916417557E+04  0.13916417557E+04  0.00000000000E+00 0.  1.
         23    2    1    2    0    0  0.82396480956E+01  0.81347090935E+02 -0.10549445443E+04  0.10654606570E+04  0.12495270791E+03 0.  0.
          5    1    3    3  502    0  0.16862025046E+02  0.10826992880E+03 -0.96110877568E+03  0.96734630514E+03  0.47000000000E+01 0.  1.
         -5    1    3    3    0  502 -0.86223769508E+01 -0.26922837862E+02 -0.93835768569E+02  0.98114351885E+02  0.47000000000E+01 0.  1.
        -11    1    1    2    0    0 -0.24549730012E+02 -0.99204465318E+02 -0.21428049045E+03  0.23740333563E+03  0.00000000000E+00 0. -1.
         11    1    1    2    0    0  0.16310081916E+02  0.17857374383E+02 -0.10421248852E+03  0.10698199547E+03  0.00000000000E+00 0.  1.
<mgrwt>
<rscale>  0 0.14452017E+03</rscale>
<asrwt>0</asrwt>
<pdfrwt beam="1">  1        4 0.28006509E-02 0.14932656E+03</pdfrwt>
<pdfrwt beam="2">  1       -4 0.21409875E+00 0.14932656E+03</pdfrwt>
<totfact> 0.12252157E+02</totfact>
</mgrwt>
</event>
<event>
 7    1  0.4230786E-006  0.2768907E+03  0.7546771E-02  0.1099343E+00
         -2   -1    0    0    0  501 -0.00000000000E+00  0.00000000000E+00  0.74417331776E+02  0.74417331776E+02  0.00000000000E+00 0. -1.
          2   -1    0    0  501    0  0.00000000000E+00 -0.00000000000E+00 -0.10095007595E+04  0.10095007595E+04  0.00000000000E+00 0.  1.
         23    2    1    2    0    0  0.18031565095E+03 -0.16890675341E+03 -0.38650167749E+03  0.47544925837E+03  0.12500090104E+03 0.  0.
          5    1    3    3  502    0  0.13683671262E+03 -0.44061650008E+02 -0.18352990404E+03  0.23317596488E+03  0.47000000000E+01 0.  1.
         -5    1    3    3    0  502  0.43478938335E+02 -0.12484510340E+03 -0.20297177345E+03  0.24227329350E+03  0.47000000000E+01 0.  1.
        -11    1    1    2    0    0 -0.11971576247E+03  0.51308330480E+02 -0.25010555344E+03  0.28198793666E+03  0.00000000000E+00 0.  1.
         11    1    1    2    0    0 -0.60599888482E+02  0.11759842293E+03 -0.29847619683E+03  0.32648089628E+03  0.00000000000E+00 0. -1.
<mgrwt>
<rscale>  0 0.27341161E+03</rscale>
<asrwt>0</asrwt>
<pdfrwt beam="2">  1        2 0.15530781E+00 0.27689068E+03</pdfrwt>
<pdfrwt beam="1">  1       -2 0.11448821E-01 0.27689068E+03</pdfrwt>
<totfact> 0.13829052E+03</totfact>
</mgrwt>
</event>
<event>
 7    1  0.4230786E-006  0.1651760E+03  0.7546771E-02  0.1190230E+00
          2   -1    0    0  501    0  0.00000000000E+00  0.00000000000E+00  0.37303151149E+03  0.37303151149E+03  0.00000000000E+00 0. -1.
         -2   -1    0    0    0  501 -0.00000000000E+00 -0.00000000000E+00 -0.66923901009E+02  0.66923901009E+02  0.00000000000E+00 0.  1.
         23    2    1    2    0    0  0.10574340131E+03  0.21812549191E+02  0.21998940531E+03  0.27509714140E+03  0.12500257813E+03 0.  0.
          5    1    3    3  502    0  0.36125780724E+02 -0.33715196235E+02  0.15486084616E+02  0.51997070175E+02  0.47000000000E+01 0.  1.
         -5    1    3    3    0  502  0.69617620584E+02  0.55527745426E+02  0.20450332069E+03  0.22310007123E+03  0.47000000000E+01 0.  1.
        -11    1    1    2    0    0 -0.84377340367E+02 -0.48324149701E+02  0.34807790607E+02  0.10327798071E+03  0.00000000000E+00 0. -1.
         11    1    1    2    0    0 -0.21366060940E+02  0.26511600510E+02  0.51310414570E+02  0.61580290395E+02  0.00000000000E+00 0.  1.
<mgrwt>
<rscale>  0 0.15864951E+03</rscale>
<asrwt>0</asrwt>
<pdfrwt beam="1">  1        2 0.57389462E-01 0.16517596E+03</pdfrwt>
<pdfrwt beam="2">  1       -2 0.10295985E-01 0.16517596E+03</pdfrwt>
<totfact> 0.52959996E+03</totfact>
</mgrwt>
</event>
<event>
 7    1  0.4230786E-006  0.1524620E+03  0.7546771E-02  0.1205981E+00
         -1   -1    0    0    0  501 -0.00000000000E+00  0.00000000000E+00  0.95518572059E+03  0.95518572059E+03  0.00000000000E+00 0.  1.
          1   -1    0    0  501    0  0.00000000000E+00 -0.00000000000E+00 -0.20470268034E+02  0.20470268034E+02  0.00000000000E+00 0. -1.
         23    2    1    2    0    0  0.39174399896E+02  0.77999306435E+02  0.53524375746E+03  0.55653440620E+03  0.12500455982E+03 0.  0.
          5    1    3    3  502    0 -0.19152504073E+02  0.52958645055E+02  0.86659845687E+02  0.10345750506E+03  0.47000000000E+01 0. -1.
         -5    1    3    3    0  502  0.58326903968E+02  0.25040661380E+02  0.44858391177E+03  0.45307690115E+03  0.47000000000E+01 0. -1.
        -11    1    1    2    0    0  0.15817956291E+02 -0.69059952836E+02  0.23696794544E+03  0.24733235128E+03  0.00000000000E+00 0.  1.
         11    1    1    2    0    0 -0.54992356186E+02 -0.89393535999E+01  0.16250374966E+03  0.17178923113E+03  0.00000000000E+00 0. -1.
<mgrwt>
<rscale>  0 0.14560449E+03</rscale>
<asrwt>0</asrwt>
<pdfrwt beam="2">  1        1 0.31492727E-02 0.15246201E+03</pdfrwt>
<pdfrwt beam="1">  1       -1 0.14695161E+00 0.15246201E+03</pdfrwt>
<totfact> 0.12471993E+03</totfact>
</mgrwt>
</event>
<event>
 7    1  0.4230786E-006  0.1641262E+03  0.7546771E-02  0.1190599E+00
         -1   -1    0    0    0  501 -0.00000000000E+00  0.00000000000E+00  0.45318497782E+02  0.45318497782E+02  0.00000000000E+00 0.  1.
          1   -1    0    0  501    0  0.00000000000E+00 -0.00000000000E+00 -0.64079052482E+03  0.64079052482E+03  0.00000000000E+00 0. -1.
         23    2    1    2    0    0  0.96447818774E+02  0.44807811124E+02 -0.16478181737E+03  0.23257355928E+03  0.12500996544E+03 0.  0.
          5    1    3    3  502    0  0.11544678695E+03  0.38012573681E+02 -0.80685545299E+02  0.14596288431E+03  0.47000000000E+01 0. -1.
         -5    1    3    3    0  502 -0.18998968179E+02  0.67952374429E+01 -0.84096272068E+02  0.86610674974E+02  0.47000000000E+01 0. -1.
        -11    1    1    2    0    0 -0.57141413135E+02  0.24502460967E+02 -0.20285574297E+03  0.21216965887E+03  0.00000000000E+00 0.  1.
         11    1    1    2    0    0 -0.39306405638E+02 -0.69310272091E+02 -0.22783446670E+03  0.24136580445E+03  0.00000000000E+00 0. -1.
<mgrwt>
<rscale>  0 0.15832640E+03</rscale>
<asrwt>0</asrwt>
<pdfrwt beam="2">  1        1 0.98583153E-01 0.16412621E+03</pdfrwt>
<pdfrwt beam="1">  1       -1 0.69720769E-02 0.16412621E+03</pdfrwt>
<totfact> 0.33454822E+03</totfact>
</mgrwt>
</event>
<event>
 7    1  0.4230786E-006  0.1344589E+03  0.7546771E-02  0.1223846E+00
          1   -1    0    0  501    0  0.00000000000E+00  0.00000000000E+00  0.36642098014E+03  0.36642098014E+03  0.00000000000E+00 0. -1.
         -1   -1    0    0    0  501 -0.00000000000E+00 -0.00000000000E+00 -0.75156392027E+02  0.75156392027E+02  0.00000000000E+00 0.  1.
         23    2    1    2    0    0 -0.49572977267E+02  0.28031466034E+01  0.12070382093E+02  0.13499955566E+03  0.12495538483E+03 0.  0.
          5    1    3    3  502    0 -0.79704441677E+02  0.17783359785E+02 -0.24197058219E+02  0.85303185959E+02  0.47000000000E+01 0. -1.
         -5    1    3    3    0  502  0.30131464410E+02 -0.14980213182E+02  0.36267440311E+02  0.49696369698E+02  0.47000000000E+01 0. -1.
        -11    1    1    2    0    0 -0.20257215290E+02  0.21533725084E+02  0.16890118196E+02  0.34048967385E+02  0.00000000000E+00 0.  1.
         11    1    1    2    0    0  0.69830192557E+02 -0.24336871688E+02  0.26230408782E+03  0.27252884912E+03  0.00000000000E+00 0. -1.
<mgrwt>
<rscale>  0 0.13246297E+03</rscale>
<asrwt>0</asrwt>
<pdfrwt beam="1">  1        1 0.56372458E-01 0.13445886E+03</pdfrwt>
<pdfrwt beam="2">  1       -1 0.11562522E-01 0.13445886E+03</pdfrwt>
<totfact> 0.31940667E+03</totfact>
</mgrwt>
</event>
<event>
 7    1  0.4230786E-006  0.1252430E+03  0.7546771E-02  0.1249548E+00
         -1   -1    0    0    0  501 -0.00000000000E+00  0.00000000000E+00  0.20324857896E+03  0.20324857896E+03  0.00000000000E+00 0.  1.
          1   -1    0    0  501    0  0.00000000000E+00 -0.00000000000E+00 -0.59312445276E+02  0.59312445276E+02  0.00000000000E+00 0. -1.
         23    2    1    2    0    0  0.16091089844E+01  0.76553149612E+01  0.98357266612E+02  0.15924813802E+03  0.12499849794E+03 0.  0.
          5    1    3    3  502    0  0.60867930556E+02 -0.12687220926E+02  0.51461495588E+02  0.80847053583E+02  0.47000000000E+01 0.  1.
         -5    1    3    3    0  502 -0.59258821571E+02  0.20342535887E+02  0.46895771024E+02  0.78401084433E+02  0.47000000000E+01 0.  1.
        -11    1    1    2    0    0  0.40311174293E+02  0.11055413350E+02  0.38567472841E+02  0.56874096903E+02  0.00000000000E+00 0. -1.
         11    1    1    2    0    0 -0.41920283277E+02 -0.18710728311E+02  0.70113942291E+01  0.46438789315E+02  0.00000000000E+00 0.  1.
<mgrwt>
<rscale>  0 0.11617241E+03</rscale>
<asrwt>0</asrwt>
<pdfrwt beam="2">  1        1 0.91249916E-02 0.12524303E+03</pdfrwt>
<pdfrwt beam="1">  1       -1 0.31269012E-01 0.12524303E+03</pdfrwt>
<totfact> 0.65160229E+03</totfact>
</mgrwt>
</event>
<event>
 7    1  0.4230786E-006  0.1467240E+03  0.7546771E-02  0.1214056E+00
         -1   -1    0    0    0  501 -0.00000000000E+00  0.00000000000E+00  0.20125095019E+03  0.20125095019E+03  0.00000000000E+00 0.  1.
          1   -1    0    0  501    0  0.00000000000E+00 -0.00000000000E+00 -0.88494621487E+02  0.88494621487E+02  0.00000000000E+00 0. -1.
         23    2    1    2    0    0 -0.70449239168E+02  0.30702953053E+02  0.70167401788E+02  0.16263885015E+03  0.12498865820E+03 0.  0.
          5    1    3    3  502    0 -0.51580688417E+02  0.68608315406E+02  0.81604134106E+02  0.11852844833E+03  0.47000000000E+01 0.  1.
         -5    1    3    3    0  502 -0.18868550751E+02 -0.37905362352E+02 -0.11436732317E+02  0.44110401819E+02  0.47000000000E+01 0.  1.
        -11    1    1    2    0    0  0.49807315159E+02  0.24636683565E+02  0.23092629115E+01  0.55615353236E+02  0.00000000000E+00 0.  1.
         11    1    1    2    0    0  0.20641924009E+02 -0.55339636619E+02  0.40279664000E+02  0.71491368289E+02  0.00000000000E+00 0. -1.
<mgrwt>
<rscale>  0 0.13946114E+03</rscale>
<asrwt>0</asrwt>
<pdfrwt beam="2">  1        1 0.13614557E-01 0.14672400E+03</pdfrwt>
<pdfrwt beam="1">  1       -1 0.30961685E-01 0.14672400E+03</pdfrwt>
<totfact> 0.39517750E+03</totfact>
</mgrwt>
</event>
<event>
 7    1  0.4230786E-006  0.1811468E+03  0.7546771E-02  0.1171791E+00
          1   -1    0    0  501    0  0.00000000000E+00  0.00000000000E+00  0.80971233156E+03  0.80971233156E+03  0.00000000000E+00 0. -1.
         -1   -1    0    0    0  501 -0.00000000000E+00 -0.00000000000E+00 -0.42380275216E+02  0.42380275216E+02  0.00000000000E+00 0.  1.
         23    2    1    2    0    0 -0.11296963109E+03  0.66570639965E+02  0.24010988552E+03  0.30077721888E+03  0.12498156112E+03 0.  0.
          5    1    3    3  502    0 -0.10644283122E+03  0.11105753024E+02  0.87879984629E+02  0.13855827571E+03  0.47000000000E+01 0. -1.
         -5    1    3    3    0  502 -0.65267998730E+01  0.55464886941E+02  0.15222990089E+03  0.16221894317E+03  0.47000000000E+01 0. -1.
        -11    1    1    2    0    0 -0.54850792412E+01 -0.34206060448E+02  0.17237450671E+03  0.17582124795E+03  0.00000000000E+00 0.  1.
         11    1    1    2    0    0  0.11845471033E+03 -0.32364579517E+02  0.35484766412E+03  0.37549413995E+03  0.00000000000E+00 0. -1.
<mgrwt>
<rscale>  0 0.17593990E+03</rscale>
<asrwt>0</asrwt>
<pdfrwt beam="1">  1        1 0.12457112E+00 0.18114684E+03</pdfrwt>
<pdfrwt beam="2">  1       -1 0.65200429E-02 0.18114684E+03</pdfrwt>
<totfact> 0.26375373E+03</totfact>
</mgrwt>
</event>
<event>
 6    1  0.4230786E-006  0.5513860E+03  0.7546771E-02  0.1061794E+00
          1   -1    0    0  501    0  0.00000000000E+00  0.00000000000E+00  0.39848403584E+03  0.39848403584E+03  0.00000000000E+00 0. -1.
         -1   -1    0    0    0  501 -0.00000000000E+00 -0.00000000000E+00 -0.25939713247E+03  0.25939713247E+03  0.00000000000E+00 0.  1.
          5    1    1    2  502    0  0.27365243442E+03  0.61302258936E+02  0.90561515638E+02  0.29473225125E+03  0.47000000000E+01 0. -1.
         -5    1    1    2    0  502 -0.25830180976E+03 -0.69823173795E+02  0.26313283081E+02  0.26890440568E+03  0.47000000000E+01 0.  1.
        -11    1    1    2    0    0 -0.23853836620E+02 -0.28900686110E+02 -0.15396342659E+02  0.40512992316E+02  0.00000000000E+00 0. -1.
         11    1    1    2    0    0  0.85032119676E+01  0.37421600970E+02  0.37608447310E+02  0.53731519074E+02  0.00000000000E+00 0.  1.
<mgrwt>
<rscale>  0 0.35200865E+03</rscale>
<asrwt>0</asrwt>
<pdfrwt beam="1">  1        1 0.61305236E-01 0.55138604E+03</pdfrwt>
<pdfrwt beam="2">  1       -1 0.39907251E-01 0.55138604E+03</pdfrwt>
<totfact> 0.37477743E+02</totfact>
</mgrwt>
</event>
<event>
 7    1  0.4230786E-006  0.1302483E+03  0.7546771E-02  0.1241437E+00
         -1   -1    0    0    0  501 -0.00000000000E+00  0.00000000000E+00  0.58619304227E+02  0.58619304227E+02  0.00000000000E+00 0.  1.
          1   -1    0    0  501    0  0.00000000000E+00 -0.00000000000E+00 -0.23200923832E+03  0.23200923832E+03  0.00000000000E+00 0. -1.
         23    2    1    2    0    0 -0.17146107481E+02 -0.32342060851E+02 -0.66460600886E+02  0.14622461650E+03  0.12499851638E+03 0.  0.
          5    1    3    3  502    0  0.25333938444E+02  0.78859794746E+01 -0.81329303374E+02  0.85676967131E+02  0.47000000000E+01 0.  1.
         -5    1    3    3    0  502 -0.42480045925E+02 -0.40228040325E+02  0.14868702488E+02  0.60547649367E+02  0.47000000000E+01 0.  1.
        -11    1    1    2    0    0 -0.36752374441E+02  0.19309786487E+02 -0.42865475607E+02  0.59674566444E+02  0.00000000000E+00 0.  1.
         11    1    1    2    0    0  0.53898481922E+02  0.13032274364E+02 -0.64063857601E+02  0.84729359607E+02  0.00000000000E+00 0. -1.
<mgrwt>
<rscale>  0 0.12101173E+03</rscale>
<asrwt>0</asrwt>
<pdfrwt beam="2">  1        1 0.35693729E-01 0.13024833E+03</pdfrwt>
<pdfrwt beam="1">  1       -1 0.90183544E-02 0.13024833E+03</pdfrwt>
<totfact> 0.82069872E+03</totfact>
</mgrwt>
</event>
<event>
 7    1  0.4230786E-006  0.1386260E+03  0.7546771E-02  0.1226075E+00
         -2   -1    0    0    0  501 -0.00000000000E+00  0.00000000000E+00  0.54470715299E+02  0.54470715299E+02  0.00000000000E+00 0.  1.
          2   -1    0    0  501    0  0.00000000000E+00 -0.00000000000E+00 -0.32428394748E+03  0.32428394748E+03  0.00000000000E+00 0. -1.
         23    2    1    2    0    0 -0.47989878087E+01  0.59742642478E+02 -0.82369047215E+02  0.16125085924E+03  0.12499986421E+03 0.  0.
          5    1    3    3  502    0  0.35451849327E+02  0.93070984538E+01  0.18569721152E+02  0.41356743658E+02  0.47000000000E+01 0. -1.
         -5    1    3    3    0  502 -0.40250837136E+02  0.50435544024E+02 -0.10093876837E+03  0.11989411558E+03  0.47000000000E+01 0. -1.
        -11    1    1    2    0    0  0.18554231489E+02 -0.31125200495E+02 -0.10490249973E+02  0.37723771769E+02  0.00000000000E+00 0.  1.
         11    1    1    2    0    0 -0.13755243680E+02 -0.28617441983E+02 -0.17695393499E+03  0.17978003177E+03  0.00000000000E+00 0. -1.
<mgrwt>
<rscale>  0 0.13093521E+03</rscale>
<asrwt>0</asrwt>
<pdfrwt beam="2">  1        2 0.49889838E-01 0.13862604E+03</pdfrwt>
<pdfrwt beam="1">  1       -2 0.83801100E-02 0.13862604E+03</pdfrwt>
<totfact> 0.83989346E+03</totfact>
</mgrwt>
</event>
<event>
 7    1  0.4230786E-006  0.1407834E+03  0.7546771E-02  0.1223004E+00
         -3   -1    0    0    0  501 -0.00000000000E+00  0.00000000000E+00  0.80849368434E+02  0.80849368434E+02  0.00000000000E+00 0.  1.
          3   -1    0    0  501    0  0.00000000000E+00 -0.00000000000E+00 -0.20896148995E+03  0.20896148995E+03  0.00000000000E+00 0. -1.
         23    2    1    2    0    0 -0.15047963436E+02 -0.63057895706E+02 -0.37978239010E+02  0.14581599153E+03  0.12496886546E+03 0.  0.
          5    1    3    3  502    0 -0.34715169954E+02 -0.93080927608E+02 -0.44634163366E+02  0.10901147026E+03  0.47000000000E+01 0.  1.
         -5    1    3    3    0  502  0.19667206518E+02  0.30023031902E+02  0.66559243555E+01  0.36804521269E+02  0.47000000000E+01 0.  1.
        -11    1    1    2    0    0  0.13854749575E+02 -0.23998017224E+01  0.14735308031E+02  0.20367681185E+02  0.00000000000E+00 0.  1.
         11    1    1    2    0    0  0.11932138607E+01  0.65457697429E+02 -0.10486919054E+03  0.12362718567E+03  0.00000000000E+00 0. -1.
<mgrwt>
<rscale>  0 0.13304686E+03</rscale>
<asrwt>0</asrwt>
<pdfrwt beam="2">  1        3 0.32147921E-01 0.14078337E+03</pdfrwt>
<pdfrwt beam="1">  1       -3 0.12438364E-01 0.14078337E+03</pdfrwt>
<totfact> 0.11175645E+03</totfact>
</mgrwt>
</event>
<event>
 7    1  0.4230786E-006  0.1562525E+03  0.7546771E-02  0.1201047E+00
         -4   -1    0    0    0  501 -0.00000000000E+00  0.00000000000E+00  0.22808664443E+03  0.22808664443E+03  0.00000000000E+00 0.  1.
          4   -1    0    0  501    0  0.00000000000E+00 -0.00000000000E+00 -0.95753867249E+02  0.95753867249E+02  0.00000000000E+00 0. -1.
         23    2    1    2    0    0  0.86065276910E+02 -0.37185880054E+02  0.10950636303E+03  0.19080487532E+03  0.12499934134E+03 0.  0.
          5    1    3    3  502    0  0.10839330315E+03 -0.55363012149E+02  0.10591273217E+03  0.16141179671E+03  0.47000000000E+01 0.  1.
         -5    1    3    3    0  502 -0.22328026242E+02  0.18177132094E+02  0.35936308607E+01  0.29393078604E+02  0.47000000000E+01 0.  1.
        -11    1    1    2    0    0 -0.67792833760E+02 -0.19798934426E+02  0.60373539439E+01  0.70882407946E+02  0.00000000000E+00 0. -1.
         11    1    1    2    0    0 -0.18272443150E+02  0.56984814480E+02  0.16789060209E+02  0.62153228417E+02  0.00000000000E+00 0.  1.
<mgrwt>
<rscale>  0 0.14953405E+03</rscale>
<asrwt>0</asrwt>
<pdfrwt beam="2">  1        4 0.14731364E-01 0.15625254E+03</pdfrwt>
<pdfrwt beam="1">  1       -4 0.35090253E-01 0.15625254E+03</pdfrwt>
<totfact> 0.52136581E+02</totfact>
</mgrwt>
</event>
<event>
 7    1  0.4230786E-006  0.1559630E+03  0.7546771E-02  0.1200917E+00
         -2   -1    0    0    0  501 -0.00000000000E+00  0.00000000000E+00  0.66790401455E+02  0.66790401455E+02  0.00000000000E+00 0. -1.
          2   -1    0    0  501    0  0.00000000000E+00 -0.00000000000E+00 -0.37083009854E+03  0.37083009854E+03  0.00000000000E+00 0.  1.
         23    2    1    2    0    0 -0.55433682546E+02 -0.75020053780E+02 -0.74711461478E+02  0.17293428753E+03  0.12499425466E+03 0.  0.
          5    1    3    3  502    0 -0.10469740676E+02 -0.10043097221E+03 -0.32856080993E+02  0.10629020513E+03  0.47000000000E+01 0.  1.
         -5    1    3    3    0  502 -0.44963941870E+02  0.25410918425E+02 -0.41855380485E+02  0.66644082402E+02  0.47000000000E+01 0.  1.
        -11    1    1    2    0    0  0.71708081867E+02  0.35550102284E+02 -0.19185300851E+03  0.20787841555E+03  0.00000000000E+00 0.  1.
         11    1    1    2    0    0 -0.16274399321E+02  0.39469951496E+02 -0.37475227098E+02  0.56807796915E+02  0.00000000000E+00 0. -1.
<mgrwt>
<rscale>  0 0.14963894E+03</rscale>
<asrwt>0</asrwt>
<pdfrwt beam="2">  1        2 0.57050784E-01 0.15596303E+03</pdfrwt>
<pdfrwt beam="1">  1       -2 0.10275446E-01 0.15596303E+03</pdfrwt>
<totfact> 0.53302834E+03</totfact>
</mgrwt>
</event>
<event>
 7    1  0.4230786E-006  0.1684275E+03  0.7546771E-02  0.1186135E+00
          2   -1    0    0  501    0  0.00000000000E+00  0.00000000000E+00  0.12375464473E+04  0.12375464473E+04  0.00000000000E+00 0. -1.
         -2   -1    0    0    0  501 -0.00000000000E+00 -0.00000000000E+00 -0.20175450867E+02  0.20175450867E+02  0.00000000000E+00 0.  1.
         23    2    1    2    0    0  0.67163186006E+01 -0.11268104668E+03  0.57581007898E+03  0.59993755428E+03  0.12500277903E+03 0.  0.
          5    1    3    3  502    0 -0.55486070838E+01 -0.11594454044E+03  0.27129655263E+03  0.29512341989E+03  0.47000000000E+01 0. -1.
         -5    1    3    3    0  502  0.12264925684E+02  0.32634937645E+01  0.30451352636E+03  0.30481413439E+03  0.47000000000E+01 0. -1.
        -11    1    1    2    0    0  0.26047386247E+02  0.14941441682E+02  0.59310037688E+02  0.66478519692E+02  0.00000000000E+00 0.  1.
         11    1    1    2    0    0 -0.32763704847E+02  0.97739604994E+02  0.58225087972E+03  0.59130582415E+03  0.00000000000E+00 0. -1.
<mgrwt>
<rscale>  0 0.16229052E+03</rscale>
<asrwt>0</asrwt>
<pdfrwt beam="1">  1        2 0.19039170E+00 0.16842750E+03</pdfrwt>
<pdfrwt beam="2">  1       -2 0.31039165E-02 0.16842750E+03</pdfrwt>
<totfact> 0.75250116E+03</totfact>
</mgrwt>
</event>
<event>
 7    1  0.4230786E-006  0.1356039E+03  0.7546771E-02  0.1231144E+00
         -1   -1    0    0    0  501 -0.00000000000E+00  0.00000000000E+00  0.17880501489E+03  0.17880501489E+03  0.00000000000E+00 0.  1.
          1   -1    0    0  501    0  0.00000000000E+00 -0.00000000000E+00 -0.88258408051E+02  0.88258408051E+02  0.00000000000E+00 0. -1.
         23    2    1    2    0    0  0.23446410795E+00  0.52513202637E+02  0.86522030284E+02  0.16085542837E+03  0.12502286066E+03 0.  0.
          5    1    3    3  502    0  0.34267944683E+02  0.41150814779E+02 -0.12703614830E+02  0.55237246668E+02  0.47000000000E+01 0. -1.
         -5    1    3    3    0  502 -0.34033480575E+02  0.11362387858E+02  0.99225645114E+02  0.10561818170E+03  0.47000000000E+01 0. -1.
        -11    1    1    2    0    0  0.40853387510E+02 -0.54562644015E+01  0.12722062663E+02  0.43134915911E+02  0.00000000000E+00 0. -1.
         11    1    1    2    0    0 -0.41087851618E+02 -0.47056938236E+02 -0.86974861104E+01  0.63073078657E+02  0.00000000000E+00 0.  1.
<mgrwt>
<rscale>  0 0.12754556E+03</rscale>
<asrwt>0</asrwt>
<pdfrwt beam="2">  1        1 0.13578217E-01 0.13560386E+03</pdfrwt>
<pdfrwt beam="1">  1       -1 0.27508464E-01 0.13560386E+03</pdfrwt>
<totfact> 0.48120827E+03</totfact>
</mgrwt>
</event>
<event>
 7    1  0.4230786E-006  0.1547760E+03  0.7546771E-02  0.1201791E+00
         -2   -1    0    0    0  501 -0.00000000000E+00  0.00000000000E+00  0.58051991272E+02  0.58051991272E+02  0.00000000000E+00 0. -1.
          2   -1    0    0  501    0  0.00000000000E+00 -0.00000000000E+00 -0.48221318695E+03  0.48221318695E+03  0.00000000000E+00 0.  1.
         23    2    1    2    0    0  0.89890205295E+02  0.15816898606E+02 -0.86138677399E+02  0.17713123334E+03  0.12500071516E+03 0.  0.
          5    1    3    3  502    0 -0.41215986229E+01  0.37805311917E+02 -0.69048937948E+02  0.78968823064E+02  0.47000000000E+01 0. -1.
         -5    1    3    3    0  502  0.94011803918E+02 -0.21988413311E+02 -0.17089739450E+02  0.98162410272E+02  0.47000000000E+01 0. -1.
        -11    1    1    2    0    0 -0.33230948520E+02 -0.31187675728E+02 -0.26758832005E+03  0.27144147820E+03  0.00000000000E+00 0.  1.
         11    1    1    2    0    0 -0.56659256775E+02  0.15370777122E+02 -0.70434198220E+02  0.91692466684E+02  0.00000000000E+00 0. -1.
<mgrwt>
<rscale>  0 0.14893215E+03</rscale>
<asrwt>0</asrwt>
<pdfrwt beam="2">  1        2 0.74186645E-01 0.15477597E+03</pdfrwt>
<pdfrwt beam="1">  1       -2 0.89310755E-02 0.15477597E+03</pdfrwt>
<totfact> 0.50002035E+03</totfact>
</mgrwt>
</event>
<event>
 7    1  0.4230786E-006  0.2687933E+03  0.7546771E-02  0.1104124E+00
          1   -1    0    0  501    0  0.00000000000E+00  0.00000000000E+00  0.85333726969E+02  0.85333726969E+02  0.00000000000E+00 0. -1.
         -1   -1    0    0    0  501 -0.00000000000E+00 -0.00000000000E+00 -0.80372566880E+03  0.80372566880E+03  0.00000000000E+00 0.  1.
         23    2    1    2    0    0 -0.46288660183E+02 -0.23340299605E+03 -0.39216614956E+03  0.47544096238E+03  0.12502088315E+03 0.  0.
          5    1    3    3  502    0 -0.30889300498E+02 -0.17139426619E+03 -0.36765990729E+03  0.40684891642E+03  0.47000000000E+01 0.  1.
         -5    1    3    3    0  502 -0.15399359685E+02 -0.62008729866E+02 -0.24506242266E+02  0.68592045955E+02  0.47000000000E+01 0.  1.
        -11    1    1    2    0    0  0.12942538652E+02  0.82550188440E+02 -0.50708748614E+02  0.97741598638E+02  0.00000000000E+00 0. -1.
         11    1    1    2    0    0  0.33346121531E+02  0.15085280761E+03 -0.27551704366E+03  0.31587683475E+03  0.00000000000E+00 0.  1.
<mgrwt>
<rscale>  0 0.26508837E+03</rscale>
<asrwt>0</asrwt>
<pdfrwt beam="1">  1        1 0.13128265E-01 0.26879327E+03</pdfrwt>
<pdfrwt beam="2">  1       -1 0.12365011E+00 0.26879327E+03</pdfrwt>
<totfact> 0.27441036E+02</totfact>
</mgrwt>
</event>
<event>
 7    1  0.4230786E-006  0.1688425E+03  0.7546771E-02  0.1185642E+00
         -1   -1    0    0    0  501 -0.00000000000E+00  0.00000000000E+00  0.15246487529E+03  0.15246487529E+03  0.00000000000E+00 0.  1.
          1   -1    0    0  501    0  0.00000000000E+00 -0.00000000000E+00 -0.16661394887E+03  0.16661394887E+03  0.00000000000E+00 0. -1.
         23    2    1    2    0    0  0.38962355476E+02  0.10660484694E+03  0.18203001616E+02  0.16982085893E+03  0.12500046529E+03 0.  0.
          5    1    3    3  502    0 -0.21413913319E+02  0.10600522105E+03  0.13257095842E+02  0.10905733888E+03  0.47000000000E+01 0.  1.
         -5    1    3    3    0  502  0.60376268796E+02  0.59962589409E+00  0.49459057743E+01  0.60763520050E+02  0.47000000000E+01 0.  1.
        -11    1    1    2    0    0 -0.38721256234E+02 -0.66986347136E+02 -0.62508329871E+02  0.99467571049E+02  0.00000000000E+00 0. -1.
         11    1    1    2    0    0 -0.24109924237E+00 -0.39618499808E+02  0.30156254676E+02  0.49790394173E+02  0.00000000000E+00 0.  1.
<mgrwt>
<rscale>  0 0.16273586E+03</rscale>
<asrwt>0</asrwt>
<pdfrwt beam="2">  1        1 0.25632915E-01 0.16884246E+03</pdfrwt>
<pdfrwt beam="1">  1       -1 0.23456135E-01 0.16884246E+03</pdfrwt>
<totfact> 0.28055592E+03</totfact>
</mgrwt>
</event>
<event>
 7    1  0.4230786E-006  0.1320062E+03  0.7546771E-02  0.1237804E+00
          2   -1    0    0  501    0  0.00000000000E+00  0.00000000000E+00  0.52127190089E+03  0.52127190089E+03  0.00000000000E+00 0. -1.
         -2   -1    0    0    0  501 -0.00000000000E+00 -0.00000000000E+00 -0.27130202618E+02  0.27130202618E+02  0.00000000000E+00 0.  1.
         23    2    1    2    0    0 -0.20114702201E+02  0.37591848227E+02  0.22124537603E+03  0.25763376111E+03  0.12493154186E+03 0.  0.
          5    1    3    3  502    0 -0.42872157308E+02  0.52215169765E+02  0.49949816112E+02  0.84151767393E+02  0.47000000000E+01 0.  1.
         -5    1    3    3    0  502  0.22757455107E+02 -0.14623321538E+02  0.17129555992E+03  0.17348199372E+03  0.47000000000E+01 0.  1.
        -11    1    1    2    0    0 -0.16878984576E+02 -0.41243877534E+02  0.60487435767E+02  0.75131134958E+02  0.00000000000E+00 0.  1.
         11    1    1    2    0    0  0.36993686777E+02  0.36520293066E+01  0.21240888647E+03  0.21563720744E+03  0.00000000000E+00 0. -1.
<mgrwt>
<rscale>  0 0.12326650E+03</rscale>
<asrwt>0</asrwt>
<pdfrwt beam="1">  1        2 0.80195669E-01 0.13200621E+03</pdfrwt>
<pdfrwt beam="2">  1       -2 0.41738777E-02 0.13200621E+03</pdfrwt>
<totfact> 0.14453961E+04</totfact>
</mgrwt>
</event>
<event>
 7    1  0.4230786E-006  0.1329199E+03  0.7546771E-02  0.1234363E+00
          1   -1    0    0  501    0  0.00000000000E+00  0.00000000000E+00  0.44951313256E+02  0.44951313256E+02  0.00000000000E+00 0. -1.
         -1   -1    0    0    0  501 -0.00000000000E+00 -0.00000000000E+00 -0.32342995811E+03  0.32342995811E+03  0.00000000000E+00 0.  1.
         23    2    1    2    0    0 -0.42567386645E+02  0.15248658988E+02 -0.18249007187E+03  0.22576605848E+03  0.12499273109E+03 0.  0.
          5    1    3    3  502    0 -0.17873090620E+02 -0.55019407421E+02 -0.86751792711E+02  0.10437694238E+03  0.47000000000E+01 0.  1.
         -5    1    3    3    0  502 -0.24694296025E+02  0.70268066408E+02 -0.95738279160E+02  0.12138911611E+03  0.47000000000E+01 0.  1.
        -11    1    1    2    0    0 -0.54830678138E+01 -0.32549433363E+02 -0.83863274832E+02  0.90125348878E+02  0.00000000000E+00 0.  1.
         11    1    1    2    0    0  0.48050454459E+02  0.17300774375E+02 -0.12125298148E+02  0.52489864001E+02  0.00000000000E+00 0. -1.
<mgrwt>
<rscale>  0 0.12545308E+03</rscale>
<asrwt>0</asrwt>
<pdfrwt beam="1">  1        1 0.69155865E-02 0.13291985E+03</pdfrwt>
<pdfrwt beam="2">  1       -1 0.49758456E-01 0.13291985E+03</pdfrwt>
<totfact> 0.42094074E+03</totfact>
</mgrwt>
</event>
<event>
 7    1  0.4230786E-006  0.1344626E+03  0.7546771E-02  0.1234719E+00
         -1   -1    0    0    0  501 -0.00000000000E+00  0.00000000000E+00  0.93423815048E+02  0.93423815048E+02  0.00000000000E+00 0.  1.
          1   -1    0    0  501    0  0.00000000000E+00 -0.00000000000E+00 -0.18958100623E+03  0.18958100623E+03  0.00000000000E+00 0. -1.
         23    2    1    2    0    0 -0.47596120551E+02 -0.13790911018E+02  0.11907647610E+02  0.13498880026E+03  0.12499841681E+03 0.  0.
          5    1    3    3  502    0 -0.62620935789E+02  0.15300026258E+02 -0.38102720198E+02  0.75029192246E+02  0.47000000000E+01 0.  1.
         -5    1    3    3    0  502  0.15024815238E+02 -0.29090937276E+02  0.50010367808E+02  0.59959608012E+02  0.47000000000E+01 0.  1.
        -11    1    1    2    0    0  0.58263252520E+02 -0.22958943745E+02 -0.61895916186E+02  0.88050122843E+02  0.00000000000E+00 0.  1.
         11    1    1    2    0    0 -0.10667131969E+02  0.36749854763E+02 -0.46168922607E+02  0.59965898178E+02  0.00000000000E+00 0. -1.
<mgrwt>
<rscale>  0 0.12522453E+03</rscale>
<asrwt>0</asrwt>
<pdfrwt beam="2">  1        1 0.29166308E-01 0.13446258E+03</pdfrwt>
<pdfrwt beam="1">  1       -1 0.14372895E-01 0.13446258E+03</pdfrwt>
<totfact> 0.51601773E+03</totfact>
</mgrwt>
</event>
<event>
 7    1  0.4230786E-006  0.1348426E+03  0.7546771E-02  0.1232919E+00
         -2   -1    0    0    0  501 -0.00000000000E+00  0.00000000000E+00  0.93897273174E+02  0.93897273174E+02  0.00000000000E+00 0.  1.
          2   -1    0    0  501    0  0.00000000000E+00 -0.00000000000E+00 -0.23814590771E+03  0.23814590771E+03  0.00000000000E+00 0. -1.
         23    2    1    2    0    0 -0.34828005768E+02  0.36653021174E+02  0.21287631224E+02  0.13651258309E+03  0.12500435253E+03 0.  0.
          5    1    3    3  502    0 -0.71817578062E+02  0.34942161054E+02 -0.18333106249E+02  0.82078693475E+02  0.47000000000E+01 0. -1.
         -5    1    3    3    0  502  0.36989572294E+02  0.17108601198E+01  0.39620737473E+02  0.54433889616E+02  0.47000000000E+01 0. -1.
        -11    1    1    2    0    0 -0.17018014411E+02  0.97903963470E+01 -0.92803636511E+02  0.94857680895E+02  0.00000000000E+00 0. -1.
         11    1    1    2    0    0  0.51846020179E+02 -0.46443417521E+02 -0.72732629250E+02  0.10067291690E+03  0.00000000000E+00 0.  1.
<mgrwt>
<rscale>  0 0.12638591E+03</rscale>
<asrwt>0</asrwt>
<pdfrwt beam="2">  1        2 0.36637832E-01 0.13484258E+03</pdfrwt>
<pdfrwt beam="1">  1       -2 0.14445734E-01 0.13484258E+03</pdfrwt>
<totfact> 0.49071035E+03</totfact>
</mgrwt>
</event>
<event>
 7    1  0.4230786E-006  0.1322398E+03  0.7546771E-02  0.1237386E+00
         -3   -1    0    0    0  501 -0.00000000000E+00  0.00000000000E+00  0.77774729436E+02  0.77774729436E+02  0.00000000000E+00 0.  1.
          3   -1    0    0  501    0  0.00000000000E+00 -0.00000000000E+00 -0.26027375442E+03  0.26027375442E+03  0.00000000000E+00 0. -1.
         23    2    1    2    0    0  0.39188692460E+02 -0.18054287763E+02 -0.30441127587E+01  0.13227487095E+03  0.12500265573E+03 0.  0.
          5    1    3    3  502    0  0.84138339616E+02 -0.24970584863E+01 -0.48237690776E+01  0.84444385500E+02  0.47000000000E+01 0.  1.
         -5    1    3    3    0  502 -0.44949647155E+02 -0.15557229276E+02  0.17796563190E+01  0.47830485454E+02  0.47000000000E+01 0.  1.
        -11    1    1    2    0    0  0.20471951273E+02  0.25658602531E+01 -0.56930682627E+01  0.21403164579E+02  0.00000000000E+00 0.  1.
         11    1    1    2    0    0 -0.59660643733E+02  0.15488427510E+02 -0.17376184396E+03  0.18437044832E+03  0.00000000000E+00 0. -1.
<mgrwt>
<rscale>  0 0.12352919E+03</rscale>
<asrwt>0</asrwt>
<pdfrwt beam="2">  1        3 0.40042116E-01 0.13223984E+03</pdfrwt>
<pdfrwt beam="1">  1       -3 0.11965343E-01 0.13223984E+03</pdfrwt>
<totfact> 0.77912568E+02</totfact>
</mgrwt>
</event>
<event>
 7    1  0.4230786E-006  0.1364389E+03  0.7546771E-02  0.1229740E+00
         -3   -1    0    0    0  501 -0.00000000000E+00  0.00000000000E+00  0.80622210492E+02  0.80622210492E+02  0.00000000000E+00 0.  1.
          3   -1    0    0  501    0  0.00000000000E+00 -0.00000000000E+00 -0.21661820903E+03  0.21661820903E+03  0.00000000000E+00 0. -1.
         23    2    1    2    0    0 -0.67339656394E+01 -0.54262939021E+02 -0.17738030570E+02  0.13758706548E+03  0.12500300002E+03 0.  0.
          5    1    3    3  502    0 -0.32020563411E+01 -0.61227158111E+02  0.43725074322E+02  0.75451906401E+02  0.47000000000E+01 0.  1.
         -5    1    3    3    0  502 -0.35319092983E+01  0.69642190897E+01 -0.61463104892E+02  0.62135159079E+02  0.47000000000E+01 0.  1.
        -11    1    1    2    0    0 -0.11165055651E+02  0.13964805683E+02  0.12397991161E+02  0.21757399897E+02  0.00000000000E+00 0.  1.
         11    1    1    2    0    0  0.17899021291E+02  0.40298133338E+02 -0.13065595913E+03  0.13789595414E+03  0.00000000000E+00 0. -1.
<mgrwt>
<rscale>  0 0.12847270E+03</rscale>
<asrwt>0</asrwt>
<pdfrwt beam="2">  1        3 0.33325878E-01 0.13643886E+03</pdfrwt>
<pdfrwt beam="1">  1       -3 0.12403417E-01 0.13643886E+03</pdfrwt>
<totfact> 0.10446051E+03</totfact>
</mgrwt>
</event>
<event>
 7    1  0.4230786E-006  0.1509539E+03  0.7546771E-02  0.1207814E+00
          1   -1    0    0  501    0  0.00000000000E+00  0.00000000000E+00  0.39573028706E+03  0.39573028706E+03  0.00000000000E+00 0. -1.
         -1   -1    0    0    0  501 -0.00000000000E+00 -0.00000000000E+00 -0.52307363456E+02  0.52307363456E+02  0.00000000000E+00 0.  1.
         23    2    1    2    0    0  0.82866331139E+02 -0.17199783700E+02  0.12467406909E+03  0.19578225341E+03  0.12499762338E+03 0.  0.
          5    1    3    3  502    0  0.63819729236E+01 -0.44560655647E+01  0.11741080141E+03  0.11776235556E+03  0.47000000000E+01 0. -1.
         -5    1    3    3    0  502  0.76484358215E+02 -0.12743718135E+02  0.72632676815E+01  0.78019897853E+02  0.47000000000E+01 0. -1.
        -11    1    1    2    0    0 -0.51496269726E+02 -0.36630348867E+02  0.10449768183E+03  0.12212048871E+03  0.00000000000E+00 0.  1.
         11    1    1    2    0    0 -0.31370061413E+02  0.53830132567E+02  0.11425117267E+03  0.13013490839E+03  0.00000000000E+00 0. -1.
<mgrwt>
<rscale>  0 0.14417915E+03</rscale>
<asrwt>0</asrwt>
<pdfrwt beam="1">  1        1 0.60881581E-01 0.15095386E+03</pdfrwt>
<pdfrwt beam="2">  1       -1 0.80472869E-02 0.15095386E+03</pdfrwt>
<totfact> 0.50682355E+03</totfact>
</mgrwt>
</event>
<event>
 7    1  0.4230786E-006  0.1631253E+03  0.7546771E-02  0.1192794E+00
         -1   -1    0    0    0  501 -0.00000000000E+00  0.00000000000E+00  0.12117773591E+03  0.12117773591E+03  0.00000000000E+00 0.  1.
          1   -1    0    0  501    0  0.00000000000E+00 -0.00000000000E+00 -0.18716541669E+03  0.18716541669E+03  0.00000000000E+00 0. -1.
         23    2    1    2    0    0 -0.14647773227E+02 -0.10377730220E+03 -0.40543078393E+02  0.16808803947E+03  0.12500224836E+03 0.  0.
          5    1    3    3  502    0  0.13265044041E+02 -0.11439857413E+02  0.38973610310E+02  0.42986789036E+02  0.47000000000E+01 0.  1.
         -5    1    3    3    0  502 -0.27912817268E+02 -0.92337444783E+02 -0.79516688703E+02  0.12510125043E+03  0.47000000000E+01 0.  1.
        -11    1    1    2    0    0 -0.39601870787E+01  0.66469275223E+02  0.28201994399E+02  0.72313208465E+02  0.00000000000E+00 0.  1.
         11    1    1    2    0    0  0.18607960306E+02  0.37308026972E+02 -0.53646596789E+02  0.67941904671E+02  0.00000000000E+00 0. -1.
<mgrwt>
<rscale>  0 0.15642416E+03</rscale>
<asrwt>0</asrwt>
<pdfrwt beam="2">  1        1 0.28794679E-01 0.16312525E+03</pdfrwt>
<pdfrwt beam="1">  1       -1 0.18642729E-01 0.16312525E+03</pdfrwt>
<totfact> 0.35119277E+03</totfact>
</mgrwt>
</event>
<event>
 7    1  0.4230786E-006  0.1451834E+03  0.7546771E-02  0.1219618E+00
          1   -1    0    0  501    0  0.00000000000E+00  0.00000000000E+00  0.26595959328E+03  0.26595959328E+03  0.00000000000E+00 0. -1.
         -1   -1    0    0    0  501 -0.00000000000E+00 -0.00000000000E+00 -0.11116978198E+03  0.11116978198E+03  0.00000000000E+00 0.  1.
         23    2    1    2    0    0  0.34711986689E+02  0.65178510521E+02 -0.42508258710E+02  0.15127841780E+03  0.12500018952E+03 0.  0.
          5    1    3    3  502    0  0.68081156547E+02  0.82258213145E+02 -0.36973181737E+02  0.11309537424E+03  0.47000000000E+01 0. -1.
         -5    1    3    3    0  502 -0.33369169859E+02 -0.17079702624E+02 -0.55350769732E+01  0.38183043565E+02  0.47000000000E+01 0. -1.
        -11    1    1    2    0    0  0.69095890302E+01 -0.83442845046E+01 -0.47835959674E+01  0.11842816170E+02  0.00000000000E+00 0.  1.
         11    1    1    2    0    0 -0.41621575719E+02 -0.56834226017E+02  0.20208166598E+03  0.21400814129E+03  0.00000000000E+00 0. -1.
<mgrwt>
<rscale>  0 0.13542709E+03</rscale>
<asrwt>0</asrwt>
<pdfrwt beam="1">  1        1 0.40916860E-01 0.14518336E+03</pdfrwt>
<pdfrwt beam="2">  1       -1 0.17103044E-01 0.14518336E+03</pdfrwt>
<totfact> 0.25889383E+03</totfact>
</mgrwt>
</event>
<event>
 7    1  0.4230786E-006  0.1357451E+03  0.7546771E-02  0.1236027E+00
          1   -1    0    0  501    0  0.00000000000E+00  0.00000000000E+00  0.50789073503E+02  0.50789073503E+02  0.00000000000E+00 0. -1.
         -1   -1    0    0    0  501 -0.00000000000E+00 -0.00000000000E+00 -0.28506073630E+03  0.28506073630E+03  0.00000000000E+00 0.  1.
         23    2    1    2    0    0 -0.31197653280E+02  0.42790166498E+02 -0.18120828563E+03  0.22641372143E+03  0.12498975378E+03 0.  0.
          5    1    3    3  502    0  0.10865223702E+02 -0.14931536704E+02  0.10516097776E+02  0.21764241013E+02  0.47000000000E+01 0. -1.
         -5    1    3    3    0  502 -0.42062876982E+02  0.57721703202E+02 -0.19172438341E+03  0.20464948041E+03  0.47000000000E+01 0. -1.
        -11    1    1    2    0    0  0.12110819270E+02 -0.10057287435E+02 -0.67180609523E+02  0.69000400505E+02  0.00000000000E+00 0.  1.
         11    1    1    2    0    0  0.19086834010E+02 -0.32732879064E+02  0.14117232356E+02  0.40435687872E+02  0.00000000000E+00 0. -1.
<mgrwt>
<rscale>  0 0.12438935E+03</rscale>
<asrwt>0</asrwt>
<pdfrwt beam="1">  1        1 0.78137037E-02 0.13574509E+03</pdfrwt>
<pdfrwt beam="2">  1       -1 0.43855497E-01 0.13574509E+03</pdfrwt>
<totfact> 0.44896991E+03</totfact>
</mgrwt>
</event>
<event>
 7    1  0.4230786E-006  0.1426943E+03  0.7546771E-02  0.1220222E+00
         -2   -1    0    0    0  501 -0.00000000000E+00  0.00000000000E+00  0.12272490224E+03  0.12272490224E+03  0.00000000000E+00 0.  1.
          2   -1    0    0  501    0  0.00000000000E+00 -0.00000000000E+00 -0.14013756347E+03  0.14013756347E+03  0.00000000000E+00 0. -1.
         23    2    1    2    0    0 -0.54021076779E+02  0.42630248413E+02  0.16451859936E+02  0.14363958285E+03  0.12500420493E+03 0.  0.
          5    1    3    3  502    0  0.35794169445E+02  0.42726216469E+01 -0.17223133445E+02  0.40226908751E+02  0.47000000000E+01 0. -1.
         -5    1    3    3    0  502 -0.89815246224E+02  0.38357626766E+02  0.33674993381E+02  0.10341267410E+03  0.47000000000E+01 0. -1.
        -11    1    1    2    0    0  0.21234849058E+02 -0.27712157268E+02  0.29914088908E+02  0.45975375911E+02  0.00000000000E+00 0.  1.
         11    1    1    2    0    0  0.32786227721E+02 -0.14918091145E+02 -0.63778610069E+02  0.73247506947E+02  0.00000000000E+00 0. -1.
<mgrwt>
<rscale>  0 0.13499826E+03</rscale>
<asrwt>0</asrwt>
<pdfrwt beam="2">  1        2 0.21559625E-01 0.14269431E+03</pdfrwt>
<pdfrwt beam="1">  1       -2 0.18880754E-01 0.14269431E+03</pdfrwt>
<totfact> 0.56445449E+03</totfact>
</mgrwt>
</event>
<event>
 7    1  0.4230786E-006  0.1326569E+03  0.7546771E-02  0.1237402E+00
         -3   -1    0    0    0  501 -0.00000000000E+00  0.00000000000E+00  0.52893371861E+03  0.52893371861E+03  0.00000000000E+00 0.  1.
          3   -1    0    0  501    0  0.00000000000E+00 -0.00000000000E+00 -0.46102498161E+02  0.46102498161E+02  0.00000000000E+00 0. -1.
         23    2    1    2    0    0  0.44058788543E+02 -0.57264703444E+01  0.45139725050E+03  0.47048628246E+03  0.12499557958E+03 0.  0.
          5    1    3    3  502    0  0.37336097123E+01  0.55863291881E+02  0.14954478574E+03  0.15975099425E+03  0.47000000000E+01 0. -1.
         -5    1    3    3    0  502  0.40325178830E+02 -0.61589762225E+02  0.30185246477E+03  0.31073528822E+03  0.47000000000E+01 0. -1.
        -11    1    1    2    0    0 -0.63153863898E+02  0.24801684741E+02  0.36566838307E+02  0.77075727405E+02  0.00000000000E+00 0.  1.
         11    1    1    2    0    0  0.19095075355E+02 -0.19075214397E+02 -0.51328683644E+01  0.27474206899E+02  0.00000000000E+00 0. -1.
<mgrwt>
<rscale>  0 0.12351934E+03</rscale>
<asrwt>0</asrwt>
<pdfrwt beam="2">  1        3 0.70926924E-02 0.13265694E+03</pdfrwt>
<pdfrwt beam="1">  1       -3 0.81374414E-01 0.13265694E+03</pdfrwt>
<totfact> 0.43177129E+02</totfact>
</mgrwt>
</event>
<event>
 7    1  0.4230786E-006  0.1657721E+03  0.7546771E-02  0.1186707E+00
          1   -1    0    0  501    0  0.00000000000E+00  0.00000000000E+00  0.23212698270E+03  0.23212698270E+03  0.00000000000E+00 0. -1.
         -1   -1    0    0    0  501 -0.00000000000E+00 -0.00000000000E+00 -0.11443714107E+03  0.11443714107E+03  0.00000000000E+00 0.  1.
         23    2    1    2    0    0 -0.69572226397E+02 -0.83760113563E+02  0.19327337569E+02  0.16689502824E+03  0.12499741263E+03 0.  0.
          5    1    3    3  502    0  0.90179437292E+01  0.21748826961E+02  0.25603844799E+02  0.35099596177E+02  0.47000000000E+01 0. -1.
         -5    1    3    3    0  502 -0.78590170126E+02 -0.10550894052E+03 -0.62765072299E+01  0.13179543207E+03  0.47000000000E+01 0. -1.
        -11    1    1    2    0    0  0.39630730090E+02 -0.36836119664E+01  0.74095210811E+02  0.84108644203E+02  0.00000000000E+00 0. -1.
         11    1    1    2    0    0  0.29941496307E+02  0.87443725529E+02  0.24267293244E+02  0.95560451322E+02  0.00000000000E+00 0.  1.
<mgrwt>
<rscale>  0 0.16177491E+03</rscale>
<asrwt>0</asrwt>
<pdfrwt beam="1">  1        1 0.35711843E-01 0.16577215E+03</pdfrwt>
<pdfrwt beam="2">  1       -1 0.17605714E-01 0.16577215E+03</pdfrwt>
<totfact> 0.29434594E+03</totfact>
</mgrwt>
</event>
<event>
 7    1  0.4230786E-006  0.2459023E+03  0.7546771E-02  0.1118438E+00
          2   -1    0    0  501    0  0.00000000000E+00  0.00000000000E+00  0.36567155941E+03  0.36567155941E+03  0.00000000000E+00 0. -1.
         -2   -1    0    0    0  501 -0.00000000000E+00 -0.00000000000E+00 -0.15539513541E+03  0.15539513541E+03  0.00000000000E+00 0.  1.
         23    2    1    2    0    0  0.67553783372E+02 -0.20071398544E+03  0.10619605942E+03  0.26785354527E+03  0.12497320145E+03 0.  0.
          5    1    3    3  502    0  0.12144809137E+02 -0.61662487976E+02  0.99706845288E+02  0.11795466845E+03  0.47000000000E+01 0.  1.
         -5    1    3    3    0  502  0.55408974235E+02 -0.13905149746E+03  0.64892141325E+01  0.14989887682E+03  0.47000000000E+01 0.  1.
        -11    1    1    2    0    0 -0.26580363059E+02  0.30482536218E+02 -0.13116382087E+02  0.42517528076E+02  0.00000000000E+00 0.  1.
         11    1    1    2    0    0 -0.40973420313E+02  0.17023144922E+03  0.11719674667E+03  0.21069562147E+03  0.00000000000E+00 0. -1.
<mgrwt>
<rscale>  0 0.24204531E+03</rscale>
<asrwt>0</asrwt>
<pdfrwt beam="1">  1        2 0.56257163E-01 0.24590225E+03</pdfrwt>
<pdfrwt beam="2">  1       -2 0.23906944E-01 0.24590225E+03</pdfrwt>
<totfact> 0.13533494E+03</totfact>
</mgrwt>
</event>
<event>
 7    1  0.4230786E-006  0.1546630E+03  0.7546771E-02  0.1198741E+00
         -1   -1    0    0    0  501 -0.00000000000E+00  0.00000000000E+00  0.42452643807E+02  0.42452643807E+02  0.00000000000E+00 0.  1.
          1   -1    0    0  501    0  0.00000000000E+00 -0.00000000000E+00 -0.55018664433E+03  0.55018664433E+03  0.00000000000E+00 0. -1.
         23    2    1    2    0    0  0.42193929368E+02  0.80715508714E+02 -0.19305019385E+03  0.24736414110E+03  0.12500127972E+03 0.  0.
          5    1    3    3  502    0  0.51903164731E+02  0.87665399329E+02 -0.70120327416E+02  0.12376635676E+03  0.47000000000E+01 0.  1.
         -5    1    3    3    0  502 -0.97092353624E+01 -0.69498906151E+01 -0.12292986644E+03  0.12359778434E+03  0.47000000000E+01 0.  1.
        -11    1    1    2    0    0 -0.31481474432E+02 -0.10787200571E+03 -0.23711172585E+03  0.26239173650E+03  0.00000000000E+00 0.  1.
         11    1    1    2    0    0 -0.10712454936E+02  0.27156496997E+02 -0.77572080824E+02  0.82883410543E+02  0.00000000000E+00 0. -1.
<mgrwt>
<rscale>  0 0.15141860E+03</rscale>
<asrwt>0</asrwt>
<pdfrwt beam="2">  1        1 0.84644102E-01 0.15466299E+03</pdfrwt>
<pdfrwt beam="1">  1       -1 0.65311758E-02 0.15466299E+03</pdfrwt>
<totfact> 0.45343368E+03</totfact>
</mgrwt>
</event>
<event>
 7    1  0.4230786E-006  0.3447395E+03  0.7546771E-02  0.1065948E+00
          2   -1    0    0  501    0  0.00000000000E+00  0.00000000000E+00  0.12244316475E+04  0.12244316475E+04  0.00000000000E+00 0. -1.
         -2   -1    0    0    0  501 -0.00000000000E+00 -0.00000000000E+00 -0.14012725513E+03  0.14012725513E+03  0.00000000000E+00 0.  1.
         23    2    1    2    0    0 -0.18824554449E+03  0.26035215891E+03  0.15669050022E+03  0.37867830736E+03  0.12500286371E+03 0.  0.
          5    1    3    3  502    0 -0.84457849763E+02  0.26340841056E+02  0.44427128826E+02  0.99110181465E+02  0.47000000000E+01 0.  1.
         -5    1    3    3    0  502 -0.10378769473E+03  0.23401131785E+03  0.11226337140E+03  0.27956812590E+03  0.47000000000E+01 0.  1.
        -11    1    1    2    0    0  0.16472604600E+03 -0.26009151529E+03  0.88746874442E+03  0.93935245721E+03  0.00000000000E+00 0. -1.
         11    1    1    2    0    0  0.23519498493E+02 -0.26064361703E+00  0.40145147762E+02  0.46528138082E+02  0.00000000000E+00 0.  1.
<mgrwt>
<rscale>  0 0.34199856E+03</rscale>
<asrwt>0</asrwt>
<pdfrwt beam="1">  1        2 0.18837409E+00 0.34473954E+03</pdfrwt>
<pdfrwt beam="2">  1       -2 0.21558040E-01 0.34473954E+03</pdfrwt>
<totfact> 0.35629481E+02</totfact>
</mgrwt>
</event>
<event>
 7    1  0.4230786E-006  0.2316568E+03  0.7546771E-02  0.1128508E+00
         -3   -1    0    0    0  501 -0.00000000000E+00  0.00000000000E+00  0.18526085107E+03  0.18526085107E+03  0.00000000000E+00 0.  1.
          3   -1    0    0  501    0  0.00000000000E+00 -0.00000000000E+00 -0.26999990222E+03  0.26999990222E+03  0.00000000000E+00 0. -1.
         23    2    1    2    0    0 -0.15927250416E+03  0.11257399390E+03 -0.31335462713E+02  0.23376655392E+03  0.12499702326E+03 0.  0.
          5    1    3    3  502    0 -0.52137315069E+02  0.70474763881E+02  0.41876340183E+02  0.97266180319E+02  0.47000000000E+01 0. -1.
         -5    1    3    3    0  502 -0.10713518910E+03  0.42099230022E+02 -0.73211802896E+02  0.13650037361E+03  0.47000000000E+01 0. -1.
        -11    1    1    2    0    0  0.75213895099E+02 -0.62284938627E+02 -0.72590363240E+02  0.12167951525E+03  0.00000000000E+00 0.  1.
         11    1    1    2    0    0  0.84058609065E+02 -0.50289055276E+02  0.19186774798E+02  0.99814684119E+02  0.00000000000E+00 0. -1.
<mgrwt>
<rscale>  0 0.22736477E+03</rscale>
<asrwt>0</asrwt>
<pdfrwt beam="2">  1        3 0.41538447E-01 0.23165684E+03</pdfrwt>
<pdfrwt beam="1">  1       -3 0.28501669E-01 0.23165684E+03</pdfrwt>
<totfact> 0.16883355E+02</totfact>
</mgrwt>
</event>
<event>
 7    1  0.4230786E-006  0.1473882E+03  0.7546771E-02  0.1213946E+00
         -2   -1    0    0    0  501 -0.00000000000E+00  0.00000000000E+00  0.19634246515E+02  0.19634246515E+02  0.00000000000E+00 0.  1.
          2   -1    0    0  501    0  0.00000000000E+00 -0.00000000000E+00 -0.94823220020E+03  0.94823220020E+03  0.00000000000E+00 0. -1.
         23    2    1    2    0    0  0.73950328335E+02 -0.25075258126E+02 -0.40337203483E+03  0.42945581101E+03  0.12500350191E+03 0.  0.
          5    1    3    3  502    0  0.29514236407E+02 -0.32693029701E+02 -0.37128932691E+03  0.37392215583E+03  0.47000000000E+01 0.  1.
         -5    1    3    3    0  502  0.44436091928E+02  0.76177715749E+01 -0.32082707924E+02  0.55533655177E+02  0.47000000000E+01 0.  1.
        -11    1    1    2    0    0 -0.38370575753E+02 -0.32472737980E+02 -0.19985614266E+03  0.20608070641E+03  0.00000000000E+00 0. -1.
         11    1    1    2    0    0 -0.35579752582E+02  0.57547996106E+02 -0.32536977620E+03  0.33232992930E+03  0.00000000000E+00 0.  1.
<mgrwt>
<rscale>  0 0.13954207E+03</rscale>
<asrwt>0</asrwt>
<pdfrwt beam="2">  1        2 0.14588188E+00 0.14738825E+03</pdfrwt>
<pdfrwt beam="1">  1       -2 0.30206531E-02 0.14738825E+03</pdfrwt>
<totfact> 0.11453830E+04</totfact>
</mgrwt>
</event>
<event>
 7    1  0.4230786E-006  0.1255626E+03  0.7546771E-02  0.1249543E+00
          2   -1    0    0  501    0  0.00000000000E+00  0.00000000000E+00  0.34600964237E+02  0.34600964237E+02  0.00000000000E+00 0. -1.
         -2   -1    0    0    0  501 -0.00000000000E+00 -0.00000000000E+00 -0.42154902828E+03  0.42154902828E+03  0.00000000000E+00 0.  1.
         23    2    1    2    0    0  0.11879909505E+02 -0.37512034348E+00 -0.31575748530E+03  0.33980694615E+03  0.12499879266E+03 0.  0.
          5    1    3    3  502    0 -0.32389517451E+02 -0.35734327503E+02 -0.24134762885E+03  0.24616415449E+03  0.47000000000E+01 0.  1.
         -5    1    3    3    0  502  0.44269426956E+02  0.35359207160E+02 -0.74409856442E+02  0.93642791659E+02  0.47000000000E+01 0.  1.
        -11    1    1    2    0    0 -0.38586888207E+02  0.67847303592E+01  0.90896329987E+00  0.39189370011E+02  0.00000000000E+00 0. -1.
         11    1    1    2    0    0  0.26706978702E+02 -0.64096100158E+01 -0.72099542050E+02  0.77153676359E+02  0.00000000000E+00 0.  1.
<mgrwt>
<rscale>  0 0.11617571E+03</rscale>
<asrwt>0</asrwt>
<pdfrwt beam="1">  1        2 0.53232257E-02 0.12556262E+03</pdfrwt>
<pdfrwt beam="2">  1       -2 0.64853691E-01 0.12556262E+03</pdfrwt>
<totfact> 0.30871547E+03</totfact>
</mgrwt>
</event>
<event>
 7    1  0.4230786E-006  0.1306112E+03  0.7546771E-02  0.1242135E+00
         -1   -1    0    0    0  501 -0.00000000000E+00  0.00000000000E+00  0.16218322406E+03  0.16218322406E+03  0.00000000000E+00 0.  1.
          1   -1    0    0  501    0  0.00000000000E+00 -0.00000000000E+00 -0.78449137378E+02  0.78449137378E+02  0.00000000000E+00 0. -1.
         23    2    1    2    0    0 -0.30745167188E+02 -0.22083867894E+02  0.51857777852E+02  0.14052937444E+03  0.12500525361E+03 0.  0.
          5    1    3    3  502    0  0.31027354964E+02 -0.44746419404E+02  0.50706567562E+02  0.74553234668E+02  0.47000000000E+01 0. -1.
         -5    1    3    3    0  502 -0.61772522152E+02  0.22662551510E+02  0.11512102899E+01  0.65976139771E+02  0.47000000000E+01 0. -1.
        -11    1    1    2    0    0  0.59641689197E+02  0.15805616268E+02  0.34014322319E+02  0.70455111374E+02  0.00000000000E+00 0. -1.
         11    1    1    2    0    0 -0.28896522009E+02  0.62782516255E+01 -0.21380134848E+01  0.29647875629E+02  0.00000000000E+00 0.  1.
<mgrwt>
<rscale>  0 0.12058484E+03</rscale>
<asrwt>0</asrwt>
<pdfrwt beam="2">  1        1 0.12069098E-01 0.13061116E+03</pdfrwt>
<pdfrwt beam="1">  1       -1 0.24951265E-01 0.13061116E+03</pdfrwt>
<totfact> 0.65768250E+03</totfact>
</mgrwt>
</event>
<event>
 7    1  0.4230786E-006  0.1376173E+03  0.7546771E-02  0.1227092E+00
         -2   -1    0    0    0  501 -0.00000000000E+00  0.00000000000E+00  0.97918616707E+02  0.97918616707E+02  0.00000000000E+00 0.  1.
          2   -1    0    0  501    0  0.00000000000E+00 -0.00000000000E+00 -0.17212549659E+03  0.17212549659E+03  0.00000000000E+00 0. -1.
         23    2    1    2    0    0  0.51431395514E+02 -0.25843380599E+02 -0.11043458013E+01  0.13762168433E+03  0.12500175860E+03 0.  0.
          5    1    3    3  502    0  0.30256234378E+02  0.41716271009E+02  0.30366891818E+02  0.59999375866E+02  0.47000000000E+01 0. -1.
         -5    1    3    3    0  502  0.21175161135E+02 -0.67559651608E+02 -0.31471237620E+02  0.77622308467E+02  0.47000000000E+01 0. -1.
        -11    1    1    2    0    0 -0.54041809808E+02  0.43642818224E+02 -0.85806510720E+02  0.11039913981E+03  0.00000000000E+00 0. -1.
         11    1    1    2    0    0  0.26104142946E+01 -0.17799437626E+02  0.12703976637E+02  0.22023289150E+02  0.00000000000E+00 0.  1.
<mgrwt>
<rscale>  0 0.13024552E+03</rscale>
<asrwt>0</asrwt>
<pdfrwt beam="2">  1        2 0.26480846E-01 0.13761725E+03</pdfrwt>
<pdfrwt beam="1">  1       -2 0.15064403E-01 0.13761725E+03</pdfrwt>
<totfact> 0.65170217E+03</totfact>
</mgrwt>
</event>
<event>
 6    1  0.4230786E-006  0.3078194E+03  0.7546771E-02  0.1085508E+00
         -2   -1    0    0    0  501 -0.00000000000E+00  0.00000000000E+00  0.34218581750E+03  0.34218581750E+03  0.00000000000E+00 0.  1.
          2   -1    0    0  501    0  0.00000000000E+00 -0.00000000000E+00 -0.43295887810E+03  0.43295887810E+03  0.00000000000E+00 0. -1.
          5    1    1    2  502    0  0.32796982095E+01 -0.58207432523E+02 -0.22299127975E+02  0.62595548801E+02  0.47000000000E+01 0. -1.
         -5    1    1    2    0  502  0.10492737722E+03 -0.17780834819E+03  0.22803038397E+03  0.30764510266E+03  0.47000000000E+01 0.  1.
        -11    1    1    2    0    0 -0.59026286827E+02  0.11680866460E+03 -0.81451551443E+02  0.15415161982E+03  0.00000000000E+00 0.  1.
         11    1    1    2    0    0 -0.49180788606E+02  0.11920711611E+03 -0.21505276516E+03  0.25075242432E+03  0.00000000000E+00 0. -1.
<mgrwt>
<rscale>  0 0.29946557E+03</rscale>
<asrwt>0</asrwt>
<pdfrwt beam="2">  1        2 0.66609058E-01 0.30781941E+03</pdfrwt>
<pdfrwt beam="1">  1       -2 0.52643972E-01 0.30781941E+03</pdfrwt>
<totfact> 0.25456004E+02</totfact>
</mgrwt>
</event>
<event>
 7    1  0.4230786E-006  0.1288795E+03  0.7546771E-02  0.1244652E+00
         -1   -1    0    0    0  501 -0.00000000000E+00  0.00000000000E+00  0.31199361765E+03  0.31199361765E+03  0.00000000000E+00 0.  1.
          1   -1    0    0  501    0  0.00000000000E+00 -0.00000000000E+00 -0.40106092496E+02  0.40106092496E+02  0.00000000000E+00 0. -1.
         23    2    1    2    0    0 -0.10983532123E+02 -0.29419434752E+02  0.17328699054E+03  0.21595906724E+03  0.12499518596E+03 0.  0.
          5    1    3    3  502    0  0.23038232329E+02 -0.70854462724E+02  0.10906982272E+03  0.13217197610E+03  0.47000000000E+01 0.  1.
         -5    1    3    3    0  502 -0.34021764452E+02  0.41435027973E+02  0.64217167819E+02  0.83787091143E+02  0.47000000000E+01 0.  1.
        -11    1    1    2    0    0  0.16187625873E+02 -0.40799830241E+01 -0.11936127390E+02  0.20522101012E+02  0.00000000000E+00 0. -1.
         11    1    1    2    0    0 -0.52040937501E+01  0.33499417776E+02  0.11053666201E+03  0.11561854190E+03  0.00000000000E+00 0.  1.
<mgrwt>
<rscale>  0 0.11906212E+03</rscale>
<asrwt>0</asrwt>
<pdfrwt beam="2">  1        1 0.61701683E-02 0.12887955E+03</pdfrwt>
<pdfrwt beam="1">  1       -1 0.47999017E-01 0.12887955E+03</pdfrwt>
<totfact> 0.52317443E+03</totfact>
</mgrwt>
</event>
<event>
 7    1  0.4230786E-006  0.1392545E+03  0.7546771E-02  0.1224049E+00
          2   -1    0    0  501    0  0.00000000000E+00  0.00000000000E+00  0.26105479043E+03  0.26105479043E+03  0.00000000000E+00 0. -1.
         -2   -1    0    0    0  501 -0.00000000000E+00 -0.00000000000E+00 -0.73605104929E+02  0.73605104929E+02  0.00000000000E+00 0.  1.
         23    2    1    2    0    0  0.40415302098E+02  0.46187024717E+02  0.33241288034E+02  0.14316701748E+03  0.12500069507E+03 0.  0.
          5    1    3    3  502    0 -0.28110795551E+02 -0.19524120078E+02  0.33481749020E+02  0.48109516821E+02  0.47000000000E+01 0.  1.
         -5    1    3    3    0  502  0.68526097649E+02  0.65711144795E+02 -0.24046098683E+00  0.95057500655E+02  0.47000000000E+01 0.  1.
        -11    1    1    2    0    0 -0.71844738400E+02 -0.36451209366E+02  0.11240391712E+03  0.13829315848E+03  0.00000000000E+00 0. -1.
         11    1    1    2    0    0  0.31429436301E+02 -0.97358153506E+01  0.41804480346E+02  0.53199719395E+02  0.00000000000E+00 0.  1.
<mgrwt>
<rscale>  0 0.13232306E+03</rscale>
<asrwt>0</asrwt>
<pdfrwt beam="1">  1        2 0.40162275E-01 0.13925449E+03</pdfrwt>
<pdfrwt beam="2">  1       -2 0.11323862E-01 0.13925449E+03</pdfrwt>
<totfact> 0.65937504E+03</totfact>
</mgrwt>
</event>
<event>
 7    1  0.4230786E-006  0.1306110E+03  0.7546771E-02  0.1240763E+00
          1   -1    0    0  501    0  0.00000000000E+00  0.00000000000E+00  0.21585158401E+03  0.21585158401E+03  0.00000000000E+00 0. -1.
         -1   -1    0    0    0  501 -0.00000000000E+00 -0.00000000000E+00 -0.81423130630E+02  0.81423130630E+02  0.00000000000E+00 0.  1.
         23    2    1    2    0    0 -0.23642851184E+02 -0.29587191685E+02 -0.68944519362E+00  0.13061281744E+03  0.12499938568E+03 0.  0.
          5    1    3    3  502    0 -0.73125478503E+02 -0.29848930385E+02  0.10054580903E+02  0.79758879434E+02  0.47000000000E+01 0. -1.
         -5    1    3    3    0  502  0.49482627319E+02  0.26173870022E+00 -0.10744026097E+02  0.50853938002E+02  0.47000000000E+01 0. -1.
        -11    1    1    2    0    0  0.29230479795E+01  0.12551761785E+02 -0.11704466151E+02  0.17409349823E+02  0.00000000000E+00 0.  1.
         11    1    1    2    0    0  0.20719803204E+02  0.17035429900E+02  0.14682236473E+03  0.14925254739E+03  0.00000000000E+00 0. -1.
<mgrwt>
<rscale>  0 0.12142572E+03</rscale>
<asrwt>0</asrwt>
<pdfrwt beam="1">  1        1 0.33207936E-01 0.13061100E+03</pdfrwt>
<pdfrwt beam="2">  1       -1 0.12526636E-01 0.13061100E+03</pdfrwt>
<totfact> 0.54285044E+03</totfact>
</mgrwt>
</event>
<event>
 7    1  0.4230786E-006  0.1784367E+03  0.7546771E-02  0.1175148E+00
         -2   -1    0    0    0  501 -0.00000000000E+00  0.00000000000E+00  0.10883988850E+03  0.10883988850E+03  0.00000000000E+00 0.  1.
          2   -1    0    0  501    0  0.00000000000E+00 -0.00000000000E+00 -0.26137782141E+03  0.26137782141E+03  0.00000000000E+00 0. -1.
         23    2    1    2    0    0 -0.10160460428E+03  0.76754762376E+02 -0.10426209291E+03  0.20666452910E+03  0.12499941764E+03 0.  0.
          5    1    3    3  502    0 -0.10315525437E+03  0.93920084510E+02 -0.11906172240E+03  0.18346599827E+03  0.47000000000E+01 0. -1.
         -5    1    3    3    0  502  0.15506500892E+01 -0.17165322134E+02  0.14799629491E+02  0.23198530831E+02  0.47000000000E+01 0. -1.
        -11    1    1    2    0    0  0.12485386527E+00 -0.33926398998E+02  0.14361942461E+02  0.36841301941E+02  0.00000000000E+00 0.  1.
         11    1    1    2    0    0  0.10147975042E+03 -0.42828363377E+02 -0.62637782470E+02  0.12671187887E+03  0.00000000000E+00 0. -1.
<mgrwt>
<rscale>  0 0.17261529E+03</rscale>
<asrwt>0</asrwt>
<pdfrwt beam="2">  1        2 0.40211972E-01 0.17843667E+03</pdfrwt>
<pdfrwt beam="1">  1       -2 0.16744598E-01 0.17843667E+03</pdfrwt>
<totfact> 0.35345624E+03</totfact>
</mgrwt>
</event>
<event>
 7    1  0.4230786E-006  0.1356470E+03  0.7546771E-02  0.1231292E+00
         -2   -1    0    0    0  501 -0.00000000000E+00  0.00000000000E+00  0.56468821014E+02  0.56468821014E+02  0.00000000000E+00 0.  1.
          2   -1    0    0  501    0  0.00000000000E+00 -0.00000000000E+00 -0.26379897836E+03  0.26379897836E+03  0.00000000000E+00 0. -1.
         23    2    1    2    0    0  0.43013989569E+02 -0.30407168396E+02 -0.92459319346E+02  0.16416102464E+03  0.12500126835E+03 0.  0.
          5    1    3    3  502    0 -0.77786291454E+01 -0.35993931259E+02 -0.10497180991E+03  0.11134289844E+03  0.47000000000E+01 0. -1.
         -5    1    3    3    0  502  0.50792618714E+02  0.55867628637E+01  0.12512490560E+02  0.52818126199E+02  0.47000000000E+01 0. -1.
        -11    1    1    2    0    0 -0.11186604984E+02 -0.25290545407E+02 -0.76528030282E+02  0.81371317040E+02  0.00000000000E+00 0. -1.
         11    1    1    2    0    0 -0.31827384585E+02  0.55697713803E+02 -0.38342807716E+02  0.74735457689E+02  0.00000000000E+00 0.  1.
<mgrwt>
<rscale>  0 0.12744825E+03</rscale>
<asrwt>0</asrwt>
<pdfrwt beam="2">  1        2 0.40584457E-01 0.13564703E+03</pdfrwt>
<pdfrwt beam="1">  1       -2 0.86875111E-02 0.13564703E+03</pdfrwt>
<totfact> 0.98703552E+03</totfact>
</mgrwt>
</event>
<event>
 7    1  0.4230786E-006  0.1442787E+03  0.7546771E-02  0.1208016E+00
         -2   -1    0    0    0  501 -0.00000000000E+00  0.00000000000E+00  0.26602195697E+03  0.26602195697E+03  0.00000000000E+00 0.  1.
          2   -1    0    0  501    0  0.00000000000E+00 -0.00000000000E+00 -0.77824527767E+02  0.77824527767E+02  0.00000000000E+00 0. -1.
         23    2    1    2    0    0  0.41104333376E+02  0.59177080871E+02  0.10136035785E+03  0.17632429874E+03  0.12499937224E+03 0.  0.
          5    1    3    3  502    0  0.26560766034E+02  0.27354943875E+02  0.12700661641E+03  0.13268962981E+03  0.47000000000E+01 0. -1.
         -5    1    3    3    0  502  0.14543567342E+02  0.31822136997E+02 -0.25646258565E+02  0.43634668928E+02  0.47000000000E+01 0. -1.
        -11    1    1    2    0    0 -0.43744788954E+02 -0.33669816507E+02  0.11613493919E+03  0.12858688582E+03  0.00000000000E+00 0.  1.
         11    1    1    2    0    0  0.26404555777E+01 -0.25507264364E+02 -0.29297867830E+02  0.38935300183E+02  0.00000000000E+00 0. -1.
<mgrwt>
<rscale>  0 0.14402296E+03</rscale>
<asrwt>0</asrwt>
<pdfrwt beam="2">  1        2 0.11973004E-01 0.14427868E+03</pdfrwt>
<pdfrwt beam="1">  1       -2 0.40926455E-01 0.14427868E+03</pdfrwt>
<totfact> 0.28189219E+03</totfact>
</mgrwt>
</event>
<event>
 7    1  0.4230786E-006  0.1828690E+03  0.7546771E-02  0.1170794E+00
          1   -1    0    0  501    0  0.00000000000E+00  0.00000000000E+00  0.32667956229E+03  0.32667956229E+03  0.00000000000E+00 0. -1.
         -1   -1    0    0    0  501 -0.00000000000E+00 -0.00000000000E+00 -0.13467178903E+03  0.13467178903E+03  0.00000000000E+00 0.  1.
         23    2    1    2    0    0 -0.52976196430E+02  0.12250629937E+03 -0.32253701702E+02  0.18569165255E+03  0.12500727091E+03 0.  0.
          5    1    3    3  502    0  0.15415898903E+02  0.18260071056E+02  0.36008400973E+02  0.43471543274E+02  0.47000000000E+01 0. -1.
         -5    1    3    3    0  502 -0.68392095333E+02  0.10424622831E+03 -0.68262102675E+02  0.14222010928E+03  0.47000000000E+01 0. -1.
        -11    1    1    2    0    0 -0.65846083140E+01 -0.12268422825E+02 -0.46663840361E+01  0.14684903992E+02  0.00000000000E+00 0.  1.
         11    1    1    2    0    0  0.59560804744E+02 -0.11023787654E+03  0.22892785900E+03  0.26097479478E+03  0.00000000000E+00 0. -1.
<mgrwt>
<rscale>  0 0.17694421E+03</rscale>
<asrwt>0</asrwt>
<pdfrwt beam="1">  1        1 0.50258394E-01 0.18286905E+03</pdfrwt>
<pdfrwt beam="2">  1       -1 0.20718737E-01 0.18286905E+03</pdfrwt>
<totfact> 0.14838633E+03</totfact>
</mgrwt>
</event>
<event>
 7    1  0.4230786E-006  0.1381259E+03  0.7546771E-02  0.1227381E+00
          1   -1    0    0  501    0  0.00000000000E+00  0.00000000000E+00  0.96813948458E+02  0.96813948458E+02  0.00000000000E+00 0. -1.
         -1   -1    0    0    0  501 -0.00000000000E+00 -0.00000000000E+00 -0.17594732589E+03  0.17594732589E+03  0.00000000000E+00 0.  1.
         23    2    1    2    0    0 -0.22026143198E+02  0.54487448498E+02 -0.88120315114E+02  0.16384123657E+03  0.12499891135E+03 0.  0.
          5    1    3    3  502    0  0.41857946518E+02  0.33553145417E+02 -0.79327467243E+02  0.95879290325E+02  0.47000000000E+01 0.  1.
         -5    1    3    3    0  502 -0.63884089716E+02  0.20934303081E+02 -0.87928478711E+01  0.67961946249E+02  0.47000000000E+01 0.  1.
        -11    1    1    2    0    0  0.56312911833E+01 -0.27223909480E+02 -0.41078825782E+02  0.49601639241E+02  0.00000000000E+00 0.  1.
         11    1    1    2    0    0  0.16394852015E+02 -0.27263539018E+02  0.50065763468E+02  0.59318398529E+02  0.00000000000E+00 0. -1.
<mgrwt>
<rscale>  0 0.13005062E+03</rscale>
<asrwt>0</asrwt>
<pdfrwt beam="1">  1        1 0.14894454E-01 0.13812589E+03</pdfrwt>
<pdfrwt beam="2">  1       -1 0.27068819E-01 0.13812589E+03</pdfrwt>
<totfact> 0.43877478E+03</totfact>
</mgrwt>
</event>
<event>
 7    1  0.4230786E-006  0.1276795E+03  0.7546771E-02  0.1231197E+00
          2   -1    0    0  501    0  0.00000000000E+00  0.00000000000E+00  0.77536863602E+03  0.77536863602E+03  0.00000000000E+00 0. -1.
         -2   -1    0    0    0  501 -0.00000000000E+00 -0.00000000000E+00 -0.21140858035E+02  0.21140858035E+02  0.00000000000E+00 0.  1.
         23    2    1    2    0    0  0.26011335434E+02 -0.82567328889E+00  0.33685670963E+03  0.36024229177E+03  0.12499917861E+03 0.  0.
          5    1    3    3  502    0  0.68087964291E+02  0.51780571487E+01  0.28462249139E+03  0.29273680289E+03  0.47000000000E+01 0. -1.
         -5    1    3    3    0  502 -0.42076628857E+02 -0.60037304376E+01  0.52234218237E+02  0.67505488888E+02  0.47000000000E+01 0. -1.
        -11    1    1    2    0    0 -0.19417341831E+02  0.62177724498E+02  0.22530551723E+03  0.23453289467E+03  0.00000000000E+00 0. -1.
         11    1    1    2    0    0 -0.65939936025E+01 -0.61352051209E+02  0.19206555112E+03  0.20173430761E+03  0.00000000000E+00 0.  1.
<mgrwt>
<rscale>  0 0.12751076E+03</rscale>
<asrwt>0</asrwt>
<pdfrwt beam="1">  1        2 0.11928746E+00 0.12767954E+03</pdfrwt>
<pdfrwt beam="2">  1       -2 0.32524403E-02 0.12767954E+03</pdfrwt>
<totfact> 0.13173417E+04</totfact>
</mgrwt>
</event>
<event>
 7    1  0.4230786E-006  0.2665842E+03  0.7546771E-02  0.1105884E+00
          1   -1    0    0  501    0  0.00000000000E+00  0.00000000000E+00  0.13040623707E+04  0.13040623707E+04  0.00000000000E+00 0. -1.
         -1   -1    0    0    0  501 -0.00000000000E+00 -0.00000000000E+00 -0.54837391740E+02  0.54837391740E+02  0.00000000000E+00 0.  1.
         23    2    1    2    0    0  0.20937792301E+03  0.10771485858E+03  0.46428238695E+03  0.53537394202E+03  0.12500207024E+03 0.  0.
          5    1    3    3  502    0  0.11496175480E+03  0.16182333241E+02  0.31828152699E+03  0.33882634696E+03  0.47000000000E+01 0.  1.
         -5    1    3    3    0  502  0.94416168212E+02  0.91532525338E+02  0.14600085996E+03  0.19654759506E+03  0.47000000000E+01 0.  1.
        -11    1    1    2    0    0 -0.86916618432E+02 -0.86802305381E+02  0.44295756632E+03  0.45967438948E+03  0.00000000000E+00 0.  1.
         11    1    1    2    0    0 -0.12246130458E+03 -0.20912553198E+02  0.34198502570E+03  0.36385143095E+03  0.00000000000E+00 0. -1.
<mgrwt>
<rscale>  0 0.26210612E+03</rscale>
<asrwt>0</asrwt>
<pdfrwt beam="1">  1        1 0.20062496E+00 0.26658418E+03</pdfrwt>
<pdfrwt beam="2">  1       -1 0.84365228E-02 0.26658418E+03</pdfrwt>
<totfact> 0.77085012E+02</totfact>
</mgrwt>
</event>
<event>
 7    1  0.4230786E-006  0.1370554E+03  0.7546771E-02  0.1226190E+00
          1   -1    0    0  501    0  0.00000000000E+00  0.00000000000E+00  0.10746857783E+02  0.10746857783E+02  0.00000000000E+00 0. -1.
         -1   -1    0    0    0  501 -0.00000000000E+00 -0.00000000000E+00 -0.16180061477E+04  0.16180061477E+04  0.00000000000E+00 0.  1.
         23    2    1    2    0    0 -0.64948802901E+02  0.19457487330E+02 -0.11202979609E+04  0.11286503956E+04  0.11911025694E+03 0.  0.
          5    1    3    3  502    0 -0.42141013507E+02  0.61531735866E+02 -0.90340657516E+03  0.90649189162E+03  0.47000000000E+01 0. -1.
         -5    1    3    3    0  502 -0.22807789394E+02 -0.42074248536E+02 -0.21689138579E+03  0.22215850395E+03  0.47000000000E+01 0.  1.
        -11    1    1    2    0    0  0.56197845714E+02 -0.49000492855E+02 -0.41762254558E+03  0.42422616225E+03  0.00000000000E+00 0.  1.
         11    1    1    2    0    0  0.87509571869E+01  0.29543005525E+02 -0.69338783351E+02  0.75876447622E+02  0.00000000000E+00 0. -1.
<mgrwt>
<rscale>  0 0.13085644E+03</rscale>
<asrwt>0</asrwt>
<pdfrwt beam="1">  1        1 0.16533619E-02 0.13705544E+03</pdfrwt>
<pdfrwt beam="2">  1       -1 0.24892414E+00 0.13705544E+03</pdfrwt>
<totfact> 0.63181913E+02</totfact>
</mgrwt>
</event>
<event>
 7    1  0.4230786E-006  0.1760488E+03  0.7546771E-02  0.1177528E+00
          1   -1    0    0  501    0  0.00000000000E+00  0.00000000000E+00  0.43263519624E+03  0.43263519624E+03  0.00000000000E+00 0. -1.
         -1   -1    0    0    0  501 -0.00000000000E+00 -0.00000000000E+00 -0.63602558486E+02  0.63602558486E+02  0.00000000000E+00 0.  1.
         23    2    1    2    0    0  0.10615980176E+03 -0.64034560128E+02  0.17285355170E+03  0.24672153792E+03  0.12499135385E+03 0.  0.
          5    1    3    3  502    0  0.12694005880E+03 -0.21994608532E+02  0.12615810904E+03  0.18037599566E+03  0.47000000000E+01 0. -1.
         -5    1    3    3    0  502 -0.20780257036E+02 -0.42039951596E+02  0.46695442658E+02  0.66345542260E+02  0.47000000000E+01 0. -1.
        -11    1    1    2    0    0  0.47480312563E+01  0.40511476128E+02  0.50219005551E+02  0.64696769760E+02  0.00000000000E+00 0.  1.
         11    1    1    2    0    0 -0.11090783302E+03  0.23523084000E+02  0.14596008050E+03  0.18481944704E+03  0.00000000000E+00 0. -1.
<mgrwt>
<rscale>  0 0.17030727E+03</rscale>
<asrwt>0</asrwt>
<pdfrwt beam="1">  1        1 0.66559259E-01 0.17604876E+03</pdfrwt>
<pdfrwt beam="2">  1       -1 0.97850092E-02 0.17604876E+03</pdfrwt>
<totfact> 0.33823678E+03</totfact>
</mgrwt>
</event>
<event>
 7    1  0.4230786E-006  0.1300352E+03  0.7546771E-02  0.1240015E+00
          2   -1    0    0  501    0  0.00000000000E+00  0.00000000000E+00  0.10825362338E+03  0.10825362338E+03  0.00000000000E+00 0. -1.
         -2   -1    0    0    0  501 -0.00000000000E+00 -0.00000000000E+00 -0.13491092650E+03  0.13491092650E+03  0.00000000000E+00 0.  1.
         23    2    1    2    0    0 -0.34107622485E+02  0.10897611922E+02 -0.51320559663E+02  0.13979615610E+03  0.12500830996E+03 0.  0.
          5    1    3    3  502    0 -0.51325067694E+02 -0.19469791961E+02 -0.78079749501E+02  0.95560832222E+02  0.47000000000E+01 0. -1.
         -5    1    3    3    0  502  0.17217445209E+02  0.30367403884E+02  0.26759189838E+02  0.44235323882E+02  0.47000000000E+01 0. -1.
        -11    1    1    2    0    0 -0.23493133652E+02  0.93584217905E+01 -0.16076683694E+02  0.29966099943E+02  0.00000000000E+00 0.  1.
         11    1    1    2    0    0  0.57600756137E+02 -0.20256033713E+02  0.40739940241E+02  0.73402293834E+02  0.00000000000E+00 0. -1.
<mgrwt>
<rscale>  0 0.12188798E+03</rscale>
<asrwt>0</asrwt>
<pdfrwt beam="1">  1        2 0.16654404E-01 0.13003525E+03</pdfrwt>
<pdfrwt beam="2">  1       -2 0.20755527E-01 0.13003525E+03</pdfrwt>
<totfact> 0.64120953E+03</totfact>
</mgrwt>
</event>
<event>
 6    1  0.4230786E-006  0.1440994E+03  0.7546771E-02  0.1226875E+00
          2   -1    0    0  501    0  0.00000000000E+00  0.00000000000E+00  0.59037412133E+03  0.59037412133E+03  0.00000000000E+00 0. -1.
         -2   -1    0    0    0  501 -0.00000000000E+00 -0.00000000000E+00 -0.24753418259E+02  0.24753418259E+02  0.00000000000E+00 0.  1.
          5    1    1    2  502    0  0.77444746262E+02  0.29700868409E+02  0.13074362292E+03  0.15490582701E+03  0.47000000000E+01 0. -1.
         -5    1    1    2    0  502 -0.42958180283E+02 -0.30868663128E+02  0.17908478588E+03  0.18679328187E+03  0.47000000000E+01 0.  1.
        -11    1    1    2    0    0  0.15004468717E+02 -0.29996341688E+02  0.56236148708E+02  0.65478385881E+02  0.00000000000E+00 0. -1.
         11    1    1    2    0    0 -0.49491034696E+02  0.31164136407E+02  0.19955614556E+03  0.20795004483E+03  0.00000000000E+00 0.  1.
<mgrwt>
<rscale>  0 0.13039222E+03</rscale>
<asrwt>0</asrwt>
<pdfrwt beam="1">  1        2 0.90826777E-01 0.14409940E+03</pdfrwt>
<pdfrwt beam="2">  1       -2 0.38082187E-02 0.14409940E+03</pdfrwt>
<totfact> 0.14505201E+04</totfact>
</mgrwt>
</event>
<event>
 7    1  0.4230786E-006  0.1256858E+03  0.7546771E-02  0.1240215E+00
          2   -1    0    0  501    0  0.00000000000E+00  0.00000000000E+00  0.96220370035E+02  0.96220370035E+02  0.00000000000E+00 0. -1.
         -2   -1    0    0    0  501 -0.00000000000E+00 -0.00000000000E+00 -0.14760917686E+03  0.14760917686E+03  0.00000000000E+00 0.  1.
         23    2    1    2    0    0 -0.10662561684E+02 -0.75760102254E+01 -0.42826383872E+02  0.13278186470E+03  0.12500335310E+03 0.  0.
          5    1    3    3  502    0  0.29811205079E+02  0.39223216676E+02  0.10931125474E+02  0.50682819365E+02  0.47000000000E+01 0. -1.
         -5    1    3    3    0  502 -0.40473766763E+02 -0.46799226901E+02 -0.53757509346E+02  0.82099045339E+02  0.47000000000E+01 0. -1.
        -11    1    1    2    0    0  0.32516621237E+02 -0.30567121376E+02  0.29001945194E+02  0.53223983230E+02  0.00000000000E+00 0. -1.
         11    1    1    2    0    0 -0.21854059553E+02  0.38143131602E+02 -0.37564368145E+02  0.57823698960E+02  0.00000000000E+00 0.  1.
<mgrwt>
<rscale>  0 0.12176385E+03</rscale>
<asrwt>0</asrwt>
<pdfrwt beam="1">  1        2 0.14803134E-01 0.12568582E+03</pdfrwt>
<pdfrwt beam="2">  1       -2 0.22709104E-01 0.12568582E+03</pdfrwt>
<totfact> 0.62895449E+03</totfact>
</mgrwt>
</event>
<event>
 7    1  0.4230786E-006  0.1383179E+03  0.7546771E-02  0.1226828E+00
          2   -1    0    0  501    0  0.00000000000E+00  0.00000000000E+00  0.13455343529E+03  0.13455343529E+03  0.00000000000E+00 0. -1.
         -2   -1    0    0    0  501 -0.00000000000E+00 -0.00000000000E+00 -0.12548380507E+03  0.12548380507E+03  0.00000000000E+00 0.  1.
         23    2    1    2    0    0 -0.44316725242E+02  0.39277819639E+02 -0.34135363584E+02  0.14246775661E+03  0.12500047749E+03 0.  0.
          5    1    3    3  502    0  0.80283359641E+01  0.59872416759E+02  0.20446404374E+02  0.63947681105E+02  0.47000000000E+01 0. -1.
         -5    1    3    3    0  502 -0.52345061206E+02 -0.20594597119E+02 -0.54581767958E+02  0.78520075500E+02  0.47000000000E+01 0. -1.
        -11    1    1    2    0    0  0.19369502673E+02 -0.36662022895E+02 -0.22545079674E+02  0.47197056837E+02  0.00000000000E+00 0.  1.
         11    1    1    2    0    0  0.24947222568E+02 -0.26157967443E+01  0.65750073485E+02  0.70372426914E+02  0.00000000000E+00 0. -1.
<mgrwt>
<rscale>  0 0.13042373E+03</rscale>
<asrwt>0</asrwt>
<pdfrwt beam="1">  1        2 0.20700528E-01 0.13831789E+03</pdfrwt>
<pdfrwt beam="2">  1       -2 0.19305201E-01 0.13831789E+03</pdfrwt>
<totfact> 0.56800787E+03</totfact>
</mgrwt>
</event>
<event>
 7    1  0.4741701E-006  0.2535295E+03  0.7546771E-02  0.1113058E+00
          1   -1    0    0  501    0  0.00000000000E+00  0.00000000000E+00  0.60227527348E+03  0.60227527348E+03  0.00000000000E+00 0. -1.
         -1   -1    0    0    0  501 -0.00000000000E+00 -0.00000000000E+00 -0.12498309796E+03  0.12498309796E+03  0.00000000000E+00 0.  1.
         23    2    1    2    0    0  0.19105494763E+03 -0.11022982030E+03  0.86230827452E+02  0.26779273494E+03  0.12499834794E+03 0.  0.
          5    1    3    3  502    0  0.15007959168E+03 -0.13599385510E+03  0.54712464887E+02  0.20984221758E+03  0.47000000000E+01 0.  1.
         -5    1    3    3    0  502  0.40975355946E+02  0.25764034795E+02  0.31518362565E+02  0.57950517363E+02  0.47000000000E+01 0.  1.
        -11    1    1    2    0    0 -0.68922614079E+02  0.43158421849E+02  0.24256524285E+03  0.25583368259E+03  0.00000000000E+00 0.  1.
         11    1    1    2    0    0 -0.12213233355E+03  0.67071398452E+02  0.14849610521E+03  0.20363195391E+03  0.00000000000E+00 0. -1.
<mgrwt>
<rscale>  0 0.25039045E+03</rscale>
<asrwt>0</asrwt>
<pdfrwt beam="1">  1        1 0.92657733E-01 0.25352947E+03</pdfrwt>
<pdfrwt beam="2">  1       -1 0.19228169E-01 0.25352947E+03</pdfrwt>
<totfact> 0.75523723E+02</totfact>
</mgrwt>
</event>
<event>
 7    1  0.4230786E-006  0.1453547E+03  0.7546771E-02  0.1220071E+00
         -1   -1    0    0    0  501 -0.00000000000E+00  0.00000000000E+00  0.15679731924E+03  0.15679731924E+03  0.00000000000E+00 0.  1.
          1   -1    0    0  501    0  0.00000000000E+00 -0.00000000000E+00 -0.17926863166E+03  0.17926863166E+03  0.00000000000E+00 0. -1.
         23    2    1    2    0    0 -0.57627237145E+02  0.46711662632E+02  0.96950474240E+02  0.17472088727E+03  0.12500046443E+03 0.  0.
          5    1    3    3  502    0 -0.43400143936E+02  0.40980041907E+02 -0.14920021132E+02  0.61706023685E+02  0.47000000000E+01 0. -1.
         -5    1    3    3    0  502 -0.14227093209E+02  0.57316207244E+01  0.11187049537E+03  0.11301486359E+03  0.47000000000E+01 0.  1.
        -11    1    1    2    0    0  0.27432904016E+02 -0.40817811049E+02 -0.13432482897E+02  0.50981266347E+02  0.00000000000E+00 0. -1.
         11    1    1    2    0    0  0.30194333129E+02 -0.58938515826E+01 -0.10598930375E+03  0.11036379728E+03  0.00000000000E+00 0.  1.
<mgrwt>
<rscale>  0 0.13510517E+03</rscale>
<asrwt>0</asrwt>
<pdfrwt beam="2">  1        1 0.27579789E-01 0.14535472E+03</pdfrwt>
<pdfrwt beam="1">  1       -1 0.24122665E-01 0.14535472E+03</pdfrwt>
<totfact> 0.24289039E+03</totfact>
</mgrwt>
</event>
<event>
 7    1  0.4230786E-006  0.1342642E+03  0.7546771E-02  0.1233706E+00
          2   -1    0    0  501    0  0.00000000000E+00  0.00000000000E+00  0.43817474031E+03  0.43817474031E+03  0.00000000000E+00 0. -1.
         -2   -1    0    0    0  501 -0.00000000000E+00 -0.00000000000E+00 -0.32863178636E+02  0.32863178636E+02  0.00000000000E+00 0.  1.
         23    2    1    2    0    0  0.89071761251E+01 -0.48204278793E+02  0.25835885598E+03  0.29116346478E+03  0.12499549784E+03 0.  0.
          5    1    3    3  502    0  0.28094835317E+02  0.31028207056E+02  0.40210435230E+02  0.58232624069E+02  0.47000000000E+01 0. -1.
         -5    1    3    3    0  502 -0.19187659192E+02 -0.79232485849E+02  0.21814842075E+03  0.23293084071E+03  0.47000000000E+01 0. -1.
        -11    1    1    2    0    0  0.24475967415E+02  0.61707634966E+02  0.80968741259E+02  0.10470359237E+03  0.00000000000E+00 0.  1.
         11    1    1    2    0    0 -0.33383143540E+02 -0.13503356173E+02  0.65983964437E+02  0.75170861797E+02  0.00000000000E+00 0. -1.
<mgrwt>
<rscale>  0 0.12587666E+03</rscale>
<asrwt>0</asrwt>
<pdfrwt beam="1">  1        2 0.67411494E-01 0.13426416E+03</pdfrwt>
<pdfrwt beam="2">  1       -2 0.50558739E-02 0.13426416E+03</pdfrwt>
<totfact> 0.13132176E+04</totfact>
</mgrwt>
</event>
<event>
 7    1  0.4230786E-006  0.1376075E+03  0.7546771E-02  0.1229612E+00
          1   -1    0    0  501    0  0.00000000000E+00  0.00000000000E+00  0.29471957233E+03  0.29471957233E+03  0.00000000000E+00 0. -1.
         -1   -1    0    0    0  501 -0.00000000000E+00 -0.00000000000E+00 -0.51341375984E+02  0.51341375984E+02  0.00000000000E+00 0.  1.
         23    2    1    2    0    0 -0.56975992322E+02 -0.80718162158E+01  0.10849253691E+03  0.17523255315E+03  0.12499759678E+03 0.  0.
          5    1    3    3  502    0 -0.36536589428E+02  0.11103581907E+02 -0.20189429387E+02  0.43450143350E+02  0.47000000000E+01 0. -1.
         -5    1    3    3    0  502 -0.20439402894E+02 -0.19175398123E+02  0.12868196630E+03  0.13178240980E+03  0.47000000000E+01 0. -1.
        -11    1    1    2    0    0 -0.10556190390E+02  0.15087672916E+02 -0.15024496955E+01  0.18475074686E+02  0.00000000000E+00 0.  1.
         11    1    1    2    0    0  0.67532182712E+02 -0.70158566998E+01  0.13638810914E+03  0.15235332048E+03  0.00000000000E+00 0. -1.
<mgrwt>
<rscale>  0 0.12855748E+03</rscale>
<asrwt>0</asrwt>
<pdfrwt beam="1">  1        1 0.45341471E-01 0.13760747E+03</pdfrwt>
<pdfrwt beam="2">  1       -1 0.78986734E-02 0.13760747E+03</pdfrwt>
<totfact> 0.74902468E+03</totfact>
</mgrwt>
</event>
<event>
 7    1  0.4230786E-006  0.1861129E+03  0.7546771E-02  0.1167836E+00
         -2   -1    0    0    0  501 -0.00000000000E+00  0.00000000000E+00  0.18031613201E+03  0.18031613201E+03  0.00000000000E+00 0.  1.
          2   -1    0    0  501    0  0.00000000000E+00 -0.00000000000E+00 -0.17562562169E+03  0.17562562169E+03  0.00000000000E+00 0. -1.
         23    2    1    2    0    0  0.96727687679E+02 -0.98272827423E+02 -0.32754778161E+02  0.18897325834E+03  0.12499689077E+03 0.  0.
          5    1    3    3  502    0  0.52295835970E+02  0.14439442597E+02 -0.39913934622E+02  0.67517139597E+02  0.47000000000E+01 0. -1.
         -5    1    3    3    0  502  0.44431851709E+02 -0.11271227002E+03  0.71591564613E+01  0.12145611874E+03  0.47000000000E+01 0. -1.
        -11    1    1    2    0    0 -0.10351570342E+03  0.65349908428E+02  0.48362660531E+02  0.13162468735E+03  0.00000000000E+00 0.  1.
         11    1    1    2    0    0  0.67880157365E+01  0.32922918995E+02 -0.10917372047E+02  0.35343808017E+02  0.00000000000E+00 0. -1.
<mgrwt>
<rscale>  0 0.17996564E+03</rscale>
<asrwt>0</asrwt>
<pdfrwt beam="2">  1        2 0.27019326E-01 0.18611291E+03</pdfrwt>
<pdfrwt beam="1">  1       -2 0.27740943E-01 0.18611291E+03</pdfrwt>
<totfact> 0.22858756E+03</totfact>
</mgrwt>
</event>
<event>
 7    1  0.4230786E-006  0.1290493E+03  0.7546771E-02  0.1243999E+00
         -1   -1    0    0    0  501 -0.00000000000E+00  0.00000000000E+00  0.14819130840E+04  0.14819130840E+04  0.00000000000E+00 0.  1.
          1   -1    0    0  501    0  0.00000000000E+00 -0.00000000000E+00 -0.89261861420E+01  0.89261861420E+01  0.00000000000E+00 0. -1.
         23    2    1    2    0    0 -0.29802924952E+02  0.12035912637E+02  0.10137538440E+04  0.10219347201E+04  0.12498255206E+03 0.  0.
          5    1    3    3  502    0  0.15740465814E+02  0.50085336875E+02  0.73536693158E+03  0.73725363159E+03  0.47000000000E+01 0. -1.
         -5    1    3    3    0  502 -0.45543390766E+02 -0.38049424239E+02  0.27838691247E+03  0.28468108852E+03  0.47000000000E+01 0. -1.
        -11    1    1    2    0    0 -0.49665926146E+01 -0.45578340463E+02  0.24967686121E+03  0.25385150617E+03  0.00000000000E+00 0.  1.
         11    1    1    2    0    0  0.34769517566E+02  0.33542427827E+02  0.20955619262E+03  0.21505304388E+03  0.00000000000E+00 0. -1.
<mgrwt>
<rscale>  0 0.11945517E+03</rscale>
<asrwt>0</asrwt>
<pdfrwt beam="2">  1        1 0.13732606E-02 0.12904928E+03</pdfrwt>
<pdfrwt beam="1">  1       -1 0.22798643E+00 0.12904928E+03</pdfrwt>
<totfact> 0.11047219E+03</totfact>
</mgrwt>
</event>
<event>
 6    1  0.4230786E-006  0.1323630E+03  0.7546771E-02  0.1289228E+00
          2   -1    0    0  501    0  0.00000000000E+00  0.00000000000E+00  0.10338602440E+03  0.10338602440E+03  0.00000000000E+00 0. -1.
         -2   -1    0    0    0  501 -0.00000000000E+00 -0.00000000000E+00 -0.17305727416E+03  0.17305727416E+03  0.00000000000E+00 0.  1.
          5    1    1    2  502    0  0.29468494651E+02 -0.55429618581E+02 -0.50413902325E+02  0.80650395788E+02  0.47000000000E+01 0. -1.
         -5    1    1    2    0  502 -0.52607869165E+02  0.41039601300E+02 -0.92407103356E+02  0.11407453495E+03  0.47000000000E+01 0.  1.
        -11    1    1    2    0    0  0.50444198703E+01  0.94331878358E+01  0.65883614235E+01  0.12563347914E+02  0.00000000000E+00 0.  1.
         11    1    1    2    0    0  0.18094954644E+02  0.49568294459E+01  0.66561394493E+02  0.69155019908E+02  0.00000000000E+00 0. -1.
<mgrwt>
<rscale>  0 0.95870274E+02</rscale>
<asrwt>0</asrwt>
<pdfrwt beam="1">  1        2 0.15905542E-01 0.13236298E+03</pdfrwt>
<pdfrwt beam="2">  1       -2 0.26624196E-01 0.13236298E+03</pdfrwt>
<totfact> 0.44018473E+03</totfact>
</mgrwt>
</event>
<event>
 7    1  0.4230786E-006  0.1180198E+03  0.7546771E-02  0.1255639E+00
         -2   -1    0    0    0  501 -0.00000000000E+00  0.00000000000E+00  0.61811680961E+02  0.61811680961E+02  0.00000000000E+00 0.  1.
          2   -1    0    0  501    0  0.00000000000E+00 -0.00000000000E+00 -0.29094373895E+03  0.29094373895E+03  0.00000000000E+00 0. -1.
         23    2    1    2    0    0  0.36303904820E+02  0.35603430326E+01 -0.17292917134E+02  0.11927995373E+03  0.11224086971E+03 0.  0.
          5    1    3    3  502    0 -0.38252819732E+02  0.13225094420E+02  0.41576452335E+01  0.40957994992E+02  0.47000000000E+01 0. -1.
         -5    1    3    3    0  502  0.74556724552E+02 -0.96647513875E+01 -0.21450562367E+02  0.78321958742E+02  0.47000000000E+01 0.  1.
        -11    1    1    2    0    0 -0.96777400502E+01  0.27043470288E+02 -0.14814880301E+02  0.32318549102E+02  0.00000000000E+00 0.  1.
         11    1    1    2    0    0 -0.26626164769E+02 -0.30603813321E+02 -0.19702426056E+03  0.20115691708E+03  0.00000000000E+00 0. -1.
<mgrwt>
<rscale>  0 0.11270608E+03</rscale>
<asrwt>0</asrwt>
<pdfrwt beam="2">  1        2 0.44760575E-01 0.11801975E+03</pdfrwt>
<pdfrwt beam="1">  1       -2 0.95094895E-02 0.11801975E+03</pdfrwt>
<totfact> 0.76516347E+03</totfact>
</mgrwt>
</event>
<event>
 7    1  0.4230786E-006  0.1847562E+03  0.7546771E-02  0.1165492E+00
          1   -1    0    0  501    0  0.00000000000E+00  0.00000000000E+00  0.51170683098E+03  0.51170683098E+03  0.00000000000E+00 0. -1.
         -1   -1    0    0    0  501 -0.00000000000E+00 -0.00000000000E+00 -0.65046390140E+02  0.65046390140E+02  0.00000000000E+00 0.  1.
         23    2    1    2    0    0  0.68104901945E+02 -0.11777696324E+03  0.18335940756E+03  0.26029892222E+03  0.12500066332E+03 0.  0.
          5    1    3    3  502    0 -0.27279725369E+02  0.25002735870E+01  0.48559476930E+02  0.55951296535E+02  0.47000000000E+01 0. -1.
         -5    1    3    3    0  502  0.95384627313E+02 -0.12027723682E+03  0.13479993063E+03  0.20434762569E+03  0.47000000000E+01 0. -1.
        -11    1    1    2    0    0 -0.35749087407E+01  0.92769391148E+02  0.87715021374E+02  0.12772182617E+03  0.00000000000E+00 0.  1.
         11    1    1    2    0    0 -0.64529993204E+02  0.25007572088E+02  0.17558601191E+03  0.18873247273E+03  0.00000000000E+00 0. -1.
<mgrwt>
<rscale>  0 0.18240894E+03</rscale>
<asrwt>0</asrwt>
<pdfrwt beam="1">  1        1 0.78724125E-01 0.18475621E+03</pdfrwt>
<pdfrwt beam="2">  1       -1 0.10007137E-01 0.18475621E+03</pdfrwt>
<totfact> 0.26301532E+03</totfact>
</mgrwt>
</event>
<event>
 7    1  0.4230786E-006  0.1281822E+03  0.7546771E-02  0.1243268E+00
          1   -1    0    0  501    0  0.00000000000E+00  0.00000000000E+00  0.94603459265E+02  0.94603459265E+02  0.00000000000E+00 0. -1.
         -1   -1    0    0    0  501 -0.00000000000E+00 -0.00000000000E+00 -0.18532860832E+03  0.18532860832E+03  0.00000000000E+00 0.  1.
         23    2    1    2    0    0  0.83807721235E+01  0.27118283604E+02 -0.12199281168E+03  0.17695458832E+03  0.12500016633E+03 0.  0.
          5    1    3    3  502    0 -0.55797965571E+02 -0.38367107277E+01 -0.62573456868E+02  0.84057485184E+02  0.47000000000E+01 0.  1.
         -5    1    3    3    0  502  0.64178737694E+02  0.30954994332E+02 -0.59419354807E+02  0.92897103140E+02  0.47000000000E+01 0.  1.
        -11    1    1    2    0    0 -0.33288232050E+01  0.31768513111E+02  0.30059232551E+02  0.43862021736E+02  0.00000000000E+00 0. -1.
         11    1    1    2    0    0 -0.50519489185E+01 -0.58886796716E+02  0.12084300684E+01  0.59115457526E+02  0.00000000000E+00 0.  1.
<mgrwt>
<rscale>  0 0.11989622E+03</rscale>
<asrwt>0</asrwt>
<pdfrwt beam="1">  1        1 0.14554378E-01 0.12818221E+03</pdfrwt>
<pdfrwt beam="2">  1       -1 0.28512093E-01 0.12818221E+03</pdfrwt>
<totfact> 0.41282502E+03</totfact>
</mgrwt>
</event>
<event>
 7    1  0.4230786E-006  0.1491492E+03  0.7546771E-02  0.1210815E+00
         -1   -1    0    0    0  501 -0.00000000000E+00  0.00000000000E+00  0.81158597270E+02  0.81158597270E+02  0.00000000000E+00 0.  1.
          1   -1    0    0  501    0  0.00000000000E+00 -0.00000000000E+00 -0.26423311770E+03  0.26423311770E+03  0.00000000000E+00 0. -1.
         23    2    1    2    0    0  0.73332035517E+02 -0.35259743797E+02 -0.34561963281E+02  0.15310135226E+03  0.12499863116E+03 0.  0.
          5    1    3    3  502    0  0.49570991428E+02 -0.41068147356E+02 -0.79087525014E+02  0.10208233212E+03  0.47000000000E+01 0.  1.
         -5    1    3    3    0  502  0.23761044090E+02  0.58084035590E+01  0.44525561733E+02  0.51019020137E+02  0.47000000000E+01 0.  1.
        -11    1    1    2    0    0 -0.31148405275E+02  0.73154948513E+01 -0.13661345856E+03  0.14031028714E+03  0.00000000000E+00 0. -1.
         11    1    1    2    0    0 -0.42183630243E+02  0.27944248946E+02 -0.11899098585E+02  0.51980075575E+02  0.00000000000E+00 0.  1.
<mgrwt>
<rscale>  0 0.14188466E+03</rscale>
<asrwt>0</asrwt>
<pdfrwt beam="2">  1        1 0.40651249E-01 0.14914924E+03</pdfrwt>
<pdfrwt beam="1">  1       -1 0.12485938E-01 0.14914924E+03</pdfrwt>
<totfact> 0.42793633E+03</totfact>
</mgrwt>
</event>
<event>
 7    1  0.4230786E-006  0.1303307E+03  0.7546771E-02  0.1240961E+00
         -1   -1    0    0    0  501 -0.00000000000E+00  0.00000000000E+00  0.10451418520E+03  0.10451418520E+03  0.00000000000E+00 0.  1.
          1   -1    0    0  501    0  0.00000000000E+00 -0.00000000000E+00 -0.14868803455E+03  0.14868803455E+03  0.00000000000E+00 0. -1.
         23    2    1    2    0    0 -0.24669389070E+02  0.27437283778E+02  0.25907197007E+02  0.13288063092E+03  0.12499878367E+03 0.  0.
          5    1    3    3  502    0  0.10307389714E+02 -0.16236123110E+02  0.62699031111E+02  0.65750380064E+02  0.47000000000E+01 0.  1.
         -5    1    3    3    0  502 -0.34976778785E+02  0.43673406888E+02 -0.36791834104E+02  0.67130250857E+02  0.47000000000E+01 0.  1.
        -11    1    1    2    0    0 -0.15773632054E+02 -0.37752475249E+02 -0.66955234567E+02  0.78466937570E+02  0.00000000000E+00 0. -1.
         11    1    1    2    0    0  0.40443021125E+02  0.10315191471E+02 -0.31258117981E+01  0.41854651261E+02  0.00000000000E+00 0.  1.
<mgrwt>
<rscale>  0 0.12130420E+03</rscale>
<asrwt>0</asrwt>
<pdfrwt beam="2">  1        1 0.22875082E-01 0.13033065E+03</pdfrwt>
<pdfrwt beam="1">  1       -1 0.16079105E-01 0.13033065E+03</pdfrwt>
<totfact> 0.58550756E+03</totfact>
</mgrwt>
</event>
<event>
 7    1  0.4230786E-006  0.1728732E+03  0.7546771E-02  0.1180917E+00
         -2   -1    0    0    0  501 -0.00000000000E+00  0.00000000000E+00  0.12206417110E+03  0.12206417110E+03  0.00000000000E+00 0. -1.
          2   -1    0    0  501    0  0.00000000000E+00 -0.00000000000E+00 -0.22624507657E+03  0.22624507657E+03  0.00000000000E+00 0.  1.
         23    2    1    2    0    0 -0.10660940613E+03  0.53760551691E+02 -0.16140121552E+02  0.17362503741E+03  0.12501754956E+03 0.  0.
          5    1    3    3  502    0  0.11464769784E+02  0.27485283179E+02  0.31436958823E+02  0.43557480617E+02  0.47000000000E+01 0.  1.
         -5    1    3    3    0  502 -0.11807417592E+03  0.26275268512E+02 -0.47577080376E+02  0.13006755679E+03  0.47000000000E+01 0.  1.
        -11    1    1    2    0    0  0.42357544172E+02 -0.60572386397E+02 -0.81055448549E+02  0.10969576693E+03  0.00000000000E+00 0.  1.
         11    1    1    2    0    0  0.64251861960E+02  0.68118347054E+01 -0.69853353705E+01  0.64988443339E+02  0.00000000000E+00 0. -1.
<mgrwt>
<rscale>  0 0.16708998E+03</rscale>
<asrwt>0</asrwt>
<pdfrwt beam="2">  1        2 0.34806934E-01 0.17287322E+03</pdfrwt>
<pdfrwt beam="1">  1       -2 0.18779104E-01 0.17287322E+03</pdfrwt>
<totfact> 0.34017090E+03</totfact>
</mgrwt>
</event>
<event>
 7    1  0.4230786E-006  0.1318021E+03  0.7546771E-02  0.1231957E+00
         -1   -1    0    0    0  501 -0.00000000000E+00  0.00000000000E+00  0.14271434076E+03  0.14271434076E+03  0.00000000000E+00 0.  1.
          1   -1    0    0  501    0  0.00000000000E+00 -0.00000000000E+00 -0.10599630424E+03  0.10599630424E+03  0.00000000000E+00 0. -1.
         23    2    1    2    0    0  0.60685838914E+02 -0.26850738557E+02  0.27774073962E+02  0.13469668710E+03  0.11387741271E+03 0.  0.
          5    1    3    3  502    0  0.86359553566E+02 -0.61504721318E+01 -0.64390437214E+01  0.86944534524E+02  0.47000000000E+01 0. -1.
         -5    1    3    3    0  502 -0.25673714652E+02 -0.20700266426E+02  0.34213117683E+02  0.47752152577E+02  0.47000000000E+01 0.  1.
        -11    1    1    2    0    0 -0.39245866020E+02  0.43709590541E+02  0.41216027579E+02  0.71760206482E+02  0.00000000000E+00 0.  1.
         11    1    1    2    0    0 -0.21439972894E+02 -0.16858851984E+02 -0.32272065023E+02  0.42253751416E+02  0.00000000000E+00 0. -1.
<mgrwt>
<rscale>  0 0.12701242E+03</rscale>
<asrwt>0</asrwt>
<pdfrwt beam="2">  1        1 0.16307124E-01 0.13180212E+03</pdfrwt>
<pdfrwt beam="1">  1       -1 0.21956052E-01 0.13180212E+03</pdfrwt>
<totfact> 0.54840337E+03</totfact>
</mgrwt>
</event>
<event>
 7    1  0.4230786E-006  0.1403240E+03  0.7546771E-02  0.1223785E+00
          2   -1    0    0  501    0  0.00000000000E+00  0.00000000000E+00  0.96229362472E+02  0.96229362472E+02  0.00000000000E+00 0. -1.
         -2   -1    0    0    0  501 -0.00000000000E+00 -0.00000000000E+00 -0.20983198846E+03  0.20983198846E+03  0.00000000000E+00 0.  1.
         23    2    1    2    0    0  0.61964037408E+02 -0.15100321337E+02 -0.13239307813E+03  0.19292162197E+03  0.12499305361E+03 0.  0.
          5    1    3    3  502    0 -0.34794397369E+02  0.15233873994E+02 -0.28930079680E+02  0.47976666364E+02  0.47000000000E+01 0. -1.
         -5    1    3    3    0  502  0.96758434777E+02 -0.30334195332E+02 -0.10346299845E+03  0.14494495560E+03  0.47000000000E+01 0. -1.
        -11    1    1    2    0    0 -0.51998724988E+01  0.44459793870E+02  0.20445214752E+02  0.49210961697E+02  0.00000000000E+00 0. -1.
         11    1    1    2    0    0 -0.56764164910E+02 -0.29359472532E+02 -0.16547626140E+01  0.63928767269E+02  0.00000000000E+00 0.  1.
<mgrwt>
<rscale>  0 0.13250562E+03</rscale>
<asrwt>0</asrwt>
<pdfrwt beam="1">  1        2 0.14804518E-01 0.14032400E+03</pdfrwt>
<pdfrwt beam="2">  1       -2 0.32281844E-01 0.14032400E+03</pdfrwt>
<totfact> 0.34008364E+03</totfact>
</mgrwt>
</event>
<event>
 7    1  0.4230786E-006  0.1403050E+03  0.7546771E-02  0.1224904E+00
          2   -1    0    0  501    0  0.00000000000E+00  0.00000000000E+00  0.29318919420E+02  0.29318919420E+02  0.00000000000E+00 0. -1.
         -2   -1    0    0    0  501 -0.00000000000E+00 -0.00000000000E+00 -0.64802634289E+03  0.64802634289E+03  0.00000000000E+00 0.  1.
         23    2    1    2    0    0 -0.23424330363E+01 -0.63677968400E+02 -0.48460312546E+03  0.50450538344E+03  0.12500048824E+03 0.  0.
          5    1    3    3  502    0  0.13563512964E+02 -0.62204179931E+02 -0.94472718896E+02  0.11401979434E+03  0.47000000000E+01 0.  1.
         -5    1    3    3    0  502 -0.15905946000E+02 -0.14737884694E+01 -0.39013040656E+03  0.39048558910E+03  0.47000000000E+01 0.  1.
        -11    1    1    2    0    0 -0.18875510555E+02  0.55966166289E+02 -0.13783606981E+03  0.14995759003E+03  0.00000000000E+00 0.  1.
         11    1    1    2    0    0  0.21217943592E+02  0.77118021107E+01  0.37317717935E+01  0.22882288845E+02  0.00000000000E+00 0. -1.
<mgrwt>
<rscale>  0 0.13173496E+03</rscale>
<asrwt>0</asrwt>
<pdfrwt beam="1">  1        2 0.45106029E-02 0.14030500E+03</pdfrwt>
<pdfrwt beam="2">  1       -2 0.99696362E-01 0.14030500E+03</pdfrwt>
<totfact> 0.15054173E+03</totfact>
</mgrwt>
</event>
<event>
 6    1  0.4230786E-006  0.1478066E+03  0.7546771E-02  0.1217906E+00
          1   -1    0    0  501    0  0.00000000000E+00  0.00000000000E+00  0.40924782040E+02  0.40924782040E+02  0.00000000000E+00 0. -1.
         -1   -1    0    0    0  501 -0.00000000000E+00 -0.00000000000E+00 -0.40197262103E+03  0.40197262103E+03  0.00000000000E+00 0.  1.
          5    1    1    2  502    0  0.26315861355E+02 -0.48833087984E+02 -0.13994389056E+02  0.57403205189E+02  0.47000000000E+01 0. -1.
         -5    1    1    2    0  502  0.16242508031E+02  0.76559503784E+01 -0.21089486098E+03  0.21171009667E+03  0.47000000000E+01 0.  1.
        -11    1    1    2    0    0 -0.48831873018E+01 -0.27299621618E+02 -0.21829886841E+02  0.35293892080E+02  0.00000000000E+00 0. -1.
         11    1    1    2    0    0 -0.37675182084E+02  0.68476759223E+02 -0.11432870211E+03  0.13849020913E+03  0.00000000000E+00 0.  1.
<mgrwt>
<rscale>  0 0.13665196E+03</rscale>
<asrwt>0</asrwt>
<pdfrwt beam="1">  1        1 0.62961208E-02 0.14780661E+03</pdfrwt>
<pdfrwt beam="2">  1       -1 0.61841937E-01 0.14780661E+03</pdfrwt>
<totfact> 0.32043405E+03</totfact>
</mgrwt>
</event>
<event>
 7    1  0.4230786E-006  0.1275133E+03  0.7546771E-02  0.1245119E+00
          2   -1    0    0  501    0  0.00000000000E+00  0.00000000000E+00  0.54288635366E+02  0.54288635366E+02  0.00000000000E+00 0. -1.
         -2   -1    0    0    0  501 -0.00000000000E+00 -0.00000000000E+00 -0.25388444720E+03  0.25388444720E+03  0.00000000000E+00 0.  1.
         23    2    1    2    0    0 -0.82393662083E+01  0.23805089811E+02 -0.15928507329E+03  0.20403767940E+03  0.12500028234E+03 0.  0.
          5    1    3    3  502    0 -0.43508911864E+02  0.36244753469E+02 -0.15620468655E+03  0.16621883667E+03  0.47000000000E+01 0. -1.
         -5    1    3    3    0  502  0.35269545656E+02 -0.12439663658E+02 -0.30803867462E+01  0.37818842727E+02  0.47000000000E+01 0. -1.
        -11    1    1    2    0    0 -0.86329180057E+01 -0.30121841782E+02 -0.65824419398E+02  0.72902035738E+02  0.00000000000E+00 0.  1.
         11    1    1    2    0    0  0.16872284214E+02  0.63167519713E+01  0.25513680858E+02  0.31233367429E+02  0.00000000000E+00 0. -1.
<mgrwt>
<rscale>  0 0.11878276E+03</rscale>
<asrwt>0</asrwt>
<pdfrwt beam="1">  1        2 0.83520977E-02 0.12751329E+03</pdfrwt>
<pdfrwt beam="2">  1       -2 0.39059146E-01 0.12751329E+03</pdfrwt>
<totfact> 0.47520873E+03</totfact>
</mgrwt>
</event>
<event>
 7    1  0.4230786E-006  0.1622671E+03  0.7546771E-02  0.1194207E+00
         -3   -1    0    0    0  501 -0.00000000000E+00  0.00000000000E+00  0.15463120058E+03  0.15463120058E+03  0.00000000000E+00 0.  1.
          3   -1    0    0  501    0  0.00000000000E+00 -0.00000000000E+00 -0.15974306704E+03  0.15974306704E+03  0.00000000000E+00 0. -1.
         23    2    1    2    0    0  0.72235873717E+02  0.74246578142E+02  0.46902723365E+02  0.16890970875E+03  0.12490015386E+03 0.  0.
          5    1    3    3  502    0 -0.23437416363E+02  0.50125694817E+02  0.42681310455E+02  0.70040574161E+02  0.47000000000E+01 0.  1.
         -5    1    3    3    0  502  0.95673290080E+02  0.24120883325E+02  0.42214129095E+01  0.98869134587E+02  0.47000000000E+01 0.  1.
        -11    1    1    2    0    0 -0.56969383770E+02  0.23718576922E+01 -0.14683783802E+02  0.58879112619E+02  0.00000000000E+00 0.  1.
         11    1    1    2    0    0 -0.15266489947E+02 -0.76618435834E+02 -0.37330806015E+02  0.86585446252E+02  0.00000000000E+00 0. -1.
<mgrwt>
<rscale>  0 0.15521564E+03</rscale>
<asrwt>0</asrwt>
<pdfrwt beam="2">  1        3 0.24575856E-01 0.16226714E+03</pdfrwt>
<pdfrwt beam="1">  1       -3 0.23789416E-01 0.16226714E+03</pdfrwt>
<totfact> 0.60532236E+02</totfact>
</mgrwt>
</event>
<event>
 7    1  0.4230786E-006  0.1322112E+03  0.7546771E-02  0.1225193E+00
          2   -1    0    0  501    0  0.00000000000E+00  0.00000000000E+00  0.96013585439E+03  0.96013585439E+03  0.00000000000E+00 0. -1.
         -2   -1    0    0    0  501 -0.00000000000E+00 -0.00000000000E+00 -0.19699771144E+02  0.19699771144E+02  0.00000000000E+00 0.  1.
         23    2    1    2    0    0 -0.40874742375E+00  0.43059455638E+02  0.32400598422E+03  0.34994239677E+03  0.12500207780E+03 0.  0.
          5    1    3    3  502    0 -0.31918007582E+02  0.10455337506E+02  0.29266455096E+03  0.29462298396E+03  0.47000000000E+01 0. -1.
         -5    1    3    3    0  502  0.31509260158E+02  0.32604118132E+02  0.31341433256E+02  0.55319412808E+02  0.47000000000E+01 0. -1.
        -11    1    1    2    0    0  0.43057206251E+02 -0.63481882475E+02  0.46398503908E+03  0.47028288179E+03  0.00000000000E+00 0. -1.
         11    1    1    2    0    0 -0.42648458828E+02  0.20422426837E+02  0.15244505994E+03  0.15961034697E+03  0.00000000000E+00 0.  1.
<mgrwt>
<rscale>  0 0.13153711E+03</rscale>
<asrwt>0</asrwt>
<pdfrwt beam="1">  1        2 0.14771317E+00 0.13221121E+03</pdfrwt>
<pdfrwt beam="2">  1       -2 0.30307348E-02 0.13221121E+03</pdfrwt>
<totfact> 0.11137273E+04</totfact>
</mgrwt>
</event>
<event>
 7    1  0.4230786E-006  0.1530791E+03  0.7546771E-02  0.1205456E+00
         -2   -1    0    0    0  501 -0.00000000000E+00  0.00000000000E+00  0.75761031324E+03  0.75761031324E+03  0.00000000000E+00 0.  1.
          2   -1    0    0  501    0  0.00000000000E+00 -0.00000000000E+00 -0.27517334939E+02  0.27517334939E+02  0.00000000000E+00 0. -1.
         23    2    1    2    0    0  0.22687117603E+02 -0.85400867276E+02  0.49401035002E+03  0.51718412880E+03  0.12500073487E+03 0.  0.
          5    1    3    3  502    0  0.65885027774E+02 -0.77369461579E+02  0.26307828732E+03  0.28206230824E+03  0.47000000000E+01 0. -1.
         -5    1    3    3    0  502 -0.43197910171E+02 -0.80314056972E+01  0.23093206270E+03  0.23512182056E+03  0.47000000000E+01 0. -1.
        -11    1    1    2    0    0 -0.35663512183E+02  0.70467019119E+02  0.23523755422E+03  0.24814147940E+03  0.00000000000E+00 0.  1.
         11    1    1    2    0    0  0.12976394580E+02  0.14933848157E+02  0.84507406165E+00  0.19802039977E+02  0.00000000000E+00 0. -1.
<mgrwt>
<rscale>  0 0.14601609E+03</rscale>
<asrwt>0</asrwt>
<pdfrwt beam="2">  1        2 0.42334367E-02 0.15307906E+03</pdfrwt>
<pdfrwt beam="1">  1       -2 0.11655542E+00 0.15307906E+03</pdfrwt>
<totfact> 0.11399079E+03</totfact>
</mgrwt>
</event>
<event>
 7    1  0.4230786E-006  0.1515747E+03  0.7546771E-02  0.1208095E+00
         -1   -1    0    0    0  501 -0.00000000000E+00  0.00000000000E+00  0.50848516375E+02  0.50848516375E+02  0.00000000000E+00 0.  1.
          1   -1    0    0  501    0  0.00000000000E+00 -0.00000000000E+00 -0.40737062545E+03  0.40737062545E+03  0.00000000000E+00 0. -1.
         23    2    1    2    0    0  0.50837559545E+02 -0.69027506011E+02 -0.12738754905E+03  0.19799616118E+03  0.12500255253E+03 0.  0.
          5    1    3    3  502    0  0.55773602798E+02  0.18088961472E+02 -0.77767819234E+02  0.97508097123E+02  0.47000000000E+01 0. -1.
         -5    1    3    3    0  502 -0.49360432522E+01 -0.87116467482E+02 -0.49619729820E+02  0.10048806405E+03  0.47000000000E+01 0. -1.
        -11    1    1    2    0    0  0.90665833448E+01  0.16977757901E+02 -0.16778286503E+01  0.19319997564E+02  0.00000000000E+00 0.  1.
         11    1    1    2    0    0 -0.59904142890E+02  0.52049748110E+02 -0.22745673137E+03  0.24090298309E+03  0.00000000000E+00 0. -1.
<mgrwt>
<rscale>  0 0.14396210E+03</rscale>
<asrwt>0</asrwt>
<pdfrwt beam="2">  1        1 0.62672407E-01 0.15157471E+03</pdfrwt>
<pdfrwt beam="1">  1       -1 0.78228483E-02 0.15157471E+03</pdfrwt>
<totfact> 0.51002162E+03</totfact>
</mgrwt>
</event>
<event>
 7    1  0.4230786E-006  0.1415137E+03  0.7546771E-02  0.1219655E+00
          1   -1    0    0  501    0  0.00000000000E+00  0.00000000000E+00  0.25110689511E+03  0.25110689511E+03  0.00000000000E+00 0. -1.
         -1   -1    0    0    0  501 -0.00000000000E+00 -0.00000000000E+00 -0.81676937558E+02  0.81676937558E+02  0.00000000000E+00 0.  1.
         23    2    1    2    0    0  0.14566075983E+02  0.64739210197E+02  0.21431342908E+02  0.14312729366E+03  0.12499113499E+03 0.  0.
          5    1    3    3  502    0  0.22230039729E+02 -0.84056222352E+01  0.56528615109E+02  0.61501247773E+02  0.47000000000E+01 0. -1.
         -5    1    3    3    0  502 -0.76639637455E+01  0.73144832432E+02 -0.35097272201E+02  0.81626045891E+02  0.47000000000E+01 0. -1.
        -11    1    1    2    0    0  0.24104339755E+01 -0.37125727228E+02  0.15246241229E+03  0.15693602829E+03  0.00000000000E+00 0. -1.
         11    1    1    2    0    0 -0.16976509959E+02 -0.27613482969E+02 -0.44637976457E+01  0.32720510716E+02  0.00000000000E+00 0.  1.
<mgrwt>
<rscale>  0 0.13540047E+03</rscale>
<asrwt>0</asrwt>
<pdfrwt beam="1">  1        1 0.38631830E-01 0.14151367E+03</pdfrwt>
<pdfrwt beam="2">  1       -1 0.12565683E-01 0.14151367E+03</pdfrwt>
<totfact> 0.45006390E+03</totfact>
</mgrwt>
</event>
<event>
 7    1  0.4230786E-006  0.1329310E+03  0.7546771E-02  0.1242988E+00
         -1   -1    0    0    0  501 -0.00000000000E+00  0.00000000000E+00  0.44257874499E+03  0.44257874499E+03  0.00000000000E+00 0.  1.
          1   -1    0    0  501    0  0.00000000000E+00 -0.00000000000E+00 -0.31556879325E+02  0.31556879325E+02  0.00000000000E+00 0. -1.
         23    2    1    2    0    0 -0.42425104351E+02 -0.15669488590E+02  0.32323195979E+03  0.34949898408E+03  0.12500087075E+03 0.  0.
          5    1    3    3  502    0 -0.47964392677E+01 -0.34438628404E+02  0.14638690231E+02  0.38018498231E+02  0.47000000000E+01 0. -1.
         -5    1    3    3    0  502 -0.37628665083E+02  0.18769139815E+02  0.30859326956E+03  0.31148048584E+03  0.47000000000E+01 0. -1.
        -11    1    1    2    0    0  0.58399202623E+02  0.24593558243E+02  0.43907048879E+02  0.77091756468E+02  0.00000000000E+00 0. -1.
         11    1    1    2    0    0 -0.15974098272E+02 -0.89240696530E+01  0.43882856998E+02  0.47544883774E+02  0.00000000000E+00 0.  1.
<mgrwt>
<rscale>  0 0.12006615E+03</rscale>
<asrwt>0</asrwt>
<pdfrwt beam="2">  1        1 0.48549048E-02 0.13293096E+03</pdfrwt>
<pdfrwt beam="1">  1       -1 0.68089033E-01 0.13293096E+03</pdfrwt>
<totfact> 0.37669015E+03</totfact>
</mgrwt>
</event>
<event>
 7    1  0.4230786E-006  0.1308094E+03  0.7546771E-02  0.1239183E+00
         -1   -1    0    0    0  501 -0.00000000000E+00  0.00000000000E+00  0.48557567464E+03  0.48557567464E+03  0.00000000000E+00 0.  1.
          1   -1    0    0  501    0  0.00000000000E+00 -0.00000000000E+00 -0.29087586994E+02  0.29087586994E+02  0.00000000000E+00 0. -1.
         23    2    1    2    0    0  0.37440588430E+01 -0.38375185088E+02  0.31641191408E+03  0.34238514763E+03  0.12499766852E+03 0.  0.
          5    1    3    3  502    0  0.54611299546E+02 -0.33256516709E+02  0.25193713584E+03  0.25996692166E+03  0.47000000000E+01 0. -1.
         -5    1    3    3    0  502 -0.50867240703E+02 -0.51186683789E+01  0.64474778247E+02  0.82418225973E+02  0.47000000000E+01 0. -1.
        -11    1    1    2    0    0  0.21802842870E+02  0.57467372103E+02  0.59186754426E+02  0.85328393358E+02  0.00000000000E+00 0. -1.
         11    1    1    2    0    0 -0.25546901713E+02 -0.19092187015E+02  0.80889419136E+02  0.86949720645E+02  0.00000000000E+00 0.  1.
<mgrwt>
<rscale>  0 0.12240392E+03</rscale>
<asrwt>0</asrwt>
<pdfrwt beam="2">  1        1 0.44750137E-02 0.13080936E+03</pdfrwt>
<pdfrwt beam="1">  1       -1 0.74703944E-01 0.13080936E+03</pdfrwt>
<totfact> 0.35010439E+03</totfact>
</mgrwt>
</event>
<event>
 7    1  0.4230786E-006  0.1464378E+03  0.7546771E-02  0.1214638E+00
          1   -1    0    0  501    0  0.00000000000E+00  0.00000000000E+00  0.14010931324E+03  0.14010931324E+03  0.00000000000E+00 0. -1.
         -1   -1    0    0    0  501 -0.00000000000E+00 -0.00000000000E+00 -0.12668305792E+03  0.12668305792E+03  0.00000000000E+00 0.  1.
         23    2    1    2    0    0  0.58621737872E+02  0.48813911120E+02 -0.42523835394E+01  0.14649955076E+03  0.12499891814E+03 0.  0.
          5    1    3    3  502    0  0.85732876160E+02  0.69474039867E+02 -0.12391909860E+02  0.11114143107E+03  0.47000000000E+01 0.  1.
         -5    1    3    3    0  502 -0.27111138288E+02 -0.20660128746E+02  0.81395263205E+01  0.35358119687E+02  0.47000000000E+01 0.  1.
        -11    1    1    2    0    0  0.62151998474E+01 -0.38738518695E+02  0.34840375503E+02  0.52470499379E+02  0.00000000000E+00 0. -1.
         11    1    1    2    0    0 -0.64836937720E+02 -0.10075392425E+02 -0.17161736638E+02  0.67822321030E+02  0.00000000000E+00 0.  1.
<mgrwt>
<rscale>  0 0.13903192E+03</rscale>
<asrwt>0</asrwt>
<pdfrwt beam="1">  1        1 0.21555279E-01 0.14643782E+03</pdfrwt>
<pdfrwt beam="2">  1       -1 0.19489701E-01 0.14643782E+03</pdfrwt>
<totfact> 0.46834725E+03</totfact>
</mgrwt>
</event>
<event>
 7    1  0.4230786E-006  0.1388215E+03  0.7546771E-02  0.1226197E+00
          2   -1    0    0  501    0  0.00000000000E+00  0.00000000000E+00  0.10112338295E+03  0.10112338295E+03  0.00000000000E+00 0.  1.
         -2   -1    0    0    0  501 -0.00000000000E+00 -0.00000000000E+00 -0.15346944682E+03  0.15346944682E+03  0.00000000000E+00 0. -1.
         23    2    1    2    0    0 -0.20161265591E+02 -0.56920485877E+02 -0.39019750190E+02  0.14420107547E+03  0.12499996368E+03 0.  0.
          5    1    3    3  502    0 -0.29302983468E+02 -0.32339136625E+02 -0.82359950511E+02  0.93325966622E+02  0.47000000000E+01 0.  1.
         -5    1    3    3    0  502  0.91417178770E+01 -0.24581349251E+02  0.43340200322E+02  0.50875108852E+02  0.47000000000E+01 0.  1.
        -11    1    1    2    0    0  0.27833038552E+02  0.33575362158E+02  0.35169350493E+02  0.56025585166E+02  0.00000000000E+00 0.  1.
         11    1    1    2    0    0 -0.76717729606E+01  0.23345123718E+02 -0.48495664174E+02  0.54366169126E+02  0.00000000000E+00 0. -1.
<mgrwt>
<rscale>  0 0.13085182E+03</rscale>
<asrwt>0</asrwt>
<pdfrwt beam="1">  1        2 0.15557444E-01 0.13882150E+03</pdfrwt>
<pdfrwt beam="2">  1       -2 0.23610684E-01 0.13882150E+03</pdfrwt>
<totfact> 0.55885220E+03</totfact>
</mgrwt>
</event>
<event>
 7    1  0.4230786E-006  0.1258179E+03  0.7546771E-02  0.1247849E+00
         -1   -1    0    0    0  501 -0.00000000000E+00  0.00000000000E+00  0.20714451519E+02  0.20714451519E+02  0.00000000000E+00 0.  1.
          1   -1    0    0  501    0  0.00000000000E+00 -0.00000000000E+00 -0.74534939808E+03  0.74534939808E+03  0.00000000000E+00 0. -1.
         23    2    1    2    0    0 -0.14120967986E+02  0.25202213500E+01 -0.22720681896E+03  0.25971730897E+03  0.12499755495E+03 0.  0.
          5    1    3    3  502    0 -0.45540350042E+02  0.33185266468E+02 -0.20003255691E+03  0.20787087149E+03  0.47000000000E+01 0.  1.
         -5    1    3    3    0  502  0.31419382056E+02 -0.30665045118E+02 -0.27174262052E+02  0.51846437476E+02  0.47000000000E+01 0.  1.
        -11    1    1    2    0    0 -0.22032317320E+02  0.35693851460E+02 -0.21149806227E+03  0.21561749554E+03  0.00000000000E+00 0.  1.
         11    1    1    2    0    0  0.36153285306E+02 -0.38214072810E+02 -0.28593006533E+03  0.29072904509E+03  0.00000000000E+00 0. -1.
<mgrwt>
<rscale>  0 0.11716483E+03</rscale>
<asrwt>0</asrwt>
<pdfrwt beam="2">  1        1 0.11466913E+00 0.12581789E+03</pdfrwt>
<pdfrwt beam="1">  1       -1 0.31868389E-02 0.12581789E+03</pdfrwt>
<totfact> 0.84769902E+03</totfact>
</mgrwt>
</event>
<event>
 7    1  0.4230786E-006  0.1488762E+03  0.7546771E-02  0.1211069E+00
         -1   -1    0    0    0  501 -0.00000000000E+00  0.00000000000E+00  0.33449967712E+02  0.33449967712E+02  0.00000000000E+00 0.  1.
          1   -1    0    0  501    0  0.00000000000E+00 -0.00000000000E+00 -0.60554537150E+03  0.60554537150E+03  0.00000000000E+00 0. -1.
         23    2    1    2    0    0  0.79903930667E+02  0.12484047009E+02 -0.21443428054E+03  0.26104822769E+03  0.12499450766E+03 0.  0.
          5    1    3    3  502    0  0.95503780661E+02  0.32992104866E+02 -0.21181213842E+03  0.23472520761E+03  0.47000000000E+01 0.  1.
         -5    1    3    3    0  502 -0.15599849994E+02 -0.20508057857E+02 -0.26221421130E+01  0.26323020080E+02  0.47000000000E+01 0.  1.
        -11    1    1    2    0    0 -0.47136464352E+02 -0.49332240456E+02 -0.15464520596E+03  0.16902856547E+03  0.00000000000E+00 0.  1.
         11    1    1    2    0    0 -0.32767466315E+02  0.36848193447E+02 -0.20301591729E+03  0.20891854605E+03  0.00000000000E+00 0. -1.
<mgrwt>
<rscale>  0 0.14169328E+03</rscale>
<asrwt>0</asrwt>
<pdfrwt beam="2">  1        1 0.93160820E-01 0.14887618E+03</pdfrwt>
<pdfrwt beam="1">  1       -1 0.51461492E-02 0.14887618E+03</pdfrwt>
<totfact> 0.56727969E+03</totfact>
</mgrwt>
</event>
<event>
 7    1  0.4230786E-006  0.1728176E+03  0.7546771E-02  0.1179255E+00
         -1   -1    0    0    0  501 -0.00000000000E+00  0.00000000000E+00  0.10065047955E+03  0.10065047955E+03  0.00000000000E+00 0.  1.
          1   -1    0    0  501    0  0.00000000000E+00 -0.00000000000E+00 -0.26982780051E+03  0.26982780051E+03  0.00000000000E+00 0. -1.
         23    2    1    2    0    0 -0.61020615878E+01  0.11917956164E+03 -0.87357551690E+02  0.19364208555E+03  0.12499964957E+03 0.  0.
          5    1    3    3  502    0 -0.48893964795E+02  0.25562412556E+02 -0.69831881856E+02  0.89121481432E+02  0.47000000000E+01 0.  1.
         -5    1    3    3    0  502  0.42791903207E+02  0.93617149086E+02 -0.17525669834E+02  0.10452060412E+03  0.47000000000E+01 0.  1.
        -11    1    1    2    0    0  0.29876438517E+02 -0.12755088435E+03 -0.62905718218E+02  0.14532363559E+03  0.00000000000E+00 0. -1.
         11    1    1    2    0    0 -0.23774376929E+02  0.83713227107E+01 -0.18914051043E+02  0.31512558912E+02  0.00000000000E+00 0.  1.
<mgrwt>
<rscale>  0 0.16865767E+03</rscale>
<asrwt>0</asrwt>
<pdfrwt beam="2">  1        1 0.41511969E-01 0.17281758E+03</pdfrwt>
<pdfrwt beam="1">  1       -1 0.15484689E-01 0.17281758E+03</pdfrwt>
<totfact> 0.29972993E+03</totfact>
</mgrwt>
</event>
<event>
 7    1  0.4230786E-006  0.1500103E+03  0.7546771E-02  0.1210202E+00
         -1   -1    0    0    0  501 -0.00000000000E+00  0.00000000000E+00  0.23867665372E+03  0.23867665372E+03  0.00000000000E+00 0.  1.
          1   -1    0    0  501    0  0.00000000000E+00 -0.00000000000E+00 -0.77817195851E+02  0.77817195851E+02  0.00000000000E+00 0. -1.
         23    2    1    2    0    0 -0.82672123074E+02 -0.65754351448E+01  0.10170811391E+03  0.18123916898E+03  0.12500071863E+03 0.  0.
          5    1    3    3  502    0 -0.86459363831E+01 -0.15428073263E+02 -0.26885627707E+02  0.32522371343E+02  0.47000000000E+01 0.  1.
         -5    1    3    3    0  502 -0.74026186690E+02  0.88526381181E+01  0.12859374161E+03  0.14871679764E+03  0.47000000000E+01 0.  1.
        -11    1    1    2    0    0  0.55001070759E+02 -0.39553189945E+02  0.35641475836E+02  0.76549901497E+02  0.00000000000E+00 0.  1.
         11    1    1    2    0    0  0.27671052314E+02  0.46128625090E+02  0.23509868124E+02  0.58704779091E+02  0.00000000000E+00 0. -1.
<mgrwt>
<rscale>  0 0.14234920E+03</rscale>
<asrwt>0</asrwt>
<pdfrwt beam="2">  1        1 0.11971876E-01 0.15001032E+03</pdfrwt>
<pdfrwt beam="1">  1       -1 0.36719485E-01 0.15001032E+03</pdfrwt>
<totfact> 0.34977349E+03</totfact>
</mgrwt>
</event>
<event>
 7    1  0.4230786E-006  0.1671845E+03  0.7546771E-02  0.1187647E+00
          2   -1    0    0  501    0  0.00000000000E+00  0.00000000000E+00  0.62059120047E+03  0.62059120047E+03  0.00000000000E+00 0. -1.
         -2   -1    0    0    0  501 -0.00000000000E+00 -0.00000000000E+00 -0.39292174594E+02  0.39292174594E+02  0.00000000000E+00 0.  1.
         23    2    1    2    0    0  0.57361617597E+02 -0.95039180453E+02  0.27950042679E+03  0.32568565735E+03  0.12501143081E+03 0.  0.
          5    1    3    3  502    0  0.71423782015E+02 -0.95322717245E+02  0.28573142870E+03  0.30960025259E+03  0.47000000000E+01 0. -1.
         -5    1    3    3    0  502 -0.14062164418E+02  0.28353679131E+00 -0.62310019117E+01  0.16085404753E+02  0.47000000000E+01 0. -1.
        -11    1    1    2    0    0 -0.33174423061E+02  0.41050130081E+02  0.41165131468E+02  0.66934472239E+02  0.00000000000E+00 0.  1.
         11    1    1    2    0    0 -0.24187194536E+02  0.53989050372E+02  0.26063346763E+03  0.26726324548E+03  0.00000000000E+00 0. -1.
<mgrwt>
<rscale>  0 0.16093314E+03</rscale>
<asrwt>0</asrwt>
<pdfrwt beam="1">  1        2 0.95475563E-01 0.16718451E+03</pdfrwt>
<pdfrwt beam="2">  1       -2 0.60449504E-02 0.16718451E+03</pdfrwt>
<totfact> 0.69013134E+03</totfact>
</mgrwt>
</event>
<event>
 7    1  0.4230786E-006  0.1263150E+03  0.7546771E-02  0.1248590E+00
         -4   -1    0    0    0  501 -0.00000000000E+00  0.00000000000E+00  0.37834824300E+02  0.37834824300E+02  0.00000000000E+00 0.  1.
          4   -1    0    0  501    0  0.00000000000E+00 -0.00000000000E+00 -0.48734939258E+03  0.48734939258E+03  0.00000000000E+00 0. -1.
         23    2    1    2    0    0  0.16060781721E+02  0.84827761138E+01 -0.92730206856E+02  0.15669831608E+03  0.12500225917E+03 0.  0.
          5    1    3    3  502    0  0.25853238750E+02 -0.44551312553E+02 -0.28842623121E+01  0.51803652122E+02  0.47000000000E+01 0.  1.
         -5    1    3    3    0  502 -0.97924570292E+01  0.53034088667E+02 -0.89845944544E+02  0.10489466396E+03  0.47000000000E+01 0.  1.
        -11    1    1    2    0    0 -0.60288332582E+00  0.39677886058E+02 -0.19429865798E+03  0.19830952222E+03  0.00000000000E+00 0.  1.
         11    1    1    2    0    0 -0.15457898395E+02 -0.48160662172E+02 -0.16248570345E+03  0.17017637859E+03  0.00000000000E+00 0. -1.
<mgrwt>
<rscale>  0 0.11673040E+03</rscale>
<asrwt>0</asrwt>
<pdfrwt beam="2">  1        4 0.74976828E-01 0.12631497E+03</pdfrwt>
<pdfrwt beam="1">  1       -4 0.58207423E-02 0.12631497E+03</pdfrwt>
<totfact> 0.50110230E+02</totfact>
</mgrwt>
</event>
<event>
 6    1  0.4230786E-006  0.1748098E+03  0.7546771E-02  0.1185302E+00
          1   -1    0    0  501    0  0.00000000000E+00  0.00000000000E+00  0.16833696959E+03  0.16833696959E+03  0.00000000000E+00 0. -1.
         -1   -1    0    0    0  501 -0.00000000000E+00 -0.00000000000E+00 -0.19912105149E+03  0.19912105149E+03  0.00000000000E+00 0.  1.
          5    1    1    2  502    0  0.47862902411E+02  0.29906067368E+02 -0.25952609880E+02  0.62296534833E+02  0.47000000000E+01 0. -1.
         -5    1    1    2    0  502 -0.10694038744E+03  0.46739722410E+02 -0.90322443542E+02  0.14765189441E+03  0.47000000000E+01 0.  1.
        -11    1    1    2    0    0  0.54108098737E+02 -0.12385230849E+02  0.73249071589E+02  0.91904878982E+02  0.00000000000E+00 0. -1.
         11    1    1    2    0    0  0.49693862908E+01 -0.64260558929E+02  0.12241899941E+02  0.65604712850E+02  0.00000000000E+00 0.  1.
<mgrwt>
<rscale>  0 0.16304436E+03</rscale>
<asrwt>0</asrwt>
<pdfrwt beam="1">  1        1 0.25897995E-01 0.17480977E+03</pdfrwt>
<pdfrwt beam="2">  1       -1 0.30634008E-01 0.17480977E+03</pdfrwt>
<totfact> 0.17770514E+03</totfact>
</mgrwt>
</event>
<event>
 7    1  0.4230786E-006  0.1422984E+03  0.7546771E-02  0.1221486E+00
          1   -1    0    0  501    0  0.00000000000E+00  0.00000000000E+00  0.13481879222E+03  0.13481879222E+03  0.00000000000E+00 0. -1.
         -1   -1    0    0    0  501 -0.00000000000E+00 -0.00000000000E+00 -0.12047118156E+03  0.12047118156E+03  0.00000000000E+00 0.  1.
         23    2    1    2    0    0 -0.47261231230E+02  0.48883898267E+02  0.15423402220E+01  0.14230672804E+03  0.12500226616E+03 0.  0.
          5    1    3    3  502    0  0.32874763587E+02 -0.17349780503E+02 -0.60750100535E+01  0.37957353854E+02  0.47000000000E+01 0. -1.
         -5    1    3    3    0  502 -0.80135994817E+02  0.66233678770E+02  0.76173502754E+01  0.10434937419E+03  0.47000000000E+01 0. -1.
        -11    1    1    2    0    0  0.61239139868E+02 -0.60478186036E+02 -0.67039945999E+01  0.86329524391E+02  0.00000000000E+00 0.  1.
         11    1    1    2    0    0 -0.13977908638E+02  0.11594287769E+02  0.19509265043E+02  0.26653721341E+02  0.00000000000E+00 0. -1.
<mgrwt>
<rscale>  0 0.13410705E+03</rscale>
<asrwt>0</asrwt>
<pdfrwt beam="1">  1        1 0.20741353E-01 0.14229837E+03</pdfrwt>
<pdfrwt beam="2">  1       -1 0.18534028E-01 0.14229837E+03</pdfrwt>
<totfact> 0.53208059E+03</totfact>
</mgrwt>
</event>
<event>
 7    1  0.4230786E-006  0.1674678E+03  0.7546771E-02  0.1188523E+00
          2   -1    0    0  501    0  0.00000000000E+00  0.00000000000E+00  0.10550772583E+03  0.10550772583E+03  0.00000000000E+00 0. -1.
         -2   -1    0    0    0  501 -0.00000000000E+00 -0.00000000000E+00 -0.24477923689E+03  0.24477923689E+03  0.00000000000E+00 0.  1.
         23    2    1    2    0    0 -0.26544146231E+02  0.10823709218E+03 -0.12602070043E+03  0.20958688995E+03  0.12500235069E+03 0.  0.
          5    1    3    3  502    0  0.20282897995E+02 -0.21215850183E+02 -0.22271201238E+02  0.37143029691E+02  0.47000000000E+01 0.  1.
         -5    1    3    3    0  502 -0.46827044226E+02  0.12945294237E+03 -0.10374949919E+03  0.17244386026E+03  0.47000000000E+01 0.  1.
        -11    1    1    2    0    0  0.33820733898E+02 -0.55584254978E+02  0.30497969723E+02  0.71858037825E+02  0.00000000000E+00 0. -1.
         11    1    1    2    0    0 -0.72765876671E+01 -0.52652837206E+02 -0.43748780350E+02  0.68842034950E+02  0.00000000000E+00 0.  1.
<mgrwt>
<rscale>  0 0.16015420E+03</rscale>
<asrwt>0</asrwt>
<pdfrwt beam="1">  1        2 0.16231958E-01 0.16746775E+03</pdfrwt>
<pdfrwt beam="2">  1       -2 0.37658344E-01 0.16746775E+03</pdfrwt>
<totfact> 0.23173155E+03</totfact>
</mgrwt>
</event>
<event>
 7    1  0.4230786E-006  0.1860514E+03  0.7546771E-02  0.1168640E+00
         -1   -1    0    0    0  501 -0.00000000000E+00  0.00000000000E+00  0.96271811810E+02  0.96271811810E+02  0.00000000000E+00 0.  1.
          1   -1    0    0  501    0  0.00000000000E+00 -0.00000000000E+00 -0.33584908887E+03  0.33584908887E+03  0.00000000000E+00 0. -1.
         23    2    1    2    0    0  0.12248528955E+03  0.63138492612E+02 -0.69311978026E+02  0.19854288313E+03  0.12500404288E+03 0.  0.
          5    1    3    3  502    0  0.13574791577E+01 -0.31740782564E+02 -0.11806049858E+02  0.34216850246E+02  0.47000000000E+01 0. -1.
         -5    1    3    3    0  502  0.12112781039E+03  0.94879275176E+02 -0.57505928168E+02  0.16432603288E+03  0.47000000000E+01 0. -1.
        -11    1    1    2    0    0 -0.54166174103E+02 -0.40686731751E+02 -0.14005025500E+03  0.15557460745E+03  0.00000000000E+00 0. -1.
         11    1    1    2    0    0 -0.68319115445E+02 -0.22451760860E+02 -0.30215044026E+02  0.78003410095E+02  0.00000000000E+00 0.  1.
<mgrwt>
<rscale>  0 0.17913799E+03</rscale>
<asrwt>0</asrwt>
<pdfrwt beam="2">  1        1 0.51669090E-01 0.18605141E+03</pdfrwt>
<pdfrwt beam="1">  1       -1 0.14811048E-01 0.18605141E+03</pdfrwt>
<totfact> 0.24526718E+03</totfact>
</mgrwt>
</event>
<event>
 7    1  0.4230786E-006  0.1379281E+03  0.7546771E-02  0.1227640E+00
          2   -1    0    0  501    0  0.00000000000E+00  0.00000000000E+00  0.31011249503E+02  0.31011249503E+02  0.00000000000E+00 0. -1.
         -2   -1    0    0    0  501 -0.00000000000E+00 -0.00000000000E+00 -0.49988306675E+03  0.49988306675E+03  0.00000000000E+00 0.  1.
         23    2    1    2    0    0  0.57761136177E+02 -0.80474035036E+01 -0.30029368281E+03  0.33045491342E+03  0.12499217700E+03 0.  0.
          5    1    3    3  502    0  0.75476148673E+02  0.26348005411E+02 -0.26840801568E+03  0.28009965957E+03  0.47000000000E+01 0.  1.
         -5    1    3    3    0  502 -0.17715012496E+02 -0.34395408915E+02 -0.31885667127E+02  0.50355253850E+02  0.47000000000E+01 0.  1.
        -11    1    1    2    0    0 -0.58832035439E+02 -0.30116998061E+02 -0.13171985689E+03  0.14737151240E+03  0.00000000000E+00 0.  1.
         11    1    1    2    0    0  0.10708992614E+01  0.38164401565E+02 -0.36858277543E+02  0.53067890437E+02  0.00000000000E+00 0. -1.
<mgrwt>
<rscale>  0 0.12987581E+03</rscale>
<asrwt>0</asrwt>
<pdfrwt beam="1">  1        2 0.47709615E-02 0.13792807E+03</pdfrwt>
<pdfrwt beam="2">  1       -2 0.76905086E-01 0.13792807E+03</pdfrwt>
<totfact> 0.24940343E+03</totfact>
</mgrwt>
</event>
<event>
 7    1  0.4230786E-006  0.1246081E+03  0.7546771E-02  0.1248222E+00
         -2   -1    0    0    0  501 -0.00000000000E+00  0.00000000000E+00  0.69892426966E+02  0.69892426966E+02  0.00000000000E+00 0.  1.
          2   -1    0    0  501    0  0.00000000000E+00 -0.00000000000E+00 -0.18507429017E+03  0.18507429017E+03  0.00000000000E+00 0. -1.
         23    2    1    2    0    0 -0.34177674774E+02 -0.40829971714E+02 -0.35167279350E+02  0.12947554864E+03  0.11265868859E+03 0.  0.
          5    1    3    3  502    0 -0.43546583431E+01 -0.52179836046E+02 -0.66322758443E+02  0.84631534468E+02  0.47000000000E+01 0. -1.
         -5    1    3    3    0  502 -0.29823016431E+02  0.11349864332E+02  0.31155479092E+02  0.44844014170E+02  0.47000000000E+01 0.  1.
        -11    1    1    2    0    0 -0.22731431327E+01  0.47144671088E+02 -0.74349618374E+02  0.88066185020E+02  0.00000000000E+00 0.  1.
         11    1    1    2    0    0  0.36450817907E+02 -0.63146993740E+01 -0.56649654781E+01  0.37424983475E+02  0.00000000000E+00 0. -1.
<mgrwt>
<rscale>  0 0.11694622E+03</rscale>
<asrwt>0</asrwt>
<pdfrwt beam="2">  1        2 0.28472968E-01 0.12460811E+03</pdfrwt>
<pdfrwt beam="1">  1       -2 0.10752681E-01 0.12460811E+03</pdfrwt>
<totfact> 0.10268537E+04</totfact>
</mgrwt>
</event>
<event>
 7    1  0.4230786E-006  0.1949520E+03  0.7546771E-02  0.1158705E+00
          2   -1    0    0  501    0  0.00000000000E+00  0.00000000000E+00  0.13185454217E+04  0.13185454217E+04  0.00000000000E+00 0. -1.
         -2   -1    0    0    0  501 -0.00000000000E+00 -0.00000000000E+00 -0.32536951909E+02  0.32536951909E+02  0.00000000000E+00 0.  1.
         23    2    1    2    0    0  0.13906061084E+03 -0.55164159720E+02  0.36684983757E+03  0.41543362677E+03  0.12500142768E+03 0.  0.
          5    1    3    3  502    0  0.23117585162E+02  0.34567751766E+02  0.13259358053E+03  0.13904136005E+03  0.47000000000E+01 0. -1.
         -5    1    3    3    0  502  0.11594302568E+03 -0.89731911486E+02  0.23425625703E+03  0.27639226672E+03  0.47000000000E+01 0. -1.
        -11    1    1    2    0    0 -0.60459453717E+02  0.70749061784E+02  0.55800913405E+03  0.56571633260E+03  0.00000000000E+00 0.  1.
         11    1    1    2    0    0 -0.78601157127E+02 -0.15584902064E+02  0.36114949820E+03  0.36993241426E+03  0.00000000000E+00 0. -1.
<mgrwt>
<rscale>  0 0.18973006E+03</rscale>
<asrwt>0</asrwt>
<pdfrwt beam="1">  1        2 0.20285310E+00 0.19495203E+03</pdfrwt>
<pdfrwt beam="2">  1       -2 0.50056859E-02 0.19495203E+03</pdfrwt>
<totfact> 0.33350081E+03</totfact>
</mgrwt>
</event>
<event>
 7    1  0.4230786E-006  0.1640196E+03  0.7546771E-02  0.1195657E+00
          2   -1    0    0  501    0  0.00000000000E+00  0.00000000000E+00  0.12099564873E+03  0.12099564873E+03  0.00000000000E+00 0. -1.
         -2   -1    0    0    0  501 -0.00000000000E+00 -0.00000000000E+00 -0.19681058772E+03  0.19681058772E+03  0.00000000000E+00 0.  1.
         23    2    1    2    0    0 -0.60034509555E+02  0.87576952401E+02 -0.94068673398E+02  0.18908024832E+03  0.12501423944E+03 0.  0.
          5    1    3    3  502    0 -0.98140311712E+02  0.63938889125E+02 -0.79721211561E+02  0.14176481897E+03  0.47000000000E+01 0. -1.
         -5    1    3    3    0  502  0.38105802157E+02  0.23638063276E+02 -0.14347461837E+02  0.47315429350E+02  0.47000000000E+01 0. -1.
        -11    1    1    2    0    0 -0.14929056031E+02 -0.53152501792E+01  0.51479488643E+01  0.16662232022E+02  0.00000000000E+00 0.  1.
         11    1    1    2    0    0  0.74963565585E+02 -0.82261702222E+02  0.13105785544E+02  0.11206375611E+03  0.00000000000E+00 0. -1.
<mgrwt>
<rscale>  0 0.15398755E+03</rscale>
<asrwt>0</asrwt>
<pdfrwt beam="1">  1        2 0.18614715E-01 0.16401959E+03</pdfrwt>
<pdfrwt beam="2">  1       -2 0.30278552E-01 0.16401959E+03</pdfrwt>
<totfact> 0.29532928E+03</totfact>
</mgrwt>
</event>
<event>
 7    1  0.4230786E-006  0.1353955E+03  0.7546771E-02  0.1232473E+00
         -2   -1    0    0    0  501 -0.00000000000E+00  0.00000000000E+00  0.41890056656E+02  0.41890056656E+02  0.00000000000E+00 0.  1.
          2   -1    0    0  501    0  0.00000000000E+00 -0.00000000000E+00 -0.34422862508E+03  0.34422862508E+03  0.00000000000E+00 0. -1.
         23    2    1    2    0    0  0.30303436916E+02  0.42309992133E+02 -0.15335240353E+03  0.20457002027E+03  0.12499399906E+03 0.  0.
          5    1    3    3  502    0  0.20770006079E+02  0.83273304429E+02 -0.13107800884E+03  0.15674619863E+03  0.47000000000E+01 0.  1.
         -5    1    3    3    0  502  0.95334308370E+01 -0.40963312295E+02 -0.22274394689E+02  0.47823821643E+02  0.47000000000E+01 0.  1.
        -11    1    1    2    0    0  0.10630324020E+02  0.21564080312E+02 -0.17466467687E+02  0.29716844415E+02  0.00000000000E+00 0.  1.
         11    1    1    2    0    0 -0.40933760937E+02 -0.63874072446E+02 -0.13151969721E+03  0.15183181705E+03  0.00000000000E+00 0. -1.
<mgrwt>
<rscale>  0 0.12667618E+03</rscale>
<asrwt>0</asrwt>
<pdfrwt beam="2">  1        2 0.52958249E-01 0.13539547E+03</pdfrwt>
<pdfrwt beam="1">  1       -2 0.64446242E-02 0.13539547E+03</pdfrwt>
<totfact> 0.11780360E+04</totfact>
</mgrwt>
</event>
<event>
 7    1  0.4230786E-006  0.1303809E+03  0.7546771E-02  0.1232875E+00
          3   -1    0    0  501    0  0.00000000000E+00  0.00000000000E+00  0.41630411372E+02  0.41630411372E+02  0.00000000000E+00 0. -1.
         -3   -1    0    0    0  501 -0.00000000000E+00 -0.00000000000E+00 -0.36887767318E+03  0.36887767318E+03  0.00000000000E+00 0.  1.
         23    2    1    2    0    0  0.63609396308E+02 -0.79241579661E+01 -0.14607853791E+03  0.19580123316E+03  0.11353517556E+03 0.  0.
          5    1    3    3  502    0  0.53992352453E+02 -0.53198897492E+02 -0.55795810327E+02  0.94236719318E+02  0.47000000000E+01 0. -1.
         -5    1    3    3    0  502  0.96170438544E+01  0.45274739526E+02 -0.90282727583E+02  0.10156451384E+03  0.47000000000E+01 0.  1.
        -11    1    1    2    0    0 -0.74574126747E+02  0.34076690014E+02 -0.15831246094E+03  0.17828448186E+03  0.00000000000E+00 0. -1.
         11    1    1    2    0    0  0.10964730440E+02 -0.26152532048E+02 -0.22856262956E+02  0.36422369534E+02  0.00000000000E+00 0.  1.
<mgrwt>
<rscale>  0 0.12641474E+03</rscale>
<asrwt>0</asrwt>
<pdfrwt beam="1">  1        3 0.64046789E-02 0.13038092E+03</pdfrwt>
<pdfrwt beam="2">  1       -3 0.56750410E-01 0.13038092E+03</pdfrwt>
<totfact> 0.10835414E+03</totfact>
</mgrwt>
</event>
<event>
 7    1  0.4230786E-006  0.1259207E+03  0.7546771E-02  0.1248133E+00
         -1   -1    0    0    0  501 -0.00000000000E+00  0.00000000000E+00  0.15014765297E+03  0.15014765297E+03  0.00000000000E+00 0.  1.
          1   -1    0    0  501    0  0.00000000000E+00 -0.00000000000E+00 -0.80435085903E+02  0.80435085903E+02  0.00000000000E+00 0. -1.
         23    2    1    2    0    0  0.11862381538E+00  0.15204621325E+02  0.41607520409E+02  0.13261679222E+03  0.12499933297E+03 0.  0.
          5    1    3    3  502    0  0.39053059662E+02  0.29447615841E+02 -0.24141340730E+02  0.54746670035E+02  0.47000000000E+01 0. -1.
         -5    1    3    3    0  502 -0.38934435847E+02 -0.14242994516E+02  0.65748861139E+02  0.77870122182E+02  0.47000000000E+01 0. -1.
        -11    1    1    2    0    0 -0.41794959228E+02  0.28916719611E+01  0.31481874078E+02  0.52405045358E+02  0.00000000000E+00 0.  1.
         11    1    1    2    0    0  0.41676335412E+02 -0.18096293286E+02 -0.33768274158E+01  0.45560901303E+02  0.00000000000E+00 0. -1.
<mgrwt>
<rscale>  0 0.11699817E+03</rscale>
<asrwt>0</asrwt>
<pdfrwt beam="2">  1        1 0.12374629E-01 0.12592072E+03</pdfrwt>
<pdfrwt beam="1">  1       -1 0.23099639E-01 0.12592072E+03</pdfrwt>
<totfact> 0.71992770E+03</totfact>
</mgrwt>
</event>
<event>
 7    1  0.4230786E-006  0.1334716E+03  0.7546771E-02  0.1235134E+00
          3   -1    0    0  501    0  0.00000000000E+00  0.00000000000E+00  0.14390995815E+03  0.14390995815E+03  0.00000000000E+00 0.  1.
         -3   -1    0    0    0  501 -0.00000000000E+00 -0.00000000000E+00 -0.97031290278E+02  0.97031290278E+02  0.00000000000E+00 0. -1.
         23    2    1    2    0    0 -0.87465643707E+00 -0.46787996116E+02  0.20240054616E+02  0.13499752341E+03  0.12499915965E+03 0.  0.
          5    1    3    3  502    0 -0.27508917746E+02  0.16784132242E+02  0.50084254156E+02  0.59740858422E+02  0.47000000000E+01 0. -1.
         -5    1    3    3    0  502  0.26634261309E+02 -0.63572128359E+02 -0.29844199539E+02  0.75256664992E+02  0.47000000000E+01 0. -1.
        -11    1    1    2    0    0 -0.16351063118E+02 -0.18918659265E+01 -0.26915417200E+02  0.31549581690E+02  0.00000000000E+00 0. -1.
         11    1    1    2    0    0  0.17225719555E+02  0.48679862043E+02  0.53554030451E+02  0.74394143320E+02  0.00000000000E+00 0.  1.
<mgrwt>
<rscale>  0 0.12495828E+03</rscale>
<asrwt>0</asrwt>
<pdfrwt beam="1">  1        3 0.22139994E-01 0.13347161E+03</pdfrwt>
<pdfrwt beam="2">  1       -3 0.14927891E-01 0.13347161E+03</pdfrwt>
<totfact> 0.16044539E+03</totfact>
</mgrwt>
</event>
<event>
 7    1  0.4230786E-006  0.1523212E+03  0.7546771E-02  0.1206331E+00
          2   -1    0    0  501    0  0.00000000000E+00  0.00000000000E+00  0.81579841129E+03  0.81579841129E+03  0.00000000000E+00 0.  1.
         -2   -1    0    0    0  501 -0.00000000000E+00 -0.00000000000E+00 -0.24863624116E+02  0.24863624116E+02  0.00000000000E+00 0. -1.
         23    2    1    2    0    0  0.73298635284E+01  0.86750406932E+02  0.34339353233E+03  0.37566057438E+03  0.12498955594E+03 0.  0.
          5    1    3    3  502    0 -0.62360575136E+01  0.51626894026E+01  0.25252365077E+03  0.25269710322E+03  0.47000000000E+01 0. -1.
         -5    1    3    3    0  502  0.13565921042E+02  0.81587717529E+02  0.90869881554E+02  0.12296347116E+03  0.47000000000E+01 0. -1.
        -11    1    1    2    0    0 -0.44645629963E+02 -0.74679359500E+02  0.30845516886E+03  0.32049154467E+03  0.00000000000E+00 0.  1.
         11    1    1    2    0    0  0.37315766435E+02 -0.12071047431E+02  0.13908608599E+03  0.14450991636E+03  0.00000000000E+00 0. -1.
<mgrwt>
<rscale>  0 0.14533094E+03</rscale>
<asrwt>0</asrwt>
<pdfrwt beam="1">  1        2 0.12550743E+00 0.15232120E+03</pdfrwt>
<pdfrwt beam="2">  1       -2 0.38251736E-02 0.15232120E+03</pdfrwt>
<totfact> 0.98378284E+03</totfact>
</mgrwt>
</event>
<event>
 6    1  0.4230786E-006  0.2572178E+03  0.7546771E-02  0.1133890E+00
         -2   -1    0    0    0  501 -0.00000000000E+00  0.00000000000E+00  0.13255557124E+03  0.13255557124E+03  0.00000000000E+00 0.  1.
          2   -1    0    0  501    0  0.00000000000E+00 -0.00000000000E+00 -0.29405351869E+03  0.29405351869E+03  0.00000000000E+00 0. -1.
          5    1    1    2  502    0 -0.52728060484E+02 -0.11899985631E+03 -0.16593610011E+03  0.21094571217E+03  0.47000000000E+01 0. -1.
         -5    1    1    2    0  502  0.26259816908E+02  0.18662653195E+02  0.59181647215E+02  0.67545762084E+02  0.47000000000E+01 0.  1.
        -11    1    1    2    0    0  0.45884363227E+02  0.27414120787E+02 -0.48873497452E+02  0.72426014390E+02  0.00000000000E+00 0.  1.
         11    1    1    2    0    0 -0.19416119651E+02  0.72923082329E+02 -0.58699971013E+01  0.75691601282E+02  0.00000000000E+00 0. -1.
<mgrwt>
<rscale>  0 0.21999049E+03</rscale>
<asrwt>0</asrwt>
<pdfrwt beam="2">  1        2 0.45239003E-01 0.25721778E+03</pdfrwt>
<pdfrwt beam="1">  1       -2 0.20393165E-01 0.25721778E+03</pdfrwt>
<totfact> 0.22607748E+03</totfact>
</mgrwt>
</event>
<event>
 7    1  0.4230786E-006  0.1266056E+03  0.7546771E-02  0.1248116E+00
          2   -1    0    0  501    0  0.00000000000E+00  0.00000000000E+00  0.13718024140E+03  0.13718024140E+03  0.00000000000E+00 0. -1.
         -2   -1    0    0    0  501 -0.00000000000E+00 -0.00000000000E+00 -0.87628236686E+02  0.87628236686E+02  0.00000000000E+00 0.  1.
         23    2    1    2    0    0 -0.12319838319E+01 -0.20191885076E+02  0.22748183402E+02  0.12863304322E+03  0.12497899805E+03 0.  0.
          5    1    3    3  502    0  0.61487564707E+02 -0.14177830899E+02  0.14486914779E+02  0.64912958663E+02  0.47000000000E+01 0. -1.
         -5    1    3    3    0  502 -0.62719548539E+02 -0.60140541768E+01  0.82612686230E+01  0.63720084556E+02  0.47000000000E+01 0. -1.
        -11    1    1    2    0    0  0.19772885674E+02 -0.27573402317E+02 -0.71939780173E+01  0.34684475532E+02  0.00000000000E+00 0.  1.
         11    1    1    2    0    0 -0.18540901842E+02  0.47765287393E+02  0.33997799331E+02  0.61490959337E+02  0.00000000000E+00 0. -1.
<mgrwt>
<rscale>  0 0.11700823E+03</rscale>
<asrwt>0</asrwt>
<pdfrwt beam="1">  1        2 0.21104652E-01 0.12660561E+03</pdfrwt>
<pdfrwt beam="2">  1       -2 0.13481267E-01 0.12660561E+03</pdfrwt>
<totfact> 0.99751135E+03</totfact>
</mgrwt>
</event>
<event>
 7    1  0.4230786E-006  0.1622594E+03  0.7546771E-02  0.1191987E+00
         -2   -1    0    0    0  501 -0.00000000000E+00  0.00000000000E+00  0.76671334578E+02  0.76671334578E+02  0.00000000000E+00 0.  1.
          2   -1    0    0  501    0  0.00000000000E+00 -0.00000000000E+00 -0.30388486772E+03  0.30388486772E+03  0.00000000000E+00 0. -1.
         23    2    1    2    0    0  0.34052434919E+02  0.10641744345E+03 -0.11161647974E+03  0.19694248360E+03  0.11765994518E+03 0.  0.
          5    1    3    3  502    0  0.50151783586E+01  0.11570340813E+03 -0.46495419027E+02  0.12488532602E+03  0.47000000000E+01 0. -1.
         -5    1    3    3    0  502  0.29037256560E+02 -0.92859646720E+01 -0.65121060717E+02  0.72057157571E+02  0.47000000000E+01 0.  1.
        -11    1    1    2    0    0 -0.50143807067E+02 -0.72728449737E+02 -0.35430043432E+02  0.95179392549E+02  0.00000000000E+00 0.  1.
         11    1    1    2    0    0  0.16091372148E+02 -0.33688993717E+02 -0.80167009967E+02  0.88434326154E+02  0.00000000000E+00 0. -1.
<mgrwt>
<rscale>  0 0.15711998E+03</rscale>
<asrwt>0</asrwt>
<pdfrwt beam="2">  1        2 0.46751518E-01 0.16225937E+03</pdfrwt>
<pdfrwt beam="1">  1       -2 0.11795590E-01 0.16225937E+03</pdfrwt>
<totfact> 0.53048073E+03</totfact>
</mgrwt>
</event>
<event>
 7    1  0.6954671E-006  0.3211678E+03  0.7546771E-02  0.1076223E+00
          1   -1    0    0  501    0  0.00000000000E+00  0.00000000000E+00  0.15067445931E+04  0.15067445931E+04  0.00000000000E+00 0. -1.
         -1   -1    0    0    0  501 -0.00000000000E+00 -0.00000000000E+00 -0.67519755992E+02  0.67519755992E+02  0.00000000000E+00 0.  1.
         23    2    1    2    0    0  0.26567328931E+03  0.13015935639E+03  0.82983355193E+03  0.88981597585E+03  0.12499996904E+03 0.  0.
          5    1    3    3  502    0  0.90054120816E+02 -0.12157693800E+02  0.30674294152E+03  0.31995449109E+03  0.47000000000E+01 0.  1.
         -5    1    3    3    0  502  0.17561916850E+03  0.14231705019E+03  0.52309061041E+03  0.56986148476E+03  0.47000000000E+01 0.  1.
        -11    1    1    2    0    0 -0.64583783551E+02 -0.64568310543E+01  0.21708074420E+03  0.22657626811E+03  0.00000000000E+00 0. -1.
         11    1    1    2    0    0 -0.20108950576E+03 -0.12370252534E+03  0.39231054098E+03  0.45787210514E+03  0.00000000000E+00 0.  1.
<mgrwt>
<rscale>  0 0.31875573E+03</rscale>
<asrwt>0</asrwt>
<pdfrwt beam="1">  1        1 0.23180683E+00 0.32116779E+03</pdfrwt>
<pdfrwt beam="2">  1       -1 0.10387656E-01 0.32116779E+03</pdfrwt>
<totfact> 0.40533826E+02</totfact>
</mgrwt>
</event>
<event>
 7    1  0.4230786E-006  0.1521667E+03  0.7546771E-02  0.1206810E+00
         -2   -1    0    0    0  501 -0.00000000000E+00  0.00000000000E+00  0.16190019406E+02  0.16190019406E+02  0.00000000000E+00 0.  1.
          2   -1    0    0  501    0  0.00000000000E+00 -0.00000000000E+00 -0.12051394478E+04  0.12051394478E+04  0.00000000000E+00 0. -1.
         23    2    1    2    0    0  0.81167618124E+02 -0.30694890755E+02 -0.58073798466E+03  0.60034267090E+03  0.12499742848E+03 0.  0.
          5    1    3    3  502    0 -0.16263357806E+02 -0.84173062163E+01 -0.32764056911E+03  0.32818558832E+03  0.47000000000E+01 0. -1.
         -5    1    3    3    0  502  0.97430975930E+02 -0.22277584539E+02 -0.25309741555E+03  0.27215708259E+03  0.47000000000E+01 0. -1.
        -11    1    1    2    0    0 -0.94743148016E+02  0.37448472079E+01 -0.44157332795E+03  0.45163845267E+03  0.00000000000E+00 0.  1.
         11    1    1    2    0    0  0.13575529891E+02  0.26950043547E+02 -0.16663811583E+03  0.16934834368E+03  0.00000000000E+00 0. -1.
<mgrwt>
<rscale>  0 0.14495699E+03</rscale>
<asrwt>0</asrwt>
<pdfrwt beam="2">  1        2 0.18540611E+00 0.15216674E+03</pdfrwt>
<pdfrwt beam="1">  1       -2 0.24907716E-02 0.15216674E+03</pdfrwt>
<totfact> 0.10795796E+04</totfact>
</mgrwt>
</event>
<event>
 7    1  0.4230786E-006  0.1532228E+03  0.7546771E-02  0.1205049E+00
         -2   -1    0    0    0  501 -0.00000000000E+00  0.00000000000E+00  0.17221856827E+02  0.17221856827E+02  0.00000000000E+00 0. -1.
          2   -1    0    0  501    0  0.00000000000E+00 -0.00000000000E+00 -0.11525325292E+04  0.11525325292E+04  0.00000000000E+00 0.  1.
         23    2    1    2    0    0  0.87528093424E+02 -0.13779659416E+02 -0.56859679409E+03  0.58887989976E+03  0.12500470368E+03 0.  0.
          5    1    3    3  502    0  0.44854065909E+02  0.53157078186E+02 -0.19995090244E+03  0.21175461170E+03  0.47000000000E+01 0. -1.
         -5    1    3    3    0  502  0.42674027514E+02 -0.66936737603E+02 -0.36864589164E+03  0.37712528806E+03  0.47000000000E+01 0. -1.
        -11    1    1    2    0    0  0.13193009694E+02  0.22755604003E+02 -0.12396199391E+03  0.12672193556E+03  0.00000000000E+00 0.  1.
         11    1    1    2    0    0 -0.10072110312E+03 -0.89759445868E+01 -0.44275188438E+03  0.45415255071E+03  0.00000000000E+00 0. -1.
<mgrwt>
<rscale>  0 0.14633595E+03</rscale>
<asrwt>0</asrwt>
<pdfrwt beam="2">  1        2 0.17731274E+00 0.15322279E+03</pdfrwt>
<pdfrwt beam="1">  1       -2 0.26495158E-02 0.15322279E+03</pdfrwt>
<totfact> 0.10556312E+04</totfact>
</mgrwt>
</event>
<event>
 7    1  0.4230786E-006  0.1363247E+03  0.7546771E-02  0.1229867E+00
          2   -1    0    0  501    0  0.00000000000E+00  0.00000000000E+00  0.41424863221E+03  0.41424863221E+03  0.00000000000E+00 0. -1.
         -2   -1    0    0    0  501 -0.00000000000E+00 -0.00000000000E+00 -0.37114320280E+02  0.37114320280E+02  0.00000000000E+00 0.  1.
         23    2    1    2    0    0  0.41324977489E+02  0.35373026141E+02  0.25240638271E+03  0.28686828860E+03  0.12500171290E+03 0.  0.
          5    1    3    3  502    0 -0.39502915730E+02  0.17051916493E+02  0.40471223731E+02  0.59255870237E+02  0.47000000000E+01 0. -1.
         -5    1    3    3    0  502  0.80827893219E+02  0.18321109648E+02  0.21193515898E+03  0.22761241836E+03  0.47000000000E+01 0. -1.
        -11    1    1    2    0    0  0.21913980528E+02 -0.20691902873E+02  0.80454534288E+02  0.85914547514E+02  0.00000000000E+00 0. -1.
         11    1    1    2    0    0 -0.63238958017E+02 -0.14681123268E+02  0.44273394936E+02  0.78580116382E+02  0.00000000000E+00 0.  1.
<mgrwt>
<rscale>  0 0.12838817E+03</rscale>
<asrwt>0</asrwt>
<pdfrwt beam="1">  1        2 0.63730555E-01 0.13632473E+03</pdfrwt>
<pdfrwt beam="2">  1       -2 0.57098957E-02 0.13632473E+03</pdfrwt>
<totfact> 0.11626128E+04</totfact>
</mgrwt>
</event>
<event>
 7    1  0.4230786E-006  0.1375637E+03  0.7546771E-02  0.1228219E+00
          4   -1    0    0  501    0  0.00000000000E+00  0.00000000000E+00  0.30193390828E+03  0.30193390828E+03  0.00000000000E+00 0. -1.
         -4   -1    0    0    0  501 -0.00000000000E+00 -0.00000000000E+00 -0.50310756764E+02  0.50310756764E+02  0.00000000000E+00 0.  1.
         23    2    1    2    0    0  0.46576498514E+02  0.33588024311E+02  0.12555945466E+03  0.18624968516E+03  0.12500497181E+03 0.  0.
          5    1    3    3  502    0  0.80766141247E+02 -0.31136680375E+01  0.49108469773E+02  0.94692113209E+02  0.47000000000E+01 0. -1.
         -5    1    3    3    0  502 -0.34189642733E+02  0.36701692349E+02  0.76450984884E+02  0.91557571949E+02  0.47000000000E+01 0. -1.
        -11    1    1    2    0    0  0.14064072277E+02 -0.36992646566E+02  0.81703706963E+02  0.90784083189E+02  0.00000000000E+00 0. -1.
         11    1    1    2    0    0 -0.60640570791E+02  0.34046222548E+01  0.44359989898E+02  0.75210896700E+02  0.00000000000E+00 0.  1.
<mgrwt>
<rscale>  0 0.12948688E+03</rscale>
<asrwt>0</asrwt>
<pdfrwt beam="1">  1        4 0.46451370E-01 0.13756369E+03</pdfrwt>
<pdfrwt beam="2">  1       -4 0.77401166E-02 0.13756369E+03</pdfrwt>
<totfact> 0.87179850E+02</totfact>
</mgrwt>
</event>
<event>
 7    1  0.4230786E-006  0.2132645E+03  0.7546771E-02  0.1142392E+00
          1   -1    0    0  501    0  0.00000000000E+00  0.00000000000E+00  0.48996599122E+03  0.48996599122E+03  0.00000000000E+00 0. -1.
         -1   -1    0    0    0  501 -0.00000000000E+00 -0.00000000000E+00 -0.85816614758E+02  0.85816614758E+02  0.00000000000E+00 0.  1.
         23    2    1    2    0    0 -0.73738541756E+02 -0.15627958001E+03  0.22092726138E+03  0.30706775678E+03  0.12498429007E+03 0.  0.
          5    1    3    3  502    0 -0.41691938556E+02 -0.56015015342E+02  0.92212726150E+01  0.70590520277E+02  0.47000000000E+01 0.  1.
         -5    1    3    3    0  502 -0.32046603200E+02 -0.10026456467E+03  0.21170598877E+03  0.23647723650E+03  0.47000000000E+01 0.  1.
        -11    1    1    2    0    0  0.65017263858E+02  0.11801108155E+03  0.18565012698E+03  0.22939012536E+03  0.00000000000E+00 0. -1.
         11    1    1    2    0    0  0.87212778979E+01  0.38268498462E+02 -0.24280118976E+01  0.39324723833E+02  0.00000000000E+00 0.  1.
<mgrwt>
<rscale>  0 0.20896080E+03</rscale>
<asrwt>0</asrwt>
<pdfrwt beam="1">  1        1 0.75379382E-01 0.21326451E+03</pdfrwt>
<pdfrwt beam="2">  1       -1 0.13202556E-01 0.21326451E+03</pdfrwt>
<totfact> 0.18174371E+03</totfact>
</mgrwt>
</event>
<event>
 7    1  0.4230786E-006  0.2850814E+03  0.7546771E-02  0.1094627E+00
          2   -1    0    0  501    0  0.00000000000E+00  0.00000000000E+00  0.68170406449E+03  0.68170406449E+03  0.00000000000E+00 0. -1.
         -2   -1    0    0    0  501 -0.00000000000E+00 -0.00000000000E+00 -0.12026143739E+03  0.12026143739E+03  0.00000000000E+00 0.  1.
         23    2    1    2    0    0 -0.14247712087E+03 -0.21294567505E+03  0.19604866579E+03  0.34598620808E+03  0.12500314528E+03 0.  0.
          5    1    3    3  502    0 -0.69523664674E+02 -0.56048815373E+02  0.13601349252E+03  0.16277828419E+03  0.47000000000E+01 0.  1.
         -5    1    3    3    0  502 -0.72953456191E+02 -0.15689685968E+03  0.60035173265E+02  0.18320792389E+03  0.47000000000E+01 0.  1.
        -11    1    1    2    0    0  0.10243136224E+03  0.73131779157E+02  0.14602333180E+03  0.19277773347E+03  0.00000000000E+00 0.  1.
         11    1    1    2    0    0  0.40045758629E+02  0.13981389590E+03  0.21937062951E+03  0.26320156033E+03  0.00000000000E+00 0. -1.
<mgrwt>
<rscale>  0 0.28195280E+03</rscale>
<asrwt>0</asrwt>
<pdfrwt beam="1">  1        2 0.10487755E+00 0.28508135E+03</pdfrwt>
<pdfrwt beam="2">  1       -2 0.18501760E-01 0.28508135E+03</pdfrwt>
<totfact> 0.10427037E+03</totfact>
</mgrwt>
</event>
<event>
 7    1  0.4230786E-006  0.1643839E+03  0.7546771E-02  0.1190805E+00
          1   -1    0    0  501    0  0.00000000000E+00  0.00000000000E+00  0.51490951019E+03  0.51490951019E+03  0.00000000000E+00 0. -1.
         -1   -1    0    0    0  501 -0.00000000000E+00 -0.00000000000E+00 -0.79642752534E+02  0.79642752534E+02  0.00000000000E+00 0.  1.
         23    2    1    2    0    0  0.10282886531E+03  0.28683343541E+02  0.32084750144E+02  0.16748576683E+03  0.12500216463E+03 0.  0.
          5    1    3    3  502    0  0.43158506569E+02 -0.44478965636E+02 -0.11807014493E+02  0.63265556700E+02  0.47000000000E+01 0.  1.
         -5    1    3    3    0  502  0.59670358742E+02  0.73162309177E+02  0.43891764637E+02  0.10422021013E+03  0.47000000000E+01 0.  1.
        -11    1    1    2    0    0 -0.51486487567E+02 -0.31229860575E+02  0.34151635295E+03  0.34678463335E+03  0.00000000000E+00 0. -1.
         11    1    1    2    0    0 -0.51342377743E+02  0.25465170339E+01  0.61665654561E+02  0.80281862546E+02  0.00000000000E+00 0.  1.
<mgrwt>
<rscale>  0 0.15814660E+03</rscale>
<asrwt>0</asrwt>
<pdfrwt beam="1">  1        1 0.79216846E-01 0.16438385E+03</pdfrwt>
<pdfrwt beam="2">  1       -1 0.12252731E-01 0.16438385E+03</pdfrwt>
<totfact> 0.19019963E+03</totfact>
</mgrwt>
</event>
<event>
 7    1  0.4230786E-006  0.1664909E+03  0.7546771E-02  0.1188482E+00
          4   -1    0    0  501    0  0.00000000000E+00  0.00000000000E+00  0.25331720712E+03  0.25331720712E+03  0.00000000000E+00 0. -1.
         -4   -1    0    0    0  501 -0.00000000000E+00 -0.00000000000E+00 -0.98406825661E+02  0.98406825661E+02  0.00000000000E+00 0.  1.
         23    2    1    2    0    0  0.92793370710E+02  0.59040085064E+02  0.47511583489E+02  0.17313741236E+03  0.12499148652E+03 0.  0.
          5    1    3    3  502    0  0.38510792591E+01  0.18431519703E+02  0.70050380357E+02  0.72689046755E+02  0.47000000000E+01 0.  1.
         -5    1    3    3    0  502  0.88942291451E+02  0.40608565362E+02 -0.22538796867E+02  0.10044836561E+03  0.47000000000E+01 0.  1.
        -11    1    1    2    0    0 -0.10070216596E+03 -0.44322090999E+02  0.11592815958E+03  0.15982713213E+03  0.00000000000E+00 0. -1.
         11    1    1    2    0    0  0.79087952496E+01 -0.14717994066E+02 -0.85293616093E+01  0.18759488295E+02  0.00000000000E+00 0.  1.
<mgrwt>
<rscale>  0 0.16019042E+03</rscale>
<asrwt>0</asrwt>
<pdfrwt beam="1">  1        4 0.38971878E-01 0.16649088E+03</pdfrwt>
<pdfrwt beam="2">  1       -4 0.15139512E-01 0.16649088E+03</pdfrwt>
<totfact> 0.40958472E+02</totfact>
</mgrwt>
</event>
<event>
 6    1  0.4230786E-006  0.6409629E+03  0.7546771E-02  0.1037294E+00
          2   -1    0    0  501    0  0.00000000000E+00  0.00000000000E+00  0.17463963036E+03  0.17463963036E+03  0.00000000000E+00 0. -1.
         -2   -1    0    0    0  501 -0.00000000000E+00 -0.00000000000E+00 -0.10704089812E+04  0.10704089812E+04  0.00000000000E+00 0.  1.
          5    1    1    2  502    0  0.13891589931E+02 -0.54560521975E+02  0.90918415872E+02  0.10704239895E+03  0.47000000000E+01 0. -1.
         -5    1    1    2    0  502 -0.66869583335E+02  0.29053678048E+02 -0.10146991917E+04  0.10173260033E+04  0.47000000000E+01 0.  1.
        -11    1    1    2    0    0  0.65208702255E+02  0.55094162051E+02  0.20650303938E+02  0.87829246806E+02  0.00000000000E+00 0. -1.
         11    1    1    2    0    0 -0.12230708851E+02 -0.29587318124E+02  0.73611210563E+01  0.32850962482E+02  0.00000000000E+00 0.  1.
<mgrwt>
<rscale>  0 0.41930221E+03</rscale>
<asrwt>0</asrwt>
<pdfrwt beam="1">  1        2 0.26867635E-01 0.64096286E+03</pdfrwt>
<pdfrwt beam="2">  1       -2 0.16467831E+00 0.64096286E+03</pdfrwt>
<totfact> 0.47837756E+01</totfact>
</mgrwt>
</event>
<event>
 7    1  0.4230786E-006  0.4455327E+03  0.7546771E-02  0.1029699E+00
          1   -1    0    0  501    0  0.00000000000E+00  0.00000000000E+00  0.73811806692E+03  0.73811806692E+03  0.00000000000E+00 0. -1.
         -1   -1    0    0    0  501 -0.00000000000E+00 -0.00000000000E+00 -0.27007116022E+03  0.27007116022E+03  0.00000000000E+00 0.  1.
         23    2    1    2    0    0 -0.38227982495E+03 -0.19164841860E+03  0.16006947091E+03  0.47341487501E+03  0.12502970627E+03 0.  0.
          5    1    3    3  502    0 -0.12641576146E+02 -0.71709726174E+01 -0.17934064914E+02  0.23557440015E+02  0.47000000000E+01 0.  1.
         -5    1    3    3    0  502 -0.36963824880E+03 -0.18447744598E+03  0.17800353583E+03  0.44985743500E+03  0.47000000000E+01 0.  1.
        -11    1    1    2    0    0  0.12608933576E+03  0.47695430148E+02  0.14797505651E+03  0.20017490351E+03  0.00000000000E+00 0. -1.
         11    1    1    2    0    0  0.25619048919E+03  0.14395298845E+03  0.16000237928E+03  0.33459944861E+03  0.00000000000E+00 0.  1.
<mgrwt>
<rscale>  0 0.44343177E+03</rscale>
<asrwt>0</asrwt>
<pdfrwt beam="1">  1        1 0.11355663E+00 0.44553272E+03</pdfrwt>
<pdfrwt beam="2">  1       -1 0.41549409E-01 0.44553272E+03</pdfrwt>
<totfact> 0.14850557E+02</totfact>
</mgrwt>
</event>
<event>
 7    1  0.4355032E-006  0.2660132E+03  0.7546771E-02  0.1105764E+00
          1   -1    0    0  501    0  0.00000000000E+00  0.00000000000E+00  0.15969196962E+03  0.15969196962E+03  0.00000000000E+00 0. -1.
         -1   -1    0    0    0  501 -0.00000000000E+00 -0.00000000000E+00 -0.52206508714E+03  0.52206508714E+03  0.00000000000E+00 0.  1.
         23    2    1    2    0    0 -0.12733727129E+02 -0.23447001905E+03 -0.33647389574E+03  0.42892625151E+03  0.12499883629E+03 0.  0.
          5    1    3    3  502    0  0.83552878251E+01 -0.24193427289E+03 -0.31704569626E+03  0.39892614197E+03  0.47000000000E+01 0. -1.
         -5    1    3    3    0  502 -0.21089014954E+02  0.74642538305E+01 -0.19428199483E+02  0.30000109535E+02  0.47000000000E+01 0. -1.
        -11    1    1    2    0    0 -0.37827057880E+02  0.13003118703E+03 -0.11554169220E+02  0.13591355611E+03  0.00000000000E+00 0. -1.
         11    1    1    2    0    0  0.50560785009E+02  0.10443883202E+03 -0.14345052553E+02  0.11691724915E+03  0.00000000000E+00 0.  1.
<mgrwt>
<rscale>  0 0.26230845E+03</rscale>
<asrwt>0</asrwt>
<pdfrwt beam="1">  1        1 0.24567995E-01 0.26601325E+03</pdfrwt>
<pdfrwt beam="2">  1       -1 0.80317707E-01 0.26601325E+03</pdfrwt>
<totfact> 0.31806871E+02</totfact>
</mgrwt>
</event>
<event>
 7    1  0.4230786E-006  0.1266918E+03  0.7546771E-02  0.1247024E+00
         -1   -1    0    0    0  501 -0.00000000000E+00  0.00000000000E+00  0.46567684245E+03  0.46567684245E+03  0.00000000000E+00 0.  1.
          1   -1    0    0  501    0  0.00000000000E+00 -0.00000000000E+00 -0.26718945326E+02  0.26718945326E+02  0.00000000000E+00 0. -1.
         23    2    1    2    0    0 -0.76123571823E+01  0.25412276744E+01  0.28509565373E+03  0.31197812441E+03  0.12643738575E+03 0.  0.
          5    1    3    3  502    0  0.21329507629E+02 -0.40416394801E+02  0.38447810659E+02  0.59906235142E+02  0.47000000000E+01 0. -1.
         -5    1    3    3    0  502 -0.28941864811E+02  0.42957622475E+02  0.24664784308E+03  0.25207188927E+03  0.47000000000E+01 0.  1.
        -11    1    1    2    0    0 -0.29705756631E+02 -0.12304895101E+01  0.13565369560E+03  0.13887357996E+03  0.00000000000E+00 0.  1.
         11    1    1    2    0    0  0.37318113814E+02 -0.13107381643E+01  0.18208547793E+02  0.41544083404E+02  0.00000000000E+00 0. -1.
<mgrwt>
<rscale>  0 0.11765066E+03</rscale>
<asrwt>0</asrwt>
<pdfrwt beam="2">  1        1 0.41106073E-02 0.12669182E+03</pdfrwt>
<pdfrwt beam="1">  1       -1 0.71642585E-01 0.12669182E+03</pdfrwt>
<totfact> 0.42667022E+03</totfact>
</mgrwt>
</event>
<event>
 7    1  0.4230786E-006  0.1525453E+03  0.7546771E-02  0.1206177E+00
          3   -1    0    0  501    0  0.00000000000E+00  0.00000000000E+00  0.79561875463E+02  0.79561875463E+02  0.00000000000E+00 0. -1.
         -3   -1    0    0    0  501 -0.00000000000E+00 -0.00000000000E+00 -0.28571536106E+03  0.28571536106E+03  0.00000000000E+00 0.  1.
         23    2    1    2    0    0 -0.19229880486E+02  0.85296368078E+02 -0.18099305542E+03  0.23670353671E+03  0.12499927788E+03 0.  0.
          5    1    3    3  502    0 -0.48288742982E+02  0.74221831077E+02 -0.49606251451E+02  0.10160488714E+03  0.47000000000E+01 0. -1.
         -5    1    3    3    0  502  0.29058862497E+02  0.11074537001E+02 -0.13138680397E+03  0.13509864957E+03  0.47000000000E+01 0. -1.
        -11    1    1    2    0    0 -0.29288139243E+02 -0.10387338460E+02 -0.24088250363E+02  0.39318388905E+02  0.00000000000E+00 0.  1.
         11    1    1    2    0    0  0.48518019728E+02 -0.74909029618E+02 -0.10721798211E+01  0.89255310914E+02  0.00000000000E+00 0. -1.
<mgrwt>
<rscale>  0 0.14545127E+03</rscale>
<asrwt>0</asrwt>
<pdfrwt beam="1">  1        3 0.12240289E-01 0.15254533E+03</pdfrwt>
<pdfrwt beam="2">  1       -3 0.43956209E-01 0.15254533E+03</pdfrwt>
<totfact> 0.63872624E+02</totfact>
</mgrwt>
</event>
<event>
 7    1  0.4230786E-006  0.1839495E+03  0.7546771E-02  0.1168310E+00
          2   -1    0    0  501    0  0.00000000000E+00  0.00000000000E+00  0.76128514913E+02  0.76128514913E+02  0.00000000000E+00 0. -1.
         -2   -1    0    0    0  501 -0.00000000000E+00 -0.00000000000E+00 -0.42272138197E+03  0.42272138197E+03  0.00000000000E+00 0.  1.
         23    2    1    2    0    0  0.83381980447E+02 -0.10611430176E+03 -0.23417645973E+03  0.29778521289E+03  0.12499847608E+03 0.  0.
          5    1    3    3  502    0 -0.29685072652E+02 -0.23907730144E+02 -0.85099603800E+02  0.93363888447E+02  0.47000000000E+01 0. -1.
         -5    1    3    3    0  502  0.11306705310E+03 -0.82206571617E+02 -0.14907685593E+03  0.20442132444E+03  0.47000000000E+01 0. -1.
        -11    1    1    2    0    0 -0.85170050281E+02  0.74853470671E+02 -0.12367793454E+03  0.16778918627E+03  0.00000000000E+00 0.  1.
         11    1    1    2    0    0  0.17880698347E+01  0.31260831090E+02  0.11261527205E+02  0.33275497730E+02  0.00000000000E+00 0. -1.
<mgrwt>
<rscale>  0 0.17947715E+03</rscale>
<asrwt>0</asrwt>
<pdfrwt beam="1">  1        2 0.11712079E-01 0.18394950E+03</pdfrwt>
<pdfrwt beam="2">  1       -2 0.65034059E-01 0.18394950E+03</pdfrwt>
<totfact> 0.11597460E+03</totfact>
</mgrwt>
</event>
<event>
 7    1  0.4230786E-006  0.1292832E+03  0.7546771E-02  0.1243248E+00
         -1   -1    0    0    0  501 -0.00000000000E+00  0.00000000000E+00  0.68766288029E+02  0.68766288029E+02  0.00000000000E+00 0.  1.
          1   -1    0    0  501    0  0.00000000000E+00 -0.00000000000E+00 -0.23852223764E+03  0.23852223764E+03  0.00000000000E+00 0. -1.
         23    2    1    2    0    0  0.26448675067E+02 -0.19746950741E+02 -0.21818262954E+02  0.13111133324E+03  0.12499868251E+03 0.  0.
          5    1    3    3  502    0 -0.27063423379E+02 -0.56406798598E+02 -0.73414322915E+00  0.62743802717E+02  0.47000000000E+01 0. -1.
         -5    1    3    3    0  502  0.53512098447E+02  0.36659847857E+02 -0.21084119724E+02  0.68367530522E+02  0.47000000000E+01 0. -1.
        -11    1    1    2    0    0 -0.34253250779E+02 -0.29674631057E+02 -0.77490354994E+02  0.89769839224E+02  0.00000000000E+00 0.  1.
         11    1    1    2    0    0  0.78045757119E+01  0.49421581798E+02 -0.70447331663E+02  0.86407353205E+02  0.00000000000E+00 0. -1.
<mgrwt>
<rscale>  0 0.11990880E+03</rscale>
<asrwt>0</asrwt>
<pdfrwt beam="2">  1        1 0.36695729E-01 0.12928320E+03</pdfrwt>
<pdfrwt beam="1">  1       -1 0.10579429E-01 0.12928320E+03</pdfrwt>
<totfact> 0.62162729E+03</totfact>
</mgrwt>
</event>
<event>
 6    1  0.4230786E-006  0.1999129E+03  0.7546771E-02  0.1164128E+00
         -3   -1    0    0    0  501 -0.00000000000E+00  0.00000000000E+00  0.48941268649E+02  0.48941268649E+02  0.00000000000E+00 0.  1.
          3   -1    0    0  501    0  0.00000000000E+00 -0.00000000000E+00 -0.65975375593E+03  0.65975375593E+03  0.00000000000E+00 0. -1.
          5    1    1    2  502    0 -0.24341015503E+02 -0.25236503174E+02 -0.20814975048E+03  0.21113449447E+03  0.47000000000E+01 0. -1.
         -5    1    1    2    0  502  0.60260404213E+02 -0.78701155980E+02 -0.38699324935E+02  0.10651251579E+03  0.47000000000E+01 0.  1.
        -11    1    1    2    0    0 -0.29941930539E+02  0.49194389254E+02 -0.64103710395E+02  0.86173620238E+02  0.00000000000E+00 0.  1.
         11    1    1    2    0    0 -0.59774581709E+01  0.54743269900E+02 -0.29985970147E+03  0.30487439409E+03  0.00000000000E+00 0. -1.
<mgrwt>
<rscale>  0 0.18385061E+03</rscale>
<asrwt>0</asrwt>
<pdfrwt beam="2">  1        3 0.10150056E+00 0.19991287E+03</pdfrwt>
<pdfrwt beam="1">  1       -3 0.75294272E-02 0.19991287E+03</pdfrwt>
<totfact> 0.25216448E+02</totfact>
</mgrwt>
</event>
<event>
 7    1  0.4230786E-006  0.1406267E+03  0.7546771E-02  0.1222302E+00
          1   -1    0    0  501    0  0.00000000000E+00  0.00000000000E+00  0.14095362136E+03  0.14095362136E+03  0.00000000000E+00 0. -1.
         -1   -1    0    0    0  501 -0.00000000000E+00 -0.00000000000E+00 -0.13090897787E+03  0.13090897787E+03  0.00000000000E+00 0.  1.
         23    2    1    2    0    0  0.40277628085E+02  0.50276796094E+02 -0.41242382977E+02  0.14654965495E+03  0.12500329460E+03 0.  0.
          5    1    3    3  502    0  0.57365827070E+02  0.83773562695E+02 -0.21782956412E+02  0.10394919486E+03  0.47000000000E+01 0. -1.
         -5    1    3    3    0  502 -0.17088198985E+02 -0.33496766601E+02 -0.19459426564E+02  0.42600460085E+02  0.47000000000E+01 0. -1.
        -11    1    1    2    0    0  0.31020656224E+02 -0.16494831524E+02  0.20094323931E+02  0.40473972301E+02  0.00000000000E+00 0.  1.
         11    1    1    2    0    0 -0.71298284309E+02 -0.33781964570E+02  0.31192702536E+02  0.84838971983E+02  0.00000000000E+00 0. -1.
<mgrwt>
<rscale>  0 0.13353577E+03</rscale>
<asrwt>0</asrwt>
<pdfrwt beam="1">  1        1 0.21685173E-01 0.14062669E+03</pdfrwt>
<pdfrwt beam="2">  1       -1 0.20139843E-01 0.14062669E+03</pdfrwt>
<totfact> 0.43989275E+03</totfact>
</mgrwt>
</event>
<event>
 6    1  0.4230786E-006  0.3272072E+03  0.7546771E-02  0.1119292E+00
          1   -1    0    0  501    0  0.00000000000E+00  0.00000000000E+00  0.10425729691E+03  0.10425729691E+03  0.00000000000E+00 0. -1.
         -1   -1    0    0    0  501 -0.00000000000E+00 -0.00000000000E+00 -0.45232506760E+03  0.45232506760E+03  0.00000000000E+00 0.  1.
          5    1    1    2  502    0  0.94096533547E+02  0.11276252188E+02  0.23522765671E+02  0.97758488091E+02  0.47000000000E+01 0. -1.
         -5    1    1    2    0  502 -0.10921286127E+03  0.63021407075E+01 -0.34102267035E+03  0.35816995650E+03  0.47000000000E+01 0.  1.
        -11    1    1    2    0    0  0.46147971828E+02 -0.37122451905E+02 -0.19074043104E+02  0.62221626945E+02  0.00000000000E+00 0. -1.
         11    1    1    2    0    0 -0.31031644103E+02  0.19544059010E+02 -0.11493822902E+02  0.38432292974E+02  0.00000000000E+00 0.  1.
<mgrwt>
<rscale>  0 0.24075307E+03</rscale>
<asrwt>0</asrwt>
<pdfrwt beam="1">  1        1 0.16039585E-01 0.32720721E+03</pdfrwt>
<pdfrwt beam="2">  1       -1 0.69588470E-01 0.32720721E+03</pdfrwt>
<totfact> 0.74122280E+02</totfact>
</mgrwt>
</event>
<event>
 7    1  0.4230786E-006  0.1742940E+03  0.7546771E-02  0.1179561E+00
          2   -1    0    0  501    0  0.00000000000E+00  0.00000000000E+00  0.63989619389E+03  0.63989619389E+03  0.00000000000E+00 0. -1.
         -2   -1    0    0    0  501 -0.00000000000E+00 -0.00000000000E+00 -0.46297155893E+02  0.46297155893E+02  0.00000000000E+00 0.  1.
         23    2    1    2    0    0  0.21756700058E+02  0.11949810114E+03  0.20541875668E+03  0.26939797839E+03  0.12500101997E+03 0.  0.
          5    1    3    3  502    0  0.21960459456E+02 -0.16495101148E+02  0.68768502837E+01  0.28700717956E+02  0.47000000000E+01 0.  1.
         -5    1    3    3    0  502 -0.20375939801E+00  0.13599320229E+03  0.19854190639E+03  0.24069726044E+03  0.47000000000E+01 0.  1.
        -11    1    1    2    0    0 -0.39449844804E+02 -0.57000900316E+02  0.10193154121E+03  0.12326975292E+03  0.00000000000E+00 0.  1.
         11    1    1    2    0    0  0.17693144746E+02 -0.62497200829E+02  0.28624874010E+03  0.29352561846E+03  0.00000000000E+00 0. -1.
<mgrwt>
<rscale>  0 0.16836782E+03</rscale>
<asrwt>0</asrwt>
<pdfrwt beam="1">  1        2 0.98445562E-01 0.17429402E+03</pdfrwt>
<pdfrwt beam="2">  1       -2 0.71226398E-02 0.17429402E+03</pdfrwt>
<totfact> 0.51890308E+03</totfact>
</mgrwt>
</event>
<event>
 7    1  0.4230786E-006  0.1439433E+03  0.7546771E-02  0.1218369E+00
          1   -1    0    0  501    0  0.00000000000E+00  0.00000000000E+00  0.64314808788E+03  0.64314808788E+03  0.00000000000E+00 0. -1.
         -1   -1    0    0    0  501 -0.00000000000E+00 -0.00000000000E+00 -0.28174798307E+02  0.28174798307E+02  0.00000000000E+00 0.  1.
         23    2    1    2    0    0 -0.69326146577E+02  0.16971068560E+02  0.25063646749E+03  0.28902996758E+03  0.12500220620E+03 0.  0.
          5    1    3    3  502    0 -0.74848359345E+02  0.61964749223E+02  0.18653216498E+03  0.21037643788E+03  0.47000000000E+01 0.  1.
         -5    1    3    3    0  502  0.55222127678E+01 -0.44993680663E+02  0.64104302515E+02  0.78653529701E+02  0.47000000000E+01 0.  1.
        -11    1    1    2    0    0  0.81548225428E+01 -0.41033579323E+02  0.78038101969E+02  0.88544910196E+02  0.00000000000E+00 0. -1.
         11    1    1    2    0    0  0.61171324035E+02  0.24062510763E+02  0.28629872012E+03  0.29374800842E+03  0.00000000000E+00 0.  1.
<mgrwt>
<rscale>  0 0.13631961E+03</rscale>
<asrwt>0</asrwt>
<pdfrwt beam="1">  1        1 0.98945849E-01 0.14394333E+03</pdfrwt>
<pdfrwt beam="2">  1       -1 0.43345848E-02 0.14394333E+03</pdfrwt>
<totfact> 0.67168513E+03</totfact>
</mgrwt>
</event>
<event>
 7    1  0.4230786E-006  0.1655050E+03  0.7546771E-02  0.1188990E+00
         -1   -1    0    0    0  501 -0.00000000000E+00  0.00000000000E+00  0.38749036276E+02  0.38749036276E+02  0.00000000000E+00 0.  1.
          1   -1    0    0  501    0  0.00000000000E+00 -0.00000000000E+00 -0.79480035612E+03  0.79480035612E+03  0.00000000000E+00 0. -1.
         23    2    1    2    0    0 -0.91694914320E+02 -0.57951579375E+02 -0.20178554334E+03  0.26097759600E+03  0.12500222896E+03 0.  0.
          5    1    3    3  502    0 -0.28290629882E+02  0.16009778053E+02  0.41578710762E+01  0.33106655287E+02  0.47000000000E+01 0.  1.
         -5    1    3    3    0  502 -0.63404284438E+02 -0.73961357428E+02 -0.20594341442E+03  0.22787094071E+03  0.47000000000E+01 0.  1.
        -11    1    1    2    0    0  0.94234025030E+02  0.29162610993E+02 -0.51170361112E+03  0.52112483627E+03  0.00000000000E+00 0.  1.
         11    1    1    2    0    0 -0.25391107105E+01  0.28788968382E+02 -0.42562165380E+02  0.51446960120E+02  0.00000000000E+00 0. -1.
<mgrwt>
<rscale>  0 0.15974056E+03</rscale>
<asrwt>0</asrwt>
<pdfrwt beam="2">  1        1 0.12227698E+00 0.16550499E+03</pdfrwt>
<pdfrwt beam="1">  1       -1 0.59613903E-02 0.16550499E+03</pdfrwt>
<totfact> 0.30966401E+03</totfact>
</mgrwt>
</event>
<event>
 7    1  0.4230786E-006  0.1337954E+03  0.7546771E-02  0.1234817E+00
          1   -1    0    0  501    0  0.00000000000E+00  0.00000000000E+00  0.38102927625E+03  0.38102927625E+03  0.00000000000E+00 0.  1.
         -1   -1    0    0    0  501 -0.00000000000E+00 -0.00000000000E+00 -0.69392848603E+02  0.69392848603E+02  0.00000000000E+00 0. -1.
         23    2    1    2    0    0  0.44391704405E+02  0.17474448542E+02  0.12679928227E+02  0.13439488185E+03  0.12500089566E+03 0.  0.
          5    1    3    3  502    0  0.56728071466E+02  0.54057106060E+01 -0.45787811348E+02  0.73252368340E+02  0.47000000000E+01 0.  1.
         -5    1    3    3    0  502 -0.12336367061E+02  0.12068737936E+02  0.58467739575E+02  0.61142513513E+02  0.47000000000E+01 0.  1.
        -11    1    1    2    0    0  0.10058908461E+02 -0.21151145303E+02  0.17262748823E+02  0.29095619670E+02  0.00000000000E+00 0. -1.
         11    1    1    2    0    0 -0.54450612866E+02  0.36766967611E+01  0.28169375059E+03  0.28693162332E+03  0.00000000000E+00 0.  1.
<mgrwt>
<rscale>  0 0.12516138E+03</rscale>
<asrwt>0</asrwt>
<pdfrwt beam="1">  1        1 0.58619887E-01 0.13379538E+03</pdfrwt>
<pdfrwt beam="2">  1       -1 0.10675823E-01 0.13379538E+03</pdfrwt>
<totfact> 0.34369949E+03</totfact>
</mgrwt>
</event>
<event>
 7    1  0.4230786E-006  0.1125499E+03  0.7546771E-02  0.1263375E+00
         -4   -1    0    0    0  501 -0.00000000000E+00  0.00000000000E+00  0.63029386596E+02  0.63029386596E+02  0.00000000000E+00 0.  1.
          4   -1    0    0  501    0  0.00000000000E+00 -0.00000000000E+00 -0.17921030275E+03  0.17921030275E+03  0.00000000000E+00 0. -1.
         23    2    1    2    0    0 -0.13142891154E+02 -0.19612789514E+02 -0.42651752720E+02  0.12036050520E+03  0.11004581819E+03 0.  0.
          5    1    3    3  502    0 -0.27146909968E+02 -0.61335761730E+02 -0.33667373243E+02  0.75197156920E+02  0.47000000000E+01 0. -1.
         -5    1    3    3    0  502  0.14004018814E+02  0.41722972215E+02 -0.89843794767E+01  0.45163348281E+02  0.47000000000E+01 0.  1.
        -11    1    1    2    0    0 -0.31489567561E+02  0.29719341125E+02 -0.11508141478E+02  0.44802560444E+02  0.00000000000E+00 0. -1.
         11    1    1    2    0    0  0.44632458715E+02 -0.10106551611E+02 -0.62021021955E+02  0.77076623698E+02  0.00000000000E+00 0.  1.
<mgrwt>
<rscale>  0 0.10849914E+03</rscale>
<asrwt>0</asrwt>
<pdfrwt beam="2">  1        4 0.27570815E-01 0.11254990E+03</pdfrwt>
<pdfrwt beam="1">  1       -4 0.96968289E-02 0.11254990E+03</pdfrwt>
<totfact> 0.15725956E+03</totfact>
</mgrwt>
</event>
<event>
 7    1  0.4230786E-006  0.1253014E+03  0.7546771E-02  0.1250423E+00
          1   -1    0    0  501    0  0.00000000000E+00  0.00000000000E+00  0.29724409933E+03  0.29724409933E+03  0.00000000000E+00 0. -1.
         -1   -1    0    0    0  501 -0.00000000000E+00 -0.00000000000E+00 -0.52755247531E+02  0.52755247531E+02  0.00000000000E+00 0.  1.
         23    2    1    2    0    0 -0.13980611586E+01  0.85283914079E+01  0.49306354473E+02  0.13465343648E+03  0.12500297328E+03 0.  0.
          5    1    3    3  502    0  0.42993521821E+02  0.48694902767E+02  0.28624254976E+02  0.71141228883E+02  0.47000000000E+01 0. -1.
         -5    1    3    3    0  502 -0.44391582979E+02 -0.40166511359E+02  0.20682099496E+02  0.63512207596E+02  0.47000000000E+01 0. -1.
        -11    1    1    2    0    0  0.22400839329E+02  0.34652880238E+02  0.69816474988E+02  0.81098458007E+02  0.00000000000E+00 0.  1.
         11    1    1    2    0    0 -0.21002778171E+02 -0.43181271646E+02  0.12536602234E+03  0.13424745237E+03  0.00000000000E+00 0. -1.
<mgrwt>
<rscale>  0 0.11566588E+03</rscale>
<asrwt>0</asrwt>
<pdfrwt beam="1">  1        1 0.45729860E-01 0.12530136E+03</pdfrwt>
<pdfrwt beam="2">  1       -1 0.81161921E-02 0.12530136E+03</pdfrwt>
<totfact> 0.70690118E+03</totfact>
</mgrwt>
</event>
<event>
 7    1  0.4230786E-006  0.1190649E+03  0.7546771E-02  0.1254035E+00
          1   -1    0    0  501    0  0.00000000000E+00  0.00000000000E+00  0.13125522796E+03  0.13125522796E+03  0.00000000000E+00 0. -1.
         -1   -1    0    0    0  501 -0.00000000000E+00 -0.00000000000E+00 -0.10177779876E+03  0.10177779876E+03  0.00000000000E+00 0.  1.
         23    2    1    2    0    0 -0.38240668777E+02 -0.19475709743E+02 -0.22997515561E+02  0.12126560335E+03  0.11106218445E+03 0.  0.
          5    1    3    3  502    0 -0.40417513114E+02  0.41319289722E+02 -0.93028575186E+01  0.58732378016E+02  0.47000000000E+01 0. -1.
         -5    1    3    3    0  502  0.21768443370E+01 -0.60794999464E+02 -0.13694658042E+02  0.62533225329E+02  0.47000000000E+01 0.  1.
        -11    1    1    2    0    0 -0.21941885631E+02  0.28971072522E+02  0.28922480812E+02  0.46446520693E+02  0.00000000000E+00 0. -1.
         11    1    1    2    0    0  0.60182554408E+02 -0.94953627788E+01  0.23552463951E+02  0.65320902685E+02  0.00000000000E+00 0.  1.
<mgrwt>
<rscale>  0 0.11360528E+03</rscale>
<asrwt>0</asrwt>
<pdfrwt beam="1">  1        1 0.20193112E-01 0.11906494E+03</pdfrwt>
<pdfrwt beam="2">  1       -1 0.15658123E-01 0.11906494E+03</pdfrwt>
<totfact> 0.70987831E+03</totfact>
</mgrwt>
</event>
<event>
 7    1  0.4230786E-006  0.1931217E+03  0.7546771E-02  0.1160196E+00
         -1   -1    0    0    0  501 -0.00000000000E+00  0.00000000000E+00  0.59789871936E+02  0.59789871936E+02  0.00000000000E+00 0.  1.
          1   -1    0    0  501    0  0.00000000000E+00 -0.00000000000E+00 -0.57634748199E+03  0.57634748199E+03  0.00000000000E+00 0. -1.
         23    2    1    2    0    0 -0.25940705187E+02  0.14489482816E+03 -0.22294417452E+03  0.29495777120E+03  0.12501420089E+03 0.  0.
          5    1    3    3  502    0 -0.63478981602E+02  0.13715620933E+03 -0.19740743955E+03  0.24866281196E+03  0.47000000000E+01 0. -1.
         -5    1    3    3    0  502  0.37538276415E+02  0.77386188280E+01 -0.25536734971E+02  0.46294959235E+02  0.47000000000E+01 0. -1.
        -11    1    1    2    0    0  0.98673527851E+00 -0.11093170555E+03 -0.12388014081E+03  0.16629223142E+03  0.00000000000E+00 0.  1.
         11    1    1    2    0    0  0.24953969909E+02 -0.33963122603E+02 -0.16973329472E+03  0.17488735131E+03  0.00000000000E+00 0. -1.
<mgrwt>
<rscale>  0 0.18808949E+03</rscale>
<asrwt>0</asrwt>
<pdfrwt beam="2">  1        1 0.88668842E-01 0.19312168E+03</pdfrwt>
<pdfrwt beam="1">  1       -1 0.91984420E-02 0.19312168E+03</pdfrwt>
<totfact> 0.25546118E+03</totfact>
</mgrwt>
</event>
<event>
 7    1  0.4230786E-006  0.1254352E+03  0.7546771E-02  0.1247576E+00
         -1   -1    0    0    0  501 -0.00000000000E+00  0.00000000000E+00  0.81468625526E+03  0.81468625526E+03  0.00000000000E+00 0.  1.
          1   -1    0    0  501    0  0.00000000000E+00 -0.00000000000E+00 -0.16245694771E+02  0.16245694771E+02  0.00000000000E+00 0. -1.
         23    2    1    2    0    0 -0.47001049100E+01  0.93461969759E+01  0.56024437271E+03  0.57411475436E+03  0.12499820652E+03 0.  0.
          5    1    3    3  502    0 -0.54151280924E+02  0.19797713626E+02  0.43720493980E+03  0.44101537397E+03  0.47000000000E+01 0.  1.
         -5    1    3    3    0  502  0.49451176013E+02 -0.10451516650E+02  0.12303943291E+03  0.13309938039E+03  0.47000000000E+01 0.  1.
        -11    1    1    2    0    0 -0.29441610971E+02  0.13705716946E+02  0.28796628582E+02  0.43403927832E+02  0.00000000000E+00 0. -1.
         11    1    1    2    0    0  0.34141715881E+02 -0.23051913922E+02  0.20939955920E+03  0.21341326784E+03  0.00000000000E+00 0.  1.
<mgrwt>
<rscale>  0 0.11732542E+03</rscale>
<asrwt>0</asrwt>
<pdfrwt beam="2">  1        1 0.24993383E-02 0.12543522E+03</pdfrwt>
<pdfrwt beam="1">  1       -1 0.12533631E+00 0.12543522E+03</pdfrwt>
<totfact> 0.25256188E+03</totfact>
</mgrwt>
</event>
<event>
 7    1  0.4230786E-006  0.1455256E+03  0.7546771E-02  0.1214697E+00
          2   -1    0    0  501    0  0.00000000000E+00  0.00000000000E+00  0.12237796542E+03  0.12237796542E+03  0.00000000000E+00 0. -1.
         -2   -1    0    0    0  501 -0.00000000000E+00 -0.00000000000E+00 -0.23632608698E+03  0.23632608698E+03  0.00000000000E+00 0.  1.
         23    2    1    2    0    0 -0.33361698802E+02 -0.70375297005E+02 -0.17126021458E+03  0.22473929269E+03  0.12293088792E+03 0.  0.
          5    1    3    3  502    0  0.25720647593E+02 -0.71199277697E+02 -0.53235323518E+02  0.92665951284E+02  0.47000000000E+01 0. -1.
         -5    1    3    3    0  502 -0.59082346396E+02  0.82398069167E+00 -0.11802489106E+03  0.13207334141E+03  0.47000000000E+01 0.  1.
        -11    1    1    2    0    0  0.49539676689E+02  0.12648296626E+01  0.17323296728E+02  0.52496437689E+02  0.00000000000E+00 0. -1.
         11    1    1    2    0    0 -0.16177977886E+02  0.69110467343E+02  0.39988796290E+02  0.81468322025E+02  0.00000000000E+00 0.  1.
<mgrwt>
<rscale>  0 0.13898828E+03</rscale>
<asrwt>0</asrwt>
<pdfrwt beam="1">  1        2 0.18827380E-01 0.14552556E+03</pdfrwt>
<pdfrwt beam="2">  1       -2 0.36357859E-01 0.14552556E+03</pdfrwt>
<totfact> 0.20722932E+03</totfact>
</mgrwt>
</event>
<event>
 6    1  0.4230786E-006  0.2130299E+03  0.7546771E-02  0.1171043E+00
          2   -1    0    0  501    0  0.00000000000E+00  0.00000000000E+00  0.65440557494E+02  0.65440557494E+02  0.00000000000E+00 0. -1.
         -2   -1    0    0    0  501 -0.00000000000E+00 -0.00000000000E+00 -0.47699193465E+03  0.47699193465E+03  0.00000000000E+00 0.  1.
          5    1    1    2  502    0  0.36306325869E+02  0.74626769281E+02 -0.48477937522E+02  0.96226318738E+02  0.47000000000E+01 0. -1.
         -5    1    1    2    0  502  0.78625906448E+01 -0.71205169181E+02 -0.33349753949E+03  0.34113735546E+03  0.47000000000E+01 0.  1.
        -11    1    1    2    0    0 -0.39928058593E+02 -0.44090274099E+02 -0.22366659960E+02  0.63548954444E+02  0.00000000000E+00 0. -1.
         11    1    1    2    0    0 -0.42408579210E+01  0.40668673999E+02 -0.72092401851E+01  0.41519863497E+02  0.00000000000E+00 0.  1.
<mgrwt>
<rscale>  0 0.17669217E+03</rscale>
<asrwt>0</asrwt>
<pdfrwt beam="1">  1        2 0.10067778E-01 0.21302985E+03</pdfrwt>
<pdfrwt beam="2">  1       -2 0.73383375E-01 0.21302985E+03</pdfrwt>
<totfact> 0.10848033E+03</totfact>
</mgrwt>
</event>
<event>
 7    1  0.4230786E-006  0.1521346E+03  0.7546771E-02  0.1206939E+00
         -2   -1    0    0    0  501 -0.00000000000E+00  0.00000000000E+00  0.78657088419E+02  0.78657088419E+02  0.00000000000E+00 0.  1.
          2   -1    0    0  501    0  0.00000000000E+00 -0.00000000000E+00 -0.30610901722E+03  0.30610901722E+03  0.00000000000E+00 0. -1.
         23    2    1    2    0    0 -0.82327626722E+02 -0.27229942642E+02 -0.36398990713E+02  0.15642835549E+03  0.12500254388E+03 0.  0.
          5    1    3    3  502    0  0.20952390616E+02 -0.36328021115E+02  0.89968512792E+01  0.43148130013E+02  0.47000000000E+01 0.  1.
         -5    1    3    3    0  502 -0.10328001734E+03  0.90980784726E+01 -0.45395841992E+02  0.11328022547E+03  0.47000000000E+01 0.  1.
        -11    1    1    2    0    0  0.57921629927E+02 -0.18609869350E+02 -0.15087121360E+03  0.16267564521E+03  0.00000000000E+00 0. -1.
         11    1    1    2    0    0  0.24405996795E+02  0.45839811992E+02 -0.40181724492E+02  0.65662104948E+02  0.00000000000E+00 0.  1.
<mgrwt>
<rscale>  0 0.14485714E+03</rscale>
<asrwt>0</asrwt>
<pdfrwt beam="2">  1        2 0.47093695E-01 0.15213462E+03</pdfrwt>
<pdfrwt beam="1">  1       -2 0.12101090E-01 0.15213462E+03</pdfrwt>
<totfact> 0.50345346E+03</totfact>
</mgrwt>
</event>
<event>
 7    1  0.4230786E-006  0.1254805E+03  0.7546771E-02  0.1248372E+00
          2   -1    0    0  501    0  0.00000000000E+00  0.00000000000E+00  0.72238677877E+03  0.72238677877E+03  0.00000000000E+00 0. -1.
         -2   -1    0    0    0  501 -0.00000000000E+00 -0.00000000000E+00 -0.16949406927E+02  0.16949406927E+02  0.00000000000E+00 0.  1.
         23    2    1    2    0    0  0.89152550559E+01 -0.56839185944E+01  0.36027195815E+03  0.38149869000E+03  0.12503430706E+03 0.  0.
          5    1    3    3  502    0  0.48734350386E+02  0.39646662998E+02  0.21723507185E+03  0.22618589973E+03  0.47000000000E+01 0.  1.
         -5    1    3    3    0  502 -0.39819095330E+02 -0.45330581593E+02  0.14303688629E+03  0.15531279027E+03  0.47000000000E+01 0.  1.
        -11    1    1    2    0    0 -0.27937457399E+02 -0.33101440511E+02  0.10124899768E+03  0.11012523063E+03  0.00000000000E+00 0.  1.
         11    1    1    2    0    0  0.19022202343E+02  0.38785359105E+02  0.24391641601E+03  0.24771226506E+03  0.00000000000E+00 0. -1.
<mgrwt>
<rscale>  0 0.11685786E+03</rscale>
<asrwt>0</asrwt>
<pdfrwt beam="1">  1        2 0.11113640E+00 0.12548054E+03</pdfrwt>
<pdfrwt beam="2">  1       -2 0.26076016E-02 0.12548054E+03</pdfrwt>
<totfact> 0.19814004E+04</totfact>
</mgrwt>
</event>
<event>
 7    1  0.4230786E-006  0.1356269E+03  0.7546771E-02  0.1232147E+00
         -1   -1    0    0    0  501 -0.00000000000E+00  0.00000000000E+00  0.31308405257E+02  0.31308405257E+02  0.00000000000E+00 0.  1.
          1   -1    0    0  501    0  0.00000000000E+00 -0.00000000000E+00 -0.46051791855E+03  0.46051791855E+03  0.00000000000E+00 0. -1.
         23    2    1    2    0    0  0.12777720589E+02  0.51046281085E+02 -0.22543448378E+03  0.26308810334E+03  0.12500260272E+03 0.  0.
          5    1    3    3  502    0  0.67362157217E+02  0.43497044948E+02 -0.13342829697E+03  0.15573969814E+03  0.47000000000E+01 0.  1.
         -5    1    3    3    0  502 -0.54584436628E+02  0.75492361377E+01 -0.92006186803E+02  0.10734840520E+03  0.47000000000E+01 0.  1.
        -11    1    1    2    0    0 -0.10167917950E+02 -0.71580413356E+02 -0.10289092841E+03  0.12575247624E+03  0.00000000000E+00 0. -1.
         11    1    1    2    0    0 -0.26098026384E+01  0.20534132270E+02 -0.10088410111E+03  0.10298574423E+03  0.00000000000E+00 0.  1.
<mgrwt>
<rscale>  0 0.12688834E+03</rscale>
<asrwt>0</asrwt>
<pdfrwt beam="2">  1        1 0.70848903E-01 0.13562685E+03</pdfrwt>
<pdfrwt beam="1">  1       -1 0.48166783E-02 0.13562685E+03</pdfrwt>
<totfact> 0.89388164E+03</totfact>
</mgrwt>
</event>
<event>
 7    1  0.4230786E-006  0.1650443E+03  0.7546771E-02  0.1190352E+00
          2   -1    0    0  501    0  0.00000000000E+00  0.00000000000E+00  0.75670205300E+02  0.75670205300E+02  0.00000000000E+00 0. -1.
         -2   -1    0    0    0  501 -0.00000000000E+00 -0.00000000000E+00 -0.32070665360E+03  0.32070665360E+03  0.00000000000E+00 0.  1.
         23    2    1    2    0    0 -0.10771168585E+03 -0.36267939776E+01 -0.17051394810E+03  0.23730702777E+03  0.12499863212E+03 0.  0.
          5    1    3    3  502    0 -0.10383109515E+03  0.97340501985E+01 -0.18765381667E+03  0.21473633359E+03  0.47000000000E+01 0.  1.
         -5    1    3    3    0  502 -0.38805906957E+01 -0.13360844176E+02  0.17139868569E+02  0.22570694181E+02  0.47000000000E+01 0.  1.
        -11    1    1    2    0    0  0.31329999078E+02 -0.41358768505E+02 -0.28025090564E+02  0.58970520395E+02  0.00000000000E+00 0.  1.
         11    1    1    2    0    0  0.76381686772E+02  0.44985562483E+02 -0.46497409633E+02  0.10009931073E+03  0.00000000000E+00 0. -1.
<mgrwt>
<rscale>  0 0.15854232E+03</rscale>
<asrwt>0</asrwt>
<pdfrwt beam="1">  1        2 0.11641570E-01 0.16504429E+03</pdfrwt>
<pdfrwt beam="2">  1       -2 0.49339484E-01 0.16504429E+03</pdfrwt>
<totfact> 0.20428706E+03</totfact>
</mgrwt>
</event>
<event>
 7    1  0.4230786E-006  0.1773877E+03  0.7546771E-02  0.1178295E+00
          2   -1    0    0  501    0  0.00000000000E+00  0.00000000000E+00  0.37029333143E+03  0.37029333143E+03  0.00000000000E+00 0. -1.
         -2   -1    0    0    0  501 -0.00000000000E+00 -0.00000000000E+00 -0.84599511087E+02  0.84599511087E+02  0.00000000000E+00 0.  1.
         23    2    1    2    0    0  0.11646367304E+03  0.47740255001E+02  0.64644223041E+02  0.18879959457E+03  0.12499396886E+03 0.  0.
          5    1    3    3  502    0  0.33138639660E+02 -0.30689432592E+02 -0.16635811921E+02  0.48361668184E+02  0.47000000000E+01 0. -1.
         -5    1    3    3    0  502  0.83325033376E+02  0.78429687593E+02  0.81280034962E+02  0.14043792638E+03  0.47000000000E+01 0. -1.
        -11    1    1    2    0    0 -0.11039419614E+03 -0.61857483833E+02  0.21520506048E+03  0.24965264850E+03  0.00000000000E+00 0. -1.
         11    1    1    2    0    0 -0.60694768968E+01  0.14117228832E+02  0.58445368242E+01  0.16440599453E+02  0.00000000000E+00 0.  1.
<mgrwt>
<rscale>  0 0.16957192E+03</rscale>
<asrwt>0</asrwt>
<pdfrwt beam="1">  1        2 0.56968204E-01 0.17738774E+03</pdfrwt>
<pdfrwt beam="2">  1       -2 0.13015310E-01 0.17738774E+03</pdfrwt>
<totfact> 0.36807987E+03</totfact>
</mgrwt>
</event>
<event>
 7    1  0.4230786E-006  0.1424623E+03  0.7546771E-02  0.1220166E+00
         -2   -1    0    0    0  501 -0.00000000000E+00  0.00000000000E+00  0.54539457095E+02  0.54539457095E+02  0.00000000000E+00 0.  1.
          2   -1    0    0  501    0  0.00000000000E+00 -0.00000000000E+00 -0.33981651574E+03  0.33981651574E+03  0.00000000000E+00 0. -1.
         23    2    1    2    0    0  0.50231385067E+02  0.46318555412E+02 -0.92432688814E+02  0.16982138206E+03  0.12500759666E+03 0.  0.
          5    1    3    3  502    0  0.84159928545E+02  0.38448756669E+02 -0.97286656868E+02  0.13434278569E+03  0.47000000000E+01 0.  1.
         -5    1    3    3    0  502 -0.33928543478E+02  0.78697987429E+01  0.48539680540E+01  0.35478596374E+02  0.47000000000E+01 0.  1.
        -11    1    1    2    0    0 -0.51132815617E+02  0.13294040562E+02 -0.11435430128E+03  0.12596905401E+03  0.00000000000E+00 0. -1.
         11    1    1    2    0    0  0.90143055049E+00 -0.59612595974E+02 -0.78490068556E+02  0.98565536764E+02  0.00000000000E+00 0.  1.
<mgrwt>
<rscale>  0 0.13503828E+03</rscale>
<asrwt>0</asrwt>
<pdfrwt beam="2">  1        2 0.52279463E-01 0.14246228E+03</pdfrwt>
<pdfrwt beam="1">  1       -2 0.83906858E-02 0.14246228E+03</pdfrwt>
<totfact> 0.79908577E+03</totfact>
</mgrwt>
</event>
<event>
 7    1  0.4230786E-006  0.1428917E+03  0.7546771E-02  0.1220544E+00
          1   -1    0    0  501    0  0.00000000000E+00  0.00000000000E+00  0.45536454990E+03  0.45536454990E+03  0.00000000000E+00 0. -1.
         -1   -1    0    0    0  501 -0.00000000000E+00 -0.00000000000E+00 -0.39455939790E+02  0.39455939790E+02  0.00000000000E+00 0.  1.
         23    2    1    2    0    0 -0.59246388267E+02 -0.35818582969E+02  0.15695868322E+03  0.21225944312E+03  0.12499975018E+03 0.  0.
          5    1    3    3  502    0  0.37318287815E+02  0.49329451869E+01  0.43915163824E+02  0.58031199948E+02  0.47000000000E+01 0. -1.
         -5    1    3    3    0  502 -0.96564676082E+02 -0.40751528156E+02  0.11304351940E+03  0.15422824317E+03  0.47000000000E+01 0. -1.
        -11    1    1    2    0    0  0.15488514897E+01  0.48626144546E+02  0.75424778742E+02  0.89754098083E+02  0.00000000000E+00 0.  1.
         11    1    1    2    0    0  0.57697536777E+02 -0.12807561578E+02  0.18352514815E+03  0.19280694849E+03  0.00000000000E+00 0. -1.
<mgrwt>
<rscale>  0 0.13477079E+03</rscale>
<asrwt>0</asrwt>
<pdfrwt beam="1">  1        1 0.70056081E-01 0.14289172E+03</pdfrwt>
<pdfrwt beam="2">  1       -1 0.60701449E-02 0.14289172E+03</pdfrwt>
<totfact> 0.64543485E+03</totfact>
</mgrwt>
</event>
<event>
 7    1  0.4230786E-006  0.2426063E+03  0.7546771E-02  0.1120717E+00
          1   -1    0    0  501    0  0.00000000000E+00  0.00000000000E+00  0.47277383141E+03  0.47277383141E+03  0.00000000000E+00 0. -1.
         -1   -1    0    0    0  501 -0.00000000000E+00 -0.00000000000E+00 -0.13432412496E+03  0.13432412496E+03  0.00000000000E+00 0.  1.
         23    2    1    2    0    0  0.84304346683E+02  0.19005589806E+03  0.63992898891E+02  0.25090414306E+03  0.12501732136E+03 0.  0.
          5    1    3    3  502    0  0.83484601245E+02  0.40408104695E+02  0.23197701854E+02  0.95722081785E+02  0.47000000000E+01 0.  1.
         -5    1    3    3    0  502  0.81974543807E+00  0.14964779336E+03  0.40795197037E+02  0.15518206128E+03  0.47000000000E+01 0.  1.
        -11    1    1    2    0    0 -0.33778476687E+02 -0.12322469077E+03  0.22543164045E+03  0.25912301020E+03  0.00000000000E+00 0. -1.
         11    1    1    2    0    0 -0.50525869996E+02 -0.66831207287E+02  0.49025167107E+02  0.97070803109E+02  0.00000000000E+00 0.  1.
<mgrwt>
<rscale>  0 0.23861759E+03</rscale>
<asrwt>0</asrwt>
<pdfrwt beam="1">  1        1 0.72734435E-01 0.24260626E+03</pdfrwt>
<pdfrwt beam="2">  1       -1 0.20665250E-01 0.24260626E+03</pdfrwt>
<totfact> 0.93158883E+02</totfact>
</mgrwt>
</event>
<event>
 7    1  0.4230786E-006  0.2669958E+03  0.7546771E-02  0.1105153E+00
          2   -1    0    0  501    0  0.00000000000E+00  0.00000000000E+00  0.13234109533E+04  0.13234109533E+04  0.00000000000E+00 0. -1.
         -2   -1    0    0    0  501 -0.00000000000E+00 -0.00000000000E+00 -0.51086490889E+02  0.51086490889E+02  0.00000000000E+00 0.  1.
         23    2    1    2    0    0  0.27781499196E+02  0.23428543474E+03  0.67940792596E+03  0.72998761080E+03  0.12500122171E+03 0.  0.
          5    1    3    3  502    0 -0.41222880705E+02  0.46832575114E+02  0.22612417168E+03  0.23462064488E+03  0.47000000000E+01 0.  1.
         -5    1    3    3    0  502  0.69004379902E+02  0.18745285963E+03  0.45328375428E+03  0.49536696592E+03  0.47000000000E+01 0.  1.
        -11    1    1    2    0    0  0.80961509848E+01 -0.20750288732E+03  0.47668177669E+03  0.51995049008E+03  0.00000000000E+00 0. -1.
         11    1    1    2    0    0 -0.35877650181E+02 -0.26782547426E+02  0.11623475972E+03  0.12455934327E+03  0.00000000000E+00 0.  1.
<mgrwt>
<rscale>  0 0.26334038E+03</rscale>
<asrwt>0</asrwt>
<pdfrwt beam="1">  1        2 0.20360166E+00 0.26699585E+03</pdfrwt>
<pdfrwt beam="2">  1       -2 0.78594611E-02 0.26699585E+03</pdfrwt>
<totfact> 0.16564359E+03</totfact>
</mgrwt>
</event>
<event>
 7    1  0.4230786E-006  0.1588081E+03  0.7546771E-02  0.1197691E+00
         -1   -1    0    0    0  501 -0.00000000000E+00  0.00000000000E+00  0.41913381324E+03  0.41913381324E+03  0.00000000000E+00 0.  1.
          1   -1    0    0  501    0  0.00000000000E+00 -0.00000000000E+00 -0.60577611851E+02  0.60577611851E+02  0.00000000000E+00 0. -1.
         23    2    1    2    0    0 -0.27909297818E+02 -0.93895794361E+02  0.28586229451E+03  0.32701262335E+03  0.12499862120E+03 0.  0.
          5    1    3    3  502    0  0.35103767504E+02 -0.68632254929E+01  0.14704703482E+03  0.15140772373E+03  0.47000000000E+01 0. -1.
         -5    1    3    3    0  502 -0.63013065322E+02 -0.87032568868E+02  0.13881525970E+03  0.17560489962E+03  0.47000000000E+01 0. -1.
        -11    1    1    2    0    0  0.17660460264E+02  0.35053750676E+02  0.83255562259E+02  0.92044260768E+02  0.00000000000E+00 0.  1.
         11    1    1    2    0    0  0.10248837554E+02  0.58842043686E+02 -0.10561655384E+02  0.60654540974E+02  0.00000000000E+00 0. -1.
<mgrwt>
<rscale>  0 0.15228653E+03</rscale>
<asrwt>0</asrwt>
<pdfrwt beam="2">  1        1 0.93196328E-02 0.15880807E+03</pdfrwt>
<pdfrwt beam="1">  1       -1 0.64482124E-01 0.15880807E+03</pdfrwt>
<totfact> 0.17480284E+03</totfact>
</mgrwt>
</event>
<event>
 7    1  0.4230786E-006  0.1351015E+03  0.7546771E-02  0.1232593E+00
         -2   -1    0    0    0  501 -0.00000000000E+00  0.00000000000E+00  0.40184845819E+02  0.40184845819E+02  0.00000000000E+00 0.  1.
          2   -1    0    0  501    0  0.00000000000E+00 -0.00000000000E+00 -0.38683366097E+03  0.38683366097E+03  0.00000000000E+00 0. -1.
         23    2    1    2    0    0 -0.35276494638E+02 -0.37185826200E+02 -0.13430054762E+03  0.19049689092E+03  0.12500084645E+03 0.  0.
          5    1    3    3  502    0 -0.40971711518E+02 -0.23628012015E+02 -0.15644303415E+03  0.16350375234E+03  0.47000000000E+01 0. -1.
         -5    1    3    3    0  502  0.56952168801E+01 -0.13557814185E+02  0.22142486524E+02  0.26993138577E+02  0.47000000000E+01 0. -1.
        -11    1    1    2    0    0 -0.12865596290E+02 -0.22096747179E+02 -0.34259179472E+02  0.42749048901E+02  0.00000000000E+00 0. -1.
         11    1    1    2    0    0  0.48142090928E+02  0.59282573380E+02 -0.17808908805E+03  0.19377256697E+03  0.00000000000E+00 0.  1.
<mgrwt>
<rscale>  0 0.12659816E+03</rscale>
<asrwt>0</asrwt>
<pdfrwt beam="2">  1        2 0.59512869E-01 0.13510155E+03</pdfrwt>
<pdfrwt beam="1">  1       -2 0.61822841E-02 0.13510155E+03</pdfrwt>
<totfact> 0.11082169E+04</totfact>
</mgrwt>
</event>
<event>
 7    1  0.4230786E-006  0.1267050E+03  0.7546771E-02  0.1249381E+00
         -2   -1    0    0    0  501 -0.00000000000E+00  0.00000000000E+00  0.51043190467E+02  0.51043190467E+02  0.00000000000E+00 0.  1.
          2   -1    0    0  501    0  0.00000000000E+00 -0.00000000000E+00 -0.23280109590E+03  0.23280109590E+03  0.00000000000E+00 0. -1.
         23    2    1    2    0    0 -0.18161063727E+02  0.98310683245E+01 -0.12235215760E+03  0.17613690646E+03  0.12501074037E+03 0.  0.
          5    1    3    3  502    0  0.50523022233E+02  0.14373179594E+02 -0.29405696749E+02  0.60381694813E+02  0.47000000000E+01 0.  1.
         -5    1    3    3    0  502 -0.68684085960E+02 -0.45421112698E+01 -0.92946460848E+02  0.11575521165E+03  0.47000000000E+01 0.  1.
        -11    1    1    2    0    0 -0.31686991946E+02 -0.15678209843E+02 -0.87973187518E+01  0.36431642012E+02  0.00000000000E+00 0.  1.
         11    1    1    2    0    0  0.49848055673E+02  0.58471415190E+01 -0.50608429083E+02  0.71275737895E+02  0.00000000000E+00 0. -1.
<mgrwt>
<rscale>  0 0.11626979E+03</rscale>
<asrwt>0</asrwt>
<pdfrwt beam="2">  1        2 0.35815554E-01 0.12670501E+03</pdfrwt>
<pdfrwt beam="1">  1       -2 0.78527985E-02 0.12670501E+03</pdfrwt>
<totfact> 0.13109656E+04</totfact>
</mgrwt>
</event>
<event>
 6    1  0.4230786E-006  0.1727792E+03  0.7546771E-02  0.1194469E+00
         -2   -1    0    0    0  501 -0.00000000000E+00  0.00000000000E+00  0.44540159149E+03  0.44540159149E+03  0.00000000000E+00 0.  1.
          2   -1    0    0  501    0  0.00000000000E+00 -0.00000000000E+00 -0.46278412550E+02  0.46278412550E+02  0.00000000000E+00 0. -1.
          5    1    1    2  502    0 -0.87849088271E+02  0.46665261957E+02  0.16771812479E+03  0.19505529566E+03  0.47000000000E+01 0. -1.
         -5    1    1    2    0  502  0.71235512960E+02  0.14489062004E+02  0.10529633934E+03  0.12803843291E+03  0.47000000000E+01 0.  1.
        -11    1    1    2    0    0  0.18031512023E+02  0.18759452899E+02  0.10544965191E+02  0.28075768730E+02  0.00000000000E+00 0.  1.
         11    1    1    2    0    0 -0.14179367122E+01 -0.79913776860E+02  0.11556374963E+03  0.14051050674E+03  0.00000000000E+00 0. -1.
<mgrwt>
<rscale>  0 0.15499232E+03</rscale>
<asrwt>0</asrwt>
<pdfrwt beam="2">  1        2 0.71197561E-02 0.17277922E+03</pdfrwt>
<pdfrwt beam="1">  1       -2 0.68523319E-01 0.17277922E+03</pdfrwt>
<totfact> 0.19274904E+03</totfact>
</mgrwt>
</event>
<event>
 7    1  0.4230786E-006  0.2191563E+03  0.7546771E-02  0.1138100E+00
          2   -1    0    0  501    0  0.00000000000E+00  0.00000000000E+00  0.13771226233E+04  0.13771226233E+04  0.00000000000E+00 0. -1.
         -2   -1    0    0    0  501 -0.00000000000E+00 -0.00000000000E+00 -0.32034532954E+02  0.32034532954E+02  0.00000000000E+00 0.  1.
         23    2    1    2    0    0  0.78449284864E+02 -0.16200893767E+03  0.71117961928E+03  0.74418138502E+03  0.12501318636E+03 0.  0.
          5    1    3    3  502    0  0.78392334439E+02 -0.62508561722E+02  0.20452154083E+03  0.22782411868E+03  0.47000000000E+01 0.  1.
         -5    1    3    3    0  502  0.56950425709E-01 -0.99500375944E+02  0.50665807844E+03  0.51635726635E+03  0.47000000000E+01 0.  1.
        -11    1    1    2    0    0 -0.40100987141E+02  0.15450339996E+03  0.54418183060E+03  0.56710956131E+03  0.00000000000E+00 0.  1.
         11    1    1    2    0    0 -0.38348297724E+02  0.75055377038E+01  0.89726640453E+02  0.97866209907E+02  0.00000000000E+00 0. -1.
<mgrwt>
<rscale>  0 0.21443699E+03</rscale>
<asrwt>0</asrwt>
<pdfrwt beam="1">  1        2 0.21186497E+00 0.21915630E+03</pdfrwt>
<pdfrwt beam="2">  1       -2 0.49283907E-02 0.21915630E+03</pdfrwt>
<totfact> 0.31773430E+03</totfact>
</mgrwt>
</event>
<event>
 7    1  0.4230786E-006  0.1364683E+03  0.7546771E-02  0.1229420E+00
          3   -1    0    0  501    0  0.00000000000E+00  0.00000000000E+00  0.17636950680E+03  0.17636950680E+03  0.00000000000E+00 0. -1.
         -3   -1    0    0    0  501 -0.00000000000E+00 -0.00000000000E+00 -0.84651020854E+02  0.84651020854E+02  0.00000000000E+00 0.  1.
         23    2    1    2    0    0 -0.48133761599E+02  0.26113261663E+02  0.50161218366E+02  0.14539513476E+03  0.12499934377E+03 0.  0.
          5    1    3    3  502    0 -0.86970031411E+01  0.18390897129E+02 -0.40805141252E+02  0.45836803045E+02  0.47000000000E+01 0.  1.
         -5    1    3    3    0  502 -0.39436758458E+02  0.77223645339E+01  0.90966359618E+02  0.99558331715E+02  0.47000000000E+01 0.  1.
        -11    1    1    2    0    0  0.11819087718E+00  0.23445723901E+02  0.40282962692E+02  0.46609366243E+02  0.00000000000E+00 0. -1.
         11    1    1    2    0    0  0.48015570722E+02 -0.49558985564E+02  0.12743048882E+01  0.69016026652E+02  0.00000000000E+00 0.  1.
<mgrwt>
<rscale>  0 0.12868512E+03</rscale>
<asrwt>0</asrwt>
<pdfrwt beam="1">  1        3 0.27133770E-01 0.13646830E+03</pdfrwt>
<pdfrwt beam="2">  1       -3 0.13023234E-01 0.13646830E+03</pdfrwt>
<totfact> 0.14074554E+03</totfact>
</mgrwt>
</event>
<event>
 7    1  0.4230786E-006  0.1399457E+03  0.7546771E-02  0.1224349E+00
         -2   -1    0    0    0  501 -0.00000000000E+00  0.00000000000E+00  0.80968471293E+02  0.80968471293E+02  0.00000000000E+00 0.  1.
          2   -1    0    0  501    0  0.00000000000E+00 -0.00000000000E+00 -0.19808469929E+03  0.19808469929E+03  0.00000000000E+00 0. -1.
         23    2    1    2    0    0  0.11821982879E+02 -0.61805356147E+02 -0.46996338856E+02  0.14762604098E+03  0.12500052313E+03 0.  0.
          5    1    3    3  502    0 -0.25143546951E+02 -0.82449518749E+02 -0.57534827622E+02  0.10374231289E+03  0.47000000000E+01 0. -1.
         -5    1    3    3    0  502  0.36965529831E+02  0.20644162602E+02  0.10538488766E+02  0.43883728085E+02  0.47000000000E+01 0. -1.
        -11    1    1    2    0    0 -0.48962354631E+02  0.38146624184E+02 -0.21157352632E+02  0.65575229149E+02  0.00000000000E+00 0.  1.
         11    1    1    2    0    0  0.37140371751E+02  0.23658731963E+02 -0.48962536512E+02  0.65851900456E+02  0.00000000000E+00 0. -1.
<mgrwt>
<rscale>  0 0.13211607E+03</rscale>
<asrwt>0</asrwt>
<pdfrwt beam="2">  1        2 0.30474569E-01 0.13994568E+03</pdfrwt>
<pdfrwt beam="1">  1       -2 0.12456688E-01 0.13994568E+03</pdfrwt>
<totfact> 0.76164722E+03</totfact>
</mgrwt>
</event>
<event>
 7    1  0.4230786E-006  0.1433821E+03  0.7546771E-02  0.1219086E+00
         -2   -1    0    0    0  501 -0.00000000000E+00  0.00000000000E+00  0.90737147962E+03  0.90737147962E+03  0.00000000000E+00 0. -1.
          2   -1    0    0  501    0  0.00000000000E+00 -0.00000000000E+00 -0.23752797278E+02  0.23752797278E+02  0.00000000000E+00 0.  1.
         23    2    1    2    0    0 -0.55996940593E+02 -0.42405772473E+02  0.69788049581E+03  0.71245744877E+03  0.12499809191E+03 0.  0.
          5    1    3    3  502    0 -0.54888705655E+02 -0.74590664530E+02  0.31962379848E+03  0.33280324487E+03  0.47000000000E+01 0.  1.
         -5    1    3    3    0  502 -0.11082349380E+01  0.32184892057E+02  0.37825669733E+03  0.37965420390E+03  0.47000000000E+01 0.  1.
        -11    1    1    2    0    0  0.13550016259E+02  0.78658285287E+01 -0.78274876028E+01  0.17514101782E+02  0.00000000000E+00 0.  1.
         11    1    1    2    0    0  0.42446924333E+02  0.34539943944E+02  0.19356567414E+03  0.20115272635E+03  0.00000000000E+00 0. -1.
<mgrwt>
<rscale>  0 0.13580633E+03</rscale>
<asrwt>0</asrwt>
<pdfrwt beam="2">  1        2 0.36542772E-02 0.14338211E+03</pdfrwt>
<pdfrwt beam="1">  1       -2 0.13959559E+00 0.14338211E+03</pdfrwt>
<totfact> 0.88870292E+02</totfact>
</mgrwt>
</event>
<event>
 7    1  0.4230786E-006  0.1792847E+03  0.7546771E-02  0.1173500E+00
         -4   -1    0    0    0  501 -0.00000000000E+00  0.00000000000E+00  0.42063133531E+03  0.42063133531E+03  0.00000000000E+00 0.  1.
          4   -1    0    0  501    0  0.00000000000E+00 -0.00000000000E+00 -0.79155989692E+02  0.79155989692E+02  0.00000000000E+00 0. -1.
         23    2    1    2    0    0 -0.12851260914E+03  0.15047444299E+01  0.27118897452E+03  0.32509456842E+03  0.12500105419E+03 0.  0.
          5    1    3    3  502    0 -0.99299264378E+01  0.11797901040E+02  0.16417241081E+03  0.16496200890E+03  0.47000000000E+01 0.  1.
         -5    1    3    3    0  502 -0.11858268270E+03 -0.10293156610E+02  0.10701656371E+03  0.16013255952E+03  0.47000000000E+01 0.  1.
        -11    1    1    2    0    0  0.30988166124E+02  0.91482209318E+01  0.69435087223E+02  0.76584513602E+02  0.00000000000E+00 0.  1.
         11    1    1    2    0    0  0.97524443017E+02 -0.10652965362E+02  0.85128387244E+00  0.98108242981E+02  0.00000000000E+00 0. -1.
<mgrwt>
<rscale>  0 0.17423665E+03</rscale>
<asrwt>0</asrwt>
<pdfrwt beam="2">  1        4 0.12177845E-01 0.17928474E+03</pdfrwt>
<pdfrwt beam="1">  1       -4 0.64712512E-01 0.17928474E+03</pdfrwt>
<totfact> 0.21399607E+02</totfact>
</mgrwt>
</event>
<event>
 7    1  0.4230786E-006  0.1323691E+03  0.7546771E-02  0.1235841E+00
         -1   -1    0    0    0  501 -0.00000000000E+00  0.00000000000E+00  0.10487318290E+03  0.10487318290E+03  0.00000000000E+00 0.  1.
          1   -1    0    0  501    0  0.00000000000E+00 -0.00000000000E+00 -0.13559321483E+03  0.13559321483E+03  0.00000000000E+00 0. -1.
         23    2    1    2    0    0 -0.30195194099E+02  0.31468922549E+02  0.88052018733E-01  0.13236912605E+03  0.12497813787E+03 0.  0.
          5    1    3    3  502    0 -0.15779254735E+02  0.79605337058E+02  0.62310621636E+01  0.81528588261E+02  0.47000000000E+01 0. -1.
         -5    1    3    3    0  502 -0.14415939364E+02 -0.48136414509E+02 -0.61430101448E+01  0.50840537794E+02  0.47000000000E+01 0. -1.
        -11    1    1    2    0    0  0.13259293511E+02 -0.53544375996E+02  0.12557777242E+02  0.56573022144E+02  0.00000000000E+00 0.  1.
         11    1    1    2    0    0  0.16935900588E+02  0.22075453447E+02 -0.43365861183E+02  0.51524249532E+02  0.00000000000E+00 0. -1.
<mgrwt>
<rscale>  0 0.12450726E+03</rscale>
<asrwt>0</asrwt>
<pdfrwt beam="2">  1        1 0.20860495E-01 0.13236910E+03</pdfrwt>
<pdfrwt beam="1">  1       -1 0.16134336E-01 0.13236910E+03</pdfrwt>
<totfact> 0.65499474E+03</totfact>
</mgrwt>
</event>
<event>
 7    1  0.4230786E-006  0.2540354E+03  0.7546771E-02  0.1113087E+00
          2   -1    0    0  501    0  0.00000000000E+00  0.00000000000E+00  0.28448705283E+03  0.28448705283E+03  0.00000000000E+00 0. -1.
         -2   -1    0    0    0  501 -0.00000000000E+00 -0.00000000000E+00 -0.22574906670E+03  0.22574906670E+03  0.00000000000E+00 0.  1.
         23    2    1    2    0    0  0.21942822862E+03  0.27572209296E+02 -0.27674560048E+02  0.25553843083E+03  0.12500013648E+03 0.  0.
          5    1    3    3  502    0  0.97173436170E+02 -0.26044942301E+02 -0.61157689916E+02  0.11782770791E+03  0.47000000000E+01 0.  1.
         -5    1    3    3    0  502  0.12225479245E+03  0.53617151596E+02  0.33483129868E+02  0.13771072292E+03  0.47000000000E+01 0.  1.
        -11    1    1    2    0    0 -0.10487623503E+03  0.17571765180E+02  0.76848734715E+02  0.13120030347E+03  0.00000000000E+00 0. -1.
         11    1    1    2    0    0 -0.11455199359E+03 -0.45143974476E+02  0.95638114666E+01  0.12349738522E+03  0.00000000000E+00 0.  1.
<mgrwt>
<rscale>  0 0.25034464E+03</rscale>
<asrwt>0</asrwt>
<pdfrwt beam="1">  1        2 0.43767239E-01 0.25403545E+03</pdfrwt>
<pdfrwt beam="2">  1       -2 0.34730626E-01 0.25403545E+03</pdfrwt>
<totfact> 0.90370243E+02</totfact>
</mgrwt>
</event>
<event>
 6    1  0.4230786E-006  0.5030471E+03  0.7546771E-02  0.1056579E+00
          1   -1    0    0  501    0  0.00000000000E+00  0.00000000000E+00  0.51694962325E+03  0.51694962325E+03  0.00000000000E+00 0. -1.
         -1   -1    0    0    0  501 -0.00000000000E+00 -0.00000000000E+00 -0.20005861234E+03  0.20005861234E+03  0.00000000000E+00 0.  1.
          5    1    1    2  502    0 -0.81179318712E+01  0.11546961324E+03  0.37099547432E+03  0.38866291869E+03  0.47000000000E+01 0. -1.
         -5    1    1    2    0  502  0.10887593780E+03 -0.85722460352E+02 -0.11099079722E+03  0.17760449631E+03  0.47000000000E+01 0.  1.
        -11    1    1    2    0    0 -0.10129331608E+03 -0.19299261286E+02  0.11027038712E+02  0.10370338929E+03  0.00000000000E+00 0.  1.
         11    1    1    2    0    0  0.53531014343E+00 -0.10447891597E+02  0.45859295104E+02  0.47037431299E+02  0.00000000000E+00 0. -1.
<mgrwt>
<rscale>  0 0.36511012E+03</rscale>
<asrwt>0</asrwt>
<pdfrwt beam="1">  1        1 0.79530711E-01 0.50304707E+03</pdfrwt>
<pdfrwt beam="2">  1       -1 0.30778248E-01 0.50304707E+03</pdfrwt>
<totfact> 0.41972129E+02</totfact>
</mgrwt>
</event>
<event>
 7    1  0.4230786E-006  0.1365485E+03  0.7546771E-02  0.1230352E+00
          2   -1    0    0  501    0  0.00000000000E+00  0.00000000000E+00  0.15464328612E+03  0.15464328612E+03  0.00000000000E+00 0.  1.
         -2   -1    0    0    0  501 -0.00000000000E+00 -0.00000000000E+00 -0.11327201295E+03  0.11327201295E+03  0.00000000000E+00 0. -1.
         23    2    1    2    0    0 -0.52593308993E+02 -0.16054714927E+02 -0.30779425087E+02  0.13997455131E+03  0.12498676724E+03 0.  0.
          5    1    3    3  502    0  0.14223778130E+02  0.10289609475E+01  0.38976551158E+02  0.41768842036E+02  0.47000000000E+01 0.  1.
         -5    1    3    3    0  502 -0.66817087123E+02 -0.17083675874E+02 -0.69755976245E+02  0.98205709278E+02  0.47000000000E+01 0.  1.
        -11    1    1    2    0    0 -0.15630961450E+02  0.28060274355E+02  0.70628368033E+01  0.32887529801E+02  0.00000000000E+00 0. -1.
         11    1    1    2    0    0  0.68224270444E+02 -0.12005559428E+02  0.65087861456E+02  0.95053217955E+02  0.00000000000E+00 0.  1.
<mgrwt>
<rscale>  0 0.12806735E+03</rscale>
<asrwt>0</asrwt>
<pdfrwt beam="1">  1        2 0.23791275E-01 0.13654853E+03</pdfrwt>
<pdfrwt beam="2">  1       -2 0.17426463E-01 0.13654853E+03</pdfrwt>
<totfact> 0.57656844E+03</totfact>
</mgrwt>
</event>
<event>
 7    1  0.4230786E-006  0.2100468E+03  0.7546771E-02  0.1145197E+00
          3   -1    0    0  501    0  0.00000000000E+00  0.00000000000E+00  0.76393148555E+03  0.76393148555E+03  0.00000000000E+00 0. -1.
         -3   -1    0    0    0  501 -0.00000000000E+00 -0.00000000000E+00 -0.54325329262E+02  0.54325329262E+02  0.00000000000E+00 0.  1.
         23    2    1    2    0    0  0.20270489860E+02  0.16757355220E+03  0.43402207433E+03  0.48217715980E+03  0.12501145656E+03 0.  0.
          5    1    3    3  502    0  0.13126722906E+02  0.76893971416E+02  0.63705597777E+02  0.10082403921E+03  0.47000000000E+01 0.  1.
         -5    1    3    3    0  502  0.71437669538E+01  0.90679580788E+02  0.37031647655E+03  0.38135312059E+03  0.47000000000E+01 0.  1.
        -11    1    1    2    0    0 -0.37931264136E+02 -0.39503901267E+02  0.13177431500E+03  0.14270181886E+03  0.00000000000E+00 0. -1.
         11    1    1    2    0    0  0.17660774276E+02 -0.12806965094E+03  0.14380976697E+03  0.19337783615E+03  0.00000000000E+00 0.  1.
<mgrwt>
<rscale>  0 0.20547859E+03</rscale>
<asrwt>0</asrwt>
<pdfrwt beam="1">  1        3 0.11752791E+00 0.21004679E+03</pdfrwt>
<pdfrwt beam="2">  1       -3 0.83577435E-02 0.21004679E+03</pdfrwt>
<totfact> 0.15177745E+02</totfact>
</mgrwt>
</event>
<event>
 6    1  0.4230786E-006  0.1651222E+03  0.7546771E-02  0.1199929E+00
          1   -1    0    0  501    0  0.00000000000E+00  0.00000000000E+00  0.31565134857E+03  0.31565134857E+03  0.00000000000E+00 0. -1.
         -1   -1    0    0    0  501 -0.00000000000E+00 -0.00000000000E+00 -0.86655402232E+02  0.86655402232E+02  0.00000000000E+00 0.  1.
          5    1    1    2  502    0 -0.31493452428E+02 -0.29580216456E+02 -0.26999504836E+02  0.51165320411E+02  0.47000000000E+01 0. -1.
         -5    1    1    2    0  502  0.37718186834E+02  0.97114182680E+02  0.49649119040E+02  0.11550303510E+03  0.47000000000E+01 0.  1.
        -11    1    1    2    0    0 -0.15737957543E+02  0.35167940138E+01 -0.10921381115E+01  0.16163041590E+02  0.00000000000E+00 0.  1.
         11    1    1    2    0    0  0.95132231368E+01 -0.71050760238E+02  0.20743847025E+03  0.21947535370E+03  0.00000000000E+00 0. -1.
<mgrwt>
<rscale>  0 0.15044360E+03</rscale>
<asrwt>0</asrwt>
<pdfrwt beam="1">  1        1 0.48561745E-01 0.16512218E+03</pdfrwt>
<pdfrwt beam="2">  1       -1 0.13331600E-01 0.16512218E+03</pdfrwt>
<totfact> 0.31132166E+03</totfact>
</mgrwt>
</event>
<event>
 7    1  0.4230786E-006  0.1282477E+03  0.7546771E-02  0.1247241E+00
         -3   -1    0    0    0  501 -0.00000000000E+00  0.00000000000E+00  0.10124200211E+03  0.10124200211E+03  0.00000000000E+00 0.  1.
          3   -1    0    0  501    0  0.00000000000E+00 -0.00000000000E+00 -0.14753841479E+03  0.14753841479E+03  0.00000000000E+00 0. -1.
         23    2    1    2    0    0  0.12608147732E+02  0.26413193838E+02  0.28554130444E+02  0.13138797576E+03  0.12486328368E+03 0.  0.
          5    1    3    3  502    0 -0.49038539382E+02  0.30479675454E+02 -0.94592255862E+01  0.58697154183E+02  0.47000000000E+01 0.  1.
         -5    1    3    3    0  502  0.61646687114E+02 -0.40664816157E+01  0.38013356030E+02  0.72690821577E+02  0.47000000000E+01 0.  1.
        -11    1    1    2    0    0 -0.22711699596E+02 -0.40881481379E+02 -0.85013786157E+02  0.97028143624E+02  0.00000000000E+00 0. -1.
         11    1    1    2    0    0  0.10103551864E+02  0.14468287541E+02  0.10163243033E+02  0.20364297522E+02  0.00000000000E+00 0.  1.
<mgrwt>
<rscale>  0 0.11752236E+03</rscale>
<asrwt>0</asrwt>
<pdfrwt beam="2">  1        3 0.22698218E-01 0.12824766E+03</pdfrwt>
<pdfrwt beam="1">  1       -3 0.15575693E-01 0.12824766E+03</pdfrwt>
<totfact> 0.14174563E+03</totfact>
</mgrwt>
</event>
<event>
 7    1  0.4230786E-006  0.1382207E+03  0.7546771E-02  0.1227028E+00
         -1   -1    0    0    0  501 -0.00000000000E+00  0.00000000000E+00  0.98072697133E+02  0.98072697133E+02  0.00000000000E+00 0.  1.
          1   -1    0    0  501    0  0.00000000000E+00 -0.00000000000E+00 -0.16845693534E+03  0.16845693534E+03  0.00000000000E+00 0. -1.
         23    2    1    2    0    0  0.52732736624E+02  0.26412441281E+02 -0.29471159287E+01  0.13825209929E+03  0.12500639543E+03 0.  0.
          5    1    3    3  502    0  0.49558957304E+02  0.71831342385E+02 -0.19562808321E+02  0.89557944747E+02  0.47000000000E+01 0. -1.
         -5    1    3    3    0  502  0.31737793197E+01 -0.45418901104E+02  0.16615692392E+02  0.48694154539E+02  0.47000000000E+01 0. -1.
        -11    1    1    2    0    0 -0.66235383068E+02 -0.20467665675E+02 -0.82115346955E+02  0.10746618777E+03  0.00000000000E+00 0.  1.
         11    1    1    2    0    0  0.13502646444E+02 -0.59447756067E+01  0.14678224682E+02  0.20811345411E+02  0.00000000000E+00 0. -1.
<mgrwt>
<rscale>  0 0.13028869E+03</rscale>
<asrwt>0</asrwt>
<pdfrwt beam="2">  1        1 0.25916451E-01 0.13822068E+03</pdfrwt>
<pdfrwt beam="1">  1       -1 0.15088107E-01 0.13822068E+03</pdfrwt>
<totfact> 0.55522308E+03</totfact>
</mgrwt>
</event>
<event>
 7    1  0.4230786E-006  0.1307597E+03  0.7546771E-02  0.1239561E+00
          1   -1    0    0  501    0  0.00000000000E+00  0.00000000000E+00  0.52075544746E+03  0.52075544746E+03  0.00000000000E+00 0. -1.
         -1   -1    0    0    0  501 -0.00000000000E+00 -0.00000000000E+00 -0.30280001826E+02  0.30280001826E+02  0.00000000000E+00 0.  1.
         23    2    1    2    0    0 -0.31322478352E+02 -0.22134193108E+02  0.16430777641E+03  0.20998841057E+03  0.12500826784E+03 0.  0.
          5    1    3    3  502    0 -0.49759844094E+02 -0.54399149794E+02  0.15452331260E+03  0.17127420623E+03  0.47000000000E+01 0. -1.
         -5    1    3    3    0  502  0.18437365743E+02  0.32264956686E+02  0.97844638173E+01  0.38714204340E+02  0.47000000000E+01 0. -1.
        -11    1    1    2    0    0 -0.18071848846E+02  0.19809245488E+02  0.27855652290E+02  0.38664393077E+02  0.00000000000E+00 0.  1.
         11    1    1    2    0    0  0.49394327198E+02  0.23249476203E+01  0.29831201693E+03  0.30238264565E+03  0.00000000000E+00 0. -1.
<mgrwt>
<rscale>  0 0.12216916E+03</rscale>
<asrwt>0</asrwt>
<pdfrwt beam="1">  1        1 0.80116216E-01 0.13075965E+03</pdfrwt>
<pdfrwt beam="2">  1       -1 0.46584622E-02 0.13075965E+03</pdfrwt>
<totfact> 0.79858638E+03</totfact>
</mgrwt>
</event>
<event>
 7    1  0.4230786E-006  0.2171636E+03  0.7546771E-02  0.1136270E+00
          1   -1    0    0  501    0  0.00000000000E+00  0.00000000000E+00  0.95532542184E+03  0.95532542184E+03  0.00000000000E+00 0. -1.
         -1   -1    0    0    0  501 -0.00000000000E+00 -0.00000000000E+00 -0.49338260199E+02  0.49338260199E+02  0.00000000000E+00 0.  1.
         23    2    1    2    0    0  0.87331126039E+02  0.15274140658E+03  0.41402065899E+03  0.46689879384E+03  0.12499885905E+03 0.  0.
          5    1    3    3  502    0  0.11176514200E+03  0.14666832568E+03  0.31904904102E+03  0.36853415758E+03  0.47000000000E+01 0.  1.
         -5    1    3    3    0  502 -0.24434015966E+02  0.60730808945E+01  0.94971617963E+02  0.98364636258E+02  0.47000000000E+01 0.  1.
        -11    1    1    2    0    0  0.13017888917E+02 -0.89528165058E+02  0.14319410884E+03  0.16937919168E+03  0.00000000000E+00 0.  1.
         11    1    1    2    0    0 -0.10034901496E+03 -0.63213241519E+02  0.34877239382E+03  0.36838569652E+03  0.00000000000E+00 0. -1.
<mgrwt>
<rscale>  0 0.21682874E+03</rscale>
<asrwt>0</asrwt>
<pdfrwt beam="1">  1        1 0.14697313E+00 0.21716361E+03</pdfrwt>
<pdfrwt beam="2">  1       -1 0.75905023E-02 0.21716361E+03</pdfrwt>
<totfact> 0.16126539E+03</totfact>
</mgrwt>
</event>
<event>
 7    1  0.4230786E-006  0.1373794E+03  0.7546771E-02  0.1228588E+00
         -2   -1    0    0    0  501 -0.00000000000E+00  0.00000000000E+00  0.82482675523E+02  0.82482675523E+02  0.00000000000E+00 0.  1.
          2   -1    0    0  501    0  0.00000000000E+00 -0.00000000000E+00 -0.19213172816E+03  0.19213172816E+03  0.00000000000E+00 0. -1.
         23    2    1    2    0    0  0.48053505427E+02 -0.30669401080E+02 -0.29679530997E+02  0.14054882883E+03  0.12499338854E+03 0.  0.
          5    1    3    3  502    0  0.18492645324E+02  0.47994009312E+02 -0.21646741910E+02  0.56000663355E+02  0.47000000000E+01 0. -1.
         -5    1    3    3    0  502  0.29560860104E+02 -0.78663410392E+02 -0.80327890872E+01  0.84548165474E+02  0.47000000000E+01 0. -1.
        -11    1    1    2    0    0  0.18924498402E+02  0.21118042743E+02  0.12187111460E+01  0.28382981273E+02  0.00000000000E+00 0.  1.
         11    1    1    2    0    0 -0.66978003829E+02  0.95513583371E+01 -0.81188232789E+02  0.10568259358E+03  0.00000000000E+00 0. -1.
<mgrwt>
<rscale>  0 0.12924017E+03</rscale>
<asrwt>0</asrwt>
<pdfrwt beam="2">  1        2 0.29558727E-01 0.13737940E+03</pdfrwt>
<pdfrwt beam="1">  1       -2 0.12689643E-01 0.13737940E+03</pdfrwt>
<totfact> 0.76320818E+03</totfact>
</mgrwt>
</event>
<event>
 7    1  0.4230786E-006  0.2307084E+03  0.7546771E-02  0.1129033E+00
         -1   -1    0    0    0  501 -0.00000000000E+00  0.00000000000E+00  0.87273115757E+02  0.87273115757E+02  0.00000000000E+00 0.  1.
          1   -1    0    0  501    0  0.00000000000E+00 -0.00000000000E+00 -0.59839181094E+03  0.59839181094E+03  0.00000000000E+00 0. -1.
         23    2    1    2    0    0  0.15798299417E+03  0.11244441036E+03 -0.34063128674E+03  0.41140737212E+03  0.12499592176E+03 0.  0.
          5    1    3    3  502    0  0.19814512187E+02 -0.17765220339E+02 -0.10681825526E+03  0.11018369936E+03  0.47000000000E+01 0. -1.
         -5    1    3    3    0  502  0.13816848199E+03  0.13020963070E+03 -0.23381303148E+03  0.30122367276E+03  0.47000000000E+01 0. -1.
        -11    1    1    2    0    0 -0.24438763538E+02 -0.38509519570E+02 -0.91843020964E+02  0.10254451112E+03  0.00000000000E+00 0.  1.
         11    1    1    2    0    0 -0.13354423064E+03 -0.73934890793E+02 -0.78644387478E+02  0.17171304346E+03  0.00000000000E+00 0. -1.
<mgrwt>
<rscale>  0 0.22663159E+03</rscale>
<asrwt>0</asrwt>
<pdfrwt beam="2">  1        1 0.92060283E-01 0.23070837E+03</pdfrwt>
<pdfrwt beam="1">  1       -1 0.13426633E-01 0.23070837E+03</pdfrwt>
<totfact> 0.13527209E+03</totfact>
</mgrwt>
</event>
<event>
 7    1  0.4230786E-006  0.1255142E+03  0.7546771E-02  0.1249967E+00
          3   -1    0    0  501    0  0.00000000000E+00  0.00000000000E+00  0.77894876014E+02  0.77894876014E+02  0.00000000000E+00 0. -1.
         -3   -1    0    0    0  501 -0.00000000000E+00 -0.00000000000E+00 -0.15102869330E+03  0.15102869330E+03  0.00000000000E+00 0.  1.
         23    2    1    2    0    0 -0.67702132064E+01 -0.91140570226E+01 -0.45084680758E+02  0.13336585357E+03  0.12499968255E+03 0.  0.
          5    1    3    3  502    0 -0.29352282265E+02  0.52132261724E+02 -0.19566058855E+02  0.63120914487E+02  0.47000000000E+01 0. -1.
         -5    1    3    3    0  502  0.22582069058E+02 -0.61246318746E+02 -0.25518621903E+02  0.70244939083E+02  0.47000000000E+01 0. -1.
        -11    1    1    2    0    0 -0.35856754204E+02  0.13514993967E+02 -0.35293683911E+02  0.52096122773E+02  0.00000000000E+00 0.  1.
         11    1    1    2    0    0  0.42626967410E+02 -0.44009369441E+01  0.72445473851E+01  0.43461592969E+02  0.00000000000E+00 0. -1.
<mgrwt>
<rscale>  0 0.11592976E+03</rscale>
<asrwt>0</asrwt>
<pdfrwt beam="1">  1        3 0.11983827E-01 0.12551423E+03</pdfrwt>
<pdfrwt beam="2">  1       -3 0.23235183E-01 0.12551423E+03</pdfrwt>
<totfact> 0.21109676E+03</totfact>
</mgrwt>
</event>
<event>
 7    1  0.4230786E-006  0.1323393E+03  0.7546771E-02  0.1239166E+00
          4   -1    0    0  501    0  0.00000000000E+00  0.00000000000E+00  0.69447033768E+02  0.69447033768E+02  0.00000000000E+00 0. -1.
         -4   -1    0    0    0  501 -0.00000000000E+00 -0.00000000000E+00 -0.18930163679E+03  0.18930163679E+03  0.00000000000E+00 0.  1.
         23    2    1    2    0    0  0.35465562675E+02  0.25206460747E+02 -0.72744076183E+02  0.15101449713E+03  0.12498202240E+03 0.  0.
          5    1    3    3  502    0  0.54189283365E+02  0.50590259782E+02 -0.88418077668E+02  0.11548029821E+03  0.47000000000E+01 0.  1.
         -5    1    3    3    0  502 -0.18723720690E+02 -0.25383799035E+02  0.15674001485E+02  0.35534198914E+02  0.47000000000E+01 0.  1.
        -11    1    1    2    0    0 -0.25892097445E+02  0.24997928301E+02 -0.43556246858E+02  0.56501714751E+02  0.00000000000E+00 0.  1.
         11    1    1    2    0    0 -0.95734652297E+01 -0.50204389048E+02 -0.35542799794E+01  0.51232458680E+02  0.00000000000E+00 0. -1.
<mgrwt>
<rscale>  0 0.12241477E+03</rscale>
<asrwt>0</asrwt>
<pdfrwt beam="1">  1        4 0.10684159E-01 0.13233925E+03</pdfrwt>
<pdfrwt beam="2">  1       -4 0.29123328E-01 0.13233925E+03</pdfrwt>
<totfact> 0.12506275E+03</totfact>
</mgrwt>
</event>
<event>
 7    1  0.4230786E-006  0.1252550E+03  0.7546771E-02  0.1249762E+00
          3   -1    0    0  501    0  0.00000000000E+00  0.00000000000E+00  0.46893704439E+02  0.46893704439E+02  0.00000000000E+00 0. -1.
         -3   -1    0    0    0  501 -0.00000000000E+00 -0.00000000000E+00 -0.25315582299E+03  0.25315582299E+03  0.00000000000E+00 0.  1.
         23    2    1    2    0    0  0.23983785000E+01  0.81741930655E+01 -0.12727282207E+03  0.17856982791E+03  0.12496496529E+03 0.  0.
          5    1    3    3  502    0  0.22815472590E+02 -0.23316278671E+02  0.11366429799E+02  0.34863740002E+02  0.47000000000E+01 0.  1.
         -5    1    3    3    0  502 -0.20417094090E+02  0.31490471736E+02 -0.13863925187E+03  0.14370608791E+03  0.47000000000E+01 0.  1.
        -11    1    1    2    0    0 -0.12471315850E+02 -0.30610471538E+02  0.54784189178E+01  0.33504443894E+02  0.00000000000E+00 0. -1.
         11    1    1    2    0    0  0.10072937350E+02  0.22436278472E+02 -0.84467715397E+02  0.87975255629E+02  0.00000000000E+00 0.  1.
<mgrwt>
<rscale>  0 0.11604823E+03</rscale>
<asrwt>0</asrwt>
<pdfrwt beam="1">  1        3 0.72144163E-02 0.12525499E+03</pdfrwt>
<pdfrwt beam="2">  1       -3 0.38947048E-01 0.12525499E+03</pdfrwt>
<totfact> 0.18684875E+03</totfact>
</mgrwt>
</event>
<event>
 7    1  0.4230786E-006  0.1320251E+03  0.7546771E-02  0.1237443E+00
         -1   -1    0    0    0  501 -0.00000000000E+00  0.00000000000E+00  0.73196227216E+03  0.73196227216E+03  0.00000000000E+00 0.  1.
          1   -1    0    0  501    0  0.00000000000E+00 -0.00000000000E+00 -0.22258320284E+02  0.22258320284E+02  0.00000000000E+00 0. -1.
         23    2    1    2    0    0  0.55026633581E+01 -0.42131387220E+02  0.54679397976E+03  0.56250713327E+03  0.12500114233E+03 0.  0.
          5    1    3    3  502    0  0.59690149335E+02 -0.22430743104E+02  0.17655324043E+03  0.18777430300E+03  0.47000000000E+01 0. -1.
         -5    1    3    3    0  502 -0.54187485977E+02 -0.19700644117E+02  0.37024073933E+03  0.37473283026E+03  0.47000000000E+01 0. -1.
        -11    1    1    2    0    0 -0.24193808732E+02 -0.10580941783E+02  0.89048570287E+01  0.27867421637E+02  0.00000000000E+00 0. -1.
         11    1    1    2    0    0  0.18691145374E+02  0.52712329003E+02  0.15400511508E+03  0.16384603754E+03  0.00000000000E+00 0.  1.
<mgrwt>
<rscale>  0 0.12349343E+03</rscale>
<asrwt>0</asrwt>
<pdfrwt beam="2">  1        1 0.34243575E-02 0.13202507E+03</pdfrwt>
<pdfrwt beam="1">  1       -1 0.11260956E+00 0.13202507E+03</pdfrwt>
<totfact> 0.21041876E+03</totfact>
</mgrwt>
</event>
<event>
 7    1  0.4230786E-006  0.2277520E+03  0.7546771E-02  0.1130308E+00
          2   -1    0    0  501    0  0.00000000000E+00  0.00000000000E+00  0.21764285464E+03  0.21764285464E+03  0.00000000000E+00 0. -1.
         -2   -1    0    0    0  501 -0.00000000000E+00 -0.00000000000E+00 -0.26860114499E+03  0.26860114499E+03  0.00000000000E+00 0.  1.
         23    2    1    2    0    0  0.19005440921E+03  0.10886640099E+02 -0.12211886103E+03  0.25842600773E+03  0.12502714848E+03 0.  0.
          5    1    3    3  502    0  0.30902384311E+02 -0.24028175453E+02 -0.81350093435E+02  0.90400432928E+02  0.47000000000E+01 0.  1.
         -5    1    3    3    0  502  0.15915202490E+03  0.34914815552E+02 -0.40768767592E+02  0.16802557480E+03  0.47000000000E+01 0.  1.
        -11    1    1    2    0    0 -0.21290541673E+02  0.32710672913E+02  0.28618547796E+02  0.48397278489E+02  0.00000000000E+00 0. -1.
         11    1    1    2    0    0 -0.16876386754E+03 -0.43597313012E+02  0.42542022883E+02  0.17942071341E+03  0.00000000000E+00 0.  1.
<mgrwt>
<rscale>  0 0.22486433E+03</rscale>
<asrwt>0</asrwt>
<pdfrwt beam="1">  1        2 0.33483516E-01 0.22775203E+03</pdfrwt>
<pdfrwt beam="2">  1       -2 0.41323253E-01 0.22775203E+03</pdfrwt>
<totfact> 0.86816000E+02</totfact>
</mgrwt>
</event>
<event>
 6    1  0.4230786E-006  0.1521268E+03  0.7546771E-02  0.1216393E+00
         -1   -1    0    0    0  501 -0.00000000000E+00  0.00000000000E+00  0.35367327907E+02  0.35367327907E+02  0.00000000000E+00 0.  1.
          1   -1    0    0  501    0  0.00000000000E+00 -0.00000000000E+00 -0.48985403418E+03  0.48985403418E+03  0.00000000000E+00 0. -1.
          5    1    1    2  502    0 -0.50461890697E+02 -0.44205154380E+02 -0.16191230770E+03  0.17532308311E+03  0.47000000000E+01 0. -1.
         -5    1    1    2    0  502  0.16581014481E+02  0.64286235542E+02 -0.40597408252E+02  0.77960821430E+02  0.47000000000E+01 0.  1.
        -11    1    1    2    0    0  0.64415584636E+01  0.30206152232E+02 -0.16448393400E+03  0.16735850696E+03  0.00000000000E+00 0.  1.
         11    1    1    2    0    0  0.27439317753E+02 -0.50287233394E+02 -0.87493056321E+02  0.10457895059E+03  0.00000000000E+00 0. -1.
<mgrwt>
<rscale>  0 0.13774730E+03</rscale>
<asrwt>0</asrwt>
<pdfrwt beam="2">  1        1 0.75362164E-01 0.15212676E+03</pdfrwt>
<pdfrwt beam="1">  1       -1 0.54411270E-02 0.15212676E+03</pdfrwt>
<totfact> 0.69374457E+03</totfact>
</mgrwt>
</event>
<event>
 7    1  0.4230786E-006  0.2408761E+03  0.7546771E-02  0.1123372E+00
          1   -1    0    0  501    0  0.00000000000E+00  0.00000000000E+00  0.57636874020E+03  0.57636874020E+03  0.00000000000E+00 0. -1.
         -1   -1    0    0    0  501 -0.00000000000E+00 -0.00000000000E+00 -0.91112491990E+02  0.91112491990E+02  0.00000000000E+00 0.  1.
         23    2    1    2    0    0  0.17865167688E+03 -0.10236572618E+03  0.24270473938E+03  0.34194574946E+03  0.12500456596E+03 0.  0.
          5    1    3    3  502    0  0.15978080685E+03 -0.59220627930E+02  0.11467544191E+03  0.20544959476E+03  0.47000000000E+01 0. -1.
         -5    1    3    3    0  502  0.18870870029E+02 -0.43145098251E+02  0.12802929747E+03  0.13649615470E+03  0.47000000000E+01 0. -1.
        -11    1    1    2    0    0 -0.50893146381E+02 -0.23759399972E+00  0.38385151952E+02  0.63746283734E+02  0.00000000000E+00 0.  1.
         11    1    1    2    0    0 -0.12775853050E+03  0.10260332018E+03  0.20416635688E+03  0.26178919899E+03  0.00000000000E+00 0. -1.
<mgrwt>
<rscale>  0 0.23470451E+03</rscale>
<asrwt>0</asrwt>
<pdfrwt beam="1">  1        1 0.88672112E-01 0.24087612E+03</pdfrwt>
<pdfrwt beam="2">  1       -1 0.14017307E-01 0.24087612E+03</pdfrwt>
<totfact> 0.13314603E+03</totfact>
</mgrwt>
</event>
<event>
 6    1  0.4230786E-006  0.3987320E+03  0.7546771E-02  0.1082752E+00
         -1   -1    0    0    0  501 -0.00000000000E+00  0.00000000000E+00  0.26609947102E+03  0.26609947102E+03  0.00000000000E+00 0.  1.
          1   -1    0    0  501    0  0.00000000000E+00 -0.00000000000E+00 -0.54233822477E+03  0.54233822477E+03  0.00000000000E+00 0. -1.
          5    1    1    2  502    0  0.15462607412E+03  0.36929159416E+02  0.52446225491E+02  0.16746845130E+03  0.47000000000E+01 0. -1.
         -5    1    1    2    0  502 -0.22734366407E+03 -0.72927489506E+02  0.45096340875E+02  0.24302125479E+03  0.47000000000E+01 0.  1.
        -11    1    1    2    0    0 -0.13706667208E+02 -0.19718135496E+02 -0.26494749288E+02  0.35758206516E+02  0.00000000000E+00 0.  1.
         11    1    1    2    0    0  0.86424257166E+02  0.55716465587E+02 -0.34728657083E+03  0.36218978319E+03  0.00000000000E+00 0. -1.
<mgrwt>
<rscale>  0 0.30503248E+03</rscale>
<asrwt>0</asrwt>
<pdfrwt beam="2">  1        1 0.83436649E-01 0.39873205E+03</pdfrwt>
<pdfrwt beam="1">  1       -1 0.40938381E-01 0.39873205E+03</pdfrwt>
<totfact> 0.23883041E+02</totfact>
</mgrwt>
</event>
<event>
 7    1  0.4230786E-006  0.2373322E+03  0.7546771E-02  0.1124578E+00
          3   -1    0    0  501    0  0.00000000000E+00  0.00000000000E+00  0.22761406287E+03  0.22761406287E+03  0.00000000000E+00 0. -1.
         -3   -1    0    0    0  501 -0.00000000000E+00 -0.00000000000E+00 -0.25454500437E+03  0.25454500437E+03  0.00000000000E+00 0.  1.
         23    2    1    2    0    0  0.16261775389E+03 -0.11940353422E+03 -0.88703263510E+02  0.25336699225E+03  0.12499930375E+03 0.  0.
          5    1    3    3  502    0  0.10915101435E+03 -0.10004163510E+03 -0.28507546386E+00  0.14813657197E+03  0.47000000000E+01 0. -1.
         -5    1    3    3    0  502  0.53466739542E+02 -0.19361899124E+02 -0.88418188046E+02  0.10523042028E+03  0.47000000000E+01 0. -1.
        -11    1    1    2    0    0 -0.10424506287E+03  0.36355303554E+02  0.85519625527E+00  0.11040594454E+03  0.00000000000E+00 0. -1.
         11    1    1    2    0    0 -0.58372691016E+02  0.83048230666E+02  0.60917125749E+02  0.11838613045E+03  0.00000000000E+00 0.  1.
<mgrwt>
<rscale>  0 0.23295324E+03</rscale>
<asrwt>0</asrwt>
<pdfrwt beam="1">  1        3 0.35017548E-01 0.23733218E+03</pdfrwt>
<pdfrwt beam="2">  1       -3 0.39160770E-01 0.23733218E+03</pdfrwt>
<totfact> 0.12877470E+02</totfact>
</mgrwt>
</event>
<event>
 7    1  0.4230786E-006  0.1273444E+03  0.7546771E-02  0.1244162E+00
         -2   -1    0    0    0  501 -0.00000000000E+00  0.00000000000E+00  0.19296180868E+03  0.19296180868E+03  0.00000000000E+00 0.  1.
          2   -1    0    0  501    0  0.00000000000E+00 -0.00000000000E+00 -0.67220192915E+02  0.67220192915E+02  0.00000000000E+00 0. -1.
         23    2    1    2    0    0 -0.80279106700E+01 -0.22929674493E+02  0.88541539155E+02  0.15510063719E+03  0.12500554460E+03 0.  0.
          5    1    3    3  502    0 -0.12063981356E+02  0.44031141604E+02  0.72762171706E+02  0.86027348608E+02  0.47000000000E+01 0.  1.
         -5    1    3    3    0  502  0.40360706863E+01 -0.66960816097E+02  0.15779367449E+02  0.69073288586E+02  0.47000000000E+01 0.  1.
        -11    1    1    2    0    0  0.46172491441E+02 -0.80849232588E+00  0.38517186672E+02  0.60134235630E+02  0.00000000000E+00 0.  1.
         11    1    1    2    0    0 -0.38144580771E+02  0.23738166819E+02 -0.13171100590E+01  0.44947128774E+02  0.00000000000E+00 0. -1.
<mgrwt>
<rscale>  0 0.11935682E+03</rscale>
<asrwt>0</asrwt>
<pdfrwt beam="2">  1        2 0.10341568E-01 0.12734443E+03</pdfrwt>
<pdfrwt beam="1">  1       -2 0.29686432E-01 0.12734443E+03</pdfrwt>
<totfact> 0.60406161E+03</totfact>
</mgrwt>
</event>
<event>
 7    1  0.4230786E-006  0.1250474E+03  0.7546771E-02  0.1250895E+00
          1   -1    0    0  501    0  0.00000000000E+00  0.00000000000E+00  0.71347564429E+02  0.71347564429E+02  0.00000000000E+00 0. -1.
         -1   -1    0    0    0  501 -0.00000000000E+00 -0.00000000000E+00 -0.18562456908E+03  0.18562456908E+03  0.00000000000E+00 0.  1.
         23    2    1    2    0    0  0.21628624849E+01 -0.26084874315E+01 -0.10942304306E+03  0.16616336853E+03  0.12500152202E+03 0.  0.
          5    1    3    3  502    0 -0.46007250394E+02 -0.23552566415E+02 -0.89131680406E+01  0.52658570414E+02  0.47000000000E+01 0.  1.
         -5    1    3    3    0  502  0.48170112879E+02  0.20944078983E+02 -0.10050987502E+03  0.11350479812E+03  0.47000000000E+01 0.  1.
        -11    1    1    2    0    0  0.21843131096E+02  0.10685624056E+02  0.35580634282E+02  0.43096246629E+02  0.00000000000E+00 0. -1.
         11    1    1    2    0    0 -0.24005993581E+02 -0.80771366247E+01 -0.40434595874E+02  0.47712518351E+02  0.00000000000E+00 0.  1.
<mgrwt>
<rscale>  0 0.11539387E+03</rscale>
<asrwt>0</asrwt>
<pdfrwt beam="1">  1        1 0.10976548E-01 0.12504744E+03</pdfrwt>
<pdfrwt beam="2">  1       -1 0.28557626E-01 0.12504744E+03</pdfrwt>
<totfact> 0.59405282E+03</totfact>
</mgrwt>
</event>
<event>
 7    1  0.4230786E-006  0.1283347E+03  0.7546771E-02  0.1243957E+00
          1   -1    0    0  501    0  0.00000000000E+00  0.00000000000E+00  0.24405516405E+03  0.24405516405E+03  0.00000000000E+00 0. -1.
         -1   -1    0    0    0  501 -0.00000000000E+00 -0.00000000000E+00 -0.58447726976E+02  0.58447726976E+02  0.00000000000E+00 0.  1.
         23    2    1    2    0    0 -0.38003467002E+01  0.28797976671E+02  0.53706474369E+02  0.13911927681E+03  0.12500408671E+03 0.  0.
          5    1    3    3  502    0 -0.19397168996E+02  0.46409980684E+02  0.85488015910E+02  0.99299684473E+02  0.47000000000E+01 0. -1.
         -5    1    3    3    0  502  0.15596822296E+02 -0.17612004014E+02 -0.31781541541E+02  0.39819592336E+02  0.47000000000E+01 0. -1.
        -11    1    1    2    0    0 -0.24164753846E+02 -0.39866811614E+02  0.26177734116E+02  0.53465612876E+02  0.00000000000E+00 0.  1.
         11    1    1    2    0    0  0.27965100546E+02  0.11068834944E+02  0.10572322859E+03  0.10991800134E+03  0.00000000000E+00 0. -1.
<mgrwt>
<rscale>  0 0.11948049E+03</rscale>
<asrwt>0</asrwt>
<pdfrwt beam="1">  1        1 0.37546948E-01 0.12833467E+03</pdfrwt>
<pdfrwt beam="2">  1       -1 0.89919581E-02 0.12833467E+03</pdfrwt>
<totfact> 0.77352960E+03</totfact>
</mgrwt>
</event>
<event>
 7    1  0.4230786E-006  0.1301990E+03  0.7546771E-02  0.1241045E+00
          1   -1    0    0  501    0  0.00000000000E+00  0.00000000000E+00  0.19727200619E+03  0.19727200619E+03  0.00000000000E+00 0. -1.
         -1   -1    0    0    0  501 -0.00000000000E+00 -0.00000000000E+00 -0.67245838859E+02  0.67245838859E+02  0.00000000000E+00 0.  1.
         23    2    1    2    0    0 -0.17282151723E+02 -0.32112405623E+02  0.55898645332E+02  0.14169139329E+03  0.12498765147E+03 0.  0.
          5    1    3    3  502    0 -0.59586768395E+02 -0.53514411968E+02  0.47734295900E+02  0.93354315707E+02  0.47000000000E+01 0. -1.
         -5    1    3    3    0  502  0.42304616673E+02  0.21402006345E+02  0.81643494319E+01  0.48337077581E+02  0.47000000000E+01 0. -1.
        -11    1    1    2    0    0 -0.22220084579E+02  0.44246099002E+02  0.17061128800E+02  0.52369185134E+02  0.00000000000E+00 0.  1.
         11    1    1    2    0    0  0.39502236302E+02 -0.12133693379E+02  0.57066393196E+02  0.70457266625E+02  0.00000000000E+00 0. -1.
<mgrwt>
<rscale>  0 0.12125269E+03</rscale>
<asrwt>0</asrwt>
<pdfrwt beam="1">  1        1 0.30349539E-01 0.13019905E+03</pdfrwt>
<pdfrwt beam="2">  1       -1 0.10345514E-01 0.13019905E+03</pdfrwt>
<totfact> 0.81412475E+03</totfact>
</mgrwt>
</event>
<event>
 7    1  0.4230786E-006  0.1179866E+03  0.7546771E-02  0.1256549E+00
          1   -1    0    0  501    0  0.00000000000E+00  0.00000000000E+00  0.63451860760E+02  0.63451860760E+02  0.00000000000E+00 0. -1.
         -1   -1    0    0    0  501 -0.00000000000E+00 -0.00000000000E+00 -0.29292070823E+03  0.29292070823E+03  0.00000000000E+00 0.  1.
         23    2    1    2    0    0 -0.69442356625E+01 -0.30301944417E+02 -0.23153373604E+03  0.25986285353E+03  0.11381740411E+03 0.  0.
          5    1    3    3  502    0  0.10748229130E+02 -0.44088230677E+02 -0.24924767221E+02  0.51986830397E+02  0.47000000000E+01 0. -1.
         -5    1    3    3    0  502 -0.17692464792E+02  0.13786286260E+02 -0.20660896882E+03  0.20787602313E+03  0.47000000000E+01 0.  1.
        -11    1    1    2    0    0 -0.11934484263E+02 -0.27084340422E+02 -0.15748603523E+02  0.33526287054E+02  0.00000000000E+00 0.  1.
         11    1    1    2    0    0  0.18878719926E+02  0.57386284839E+02  0.17813492087E+02  0.62983428407E+02  0.00000000000E+00 0. -1.
<mgrwt>
<rscale>  0 0.11219987E+03</rscale>
<asrwt>0</asrwt>
<pdfrwt beam="1">  1        1 0.97618246E-02 0.11798657E+03</pdfrwt>
<pdfrwt beam="2">  1       -1 0.45064725E-01 0.11798657E+03</pdfrwt>
<totfact> 0.31522950E+03</totfact>
</mgrwt>
</event>
<event>
 7    1  0.4230786E-006  0.1557216E+03  0.7546771E-02  0.1201843E+00
         -1   -1    0    0    0  501 -0.00000000000E+00  0.00000000000E+00  0.19141950900E+03  0.19141950900E+03  0.00000000000E+00 0.  1.
          1   -1    0    0  501    0  0.00000000000E+00 -0.00000000000E+00 -0.15931373042E+03  0.15931373042E+03  0.00000000000E+00 0. -1.
         23    2    1    2    0    0 -0.73627963679E+02 -0.56575232435E+02  0.11749839175E+03  0.19507712931E+03  0.12500952107E+03 0.  0.
          5    1    3    3  502    0 -0.81201413802E+02 -0.80232063046E+02  0.53280672103E+02  0.12606257797E+03  0.47000000000E+01 0. -1.
         -5    1    3    3    0  502  0.75734501232E+01  0.23656830611E+02  0.64217719643E+02  0.69014551346E+02  0.47000000000E+01 0. -1.
        -11    1    1    2    0    0  0.30333788427E+02 -0.21878678169E+02 -0.41533118455E+02  0.55891101325E+02  0.00000000000E+00 0. -1.
         11    1    1    2    0    0  0.43294175252E+02  0.78453910604E+02 -0.43859494718E+02  0.99765008779E+02  0.00000000000E+00 0.  1.
<mgrwt>
<rscale>  0 0.14889014E+03</rscale>
<asrwt>0</asrwt>
<pdfrwt beam="2">  1        1 0.24509805E-01 0.15572159E+03</pdfrwt>
<pdfrwt beam="1">  1       -1 0.29449155E-01 0.15572159E+03</pdfrwt>
<totfact> 0.20284615E+03</totfact>
</mgrwt>
</event>
<event>
 7    1  0.4230786E-006  0.1720596E+03  0.7546771E-02  0.1181222E+00
          1   -1    0    0  501    0  0.00000000000E+00  0.00000000000E+00  0.20637652350E+02  0.20637652350E+02  0.00000000000E+00 0. -1.
         -1   -1    0    0    0  501 -0.00000000000E+00 -0.00000000000E+00 -0.24064020162E+04  0.24064020162E+04  0.00000000000E+00 0.  1.
         23    2    1    2    0    0 -0.11822756206E+03  0.15619080954E+01 -0.20642991732E+04  0.20714573539E+04  0.12499718713E+03 0.  0.
          5    1    3    3  502    0 -0.32570021949E+02 -0.57272052156E+02 -0.65404027153E+03  0.65736721935E+03  0.47000000000E+01 0. -1.
         -5    1    3    3    0  502 -0.85657540114E+02  0.58833960251E+02 -0.14102589017E+04  0.14140901346E+04  0.47000000000E+01 0. -1.
        -11    1    1    2    0    0  0.10441408093E+03 -0.32314624249E+02 -0.28816004700E+03  0.30819271231E+03  0.00000000000E+00 0.  1.
         11    1    1    2    0    0  0.13813481130E+02  0.30752716154E+02 -0.33305143692E+02  0.47389602321E+02  0.00000000000E+00 0. -1.
<mgrwt>
<rscale>  0 0.16680461E+03</rscale>
<asrwt>0</asrwt>
<pdfrwt beam="1">  1        1 0.31750230E-02 0.17205956E+03</pdfrwt>
<pdfrwt beam="2">  1       -1 0.37021575E+00 0.17205956E+03</pdfrwt>
<totfact> 0.44452185E+01</totfact>
</mgrwt>
</event>
<event>
 7    1  0.4230786E-006  0.1760446E+03  0.7546771E-02  0.1177029E+00
          2   -1    0    0  501    0  0.00000000000E+00  0.00000000000E+00  0.13794257366E+04  0.13794257366E+04  0.00000000000E+00 0.  1.
         -2   -1    0    0    0  501 -0.00000000000E+00 -0.00000000000E+00 -0.20062014473E+02  0.20062014473E+02  0.00000000000E+00 0. -1.
         23    2    1    2    0    0  0.10260602220E+01  0.12395411361E+03  0.67449836107E+03  0.69709377831E+03  0.12500408630E+03 0.  0.
          5    1    3    3  502    0 -0.45899622527E+02  0.91281404391E+02  0.27325729530E+03  0.29177167370E+03  0.47000000000E+01 0.  1.
         -5    1    3    3    0  502  0.46925682749E+02  0.32672709220E+02  0.40124106577E+03  0.40532210461E+03  0.47000000000E+01 0.  1.
        -11    1    1    2    0    0 -0.26486653538E+02 -0.15189723525E+02  0.56937114823E+02  0.64607318167E+02  0.00000000000E+00 0. -1.
         11    1    1    2    0    0  0.25460593316E+02 -0.10876439009E+03  0.62792824628E+03  0.63778665464E+03  0.00000000000E+00 0.  1.
<mgrwt>
<rscale>  0 0.17078714E+03</rscale>
<asrwt>0</asrwt>
<pdfrwt beam="1">  1        2 0.21221927E+00 0.17604459E+03</pdfrwt>
<pdfrwt beam="2">  1       -2 0.30864648E-02 0.17604459E+03</pdfrwt>
<totfact> 0.63616168E+03</totfact>
</mgrwt>
</event>
<event>
 7    1  0.4230786E-006  0.2143139E+03  0.7546771E-02  0.1141160E+00
          2   -1    0    0  501    0  0.00000000000E+00  0.00000000000E+00  0.44169624919E+03  0.44169624919E+03  0.00000000000E+00 0.  1.
         -2   -1    0    0    0  501 -0.00000000000E+00 -0.00000000000E+00 -0.97890344912E+02  0.97890344912E+02  0.00000000000E+00 0. -1.
         23    2    1    2    0    0 -0.64500740275E+02  0.16169316355E+03  0.15126855269E+03  0.26232160378E+03  0.12500169656E+03 0.  0.
          5    1    3    3  502    0 -0.19213231676E+02  0.84296584629E+02  0.20696916943E+00  0.86586345851E+02  0.47000000000E+01 0. -1.
         -5    1    3    3    0  502 -0.45287508598E+02  0.77396578919E+02  0.15106158352E+03  0.17573525793E+03  0.47000000000E+01 0. -1.
        -11    1    1    2    0    0  0.56461897608E+02 -0.17282778090E+03  0.16095061546E+03  0.24282192725E+03  0.00000000000E+00 0. -1.
         11    1    1    2    0    0  0.80388426666E+01  0.11134617355E+02  0.31586736127E+02  0.34443063078E+02  0.00000000000E+00 0.  1.
<mgrwt>
<rscale>  0 0.21051367E+03</rscale>
<asrwt>0</asrwt>
<pdfrwt beam="1">  1        2 0.67953268E-01 0.21431390E+03</pdfrwt>
<pdfrwt beam="2">  1       -2 0.15060053E-01 0.21431390E+03</pdfrwt>
<totfact> 0.24109038E+03</totfact>
</mgrwt>
</event>
<event>
 7    1  0.4230786E-006  0.1618360E+03  0.7546771E-02  0.1193837E+00
         -2   -1    0    0    0  501 -0.00000000000E+00  0.00000000000E+00  0.26613181323E+03  0.26613181323E+03  0.00000000000E+00 0.  1.
          2   -1    0    0  501    0  0.00000000000E+00 -0.00000000000E+00 -0.84769665009E+02  0.84769665009E+02  0.00000000000E+00 0. -1.
         23    2    1    2    0    0 -0.67833647752E+00  0.10278896067E+03  0.10806060218E+03  0.19459701455E+03  0.12499949501E+03 0.  0.
          5    1    3    3  502    0 -0.19333875473E+01 -0.83973750917E+01 -0.21598428552E+02  0.23724165144E+02  0.47000000000E+01 0. -1.
         -5    1    3    3    0  502  0.12550510698E+01  0.11118633576E+03  0.12965903074E+03  0.17087284941E+03  0.47000000000E+01 0. -1.
        -11    1    1    2    0    0  0.21995706995E+02 -0.31360216151E+01  0.45559451216E+02  0.50688355200E+02  0.00000000000E+00 0.  1.
         11    1    1    2    0    0 -0.21317370518E+02 -0.99652939051E+02  0.27742094819E+02  0.10561610849E+03  0.00000000000E+00 0. -1.
<mgrwt>
<rscale>  0 0.15553066E+03</rscale>
<asrwt>0</asrwt>
<pdfrwt beam="2">  1        2 0.13041487E-01 0.16183604E+03</pdfrwt>
<pdfrwt beam="1">  1       -2 0.40943356E-01 0.16183604E+03</pdfrwt>
<totfact> 0.25575246E+03</totfact>
</mgrwt>
</event>
<event>
 7    1  0.4230786E-006  0.2485183E+03  0.7546771E-02  0.1116794E+00
          2   -1    0    0  501    0  0.00000000000E+00  0.00000000000E+00  0.12707237936E+04  0.12707237936E+04  0.00000000000E+00 0. -1.
         -2   -1    0    0    0  501 -0.00000000000E+00 -0.00000000000E+00 -0.48697862782E+02  0.48697862782E+02  0.00000000000E+00 0.  1.
         23    2    1    2    0    0  0.21458757689E+03  0.93703063892E+01  0.46376386163E+03  0.52615422140E+03  0.12500285816E+03 0.  0.
          5    1    3    3  502    0  0.23615858730E+02 -0.25884566613E+02  0.17505711978E+02  0.39449455309E+02  0.47000000000E+01 0. -1.
         -5    1    3    3    0  502  0.19097171816E+03  0.35254873002E+02  0.44625814965E+03  0.48670476609E+03  0.47000000000E+01 0. -1.
        -11    1    1    2    0    0 -0.98065140094E+02 -0.39837772348E+02  0.45074126518E+03  0.46300270836E+03  0.00000000000E+00 0. -1.
         11    1    1    2    0    0 -0.11652243679E+03  0.30467465958E+02  0.30752080402E+03  0.33026472664E+03  0.00000000000E+00 0.  1.
<mgrwt>
<rscale>  0 0.24455729E+03</rscale>
<asrwt>0</asrwt>
<pdfrwt beam="1">  1        2 0.19549594E+00 0.24851830E+03</pdfrwt>
<pdfrwt beam="2">  1       -2 0.74919798E-02 0.24851830E+03</pdfrwt>
<totfact> 0.19099784E+03</totfact>
</mgrwt>
</event>
<event>
 7    1  0.4230786E-006  0.1386663E+03  0.7546771E-02  0.1227692E+00
          1   -1    0    0  501    0  0.00000000000E+00  0.00000000000E+00  0.50777145329E+03  0.50777145329E+03  0.00000000000E+00 0. -1.
         -1   -1    0    0    0  501 -0.00000000000E+00 -0.00000000000E+00 -0.33868386596E+02  0.33868386596E+02  0.00000000000E+00 0.  1.
         23    2    1    2    0    0 -0.27614932508E+02  0.53332484711E+02  0.16880681445E+03  0.21845843697E+03  0.12498563780E+03 0.  0.
          5    1    3    3  502    0 -0.33970230700E+02  0.11419675908E+02  0.17193402065E+03  0.17569229644E+03  0.47000000000E+01 0.  1.
         -5    1    3    3    0  502  0.63552981919E+01  0.41912808803E+02 -0.31272062030E+01  0.42766140526E+02  0.47000000000E+01 0.  1.
        -11    1    1    2    0    0 -0.27642202874E+02 -0.15170528320E+01  0.50939020788E+02  0.57975655821E+02  0.00000000000E+00 0.  1.
         11    1    1    2    0    0  0.55257135382E+02 -0.51815431879E+02  0.25415723146E+03  0.26520574710E+03  0.00000000000E+00 0. -1.
<mgrwt>
<rscale>  0 0.12984118E+03</rscale>
<asrwt>0</asrwt>
<pdfrwt beam="1">  1        1 0.78118679E-01 0.13866632E+03</pdfrwt>
<pdfrwt beam="2">  1       -1 0.52105214E-02 0.13866632E+03</pdfrwt>
<totfact> 0.70205967E+03</totfact>
</mgrwt>
</event>
<event>
 7    1  0.4230786E-006  0.2033876E+03  0.7546771E-02  0.1151123E+00
          4   -1    0    0  501    0  0.00000000000E+00  0.00000000000E+00  0.17977060895E+03  0.17977060895E+03  0.00000000000E+00 0. -1.
         -4   -1    0    0    0  501 -0.00000000000E+00 -0.00000000000E+00 -0.24309494963E+03  0.24309494963E+03  0.00000000000E+00 0.  1.
         23    2    1    2    0    0 -0.61679066542E+02 -0.14811219487E+03 -0.11241640130E+03  0.23238754904E+03  0.12499998460E+03 0.  0.
          5    1    3    3  502    0 -0.60902222836E+02 -0.20556624330E+02 -0.76003761741E+02  0.99650977661E+02  0.47000000000E+01 0. -1.
         -5    1    3    3    0  502 -0.77684370639E+00 -0.12755557054E+03 -0.36412639557E+02  0.13273657138E+03  0.47000000000E+01 0. -1.
        -11    1    1    2    0    0  0.37726812541E+01  0.46533666432E+02 -0.24094646873E+02  0.52537293834E+02  0.00000000000E+00 0.  1.
         11    1    1    2    0    0  0.57906385288E+02  0.10157852844E+03  0.73186707491E+02  0.13794071571E+03  0.00000000000E+00 0. -1.
<mgrwt>
<rscale>  0 0.19836874E+03</rscale>
<asrwt>0</asrwt>
<pdfrwt beam="1">  1        4 0.27657017E-01 0.20338762E+03</pdfrwt>
<pdfrwt beam="2">  1       -4 0.37399223E-01 0.20338762E+03</pdfrwt>
<totfact> 0.15344917E+02</totfact>
</mgrwt>
</event>
<event>
 7    1  0.4230786E-006  0.1400382E+03  0.7546771E-02  0.1224098E+00
          1   -1    0    0  501    0  0.00000000000E+00  0.00000000000E+00  0.52974704042E+03  0.52974704042E+03  0.00000000000E+00 0. -1.
         -1   -1    0    0    0  501 -0.00000000000E+00 -0.00000000000E+00 -0.32050806155E+02  0.32050806155E+02  0.00000000000E+00 0.  1.
         23    2    1    2    0    0 -0.61846822643E+02  0.12679315886E+02  0.20220777641E+03  0.24596479177E+03  0.12499959772E+03 0.  0.
          5    1    3    3  502    0 -0.70459686529E+01  0.61754998956E+02  0.64064027780E+02  0.89384647595E+02  0.47000000000E+01 0. -1.
         -5    1    3    3    0  502 -0.54800853990E+02 -0.49075683070E+02  0.13814374863E+03  0.15658014418E+03  0.47000000000E+01 0. -1.
        -11    1    1    2    0    0 -0.22526133430E+02  0.57932369678E+01  0.41675957828E+02  0.47727075573E+02  0.00000000000E+00 0.  1.
         11    1    1    2    0    0  0.84372956072E+02 -0.18472552854E+02  0.25381250003E+03  0.26810597922E+03  0.00000000000E+00 0. -1.
<mgrwt>
<rscale>  0 0.13228930E+03</rscale>
<asrwt>0</asrwt>
<pdfrwt beam="1">  1        1 0.81499538E-01 0.14003819E+03</pdfrwt>
<pdfrwt beam="2">  1       -1 0.49308937E-02 0.14003819E+03</pdfrwt>
<totfact> 0.72095795E+03</totfact>
</mgrwt>
</event>
<event>
 7    1  0.4230786E-006  0.1295465E+03  0.7546771E-02  0.1240690E+00
         -4   -1    0    0    0  501 -0.00000000000E+00  0.00000000000E+00  0.52368385309E+02  0.52368385309E+02  0.00000000000E+00 0.  1.
          4   -1    0    0  501    0  0.00000000000E+00 -0.00000000000E+00 -0.25376337295E+03  0.25376337295E+03  0.00000000000E+00 0. -1.
         23    2    1    2    0    0 -0.33943527995E+02 -0.11546897912E+01 -0.10032019781E+03  0.16384879769E+03  0.12501515913E+03 0.  0.
          5    1    3    3  502    0 -0.81102201741E+02  0.81261558522E+00 -0.54007539569E+02  0.97555788150E+02  0.47000000000E+01 0. -1.
         -5    1    3    3    0  502  0.47158673746E+02 -0.19673053764E+01 -0.46312658240E+02  0.66293009535E+02  0.47000000000E+01 0. -1.
        -11    1    1    2    0    0  0.27690582726E+02  0.46410761522E+02 -0.61160271048E+02  0.81616823703E+02  0.00000000000E+00 0. -1.
         11    1    1    2    0    0  0.62529452684E+01 -0.45256071731E+02 -0.39914518787E+02  0.60666136873E+02  0.00000000000E+00 0.  1.
<mgrwt>
<rscale>  0 0.12147104E+03</rscale>
<asrwt>0</asrwt>
<pdfrwt beam="2">  1        4 0.39040520E-01 0.12954646E+03</pdfrwt>
<pdfrwt beam="1">  1       -4 0.80566745E-02 0.12954646E+03</pdfrwt>
<totfact> 0.11377300E+03</totfact>
</mgrwt>
</event>
<event>
 7    1  0.4230786E-006  0.4152453E+03  0.7546771E-02  0.1039062E+00
         -3   -1    0    0    0  501 -0.00000000000E+00  0.00000000000E+00  0.43241030589E+03  0.43241030589E+03  0.00000000000E+00 0.  1.
          3   -1    0    0  501    0  0.00000000000E+00 -0.00000000000E+00 -0.50071527920E+03  0.50071527920E+03  0.00000000000E+00 0. -1.
         23    2    1    2    0    0  0.23326995546E+03 -0.32442288269E+03  0.18134028434E+03  0.45311474878E+03  0.11297609440E+03 0.  0.
          5    1    3    3  502    0  0.21544640819E+03 -0.25240200013E+03  0.18252508881E+03  0.37876301630E+03  0.47000000000E+01 0.  1.
         -5    1    3    3    0  502  0.17823547267E+02 -0.72020882554E+02 -0.11848044616E+01  0.74351732479E+02  0.47000000000E+01 0. -1.
        -11    1    1    2    0    0  0.46869246161E+01  0.34874217219E+02 -0.20295781468E+02  0.40621386416E+02  0.00000000000E+00 0.  1.
         11    1    1    2    0    0 -0.23795688007E+03  0.28954866547E+03 -0.22934947619E+03  0.43938944990E+03  0.00000000000E+00 0. -1.
<mgrwt>
<rscale>  0 0.41392393E+03</rscale>
<asrwt>0</asrwt>
<pdfrwt beam="2">  1        3 0.77033120E-01 0.41524532E+03</pdfrwt>
<pdfrwt beam="1">  1       -3 0.66524663E-01 0.41524532E+03</pdfrwt>
<totfact> 0.89689063E+00</totfact>
</mgrwt>
</event>
<event>
 6    1  0.4230786E-006  0.2297913E+03  0.7546771E-02  0.1164879E+00
          1   -1    0    0  501    0  0.00000000000E+00  0.00000000000E+00  0.96642064952E+02  0.96642064952E+02  0.00000000000E+00 0. -1.
         -1   -1    0    0    0  501 -0.00000000000E+00 -0.00000000000E+00 -0.74485969011E+03  0.74485969011E+03  0.00000000000E+00 0.  1.
          5    1    1    2  502    0  0.49391265499E+02 -0.77233196906E+02 -0.12016252392E+03  0.15121370959E+03  0.47000000000E+01 0. -1.
         -5    1    1    2    0  502 -0.55484685519E+02  0.59880394565E+02 -0.57893736863E+03  0.58468348598E+03  0.47000000000E+01 0.  1.
        -11    1    1    2    0    0 -0.22188846370E+02 -0.29594262956E+02  0.27127608630E+02  0.45870169535E+02  0.00000000000E+00 0.  1.
         11    1    1    2    0    0  0.28282266389E+02  0.46947065297E+02  0.23754658757E+02  0.59734389967E+02  0.00000000000E+00 0. -1.
<mgrwt>
<rscale>  0 0.18305449E+03</rscale>
<asrwt>0</asrwt>
<pdfrwt beam="1">  1        1 0.14868009E-01 0.22979126E+03</pdfrwt>
<pdfrwt beam="2">  1       -1 0.11459380E+00 0.22979126E+03</pdfrwt>
<totfact> 0.27950549E+02</totfact>
</mgrwt>
</event>
<event>
 7    1  0.4230786E-006  0.1258780E+03  0.7546771E-02  0.1246875E+00
         -2   -1    0    0    0  501 -0.00000000000E+00  0.00000000000E+00  0.64080732732E+02  0.64080732732E+02  0.00000000000E+00 0.  1.
          2   -1    0    0  501    0  0.00000000000E+00 -0.00000000000E+00 -0.19460178902E+03  0.19460178902E+03  0.00000000000E+00 0. -1.
         23    2    1    2    0    0 -0.58631670293E+01  0.13663828795E+02 -0.61033063571E+02  0.13989390921E+03  0.12499677611E+03 0.  0.
          5    1    3    3  502    0 -0.61078316496E+02  0.24538746991E+02 -0.48898144691E+02  0.82132998265E+02  0.47000000000E+01 0.  1.
         -5    1    3    3    0  502  0.55215149467E+02 -0.10874918196E+02 -0.12134918880E+02  0.57760910940E+02  0.47000000000E+01 0.  1.
        -11    1    1    2    0    0 -0.30810693911E+02  0.47756944489E+01 -0.71175910248E+02  0.77705317170E+02  0.00000000000E+00 0. -1.
         11    1    1    2    0    0  0.36673860941E+02 -0.18439523244E+02  0.16879175276E+01  0.41083295381E+02  0.00000000000E+00 0.  1.
<mgrwt>
<rscale>  0 0.11773849E+03</rscale>
<asrwt>0</asrwt>
<pdfrwt beam="2">  1        2 0.29938737E-01 0.12587800E+03</pdfrwt>
<pdfrwt beam="1">  1       -2 0.98585743E-02 0.12587800E+03</pdfrwt>
<totfact> 0.11156642E+04</totfact>
</mgrwt>
</event>
<event>
 7    1  0.4230786E-006  0.1783722E+03  0.7546771E-02  0.1175188E+00
         -1   -1    0    0    0  501 -0.00000000000E+00  0.00000000000E+00  0.30057028847E+03  0.30057028847E+03  0.00000000000E+00 0. -1.
          1   -1    0    0  501    0  0.00000000000E+00 -0.00000000000E+00 -0.13094454971E+03  0.13094454971E+03  0.00000000000E+00 0.  1.
         23    2    1    2    0    0  0.29077383438E+02 -0.12390293999E+03  0.20451950211E+03  0.27137586668E+03  0.12497680387E+03 0.  0.
          5    1    3    3  502    0  0.23340892322E+02  0.86291974203E+01  0.97889050866E+02  0.10111190129E+03  0.47000000000E+01 0.  1.
         -5    1    3    3    0  502  0.57364911158E+01 -0.13253213742E+03  0.10663045125E+03  0.17026396539E+03  0.47000000000E+01 0.  1.
        -11    1    1    2    0    0 -0.48427862152E+02  0.56623808596E+02 -0.48390219244E+02  0.88843271276E+02  0.00000000000E+00 0.  1.
         11    1    1    2    0    0  0.19350478715E+02  0.67279131399E+02  0.13496455894E+02  0.71295700221E+02  0.00000000000E+00 0. -1.
<mgrwt>
<rscale>  0 0.17257541E+03</rscale>
<asrwt>0</asrwt>
<pdfrwt beam="2">  1        1 0.20145315E-01 0.17837218E+03</pdfrwt>
<pdfrwt beam="1">  1       -1 0.46241583E-01 0.17837218E+03</pdfrwt>
<totfact> 0.11908836E+03</totfact>
</mgrwt>
</event>
<event>
 7    1  0.4230786E-006  0.1710178E+03  0.7546771E-02  0.1183130E+00
         -2   -1    0    0    0  501 -0.00000000000E+00  0.00000000000E+00  0.86251201712E+03  0.86251201712E+03  0.00000000000E+00 0.  1.
          2   -1    0    0  501    0  0.00000000000E+00 -0.00000000000E+00 -0.30020976338E+02  0.30020976338E+02  0.00000000000E+00 0. -1.
         23    2    1    2    0    0 -0.10842528934E+03 -0.43200499034E+02  0.50085616597E+03  0.52924850730E+03  0.12499902800E+03 0.  0.
          5    1    3    3  502    0  0.23688571316E+02 -0.14549234863E+02  0.39906403448E+02  0.48861433485E+02  0.47000000000E+01 0. -1.
         -5    1    3    3    0  502 -0.13211386066E+03 -0.28651264171E+02  0.46094976253E+03  0.48038707382E+03  0.47000000000E+01 0. -1.
        -11    1    1    2    0    0  0.39508690380E+02 -0.28479668343E+02  0.10113393169E+03  0.11225016821E+03  0.00000000000E+00 0. -1.
         11    1    1    2    0    0  0.68916598963E+02  0.71680167377E+02  0.23050094311E+03  0.25103431794E+03  0.00000000000E+00 0.  1.
<mgrwt>
<rscale>  0 0.16503225E+03</rscale>
<asrwt>0</asrwt>
<pdfrwt beam="2">  1        2 0.46186124E-02 0.17101779E+03</pdfrwt>
<pdfrwt beam="1">  1       -2 0.13269414E+00 0.17101779E+03</pdfrwt>
<totfact> 0.74458118E+02</totfact>
</mgrwt>
</event>
<event>
 7    1  0.4230786E-006  0.1689139E+03  0.7546771E-02  0.1185596E+00
         -1   -1    0    0    0  501 -0.00000000000E+00  0.00000000000E+00  0.44729696928E+03  0.44729696928E+03  0.00000000000E+00 0.  1.
          1   -1    0    0  501    0  0.00000000000E+00 -0.00000000000E+00 -0.56829481988E+02  0.56829481988E+02  0.00000000000E+00 0. -1.
         23    2    1    2    0    0  0.10744135130E+03 -0.36927862963E+02  0.25034040501E+03  0.30199704774E+03  0.12499834973E+03 0.  0.
          5    1    3    3  502    0  0.33487906972E+01 -0.55432847574E+02  0.47580818980E+02  0.73280552155E+02  0.47000000000E+01 0.  1.
         -5    1    3    3    0  502  0.10409256060E+03  0.18504984611E+02  0.20275958603E+03  0.22871649559E+03  0.47000000000E+01 0.  1.
        -11    1    1    2    0    0  0.49075684196E+01 -0.16877920998E+02  0.48478750801E+01  0.18233220720E+02  0.00000000000E+00 0. -1.
         11    1    1    2    0    0 -0.11234891972E+03  0.53805783961E+02  0.13527920721E+03  0.18389618281E+03  0.00000000000E+00 0.  1.
<mgrwt>
<rscale>  0 0.16277734E+03</rscale>
<asrwt>0</asrwt>
<pdfrwt beam="2">  1        1 0.87429975E-02 0.16891388E+03</pdfrwt>
<pdfrwt beam="1">  1       -1 0.68814916E-01 0.16891388E+03</pdfrwt>
<totfact> 0.16802884E+03</totfact>
</mgrwt>
</event>
<event>
 7    1  0.4230786E-006  0.1338840E+03  0.7546771E-02  0.1232415E+00
          1   -1    0    0  501    0  0.00000000000E+00  0.00000000000E+00  0.76894736608E+02  0.76894736608E+02  0.00000000000E+00 0. -1.
         -1   -1    0    0    0  501 -0.00000000000E+00 -0.00000000000E+00 -0.18940862206E+03  0.18940862206E+03  0.00000000000E+00 0.  1.
         23    2    1    2    0    0 -0.15951454721E+02 -0.45225014223E+02 -0.59516217761E+02  0.14651653735E+03  0.12500065889E+03 0.  0.
          5    1    3    3  502    0  0.26786792876E+01 -0.38980996409E+02  0.33284216870E+02  0.51542433939E+02  0.47000000000E+01 0. -1.
         -5    1    3    3    0  502 -0.18630134009E+02 -0.62440178147E+01 -0.92800434631E+02  0.94974103414E+02  0.47000000000E+01 0. -1.
        -11    1    1    2    0    0  0.42336009257E+02  0.60915810380E+01 -0.58284245662E+02  0.72294524909E+02  0.00000000000E+00 0.  1.
         11    1    1    2    0    0 -0.26384554536E+02  0.39133433185E+02  0.52865779748E+01  0.47492296403E+02  0.00000000000E+00 0. -1.
<mgrwt>
<rscale>  0 0.12671346E+03</rscale>
<asrwt>0</asrwt>
<pdfrwt beam="1">  1        1 0.11829960E-01 0.13388396E+03</pdfrwt>
<pdfrwt beam="2">  1       -1 0.29139788E-01 0.13388396E+03</pdfrwt>
<totfact> 0.52304198E+03</totfact>
</mgrwt>
</event>
<event>
 7    1  0.4230786E-006  0.1669297E+03  0.7546771E-02  0.1188021E+00
         -2   -1    0    0    0  501 -0.00000000000E+00  0.00000000000E+00  0.54854978038E+02  0.54854978038E+02  0.00000000000E+00 0. -1.
          2   -1    0    0  501    0  0.00000000000E+00 -0.00000000000E+00 -0.52519422056E+03  0.52519422056E+03  0.00000000000E+00 0.  1.
         23    2    1    2    0    0  0.86957367908E+02  0.68355729974E+02 -0.13229418038E+03  0.21299592156E+03  0.12502568851E+03 0.  0.
          5    1    3    3  502    0  0.54128500833E+02  0.33564426157E+02 -0.14900050138E+03  0.16211016229E+03  0.47000000000E+01 0.  1.
         -5    1    3    3    0  502  0.32828867076E+02  0.34791303816E+02  0.16706321008E+02  0.50885759269E+02  0.47000000000E+01 0.  1.
        -11    1    1    2    0    0 -0.12590161942E+02 -0.46758591896E+02 -0.53507743636E+02  0.72166174368E+02  0.00000000000E+00 0. -1.
         11    1    1    2    0    0 -0.74367205966E+02 -0.21597138077E+02 -0.28453731851E+03  0.29488710268E+03  0.00000000000E+00 0.  1.
<mgrwt>
<rscale>  0 0.16060035E+03</rscale>
<asrwt>0</asrwt>
<pdfrwt beam="2">  1        2 0.80799113E-01 0.16692966E+03</pdfrwt>
<pdfrwt beam="1">  1       -2 0.84392272E-02 0.16692966E+03</pdfrwt>
<totfact> 0.49877270E+03</totfact>
</mgrwt>
</event>
<event>
 7    1  0.4230786E-006  0.1404391E+03  0.7546771E-02  0.1224435E+00
         -2   -1    0    0    0  501 -0.00000000000E+00  0.00000000000E+00  0.97434504088E+02  0.97434504088E+02  0.00000000000E+00 0.  1.
          2   -1    0    0  501    0  0.00000000000E+00 -0.00000000000E+00 -0.16142193690E+03  0.16142193690E+03  0.00000000000E+00 0. -1.
         23    2    1    2    0    0  0.38079926492E+02 -0.51481797165E+02 -0.27091027466E+02  0.14302820120E+03  0.12499074497E+03 0.  0.
          5    1    3    3  502    0  0.54211637692E+02  0.20958062308E+02  0.11212974786E+02  0.59379818462E+02  0.47000000000E+01 0. -1.
         -5    1    3    3    0  502 -0.16131711200E+02 -0.72439859472E+02 -0.38304002252E+02  0.83648382741E+02  0.47000000000E+01 0. -1.
        -11    1    1    2    0    0 -0.20640400070E+02  0.64493976888E+02 -0.55223616514E+02  0.87379328166E+02  0.00000000000E+00 0. -1.
         11    1    1    2    0    0 -0.17439526422E+02 -0.13012179724E+02  0.18327211169E+02  0.28448911618E+02  0.00000000000E+00 0.  1.
<mgrwt>
<rscale>  0 0.13205693E+03</rscale>
<asrwt>0</asrwt>
<pdfrwt beam="2">  1        2 0.24834144E-01 0.14043911E+03</pdfrwt>
<pdfrwt beam="1">  1       -2 0.14989924E-01 0.14043911E+03</pdfrwt>
<totfact> 0.70610549E+03</totfact>
</mgrwt>
</event>
<event>
 7    1  0.4230786E-006  0.2472381E+03  0.7546771E-02  0.1117552E+00
         -2   -1    0    0    0  501 -0.00000000000E+00  0.00000000000E+00  0.23638916567E+03  0.23638916567E+03  0.00000000000E+00 0.  1.
          2   -1    0    0  501    0  0.00000000000E+00 -0.00000000000E+00 -0.27625924616E+03  0.27625924616E+03  0.00000000000E+00 0. -1.
         23    2    1    2    0    0 -0.19011023806E+02 -0.21246325836E+03  0.68259225979E+02  0.25648786364E+03  0.12499858832E+03 0.  0.
          5    1    3    3  502    0 -0.46478099709E+02 -0.18583896029E+03  0.17024060940E+02  0.19237526236E+03  0.47000000000E+01 0. -1.
         -5    1    3    3    0  502  0.27467075903E+02 -0.26624298066E+02  0.51235165039E+02  0.64112601279E+02  0.47000000000E+01 0. -1.
        -11    1    1    2    0    0 -0.13577808181E+02  0.85953749147E+02 -0.88391908660E+02  0.12403843511E+03  0.00000000000E+00 0.  1.
         11    1    1    2    0    0  0.32588831987E+02  0.12650950921E+03 -0.19737397809E+02  0.13212211308E+03  0.00000000000E+00 0. -1.
<mgrwt>
<rscale>  0 0.24339501E+03</rscale>
<asrwt>0</asrwt>
<pdfrwt beam="2">  1        2 0.42501423E-01 0.24723815E+03</pdfrwt>
<pdfrwt beam="1">  1       -2 0.36367564E-01 0.24723815E+03</pdfrwt>
<totfact> 0.85544531E+02</totfact>
</mgrwt>
</event>
<event>
 7    1  0.4230786E-006  0.1704114E+03  0.7546771E-02  0.1181069E+00
          2   -1    0    0  501    0  0.00000000000E+00  0.00000000000E+00  0.53612573432E+03  0.53612573432E+03  0.00000000000E+00 0. -1.
         -2   -1    0    0    0  501 -0.00000000000E+00 -0.00000000000E+00 -0.76266750174E+02  0.76266750174E+02  0.00000000000E+00 0.  1.
         23    2    1    2    0    0 -0.36190944649E+02 -0.11002359245E+03  0.56446701306E+02  0.17951677502E+03  0.12500026821E+03 0.  0.
          5    1    3    3  502    0 -0.78456089143E+02 -0.42927224240E+02  0.18349949738E+02  0.91416164653E+02  0.47000000000E+01 0. -1.
         -5    1    3    3    0  502  0.42265144494E+02 -0.67096368214E+02  0.38096751568E+02  0.88100610365E+02  0.47000000000E+01 0. -1.
        -11    1    1    2    0    0  0.37660001106E+02 -0.12478268852E+01  0.51670482853E+02  0.63950539900E+02  0.00000000000E+00 0.  1.
         11    1    1    2    0    0 -0.14690564567E+01  0.11127141934E+03  0.35174179999E+03  0.36892516958E+03  0.00000000000E+00 0. -1.
<mgrwt>
<rscale>  0 0.16694709E+03</rscale>
<asrwt>0</asrwt>
<pdfrwt beam="1">  1        2 0.82480880E-01 0.17041139E+03</pdfrwt>
<pdfrwt beam="2">  1       -2 0.11733347E-01 0.17041139E+03</pdfrwt>
<totfact> 0.28988988E+03</totfact>
</mgrwt>
</event>
<event>
 7    1  0.4230786E-006  0.1366320E+03  0.7546771E-02  0.1221963E+00
         -1   -1    0    0    0  501 -0.00000000000E+00  0.00000000000E+00  0.12618022721E+04  0.12618022721E+04  0.00000000000E+00 0.  1.
          1   -1    0    0  501    0  0.00000000000E+00 -0.00000000000E+00 -0.13624837899E+02  0.13624837899E+02  0.00000000000E+00 0. -1.
         23    2    1    2    0    0  0.12145740016E+02 -0.53813626602E+02  0.66370000367E+03  0.67761788686E+03  0.12499952123E+03 0.  0.
          5    1    3    3  502    0 -0.93699933029E+01 -0.64485982754E+02  0.15342021961E+03  0.16675158929E+03  0.47000000000E+01 0.  1.
         -5    1    3    3    0  502  0.21515733318E+02  0.10672356152E+02  0.51027978406E+03  0.51086629756E+03  0.47000000000E+01 0.  1.
        -11    1    1    2    0    0 -0.42762979212E+02 -0.18207200092E+02  0.25154351842E+03  0.25580132170E+03  0.00000000000E+00 0.  1.
         11    1    1    2    0    0  0.30617239197E+02  0.72020826694E+02  0.33293391210E+03  0.34200790143E+03  0.00000000000E+00 0. -1.
<mgrwt>
<rscale>  0 0.13377217E+03</rscale>
<asrwt>0</asrwt>
<pdfrwt beam="2">  1        1 0.20961299E-02 0.13663201E+03</pdfrwt>
<pdfrwt beam="1">  1       -1 0.19412333E+00 0.13663201E+03</pdfrwt>
<totfact> 0.10154871E+03</totfact>
</mgrwt>
</event>
<event>
 7    1  0.4230786E-006  0.1391471E+03  0.7546771E-02  0.1226358E+00
          2   -1    0    0  501    0  0.00000000000E+00  0.00000000000E+00  0.73376210997E+03  0.73376210997E+03  0.00000000000E+00 0.  1.
         -2   -1    0    0    0  501 -0.00000000000E+00 -0.00000000000E+00 -0.21085635546E+02  0.21085635546E+02  0.00000000000E+00 0. -1.
         23    2    1    2    0    0 -0.50152584474E+02  0.34957426972E+02  0.43639618614E+03  0.45804317409E+03  0.12499845848E+03 0.  0.
          5    1    3    3  502    0  0.29529734585E+02  0.30265929771E+02  0.61934554209E+02  0.75139941008E+02  0.47000000000E+01 0. -1.
         -5    1    3    3    0  502 -0.79682319059E+02  0.46914972007E+01  0.37446163193E+03  0.38290323308E+03  0.47000000000E+01 0. -1.
        -11    1    1    2    0    0  0.34225939988E+02 -0.58027563721E+02  0.11644104310E+03  0.13452557243E+03  0.00000000000E+00 0. -1.
         11    1    1    2    0    0  0.15926644486E+02  0.23070136749E+02  0.15983924519E+03  0.16227899900E+03  0.00000000000E+00 0.  1.
<mgrwt>
<rscale>  0 0.13074242E+03</rscale>
<asrwt>0</asrwt>
<pdfrwt beam="1">  1        2 0.11288646E+00 0.13914711E+03</pdfrwt>
<pdfrwt beam="2">  1       -2 0.32439445E-02 0.13914711E+03</pdfrwt>
<totfact> 0.14227227E+04</totfact>
</mgrwt>
</event>
<event>
 7    1  0.4230786E-006  0.1291562E+03  0.7546771E-02  0.1241324E+00
          4   -1    0    0  501    0  0.00000000000E+00  0.00000000000E+00  0.58087816843E+02  0.58087816843E+02  0.00000000000E+00 0. -1.
         -4   -1    0    0    0  501 -0.00000000000E+00 -0.00000000000E+00 -0.30428794778E+03  0.30428794778E+03  0.00000000000E+00 0.  1.
         23    2    1    2    0    0 -0.32188243342E+01  0.32342035087E+02 -0.22642716354E+03  0.26067333307E+03  0.12499983248E+03 0.  0.
          5    1    3    3  502    0  0.24862687319E+02  0.45082092911E+02 -0.26063099413E+02  0.57895798405E+02  0.47000000000E+01 0. -1.
         -5    1    3    3    0  502 -0.28081511653E+02 -0.12740057824E+02 -0.20036406413E+03  0.20277753466E+03  0.47000000000E+01 0. -1.
        -11    1    1    2    0    0  0.43437620174E+02 -0.22850327717E+02  0.10853353443E+02  0.50266883772E+02  0.00000000000E+00 0. -1.
         11    1    1    2    0    0 -0.40218795840E+02 -0.94917073697E+01 -0.30626320834E+02  0.51435547780E+02  0.00000000000E+00 0.  1.
<mgrwt>
<rscale>  0 0.12108142E+03</rscale>
<asrwt>0</asrwt>
<pdfrwt beam="1">  1        4 0.89365872E-02 0.12915621E+03</pdfrwt>
<pdfrwt beam="2">  1       -4 0.46813530E-01 0.12915621E+03</pdfrwt>
<totfact> 0.66734750E+02</totfact>
</mgrwt>
</event>
<event>
 7    1  0.4230786E-006  0.1262799E+03  0.7546771E-02  0.1248011E+00
          2   -1    0    0  501    0  0.00000000000E+00  0.00000000000E+00  0.53368608584E+03  0.53368608584E+03  0.00000000000E+00 0. -1.
         -2   -1    0    0    0  501 -0.00000000000E+00 -0.00000000000E+00 -0.28460284568E+02  0.28460284568E+02  0.00000000000E+00 0.  1.
         23    2    1    2    0    0  0.32684962467E+01 -0.18086446864E+02  0.15614401004E+03  0.20081722231E+03  0.12493519231E+03 0.  0.
          5    1    3    3  502    0 -0.39031762673E+02 -0.19433237803E+02  0.15180763908E+03  0.15801512115E+03  0.47000000000E+01 0.  1.
         -5    1    3    3    0  502  0.42300258920E+02  0.13467909388E+01  0.43363709566E+01  0.42802101158E+02  0.47000000000E+01 0.  1.
        -11    1    1    2    0    0 -0.36679350913E+02  0.35666857274E+02  0.14442200619E+03  0.15321623727E+03  0.00000000000E+00 0.  1.
         11    1    1    2    0    0  0.33410854667E+02 -0.17580410410E+02  0.20465978504E+03  0.20811291083E+03  0.00000000000E+00 0. -1.
<mgrwt>
<rscale>  0 0.11706972E+03</rscale>
<asrwt>0</asrwt>
<pdfrwt beam="1">  1        2 0.82105544E-01 0.12627987E+03</pdfrwt>
<pdfrwt beam="2">  1       -2 0.43785057E-02 0.12627987E+03</pdfrwt>
<totfact> 0.13068524E+04</totfact>
</mgrwt>
</event>
<event>
 7    1  0.4230786E-006  0.1427217E+03  0.7546771E-02  0.1220370E+00
          1   -1    0    0  501    0  0.00000000000E+00  0.00000000000E+00  0.25278861280E+03  0.25278861280E+03  0.00000000000E+00 0. -1.
         -1   -1    0    0    0  501 -0.00000000000E+00 -0.00000000000E+00 -0.74867011196E+02  0.74867011196E+02  0.00000000000E+00 0.  1.
         23    2    1    2    0    0 -0.19466706108E+02 -0.66079695444E+02  0.38879776363E+02  0.14792271898E+03  0.12499605987E+03 0.  0.
          5    1    3    3  502    0 -0.46987237716E+02 -0.33199160279E+01  0.59659489757E+02  0.76158827911E+02  0.47000000000E+01 0. -1.
         -5    1    3    3    0  502  0.27520531608E+02 -0.62759779416E+02 -0.20779713395E+02  0.71763891067E+02  0.47000000000E+01 0. -1.
        -11    1    1    2    0    0  0.11759041816E+00  0.32899092289E+02 -0.25746830460E+01  0.32999895360E+02  0.00000000000E+00 0.  1.
         11    1    1    2    0    0  0.19349115690E+02  0.33180603155E+02  0.14161650828E+03  0.14673300965E+03  0.00000000000E+00 0. -1.
<mgrwt>
<rscale>  0 0.13489333E+03</rscale>
<asrwt>0</asrwt>
<pdfrwt beam="1">  1        1 0.38890555E-01 0.14272174E+03</pdfrwt>
<pdfrwt beam="2">  1       -1 0.11518002E-01 0.14272174E+03</pdfrwt>
<totfact> 0.51086017E+03</totfact>
</mgrwt>
</event>
<event>
 6    1  0.4230786E-006  0.1687236E+03  0.7546771E-02  0.1194913E+00
         -1   -1    0    0    0  501 -0.00000000000E+00  0.00000000000E+00  0.24204033255E+02  0.24204033255E+02  0.00000000000E+00 0.  1.
          1   -1    0    0  501    0  0.00000000000E+00 -0.00000000000E+00 -0.91174457436E+03  0.91174457436E+03  0.00000000000E+00 0. -1.
          5    1    1    2  502    0  0.10915109951E+03  0.50798240752E+02 -0.25929001245E+03  0.28591576442E+03  0.47000000000E+01 0. -1.
         -5    1    1    2    0  502 -0.45747157715E+02 -0.69252568107E+01 -0.14129666077E+03  0.14875348052E+03  0.47000000000E+01 0.  1.
        -11    1    1    2    0    0 -0.11359206211E+02 -0.61495493343E+02 -0.29839896872E+03  0.30488140612E+03  0.00000000000E+00 0.  1.
         11    1    1    2    0    0 -0.52044735583E+02  0.17622509401E+02 -0.18855489917E+03  0.19639795656E+03  0.00000000000E+00 0. -1.
<mgrwt>
<rscale>  0 0.15461553E+03</rscale>
<asrwt>0</asrwt>
<pdfrwt beam="2">  1        1 0.14026843E+00 0.16872365E+03</pdfrwt>
<pdfrwt beam="1">  1       -1 0.37236965E-02 0.16872365E+03</pdfrwt>
<totfact> 0.50273131E+03</totfact>
</mgrwt>
</event>
<event>
 7    1  0.4230786E-006  0.1167213E+03  0.7546771E-02  0.1258069E+00
          1   -1    0    0  501    0  0.00000000000E+00  0.00000000000E+00  0.13454474806E+03  0.13454474806E+03  0.00000000000E+00 0. -1.
         -1   -1    0    0    0  501 -0.00000000000E+00 -0.00000000000E+00 -0.92394285737E+02  0.92394285737E+02  0.00000000000E+00 0.  1.
         23    2    1    2    0    0  0.83915556962E+01 -0.24546037028E+02 -0.98409611488E+01  0.11713538716E+03  0.11380214527E+03 0.  0.
          5    1    3    3  502    0 -0.38722702030E+02  0.23746759089E+02 -0.17849757242E+02  0.49031215091E+02  0.47000000000E+01 0. -1.
         -5    1    3    3    0  502  0.47114257726E+02 -0.48292796117E+02  0.80087960935E+01  0.68104172066E+02  0.47000000000E+01 0.  1.
        -11    1    1    2    0    0 -0.35759028585E+02 -0.20764912017E+02  0.10820276815E+02  0.42743047233E+02  0.00000000000E+00 0.  1.
         11    1    1    2    0    0  0.27367472889E+02  0.45310949045E+02  0.41171146654E+02  0.67060599405E+02  0.00000000000E+00 0. -1.
<mgrwt>
<rscale>  0 0.11136164E+03</rscale>
<asrwt>0</asrwt>
<pdfrwt beam="1">  1        1 0.20699192E-01 0.11672127E+03</pdfrwt>
<pdfrwt beam="2">  1       -1 0.14214506E-01 0.11672127E+03</pdfrwt>
<totfact> 0.79891291E+03</totfact>
</mgrwt>
</event>
<event>
 7    1  0.4230786E-006  0.1262054E+03  0.7546771E-02  0.1247766E+00
          1   -1    0    0  501    0  0.00000000000E+00  0.00000000000E+00  0.14336634036E+03  0.14336634036E+03  0.00000000000E+00 0. -1.
         -1   -1    0    0    0  501 -0.00000000000E+00 -0.00000000000E+00 -0.15519375357E+03  0.15519375357E+03  0.00000000000E+00 0.  1.
         23    2    1    2    0    0 -0.16062912509E+02  0.67131267944E+01 -0.10655933972E+03  0.16517471718E+03  0.12499884434E+03 0.  0.
          5    1    3    3  502    0 -0.36263896536E+02  0.11158737791E+02 -0.12885125408E+03  0.13440358365E+03  0.47000000000E+01 0. -1.
         -5    1    3    3    0  502  0.20200984026E+02 -0.44456109963E+01  0.22291914362E+02  0.30771133529E+02  0.47000000000E+01 0. -1.
        -11    1    1    2    0    0  0.39406223622E+01  0.42343732655E+02  0.52245526842E+02  0.67365534770E+02  0.00000000000E+00 0. -1.
         11    1    1    2    0    0  0.12122290147E+02 -0.49056859450E+02  0.42486399663E+02  0.66019841970E+02  0.00000000000E+00 0.  1.
<mgrwt>
<rscale>  0 0.11721324E+03</rscale>
<asrwt>0</asrwt>
<pdfrwt beam="1">  1        1 0.22056360E-01 0.12620537E+03</pdfrwt>
<pdfrwt beam="2">  1       -1 0.23875962E-01 0.12620537E+03</pdfrwt>
<totfact> 0.32490252E+03</totfact>
</mgrwt>
</event>
<event>
 7    1  0.4230786E-006  0.1897951E+03  0.7546771E-02  0.1163601E+00
         -2   -1    0    0    0  501 -0.00000000000E+00  0.00000000000E+00  0.76339790372E+02  0.76339790372E+02  0.00000000000E+00 0.  1.
          2   -1    0    0  501    0  0.00000000000E+00 -0.00000000000E+00 -0.43218543950E+03  0.43218543950E+03  0.00000000000E+00 0. -1.
         23    2    1    2    0    0 -0.11358368873E+03  0.86583442412E+02 -0.14884952163E+03  0.24120189292E+03  0.12499690482E+03 0.  0.
          5    1    3    3  502    0  0.13439809016E+02  0.14385099572E+02  0.12254616831E+02  0.23660625304E+02  0.47000000000E+01 0. -1.
         -5    1    3    3    0  502 -0.12702349774E+03  0.72198342839E+02 -0.16110413846E+03  0.21754126762E+03  0.47000000000E+01 0. -1.
        -11    1    1    2    0    0  0.12424139656E+03 -0.76206596286E+02 -0.15298043475E+03  0.21129690805E+03  0.00000000000E+00 0.  1.
         11    1    1    2    0    0 -0.10657707834E+02 -0.10376846126E+02 -0.54015692746E+02  0.56026428895E+02  0.00000000000E+00 0. -1.
<mgrwt>
<rscale>  0 0.18441096E+03</rscale>
<asrwt>0</asrwt>
<pdfrwt beam="2">  1        2 0.66490068E-01 0.18979508E+03</pdfrwt>
<pdfrwt beam="1">  1       -2 0.11744583E-01 0.18979508E+03</pdfrwt>
<totfact> 0.36862857E+03</totfact>
</mgrwt>
</event>
<event>
 7    1  0.4230786E-006  0.1652570E+03  0.7546771E-02  0.1190725E+00
          1   -1    0    0  501    0  0.00000000000E+00  0.00000000000E+00  0.53005851271E+03  0.53005851271E+03  0.00000000000E+00 0. -1.
         -1   -1    0    0    0  501 -0.00000000000E+00 -0.00000000000E+00 -0.44821250288E+02  0.44821250288E+02  0.00000000000E+00 0.  1.
         23    2    1    2    0    0 -0.51368960766E+02 -0.95118212125E+02  0.31006590958E+03  0.35135558008E+03  0.12499452371E+03 0.  0.
          5    1    3    3  502    0 -0.13697677719E+02 -0.68700336378E+02  0.47550029314E+02  0.84796567625E+02  0.47000000000E+01 0. -1.
         -5    1    3    3    0  502 -0.37671283047E+02 -0.26417875747E+02  0.26251588027E+03  0.26655901245E+03  0.47000000000E+01 0. -1.
        -11    1    1    2    0    0  0.34205126584E+02  0.52566477459E+02  0.26766909038E+02  0.68188654896E+02  0.00000000000E+00 0.  1.
         11    1    1    2    0    0  0.17163834182E+02  0.42551734666E+02  0.14840444380E+03  0.15533552803E+03  0.00000000000E+00 0. -1.
<mgrwt>
<rscale>  0 0.15821688E+03</rscale>
<asrwt>0</asrwt>
<pdfrwt beam="1">  1        1 0.81547459E-01 0.16525700E+03</pdfrwt>
<pdfrwt beam="2">  1       -1 0.68955773E-02 0.16525700E+03</pdfrwt>
<totfact> 0.44050161E+03</totfact>
</mgrwt>
</event>
<event>
 7    1  0.4230786E-006  0.1739407E+03  0.7546771E-02  0.1180297E+00
         -2   -1    0    0    0  501 -0.00000000000E+00  0.00000000000E+00  0.80357671464E+02  0.80357671464E+02  0.00000000000E+00 0.  1.
          2   -1    0    0  501    0  0.00000000000E+00 -0.00000000000E+00 -0.33020580465E+03  0.33020580465E+03  0.00000000000E+00 0. -1.
         23    2    1    2    0    0 -0.23237648347E+02 -0.11870187790E+03 -0.11336704872E+03  0.20762335655E+03  0.12500098531E+03 0.  0.
          5    1    3    3  502    0 -0.69644370523E+01  0.17380522009E+02 -0.55535651445E+02  0.58795276258E+02  0.47000000000E+01 0. -1.
         -5    1    3    3    0  502 -0.16273211295E+02 -0.13608239991E+03 -0.57831397277E+02  0.14882808029E+03  0.47000000000E+01 0. -1.
        -11    1    1    2    0    0  0.48839829715E+02  0.11244999987E+03 -0.10162263095E+03  0.15924035468E+03  0.00000000000E+00 0.  1.
         11    1    1    2    0    0 -0.25602181368E+02  0.62518780302E+01 -0.34858453516E+02  0.43699764888E+02  0.00000000000E+00 0. -1.
<mgrwt>
<rscale>  0 0.16767278E+03</rscale>
<asrwt>0</asrwt>
<pdfrwt beam="2">  1        2 0.50800892E-01 0.17394071E+03</pdfrwt>
<pdfrwt beam="1">  1       -2 0.12362719E-01 0.17394071E+03</pdfrwt>
<totfact> 0.45182018E+03</totfact>
</mgrwt>
</event>
<event>
 7    1  0.4230786E-006  0.2670115E+03  0.7546771E-02  0.1105200E+00
          1   -1    0    0  501    0  0.00000000000E+00  0.00000000000E+00  0.33791692521E+03  0.33791692521E+03  0.00000000000E+00 0. -1.
         -1   -1    0    0    0  501 -0.00000000000E+00 -0.00000000000E+00 -0.19992471793E+03  0.19992471793E+03  0.00000000000E+00 0.  1.
         23    2    1    2    0    0  0.11448955696E+03  0.20630619451E+03  0.59057435837E+02  0.27346462208E+03  0.12500005702E+03 0.  0.
          5    1    3    3  502    0 -0.19996604323E+02  0.99751333340E+01 -0.10999813135E+02  0.25346663656E+02  0.47000000000E+01 0.  1.
         -5    1    3    3    0  502  0.13448616128E+03  0.19633106117E+03  0.70057248972E+02  0.24811795842E+03  0.47000000000E+01 0.  1.
        -11    1    1    2    0    0 -0.15296105327E+02 -0.10140067351E+03  0.62536948267E+01  0.10273838682E+03  0.00000000000E+00 0. -1.
         11    1    1    2    0    0 -0.99193451631E+02 -0.10490552100E+03  0.72681076624E+02  0.16163863425E+03  0.00000000000E+00 0.  1.
<mgrwt>
<rscale>  0 0.26325983E+03</rscale>
<asrwt>0</asrwt>
<pdfrwt beam="1">  1        1 0.51987219E-01 0.26701146E+03</pdfrwt>
<pdfrwt beam="2">  1       -1 0.30757649E-01 0.26701146E+03</pdfrwt>
<totfact> 0.73916126E+02</totfact>
</mgrwt>
</event>
<event>
 7    1  0.6442687E-006  0.1767970E+03  0.7546771E-02  0.1176639E+00
          3   -1    0    0  501    0  0.00000000000E+00  0.00000000000E+00  0.65879279941E+02  0.65879279941E+02  0.00000000000E+00 0. -1.
         -3   -1    0    0    0  501 -0.00000000000E+00 -0.00000000000E+00 -0.41965708023E+03  0.41965708023E+03  0.00000000000E+00 0.  1.
         23    2    1    2    0    0 -0.12059184828E+03 -0.33016901635E+02 -0.20058439960E+03  0.26737855772E+03  0.12499872840E+03 0.  0.
          5    1    3    3  502    0  0.20049584814E+02  0.11967373274E+02 -0.55134020449E+02  0.60058755275E+02  0.47000000000E+01 0.  1.
         -5    1    3    3    0  502 -0.14064143310E+03 -0.44984274909E+02 -0.14545037915E+03  0.20731980245E+03  0.47000000000E+01 0.  1.
        -11    1    1    2    0    0  0.85235085784E+02  0.53361188968E+02 -0.14514842716E+03  0.17658001655E+03  0.00000000000E+00 0.  1.
         11    1    1    2    0    0  0.35356762499E+02 -0.20344287333E+02 -0.80449735330E+01  0.41577785903E+02  0.00000000000E+00 0. -1.
<mgrwt>
<rscale>  0 0.17116453E+03</rscale>
<asrwt>0</asrwt>
<pdfrwt beam="1">  1        3 0.10135274E-01 0.17679704E+03</pdfrwt>
<pdfrwt beam="2">  1       -3 0.64562624E-01 0.17679704E+03</pdfrwt>
<totfact> 0.40986037E+02</totfact>
</mgrwt>
</event>
<event>
 6    1  0.4230786E-006  0.1912489E+03  0.7546771E-02  0.1174284E+00
          1   -1    0    0  501    0  0.00000000000E+00  0.00000000000E+00  0.15513359331E+03  0.15513359331E+03  0.00000000000E+00 0. -1.
         -1   -1    0    0    0  501 -0.00000000000E+00 -0.00000000000E+00 -0.27124567515E+03  0.27124567515E+03  0.00000000000E+00 0.  1.
          5    1    1    2  502    0 -0.32268936614E+02  0.50906023401E+02 -0.44404026730E+02  0.75010099843E+02  0.47000000000E+01 0. -1.
         -5    1    1    2    0  502 -0.75830147197E+01 -0.12833014363E+03 -0.15194643333E+03  0.19908776074E+03  0.47000000000E+01 0.  1.
        -11    1    1    2    0    0  0.19934088764E+02  0.97191888622E+02  0.73353293958E+02  0.12338693952E+03  0.00000000000E+00 0. -1.
         11    1    1    2    0    0  0.19917862569E+02 -0.19767768394E+02  0.68850842616E+01  0.28894468361E+02  0.00000000000E+00 0.  1.
<mgrwt>
<rscale>  0 0.17346252E+03</rscale>
<asrwt>0</asrwt>
<pdfrwt beam="1">  1        1 0.23866707E-01 0.19124888E+03</pdfrwt>
<pdfrwt beam="2">  1       -1 0.41730104E-01 0.19124888E+03</pdfrwt>
<totfact> 0.11551798E+03</totfact>
</mgrwt>
</event>
<event>
 7    1  0.4230786E-006  0.1449537E+03  0.7546771E-02  0.1217114E+00
          1   -1    0    0  501    0  0.00000000000E+00  0.00000000000E+00  0.59701601514E+03  0.59701601514E+03  0.00000000000E+00 0. -1.
         -1   -1    0    0    0  501 -0.00000000000E+00 -0.00000000000E+00 -0.43702184971E+02  0.43702184971E+02  0.00000000000E+00 0.  1.
         23    2    1    2    0    0  0.42911737102E+02  0.59549312937E+02  0.10888641606E+03  0.18129483092E+03  0.12499610500E+03 0.  0.
          5    1    3    3  502    0 -0.35570393659E+02  0.55090833773E+02  0.56761788621E+02  0.86857604839E+02  0.47000000000E+01 0.  1.
         -5    1    3    3    0  502  0.78482130761E+02  0.44584791635E+01  0.52124627436E+02  0.94437226085E+02  0.47000000000E+01 0.  1.
        -11    1    1    2    0    0 -0.31912925654E+02 -0.68720004367E+02  0.43655555121E+03  0.44308195982E+03  0.00000000000E+00 0. -1.
         11    1    1    2    0    0 -0.10998811448E+02  0.91706914298E+01  0.78718628976E+01  0.16341409365E+02  0.00000000000E+00 0.  1.
<mgrwt>
<rscale>  0 0.13722421E+03</rscale>
<asrwt>0</asrwt>
<pdfrwt beam="1">  1        1 0.91848612E-01 0.14495366E+03</pdfrwt>
<pdfrwt beam="2">  1       -1 0.67234135E-02 0.14495366E+03</pdfrwt>
<totfact> 0.38770534E+03</totfact>
</mgrwt>
</event>
<event>
 7    1  0.4230786E-006  0.2752108E+03  0.7546771E-02  0.1100299E+00
         -1   -1    0    0    0  501 -0.00000000000E+00  0.00000000000E+00  0.24164350872E+04  0.24164350872E+04  0.00000000000E+00 0.  1.
          1   -1    0    0  501    0  0.00000000000E+00 -0.00000000000E+00 -0.39586074361E+02  0.39586074361E+02  0.00000000000E+00 0. -1.
         23    2    1    2    0    0  0.95571879947E+02  0.22577158104E+03  0.18215612011E+04  0.18422340190E+04  0.12503671586E+03 0.  0.
          5    1    3    3  502    0  0.63099056442E+02  0.17842086487E+03  0.94461461712E+03  0.96339730164E+03  0.47000000000E+01 0.  1.
         -5    1    3    3    0  502  0.32472823504E+02  0.47350716173E+02  0.87694658400E+03  0.87883671736E+03  0.47000000000E+01 0.  1.
        -11    1    1    2    0    0 -0.74671412241E+02 -0.90408958498E+02  0.18555340859E+03  0.21949867203E+03  0.00000000000E+00 0.  1.
         11    1    1    2    0    0 -0.20900467706E+02 -0.13536262254E+03  0.36973440309E+03  0.39428847049E+03  0.00000000000E+00 0. -1.
<mgrwt>
<rscale>  0 0.27172102E+03</rscale>
<asrwt>0</asrwt>
<pdfrwt beam="2">  1        1 0.60901672E-02 0.27521078E+03</pdfrwt>
<pdfrwt beam="1">  1       -1 0.37175913E+00 0.27521078E+03</pdfrwt>
<totfact> 0.17058262E+01</totfact>
</mgrwt>
</event>
<event>
 7    1  0.4230786E-006  0.1345348E+03  0.7546771E-02  0.1233021E+00
         -1   -1    0    0    0  501 -0.00000000000E+00  0.00000000000E+00  0.26577384849E+02  0.26577384849E+02  0.00000000000E+00 0.  1.
          1   -1    0    0  501    0  0.00000000000E+00 -0.00000000000E+00 -0.58811671057E+03  0.58811671057E+03  0.00000000000E+00 0. -1.
         23    2    1    2    0    0 -0.27895538296E+02 -0.41265197276E+02 -0.22365566128E+03  0.26100090205E+03  0.12497455136E+03 0.  0.
          5    1    3    3  502    0  0.38653000248E+02  0.20157475294E+02 -0.73962307689E+02  0.85981923664E+02  0.47000000000E+01 0. -1.
         -5    1    3    3    0  502 -0.66548538543E+02 -0.61422672570E+02 -0.14969335359E+03  0.17501897839E+03  0.47000000000E+01 0. -1.
        -11    1    1    2    0    0 -0.30018351939E+02  0.10602233571E+02 -0.17928611576E+03  0.18209069200E+03  0.00000000000E+00 0. -1.
         11    1    1    2    0    0  0.57913890234E+02  0.30662963705E+02 -0.15859754868E+03  0.17160250136E+03  0.00000000000E+00 0.  1.
<mgrwt>
<rscale>  0 0.12631966E+03</rscale>
<asrwt>0</asrwt>
<pdfrwt beam="2">  1        1 0.90479484E-01 0.13453481E+03</pdfrwt>
<pdfrwt beam="1">  1       -1 0.40888289E-02 0.13453481E+03</pdfrwt>
<totfact> 0.82427286E+03</totfact>
</mgrwt>
</event>
<event>
 7    1  0.4230786E-006  0.1330933E+03  0.7546771E-02  0.1234033E+00
         -1   -1    0    0    0  501 -0.00000000000E+00  0.00000000000E+00  0.31668606241E+02  0.31668606241E+02  0.00000000000E+00 0.  1.
          1   -1    0    0  501    0  0.00000000000E+00 -0.00000000000E+00 -0.56592398513E+03  0.56592398513E+03  0.00000000000E+00 0. -1.
         23    2    1    2    0    0  0.38117139731E+02  0.37406190194E+02 -0.15717107890E+03  0.20595284358E+03  0.12190851623E+03 0.  0.
          5    1    3    3  502    0 -0.49828643785E+01  0.43316211446E+02 -0.15614266094E+03  0.16218428924E+03  0.47000000000E+01 0. -1.
         -5    1    3    3    0  502  0.43100004109E+02 -0.59100212523E+01 -0.10284179636E+01  0.43768554339E+02  0.47000000000E+01 0.  1.
        -11    1    1    2    0    0 -0.55250205195E+02 -0.52544682780E+02 -0.33677217846E+03  0.34529556766E+03  0.00000000000E+00 0. -1.
         11    1    1    2    0    0  0.17133065464E+02  0.15138492586E+02 -0.40312121533E+02  0.46344180136E+02  0.00000000000E+00 0.  1.
<mgrwt>
<rscale>  0 0.12566567E+03</rscale>
<asrwt>0</asrwt>
<pdfrwt beam="2">  1        1 0.87065226E-01 0.13309330E+03</pdfrwt>
<pdfrwt beam="1">  1       -1 0.48720934E-02 0.13309330E+03</pdfrwt>
<totfact> 0.67013620E+03</totfact>
</mgrwt>
</event>
<event>
 7    1  0.4230786E-006  0.1497185E+03  0.7546771E-02  0.1211153E+00
          2   -1    0    0  501    0  0.00000000000E+00  0.00000000000E+00  0.26465170249E+03  0.26465170249E+03  0.00000000000E+00 0. -1.
         -2   -1    0    0    0  501 -0.00000000000E+00 -0.00000000000E+00 -0.68842872861E+02  0.68842872861E+02  0.00000000000E+00 0.  1.
         23    2    1    2    0    0 -0.51633114986E+01 -0.82248574186E+02  0.11713215258E+03  0.19009355399E+03  0.12499652138E+03 0.  0.
          5    1    3    3  502    0 -0.22890056300E+02 -0.73820074084E+02  0.13975775935E+03  0.15977383801E+03  0.47000000000E+01 0.  1.
         -5    1    3    3    0  502  0.17726744801E+02 -0.84285001019E+01 -0.22625606767E+02  0.30319715975E+02  0.47000000000E+01 0.  1.
        -11    1    1    2    0    0  0.34437672787E+02  0.73000163363E+01  0.75400599313E+01  0.36001333993E+02  0.00000000000E+00 0.  1.
         11    1    1    2    0    0 -0.29274361288E+02  0.74948557850E+02  0.71136617119E+02  0.10739968737E+03  0.00000000000E+00 0. -1.
<mgrwt>
<rscale>  0 0.14162930E+03</rscale>
<asrwt>0</asrwt>
<pdfrwt beam="1">  1        2 0.40715646E-01 0.14971846E+03</pdfrwt>
<pdfrwt beam="2">  1       -2 0.10591211E-01 0.14971846E+03</pdfrwt>
<totfact> 0.72597151E+03</totfact>
</mgrwt>
</event>
<event>
 7    1  0.4230786E-006  0.1955533E+03  0.7546771E-02  0.1157856E+00
          2   -1    0    0  501    0  0.00000000000E+00  0.00000000000E+00  0.65179003692E+03  0.65179003692E+03  0.00000000000E+00 0. -1.
         -2   -1    0    0    0  501 -0.00000000000E+00 -0.00000000000E+00 -0.57886352042E+02  0.57886352042E+02  0.00000000000E+00 0.  1.
         23    2    1    2    0    0 -0.12871218392E+03 -0.77769828557E+02  0.20950512373E+03  0.28658941884E+03  0.12500450231E+03 0.  0.
          5    1    3    3  502    0  0.13745270847E+02 -0.47718157740E+02  0.52596994456E+02  0.72487853290E+02  0.47000000000E+01 0. -1.
         -5    1    3    3    0  502 -0.14245745477E+03 -0.30051670817E+02  0.15690812928E+03  0.21410156555E+03  0.47000000000E+01 0. -1.
        -11    1    1    2    0    0  0.42700933782E+02  0.29394581242E+02  0.41901356346E+02  0.66656843729E+02  0.00000000000E+00 0.  1.
         11    1    1    2    0    0  0.86011250141E+02  0.48375247315E+02  0.34249720480E+03  0.35643012639E+03  0.00000000000E+00 0. -1.
<mgrwt>
<rscale>  0 0.19067262E+03</rscale>
<asrwt>0</asrwt>
<pdfrwt beam="1">  1        2 0.10027539E+00 0.19555331E+03</pdfrwt>
<pdfrwt beam="2">  1       -2 0.89055931E-02 0.19555331E+03</pdfrwt>
<totfact> 0.36032127E+03</totfact>
</mgrwt>
</event>
<event>
 7    1  0.4230786E-006  0.1277805E+03  0.7546771E-02  0.1244965E+00
         -2   -1    0    0    0  501 -0.00000000000E+00  0.00000000000E+00  0.56363566423E+03  0.56363566423E+03  0.00000000000E+00 0.  1.
          2   -1    0    0  501    0  0.00000000000E+00 -0.00000000000E+00 -0.30834729441E+02  0.30834729441E+02  0.00000000000E+00 0. -1.
         23    2    1    2    0    0  0.23162627922E+02  0.12865046538E+02  0.45039670647E+03  0.46817203497E+03  0.12500337742E+03 0.  0.
          5    1    3    3  502    0  0.74499573194E+02  0.82477317904E+01  0.23846689902E+03  0.25001352646E+03  0.47000000000E+01 0.  1.
         -5    1    3    3    0  502 -0.51336945272E+02  0.46173147477E+01  0.21192980745E+03  0.21815850850E+03  0.47000000000E+01 0.  1.
        -11    1    1    2    0    0 -0.32654328692E+00 -0.32739951883E+02 -0.56139359229E+01  0.33219382239E+02  0.00000000000E+00 0. -1.
         11    1    1    2    0    0 -0.22836084635E+02  0.19874905345E+02  0.88018164243E+02  0.93078976470E+02  0.00000000000E+00 0.  1.
<mgrwt>
<rscale>  0 0.11887493E+03</rscale>
<asrwt>0</asrwt>
<pdfrwt beam="2">  1        2 0.47438050E-02 0.12778052E+03</pdfrwt>
<pdfrwt beam="1">  1       -2 0.86713171E-01 0.12778052E+03</pdfrwt>
<totfact> 0.19209088E+03</totfact>
</mgrwt>
</event>
<event>
 7    1  0.4230786E-006  0.1804391E+03  0.7546771E-02  0.1173088E+00
         -1   -1    0    0    0  501 -0.00000000000E+00  0.00000000000E+00  0.63886647465E+02  0.63886647465E+02  0.00000000000E+00 0.  1.
          1   -1    0    0  501    0  0.00000000000E+00 -0.00000000000E+00 -0.54814767232E+03  0.54814767232E+03  0.00000000000E+00 0. -1.
         23    2    1    2    0    0  0.81524035793E+02 -0.10140261365E+03 -0.12525148068E+03  0.21965015460E+03  0.12501839279E+03 0.  0.
          5    1    3    3  502    0  0.34174526326E+02 -0.42870152389E+02  0.17880023143E+02  0.57857872784E+02  0.47000000000E+01 0.  1.
         -5    1    3    3    0  502  0.47349509466E+02 -0.58532461265E+02 -0.14313150383E+03  0.16179228182E+03  0.47000000000E+01 0.  1.
        -11    1    1    2    0    0 -0.95344909746E+02  0.10580282999E+03 -0.30769553139E+03  0.33905962703E+03  0.00000000000E+00 0. -1.
         11    1    1    2    0    0  0.13820873954E+02 -0.44002163359E+01 -0.51314012783E+02  0.53324538146E+02  0.00000000000E+00 0.  1.
<mgrwt>
<rscale>  0 0.17464591E+03</rscale>
<asrwt>0</asrwt>
<pdfrwt beam="2">  1        1 0.84330413E-01 0.18043907E+03</pdfrwt>
<pdfrwt beam="1">  1       -1 0.98287148E-02 0.18043907E+03</pdfrwt>
<totfact> 0.24651363E+03</totfact>
</mgrwt>
</event>
<event>
 7    1  0.4230786E-006  0.1280703E+03  0.7546771E-02  0.1243478E+00
          2   -1    0    0  501    0  0.00000000000E+00  0.00000000000E+00  0.64286384834E+03  0.64286384834E+03  0.00000000000E+00 0. -1.
         -2   -1    0    0    0  501 -0.00000000000E+00 -0.00000000000E+00 -0.20018164421E+02  0.20018164421E+02  0.00000000000E+00 0.  1.
         23    2    1    2    0    0  0.10176420366E+01 -0.27851667979E+02  0.32411817972E+03  0.34850336747E+03  0.12500100685E+03 0.  0.
          5    1    3    3  502    0  0.44849814243E+02  0.26545698101E+02  0.89655559616E+02  0.10380938925E+03  0.47000000000E+01 0. -1.
         -5    1    3    3    0  502 -0.43832172207E+02 -0.54397366080E+02  0.23446262010E+03  0.24469397823E+03  0.47000000000E+01 0. -1.
        -11    1    1    2    0    0  0.39524266695E+02  0.19047062082E+02  0.75447374341E+02  0.87276941553E+02  0.00000000000E+00 0.  1.
         11    1    1    2    0    0 -0.40541908732E+02  0.88046058969E+01  0.22328012987E+03  0.22710170374E+03  0.00000000000E+00 0. -1.
<mgrwt>
<rscale>  0 0.11976958E+03</rscale>
<asrwt>0</asrwt>
<pdfrwt beam="1">  1        2 0.98902115E-01 0.12807030E+03</pdfrwt>
<pdfrwt beam="2">  1       -2 0.30797181E-02 0.12807030E+03</pdfrwt>
<totfact> 0.17838996E+04</totfact>
</mgrwt>
</event>
<event>
 7    1  0.4230786E-006  0.1262834E+03  0.7546771E-02  0.1249464E+00
         -3   -1    0    0    0  501 -0.00000000000E+00  0.00000000000E+00  0.24109767700E+03  0.24109767700E+03  0.00000000000E+00 0.  1.
          3   -1    0    0  501    0  0.00000000000E+00 -0.00000000000E+00 -0.59406155611E+02  0.59406155611E+02  0.00000000000E+00 0. -1.
         23    2    1    2    0    0  0.10422976336E+02  0.14636893948E+02  0.16597552992E+03  0.20855546766E+03  0.12499851782E+03 0.  0.
          5    1    3    3  502    0 -0.20638985717E+02 -0.33076409205E+02  0.73432771161E+01  0.39950347885E+02  0.47000000000E+01 0. -1.
         -5    1    3    3    0  502  0.31061962052E+02  0.47713303152E+02  0.15863225280E+03  0.16860511977E+03  0.47000000000E+01 0. -1.
        -11    1    1    2    0    0  0.26036773122E+02 -0.30340453002E+02 -0.13999444711E+02  0.42360843891E+02  0.00000000000E+00 0. -1.
         11    1    1    2    0    0 -0.36459749458E+02  0.15703559054E+02  0.29715436178E+02  0.49587521059E+02  0.00000000000E+00 0.  1.
<mgrwt>
<rscale>  0 0.11622143E+03</rscale>
<asrwt>0</asrwt>
<pdfrwt beam="2">  1        3 0.91394087E-02 0.12628344E+03</pdfrwt>
<pdfrwt beam="1">  1       -3 0.37091950E-01 0.12628344E+03</pdfrwt>
<totfact> 0.13983100E+03</totfact>
</mgrwt>
</event>
<event>
 7    1  0.4230786E-006  0.1317097E+03  0.7546771E-02  0.1238048E+00
         -2   -1    0    0    0  501 -0.00000000000E+00  0.00000000000E+00  0.12079352387E+03  0.12079352387E+03  0.00000000000E+00 0. -1.
          2   -1    0    0  501    0  0.00000000000E+00 -0.00000000000E+00 -0.13950887726E+03  0.13950887726E+03  0.00000000000E+00 0.  1.
         23    2    1    2    0    0 -0.39882917628E+02 -0.11510207724E+02  0.47386303939E+02  0.13997463223E+03  0.12499721543E+03 0.  0.
          5    1    3    3  502    0 -0.35403788170E+02 -0.54556553420E+02  0.65864021828E+02  0.92682280449E+02  0.47000000000E+01 0. -1.
         -5    1    3    3    0  502 -0.44791294579E+01  0.43046345696E+02 -0.18477717889E+02  0.47292351780E+02  0.47000000000E+01 0. -1.
        -11    1    1    2    0    0  0.10829443038E+02  0.22785841595E+02  0.17766523797E+02  0.30856454455E+02  0.00000000000E+00 0. -1.
         11    1    1    2    0    0  0.29053474590E+02 -0.11275633871E+02 -0.83868181119E+02  0.89471314449E+02  0.00000000000E+00 0.  1.
<mgrwt>
<rscale>  0 0.12311291E+03</rscale>
<asrwt>0</asrwt>
<pdfrwt beam="2">  1        2 0.21462904E-01 0.13170967E+03</pdfrwt>
<pdfrwt beam="1">  1       -2 0.18583619E-01 0.13170967E+03</pdfrwt>
<totfact> 0.57955484E+03</totfact>
</mgrwt>
</event>
<event>
 7    1  0.4230786E-006  0.1475835E+03  0.7546771E-02  0.1213173E+00
          1   -1    0    0  501    0  0.00000000000E+00  0.00000000000E+00  0.40201322199E+03  0.40201322199E+03  0.00000000000E+00 0. -1.
         -1   -1    0    0    0  501 -0.00000000000E+00 -0.00000000000E+00 -0.52027194363E+02  0.52027194363E+02  0.00000000000E+00 0.  1.
         23    2    1    2    0    0 -0.78223513368E+02 -0.60451613520E+01  0.10449481602E+03  0.18083160470E+03  0.12500176265E+03 0.  0.
          5    1    3    3  502    0 -0.53546296735E+01  0.38659406745E+02 -0.73360548640E+01  0.39989117142E+02  0.47000000000E+01 0. -1.
         -5    1    3    3    0  502 -0.72868883694E+02 -0.44704568097E+02  0.11183087089E+03  0.14084248756E+03  0.47000000000E+01 0. -1.
        -11    1    1    2    0    0  0.70327524270E+02  0.38214494840E+02  0.12651474059E+03  0.14970734075E+03  0.00000000000E+00 0. -1.
         11    1    1    2    0    0  0.78959890976E+01 -0.32169333488E+02  0.11897647101E+03  0.12350147090E+03  0.00000000000E+00 0.  1.
<mgrwt>
<rscale>  0 0.14011591E+03</rscale>
<asrwt>0</asrwt>
<pdfrwt beam="1">  1        1 0.61848186E-01 0.14758354E+03</pdfrwt>
<pdfrwt beam="2">  1       -1 0.80041840E-02 0.14758354E+03</pdfrwt>
<totfact> 0.50027989E+03</totfact>
</mgrwt>
</event>
<event>
 7    1  0.4230786E-006  0.1251686E+03  0.7546771E-02  0.1249910E+00
          4   -1    0    0  501    0  0.00000000000E+00  0.00000000000E+00  0.50199147168E+02  0.50199147168E+02  0.00000000000E+00 0. -1.
         -4   -1    0    0    0  501 -0.00000000000E+00 -0.00000000000E+00 -0.23719153083E+03  0.23719153083E+03  0.00000000000E+00 0.  1.
         23    2    1    2    0    0  0.62701336377E+01  0.18262018672E+01 -0.12013004144E+03  0.17348894371E+03  0.12499814856E+03 0.  0.
          5    1    3    3  502    0 -0.10877938443E+02  0.38660675708E+02  0.60129338862E+01  0.40880591543E+02  0.47000000000E+01 0. -1.
         -5    1    3    3    0  502  0.17148072081E+02 -0.36834473841E+02 -0.12614297533E+03  0.13260835216E+03  0.47000000000E+01 0. -1.
        -11    1    1    2    0    0  0.37776774672E+02 -0.21027439570E+02 -0.23658642164E+02  0.49284574347E+02  0.00000000000E+00 0.  1.
         11    1    1    2    0    0 -0.44046908310E+02  0.19201237703E+02 -0.43203700063E+02  0.64617159951E+02  0.00000000000E+00 0. -1.
<mgrwt>
<rscale>  0 0.11596271E+03</rscale>
<asrwt>0</asrwt>
<pdfrwt beam="1">  1        4 0.77229458E-02 0.12516863E+03</pdfrwt>
<pdfrwt beam="2">  1       -4 0.36491005E-01 0.12516863E+03</pdfrwt>
<totfact> 0.13810894E+03</totfact>
</mgrwt>
</event>
<event>
 7    1  0.4230786E-006  0.1616830E+03  0.7546771E-02  0.1194692E+00
          2   -1    0    0  501    0  0.00000000000E+00  0.00000000000E+00  0.12101806461E+03  0.12101806461E+03  0.00000000000E+00 0. -1.
         -2   -1    0    0    0  501 -0.00000000000E+00 -0.00000000000E+00 -0.18510643784E+03  0.18510643784E+03  0.00000000000E+00 0.  1.
         23    2    1    2    0    0 -0.96535990957E+02  0.34587539027E+02 -0.51422530504E+02  0.16966336679E+03  0.12500354387E+03 0.  0.
          5    1    3    3  502    0 -0.12031990117E+03  0.14713529896E+01 -0.34460339889E+02  0.12525433535E+03  0.47000000000E+01 0. -1.
         -5    1    3    3    0  502  0.23783910218E+02  0.33116186037E+02 -0.16962190615E+02  0.44409031439E+02  0.47000000000E+01 0. -1.
        -11    1    1    2    0    0  0.24073616067E+02 -0.79813199550E+01  0.36863175465E+02  0.44745213869E+02  0.00000000000E+00 0. -1.
         11    1    1    2    0    0  0.72462374890E+02 -0.26606219072E+02 -0.49529018192E+02  0.91715921797E+02  0.00000000000E+00 0.  1.
<mgrwt>
<rscale>  0 0.15480349E+03</rscale>
<asrwt>0</asrwt>
<pdfrwt beam="1">  1        2 0.18618164E-01 0.16168297E+03</pdfrwt>
<pdfrwt beam="2">  1       -2 0.28477913E-01 0.16168297E+03</pdfrwt>
<totfact> 0.32946125E+03</totfact>
</mgrwt>
</event>
<event>
 7    1  0.4230786E-006  0.1680369E+03  0.7546771E-02  0.1187741E+00
         -2   -1    0    0    0  501 -0.00000000000E+00  0.00000000000E+00  0.10023374576E+03  0.10023374576E+03  0.00000000000E+00 0. -1.
          2   -1    0    0  501    0  0.00000000000E+00 -0.00000000000E+00 -0.24321501180E+03  0.24321501180E+03  0.00000000000E+00 0.  1.
         23    2    1    2    0    0 -0.77271937958E+02  0.81489653666E+02 -0.53345289896E+02  0.17630117491E+03  0.12499947308E+03 0.  0.
          5    1    3    3  502    0 -0.21617351856E+02  0.91659265486E+02 -0.69660548558E+02  0.11723230304E+03  0.47000000000E+01 0.  1.
         -5    1    3    3    0  502 -0.55654586102E+02 -0.10169611820E+02  0.16315258662E+02  0.59068871870E+02  0.47000000000E+01 0.  1.
        -11    1    1    2    0    0  0.25738212165E+02 -0.66362276865E+02 -0.88308449813E+02  0.11342305614E+03  0.00000000000E+00 0.  1.
         11    1    1    2    0    0  0.51533725793E+02 -0.15127376801E+02 -0.13275263322E+01  0.53724526514E+02  0.00000000000E+00 0. -1.
<mgrwt>
<rscale>  0 0.16084966E+03</rscale>
<asrwt>0</asrwt>
<pdfrwt beam="2">  1        2 0.37417694E-01 0.16803685E+03</pdfrwt>
<pdfrwt beam="1">  1       -2 0.15420576E-01 0.16803685E+03</pdfrwt>
<totfact> 0.43639523E+03</totfact>
</mgrwt>
</event>
<event>
 7    1  0.4230786E-006  0.1266896E+03  0.7546771E-02  0.1245987E+00
         -2   -1    0    0    0  501 -0.00000000000E+00  0.00000000000E+00  0.64568766043E+02  0.64568766043E+02  0.00000000000E+00 0.  1.
          2   -1    0    0  501    0  0.00000000000E+00 -0.00000000000E+00 -0.19930232771E+03  0.19930232771E+03  0.00000000000E+00 0. -1.
         23    2    1    2    0    0 -0.18517782246E+02 -0.90660245805E+01 -0.51863448516E+02  0.13689441093E+03  0.12500064556E+03 0.  0.
          5    1    3    3  502    0 -0.62261929929E+02  0.28687230919E+02 -0.27739633517E+02  0.74101838061E+02  0.47000000000E+01 0. -1.
         -5    1    3    3    0  502  0.43744147683E+02 -0.37753255499E+02 -0.24123815000E+02  0.62792572869E+02  0.47000000000E+01 0. -1.
        -11    1    1    2    0    0  0.65369722707E+01 -0.37847645704E+02 -0.10350096675E+02  0.39778144665E+02  0.00000000000E+00 0.  1.
         11    1    1    2    0    0  0.11980809975E+02  0.46913670284E+02 -0.72520016474E+02  0.87198538156E+02  0.00000000000E+00 0. -1.
<mgrwt>
<rscale>  0 0.11826507E+03</rscale>
<asrwt>0</asrwt>
<pdfrwt beam="2">  1        2 0.30661897E-01 0.12668963E+03</pdfrwt>
<pdfrwt beam="1">  1       -2 0.99336563E-02 0.12668963E+03</pdfrwt>
<totfact> 0.10750030E+04</totfact>
</mgrwt>
</event>
<event>
 7    1  0.4230786E-006  0.1728553E+03  0.7546771E-02  0.1181024E+00
          2   -1    0    0  501    0  0.00000000000E+00  0.00000000000E+00  0.14097540448E+03  0.14097540448E+03  0.00000000000E+00 0. -1.
         -2   -1    0    0    0  501 -0.00000000000E+00 -0.00000000000E+00 -0.19250887435E+03  0.19250887435E+03  0.00000000000E+00 0.  1.
         23    2    1    2    0    0 -0.50279745135E+02  0.10830982287E+03 -0.59241745506E+02  0.18272533225E+03  0.12497956686E+03 0.  0.
          5    1    3    3  502    0 -0.48109485008E+02  0.96287222007E+02  0.13710030569E+02  0.10860850155E+03  0.47000000000E+01 0.  1.
         -5    1    3    3    0  502 -0.21702601270E+01  0.12022600864E+02 -0.72951776075E+02  0.74116830700E+02  0.47000000000E+01 0.  1.
        -11    1    1    2    0    0 -0.60967276033E+01 -0.87395466934E+02  0.18828987596E+02  0.89608417584E+02  0.00000000000E+00 0. -1.
         11    1    1    2    0    0  0.56376472739E+02 -0.20914355938E+02 -0.11120711966E+02  0.61150529003E+02  0.00000000000E+00 0.  1.
<mgrwt>
<rscale>  0 0.16699010E+03</rscale>
<asrwt>0</asrwt>
<pdfrwt beam="1">  1        2 0.21688524E-01 0.17285532E+03</pdfrwt>
<pdfrwt beam="2">  1       -2 0.29616750E-01 0.17285532E+03</pdfrwt>
<totfact> 0.25895002E+03</totfact>
</mgrwt>
</event>
<event>
 7    1  0.4230786E-006  0.1312877E+03  0.7546771E-02  0.1238604E+00
         -2   -1    0    0    0  501 -0.00000000000E+00  0.00000000000E+00  0.20260686146E+03  0.20260686146E+03  0.00000000000E+00 0.  1.
          2   -1    0    0  501    0  0.00000000000E+00 -0.00000000000E+00 -0.66986707359E+02  0.66986707359E+02  0.00000000000E+00 0. -1.
         23    2    1    2    0    0  0.38813452212E+02 -0.10364720771E+02  0.91035545589E+02  0.15976214179E+03  0.12499023914E+03 0.  0.
          5    1    3    3  502    0  0.72101697220E+02  0.94317298508E+01  0.15136760687E+02  0.74423274546E+02  0.47000000000E+01 0.  1.
         -5    1    3    3    0  502 -0.33288245008E+02 -0.19796450622E+02  0.75898784902E+02  0.85338867245E+02  0.47000000000E+01 0.  1.
        -11    1    1    2    0    0 -0.30399603189E+02  0.46027824688E+02  0.42290521507E+01  0.55322521649E+02  0.00000000000E+00 0.  1.
         11    1    1    2    0    0 -0.84138490230E+01 -0.35663103917E+02  0.40355556359E+02  0.54508905377E+02  0.00000000000E+00 0. -1.
<mgrwt>
<rscale>  0 0.12276501E+03</rscale>
<asrwt>0</asrwt>
<pdfrwt beam="2">  1        2 0.10305647E-01 0.13128774E+03</pdfrwt>
<pdfrwt beam="1">  1       -2 0.31170286E-01 0.13128774E+03</pdfrwt>
<totfact> 0.55692004E+03</totfact>
</mgrwt>
</event>
<event>
 7    1  0.4230786E-006  0.1406278E+03  0.7546771E-02  0.1223667E+00
          3   -1    0    0  501    0  0.00000000000E+00  0.00000000000E+00  0.12821344832E+03  0.12821344832E+03  0.00000000000E+00 0. -1.
         -3   -1    0    0    0  501 -0.00000000000E+00 -0.00000000000E+00 -0.12958035073E+03  0.12958035073E+03  0.00000000000E+00 0.  1.
         23    2    1    2    0    0  0.61735202584E+02 -0.18444463861E+02 -0.28325740359E+02  0.14345215715E+03  0.12499896135E+03 0.  0.
          5    1    3    3  502    0  0.91888333868E+02 -0.39779578095E+02 -0.68639631583E+01  0.10047429883E+03  0.47000000000E+01 0.  1.
         -5    1    3    3    0  502 -0.30153131284E+02  0.21335114234E+02 -0.21461777200E+02  0.42977858325E+02  0.47000000000E+01 0.  1.
        -11    1    1    2    0    0 -0.42464482577E+01  0.25071895434E+02  0.46719274441E+02  0.53191379638E+02  0.00000000000E+00 0. -1.
         11    1    1    2    0    0 -0.57488754327E+02 -0.66274315729E+01 -0.19760436491E+02  0.61150262253E+02  0.00000000000E+00 0.  1.
<mgrwt>
<rscale>  0 0.13258658E+03</rscale>
<asrwt>0</asrwt>
<pdfrwt beam="1">  1        3 0.19725146E-01 0.14062778E+03</pdfrwt>
<pdfrwt beam="2">  1       -3 0.19935438E-01 0.14062778E+03</pdfrwt>
<totfact> 0.12019397E+03</totfact>
</mgrwt>
</event>
<event>
 7    1  0.4230786E-006  0.1252337E+03  0.7546771E-02  0.1250274E+00
          2   -1    0    0  501    0  0.00000000000E+00  0.00000000000E+00  0.53296361367E+02  0.53296361367E+02  0.00000000000E+00 0. -1.
         -2   -1    0    0    0  501 -0.00000000000E+00 -0.00000000000E+00 -0.37080596527E+03  0.37080596527E+03  0.00000000000E+00 0.  1.
         23    2    1    2    0    0  0.75105623250E+01 -0.17803343312E+01 -0.30765953384E+03  0.33217142828E+03  0.12499556337E+03 0.  0.
          5    1    3    3  502    0  0.93677530310E-01 -0.52721610729E+02 -0.63823368099E+02  0.82916158431E+02  0.47000000000E+01 0.  1.
         -5    1    3    3    0  502  0.74168847947E+01  0.50941276398E+02 -0.24383616574E+03  0.24925526984E+03  0.47000000000E+01 0.  1.
        -11    1    1    2    0    0 -0.21053724006E+01  0.45688463061E+02  0.30798451256E+01  0.45840524603E+02  0.00000000000E+00 0. -1.
         11    1    1    2    0    0 -0.54051899244E+01 -0.43908128730E+02 -0.12929915190E+02  0.46090373762E+02  0.00000000000E+00 0.  1.
<mgrwt>
<rscale>  0 0.11575222E+03</rscale>
<asrwt>0</asrwt>
<pdfrwt beam="1">  1        2 0.81994405E-02 0.12523366E+03</pdfrwt>
<pdfrwt beam="2">  1       -2 0.57047069E-01 0.12523366E+03</pdfrwt>
<totfact> 0.23176904E+03</totfact>
</mgrwt>
</event>
<event>
 6    1  0.4230786E-006  0.1545521E+03  0.7546771E-02  0.1215746E+00
          2   -1    0    0  501    0  0.00000000000E+00  0.00000000000E+00  0.42495089204E+03  0.42495089204E+03  0.00000000000E+00 0. -1.
         -2   -1    0    0    0  501 -0.00000000000E+00 -0.00000000000E+00 -0.38203698526E+02  0.38203698526E+02  0.00000000000E+00 0.  1.
          5    1    1    2  502    0 -0.15602355436E+02 -0.43097816123E+01  0.23066181971E+03  0.23127683149E+03  0.47000000000E+01 0. -1.
         -5    1    1    2    0  502 -0.13433361182E+01 -0.23676703457E+02 -0.19039762241E+02  0.30773257623E+02  0.47000000000E+01 0.  1.
        -11    1    1    2    0    0  0.10427174344E+02 -0.29632268164E+02  0.24927149142E+02  0.40101870850E+02  0.00000000000E+00 0. -1.
         11    1    1    2    0    0  0.65185172101E+01  0.57618753234E+02  0.15019798691E+03  0.16100263060E+03  0.00000000000E+00 0.  1.
<mgrwt>
<rscale>  0 0.13821857E+03</rscale>
<asrwt>0</asrwt>
<pdfrwt beam="1">  1        2 0.65377057E-01 0.15455211E+03</pdfrwt>
<pdfrwt beam="2">  1       -2 0.58774924E-02 0.15455211E+03</pdfrwt>
<totfact> 0.10924818E+04</totfact>
</mgrwt>
</event>
<event>
 7    1  0.4230786E-006  0.1284376E+03  0.7546771E-02  0.1241702E+00
         -2   -1    0    0    0  501 -0.00000000000E+00  0.00000000000E+00  0.38048895105E+02  0.38048895105E+02  0.00000000000E+00 0.  1.
          2   -1    0    0  501    0  0.00000000000E+00 -0.00000000000E+00 -0.47533640462E+03  0.47533640462E+03  0.00000000000E+00 0. -1.
         23    2    1    2    0    0  0.13744993029E+02 -0.39757496765E+02 -0.10411692993E+03  0.16533767630E+03  0.12135332185E+03 0.  0.
          5    1    3    3  502    0  0.56912755326E+02 -0.56760239688E+02 -0.76919913242E+02  0.11135326480E+03  0.47000000000E+01 0. -1.
         -5    1    3    3    0  502 -0.43167762297E+02  0.17002742923E+02 -0.27197016693E+02  0.53984411506E+02  0.47000000000E+01 0.  1.
        -11    1    1    2    0    0 -0.39715802731E+01 -0.27525108103E+02 -0.15235153581E+03  0.15486896232E+03  0.00000000000E+00 0. -1.
         11    1    1    2    0    0 -0.97734127556E+01  0.67282604868E+02 -0.18081904377E+03  0.19317866110E+03  0.00000000000E+00 0.  1.
<mgrwt>
<rscale>  0 0.12084939E+03</rscale>
<asrwt>0</asrwt>
<pdfrwt beam="2">  1        2 0.73128677E-01 0.12843758E+03</pdfrwt>
<pdfrwt beam="1">  1       -2 0.58536762E-02 0.12843758E+03</pdfrwt>
<totfact> 0.96107326E+03</totfact>
</mgrwt>
</event>
<event>
 7    1  0.4230786E-006  0.2845659E+03  0.7546771E-02  0.1095017E+00
          1   -1    0    0  501    0  0.00000000000E+00  0.00000000000E+00  0.87404348916E+02  0.87404348916E+02  0.00000000000E+00 0. -1.
         -1   -1    0    0    0  501 -0.00000000000E+00 -0.00000000000E+00 -0.96251231194E+03  0.96251231194E+03  0.00000000000E+00 0.  1.
         23    2    1    2    0    0 -0.13829678390E+03  0.21500578490E+03 -0.59661440788E+03  0.66100416452E+03  0.12499706336E+03 0.  0.
          5    1    3    3  502    0 -0.55742490695E+02  0.13862988316E+03 -0.20620976256E+03  0.25469594805E+03  0.47000000000E+01 0. -1.
         -5    1    3    3    0  502 -0.82554293207E+02  0.76375901738E+02 -0.39040464531E+03  0.40630821648E+03  0.47000000000E+01 0. -1.
        -11    1    1    2    0    0  0.11055517874E+03 -0.16319463538E+03 -0.26200185769E+03  0.32787178896E+03  0.00000000000E+00 0.  1.
         11    1    1    2    0    0  0.27741605166E+02 -0.51811149519E+02 -0.16491697451E+02  0.61040707372E+02  0.00000000000E+00 0. -1.
<mgrwt>
<rscale>  0 0.28123305E+03</rscale>
<asrwt>0</asrwt>
<pdfrwt beam="1">  1        1 0.13446823E-01 0.28456590E+03</pdfrwt>
<pdfrwt beam="2">  1       -1 0.14807881E+00 0.28456590E+03</pdfrwt>
<totfact> 0.16878653E+02</totfact>
</mgrwt>
</event>
<event>
 7    1  0.4230786E-006  0.1650651E+03  0.7546771E-02  0.1188394E+00
          2   -1    0    0  501    0  0.00000000000E+00  0.00000000000E+00  0.63456193332E+03  0.63456193332E+03  0.00000000000E+00 0. -1.
         -2   -1    0    0    0  501 -0.00000000000E+00 -0.00000000000E+00 -0.38556279933E+02  0.38556279933E+02  0.00000000000E+00 0.  1.
         23    2    1    2    0    0  0.11628330916E+03  0.18996077338E+02  0.28767532879E+03  0.33166786939E+03  0.11560199760E+03 0.  0.
          5    1    3    3  502    0  0.10843894192E+03 -0.24633805625E+02  0.14884919227E+03  0.18586016395E+03  0.47000000000E+01 0. -1.
         -5    1    3    3    0  502  0.78443672375E+01  0.43629882963E+02  0.13882613651E+03  0.14580770543E+03  0.47000000000E+01 0.  1.
        -11    1    1    2    0    0 -0.33661999833E+02 -0.16816955812E+02  0.20839841958E+03  0.21176836761E+03  0.00000000000E+00 0.  1.
         11    1    1    2    0    0 -0.82621309326E+02 -0.21791215261E+01  0.99931905026E+02  0.12968197626E+03  0.00000000000E+00 0. -1.
<mgrwt>
<rscale>  0 0.16026865E+03</rscale>
<asrwt>0</asrwt>
<pdfrwt beam="1">  1        2 0.97624905E-01 0.16506508E+03</pdfrwt>
<pdfrwt beam="2">  1       -2 0.59317358E-02 0.16506508E+03</pdfrwt>
<totfact> 0.69174199E+03</totfact>
</mgrwt>
</event>
<event>
 7    1  0.4230786E-006  0.1278404E+03  0.7546771E-02  0.1244656E+00
          2   -1    0    0  501    0  0.00000000000E+00  0.00000000000E+00  0.41744360049E+03  0.41744360049E+03  0.00000000000E+00 0. -1.
         -2   -1    0    0    0  501 -0.00000000000E+00 -0.00000000000E+00 -0.31047512701E+02  0.31047512701E+02  0.00000000000E+00 0.  1.
         23    2    1    2    0    0  0.25365614066E+02  0.86485317308E+01  0.17989856834E+03  0.22069588087E+03  0.12499986185E+03 0.  0.
          5    1    3    3  502    0  0.47822419948E+02  0.35881566292E+02  0.30827469579E+02  0.67430657196E+02  0.47000000000E+01 0.  1.
         -5    1    3    3    0  502 -0.22456805882E+02 -0.27233034561E+02  0.14907109876E+03  0.15326522367E+03  0.47000000000E+01 0.  1.
        -11    1    1    2    0    0 -0.53057103704E+02 -0.19936401464E+02  0.17674943623E+03  0.18561486892E+03  0.00000000000E+00 0. -1.
         11    1    1    2    0    0  0.27691489638E+02  0.11287869733E+02  0.29748083220E+02  0.42180363403E+02  0.00000000000E+00 0.  1.
<mgrwt>
<rscale>  0 0.11905993E+03</rscale>
<asrwt>0</asrwt>
<pdfrwt beam="1">  1        2 0.64222088E-01 0.12784044E+03</pdfrwt>
<pdfrwt beam="2">  1       -2 0.47765407E-02 0.12784044E+03</pdfrwt>
<totfact> 0.15004333E+04</totfact>
</mgrwt>
</event>
<event>
 7    1  0.4230786E-006  0.1558117E+03  0.7546771E-02  0.1202219E+00
          2   -1    0    0  501    0  0.00000000000E+00  0.00000000000E+00  0.62866147806E+03  0.62866147806E+03  0.00000000000E+00 0. -1.
         -2   -1    0    0    0  501 -0.00000000000E+00 -0.00000000000E+00 -0.32307997497E+02  0.32307997497E+02  0.00000000000E+00 0.  1.
         23    2    1    2    0    0 -0.84890394821E+02  0.38024812329E+02  0.30988243844E+03  0.34684928287E+03  0.12500013556E+03 0.  0.
          5    1    3    3  502    0 -0.27964717454E+02 -0.39596981016E+02  0.17102902893E+03  0.17782847091E+03  0.47000000000E+01 0. -1.
         -5    1    3    3    0  502 -0.56925677367E+02  0.77621793345E+02  0.13885340951E+03  0.16902081197E+03  0.47000000000E+01 0. -1.
        -11    1    1    2    0    0  0.50392119022E+01 -0.43965875063E+02  0.14451015523E+03  0.15113430051E+03  0.00000000000E+00 0.  1.
         11    1    1    2    0    0  0.79851182919E+02  0.59410627334E+01  0.14196088690E+03  0.16298589218E+03  0.00000000000E+00 0. -1.
<mgrwt>
<rscale>  0 0.14858766E+03</rscale>
<asrwt>0</asrwt>
<pdfrwt beam="1">  1        2 0.96717141E-01 0.15581174E+03</pdfrwt>
<pdfrwt beam="2">  1       -2 0.49704616E-02 0.15581174E+03</pdfrwt>
<totfact> 0.91102115E+03</totfact>
</mgrwt>
</event>
<event>
 7    1  0.4230786E-006  0.1289658E+03  0.7546771E-02  0.1240474E+00
          1   -1    0    0  501    0  0.00000000000E+00  0.00000000000E+00  0.97735688176E+02  0.97735688176E+02  0.00000000000E+00 0. -1.
         -1   -1    0    0    0  501 -0.00000000000E+00 -0.00000000000E+00 -0.25171361199E+03  0.25171361199E+03  0.00000000000E+00 0.  1.
         23    2    1    2    0    0  0.16215339394E+02 -0.27291817309E+02 -0.19969782397E+03  0.23772126169E+03  0.12499758732E+03 0.  0.
          5    1    3    3  502    0 -0.48506899658E+02  0.13756995840E+02 -0.97788406555E+02  0.11012191746E+03  0.47000000000E+01 0. -1.
         -5    1    3    3    0  502  0.64722239052E+02 -0.41048813149E+02 -0.10190941741E+03  0.12759934422E+03  0.47000000000E+01 0. -1.
        -11    1    1    2    0    0  0.93567491205E+01 -0.30658448045E+02  0.35044261285E+02  0.47493046224E+02  0.00000000000E+00 0.  1.
         11    1    1    2    0    0 -0.25572088515E+02  0.57950265354E+02  0.10675638865E+02  0.64234992261E+02  0.00000000000E+00 0. -1.
<mgrwt>
<rscale>  0 0.12160396E+03</rscale>
<asrwt>0</asrwt>
<pdfrwt beam="1">  1        1 0.15036260E-01 0.12896580E+03</pdfrwt>
<pdfrwt beam="2">  1       -1 0.38725170E-01 0.12896580E+03</pdfrwt>
<totfact> 0.23515033E+03</totfact>
</mgrwt>
</event>
<event>
 7    1  0.4230786E-006  0.1790434E+03  0.7546771E-02  0.1174455E+00
          2   -1    0    0  501    0  0.00000000000E+00  0.00000000000E+00  0.29289130034E+03  0.29289130034E+03  0.00000000000E+00 0. -1.
         -2   -1    0    0    0  501 -0.00000000000E+00 -0.00000000000E+00 -0.11254879662E+03  0.11254879662E+03  0.00000000000E+00 0.  1.
         23    2    1    2    0    0 -0.11107927308E+03  0.63979100594E+02  0.18713578991E+02  0.18001873710E+03  0.12499846979E+03 0.  0.
          5    1    3    3  502    0  0.98129459130E+01  0.54122396690E+02 -0.78533727861E+01  0.55761036532E+02  0.47000000000E+01 0. -1.
         -5    1    3    3    0  502 -0.12089221899E+03  0.98567039032E+01  0.26566951777E+02  0.12425770057E+03  0.47000000000E+01 0. -1.
        -11    1    1    2    0    0 -0.12422677819E+02 -0.19688659894E+02  0.11264429286E+02  0.25862204464E+02  0.00000000000E+00 0. -1.
         11    1    1    2    0    0  0.12350195090E+03 -0.44290440700E+02  0.15036449544E+03  0.19955915540E+03  0.00000000000E+00 0.  1.
<mgrwt>
<rscale>  0 0.17329493E+03</rscale>
<asrwt>0</asrwt>
<pdfrwt beam="1">  1        2 0.45060200E-01 0.17904342E+03</pdfrwt>
<pdfrwt beam="2">  1       -2 0.17315200E-01 0.17904342E+03</pdfrwt>
<totfact> 0.29596254E+03</totfact>
</mgrwt>
</event>
<event>
 7    1  0.4230786E-006  0.1610654E+03  0.7546771E-02  0.1196043E+00
         -2   -1    0    0    0  501 -0.00000000000E+00  0.00000000000E+00  0.71549269482E+02  0.71549269482E+02  0.00000000000E+00 0.  1.
          2   -1    0    0  501    0  0.00000000000E+00 -0.00000000000E+00 -0.31084259160E+03  0.31084259160E+03  0.00000000000E+00 0. -1.
         23    2    1    2    0    0 -0.68718293792E+02  0.74796622697E+02 -0.16074196974E+03  0.22755227566E+03  0.12500127462E+03 0.  0.
          5    1    3    3  502    0  0.10059017969E+02  0.80086238660E+02 -0.67856273715E+02  0.10555355677E+03  0.47000000000E+01 0. -1.
         -5    1    3    3    0  502 -0.78777311761E+02 -0.52896159634E+01 -0.92885696021E+02  0.12199871889E+03  0.47000000000E+01 0. -1.
        -11    1    1    2    0    0  0.87026311953E+02 -0.55133897376E+02 -0.75657412451E+02  0.12781772049E+03  0.00000000000E+00 0.  1.
         11    1    1    2    0    0 -0.18308018161E+02 -0.19662725321E+02 -0.28939399336E+01  0.27021864932E+02  0.00000000000E+00 0. -1.
<mgrwt>
<rscale>  0 0.15366301E+03</rscale>
<asrwt>0</asrwt>
<pdfrwt beam="2">  1        2 0.47821937E-01 0.16106538E+03</pdfrwt>
<pdfrwt beam="1">  1       -2 0.11007580E-01 0.16106538E+03</pdfrwt>
<totfact> 0.57801018E+03</totfact>
</mgrwt>
</event>
<event>
 7    1  0.4230786E-006  0.1478867E+03  0.7546771E-02  0.1212687E+00
         -4   -1    0    0    0  501 -0.00000000000E+00  0.00000000000E+00  0.61940982179E+03  0.61940982179E+03  0.00000000000E+00 0.  1.
          4   -1    0    0  501    0  0.00000000000E+00 -0.00000000000E+00 -0.29064186653E+02  0.29064186653E+02  0.00000000000E+00 0. -1.
         23    2    1    2    0    0 -0.66949542138E+02  0.41969776166E+02  0.31891756943E+03  0.35153790376E+03  0.12500711333E+03 0.  0.
          5    1    3    3  502    0 -0.15556853267E+02  0.73477525127E+02  0.24356289656E+03  0.25492339430E+03  0.47000000000E+01 0. -1.
         -5    1    3    3    0  502 -0.51392688871E+02 -0.31507748961E+02  0.75354672868E+02  0.96614509454E+02  0.47000000000E+01 0. -1.
        -11    1    1    2    0    0  0.63338956815E+02 -0.64412917753E+02  0.24950350557E+03  0.26535419106E+03  0.00000000000E+00 0.  1.
         11    1    1    2    0    0  0.36105853231E+01  0.22443141587E+02  0.21924560142E+02  0.31581913623E+02  0.00000000000E+00 0. -1.
<mgrwt>
<rscale>  0 0.14047850E+03</rscale>
<asrwt>0</asrwt>
<pdfrwt beam="2">  1        4 0.44714138E-02 0.14788672E+03</pdfrwt>
<pdfrwt beam="1">  1       -4 0.95293809E-01 0.14788672E+03</pdfrwt>
<totfact> 0.46219202E+02</totfact>
</mgrwt>
</event>
<event>
 7    1  0.4230786E-006  0.1415916E+03  0.7546771E-02  0.1220928E+00
          2   -1    0    0  501    0  0.00000000000E+00  0.00000000000E+00  0.23966608831E+02  0.23966608831E+02  0.00000000000E+00 0. -1.
         -2   -1    0    0    0  501 -0.00000000000E+00 -0.00000000000E+00 -0.69239597952E+03  0.69239597952E+03  0.00000000000E+00 0.  1.
         23    2    1    2    0    0  0.29236842473E+02  0.59735380532E+02 -0.39564562290E+03  0.42021854970E+03  0.12500024779E+03 0.  0.
          5    1    3    3  502    0  0.65841638957E+02  0.60775003711E+02 -0.35098955293E+03  0.36227679854E+03  0.47000000000E+01 0.  1.
         -5    1    3    3    0  502 -0.36604796484E+02 -0.10396231791E+01 -0.44656069971E+02  0.57941751158E+02  0.47000000000E+01 0.  1.
        -11    1    1    2    0    0 -0.42621464940E+02 -0.72179802175E+02 -0.26163691884E+03  0.27473694767E+03  0.00000000000E+00 0.  1.
         11    1    1    2    0    0  0.13384622467E+02  0.12444421643E+02 -0.11146828954E+02  0.21407090983E+02  0.00000000000E+00 0. -1.
<mgrwt>
<rscale>  0 0.13449928E+03</rscale>
<asrwt>0</asrwt>
<pdfrwt beam="1">  1        2 0.36871705E-02 0.14159156E+03</pdfrwt>
<pdfrwt beam="2">  1       -2 0.10652246E+00 0.14159156E+03</pdfrwt>
<totfact> 0.16863768E+03</totfact>
</mgrwt>
</event>
<event>
 7    1  0.5251693E-006  0.2562562E+03  0.7546771E-02  0.1111722E+00
         -1   -1    0    0    0  501 -0.00000000000E+00  0.00000000000E+00  0.42060448920E+02  0.42060448920E+02  0.00000000000E+00 0.  1.
          1   -1    0    0  501    0  0.00000000000E+00 -0.00000000000E+00 -0.14818139921E+04  0.14818139921E+04  0.00000000000E+00 0. -1.
         23    2    1    2    0    0  0.12836953649E+03  0.18320387526E+03 -0.79807259268E+03  0.83820468830E+03  0.12499935396E+03 0.  0.
          5    1    3    3  502    0  0.14600515996E+03  0.14491468794E+03 -0.56497229298E+03  0.60127660469E+03  0.47000000000E+01 0.  1.
         -5    1    3    3    0  502 -0.17635623472E+02  0.38289187325E+02 -0.23310029971E+03  0.23692808361E+03  0.47000000000E+01 0.  1.
        -11    1    1    2    0    0 -0.14973825779E+02 -0.69843021700E+01 -0.82324290336E+01  0.18459924784E+02  0.00000000000E+00 0.  1.
         11    1    1    2    0    0 -0.11339571071E+03 -0.17621957309E+03 -0.63344852150E+03  0.66720982796E+03  0.00000000000E+00 0. -1.
<mgrwt>
<rscale>  0 0.25252057E+03</rscale>
<asrwt>0</asrwt>
<pdfrwt beam="2">  1        1 0.22797137E+00 0.25625619E+03</pdfrwt>
<pdfrwt beam="1">  1       -1 0.64708387E-02 0.25625619E+03</pdfrwt>
<totfact> 0.87814255E+02</totfact>
</mgrwt>
</event>
<event>
 7    1  0.4230786E-006  0.1971733E+03  0.7546771E-02  0.1156562E+00
         -2   -1    0    0    0  501 -0.00000000000E+00  0.00000000000E+00  0.17370725953E+03  0.17370725953E+03  0.00000000000E+00 0. -1.
          2   -1    0    0  501    0  0.00000000000E+00 -0.00000000000E+00 -0.20307550476E+03  0.20307550476E+03  0.00000000000E+00 0.  1.
         23    2    1    2    0    0  0.13829436469E+03 -0.64243752778E+02 -0.36851396159E+01  0.19720771357E+03  0.12499884383E+03 0.  0.
          5    1    3    3  502    0  0.58777786676E+02 -0.93877916695E+02  0.92260204952E+01  0.11124343083E+03  0.47000000000E+01 0. -1.
         -5    1    3    3    0  502  0.79516578018E+02  0.29634163917E+02 -0.12911160111E+02  0.85964282735E+02  0.47000000000E+01 0. -1.
        -11    1    1    2    0    0 -0.59994607518E+02 -0.13831692234E+02  0.12056875080E+02  0.62737842472E+02  0.00000000000E+00 0. -1.
         11    1    1    2    0    0 -0.78299757176E+02  0.78075445012E+02 -0.37739980693E+02  0.11683720824E+03  0.00000000000E+00 0.  1.
<mgrwt>
<rscale>  0 0.19212133E+03</rscale>
<asrwt>0</asrwt>
<pdfrwt beam="2">  1        2 0.31242386E-01 0.19717328E+03</pdfrwt>
<pdfrwt beam="1">  1       -2 0.26724194E-01 0.19717328E+03</pdfrwt>
<totfact> 0.20877300E+03</totfact>
</mgrwt>
</event>
<event>
 7    1  0.4230786E-006  0.1436812E+03  0.7546771E-02  0.1218472E+00
         -2   -1    0    0    0  501 -0.00000000000E+00  0.00000000000E+00  0.23796642223E+02  0.23796642223E+02  0.00000000000E+00 0. -1.
          2   -1    0    0  501    0  0.00000000000E+00 -0.00000000000E+00 -0.72382431618E+03  0.72382431618E+03  0.00000000000E+00 0.  1.
         23    2    1    2    0    0  0.24017235314E+02  0.66559131540E+02 -0.43887208745E+03  0.46179324362E+03  0.12504937074E+03 0.  0.
          5    1    3    3  502    0  0.72736453453E+02  0.38090238551E+02 -0.19890915797E+03  0.21524033325E+03  0.47000000000E+01 0.  1.
         -5    1    3    3    0  502 -0.48719218138E+02  0.28468892989E+02 -0.23996292948E+03  0.24655291036E+03  0.47000000000E+01 0.  1.
        -11    1    1    2    0    0 -0.25767991196E+02  0.16970816230E+02 -0.50123202153E+02  0.58858587885E+02  0.00000000000E+00 0.  1.
         11    1    1    2    0    0  0.17507558818E+01 -0.83529947770E+02 -0.21103238435E+03  0.22696912690E+03  0.00000000000E+00 0. -1.
<mgrwt>
<rscale>  0 0.13624563E+03</rscale>
<asrwt>0</asrwt>
<pdfrwt beam="2">  1        2 0.11135759E+00 0.14368121E+03</pdfrwt>
<pdfrwt beam="1">  1       -2 0.36610218E-02 0.14368121E+03</pdfrwt>
<totfact> 0.12120637E+04</totfact>
</mgrwt>
</event>
<event>
 7    1  0.4230786E-006  0.1351361E+03  0.7546771E-02  0.1232519E+00
          1   -1    0    0  501    0  0.00000000000E+00  0.00000000000E+00  0.89290017509E+02  0.89290017509E+02  0.00000000000E+00 0. -1.
         -1   -1    0    0    0  501 -0.00000000000E+00 -0.00000000000E+00 -0.17152192012E+03  0.17152192012E+03  0.00000000000E+00 0.  1.
         23    2    1    2    0    0 -0.51303517605E+02  0.19700491728E+01 -0.78967129320E+02  0.15651698207E+03  0.12500330455E+03 0.  0.
          5    1    3    3  502    0  0.16503544906E+02 -0.21058704058E+02  0.20380552140E+02  0.33960166616E+02  0.47000000000E+01 0.  1.
         -5    1    3    3    0  502 -0.67807062510E+02  0.23028753231E+02 -0.99347681460E+02  0.12255681545E+03  0.47000000000E+01 0.  1.
        -11    1    1    2    0    0 -0.14167128913E+02 -0.29656876893E+02  0.25972798456E+01  0.32969436624E+02  0.00000000000E+00 0. -1.
         11    1    1    2    0    0  0.65470646518E+02  0.27686827720E+02 -0.58620531336E+01  0.71325518937E+02  0.00000000000E+00 0.  1.
<mgrwt>
<rscale>  0 0.12664588E+03</rscale>
<asrwt>0</asrwt>
<pdfrwt beam="1">  1        1 0.13736926E-01 0.13513607E+03</pdfrwt>
<pdfrwt beam="2">  1       -1 0.26387988E-01 0.13513607E+03</pdfrwt>
<totfact> 0.50768503E+03</totfact>
</mgrwt>
</event>
<event>
 7    1  0.4230786E-006  0.1954346E+03  0.7546771E-02  0.1157879E+00
         -4   -1    0    0    0  501 -0.00000000000E+00  0.00000000000E+00  0.52257808178E+03  0.52257808178E+03  0.00000000000E+00 0.  1.
          4   -1    0    0  501    0  0.00000000000E+00 -0.00000000000E+00 -0.97164807175E+02  0.97164807175E+02  0.00000000000E+00 0. -1.
         23    2    1    2    0    0 -0.23818357418E+02  0.14833457869E+03  0.39426384223E+03  0.44004391822E+03  0.12499684512E+03 0.  0.
          5    1    3    3  502    0 -0.64336734608E+02  0.13940644072E+03  0.30506204664E+03  0.34155279744E+03  0.47000000000E+01 0. -1.
         -5    1    3    3    0  502  0.40518377190E+02  0.89281379700E+01  0.89201795582E+02  0.98491120782E+02  0.47000000000E+01 0. -1.
        -11    1    1    2    0    0 -0.19228901602E+02 -0.12756129273E+03  0.19126976769E+02  0.13041271142E+03  0.00000000000E+00 0.  1.
         11    1    1    2    0    0  0.43047259020E+02 -0.20773285965E+02  0.12022455613E+02  0.49286259321E+02  0.00000000000E+00 0. -1.
<mgrwt>
<rscale>  0 0.19064756E+03</rscale>
<asrwt>0</asrwt>
<pdfrwt beam="2">  1        4 0.14948432E-01 0.19543457E+03</pdfrwt>
<pdfrwt beam="1">  1       -4 0.80396627E-01 0.19543457E+03</pdfrwt>
<totfact> 0.94428624E+01</totfact>
</mgrwt>
</event>
<event>
 7    1  0.4230786E-006  0.1255930E+03  0.7546771E-02  0.1250939E+00
          4   -1    0    0  501    0  0.00000000000E+00  0.00000000000E+00  0.39343183331E+03  0.39343183331E+03  0.00000000000E+00 0.  1.
         -4   -1    0    0    0  501 -0.00000000000E+00 -0.00000000000E+00 -0.66787057694E+02  0.66787057694E+02  0.00000000000E+00 0. -1.
         23    2    1    2    0    0  0.82243501246E+00 -0.12188102536E+02  0.42637769827E+01  0.12566533400E+03  0.12499748051E+03 0.  0.
          5    1    3    3  502    0  0.54534870113E+02 -0.37143281425E+02  0.86025905489E+00  0.66155161997E+02  0.47000000000E+01 0. -1.
         -5    1    3    3    0  502 -0.53712435100E+02  0.24955178889E+02  0.34035179278E+01  0.59510172005E+02  0.47000000000E+01 0. -1.
        -11    1    1    2    0    0 -0.42017135471E+02  0.21372213927E+02  0.17701463822E+03  0.18318404228E+03  0.00000000000E+00 0.  1.
         11    1    1    2    0    0  0.41194700459E+02 -0.91841113909E+01  0.14536636041E+03  0.15136951472E+03  0.00000000000E+00 0. -1.
<mgrwt>
<rscale>  0 0.11536844E+03</rscale>
<asrwt>0</asrwt>
<pdfrwt beam="1">  1        4 0.60527973E-01 0.12559298E+03</pdfrwt>
<pdfrwt beam="2">  1       -4 0.10274932E-01 0.12559298E+03</pdfrwt>
<totfact> 0.30966192E+02</totfact>
</mgrwt>
</event>
<event>
 7    1  0.4230786E-006  0.1309772E+03  0.7546771E-02  0.1241027E+00
         -2   -1    0    0    0  501 -0.00000000000E+00  0.00000000000E+00  0.65255863134E+03  0.65255863134E+03  0.00000000000E+00 0.  1.
          2   -1    0    0  501    0  0.00000000000E+00 -0.00000000000E+00 -0.19910949831E+02  0.19910949831E+02  0.00000000000E+00 0. -1.
         23    2    1    2    0    0 -0.38236286870E+02 -0.82289374197E+01  0.39152150014E+03  0.41284879162E+03  0.12500124252E+03 0.  0.
          5    1    3    3  502    0  0.22148738334E+02 -0.24054568013E+01  0.31145103749E+03  0.31228223066E+03  0.47000000000E+01 0. -1.
         -5    1    3    3    0  502 -0.60385025204E+02 -0.58234806184E+01  0.80070462643E+02  0.10056656096E+03  0.47000000000E+01 0. -1.
        -11    1    1    2    0    0  0.55238044580E+02 -0.22465802990E+02  0.17300418781E+03  0.18299290389E+03  0.00000000000E+00 0. -1.
         11    1    1    2    0    0 -0.17001757710E+02  0.30694740409E+02  0.68121993559E+02  0.76627885658E+02  0.00000000000E+00 0.  1.
<mgrwt>
<rscale>  0 0.12126343E+03</rscale>
<asrwt>0</asrwt>
<pdfrwt beam="2">  1        2 0.30632236E-02 0.13097725E+03</pdfrwt>
<pdfrwt beam="1">  1       -2 0.10039362E+00 0.13097725E+03</pdfrwt>
<totfact> 0.24668987E+03</totfact>
</mgrwt>
</event>
<event>
 7    1  0.4230786E-006  0.1292743E+03  0.7546771E-02  0.1231489E+00
         -1   -1    0    0    0  501 -0.00000000000E+00  0.00000000000E+00  0.88442502650E+02  0.88442502650E+02  0.00000000000E+00 0.  1.
          1   -1    0    0  501    0  0.00000000000E+00 -0.00000000000E+00 -0.18447066043E+03  0.18447066043E+03  0.00000000000E+00 0. -1.
         23    2    1    2    0    0 -0.31245264060E+02  0.10516679756E+02 -0.75074695090E+02  0.14949269648E+03  0.12499995751E+03 0.  0.
          5    1    3    3  502    0  0.43027254944E+02  0.29322698767E+02 -0.26033900600E+02  0.58403932329E+02  0.47000000000E+01 0. -1.
         -5    1    3    3    0  502 -0.74272519004E+02 -0.18806019012E+02 -0.49040794490E+02  0.91088764151E+02  0.47000000000E+01 0. -1.
        -11    1    1    2    0    0  0.37763134821E+02 -0.55687918385E+02  0.10352474483E+02  0.68076224436E+02  0.00000000000E+00 0.  1.
         11    1    1    2    0    0 -0.65178707605E+01  0.45171238629E+02 -0.31305937173E+02  0.55344242165E+02  0.00000000000E+00 0. -1.
<mgrwt>
<rscale>  0 0.12731904E+03</rscale>
<asrwt>0</asrwt>
<pdfrwt beam="2">  1        1 0.28380101E-01 0.12927435E+03</pdfrwt>
<pdfrwt beam="1">  1       -1 0.13606539E-01 0.12927435E+03</pdfrwt>
<totfact> 0.57998104E+03</totfact>
</mgrwt>
</event>
<event>
 7    1  0.4230786E-006  0.1412734E+03  0.7546771E-02  0.1222402E+00
          2   -1    0    0  501    0  0.00000000000E+00  0.00000000000E+00  0.74858404729E+03  0.74858404729E+03  0.00000000000E+00 0. -1.
         -2   -1    0    0    0  501 -0.00000000000E+00 -0.00000000000E+00 -0.29776138870E+02  0.29776138870E+02  0.00000000000E+00 0.  1.
         23    2    1    2    0    0  0.64693191683E+02  0.12151724939E+02  0.18475031030E+03  0.23257439479E+03  0.12500119394E+03 0.  0.
          5    1    3    3  502    0  0.13275205667E+02 -0.19451169542E+01  0.17807043062E+03  0.17863701415E+03  0.47000000000E+01 0.  1.
         -5    1    3    3    0  502  0.51417986015E+02  0.14096841893E+02  0.66798796832E+01  0.53937380636E+02  0.47000000000E+01 0.  1.
        -11    1    1    2    0    0 -0.42477885601E+02  0.37011325483E+02  0.32684552179E+03  0.33166580182E+03  0.00000000000E+00 0.  1.
         11    1    1    2    0    0 -0.22215306082E+02 -0.49163050422E+02  0.20721207633E+03  0.21411998956E+03  0.00000000000E+00 0. -1.
<mgrwt>
<rscale>  0 0.13346558E+03</rscale>
<asrwt>0</asrwt>
<pdfrwt beam="1">  1        2 0.11516676E+00 0.14127339E+03</pdfrwt>
<pdfrwt beam="2">  1       -2 0.45809450E-02 0.14127339E+03</pdfrwt>
<totfact> 0.83255439E+03</totfact>
</mgrwt>
</event>
<event>
 7    1  0.4230786E-006  0.1264961E+03  0.7546771E-02  0.1244649E+00
         -1   -1    0    0    0  501 -0.00000000000E+00  0.00000000000E+00  0.17598303415E+03  0.17598303415E+03  0.00000000000E+00 0.  1.
          1   -1    0    0  501    0  0.00000000000E+00 -0.00000000000E+00 -0.72617797584E+02  0.72617797584E+02  0.00000000000E+00 0. -1.
         23    2    1    2    0    0 -0.17481276940E+02  0.83476826494E+01  0.64350643153E+02  0.14192341732E+03  0.12500388898E+03 0.  0.
          5    1    3    3  502    0 -0.63360499839E+02  0.10038340857E+02  0.70420842100E+02  0.95375606048E+02  0.47000000000E+01 0. -1.
         -5    1    3    3    0  502  0.45879222899E+02 -0.16906582077E+01 -0.60701989464E+01  0.46547811272E+02  0.47000000000E+01 0. -1.
        -11    1    1    2    0    0  0.53424070151E+02 -0.23930559298E+02  0.32526280530E+02  0.66968364657E+02  0.00000000000E+00 0.  1.
         11    1    1    2    0    0 -0.35942793211E+02  0.15582876649E+02  0.64883128815E+01  0.39709049756E+02  0.00000000000E+00 0. -1.
<mgrwt>
<rscale>  0 0.11906413E+03</rscale>
<asrwt>0</asrwt>
<pdfrwt beam="2">  1        1 0.11171969E-01 0.12649605E+03</pdfrwt>
<pdfrwt beam="1">  1       -1 0.27074313E-01 0.12649605E+03</pdfrwt>
<totfact> 0.63471345E+03</totfact>
</mgrwt>
</event>
<event>
 7    1  0.4230786E-006  0.1252588E+03  0.7546771E-02  0.1249916E+00
         -1   -1    0    0    0  501 -0.00000000000E+00  0.00000000000E+00  0.27831293584E+02  0.27831293584E+02  0.00000000000E+00 0.  1.
          1   -1    0    0  501    0  0.00000000000E+00 -0.00000000000E+00 -0.45000382461E+03  0.45000382461E+03  0.00000000000E+00 0. -1.
         23    2    1    2    0    0  0.11977712905E+01 -0.79302097460E+01 -0.18474065338E+03  0.22320144005E+03  0.12500180377E+03 0.  0.
          5    1    3    3  502    0 -0.51349695834E+02 -0.20178731792E+02 -0.14728853029E+03  0.15735302232E+03  0.47000000000E+01 0. -1.
         -5    1    3    3    0  502  0.52547467124E+02  0.12248522046E+02 -0.37452123096E+02  0.65848417733E+02  0.47000000000E+01 0. -1.
        -11    1    1    2    0    0  0.41875033253E+02  0.20696404726E+02 -0.13236943630E+03  0.14036925320E+03  0.00000000000E+00 0.  1.
         11    1    1    2    0    0 -0.43072804543E+02 -0.12766194980E+02 -0.10506244134E+03  0.11426442494E+03  0.00000000000E+00 0. -1.
<mgrwt>
<rscale>  0 0.11595937E+03</rscale>
<asrwt>0</asrwt>
<pdfrwt beam="2">  1        1 0.69231355E-01 0.12525883E+03</pdfrwt>
<pdfrwt beam="1">  1       -1 0.42817376E-02 0.12525883E+03</pdfrwt>
<totfact> 0.10887684E+04</totfact>
</mgrwt>
</event>
<event>
 7    1  0.4230786E-006  0.1318074E+03  0.7546771E-02  0.1238263E+00
          4   -1    0    0  501    0  0.00000000000E+00  0.00000000000E+00  0.23394280258E+02  0.23394280258E+02  0.00000000000E+00 0. -1.
         -4   -1    0    0    0  501 -0.00000000000E+00 -0.00000000000E+00 -0.10147885817E+04  0.10147885817E+04  0.00000000000E+00 0.  1.
         23    2    1    2    0    0  0.30533649475E+02 -0.25279841067E+02 -0.87471536048E+03  0.88459039303E+03  0.12570531998E+03 0.  0.
          5    1    3    3  502    0 -0.17667547572E+02  0.42134134970E+02 -0.40512021716E+03  0.40771547422E+03  0.47000000000E+01 0. -1.
         -5    1    3    3    0  502  0.48201197047E+02 -0.67413976037E+02 -0.46959514331E+03  0.47687491880E+03  0.47000000000E+01 0.  1.
        -11    1    1    2    0    0 -0.38116282138E+02  0.56132812445E+02 -0.84534229733E+02  0.10839640028E+03  0.00000000000E+00 0. -1.
         11    1    1    2    0    0  0.75826326625E+01 -0.30852971378E+02 -0.32144711224E+02  0.45196068642E+02  0.00000000000E+00 0.  1.
<mgrwt>
<rscale>  0 0.12297821E+03</rscale>
<asrwt>0</asrwt>
<pdfrwt beam="1">  1        4 0.35991201E-02 0.13180744E+03</pdfrwt>
<pdfrwt beam="2">  1       -4 0.15612132E+00 0.13180744E+03</pdfrwt>
<totfact> 0.19355309E+02</totfact>
</mgrwt>
</event>
<event>
 7    1  0.4230786E-006  0.1629675E+03  0.7546771E-02  0.1192678E+00
          2   -1    0    0  501    0  0.00000000000E+00  0.00000000000E+00  0.63010916495E+02  0.63010916495E+02  0.00000000000E+00 0.  1.
         -2   -1    0    0    0  501 -0.00000000000E+00 -0.00000000000E+00 -0.38992682079E+03  0.38992682079E+03  0.00000000000E+00 0. -1.
         23    2    1    2    0    0 -0.91393481445E+02 -0.50798413615E+02 -0.23712273169E+03  0.28772484552E+03  0.12500059827E+03 0.  0.
          5    1    3    3  502    0 -0.31000311981E+02 -0.85762209402E+02 -0.15456073370E+03  0.17951959867E+03  0.47000000000E+01 0. -1.
         -5    1    3    3    0  502 -0.60393169464E+02  0.34963795787E+02 -0.82561997991E+02  0.10820524685E+03  0.47000000000E+01 0. -1.
        -11    1    1    2    0    0  0.81950438689E+02  0.49214078027E+01 -0.26090877682E+02  0.86144231115E+02  0.00000000000E+00 0.  1.
         11    1    1    2    0    0  0.94430427560E+01  0.45877005812E+02 -0.63702294930E+02  0.79068660657E+02  0.00000000000E+00 0. -1.
<mgrwt>
<rscale>  0 0.15652371E+03</rscale>
<asrwt>0</asrwt>
<pdfrwt beam="1">  1        2 0.96939875E-02 0.16296747E+03</pdfrwt>
<pdfrwt beam="2">  1       -2 0.59988739E-01 0.16296747E+03</pdfrwt>
<totfact> 0.17218588E+03</totfact>
</mgrwt>
</event>
<event>
 7    1  0.4230786E-006  0.1346596E+03  0.7546771E-02  0.1232898E+00
         -2   -1    0    0    0  501 -0.00000000000E+00  0.00000000000E+00  0.54695773108E+02  0.54695773108E+02  0.00000000000E+00 0.  1.
          2   -1    0    0  501    0  0.00000000000E+00 -0.00000000000E+00 -0.37209668817E+03  0.37209668817E+03  0.00000000000E+00 0. -1.
         23    2    1    2    0    0 -0.47599892079E+02  0.15547006466E+02 -0.57063892059E+02  0.14625147205E+03  0.12500298462E+03 0.  0.
          5    1    3    3  502    0 -0.49467687010E+02  0.50123536288E+02  0.93587658210E+01  0.71197594383E+02  0.47000000000E+01 0.  1.
         -5    1    3    3    0  502  0.18677949315E+01 -0.34576529822E+02 -0.66422657880E+02  0.75053877663E+02  0.47000000000E+01 0.  1.
        -11    1    1    2    0    0  0.21815305014E+02 -0.50522078469E+02 -0.97000482175E+02  0.11152345712E+03  0.00000000000E+00 0.  1.
         11    1    1    2    0    0  0.25784587064E+02  0.34975072003E+02 -0.16333654083E+03  0.16901753211E+03  0.00000000000E+00 0. -1.
<mgrwt>
<rscale>  0 0.12639939E+03</rscale>
<asrwt>0</asrwt>
<pdfrwt beam="2">  1        2 0.57245646E-01 0.13465959E+03</pdfrwt>
<pdfrwt beam="1">  1       -2 0.84147340E-02 0.13465959E+03</pdfrwt>
<totfact> 0.71970115E+03</totfact>
</mgrwt>
</event>
<event>
 7    1  0.4230786E-006  0.1453527E+03  0.7546771E-02  0.1216558E+00
          2   -1    0    0  501    0  0.00000000000E+00  0.00000000000E+00  0.37390460228E+02  0.37390460228E+02  0.00000000000E+00 0. -1.
         -2   -1    0    0    0  501 -0.00000000000E+00 -0.00000000000E+00 -0.68368375184E+03  0.68368375184E+03  0.00000000000E+00 0.  1.
         23    2    1    2    0    0  0.28512753298E+02  0.68470594717E+02 -0.55236705492E+03  0.57117138969E+03  0.12500477432E+03 0.  0.
          5    1    3    3  502    0  0.40041418915E+02  0.99375883408E+02 -0.47462935716E+03  0.48659428492E+03  0.47000000000E+01 0. -1.
         -5    1    3    3    0  502 -0.11528665618E+02 -0.30905288691E+02 -0.77737697752E+02  0.84577104772E+02  0.47000000000E+01 0. -1.
        -11    1    1    2    0    0 -0.60790164108E+02 -0.36054642095E+02 -0.63039134429E+02  0.94706460912E+02  0.00000000000E+00 0. -1.
         11    1    1    2    0    0  0.32277410810E+02 -0.32415952622E+02 -0.30887102270E+02  0.55196361470E+02  0.00000000000E+00 0.  1.
<mgrwt>
<rscale>  0 0.13762702E+03</rscale>
<asrwt>0</asrwt>
<pdfrwt beam="1">  1        2 0.57523788E-02 0.14535265E+03</pdfrwt>
<pdfrwt beam="2">  1       -2 0.10518211E+00 0.14535265E+03</pdfrwt>
<totfact> 0.96951386E+02</totfact>
</mgrwt>
</event>
<event>
 7    1  0.4230786E-006  0.1257317E+03  0.7546771E-02  0.1247313E+00
         -2   -1    0    0    0  501 -0.00000000000E+00  0.00000000000E+00  0.58745569883E+03  0.58745569883E+03  0.00000000000E+00 0.  1.
          2   -1    0    0  501    0  0.00000000000E+00 -0.00000000000E+00 -0.21841082696E+02  0.21841082696E+02  0.00000000000E+00 0. -1.
         23    2    1    2    0    0 -0.58998464192E+01  0.12200647720E+02  0.38227215777E+03  0.40241828108E+03  0.12499922541E+03 0.  0.
          5    1    3    3  502    0  0.15618953395E+02 -0.52587601972E+02  0.20879148390E+03  0.21592911183E+03  0.47000000000E+01 0.  1.
         -5    1    3    3    0  502 -0.21518799815E+02  0.64788249692E+02  0.17348067387E+03  0.18648916925E+03  0.47000000000E+01 0.  1.
        -11    1    1    2    0    0 -0.10521922306E+02  0.24279878926E+02  0.15645368926E+03  0.15867570782E+03  0.00000000000E+00 0.  1.
         11    1    1    2    0    0  0.16421768725E+02 -0.36480526646E+02  0.26888769110E+02  0.48202792623E+02  0.00000000000E+00 0. -1.
<mgrwt>
<rscale>  0 0.11748007E+03</rscale>
<asrwt>0</asrwt>
<pdfrwt beam="2">  1        2 0.33601670E-02 0.12573174E+03</pdfrwt>
<pdfrwt beam="1">  1       -2 0.90377788E-01 0.12573174E+03</pdfrwt>
<totfact> 0.27591528E+03</totfact>
</mgrwt>
</event>
<event>
 7    1  0.4230786E-006  0.1430741E+03  0.7546771E-02  0.1219417E+00
          2   -1    0    0  501    0  0.00000000000E+00  0.00000000000E+00  0.26334863657E+03  0.26334863657E+03  0.00000000000E+00 0.  1.
         -2   -1    0    0    0  501 -0.00000000000E+00 -0.00000000000E+00 -0.74046436281E+02  0.74046436281E+02  0.00000000000E+00 0. -1.
         23    2    1    2    0    0 -0.68934093973E+02 -0.96549605423E+01  0.39674546990E+02  0.14847314643E+03  0.12500031182E+03 0.  0.
          5    1    3    3  502    0 -0.90695602692E+02 -0.33391209770E+02 -0.51138680149E+00  0.96762682652E+02  0.47000000000E+01 0.  1.
         -5    1    3    3    0  502  0.21761508719E+02  0.23736249228E+02  0.40185933791E+02  0.51710463775E+02  0.47000000000E+01 0.  1.
        -11    1    1    2    0    0  0.46307783785E+02 -0.20331832866E+02  0.14180076386E+03  0.15054982862E+03  0.00000000000E+00 0.  1.
         11    1    1    2    0    0  0.22626310187E+02  0.29986793408E+02  0.78268894426E+01  0.38372097805E+02  0.00000000000E+00 0. -1.
<mgrwt>
<rscale>  0 0.13557037E+03</rscale>
<asrwt>0</asrwt>
<pdfrwt beam="1">  1        2 0.40515175E-01 0.14307413E+03</pdfrwt>
<pdfrwt beam="2">  1       -2 0.11391760E-01 0.14307413E+03</pdfrwt>
<totfact> 0.64820624E+03</totfact>
</mgrwt>
</event>
<event>
 7    1  0.4230786E-006  0.1298820E+03  0.7546771E-02  0.1241430E+00
          1   -1    0    0  501    0  0.00000000000E+00  0.00000000000E+00  0.19277294262E+02  0.19277294262E+02  0.00000000000E+00 0. -1.
         -1   -1    0    0    0  501 -0.00000000000E+00 -0.00000000000E+00 -0.73524200815E+03  0.73524200815E+03  0.00000000000E+00 0.  1.
         23    2    1    2    0    0  0.18960815280E+02 -0.29729571726E+02 -0.51293963002E+03  0.52912795120E+03  0.12500385894E+03 0.  0.
          5    1    3    3  502    0  0.21956333322E-01  0.43372109318E+02 -0.96947191866E+02  0.10631081017E+03  0.47000000000E+01 0. -1.
         -5    1    3    3    0  502  0.18938858947E+02 -0.73101681044E+02 -0.41599243815E+03  0.42281714103E+03  0.47000000000E+01 0. -1.
        -11    1    1    2    0    0  0.34873295861E+02  0.88547763066E+01 -0.11163073048E+03  0.11728586366E+03  0.00000000000E+00 0.  1.
         11    1    1    2    0    0 -0.53834111141E+02  0.20874795420E+02 -0.91394353393E+02  0.10810548755E+03  0.00000000000E+00 0. -1.
<mgrwt>
<rscale>  0 0.12101636E+03</rscale>
<asrwt>0</asrwt>
<pdfrwt beam="1">  1        1 0.29657372E-02 0.12988196E+03</pdfrwt>
<pdfrwt beam="2">  1       -1 0.11311417E+00 0.12988196E+03</pdfrwt>
<totfact> 0.25384310E+03</totfact>
</mgrwt>
</event>
<event>
 7    1  0.4230786E-006  0.1343947E+03  0.7546771E-02  0.1236489E+00
         -2   -1    0    0    0  501 -0.00000000000E+00  0.00000000000E+00  0.15871755723E+03  0.15871755723E+03  0.00000000000E+00 0.  1.
          2   -1    0    0  501    0  0.00000000000E+00 -0.00000000000E+00 -0.85430745983E+02  0.85430745983E+02  0.00000000000E+00 0. -1.
         23    2    1    2    0    0  0.43228313641E+02 -0.23816133058E+02  0.32434176461E+02  0.13825307471E+03  0.12500416621E+03 0.  0.
          5    1    3    3  502    0 -0.12733421754E+02 -0.50991493272E+02  0.50770736930E+02  0.73225884385E+02  0.47000000000E+01 0. -1.
         -5    1    3    3    0  502  0.55961735395E+02  0.27175360214E+02 -0.18336560469E+02  0.65027190321E+02  0.47000000000E+01 0. -1.
        -11    1    1    2    0    0 -0.16327171168E+02 -0.16745975618E+02  0.51062572517E+02  0.56163961129E+02  0.00000000000E+00 0.  1.
         11    1    1    2    0    0 -0.26901142474E+02  0.40562108675E+02 -0.10209937730E+02  0.49731267378E+02  0.00000000000E+00 0. -1.
<mgrwt>
<rscale>  0 0.12409601E+03</rscale>
<asrwt>0</asrwt>
<pdfrwt beam="2">  1        2 0.13143192E-01 0.13439471E+03</pdfrwt>
<pdfrwt beam="1">  1       -2 0.24418086E-01 0.13439471E+03</pdfrwt>
<totfact> 0.64151565E+03</totfact>
</mgrwt>
</event>
<event>
 7    1  0.4230786E-006  0.1391290E+03  0.7546771E-02  0.1226485E+00
         -2   -1    0    0    0  501 -0.00000000000E+00  0.00000000000E+00  0.53613221873E+02  0.53613221873E+02  0.00000000000E+00 0.  1.
          2   -1    0    0  501    0  0.00000000000E+00 -0.00000000000E+00 -0.35628624750E+03  0.35628624750E+03  0.00000000000E+00 0. -1.
         23    2    1    2    0    0  0.34012934933E+02 -0.50764137909E+02 -0.75556054817E+02  0.15832119340E+03  0.12499202142E+03 0.  0.
          5    1    3    3  502    0  0.50995652224E+01 -0.40101225547E+02  0.28508135405E+02  0.49688204235E+02  0.47000000000E+01 0. -1.
         -5    1    3    3    0  502  0.28913369710E+02 -0.10662912361E+02 -0.10406419022E+03  0.10863298916E+03  0.47000000000E+01 0. -1.
        -11    1    1    2    0    0  0.30445581328E+02  0.12447603206E+02 -0.60453836977E+02  0.68822544659E+02  0.00000000000E+00 0. -1.
         11    1    1    2    0    0 -0.64458516261E+02  0.38316534702E+02 -0.16666313384E+03  0.18275573132E+03  0.00000000000E+00 0.  1.
<mgrwt>
<rscale>  0 0.13065638E+03</rscale>
<asrwt>0</asrwt>
<pdfrwt beam="2">  1        2 0.54813269E-01 0.13912902E+03</pdfrwt>
<pdfrwt beam="1">  1       -2 0.82481880E-02 0.13912902E+03</pdfrwt>
<totfact> 0.77908753E+03</totfact>
</mgrwt>
</event>
<event>
 7    1  0.4230786E-006  0.1362895E+03  0.7546771E-02  0.1230472E+00
         -1   -1    0    0    0  501 -0.00000000000E+00  0.00000000000E+00  0.62448464443E+02  0.62448464443E+02  0.00000000000E+00 0.  1.
          1   -1    0    0  501    0  0.00000000000E+00 -0.00000000000E+00 -0.23736648212E+03  0.23736648212E+03  0.00000000000E+00 0. -1.
         23    2    1    2    0    0  0.51279511638E+02 -0.17920216586E+02 -0.83448834319E+02  0.15980784265E+03  0.12499646454E+03 0.  0.
          5    1    3    3  502    0  0.72504285049E+02 -0.39181191792E+02 -0.96263878255E+02  0.12681033632E+03  0.47000000000E+01 0. -1.
         -5    1    3    3    0  502 -0.21224773411E+02  0.21260975206E+02  0.12815043936E+02  0.32997506332E+02  0.47000000000E+01 0. -1.
        -11    1    1    2    0    0 -0.58299483628E+02  0.56560942990E+01 -0.12640250967E+02  0.59921591588E+02  0.00000000000E+00 0.  1.
         11    1    1    2    0    0  0.70199719901E+01  0.12264122287E+02 -0.78828932395E+02  0.80085512327E+02  0.00000000000E+00 0. -1.
<mgrwt>
<rscale>  0 0.12798832E+03</rscale>
<asrwt>0</asrwt>
<pdfrwt beam="2">  1        1 0.36517920E-01 0.13628954E+03</pdfrwt>
<pdfrwt beam="1">  1       -1 0.96074561E-02 0.13628954E+03</pdfrwt>
<totfact> 0.72702866E+03</totfact>
</mgrwt>
</event>
<event>
 7    1  0.4230786E-006  0.3350902E+03  0.7546771E-02  0.1069989E+00
         -2   -1    0    0    0  501 -0.00000000000E+00  0.00000000000E+00  0.61317202621E+03  0.61317202621E+03  0.00000000000E+00 0.  1.
          2   -1    0    0  501    0  0.00000000000E+00 -0.00000000000E+00 -0.17780858265E+03  0.17780858265E+03  0.00000000000E+00 0. -1.
         23    2    1    2    0    0  0.24592589537E+03 -0.19021265577E+03  0.22469448981E+03  0.40345140665E+03  0.12500009340E+03 0.  0.
          5    1    3    3  502    0  0.14233331960E+03 -0.59641285093E+02  0.50812156518E+02  0.16254175465E+03  0.47000000000E+01 0.  1.
         -5    1    3    3    0  502  0.10359257577E+03 -0.13057137068E+03  0.17388233329E+03  0.24090965200E+03  0.47000000000E+01 0.  1.
        -11    1    1    2    0    0 -0.22050414598E+03  0.19837393655E+03  0.20406984980E+03  0.36002611113E+03  0.00000000000E+00 0. -1.
         11    1    1    2    0    0 -0.25421749388E+02 -0.81612807780E+01  0.65991039476E+01  0.27503091077E+02  0.00000000000E+00 0.  1.
<mgrwt>
<rscale>  0 0.33260646E+03</rscale>
<asrwt>0</asrwt>
<pdfrwt beam="2">  1        2 0.27355167E-01 0.33509017E+03</pdfrwt>
<pdfrwt beam="1">  1       -2 0.94334157E-01 0.33509017E+03</pdfrwt>
<totfact> 0.19136764E+02</totfact>
</mgrwt>
</event>
<event>
 7    1  0.4230786E-006  0.1292517E+03  0.7546771E-02  0.1242694E+00
         -1   -1    0    0    0  501 -0.00000000000E+00  0.00000000000E+00  0.13881802142E+03  0.13881802142E+03  0.00000000000E+00 0.  1.
          1   -1    0    0  501    0  0.00000000000E+00 -0.00000000000E+00 -0.16523729186E+03  0.16523729186E+03  0.00000000000E+00 0. -1.
         23    2    1    2    0    0  0.26033005625E+02  0.20120430529E+02  0.86337381146E+02  0.15543534120E+03  0.12499381106E+03 0.  0.
          5    1    3    3  502    0  0.44535988568E+01  0.58637128029E+02  0.93407017811E+02  0.11047673195E+03  0.47000000000E+01 0. -1.
         -5    1    3    3    0  502  0.21579406768E+02 -0.38516697500E+02 -0.70696366651E+01  0.44958609246E+02  0.47000000000E+01 0. -1.
        -11    1    1    2    0    0 -0.37267283475E+02  0.28304416040E+02 -0.48745067014E+02  0.67572715967E+02  0.00000000000E+00 0.  1.
         11    1    1    2    0    0  0.11234277850E+02 -0.48424846569E+02 -0.64011584577E+02  0.81047256117E+02  0.00000000000E+00 0. -1.
<mgrwt>
<rscale>  0 0.12024495E+03</rscale>
<asrwt>0</asrwt>
<pdfrwt beam="2">  1        1 0.25421122E-01 0.12925170E+03</pdfrwt>
<pdfrwt beam="1">  1       -1 0.21356619E-01 0.12925170E+03</pdfrwt>
<totfact> 0.32613356E+03</totfact>
</mgrwt>
</event>
<event>
 7    1  0.4230786E-006  0.1299240E+03  0.7546771E-02  0.1241064E+00
         -1   -1    0    0    0  501 -0.00000000000E+00  0.00000000000E+00  0.24962809491E+03  0.24962809491E+03  0.00000000000E+00 0.  1.
          1   -1    0    0  501    0  0.00000000000E+00 -0.00000000000E+00 -0.56498413980E+02  0.56498413980E+02  0.00000000000E+00 0. -1.
         23    2    1    2    0    0  0.31811520010E+02 -0.15598952941E+02  0.15037507298E+03  0.19872820318E+03  0.12499974411E+03 0.  0.
          5    1    3    3  502    0  0.39587461220E+02 -0.66852011365E+02  0.87820845133E+02  0.11734968832E+03  0.47000000000E+01 0. -1.
         -5    1    3    3    0  502 -0.77759412101E+01  0.51253058424E+02  0.62554227848E+02  0.81378514862E+02  0.47000000000E+01 0. -1.
        -11    1    1    2    0    0 -0.42174318671E+01 -0.20266273933E+02 -0.20822414395E+02  0.29361224973E+02  0.00000000000E+00 0. -1.
         11    1    1    2    0    0 -0.27594088143E+02  0.35865226875E+02  0.63577022343E+02  0.78037080732E+02  0.00000000000E+00 0.  1.
<mgrwt>
<rscale>  0 0.12124098E+03</rscale>
<asrwt>0</asrwt>
<pdfrwt beam="2">  1        1 0.86920638E-02 0.12992396E+03</pdfrwt>
<pdfrwt beam="1">  1       -1 0.38404322E-01 0.12992396E+03</pdfrwt>
<totfact> 0.49033464E+03</totfact>
</mgrwt>
</event>
<event>
 7    1  0.4230786E-006  0.1296414E+03  0.7546771E-02  0.1242515E+00
         -1   -1    0    0    0  501 -0.00000000000E+00  0.00000000000E+00  0.78890061989E+02  0.78890061989E+02  0.00000000000E+00 0.  1.
          1   -1    0    0  501    0  0.00000000000E+00 -0.00000000000E+00 -0.23100507777E+03  0.23100507777E+03  0.00000000000E+00 0. -1.
         23    2    1    2    0    0 -0.15079569225E+02  0.30882530668E+02  0.26132448314E+00  0.12964168384E+03  0.12500309512E+03 0.  0.
          5    1    3    3  502    0 -0.36377449228E+02  0.67012080361E+02 -0.25092176112E+02  0.80409234723E+02  0.47000000000E+01 0. -1.
         -5    1    3    3    0  502  0.21297880003E+02 -0.36129549692E+02  0.25353500595E+02  0.49232449117E+02  0.47000000000E+01 0. -1.
        -11    1    1    2    0    0 -0.95714298791E+01  0.23483302393E+02 -0.91677875872E+02  0.95120506126E+02  0.00000000000E+00 0. -1.
         11    1    1    2    0    0  0.24650999104E+02 -0.54365833061E+02 -0.60698464395E+02  0.85132949797E+02  0.00000000000E+00 0.  1.
<mgrwt>
<rscale>  0 0.12035356E+03</rscale>
<asrwt>0</asrwt>
<pdfrwt beam="2">  1        1 0.35539242E-01 0.12964142E+03</pdfrwt>
<pdfrwt beam="1">  1       -1 0.12136933E-01 0.12964142E+03</pdfrwt>
<totfact> 0.52385046E+03</totfact>
</mgrwt>
</event>
<event>
 7    1  0.4230786E-006  0.1694817E+03  0.7546771E-02  0.1184622E+00
          2   -1    0    0  501    0  0.00000000000E+00  0.00000000000E+00  0.33090478573E+03  0.33090478573E+03  0.00000000000E+00 0. -1.
         -2   -1    0    0    0  501 -0.00000000000E+00 -0.00000000000E+00 -0.87440394972E+02  0.87440394972E+02  0.00000000000E+00 0.  1.
         23    2    1    2    0    0  0.11363083324E+03  0.13537502183E+02  0.53113005605E+02  0.17760921651E+03  0.12501524786E+03 0.  0.
          5    1    3    3  502    0  0.78605288817E+02  0.67178095924E+02  0.20303974791E+02  0.10547999523E+03  0.47000000000E+01 0.  1.
         -5    1    3    3    0  502  0.35025544425E+02 -0.53640593741E+02  0.32809030813E+02  0.72129221278E+02  0.47000000000E+01 0.  1.
        -11    1    1    2    0    0  0.12739547764E+02 -0.33695250152E+01  0.14804971278E+01  0.13260529695E+02  0.00000000000E+00 0.  1.
         11    1    1    2    0    0 -0.12637038101E+03 -0.10167977168E+02  0.18887088803E+03  0.22747543450E+03  0.00000000000E+00 0. -1.
<mgrwt>
<rscale>  0 0.16366279E+03</rscale>
<asrwt>0</asrwt>
<pdfrwt beam="1">  1        2 0.50908428E-01 0.16948169E+03</pdfrwt>
<pdfrwt beam="2">  1       -2 0.13452369E-01 0.16948169E+03</pdfrwt>
<totfact> 0.39276521E+03</totfact>
</mgrwt>
</event>
<event>
 7    1  0.4230786E-006  0.1393793E+03  0.7546771E-02  0.1235986E+00
         -1   -1    0    0    0  501 -0.00000000000E+00  0.00000000000E+00  0.71808508466E+02  0.71808508466E+02  0.00000000000E+00 0.  1.
          1   -1    0    0  501    0  0.00000000000E+00 -0.00000000000E+00 -0.19690633725E+03  0.19690633725E+03  0.00000000000E+00 0. -1.
         23    2    1    2    0    0 -0.48436552908E+02  0.38154857224E+02 -0.37809543592E+02  0.14441659938E+03  0.12499879920E+03 0.  0.
          5    1    3    3  502    0 -0.29423651596E+02 -0.10225711527E+02  0.39880413489E+02  0.50821784990E+02  0.47000000000E+01 0.  1.
         -5    1    3    3    0  502 -0.19012901312E+02  0.48380568751E+02 -0.77689957080E+02  0.93594814387E+02  0.47000000000E+01 0.  1.
        -11    1    1    2    0    0 -0.14110666973E+02 -0.15221349133E+02 -0.12891388186E+02  0.24433343636E+02  0.00000000000E+00 0.  1.
         11    1    1    2    0    0  0.62547219881E+02 -0.22933508091E+02 -0.74396897011E+02  0.99864902709E+02  0.00000000000E+00 0. -1.
<mgrwt>
<rscale>  0 0.12441552E+03</rscale>
<asrwt>0</asrwt>
<pdfrwt beam="2">  1        1 0.30293282E-01 0.13937931E+03</pdfrwt>
<pdfrwt beam="1">  1       -1 0.11047463E-01 0.13937931E+03</pdfrwt>
<totfact> 0.74153381E+03</totfact>
</mgrwt>
</event>
<event>
 7    1  0.4230786E-006  0.1346738E+03  0.7546771E-02  0.1234533E+00
          1   -1    0    0  501    0  0.00000000000E+00  0.00000000000E+00  0.37356981166E+02  0.37356981166E+02  0.00000000000E+00 0. -1.
         -1   -1    0    0    0  501 -0.00000000000E+00 -0.00000000000E+00 -0.43067572050E+03  0.43067572050E+03  0.00000000000E+00 0.  1.
         23    2    1    2    0    0 -0.43497498674E+02 -0.24909871058E+02 -0.30658276378E+03  0.33485819564E+03  0.12499794428E+03 0.  0.
          5    1    3    3  502    0 -0.15214938795E+02 -0.42377235740E+02 -0.25861731618E+02  0.52136778130E+02  0.47000000000E+01 0.  1.
         -5    1    3    3    0  502 -0.28282559879E+02  0.17467364681E+02 -0.28072103216E+03  0.28272141751E+03  0.47000000000E+01 0.  1.
        -11    1    1    2    0    0  0.36663538888E+02  0.48823400618E+02 -0.23851178942E+02  0.65550120280E+02  0.00000000000E+00 0. -1.
         11    1    1    2    0    0  0.68339597854E+01 -0.23913529560E+02 -0.62884796606E+02  0.67624385739E+02  0.00000000000E+00 0.  1.
<mgrwt>
<rscale>  0 0.12534378E+03</rscale>
<asrwt>0</asrwt>
<pdfrwt beam="1">  1        1 0.57472275E-02 0.13467375E+03</pdfrwt>
<pdfrwt beam="2">  1       -1 0.66257807E-01 0.13467375E+03</pdfrwt>
<totfact> 0.31586275E+03</totfact>
</mgrwt>
</event>
<event>
 7    1  0.4230786E-006  0.1903664E+03  0.7546771E-02  0.1164441E+00
         -2   -1    0    0    0  501 -0.00000000000E+00  0.00000000000E+00  0.15500086105E+03  0.15500086105E+03  0.00000000000E+00 0.  1.
          2   -1    0    0  501    0  0.00000000000E+00 -0.00000000000E+00 -0.20576867423E+03  0.20576867423E+03  0.00000000000E+00 0. -1.
         23    2    1    2    0    0 -0.14177412082E+03 -0.22659813529E+02 -0.64065305744E+01  0.19047412452E+03  0.12500391992E+03 0.  0.
          5    1    3    3  502    0 -0.62495117443E+02  0.51942542749E+02 -0.20301399284E+01  0.81424068429E+02  0.47000000000E+01 0.  1.
         -5    1    3    3    0  502 -0.79279003381E+02 -0.74602356278E+02 -0.43763906460E+01  0.10905005610E+03  0.47000000000E+01 0.  1.
        -11    1    1    2    0    0  0.75987938425E+01 -0.13423782814E+02 -0.25881073963E+02  0.30129215097E+02  0.00000000000E+00 0. -1.
         11    1    1    2    0    0  0.13417532698E+03  0.36083596343E+02 -0.18480208643E+02  0.14016619566E+03  0.00000000000E+00 0.  1.
<mgrwt>
<rscale>  0 0.18351798E+03</rscale>
<asrwt>0</asrwt>
<pdfrwt beam="2">  1        2 0.31656719E-01 0.19036635E+03</pdfrwt>
<pdfrwt beam="1">  1       -2 0.23846286E-01 0.19036635E+03</pdfrwt>
<totfact> 0.25123766E+03</totfact>
</mgrwt>
</event>
<event>
 7    1  0.4230786E-006  0.1404003E+03  0.7546771E-02  0.1223948E+00
         -3   -1    0    0    0  501 -0.00000000000E+00  0.00000000000E+00  0.71615383843E+02  0.71615383843E+02  0.00000000000E+00 0.  1.
          3   -1    0    0  501    0  0.00000000000E+00 -0.00000000000E+00 -0.22957791695E+03  0.22957791695E+03  0.00000000000E+00 0. -1.
         23    2    1    2    0    0 -0.63632473534E+02 -0.62181176708E+01 -0.58344468801E+02  0.15204052272E+03  0.12499794731E+03 0.  0.
          5    1    3    3  502    0 -0.20108269102E+02 -0.64220537772E+02 -0.23359046770E+02  0.71388759787E+02  0.47000000000E+01 0. -1.
         -5    1    3    3    0  502 -0.43524204432E+02  0.58002420101E+02 -0.34985422031E+02  0.80651762929E+02  0.47000000000E+01 0. -1.
        -11    1    1    2    0    0  0.16055003509E+02 -0.37114560202E+02 -0.15650785049E+02  0.43361282145E+02  0.00000000000E+00 0.  1.
         11    1    1    2    0    0  0.47577470025E+02  0.43332677873E+02 -0.83967279260E+02  0.10579149593E+03  0.00000000000E+00 0. -1.
<mgrwt>
<rscale>  0 0.13239289E+03</rscale>
<asrwt>0</asrwt>
<pdfrwt beam="2">  1        3 0.35319679E-01 0.14040030E+03</pdfrwt>
<pdfrwt beam="1">  1       -3 0.11017752E-01 0.14040030E+03</pdfrwt>
<totfact> 0.11467460E+03</totfact>
</mgrwt>
</event>
<event>
 7    1  0.4230786E-006  0.1436196E+03  0.7546771E-02  0.1218965E+00
          2   -1    0    0  501    0  0.00000000000E+00  0.00000000000E+00  0.23812671916E+03  0.23812671916E+03  0.00000000000E+00 0. -1.
         -2   -1    0    0    0  501 -0.00000000000E+00 -0.00000000000E+00 -0.84816661138E+02  0.84816661138E+02  0.00000000000E+00 0.  1.
         23    2    1    2    0    0 -0.15326875952E+02 -0.70009394750E+02  0.17147848410E+02  0.14463967193E+03  0.12446026479E+03 0.  0.
          5    1    3    3  502    0 -0.80514882251E+01 -0.11488108733E+02 -0.51752958221E+02  0.53826218421E+02  0.47000000000E+01 0. -1.
         -5    1    3    3    0  502 -0.72753877271E+01 -0.58521286017E+02  0.68900806631E+02  0.90813453508E+02  0.47000000000E+01 0. -1.
        -11    1    1    2    0    0  0.10215525455E+02  0.91590031868E+02  0.11742337959E+03  0.14926935711E+03  0.00000000000E+00 0. -1.
         11    1    1    2    0    0  0.51113504969E+01 -0.21580637118E+02  0.18738830021E+02  0.29034351256E+02  0.00000000000E+00 0.  1.
<mgrwt>
<rscale>  0 0.13589257E+03</rscale>
<asrwt>0</asrwt>
<pdfrwt beam="1">  1        2 0.36634880E-01 0.14361959E+03</pdfrwt>
<pdfrwt beam="2">  1       -2 0.13048717E-01 0.14361959E+03</pdfrwt>
<totfact> 0.58081753E+03</totfact>
</mgrwt>
</event>
<event>
 7    1  0.4230786E-006  0.2045397E+03  0.7546771E-02  0.1154539E+00
          1   -1    0    0  501    0  0.00000000000E+00  0.00000000000E+00  0.53930118958E+03  0.53930118958E+03  0.00000000000E+00 0. -1.
         -1   -1    0    0    0  501 -0.00000000000E+00 -0.00000000000E+00 -0.66231566601E+02  0.66231566601E+02  0.00000000000E+00 0.  1.
         23    2    1    2    0    0  0.12061399291E+03  0.10982221609E+03  0.20402741899E+03  0.28890080322E+03  0.12340110197E+03 0.  0.
          5    1    3    3  502    0  0.11556709029E+03  0.12661610068E+03  0.20873296310E+03  0.27014612564E+03  0.47000000000E+01 0. -1.
         -5    1    3    3    0  502  0.50469026261E+01 -0.16793884592E+02 -0.47055441142E+01  0.18754677582E+02  0.47000000000E+01 0.  1.
        -11    1    1    2    0    0 -0.11957460455E+02 -0.16582834641E+02  0.58918829864E+02  0.62365052536E+02  0.00000000000E+00 0. -1.
         11    1    1    2    0    0 -0.10865653246E+03 -0.93239381449E+02  0.21012337412E+03  0.25426690043E+03  0.00000000000E+00 0.  1.
<mgrwt>
<rscale>  0 0.19441483E+03</rscale>
<asrwt>0</asrwt>
<pdfrwt beam="1">  1        1 0.82969411E-01 0.20453969E+03</pdfrwt>
<pdfrwt beam="2">  1       -1 0.10189472E-01 0.20453969E+03</pdfrwt>
<totfact> 0.23915167E+03</totfact>
</mgrwt>
</event>
<event>
 7    1  0.4230786E-006  0.1342219E+03  0.7546771E-02  0.1234737E+00
          2   -1    0    0  501    0  0.00000000000E+00  0.00000000000E+00  0.98246912520E+02  0.98246912520E+02  0.00000000000E+00 0. -1.
         -2   -1    0    0    0  501 -0.00000000000E+00 -0.00000000000E+00 -0.14157890503E+03  0.14157890503E+03  0.00000000000E+00 0.  1.
         23    2    1    2    0    0  0.32167007061E+02  0.36788888791E+02 -0.24183971721E+02  0.13638320568E+03  0.12500950213E+03 0.  0.
          5    1    3    3  502    0  0.56122989117E+01 -0.46087417737E+02 -0.34193912411E+01  0.46790279004E+02  0.47000000000E+01 0. -1.
         -5    1    3    3    0  502  0.26554708149E+02  0.82876306528E+02 -0.20764580479E+02  0.89592926680E+02  0.47000000000E+01 0. -1.
        -11    1    1    2    0    0 -0.41713271779E+02 -0.13629843400E+02  0.26578226919E+02  0.51304695884E+02  0.00000000000E+00 0. -1.
         11    1    1    2    0    0  0.95462647180E+01 -0.23159045391E+02 -0.45726247712E+02  0.52137915985E+02  0.00000000000E+00 0.  1.
<mgrwt>
<rscale>  0 0.12521306E+03</rscale>
<asrwt>0</asrwt>
<pdfrwt beam="1">  1        2 0.15114910E-01 0.13422188E+03</pdfrwt>
<pdfrwt beam="2">  1       -2 0.21781370E-01 0.13422188E+03</pdfrwt>
<totfact> 0.66255787E+03</totfact>
</mgrwt>
</event>
<event>
 7    1  0.4230786E-006  0.1351269E+03  0.7546771E-02  0.1232469E+00
          3   -1    0    0  501    0  0.00000000000E+00  0.00000000000E+00  0.11971621888E+03  0.11971621888E+03  0.00000000000E+00 0. -1.
         -3   -1    0    0    0  501 -0.00000000000E+00 -0.00000000000E+00 -0.14963479461E+03  0.14963479461E+03  0.00000000000E+00 0.  1.
         23    2    1    2    0    0  0.32300371620E+02  0.39776787494E+02 -0.76250182979E+02  0.15515597216E+03  0.12503510892E+03 0.  0.
          5    1    3    3  502    0 -0.36324216477E+02  0.13890707965E+02 -0.71475491479E+02  0.81506051018E+02  0.47000000000E+01 0.  1.
         -5    1    3    3    0  502  0.68624588098E+02  0.25886079530E+02 -0.47746915000E+01  0.73649921140E+02  0.47000000000E+01 0.  1.
        -11    1    1    2    0    0 -0.59050127569E+01  0.10032708037E+02 -0.22435433786E+02  0.25275939061E+02  0.00000000000E+00 0.  1.
         11    1    1    2    0    0 -0.26395358863E+02 -0.49809495532E+02  0.68767041035E+02  0.88919102263E+02  0.00000000000E+00 0. -1.
<mgrwt>
<rscale>  0 0.12667890E+03</rscale>
<asrwt>0</asrwt>
<pdfrwt beam="1">  1        3 0.18417880E-01 0.13512692E+03</pdfrwt>
<pdfrwt beam="2">  1       -3 0.23020738E-01 0.13512692E+03</pdfrwt>
<totfact> 0.10433240E+03</totfact>
</mgrwt>
</event>
<event>
 7    1  0.4230786E-006  0.1281402E+03  0.7546771E-02  0.1244921E+00
         -1   -1    0    0    0  501 -0.00000000000E+00  0.00000000000E+00  0.51315456231E+02  0.51315456231E+02  0.00000000000E+00 0. -1.
          1   -1    0    0  501    0  0.00000000000E+00 -0.00000000000E+00 -0.24425572728E+03  0.24425572728E+03  0.00000000000E+00 0.  1.
         23    2    1    2    0    0  0.10340959589E+02 -0.26205730924E+02 -0.12288015555E+03  0.17753717449E+03  0.12500495958E+03 0.  0.
          5    1    3    3  502    0 -0.32567335244E+02 -0.60344950813E+02 -0.90646447882E+02  0.11375857298E+03  0.47000000000E+01 0. -1.
         -5    1    3    3    0  502  0.42908294833E+02  0.34139219889E+02 -0.32233707667E+02  0.63778601506E+02  0.47000000000E+01 0. -1.
        -11    1    1    2    0    0  0.14505858119E+02  0.35669835368E+02  0.46004334583E+01  0.38780421130E+02  0.00000000000E+00 0.  1.
         11    1    1    2    0    0 -0.24846817708E+02 -0.94641044442E+01 -0.74660548957E+02  0.79253587891E+02  0.00000000000E+00 0. -1.
<mgrwt>
<rscale>  0 0.11890130E+03</rscale>
<asrwt>0</asrwt>
<pdfrwt beam="2">  1        1 0.37577804E-01 0.12814022E+03</pdfrwt>
<pdfrwt beam="1">  1       -1 0.78946856E-02 0.12814022E+03</pdfrwt>
<totfact> 0.94045508E+03</totfact>
</mgrwt>
</event>
<event>
 7    1  0.4230786E-006  0.1401351E+03  0.7546771E-02  0.1223884E+00
         -3   -1    0    0    0  501 -0.00000000000E+00  0.00000000000E+00  0.24264686670E+02  0.24264686670E+02  0.00000000000E+00 0.  1.
          3   -1    0    0  501    0  0.00000000000E+00 -0.00000000000E+00 -0.67213611579E+03  0.67213611579E+03  0.00000000000E+00 0. -1.
         23    2    1    2    0    0 -0.20859106237E+02  0.59810908125E+02 -0.41643125440E+03  0.43937779725E+03  0.12500164813E+03 0.  0.
          5    1    3    3  502    0 -0.21792611165E+01 -0.36519355270E+02 -0.67961731573E+02  0.77325929977E+02  0.47000000000E+01 0. -1.
         -5    1    3    3    0  502 -0.18679845121E+02  0.96330263395E+02 -0.34846952282E+03  0.36205186727E+03  0.47000000000E+01 0. -1.
        -11    1    1    2    0    0  0.37575303152E+02 -0.23209404543E+02 -0.34579436553E+02  0.56092043094E+02  0.00000000000E+00 0.  1.
         11    1    1    2    0    0 -0.16716196915E+02 -0.36601503582E+02 -0.19686073817E+03  0.20093096212E+03  0.00000000000E+00 0. -1.
<mgrwt>
<rscale>  0 0.13243655E+03</rscale>
<asrwt>0</asrwt>
<pdfrwt beam="2">  1        3 0.10340556E+00 0.14013515E+03</pdfrwt>
<pdfrwt beam="1">  1       -3 0.37330286E-02 0.14013515E+03</pdfrwt>
<totfact> 0.70696848E+02</totfact>
</mgrwt>
</event>
<event>
 7    1  0.4230786E-006  0.1359704E+03  0.7546771E-02  0.1231130E+00
          1   -1    0    0  501    0  0.00000000000E+00  0.00000000000E+00  0.45125849555E+03  0.45125849555E+03  0.00000000000E+00 0. -1.
         -1   -1    0    0    0  501 -0.00000000000E+00 -0.00000000000E+00 -0.33467771678E+02  0.33467771678E+02  0.00000000000E+00 0.  1.
         23    2    1    2    0    0  0.52078223926E+02 -0.12542418532E+02  0.28032468839E+03  0.31156038184E+03  0.12497394504E+03 0.  0.
          5    1    3    3  502    0  0.99198159200E+01 -0.57738892418E+02  0.65643547877E+02  0.88109862237E+02  0.47000000000E+01 0. -1.
         -5    1    3    3    0  502  0.42158408006E+02  0.45196473886E+02  0.21468114052E+03  0.22345051960E+03  0.47000000000E+01 0. -1.
        -11    1    1    2    0    0 -0.37944305037E+01  0.34564726518E+02  0.11743726935E+02  0.36701950145E+02  0.00000000000E+00 0.  1.
         11    1    1    2    0    0 -0.48283793423E+02 -0.22022307986E+02  0.12572230854E+03  0.13646393524E+03  0.00000000000E+00 0. -1.
<mgrwt>
<rscale>  0 0.12755493E+03</rscale>
<asrwt>0</asrwt>
<pdfrwt beam="1">  1        1 0.69424380E-01 0.13597037E+03</pdfrwt>
<pdfrwt beam="2">  1       -1 0.51488882E-02 0.13597037E+03</pdfrwt>
<totfact> 0.83143002E+03</totfact>
</mgrwt>
</event>
<event>
 7    1  0.4230786E-006  0.1356768E+03  0.7546771E-02  0.1220310E+00
         -2   -1    0    0    0  501 -0.00000000000E+00  0.00000000000E+00  0.15588281897E+02  0.15588281897E+02  0.00000000000E+00 0.  1.
          2   -1    0    0  501    0  0.00000000000E+00 -0.00000000000E+00 -0.11640689930E+04  0.11640689930E+04  0.00000000000E+00 0. -1.
         23    2    1    2    0    0 -0.26974124288E+02  0.45328147606E+02 -0.52978731840E+03  0.54688461703E+03  0.12500374898E+03 0.  0.
          5    1    3    3  502    0  0.45883700352E+02  0.21777097817E+02 -0.30823842104E+03  0.31243010443E+03  0.47000000000E+01 0.  1.
         -5    1    3    3    0  502 -0.72857824640E+02  0.23551049789E+02 -0.22154889736E+03  0.23445451260E+03  0.47000000000E+01 0.  1.
        -11    1    1    2    0    0  0.96275386382E-01  0.39514374243E+02 -0.12420333124E+03  0.13033749473E+03  0.00000000000E+00 0.  1.
         11    1    1    2    0    0  0.26877848902E+02 -0.84842521849E+02 -0.49449006143E+03  0.50243516311E+03  0.00000000000E+00 0. -1.
<mgrwt>
<rscale>  0 0.13493635E+03</rscale>
<asrwt>0</asrwt>
<pdfrwt beam="2">  1        2 0.17908757E+00 0.13567675E+03</pdfrwt>
<pdfrwt beam="1">  1       -2 0.23981968E-02 0.13567675E+03</pdfrwt>
<totfact> 0.11956391E+04</totfact>
</mgrwt>
</event>
<event>
 7    1  0.4230786E-006  0.1265776E+03  0.7546771E-02  0.1246790E+00
         -2   -1    0    0    0  501 -0.00000000000E+00  0.00000000000E+00  0.32312079089E+02  0.32312079089E+02  0.00000000000E+00 0.  1.
          2   -1    0    0  501    0  0.00000000000E+00 -0.00000000000E+00 -0.44963363860E+03  0.44963363860E+03  0.00000000000E+00 0. -1.
         23    2    1    2    0    0 -0.43083050961E+01 -0.19426750926E+02 -0.13954842244E+03  0.18840289348E+03  0.12500371164E+03 0.  0.
          5    1    3    3  502    0  0.14910411579E+02  0.48346287188E+02 -0.85616124162E+02  0.99558498255E+02  0.47000000000E+01 0.  1.
         -5    1    3    3    0  502 -0.19218716675E+02 -0.67773038114E+02 -0.53932298275E+02  0.88844395226E+02  0.47000000000E+01 0.  1.
        -11    1    1    2    0    0 -0.68314582391E+01 -0.34302999602E+02 -0.65057378870E+02  0.73863571189E+02  0.00000000000E+00 0.  1.
         11    1    1    2    0    0  0.11139763335E+02  0.53729750528E+02 -0.21271575821E+03  0.21967925302E+03  0.00000000000E+00 0. -1.
<mgrwt>
<rscale>  0 0.11778909E+03</rscale>
<asrwt>0</asrwt>
<pdfrwt beam="2">  1        2 0.69174403E-01 0.12657760E+03</pdfrwt>
<pdfrwt beam="1">  1       -2 0.49710893E-02 0.12657760E+03</pdfrwt>
<totfact> 0.13038963E+04</totfact>
</mgrwt>
</event>
<event>
 7    1  0.4230786E-006  0.2176735E+03  0.7546771E-02  0.1139125E+00
          1   -1    0    0  501    0  0.00000000000E+00  0.00000000000E+00  0.19491143068E+03  0.19491143068E+03  0.00000000000E+00 0. -1.
         -1   -1    0    0    0  501 -0.00000000000E+00 -0.00000000000E+00 -0.24761538924E+03  0.24761538924E+03  0.00000000000E+00 0.  1.
         23    2    1    2    0    0 -0.15008870626E+03  0.96136664764E+02 -0.95993215216E+02  0.23790007035E+03  0.12495146275E+03 0.  0.
          5    1    3    3  502    0  0.18351970323E+02  0.26483992469E+02 -0.29137132407E+02  0.43695070166E+02  0.47000000000E+01 0.  1.
         -5    1    3    3    0  502 -0.16844067659E+03  0.69652672295E+02 -0.66856082809E+02  0.19420500018E+03  0.47000000000E+01 0.  1.
        -11    1    1    2    0    0  0.95840897449E+02 -0.63724454775E+02 -0.18120398385E+02  0.11651022529E+03  0.00000000000E+00 0.  1.
         11    1    1    2    0    0  0.54247808816E+02 -0.32412209989E+02  0.61409655048E+02  0.88116524278E+02  0.00000000000E+00 0. -1.
<mgrwt>
<rscale>  0 0.21311260E+03</rscale>
<asrwt>0</asrwt>
<pdfrwt beam="1">  1        1 0.29986374E-01 0.21767349E+03</pdfrwt>
<pdfrwt beam="2">  1       -1 0.38094675E-01 0.21767349E+03</pdfrwt>
<totfact> 0.10188908E+03</totfact>
</mgrwt>
</event>
<event>
 7    1  0.4230786E-006  0.2057334E+03  0.7546771E-02  0.1149124E+00
         -1   -1    0    0    0  501 -0.00000000000E+00  0.00000000000E+00  0.13995224929E+03  0.13995224929E+03  0.00000000000E+00 0.  1.
          1   -1    0    0  501    0  0.00000000000E+00 -0.00000000000E+00 -0.33343077591E+03  0.33343077591E+03  0.00000000000E+00 0. -1.
         23    2    1    2    0    0 -0.14993994912E+03  0.64971418214E+02 -0.14536826169E+01  0.20573852278E+03  0.12499181187E+03 0.  0.
          5    1    3    3  502    0 -0.11942883755E+03  0.27349097027E+01 -0.40276263094E+02  0.12615464453E+03  0.47000000000E+01 0. -1.
         -5    1    3    3    0  502 -0.30511111574E+02  0.62236508511E+02  0.38822580477E+02  0.79583878242E+02  0.47000000000E+01 0. -1.
        -11    1    1    2    0    0  0.72834209763E+02 -0.12351955064E+02 -0.14586643590E+03  0.16350660546E+03  0.00000000000E+00 0. -1.
         11    1    1    2    0    0  0.77105739358E+02 -0.52619463150E+02 -0.46158408104E+02  0.10413789696E+03  0.00000000000E+00 0.  1.
<mgrwt>
<rscale>  0 0.20073061E+03</rscale>
<asrwt>0</asrwt>
<pdfrwt beam="2">  1        1 0.51297042E-01 0.20573339E+03</pdfrwt>
<pdfrwt beam="1">  1       -1 0.21531115E-01 0.20573339E+03</pdfrwt>
<totfact> 0.13614243E+03</totfact>
</mgrwt>
</event>
<event>
 7    1  0.4230786E-006  0.1605176E+03  0.7546771E-02  0.1195752E+00
         -2   -1    0    0    0  501 -0.00000000000E+00  0.00000000000E+00  0.31098820864E+02  0.31098820864E+02  0.00000000000E+00 0.  1.
          2   -1    0    0  501    0  0.00000000000E+00 -0.00000000000E+00 -0.80839535430E+03  0.80839535430E+03  0.00000000000E+00 0. -1.
         23    2    1    2    0    0 -0.93379163860E+02 -0.37703128906E+02 -0.26759541782E+03  0.31204679649E+03  0.12499880554E+03 0.  0.
          5    1    3    3  502    0 -0.12104633967E+03 -0.11688266414E+02 -0.21413693448E+03  0.24630377307E+03  0.47000000000E+01 0.  1.
         -5    1    3    3    0  502  0.27667175806E+02 -0.26014862491E+02 -0.53458483338E+02  0.65743023419E+02  0.47000000000E+01 0.  1.
        -11    1    1    2    0    0  0.54771985331E+02  0.66837864832E+02 -0.29695864443E+03  0.30927610165E+03  0.00000000000E+00 0.  1.
         11    1    1    2    0    0  0.38607178528E+02 -0.29134735927E+02 -0.21274247119E+03  0.21817127703E+03  0.00000000000E+00 0. -1.
<mgrwt>
<rscale>  0 0.15390774E+03</rscale>
<asrwt>0</asrwt>
<pdfrwt beam="2">  1        2 0.12436851E+00 0.16051759E+03</pdfrwt>
<pdfrwt beam="1">  1       -2 0.47844341E-02 0.16051759E+03</pdfrwt>
<totfact> 0.71404923E+03</totfact>
</mgrwt>
</event>
<event>
 7    1  0.4230786E-006  0.1250439E+03  0.7546771E-02  0.1250105E+00
          1   -1    0    0  501    0  0.00000000000E+00  0.00000000000E+00  0.42382212766E+03  0.42382212766E+03  0.00000000000E+00 0. -1.
         -1   -1    0    0    0  501 -0.00000000000E+00 -0.00000000000E+00 -0.28016878839E+02  0.28016878839E+02  0.00000000000E+00 0.  1.
         23    2    1    2    0    0  0.21222380748E+01 -0.26589742479E+01  0.20898066374E+03  0.24353415885E+03  0.12499757866E+03 0.  0.
          5    1    3    3  502    0 -0.25740457664E+01  0.39552940361E+02  0.19429037568E+03  0.19834792887E+03  0.47000000000E+01 0. -1.
         -5    1    3    3    0  502  0.46962838412E+01 -0.42211914609E+02  0.14690288057E+02  0.45186229983E+02  0.47000000000E+01 0. -1.
        -11    1    1    2    0    0  0.12851843800E+02 -0.26177758763E+02  0.16849216463E+03  0.17099723531E+03  0.00000000000E+00 0. -1.
         11    1    1    2    0    0 -0.14974081874E+02  0.28836733011E+02  0.18332420454E+02  0.37307612339E+02  0.00000000000E+00 0.  1.
<mgrwt>
<rscale>  0 0.11584950E+03</rscale>
<asrwt>0</asrwt>
<pdfrwt beam="1">  1        1 0.65203400E-01 0.12504387E+03</pdfrwt>
<pdfrwt beam="2">  1       -1 0.43102894E-02 0.12504387E+03</pdfrwt>
<totfact> 0.11634010E+04</totfact>
</mgrwt>
</event>
<event>
 7    1  0.4230786E-006  0.2083864E+03  0.7546771E-02  0.1146527E+00
          1   -1    0    0  501    0  0.00000000000E+00  0.00000000000E+00  0.12254566081E+04  0.12254566081E+04  0.00000000000E+00 0. -1.
         -1   -1    0    0    0  501 -0.00000000000E+00 -0.00000000000E+00 -0.35975284588E+02  0.35975284588E+02  0.00000000000E+00 0.  1.
         23    2    1    2    0    0  0.16248227483E+03  0.37493938453E+02  0.42293101714E+03  0.47148229412E+03  0.12497449084E+03 0.  0.
          5    1    3    3  502    0  0.17549452807E+03  0.86966433021E+01  0.34332703707E+03  0.38570650160E+03  0.47000000000E+01 0. -1.
         -5    1    3    3    0  502 -0.13012253234E+02  0.28797295151E+02  0.79603980061E+02  0.85775792528E+02  0.47000000000E+01 0. -1.
        -11    1    1    2    0    0 -0.15369321099E+03 -0.46274062814E+01  0.56505926816E+03  0.58560651681E+03  0.00000000000E+00 0. -1.
         11    1    1    2    0    0 -0.87890638408E+01 -0.32866532172E+02  0.20149103824E+03  0.20434308178E+03  0.00000000000E+00 0.  1.
<mgrwt>
<rscale>  0 0.20385486E+03</rscale>
<asrwt>0</asrwt>
<pdfrwt beam="1">  1        1 0.18853175E+00 0.20838644E+03</pdfrwt>
<pdfrwt beam="2">  1       -1 0.55346601E-02 0.20838644E+03</pdfrwt>
<totfact> 0.16597520E+03</totfact>
</mgrwt>
</event>
<event>
 7    1  0.4230786E-006  0.1368788E+03  0.7546771E-02  0.1229576E+00
         -1   -1    0    0    0  501 -0.00000000000E+00  0.00000000000E+00  0.28298602303E+03  0.28298602303E+03  0.00000000000E+00 0.  1.
          1   -1    0    0  501    0  0.00000000000E+00 -0.00000000000E+00 -0.52551486876E+02  0.52551486876E+02  0.00000000000E+00 0. -1.
         23    2    1    2    0    0  0.40435118095E+02  0.38412054931E+02  0.13937556987E+03  0.19534930649E+03  0.12500126931E+03 0.  0.
          5    1    3    3  502    0  0.59261737150E+02  0.29809566339E+00  0.14050620444E+03  0.15256515276E+03  0.47000000000E+01 0.  1.
         -5    1    3    3    0  502 -0.18826619056E+02  0.38113959268E+02 -0.11306345608E+01  0.42784153733E+02  0.47000000000E+01 0.  1.
        -11    1    1    2    0    0  0.11896353503E+02  0.19807093469E+02  0.41615424432E+02  0.47599240844E+02  0.00000000000E+00 0.  1.
         11    1    1    2    0    0 -0.52331471597E+02 -0.58219148400E+02  0.49443541851E+02  0.92588962575E+02  0.00000000000E+00 0. -1.
<mgrwt>
<rscale>  0 0.12858170E+03</rscale>
<asrwt>0</asrwt>
<pdfrwt beam="2">  1        1 0.80848443E-02 0.13687879E+03</pdfrwt>
<pdfrwt beam="1">  1       -1 0.43536310E-01 0.13687879E+03</pdfrwt>
<totfact> 0.43472485E+03</totfact>
</mgrwt>
</event>
<event>
 7    1  0.4230786E-006  0.1780887E+03  0.7546771E-02  0.1175586E+00
          1   -1    0    0  501    0  0.00000000000E+00  0.00000000000E+00  0.88142874839E+03  0.88142874839E+03  0.00000000000E+00 0. -1.
         -1   -1    0    0    0  501 -0.00000000000E+00 -0.00000000000E+00 -0.41014267658E+02  0.41014267658E+02  0.00000000000E+00 0.  1.
         23    2    1    2    0    0  0.12453414750E+03  0.24158010756E+02  0.22125305585E+03  0.28402203272E+03  0.12499294770E+03 0.  0.
          5    1    3    3  502    0 -0.10370027255E+02 -0.74483754441E+01 -0.82385228892E+01  0.15905314251E+02  0.47000000000E+01 0.  1.
         -5    1    3    3    0  502  0.13490417475E+03  0.31606386200E+02  0.22949157873E+03  0.26811671847E+03  0.47000000000E+01 0.  1.
        -11    1    1    2    0    0 -0.33283898341E+02 -0.39669043897E+02  0.11916979942E+03  0.12993418344E+03  0.00000000000E+00 0.  1.
         11    1    1    2    0    0 -0.91250249157E+02  0.15511033141E+02  0.49999162546E+03  0.50848679988E+03  0.00000000000E+00 0. -1.
<mgrwt>
<rscale>  0 0.17218694E+03</rscale>
<asrwt>0</asrwt>
<pdfrwt beam="1">  1        1 0.13560441E+00 0.17808874E+03</pdfrwt>
<pdfrwt beam="2">  1       -1 0.63098880E-02 0.17808874E+03</pdfrwt>
<totfact> 0.24261481E+03</totfact>
</mgrwt>
</event>
<event>
 7    1  0.4230786E-006  0.1557974E+03  0.7546771E-02  0.1201722E+00
          3   -1    0    0  501    0  0.00000000000E+00  0.00000000000E+00  0.54853777126E+02  0.54853777126E+02  0.00000000000E+00 0. -1.
         -3   -1    0    0    0  501 -0.00000000000E+00 -0.00000000000E+00 -0.49211794704E+03  0.49211794704E+03  0.00000000000E+00 0.  1.
         23    2    1    2    0    0 -0.92679654302E+02 -0.75080428981E+01 -0.36753479699E+03  0.39919252080E+03  0.12500781029E+03 0.  0.
          5    1    3    3  502    0  0.26451310372E+02 -0.23251973619E+02 -0.85559393199E+02  0.92643541934E+02  0.47000000000E+01 0. -1.
         -5    1    3    3    0  502 -0.11913096467E+03  0.15743930721E+02 -0.28197540379E+03  0.30654897886E+03  0.47000000000E+01 0. -1.
        -11    1    1    2    0    0  0.25571132851E+02 -0.35512921565E+02 -0.48421424616E+02  0.65266260772E+02  0.00000000000E+00 0.  1.
         11    1    1    2    0    0  0.67108521452E+02  0.43020964463E+02 -0.21307948306E+02  0.82512942596E+02  0.00000000000E+00 0. -1.
<mgrwt>
<rscale>  0 0.14898800E+03</rscale>
<asrwt>0</asrwt>
<pdfrwt beam="1">  1        3 0.84390421E-02 0.15579744E+03</pdfrwt>
<pdfrwt beam="2">  1       -3 0.75710459E-01 0.15579744E+03</pdfrwt>
<totfact> 0.38895024E+02</totfact>
</mgrwt>
</event>
<event>
 7    1  0.4230786E-006  0.1530057E+03  0.7546771E-02  0.1205164E+00
         -1   -1    0    0    0  501 -0.00000000000E+00  0.00000000000E+00  0.45492961103E+02  0.45492961103E+02  0.00000000000E+00 0.  1.
          1   -1    0    0  501    0  0.00000000000E+00 -0.00000000000E+00 -0.45707845727E+03  0.45707845727E+03  0.00000000000E+00 0. -1.
         23    2    1    2    0    0  0.33057932411E+02 -0.81818836805E+02 -0.16593875411E+03  0.22571313422E+03  0.12499439944E+03 0.  0.
          5    1    3    3  502    0 -0.42207771810E+02 -0.61494925823E+02 -0.75851753522E+02  0.10648333398E+03  0.47000000000E+01 0.  1.
         -5    1    3    3    0  502  0.75265704221E+02 -0.20323910982E+02 -0.90087000588E+02  0.11922980024E+03  0.47000000000E+01 0.  1.
        -11    1    1    2    0    0 -0.58113862725E+02  0.79274331474E+02 -0.21976566612E+03  0.24074590065E+03  0.00000000000E+00 0. -1.
         11    1    1    2    0    0  0.25055930314E+02  0.25445053305E+01 -0.25881075930E+02  0.36112383507E+02  0.00000000000E+00 0.  1.
<mgrwt>
<rscale>  0 0.14624514E+03</rscale>
<asrwt>0</asrwt>
<pdfrwt beam="2">  1        1 0.70319765E-01 0.15300572E+03</pdfrwt>
<pdfrwt beam="1">  1       -1 0.69989168E-02 0.15300572E+03</pdfrwt>
<totfact> 0.52091704E+03</totfact>
</mgrwt>
</event>
<event>
 7    1  0.4230786E-006  0.1476020E+03  0.7546771E-02  0.1212573E+00
          1   -1    0    0  501    0  0.00000000000E+00  0.00000000000E+00  0.13727652535E+03  0.13727652535E+03  0.00000000000E+00 0. -1.
         -1   -1    0    0    0  501 -0.00000000000E+00 -0.00000000000E+00 -0.15952588770E+03  0.15952588770E+03  0.00000000000E+00 0.  1.
         23    2    1    2    0    0 -0.54308541191E+01 -0.78255973094E+02 -0.73667573886E+02  0.16496443797E+03  0.12503144745E+03 0.  0.
          5    1    3    3  502    0  0.37057078917E+02 -0.88033905396E+02 -0.74310194770E+02  0.12110859030E+03  0.47000000000E+01 0.  1.
         -5    1    3    3    0  502 -0.42487933036E+02  0.97779323017E+01  0.64262088405E+00  0.43855847676E+02  0.47000000000E+01 0.  1.
        -11    1    1    2    0    0  0.52497620277E+01  0.59033043358E+02  0.78665217698E+02  0.98492013305E+02  0.00000000000E+00 0. -1.
         11    1    1    2    0    0  0.18109209140E+00  0.19222929736E+02 -0.27247006155E+02  0.33345961771E+02  0.00000000000E+00 0.  1.
<mgrwt>
<rscale>  0 0.14056328E+03</rscale>
<asrwt>0</asrwt>
<pdfrwt beam="1">  1        1 0.21119466E-01 0.14760201E+03</pdfrwt>
<pdfrwt beam="2">  1       -1 0.24542444E-01 0.14760201E+03</pdfrwt>
<totfact> 0.33075924E+03</totfact>
</mgrwt>
</event>
<event>
 7    1  0.4230786E-006  0.1321489E+03  0.7546771E-02  0.1237436E+00
          1   -1    0    0  501    0  0.00000000000E+00  0.00000000000E+00  0.13028878352E+03  0.13028878352E+03  0.00000000000E+00 0. -1.
         -1   -1    0    0    0  501 -0.00000000000E+00 -0.00000000000E+00 -0.10562207394E+03  0.10562207394E+03  0.00000000000E+00 0.  1.
         23    2    1    2    0    0  0.17113676939E+02 -0.39292271453E+02  0.27907007284E+02  0.13506340547E+03  0.12500624747E+03 0.  0.
          5    1    3    3  502    0  0.41843700824E+02  0.34217756958E+02  0.15054269900E+02  0.56306937691E+02  0.47000000000E+01 0. -1.
         -5    1    3    3    0  502 -0.24730023885E+02 -0.73510028411E+02  0.12852737384E+02  0.78756467776E+02  0.47000000000E+01 0. -1.
        -11    1    1    2    0    0  0.10914744743E+02  0.27817543290E+02  0.38837736230E+02  0.49003235841E+02  0.00000000000E+00 0. -1.
         11    1    1    2    0    0 -0.28028421682E+02  0.11474728163E+02 -0.42078033938E+02  0.51844216153E+02  0.00000000000E+00 0.  1.
<mgrwt>
<rscale>  0 0.12349738E+03</rscale>
<asrwt>0</asrwt>
<pdfrwt beam="1">  1        1 0.20044428E-01 0.13214886E+03</pdfrwt>
<pdfrwt beam="2">  1       -1 0.16249550E-01 0.13214886E+03</pdfrwt>
<totfact> 0.68123840E+03</totfact>
</mgrwt>
</event>
<event>
 7    1  0.4230786E-006  0.1276409E+03  0.7546771E-02  0.1246582E+00
          1   -1    0    0  501    0  0.00000000000E+00  0.00000000000E+00  0.38057268568E+02  0.38057268568E+02  0.00000000000E+00 0. -1.
         -1   -1    0    0    0  501 -0.00000000000E+00 -0.00000000000E+00 -0.36183264098E+03  0.36183264098E+03  0.00000000000E+00 0.  1.
         23    2    1    2    0    0  0.22101860408E+02  0.13357935282E+02 -0.25188698939E+03  0.28238137966E+03  0.12500104594E+03 0.  0.
          5    1    3    3  502    0 -0.10117980613E+02  0.38842383115E+02 -0.16933110417E+02  0.43816942912E+02  0.47000000000E+01 0. -1.
         -5    1    3    3    0  502  0.32219841022E+02 -0.25484447833E+02 -0.23495387897E+03  0.23856443675E+03  0.47000000000E+01 0. -1.
        -11    1    1    2    0    0 -0.18637314934E+02  0.37539918348E+02 -0.31044255184E+02  0.52156886002E+02  0.00000000000E+00 0.  1.
         11    1    1    2    0    0 -0.34645454745E+01 -0.50897853629E+02 -0.40844127835E+02  0.65351643881E+02  0.00000000000E+00 0. -1.
<mgrwt>
<rscale>  0 0.11791213E+03</rscale>
<asrwt>0</asrwt>
<pdfrwt beam="1">  1        1 0.58549645E-02 0.12764086E+03</pdfrwt>
<pdfrwt beam="2">  1       -1 0.55666560E-01 0.12764086E+03</pdfrwt>
<totfact> 0.42766323E+03</totfact>
</mgrwt>
</event>
<event>
 7    1  0.4230786E-006  0.2534017E+03  0.7546771E-02  0.1113541E+00
          3   -1    0    0  501    0  0.00000000000E+00  0.00000000000E+00  0.31664308110E+02  0.31664308110E+02  0.00000000000E+00 0. -1.
         -3   -1    0    0    0  501 -0.00000000000E+00 -0.00000000000E+00 -0.19120310171E+04  0.19120310171E+04  0.00000000000E+00 0.  1.
         23    2    1    2    0    0 -0.21893694593E+03 -0.25578035756E+02 -0.98519775747E+03  0.10172644922E+04  0.12499921460E+03 0.  0.
          5    1    3    3  502    0 -0.87855255988E+02  0.50809833096E+02 -0.38960009879E+03  0.40262949734E+03  0.47000000000E+01 0. -1.
         -5    1    3    3    0  502 -0.13108168994E+03 -0.76387868853E+02 -0.59559765868E+03  0.61463499491E+03  0.47000000000E+01 0. -1.
        -11    1    1    2    0    0  0.16737090007E+03 -0.19044558671E+02 -0.57986850174E+03  0.60384037023E+03  0.00000000000E+00 0. -1.
         11    1    1    2    0    0  0.51566045863E+02  0.44622594427E+02 -0.31530044977E+03  0.32259046273E+03  0.00000000000E+00 0.  1.
<mgrwt>
<rscale>  0 0.24962649E+03</rscale>
<asrwt>0</asrwt>
<pdfrwt beam="1">  1        3 0.48714324E-02 0.25340171E+03</pdfrwt>
<pdfrwt beam="2">  1       -3 0.29415860E+00 0.25340171E+03</pdfrwt>
<totfact> 0.27925437E+01</totfact>
</mgrwt>
</event>
<event>
 7    1  0.4230786E-006  0.1893675E+03  0.7546771E-02  0.1163384E+00
         -2   -1    0    0    0  501 -0.00000000000E+00  0.00000000000E+00  0.43103716421E+02  0.43103716421E+02  0.00000000000E+00 0.  1.
          2   -1    0    0  501    0  0.00000000000E+00 -0.00000000000E+00 -0.75598572993E+03  0.75598572993E+03  0.00000000000E+00 0. -1.
         23    2    1    2    0    0  0.51457313872E+02  0.13261376455E+03 -0.35339364064E+03  0.40093281962E+03  0.12500317960E+03 0.  0.
          5    1    3    3  502    0  0.91159021630E+02  0.10743203351E+03 -0.28274680136E+03  0.31594216675E+03  0.47000000000E+01 0.  1.
         -5    1    3    3    0  502 -0.39701707757E+02  0.25181731038E+02 -0.70646839272E+02  0.84990652874E+02  0.47000000000E+01 0.  1.
        -11    1    1    2    0    0 -0.72043883009E+02 -0.10503073840E+03 -0.21742150709E+03  0.25197993736E+03  0.00000000000E+00 0.  1.
         11    1    1    2    0    0  0.20586569136E+02 -0.27583026143E+02 -0.14206686578E+03  0.14617668936E+03  0.00000000000E+00 0. -1.
<mgrwt>
<rscale>  0 0.18464250E+03</rscale>
<asrwt>0</asrwt>
<pdfrwt beam="2">  1        2 0.11630549E+00 0.18936753E+03</pdfrwt>
<pdfrwt beam="1">  1       -2 0.66313415E-02 0.18936753E+03</pdfrwt>
<totfact> 0.47584318E+03</totfact>
</mgrwt>
</event>
<event>
 7    1  0.5462946E-006  0.2006659E+03  0.7546771E-02  0.1153481E+00
          1   -1    0    0  501    0  0.00000000000E+00  0.00000000000E+00  0.34821007357E+03  0.34821007357E+03  0.00000000000E+00 0. -1.
         -1   -1    0    0    0  501 -0.00000000000E+00 -0.00000000000E+00 -0.13690732015E+03  0.13690732015E+03  0.00000000000E+00 0.  1.
         23    2    1    2    0    0  0.10032543714E+03  0.12073302407E+03 -0.77236711489E+01  0.20081452413E+03  0.12500064626E+03 0.  0.
          5    1    3    3  502    0  0.50309041099E+02  0.12395952733E+03 -0.41553257650E+02  0.14016321648E+03  0.47000000000E+01 0. -1.
         -5    1    3    3    0  502  0.50016396040E+02 -0.32265032586E+01  0.33829586501E+02  0.60651307644E+02  0.47000000000E+01 0. -1.
        -11    1    1    2    0    0 -0.34891963453E+02 -0.10840384034E+03  0.12512225335E+03  0.16918752909E+03  0.00000000000E+00 0. -1.
         11    1    1    2    0    0 -0.65433473686E+02 -0.12329183731E+02  0.93904171208E+02  0.11511534051E+03  0.00000000000E+00 0.  1.
<mgrwt>
<rscale>  0 0.19562814E+03</rscale>
<asrwt>0</asrwt>
<pdfrwt beam="1">  1        1 0.53570780E-01 0.20066594E+03</pdfrwt>
<pdfrwt beam="2">  1       -1 0.21062665E-01 0.20066594E+03</pdfrwt>
<totfact> 0.13355092E+03</totfact>
</mgrwt>
</event>
<event>
 7    1  0.4230786E-006  0.1403500E+03  0.7546771E-02  0.1223869E+00
         -1   -1    0    0    0  501 -0.00000000000E+00  0.00000000000E+00  0.43277951513E+02  0.43277951513E+02  0.00000000000E+00 0.  1.
          1   -1    0    0  501    0  0.00000000000E+00 -0.00000000000E+00 -0.36961723470E+03  0.36961723470E+03  0.00000000000E+00 0. -1.
         23    2    1    2    0    0  0.22253857077E+02 -0.59819891109E+02 -0.16109708163E+03  0.21365953287E+03  0.12499789097E+03 0.  0.
          5    1    3    3  502    0  0.39623042439E+02 -0.53449336597E+02 -0.17678656624E+03  0.18895077951E+03  0.47000000000E+01 0. -1.
         -5    1    3    3    0  502 -0.17369185362E+02 -0.63705545123E+01  0.15689484610E+02  0.24708753353E+02  0.47000000000E+01 0. -1.
        -11    1    1    2    0    0  0.27853105003E+02  0.12572893226E+02 -0.99266309257E+02  0.10386372445E+03  0.00000000000E+00 0.  1.
         11    1    1    2    0    0 -0.50106962080E+02  0.47246997884E+02 -0.65975892301E+02  0.95371928904E+02  0.00000000000E+00 0. -1.
<mgrwt>
<rscale>  0 0.13244716E+03</rscale>
<asrwt>0</asrwt>
<pdfrwt beam="2">  1        1 0.56864189E-01 0.14035001E+03</pdfrwt>
<pdfrwt beam="1">  1       -1 0.66581466E-02 0.14035001E+03</pdfrwt>
<totfact> 0.73141115E+03</totfact>
</mgrwt>
</event>
<event>
 7    1  0.4230786E-006  0.1319713E+03  0.7546771E-02  0.1237727E+00
         -1   -1    0    0    0  501 -0.00000000000E+00  0.00000000000E+00  0.26453856786E+02  0.26453856786E+02  0.00000000000E+00 0.  1.
          1   -1    0    0  501    0  0.00000000000E+00 -0.00000000000E+00 -0.52652949956E+03  0.52652949956E+03  0.00000000000E+00 0. -1.
         23    2    1    2    0    0 -0.42311187704E+02 -0.10750730368E+01 -0.23600435213E+03  0.27039690358E+03  0.12500015542E+03 0.  0.
          5    1    3    3  502    0 -0.16870611604E+02  0.15028162215E+02  0.80549538818E+01  0.24442493274E+02  0.47000000000E+01 0. -1.
         -5    1    3    3    0  502 -0.25440576100E+02 -0.16103235251E+02 -0.24405930602E+03  0.24595441031E+03  0.47000000000E+01 0. -1.
        -11    1    1    2    0    0 -0.24416038205E+02 -0.18724512223E+02 -0.90061227573E+02  0.95172343628E+02  0.00000000000E+00 0.  1.
         11    1    1    2    0    0  0.66727225909E+02  0.19799585260E+02 -0.17401006307E+03  0.18741410914E+03  0.00000000000E+00 0. -1.
<mgrwt>
<rscale>  0 0.12331476E+03</rscale>
<asrwt>0</asrwt>
<pdfrwt beam="2">  1        1 0.81004534E-01 0.13197133E+03</pdfrwt>
<pdfrwt beam="1">  1       -1 0.40698243E-02 0.13197133E+03</pdfrwt>
<totfact> 0.96072815E+03</totfact>
</mgrwt>
</event>
<event>
 7    1  0.4230786E-006  0.1388106E+03  0.7546771E-02  0.1225961E+00
          2   -1    0    0  501    0  0.00000000000E+00  0.00000000000E+00  0.59486538850E+03  0.59486538850E+03  0.00000000000E+00 0. -1.
         -2   -1    0    0    0  501 -0.00000000000E+00 -0.00000000000E+00 -0.26391837447E+02  0.26391837447E+02  0.00000000000E+00 0.  1.
         23    2    1    2    0    0 -0.23419976441E+02 -0.55644751673E+02  0.28132517990E+03  0.31370723205E+03  0.12499414750E+03 0.  0.
          5    1    3    3  502    0  0.26758927726E+01  0.23358143759E+02  0.42224569812E+01  0.24345069828E+02  0.47000000000E+01 0. -1.
         -5    1    3    3    0  502 -0.26095869214E+02 -0.79002895431E+02  0.27710272292E+03  0.28936216222E+03  0.47000000000E+01 0. -1.
        -11    1    1    2    0    0  0.32299675943E+02  0.44889475165E+02  0.28829918982E+03  0.29355537280E+03  0.00000000000E+00 0. -1.
         11    1    1    2    0    0 -0.88796995022E+01  0.10755276507E+02 -0.11508186722E+01  0.13994621096E+02  0.00000000000E+00 0.  1.
<mgrwt>
<rscale>  0 0.13101229E+03</rscale>
<asrwt>0</asrwt>
<pdfrwt beam="1">  1        2 0.91517742E-01 0.13881056E+03</pdfrwt>
<pdfrwt beam="2">  1       -2 0.40602831E-02 0.13881056E+03</pdfrwt>
<totfact> 0.13038491E+04</totfact>
</mgrwt>
</event>
<event>
 7    1  0.4230786E-006  0.1683797E+03  0.7546771E-02  0.1186037E+00
         -1   -1    0    0    0  501 -0.00000000000E+00  0.00000000000E+00  0.78195107358E+02  0.78195107358E+02  0.00000000000E+00 0.  1.
          1   -1    0    0  501    0  0.00000000000E+00 -0.00000000000E+00 -0.31542522255E+03  0.31542522255E+03  0.00000000000E+00 0. -1.
         23    2    1    2    0    0 -0.11271579196E+03  0.47498197977E+01 -0.12250105396E+03  0.20822638318E+03  0.12499723151E+03 0.  0.
          5    1    3    3  502    0  0.33226263455E+01  0.44180339875E+02 -0.22137040974E+02  0.49750184526E+02  0.47000000000E+01 0. -1.
         -5    1    3    3    0  502 -0.11603841830E+03 -0.39430520077E+02 -0.10036401299E+03  0.15847619865E+03  0.47000000000E+01 0. -1.
        -11    1    1    2    0    0  0.66898462174E+02 -0.47010029323E+02 -0.51634221950E+02  0.96702843674E+02  0.00000000000E+00 0.  1.
         11    1    1    2    0    0  0.45817329784E+02  0.42260209526E+02 -0.63094839284E+02  0.88691103060E+02  0.00000000000E+00 0. -1.
<mgrwt>
<rscale>  0 0.16237910E+03</rscale>
<asrwt>0</asrwt>
<pdfrwt beam="2">  1        1 0.48526957E-01 0.16837969E+03</pdfrwt>
<pdfrwt beam="1">  1       -1 0.12030017E-01 0.16837969E+03</pdfrwt>
<totfact> 0.36592506E+03</totfact>
</mgrwt>
</event>
<event>
 7    1  0.4230786E-006  0.1899044E+03  0.7546771E-02  0.1163153E+00
          2   -1    0    0  501    0  0.00000000000E+00  0.00000000000E+00  0.47192540858E+03  0.47192540858E+03  0.00000000000E+00 0. -1.
         -2   -1    0    0    0  501 -0.00000000000E+00 -0.00000000000E+00 -0.71160356129E+02  0.71160356129E+02  0.00000000000E+00 0.  1.
         23    2    1    2    0    0 -0.75244239855E+02 -0.12157437769E+03  0.16196983596E+03  0.24959550490E+03  0.12498665274E+03 0.  0.
          5    1    3    3  502    0 -0.20428543361E+02 -0.12987760409E+03  0.93656369052E+02  0.16149031826E+03  0.47000000000E+01 0.  1.
         -5    1    3    3    0  502 -0.54815696494E+02  0.83032264046E+01  0.68313466904E+02  0.88105186631E+02  0.47000000000E+01 0.  1.
        -11    1    1    2    0    0 -0.54418264079E+01  0.78937776473E+02  0.11872444870E+03  0.14267543849E+03  0.00000000000E+00 0.  1.
         11    1    1    2    0    0  0.80686066263E+02  0.42636601216E+02  0.12007076780E+03  0.15081482133E+03  0.00000000000E+00 0. -1.
<mgrwt>
<rscale>  0 0.18488977E+03</rscale>
<asrwt>0</asrwt>
<pdfrwt beam="1">  1        2 0.72603907E-01 0.18990442E+03</pdfrwt>
<pdfrwt beam="2">  1       -2 0.10947747E-01 0.18990442E+03</pdfrwt>
<totfact> 0.37462735E+03</totfact>
</mgrwt>
</event>
<event>
 7    1  0.4230786E-006  0.1251105E+03  0.7546771E-02  0.1242103E+00
          2   -1    0    0  501    0  0.00000000000E+00  0.00000000000E+00  0.21315080367E+03  0.21315080367E+03  0.00000000000E+00 0.  1.
         -2   -1    0    0    0  501 -0.00000000000E+00 -0.00000000000E+00 -0.10991760576E+03  0.10991760576E+03  0.00000000000E+00 0. -1.
         23    2    1    2    0    0 -0.52612651715E+02  0.22772056159E+02 -0.50710497590E+02  0.13499696323E+03  0.11120237341E+03 0.  0.
          5    1    3    3  502    0 -0.53542768555E+02  0.61001398578E+02 -0.51890367557E+02  0.96450499938E+02  0.47000000000E+01 0. -1.
         -5    1    3    3    0  502  0.93011684037E+00 -0.38229342419E+02  0.11798699667E+01  0.38546463292E+02  0.47000000000E+01 0.  1.
        -11    1    1    2    0    0  0.27465883291E+02 -0.48991160986E+02  0.13683931204E+03  0.14791722658E+03  0.00000000000E+00 0.  1.
         11    1    1    2    0    0  0.25146768424E+02  0.26219104827E+02  0.17104383453E+02  0.40154219622E+02  0.00000000000E+00 0. -1.
<mgrwt>
<rscale>  0 0.12060473E+03</rscale>
<asrwt>0</asrwt>
<pdfrwt beam="1">  1        2 0.32792431E-01 0.12511045E+03</pdfrwt>
<pdfrwt beam="2">  1       -2 0.16910401E-01 0.12511045E+03</pdfrwt>
<totfact> 0.42486231E+03</totfact>
</mgrwt>
</event>
<event>
 7    1  0.4230786E-006  0.1522508E+03  0.7546771E-02  0.1206636E+00
          2   -1    0    0  501    0  0.00000000000E+00  0.00000000000E+00  0.48998189282E+03  0.48998189282E+03  0.00000000000E+00 0. -1.
         -2   -1    0    0    0  501 -0.00000000000E+00 -0.00000000000E+00 -0.42220372486E+02  0.42220372486E+02  0.00000000000E+00 0.  1.
         23    2    1    2    0    0 -0.51553574518E+02  0.69984019381E+02  0.17524316449E+03  0.23214321135E+03  0.12499907944E+03 0.  0.
          5    1    3    3  502    0 -0.58871124479E+01  0.67600623695E+02  0.17325729519E+03  0.18613082161E+03  0.47000000000E+01 0. -1.
         -5    1    3    3    0  502 -0.45666462070E+02  0.23833956851E+01  0.19858693030E+01  0.46012389743E+02  0.47000000000E+01 0. -1.
        -11    1    1    2    0    0  0.46666649526E+02 -0.90922246069E+01  0.48723272240E+02  0.68076442211E+02  0.00000000000E+00 0.  1.
         11    1    1    2    0    0  0.48869249923E+01 -0.60891794774E+02  0.22379508360E+03  0.23198261174E+03  0.00000000000E+00 0. -1.
<mgrwt>
<rscale>  0 0.14509278E+03</rscale>
<asrwt>0</asrwt>
<pdfrwt beam="1">  1        2 0.75381826E-01 0.15225079E+03</pdfrwt>
<pdfrwt beam="2">  1       -2 0.64954423E-02 0.15225079E+03</pdfrwt>
<totfact> 0.80260715E+03</totfact>
</mgrwt>
</event>
<event>
 7    1  0.4230786E-006  0.2960993E+03  0.7546771E-02  0.1088752E+00
          2   -1    0    0  501    0  0.00000000000E+00  0.00000000000E+00  0.18586073107E+04  0.18586073107E+04  0.00000000000E+00 0. -1.
         -2   -1    0    0    0  501 -0.00000000000E+00 -0.00000000000E+00 -0.45646361244E+02  0.45646361244E+02  0.00000000000E+00 0.  1.
         23    2    1    2    0    0 -0.55025384876E+02  0.26271949242E+03  0.84150592476E+03  0.89208017703E+03  0.12500198464E+03 0.  0.
          5    1    3    3  502    0 -0.46003920741E+02  0.14228787818E+03  0.63872589535E+03  0.65601452758E+03  0.47000000000E+01 0. -1.
         -5    1    3    3    0  502 -0.90214641348E+01  0.12043161425E+03  0.20278002941E+03  0.23606564945E+03  0.47000000000E+01 0. -1.
        -11    1    1    2    0    0 -0.15113941941E+02 -0.86563259838E+02  0.41813692016E+03  0.42727053864E+03  0.00000000000E+00 0. -1.
         11    1    1    2    0    0  0.70139326818E+02 -0.17615623258E+03  0.55331810458E+03  0.58490295631E+03  0.00000000000E+00 0.  1.
<mgrwt>
<rscale>  0 0.29307890E+03</rscale>
<asrwt>0</asrwt>
<pdfrwt beam="1">  1        2 0.28593953E+00 0.29609934E+03</pdfrwt>
<pdfrwt beam="2">  1       -2 0.70225185E-02 0.29609934E+03</pdfrwt>
<totfact> 0.10201546E+03</totfact>
</mgrwt>
</event>
<event>
 7    1  0.4230786E-006  0.1308063E+03  0.7546771E-02  0.1239217E+00
          1   -1    0    0  501    0  0.00000000000E+00  0.00000000000E+00  0.23976831930E+03  0.23976831930E+03  0.00000000000E+00 0. -1.
         -1   -1    0    0    0  501 -0.00000000000E+00 -0.00000000000E+00 -0.56891288782E+02  0.56891288782E+02  0.00000000000E+00 0.  1.
         23    2    1    2    0    0 -0.33417029666E+02  0.19238158364E+02  0.81601854542E+02  0.15417245904E+03  0.12499391926E+03 0.  0.
          5    1    3    3  502    0 -0.75132599137E+00 -0.50108970372E+02  0.15015436840E+02  0.52526438542E+02  0.47000000000E+01 0.  1.
         -5    1    3    3    0  502 -0.32665703675E+02  0.69347128735E+02  0.66586417702E+02  0.10164602050E+03  0.47000000000E+01 0.  1.
        -11    1    1    2    0    0  0.98735563766E+01 -0.36940543944E+02  0.10597140194E+03  0.11265890525E+03  0.00000000000E+00 0. -1.
         11    1    1    2    0    0  0.23543473290E+02  0.17702385580E+02 -0.46962259618E+01  0.29828243798E+02  0.00000000000E+00 0.  1.
<mgrwt>
<rscale>  0 0.12238275E+03</rscale>
<asrwt>0</asrwt>
<pdfrwt beam="1">  1        1 0.36887433E-01 0.13080629E+03</pdfrwt>
<pdfrwt beam="2">  1       -1 0.87525061E-02 0.13080629E+03</pdfrwt>
<totfact> 0.82480029E+03</totfact>
</mgrwt>
</event>
<event>
 7    1  0.4230786E-006  0.1261085E+03  0.7546771E-02  0.1249786E+00
          2   -1    0    0  501    0  0.00000000000E+00  0.00000000000E+00  0.84010695487E+02  0.84010695487E+02  0.00000000000E+00 0. -1.
         -2   -1    0    0    0  501 -0.00000000000E+00 -0.00000000000E+00 -0.15030705719E+03  0.15030705719E+03  0.00000000000E+00 0.  1.
         23    2    1    2    0    0 -0.15611896942E+02 -0.59264123659E+01 -0.69269385615E+02  0.14388048073E+03  0.12499796503E+03 0.  0.
          5    1    3    3  502    0 -0.25558322952E+01 -0.43860515692E+02 -0.88670895865E+02  0.99070151353E+02  0.47000000000E+01 0.  1.
         -5    1    3    3    0  502 -0.13056064646E+02  0.37934103326E+02  0.19401510250E+02  0.44810329381E+02  0.47000000000E+01 0.  1.
        -11    1    1    2    0    0  0.38760762536E+02  0.21582793730E+02 -0.24977272620E+02  0.50912452751E+02  0.00000000000E+00 0.  1.
         11    1    1    2    0    0 -0.23148865595E+02 -0.15656381364E+02  0.27950296535E+02  0.39524819191E+02  0.00000000000E+00 0. -1.
<mgrwt>
<rscale>  0 0.11603429E+03</rscale>
<asrwt>0</asrwt>
<pdfrwt beam="1">  1        2 0.12924722E-01 0.12610847E+03</pdfrwt>
<pdfrwt beam="2">  1       -2 0.23124162E-01 0.12610847E+03</pdfrwt>
<totfact> 0.71563809E+03</totfact>
</mgrwt>
</event>
<event>
 7    1  0.4230786E-006  0.1330416E+03  0.7546771E-02  0.1235840E+00
         -2   -1    0    0    0  501 -0.00000000000E+00  0.00000000000E+00  0.55895239270E+02  0.55895239270E+02  0.00000000000E+00 0.  1.
          2   -1    0    0  501    0  0.00000000000E+00 -0.00000000000E+00 -0.26898606139E+03  0.26898606139E+03  0.00000000000E+00 0. -1.
         23    2    1    2    0    0 -0.20256900983E+02  0.41312628783E+02 -0.73594684256E+02  0.15204025923E+03  0.12483183706E+03 0.  0.
          5    1    3    3  502    0  0.47760107872E+02  0.42433194934E+01 -0.53255617746E+02  0.71814235955E+02  0.47000000000E+01 0.  1.
         -5    1    3    3    0  502 -0.68017008855E+02  0.37069309290E+02 -0.20339066510E+02  0.80226023280E+02  0.47000000000E+01 0.  1.
        -11    1    1    2    0    0  0.44830168145E+02 -0.22924330966E+01 -0.29890192051E+02  0.53929795163E+02  0.00000000000E+00 0.  1.
         11    1    1    2    0    0 -0.24573267162E+02 -0.39020195686E+02 -0.10960594582E+03  0.11891124627E+03  0.00000000000E+00 0. -1.
<mgrwt>
<rscale>  0 0.12450798E+03</rscale>
<asrwt>0</asrwt>
<pdfrwt beam="2">  1        2 0.41382471E-01 0.13304158E+03</pdfrwt>
<pdfrwt beam="1">  1       -2 0.85992677E-02 0.13304158E+03</pdfrwt>
<totfact> 0.98089367E+03</totfact>
</mgrwt>
</event>
<event>
 7    1  0.4230786E-006  0.1404369E+03  0.7546771E-02  0.1224189E+00
         -1   -1    0    0    0  501 -0.00000000000E+00  0.00000000000E+00  0.21815379465E+02  0.21815379465E+02  0.00000000000E+00 0.  1.
          1   -1    0    0  501    0  0.00000000000E+00 -0.00000000000E+00 -0.72306418084E+03  0.72306418084E+03  0.00000000000E+00 0. -1.
         23    2    1    2    0    0 -0.50871449965E+02  0.38825537458E+02 -0.41307001329E+03  0.43629045260E+03  0.12500878516E+03 0.  0.
          5    1    3    3  502    0 -0.72583091417E+02  0.68628666745E+02 -0.25497102618E+03  0.27388047256E+03  0.47000000000E+01 0.  1.
         -5    1    3    3    0  502  0.21711641452E+02 -0.29803129287E+02 -0.15809898711E+03  0.16240998003E+03  0.47000000000E+01 0.  1.
        -11    1    1    2    0    0  0.76227004745E+02 -0.20686550497E+02 -0.21484730596E+03  0.22890577647E+03  0.00000000000E+00 0.  1.
         11    1    1    2    0    0 -0.25355554781E+02 -0.18138986961E+02 -0.73331482121E+02  0.79683331232E+02  0.00000000000E+00 0. -1.
<mgrwt>
<rscale>  0 0.13222630E+03</rscale>
<asrwt>0</asrwt>
<pdfrwt beam="2">  1        1 0.11124062E+00 0.14043690E+03</pdfrwt>
<pdfrwt beam="1">  1       -1 0.33562129E-02 0.14043690E+03</pdfrwt>
<totfact> 0.82688590E+03</totfact>
</mgrwt>
</event>
<event>
 7    1  0.4230786E-006  0.2206102E+03  0.7546771E-02  0.1135764E+00
          1   -1    0    0  501    0  0.00000000000E+00  0.00000000000E+00  0.16705460328E+03  0.16705460328E+03  0.00000000000E+00 0. -1.
         -1   -1    0    0    0  501 -0.00000000000E+00 -0.00000000000E+00 -0.27834004563E+03  0.27834004563E+03  0.00000000000E+00 0.  1.
         23    2    1    2    0    0 -0.96172321159E+02 -0.15425192061E+03 -0.79896224834E+02  0.23463220291E+03  0.12500437406E+03 0.  0.
          5    1    3    3  502    0 -0.47155632026E+02 -0.15497787399E+03 -0.88481629597E+02  0.18464258402E+03  0.47000000000E+01 0.  1.
         -5    1    3    3    0  502 -0.49016689133E+02  0.72595338416E+00  0.85854047633E+01  0.49989618891E+02  0.47000000000E+01 0.  1.
        -11    1    1    2    0    0 -0.16455658142E+01 -0.11968056020E+02  0.72140810181E+01  0.14070721967E+02  0.00000000000E+00 0. -1.
         11    1    1    2    0    0  0.97817886973E+02  0.16621997663E+03 -0.38603298531E+02  0.19669172402E+03  0.00000000000E+00 0.  1.
<mgrwt>
<rscale>  0 0.21749528E+03</rscale>
<asrwt>0</asrwt>
<pdfrwt beam="1">  1        1 0.25700709E-01 0.22061021E+03</pdfrwt>
<pdfrwt beam="2">  1       -1 0.42821545E-01 0.22061021E+03</pdfrwt>
<totfact> 0.10063242E+03</totfact>
</mgrwt>
</event>
<event>
 7    1  0.4230786E-006  0.1249853E+03  0.7546771E-02  0.1283453E+00
          2   -1    0    0  501    0  0.00000000000E+00  0.00000000000E+00  0.11351865351E+02  0.11351865351E+02  0.00000000000E+00 0.  1.
         -2   -1    0    0    0  501 -0.00000000000E+00 -0.00000000000E+00 -0.68933434675E+03  0.68933434675E+03  0.00000000000E+00 0. -1.
         23    2    1    2    0    0  0.34036920574E+01 -0.41309180132E+02 -0.54714445577E+03  0.56123826638E+03  0.11791226690E+03 0.  0.
          5    1    3    3  502    0 -0.42440176209E+02 -0.36772680367E+02 -0.13208173867E+03  0.14360039787E+03  0.47000000000E+01 0.  1.
         -5    1    3    3    0  502  0.45843868267E+02 -0.45364997648E+01 -0.41506271709E+03  0.41763786850E+03  0.47000000000E+01 0. -1.
        -11    1    1    2    0    0  0.50232049658E+01  0.25856626706E+02 -0.10451166756E+03  0.10777980510E+03  0.00000000000E+00 0. -1.
         11    1    1    2    0    0 -0.84268970232E+01  0.15452553426E+02 -0.26326358077E+02  0.31668140622E+02  0.00000000000E+00 0.  1.
<mgrwt>
<rscale>  0 0.98513817E+02</rscale>
<asrwt>0</asrwt>
<pdfrwt beam="1">  1        2 0.17464411E-02 0.12498534E+03</pdfrwt>
<pdfrwt beam="2">  1       -2 0.10605142E+00 0.12498534E+03</pdfrwt>
<totfact> 0.46330260E+03</totfact>
</mgrwt>
</event>
<event>
 7    1  0.4230786E-006  0.1380006E+03  0.7546771E-02  0.1227149E+00
         -1   -1    0    0    0  501 -0.00000000000E+00  0.00000000000E+00  0.82691179884E+03  0.82691179884E+03  0.00000000000E+00 0.  1.
          1   -1    0    0  501    0  0.00000000000E+00 -0.00000000000E+00 -0.23356336143E+02  0.23356336143E+02  0.00000000000E+00 0. -1.
         23    2    1    2    0    0  0.64445611126E+00  0.58500201342E+02  0.63143419521E+03  0.64633838134E+03  0.12498588496E+03 0.  0.
          5    1    3    3  502    0 -0.40250342011E+02  0.28238414568E+02  0.91392898662E+02  0.10388575463E+03  0.47000000000E+01 0.  1.
         -5    1    3    3    0  502  0.40894798122E+02  0.30261786774E+02  0.54004129655E+03  0.54245262671E+03  0.47000000000E+01 0.  1.
        -11    1    1    2    0    0  0.23720960591E+02  0.98589839271E+01  0.93369224417E+02  0.96838502692E+02  0.00000000000E+00 0.  1.
         11    1    1    2    0    0 -0.24365416702E+02 -0.68359185270E+02  0.78752043076E+02  0.10709125095E+03  0.00000000000E+00 0. -1.
<mgrwt>
<rscale>  0 0.13020702E+03</rscale>
<asrwt>0</asrwt>
<pdfrwt beam="2">  1        1 0.35932831E-02 0.13800058E+03</pdfrwt>
<pdfrwt beam="1">  1       -1 0.12721718E+00 0.13800058E+03</pdfrwt>
<totfact> 0.14814941E+03</totfact>
</mgrwt>
</event>
<event>
 7    1  0.4230786E-006  0.1897457E+03  0.7546771E-02  0.1163566E+00
         -2   -1    0    0    0  501 -0.00000000000E+00  0.00000000000E+00  0.22153804841E+03  0.22153804841E+03  0.00000000000E+00 0.  1.
          2   -1    0    0  501    0  0.00000000000E+00 -0.00000000000E+00 -0.20119946591E+03  0.20119946591E+03  0.00000000000E+00 0. -1.
         23    2    1    2    0    0 -0.10914706850E+03  0.92004828616E+02  0.12158848227E+03  0.22536011447E+03  0.12500180449E+03 0.  0.
          5    1    3    3  502    0 -0.48276118446E+02  0.11098678545E+02 -0.17948704848E+02  0.52896221825E+02  0.47000000000E+01 0. -1.
         -5    1    3    3    0  502 -0.60870950054E+02  0.80906150071E+02  0.13953718711E+03  0.17246389265E+03  0.47000000000E+01 0. -1.
        -11    1    1    2    0    0  0.36032020110E+02 -0.17769343076E+02  0.13497115342E+02  0.42381931871E+02  0.00000000000E+00 0.  1.
         11    1    1    2    0    0  0.73115048390E+02 -0.74235485540E+02 -0.11474701511E+03  0.15499546797E+03  0.00000000000E+00 0. -1.
<mgrwt>
<rscale>  0 0.18444890E+03</rscale>
<asrwt>0</asrwt>
<pdfrwt beam="2">  1        2 0.30953764E-01 0.18974568E+03</pdfrwt>
<pdfrwt beam="1">  1       -2 0.34082777E-01 0.18974568E+03</pdfrwt>
<totfact> 0.13551775E+03</totfact>
</mgrwt>
</event>
<event>
 7    1  0.4230786E-006  0.1353055E+03  0.7546771E-02  0.1232703E+00
         -4   -1    0    0    0  501 -0.00000000000E+00  0.00000000000E+00  0.13727314531E+03  0.13727314531E+03  0.00000000000E+00 0.  1.
          4   -1    0    0  501    0  0.00000000000E+00 -0.00000000000E+00 -0.10714002785E+03  0.10714002785E+03  0.00000000000E+00 0. -1.
         23    2    1    2    0    0 -0.51718679387E+02  0.25294163880E+01  0.38322730860E+02  0.14062790133E+03  0.12500542063E+03 0.  0.
          5    1    3    3  502    0  0.99065933208E+00  0.50832920821E+02  0.45798579600E+02  0.68589847197E+02  0.47000000000E+01 0.  1.
         -5    1    3    3    0  502 -0.52709338719E+02 -0.48303504433E+02 -0.74758487407E+01  0.72038054132E+02  0.47000000000E+01 0.  1.
        -11    1    1    2    0    0  0.54818195847E+02  0.35409298892E+02 -0.77420906475E+01  0.65717524387E+02  0.00000000000E+00 0.  1.
         11    1    1    2    0    0 -0.30995164603E+01 -0.37938715280E+02 -0.44752275085E+00  0.38067747451E+02  0.00000000000E+00 0. -1.
<mgrwt>
<rscale>  0 0.12652647E+03</rscale>
<asrwt>0</asrwt>
<pdfrwt beam="2">  1        4 0.16483081E-01 0.13530549E+03</pdfrwt>
<pdfrwt beam="1">  1       -4 0.21118946E-01 0.13530549E+03</pdfrwt>
<totfact> 0.10753287E+03</totfact>
</mgrwt>
</event>
<event>
 7    1  0.4230786E-006  0.1495811E+03  0.7546771E-02  0.1210589E+00
          1   -1    0    0  501    0  0.00000000000E+00  0.00000000000E+00  0.52824780281E+03  0.52824780281E+03  0.00000000000E+00 0. -1.
         -1   -1    0    0    0  501 -0.00000000000E+00 -0.00000000000E+00 -0.35021217319E+02  0.35021217319E+02  0.00000000000E+00 0.  1.
         23    2    1    2    0    0 -0.63695340791E+02 -0.51885640635E+02  0.25075042611E+03  0.29197651351E+03  0.12500116841E+03 0.  0.
          5    1    3    3  502    0  0.28499362205E+00 -0.77493816530E+02  0.16082469289E+03  0.17858343894E+03  0.47000000000E+01 0. -1.
         -5    1    3    3    0  502 -0.63980334413E+02  0.25608175895E+02  0.89925733229E+02  0.11339307457E+03  0.47000000000E+01 0. -1.
        -11    1    1    2    0    0  0.46571249057E+01  0.53296080949E+02  0.64641620558E+02  0.83908880134E+02  0.00000000000E+00 0.  1.
         11    1    1    2    0    0  0.59038215886E+02 -0.14104403134E+01  0.17783453882E+03  0.18738362648E+03  0.00000000000E+00 0. -1.
<mgrwt>
<rscale>  0 0.14205561E+03</rscale>
<asrwt>0</asrwt>
<pdfrwt beam="1">  1        1 0.81268887E-01 0.14958111E+03</pdfrwt>
<pdfrwt beam="2">  1       -1 0.53878800E-02 0.14958111E+03</pdfrwt>
<totfact> 0.63692180E+03</totfact>
</mgrwt>
</event>
<event>
 7    1  0.4230786E-006  0.1325917E+03  0.7546771E-02  0.1236708E+00
         -1   -1    0    0    0  501 -0.00000000000E+00  0.00000000000E+00  0.67819374404E+02  0.67819374404E+02  0.00000000000E+00 0.  1.
          1   -1    0    0  501    0  0.00000000000E+00 -0.00000000000E+00 -0.20408767952E+03  0.20408767952E+03  0.00000000000E+00 0. -1.
         23    2    1    2    0    0 -0.27581159422E+02 -0.34579832467E+02 -0.91935430295E+02  0.16134650440E+03  0.12499634383E+03 0.  0.
          5    1    3    3  502    0  0.13817202625E+02  0.10664615971E+02  0.24036052360E+02  0.30074423274E+02  0.47000000000E+01 0.  1.
         -5    1    3    3    0  502 -0.41398362048E+02 -0.45244448438E+02 -0.11597148265E+03  0.13127208113E+03  0.47000000000E+01 0.  1.
        -11    1    1    2    0    0  0.40277998223E+02  0.51907960926E+02 -0.51853660533E+01  0.65906309026E+02  0.00000000000E+00 0.  1.
         11    1    1    2    0    0 -0.12696838801E+02 -0.17328128459E+02 -0.39147508764E+02  0.44654240491E+02  0.00000000000E+00 0. -1.
<mgrwt>
<rscale>  0 0.12395711E+03</rscale>
<asrwt>0</asrwt>
<pdfrwt beam="2">  1        1 0.31398104E-01 0.13259175E+03</pdfrwt>
<pdfrwt beam="1">  1       -1 0.10433750E-01 0.13259175E+03</pdfrwt>
<totfact> 0.77149725E+03</totfact>
</mgrwt>
</event>
<event>
 7    1  0.4230786E-006  0.3540984E+03  0.7546771E-02  0.1062024E+00
         -2   -1    0    0    0  501 -0.00000000000E+00  0.00000000000E+00  0.37749641492E+02  0.37749641492E+02  0.00000000000E+00 0.  1.
          2   -1    0    0  501    0  0.00000000000E+00 -0.00000000000E+00 -0.32718076016E+04  0.32718076016E+04  0.00000000000E+00 0. -1.
         23    2    1    2    0    0 -0.32299830483E+03  0.73696252129E+02 -0.18415284331E+04  0.18752633585E+04  0.12500660609E+03 0.  0.
          5    1    3    3  502    0 -0.19954257441E+03  0.70966926015E+02 -0.14292306206E+04  0.14448445593E+04  0.47000000000E+01 0. -1.
         -5    1    3    3    0  502 -0.12345573042E+03  0.27293261142E+01 -0.41229781245E+03  0.43041879924E+03  0.47000000000E+01 0. -1.
        -11    1    1    2    0    0  0.79880866018E+02 -0.60350637281E+02 -0.40630310832E+03  0.41845593317E+03  0.00000000000E+00 0.  1.
         11    1    1    2    0    0  0.24311743881E+03 -0.13345614848E+02 -0.98622641867E+03  0.10158379513E+04  0.00000000000E+00 0. -1.
<mgrwt>
<rscale>  0 0.35144394E+03</rscale>
<asrwt>0</asrwt>
<pdfrwt beam="2">  1        2 0.50335507E+00 0.35409842E+03</pdfrwt>
<pdfrwt beam="1">  1       -2 0.58076365E-02 0.35409842E+03</pdfrwt>
<totfact> 0.21644559E+02</totfact>
</mgrwt>
</event>
<event>
 6    1  0.4230786E-006  0.4514126E+03  0.7546771E-02  0.1073950E+00
         -3   -1    0    0    0  501 -0.00000000000E+00  0.00000000000E+00  0.22391990884E+03  0.22391990884E+03  0.00000000000E+00 0.  1.
          3   -1    0    0  501    0  0.00000000000E+00 -0.00000000000E+00 -0.36595498555E+03  0.36595498555E+03  0.00000000000E+00 0. -1.
          5    1    1    2  502    0 -0.16865567324E+03 -0.16799167036E+03 -0.89587814128E+02  0.25438947279E+03  0.47000000000E+01 0. -1.
         -5    1    1    2    0  502  0.17539519830E+03  0.10900394609E+03 -0.38760696229E+01  0.20659731307E+03  0.47000000000E+01 0.  1.
        -11    1    1    2    0    0 -0.15461767067E+02  0.83846045307E+01 -0.70786700275E+02  0.72939185421E+02  0.00000000000E+00 0. -1.
         11    1    1    2    0    0  0.87222420037E+01  0.50603119733E+02  0.22215507313E+02  0.55948923112E+02  0.00000000000E+00 0.  1.
<mgrwt>
<rscale>  0 0.32371921E+03</rscale>
<asrwt>0</asrwt>
<pdfrwt beam="2">  1        3 0.56300767E-01 0.45141258E+03</pdfrwt>
<pdfrwt beam="1">  1       -3 0.34449217E-01 0.45141258E+03</pdfrwt>
<totfact> 0.66960896E+01</totfact>
</mgrwt>
</event>
<event>
 7    1  0.4230786E-006  0.1799556E+03  0.7546771E-02  0.1173448E+00
          2   -1    0    0  501    0  0.00000000000E+00  0.00000000000E+00  0.19018001385E+03  0.19018001385E+03  0.00000000000E+00 0. -1.
         -2   -1    0    0    0  501 -0.00000000000E+00 -0.00000000000E+00 -0.15181412460E+03  0.15181412460E+03  0.00000000000E+00 0.  1.
         23    2    1    2    0    0 -0.25416900085E+01 -0.12943991321E+03  0.41431783485E+01  0.18000332442E+03  0.12499151793E+03 0.  0.
          5    1    3    3  502    0 -0.32334175342E+02 -0.75485700265E+02 -0.51324267818E+02  0.96952876732E+02  0.47000000000E+01 0.  1.
         -5    1    3    3    0  502  0.29792485333E+02 -0.53954212941E+02  0.55467446166E+02  0.83050447685E+02  0.47000000000E+01 0.  1.
        -11    1    1    2    0    0 -0.34159333469E+02  0.73717845522E+02 -0.10122542234E+02  0.81875800288E+02  0.00000000000E+00 0.  1.
         11    1    1    2    0    0  0.36701023477E+02  0.55722067684E+02  0.44345253131E+02  0.80115013740E+02  0.00000000000E+00 0. -1.
<mgrwt>
<rscale>  0 0.17428821E+03</rscale>
<asrwt>0</asrwt>
<pdfrwt beam="1">  1        2 0.29258464E-01 0.17995564E+03</pdfrwt>
<pdfrwt beam="2">  1       -2 0.23356019E-01 0.17995564E+03</pdfrwt>
<totfact> 0.28323863E+03</totfact>
</mgrwt>
</event>
<event>
 7    1  0.4230786E-006  0.1604934E+03  0.7546771E-02  0.1195697E+00
          1   -1    0    0  501    0  0.00000000000E+00  0.00000000000E+00  0.69943064521E+03  0.69943064521E+03  0.00000000000E+00 0. -1.
         -1   -1    0    0    0  501 -0.00000000000E+00 -0.00000000000E+00 -0.32203457669E+02  0.32203457669E+02  0.00000000000E+00 0.  1.
         23    2    1    2    0    0  0.96964305862E+02  0.27045798300E+02  0.30295751668E+03  0.34284309624E+03  0.12499831962E+03 0.  0.
          5    1    3    3  502    0  0.18208370356E+02  0.35104704109E+02  0.23515596330E+03  0.23850430201E+03  0.47000000000E+01 0. -1.
         -5    1    3    3    0  502  0.78755935506E+02 -0.80589058090E+01  0.67801553376E+02  0.10433879423E+03  0.47000000000E+01 0. -1.
        -11    1    1    2    0    0 -0.15460437307E+02  0.17018614408E+02  0.15028294882E+02  0.27468309106E+02  0.00000000000E+00 0.  1.
         11    1    1    2    0    0 -0.81503868556E+02 -0.44064412708E+02  0.34924137598E+03  0.36132269753E+03  0.00000000000E+00 0. -1.
<mgrwt>
<rscale>  0 0.15395353E+03</rscale>
<asrwt>0</asrwt>
<pdfrwt beam="1">  1        1 0.10760470E+00 0.16049340E+03</pdfrwt>
<pdfrwt beam="2">  1       -1 0.49543786E-02 0.16049340E+03</pdfrwt>
<totfact> 0.49209850E+03</totfact>
</mgrwt>
</event>
<event>
 7    1  0.4230786E-006  0.1861230E+03  0.7546771E-02  0.1166979E+00
          2   -1    0    0  501    0  0.00000000000E+00  0.00000000000E+00  0.67478333046E+02  0.67478333046E+02  0.00000000000E+00 0. -1.
         -2   -1    0    0    0  501 -0.00000000000E+00 -0.00000000000E+00 -0.47171385126E+03  0.47171385126E+03  0.00000000000E+00 0.  1.
         23    2    1    2    0    0 -0.14172185403E+02 -0.13717646279E+03 -0.25728481475E+03  0.31754880542E+03  0.12499414044E+03 0.  0.
          5    1    3    3  502    0 -0.90845967803E+01 -0.14142522366E+03 -0.13758545020E+03  0.19757396057E+03  0.47000000000E+01 0. -1.
         -5    1    3    3    0  502 -0.50875886222E+01  0.42487608684E+01 -0.11969936454E+03  0.11997484486E+03  0.47000000000E+01 0. -1.
        -11    1    1    2    0    0 -0.39908490435E+01  0.12397726608E+03 -0.15433844956E+03  0.19800668270E+03  0.00000000000E+00 0.  1.
         11    1    1    2    0    0  0.18163034446E+02  0.13199196715E+02  0.73877460911E+01  0.23636696184E+02  0.00000000000E+00 0. -1.
<mgrwt>
<rscale>  0 0.18085408E+03</rscale>
<asrwt>0</asrwt>
<pdfrwt beam="1">  1        2 0.10381282E-01 0.18612299E+03</pdfrwt>
<pdfrwt beam="2">  1       -2 0.72571363E-01 0.18612299E+03</pdfrwt>
<totfact> 0.10650822E+03</totfact>
</mgrwt>
</event>
<event>
 7    1  0.4230786E-006  0.2837043E+03  0.7546771E-02  0.1095433E+00
         -2   -1    0    0    0  501 -0.00000000000E+00  0.00000000000E+00  0.85467602638E+02  0.85467602638E+02  0.00000000000E+00 0.  1.
          2   -1    0    0  501    0  0.00000000000E+00 -0.00000000000E+00 -0.90318590084E+03  0.90318590084E+03  0.00000000000E+00 0. -1.
         23    2    1    2    0    0 -0.23327271289E+03  0.10222899302E+03 -0.38877598218E+03  0.48128461844E+03  0.12498477522E+03 0.  0.
          5    1    3    3  502    0 -0.18950734016E+03  0.10699451449E+03 -0.37723121421E+03  0.43552994969E+03  0.47000000000E+01 0. -1.
         -5    1    3    3    0  502 -0.43765372733E+02 -0.47655214696E+01 -0.11544767977E+02  0.45754668756E+02  0.47000000000E+01 0. -1.
        -11    1    1    2    0    0  0.76077000963E+02 -0.72499318466E+02 -0.22357699914E+03  0.24704359089E+03  0.00000000000E+00 0. -1.
         11    1    1    2    0    0  0.15719571193E+03 -0.29729674553E+02 -0.20536531688E+03  0.26032529415E+03  0.00000000000E+00 0.  1.
<mgrwt>
<rscale>  0 0.28046899E+03</rscale>
<asrwt>0</asrwt>
<pdfrwt beam="2">  1        2 0.13895168E+00 0.28370428E+03</pdfrwt>
<pdfrwt beam="1">  1       -2 0.13148862E-01 0.28370428E+03</pdfrwt>
<totfact> 0.12880248E+03</totfact>
</mgrwt>
</event>
<event>
 7    1  0.4230786E-006  0.1322844E+03  0.7546771E-02  0.1237657E+00
         -1   -1    0    0    0  501 -0.00000000000E+00  0.00000000000E+00  0.10429510968E+03  0.10429510968E+03  0.00000000000E+00 0.  1.
          1   -1    0    0  501    0  0.00000000000E+00 -0.00000000000E+00 -0.15781833667E+03  0.15781833667E+03  0.00000000000E+00 0. -1.
         23    2    1    2    0    0  0.35685739791E+02 -0.24831100960E+02  0.25391629040E+02  0.13469927474E+03  0.12493640059E+03 0.  0.
          5    1    3    3  502    0  0.75267816175E+02 -0.69915748051E+00  0.40641656978E+02  0.85671274386E+02  0.47000000000E+01 0. -1.
         -5    1    3    3    0  502 -0.39582076385E+02 -0.24131943480E+02 -0.15250027938E+02  0.49028000358E+02  0.47000000000E+01 0. -1.
        -11    1    1    2    0    0  0.23389570787E+02  0.18854972544E+02 -0.56417809891E+02  0.63918317282E+02  0.00000000000E+00 0. -1.
         11    1    1    2    0    0 -0.59075310578E+02  0.59761284165E+01 -0.22497046143E+02  0.63495854320E+02  0.00000000000E+00 0.  1.
<mgrwt>
<rscale>  0 0.12335832E+03</rscale>
<asrwt>0</asrwt>
<pdfrwt beam="2">  1        1 0.24279744E-01 0.13228439E+03</pdfrwt>
<pdfrwt beam="1">  1       -1 0.16045402E-01 0.13228439E+03</pdfrwt>
<totfact> 0.54556667E+03</totfact>
</mgrwt>
</event>
<event>
 7    1  0.4230786E-006  0.1294005E+03  0.7546771E-02  0.1242893E+00
          2   -1    0    0  501    0  0.00000000000E+00  0.00000000000E+00  0.29598236311E+03  0.29598236311E+03  0.00000000000E+00 0. -1.
         -2   -1    0    0    0  501 -0.00000000000E+00 -0.00000000000E+00 -0.53885539200E+02  0.53885539200E+02  0.00000000000E+00 0.  1.
         23    2    1    2    0    0  0.30641495940E+02 -0.13448610289E+02  0.57177077471E+02  0.14146984036E+03  0.12499892460E+03 0.  0.
          5    1    3    3  502    0 -0.40179533796E+02 -0.31697184007E+02  0.52656432286E+01  0.51661624139E+02  0.47000000000E+01 0.  1.
         -5    1    3    3    0  502  0.70821029737E+02  0.18248573718E+02  0.51911434242E+02  0.89808216221E+02  0.47000000000E+01 0.  1.
        -11    1    1    2    0    0 -0.62221477391E+02  0.15874288649E+02  0.11724775067E+03  0.13368074029E+03  0.00000000000E+00 0.  1.
         11    1    1    2    0    0  0.31579981451E+02 -0.24256783606E+01  0.67671995775E+02  0.74717321660E+02  0.00000000000E+00 0. -1.
<mgrwt>
<rscale>  0 0.12012361E+03</rscale>
<asrwt>0</asrwt>
<pdfrwt beam="1">  1        2 0.45535747E-01 0.12940053E+03</pdfrwt>
<pdfrwt beam="2">  1       -2 0.82900831E-02 0.12940053E+03</pdfrwt>
<totfact> 0.93617429E+03</totfact>
</mgrwt>
</event>
<event>
 6    1  0.4230786E-006  0.1372063E+03  0.7546771E-02  0.1231555E+00
          1   -1    0    0  501    0  0.00000000000E+00  0.00000000000E+00  0.76818205718E+02  0.76818205718E+02  0.00000000000E+00 0. -1.
         -1   -1    0    0    0  501 -0.00000000000E+00 -0.00000000000E+00 -0.18767072020E+03  0.18767072020E+03  0.00000000000E+00 0.  1.
          5    1    1    2  502    0 -0.67428089147E+02  0.43756422220E+02 -0.88316302989E+02  0.11951163569E+03  0.47000000000E+01 0. -1.
         -5    1    1    2    0  502  0.33739651548E+02 -0.12872831233E+02  0.10919977863E+02  0.38018545304E+02  0.47000000000E+01 0.  1.
        -11    1    1    2    0    0  0.37434637332E+02 -0.58286933864E+02 -0.37873317306E+02  0.78950027836E+02  0.00000000000E+00 0.  1.
         11    1    1    2    0    0 -0.37461997332E+01  0.27403342877E+02  0.44171279552E+01  0.28008717083E+02  0.00000000000E+00 0. -1.
<mgrwt>
<rscale>  0 0.12727555E+03</rscale>
<asrwt>0</asrwt>
<pdfrwt beam="1">  1        1 0.11818186E-01 0.13720629E+03</pdfrwt>
<pdfrwt beam="2">  1       -1 0.28872418E-01 0.13720629E+03</pdfrwt>
<totfact> 0.53271009E+03</totfact>
</mgrwt>
</event>
<event>
 7    1  0.4230786E-006  0.1326499E+03  0.7546771E-02  0.1246398E+00
         -1   -1    0    0    0  501 -0.00000000000E+00  0.00000000000E+00  0.92447274937E+03  0.92447274937E+03  0.00000000000E+00 0.  1.
          1   -1    0    0  501    0  0.00000000000E+00 -0.00000000000E+00 -0.13646934211E+02  0.13646934211E+02  0.00000000000E+00 0. -1.
         23    2    1    2    0    0 -0.36589948893E+02  0.25144777271E+02  0.67915743159E+03  0.69199047724E+03  0.12499967808E+03 0.  0.
          5    1    3    3  502    0 -0.62404914846E+02  0.88946521718E+01  0.16173640430E+03  0.17364977026E+03  0.47000000000E+01 0.  1.
         -5    1    3    3    0  502  0.25814965953E+02  0.16250125099E+02  0.51742102729E+03  0.51834070698E+03  0.47000000000E+01 0.  1.
        -11    1    1    2    0    0 -0.15375550184E+02 -0.27040180438E+02  0.84350548597E+02  0.89903247718E+02  0.00000000000E+00 0.  1.
         11    1    1    2    0    0  0.51965499077E+02  0.18954031667E+01  0.14731783498E+03  0.15622595863E+03  0.00000000000E+00 0. -1.
<mgrwt>
<rscale>  0 0.11802116E+03</rscale>
<asrwt>0</asrwt>
<pdfrwt beam="2">  1        1 0.20995291E-02 0.13264993E+03</pdfrwt>
<pdfrwt beam="1">  1       -1 0.14222653E+00 0.13264993E+03</pdfrwt>
<totfact> 0.23673931E+03</totfact>
</mgrwt>
</event>
<event>
 7    1  0.4230786E-006  0.1402522E+03  0.7546771E-02  0.1224152E+00
         -1   -1    0    0    0  501 -0.00000000000E+00  0.00000000000E+00  0.42790862023E+02  0.42790862023E+02  0.00000000000E+00 0.  1.
          1   -1    0    0  501    0  0.00000000000E+00 -0.00000000000E+00 -0.47463428726E+03  0.47463428726E+03  0.00000000000E+00 0. -1.
         23    2    1    2    0    0  0.17527854483E+02  0.61146189603E+02 -0.11382359397E+03  0.18062806519E+03  0.12499842080E+03 0.  0.
          5    1    3    3  502    0 -0.37802641146E+02  0.71096654360E+02 -0.85359095718E+02  0.11743951277E+03  0.47000000000E+01 0.  1.
         -5    1    3    3    0  502  0.55330495629E+02 -0.99504647574E+01 -0.28464498256E+02  0.63188552416E+02  0.47000000000E+01 0.  1.
        -11    1    1    2    0    0 -0.54899328319E+02 -0.32801469873E+02 -0.18725509830E+03  0.19787456763E+03  0.00000000000E+00 0.  1.
         11    1    1    2    0    0  0.37371473836E+02 -0.28344719730E+02 -0.13076473295E+03  0.13892251645E+03  0.00000000000E+00 0. -1.
<mgrwt>
<rscale>  0 0.13225172E+03</rscale>
<asrwt>0</asrwt>
<pdfrwt beam="2">  1        1 0.73020654E-01 0.14025223E+03</pdfrwt>
<pdfrwt beam="1">  1       -1 0.65832100E-02 0.14025223E+03</pdfrwt>
<totfact> 0.54142307E+03</totfact>
</mgrwt>
</event>
<event>
 7    1  0.4230786E-006  0.1272400E+03  0.7546771E-02  0.1247425E+00
         -2   -1    0    0    0  501 -0.00000000000E+00  0.00000000000E+00  0.74517054284E+03  0.74517054284E+03  0.00000000000E+00 0.  1.
          2   -1    0    0  501    0  0.00000000000E+00 -0.00000000000E+00 -0.16885306240E+02  0.16885306240E+02  0.00000000000E+00 0. -1.
         23    2    1    2    0    0  0.52144266570E+01  0.23194965694E+02  0.49748435410E+03  0.51349849500E+03  0.12499930047E+03 0.  0.
          5    1    3    3  502    0 -0.17616625780E+02 -0.26378827424E+02  0.40306391463E+03  0.40433747948E+03  0.47000000000E+01 0.  1.
         -5    1    3    3    0  502  0.22831052437E+02  0.49573793118E+02  0.94420439473E+02  0.10916101552E+03  0.47000000000E+01 0.  1.
        -11    1    1    2    0    0 -0.20533796183E+02 -0.49065826010E+02  0.19334017805E+03  0.20052310719E+03  0.00000000000E+00 0.  1.
         11    1    1    2    0    0  0.15319369526E+02  0.25870860316E+02  0.37460704448E+02  0.48034246886E+02  0.00000000000E+00 0. -1.
<mgrwt>
<rscale>  0 0.11741400E+03</rscale>
<asrwt>0</asrwt>
<pdfrwt beam="2">  1        2 0.25977400E-02 0.12724002E+03</pdfrwt>
<pdfrwt beam="1">  1       -2 0.11464160E+00 0.12724002E+03</pdfrwt>
<totfact> 0.22528570E+03</totfact>
</mgrwt>
</event>
<event>
 6    1  0.4230786E-006  0.1649123E+03  0.7546771E-02  0.1209752E+00
         -2   -1    0    0    0  501 -0.00000000000E+00  0.00000000000E+00  0.57605709384E+02  0.57605709384E+02  0.00000000000E+00 0.  1.
          2   -1    0    0  501    0  0.00000000000E+00 -0.00000000000E+00 -0.28887251743E+03  0.28887251743E+03  0.00000000000E+00 0. -1.
          5    1    1    2  502    0  0.10450288469E+02 -0.49998174308E+02 -0.15961325002E+03  0.16765293181E+03  0.47000000000E+01 0. -1.
         -5    1    1    2    0  502 -0.34488171462E+01  0.61731859443E+02 -0.22282177854E+00  0.62006906547E+02  0.47000000000E+01 0.  1.
        -11    1    1    2    0    0 -0.32398768317E+02 -0.40695123145E+01 -0.81999678964E+02  0.88262044329E+02  0.00000000000E+00 0. -1.
         11    1    1    2    0    0  0.25397296994E+02 -0.76641728213E+01  0.10568942717E+02  0.28556344125E+02  0.00000000000E+00 0.  1.
<mgrwt>
<rscale>  0 0.14269168E+03</rscale>
<asrwt>0</asrwt>
<pdfrwt beam="2">  1        2 0.44441925E-01 0.16491231E+03</pdfrwt>
<pdfrwt beam="1">  1       -2 0.88624169E-02 0.16491231E+03</pdfrwt>
<totfact> 0.88088785E+03</totfact>
</mgrwt>
</event>
<event>
 7    1  0.4230786E-006  0.1348110E+03  0.7546771E-02  0.1233111E+00
          2   -1    0    0  501    0  0.00000000000E+00  0.00000000000E+00  0.13659062456E+02  0.13659062456E+02  0.00000000000E+00 0. -1.
         -2   -1    0    0    0  501 -0.00000000000E+00 -0.00000000000E+00 -0.11485330714E+04  0.11485330714E+04  0.00000000000E+00 0.  1.
         23    2    1    2    0    0 -0.30919504419E+02 -0.39902436165E+02 -0.81052645813E+03  0.82166120944E+03  0.12500313438E+03 0.  0.
          5    1    3    3  502    0 -0.36870841818E+02  0.18651519525E+02 -0.95008635961E+02  0.10371147026E+03  0.47000000000E+01 0.  1.
         -5    1    3    3    0  502  0.59513373991E+01 -0.58553955690E+02 -0.71551782217E+03  0.71794973918E+03  0.47000000000E+01 0.  1.
        -11    1    1    2    0    0 -0.28984198511E+02  0.25227299048E+02 -0.83583968985E+02  0.91993370695E+02  0.00000000000E+00 0. -1.
         11    1    1    2    0    0  0.59903702929E+02  0.14675137118E+02 -0.24076358181E+03  0.24853755370E+03  0.00000000000E+00 0.  1.
<mgrwt>
<rscale>  0 0.12626134E+03</rscale>
<asrwt>0</asrwt>
<pdfrwt beam="1">  1        2 0.21013938E-02 0.13481099E+03</pdfrwt>
<pdfrwt beam="2">  1       -2 0.17669744E+00 0.13481099E+03</pdfrwt>
<totfact> 0.10127110E+03</totfact>
</mgrwt>
</event>
<event>
 7    1  0.4230786E-006  0.1817670E+03  0.7546771E-02  0.1172159E+00
         -1   -1    0    0    0  501 -0.00000000000E+00  0.00000000000E+00  0.25484933326E+02  0.25484933326E+02  0.00000000000E+00 0.  1.
          1   -1    0    0  501    0  0.00000000000E+00 -0.00000000000E+00 -0.11595041027E+04  0.11595041027E+04  0.00000000000E+00 0. -1.
         23    2    1    2    0    0 -0.45583816286E+02 -0.12383760006E+03 -0.69316431761E+03  0.71660031003E+03  0.12500239049E+03 0.  0.
          5    1    3    3  502    0 -0.30291295288E+02 -0.10992713888E+03 -0.68408324933E+03  0.69353696401E+03  0.47000000000E+01 0.  1.
         -5    1    3    3    0  502 -0.15292520998E+02 -0.13910461174E+02 -0.90810682821E+01  0.23063346021E+02  0.47000000000E+01 0.  1.
        -11    1    1    2    0    0  0.61979539690E+02  0.62249204663E+02 -0.18621697923E+03  0.20589606644E+03  0.00000000000E+00 0.  1.
         11    1    1    2    0    0 -0.16395723404E+02  0.61588395395E+02 -0.25463787253E+03  0.26249265955E+03  0.00000000000E+00 0. -1.
<mgrwt>
<rscale>  0 0.17557177E+03</rscale>
<asrwt>0</asrwt>
<pdfrwt beam="2">  1        1 0.17838528E+00 0.18176697E+03</pdfrwt>
<pdfrwt beam="1">  1       -1 0.39207582E-02 0.18176697E+03</pdfrwt>
<totfact> 0.30777802E+03</totfact>
</mgrwt>
</event>
<event>
 7    1  0.4230786E-006  0.1621633E+03  0.7546771E-02  0.1193599E+00
         -2   -1    0    0    0  501 -0.00000000000E+00  0.00000000000E+00  0.65186905293E+02  0.65186905293E+02  0.00000000000E+00 0.  1.
          2   -1    0    0  501    0  0.00000000000E+00 -0.00000000000E+00 -0.36583229312E+03  0.36583229312E+03  0.00000000000E+00 0. -1.
         23    2    1    2    0    0 -0.10133436046E+03 -0.20082528097E+02 -0.11099063947E+03  0.19650919834E+03  0.12499992974E+03 0.  0.
          5    1    3    3  502    0 -0.11890800291E+03 -0.29606136101E+02 -0.12219600415E+03  0.17311727204E+03  0.47000000000E+01 0.  1.
         -5    1    3    3    0  502  0.17573642445E+02  0.95236080035E+01  0.11205364674E+02  0.23391926293E+02  0.47000000000E+01 0.  1.
        -11    1    1    2    0    0  0.55996825069E+02  0.31153846325E+01 -0.17524795651E+03  0.18400325079E+03  0.00000000000E+00 0. -1.
         11    1    1    2    0    0  0.45337535391E+02  0.16967143465E+02 -0.14406791842E+02  0.50506749290E+02  0.00000000000E+00 0.  1.
<mgrwt>
<rscale>  0 0.15573383E+03</rscale>
<asrwt>0</asrwt>
<pdfrwt beam="2">  1        2 0.56281891E-01 0.16216332E+03</pdfrwt>
<pdfrwt beam="1">  1       -2 0.10028755E-01 0.16216332E+03</pdfrwt>
<totfact> 0.56318431E+03</totfact>
</mgrwt>
</event>
<event>
 7    1  0.4230786E-006  0.2575077E+03  0.7546771E-02  0.1111379E+00
         -2   -1    0    0    0  501 -0.00000000000E+00  0.00000000000E+00  0.45105092994E+02  0.45105092994E+02  0.00000000000E+00 0.  1.
          2   -1    0    0  501    0  0.00000000000E+00 -0.00000000000E+00 -0.14040884472E+04  0.14040884472E+04  0.00000000000E+00 0. -1.
         23    2    1    2    0    0  0.84635646712E+02  0.20862131898E+03 -0.81021277646E+03  0.85014995611E+03  0.12499662922E+03 0.  0.
          5    1    3    3  502    0 -0.92682889128E+01  0.99745907316E+02 -0.20689367572E+03  0.22991787720E+03  0.47000000000E+01 0.  1.
         -5    1    3    3    0  502  0.93903935625E+02  0.10887541166E+03 -0.60331910074E+03  0.62023207891E+03  0.47000000000E+01 0.  1.
        -11    1    1    2    0    0 -0.63011747957E+02 -0.20858909001E+03 -0.48481397633E+03  0.53153031945E+03  0.00000000000E+00 0. -1.
         11    1    1    2    0    0 -0.21623898755E+02 -0.32228967924E-01 -0.63956601459E+02  0.67513264669E+02  0.00000000000E+00 0.  1.
<mgrwt>
<rscale>  0 0.25307162E+03</rscale>
<asrwt>0</asrwt>
<pdfrwt beam="2">  1        2 0.21601359E+00 0.25750768E+03</pdfrwt>
<pdfrwt beam="1">  1       -2 0.69392458E-02 0.25750768E+03</pdfrwt>
<totfact> 0.18174938E+03</totfact>
</mgrwt>
</event>
<event>
 7    1  0.4230786E-006  0.1569903E+03  0.7546771E-02  0.1199438E+00
         -3   -1    0    0    0  501 -0.00000000000E+00  0.00000000000E+00  0.35666968039E+03  0.35666968039E+03  0.00000000000E+00 0.  1.
          3   -1    0    0  501    0  0.00000000000E+00 -0.00000000000E+00 -0.96546139366E+02  0.96546139366E+02  0.00000000000E+00 0. -1.
         23    2    1    2    0    0 -0.93018535672E+02 -0.19194013447E+02  0.27694546045E+03  0.31834687762E+03  0.12500035319E+03 0.  0.
          5    1    3    3  502    0 -0.37421566979E+02 -0.70828272103E+02  0.15745573744E+03  0.17672412698E+03  0.47000000000E+01 0.  1.
         -5    1    3    3    0  502 -0.55596968693E+02  0.51634258655E+02  0.11948972300E+03  0.14162275064E+03  0.47000000000E+01 0.  1.
        -11    1    1    2    0    0  0.10836704808E+03  0.20700052520E+02  0.22405171134E+01  0.11034912415E+03  0.00000000000E+00 0.  1.
         11    1    1    2    0    0 -0.15348512412E+02 -0.15060390724E+01 -0.19062436537E+02  0.24519817978E+02  0.00000000000E+00 0. -1.
<mgrwt>
<rscale>  0 0.15084516E+03</rscale>
<asrwt>0</asrwt>
<pdfrwt beam="2">  1        3 0.14853252E-01 0.15699027E+03</pdfrwt>
<pdfrwt beam="1">  1       -3 0.54872258E-01 0.15699027E+03</pdfrwt>
<totfact> 0.29647738E+02</totfact>
</mgrwt>
</event>
<event>
 7    1  0.4230786E-006  0.1375576E+03  0.7546771E-02  0.1227853E+00
         -3   -1    0    0    0  501 -0.00000000000E+00  0.00000000000E+00  0.53360320755E+03  0.53360320755E+03  0.00000000000E+00 0.  1.
          3   -1    0    0  501    0  0.00000000000E+00 -0.00000000000E+00 -0.28510064840E+02  0.28510064840E+02  0.00000000000E+00 0. -1.
         23    2    1    2    0    0 -0.27553318363E+02  0.50383661436E+02  0.29557731747E+03  0.32601847073E+03  0.12499757583E+03 0.  0.
          5    1    3    3  502    0  0.19510164683E+02 -0.32160341859E+02  0.50657550061E+02  0.63270937188E+02  0.47000000000E+01 0. -1.
         -5    1    3    3    0  502 -0.47063483046E+02  0.82544003296E+02  0.24491976741E+03  0.26274753354E+03  0.47000000000E+01 0. -1.
        -11    1    1    2    0    0  0.58665615411E+02 -0.26386924648E+02  0.16282676073E+03  0.17507277982E+03  0.00000000000E+00 0.  1.
         11    1    1    2    0    0 -0.31112297048E+02 -0.23996736789E+02  0.46689064510E+02  0.61022021836E+02  0.00000000000E+00 0. -1.
<mgrwt>
<rscale>  0 0.12973291E+03</rscale>
<asrwt>0</asrwt>
<pdfrwt beam="2">  1        3 0.43861642E-02 0.13755760E+03</pdfrwt>
<pdfrwt beam="1">  1       -3 0.82092794E-01 0.13755760E+03</pdfrwt>
<totfact> 0.91501500E+02</totfact>
</mgrwt>
</event>
<event>
 7    1  0.4230786E-006  0.1220517E+03  0.7546771E-02  0.1253663E+00
          2   -1    0    0  501    0  0.00000000000E+00  0.00000000000E+00  0.33904031577E+03  0.33904031577E+03  0.00000000000E+00 0. -1.
         -2   -1    0    0    0  501 -0.00000000000E+00 -0.00000000000E+00 -0.34246341271E+02  0.34246341271E+02  0.00000000000E+00 0.  1.
         23    2    1    2    0    0 -0.96160708422E+01  0.19543971545E+02  0.19250315246E+03  0.22793438471E+03  0.12009239936E+03 0.  0.
          5    1    3    3  502    0  0.48456507379E+02  0.23932864587E+02  0.13698791465E+03  0.14733836525E+03  0.47000000000E+01 0. -1.
         -5    1    3    3    0  502 -0.58072578221E+02 -0.43888930425E+01  0.55515237809E+02  0.80596019457E+02  0.47000000000E+01 0.  1.
        -11    1    1    2    0    0 -0.30864143816E+02 -0.13002346003E+02  0.95215227107E+02  0.10093362100E+03  0.00000000000E+00 0. -1.
         11    1    1    2    0    0  0.40480214659E+02 -0.65416255419E+01  0.17075594926E+02  0.44418651326E+02  0.00000000000E+00 0.  1.
<mgrwt>
<rscale>  0 0.11381525E+03</rscale>
<asrwt>0</asrwt>
<pdfrwt beam="1">  1        2 0.52160047E-01 0.12205171E+03</pdfrwt>
<pdfrwt beam="2">  1       -2 0.52686681E-02 0.12205171E+03</pdfrwt>
<totfact> 0.16093691E+04</totfact>
</mgrwt>
</event>
<event>
 7    1  0.4230786E-006  0.1369293E+03  0.7546771E-02  0.1229726E+00
         -2   -1    0    0    0  501 -0.00000000000E+00  0.00000000000E+00  0.10049430212E+03  0.10049430212E+03  0.00000000000E+00 0.  1.
          2   -1    0    0  501    0  0.00000000000E+00 -0.00000000000E+00 -0.15720365920E+03  0.15720365920E+03  0.00000000000E+00 0. -1.
         23    2    1    2    0    0  0.48635980605E+02 -0.27561005644E+02  0.89824467419E+00  0.13693220187E+03  0.12499821368E+03 0.  0.
          5    1    3    3  502    0  0.80553129451E+02  0.11190863224E+02  0.18478832579E+02  0.83532025820E+02  0.47000000000E+01 0. -1.
         -5    1    3    3    0  502 -0.31917148846E+02 -0.38751868869E+02 -0.17580587904E+02  0.53400176052E+02  0.47000000000E+01 0. -1.
        -11    1    1    2    0    0 -0.69952294902E+02  0.36189606319E+02 -0.57925736446E+02  0.97767080913E+02  0.00000000000E+00 0. -1.
         11    1    1    2    0    0  0.21316314296E+02 -0.86286006743E+01  0.31813469503E+00  0.22998678537E+02  0.00000000000E+00 0.  1.
<mgrwt>
<rscale>  0 0.12848195E+03</rscale>
<asrwt>0</asrwt>
<pdfrwt beam="2">  1        2 0.24185178E-01 0.13692926E+03</pdfrwt>
<pdfrwt beam="1">  1       -2 0.15460662E-01 0.13692926E+03</pdfrwt>
<totfact> 0.68999176E+03</totfact>
</mgrwt>
</event>
<event>
 7    1  0.4230786E-006  0.4169358E+03  0.7546771E-02  0.1038789E+00
          2   -1    0    0  501    0  0.00000000000E+00  0.00000000000E+00  0.87940897390E+03  0.87940897390E+03  0.00000000000E+00 0. -1.
         -2   -1    0    0    0  501 -0.00000000000E+00 -0.00000000000E+00 -0.19465673090E+03  0.19465673090E+03  0.00000000000E+00 0.  1.
         23    2    1    2    0    0 -0.16483247995E+03 -0.36199456212E+03  0.30605464531E+03  0.51720880009E+03  0.12500275009E+03 0.  0.
          5    1    3    3  502    0 -0.46771991993E+02 -0.16896180670E+03  0.20375962308E+03  0.26884156181E+03  0.47000000000E+01 0. -1.
         -5    1    3    3    0  502 -0.11806048796E+03 -0.19303275541E+03  0.10229502223E+03  0.24836723828E+03  0.47000000000E+01 0. -1.
        -11    1    1    2    0    0  0.33398807290E+02  0.14796603330E+03  0.18763937929E+03  0.24128399035E+03  0.00000000000E+00 0.  1.
         11    1    1    2    0    0  0.13143367266E+03  0.21402852881E+03  0.19105821840E+03  0.31557291435E+03  0.00000000000E+00 0. -1.
<mgrwt>
<rscale>  0 0.41475022E+03</rscale>
<asrwt>0</asrwt>
<pdfrwt beam="1">  1        2 0.13529369E+00 0.41693584E+03</pdfrwt>
<pdfrwt beam="2">  1       -2 0.29947190E-01 0.41693584E+03</pdfrwt>
<totfact> 0.31982207E+02</totfact>
</mgrwt>
</event>
<event>
 6    1  0.4230786E-006  0.3417890E+03  0.7546771E-02  0.1111689E+00
          2   -1    0    0  501    0  0.00000000000E+00  0.00000000000E+00  0.11014669050E+04  0.11014669050E+04  0.00000000000E+00 0. -1.
         -2   -1    0    0    0  501 -0.00000000000E+00 -0.00000000000E+00 -0.44690878255E+02  0.44690878255E+02  0.00000000000E+00 0.  1.
          5    1    1    2  502    0 -0.12833749715E+03 -0.61731263203E+02  0.73555602176E+03  0.74923028047E+03  0.47000000000E+01 0. -1.
         -5    1    1    2    0  502  0.10507723559E+03  0.13948219759E+02  0.73544025055E+02  0.12909915529E+03  0.47000000000E+01 0.  1.
        -11    1    1    2    0    0 -0.10962475496E+02  0.29458171465E+01 -0.22877059150E+01  0.11579607334E+02  0.00000000000E+00 0. -1.
         11    1    1    2    0    0  0.34222737047E+02  0.44837226297E+02  0.24996368589E+03  0.25624874021E+03  0.00000000000E+00 0.  1.
<mgrwt>
<rscale>  0 0.25257383E+03</rscale>
<asrwt>0</asrwt>
<pdfrwt beam="1">  1        2 0.16945643E+00 0.34178899E+03</pdfrwt>
<pdfrwt beam="2">  1       -2 0.68755205E-02 0.34178899E+03</pdfrwt>
<totfact> 0.27341876E+03</totfact>
</mgrwt>
</event>
<event>
 7    1  0.4230786E-006  0.1721224E+03  0.7546771E-02  0.1178459E+00
         -2   -1    0    0    0  501 -0.00000000000E+00  0.00000000000E+00  0.24691700338E+02  0.24691700338E+02  0.00000000000E+00 0.  1.
          2   -1    0    0  501    0  0.00000000000E+00 -0.00000000000E+00 -0.11308304838E+04  0.11308304838E+04  0.00000000000E+00 0. -1.
         23    2    1    2    0    0 -0.10380192829E+03  0.81199784424E+02 -0.53801965658E+03  0.56488165830E+03  0.11071536345E+03 0.  0.
          5    1    3    3  502    0 -0.70669378107E+02 -0.55885376060E+01 -0.32099994722E+03  0.32876807763E+03  0.47000000000E+01 0. -1.
         -5    1    3    3    0  502 -0.33132550187E+02  0.86788322030E+02 -0.21701970936E+03  0.23611358066E+03  0.47000000000E+01 0.  1.
        -11    1    1    2    0    0  0.10113434048E+03 -0.26814641012E+02 -0.41980673706E+03  0.43264867534E+03  0.00000000000E+00 0.  1.
         11    1    1    2    0    0  0.26675878170E+01 -0.54385143412E+02 -0.14831238980E+03  0.15799185048E+03  0.00000000000E+00 0. -1.
<mgrwt>
<rscale>  0 0.16941495E+03</rscale>
<asrwt>0</asrwt>
<pdfrwt beam="2">  1        2 0.17397390E+00 0.17212245E+03</pdfrwt>
<pdfrwt beam="1">  1       -2 0.37987237E-02 0.17212245E+03</pdfrwt>
<totfact> 0.64047986E+03</totfact>
</mgrwt>
</event>
<event>
 7    1  0.4230786E-006  0.1262691E+03  0.7546771E-02  0.1240400E+00
         -2   -1    0    0    0  501 -0.00000000000E+00  0.00000000000E+00  0.17598261131E+02  0.17598261131E+02  0.00000000000E+00 0.  1.
          2   -1    0    0  501    0  0.00000000000E+00 -0.00000000000E+00 -0.78667565865E+03  0.78667565865E+03  0.00000000000E+00 0. -1.
         23    2    1    2    0    0 -0.57900708168E+02  0.63384284484E+01 -0.43236185315E+03  0.45042274522E+03  0.11203218142E+03 0.  0.
          5    1    3    3  502    0 -0.36340799183E+02 -0.25797878108E+02 -0.39109700731E+03  0.39365612320E+03  0.47000000000E+01 0. -1.
         -5    1    3    3    0  502 -0.21559908985E+02  0.32136306556E+02 -0.41264845834E+02  0.56766622026E+02  0.47000000000E+01 0.  1.
        -11    1    1    2    0    0  0.36655977737E+02 -0.48916936439E+02 -0.19557799747E+03  0.20490798049E+03  0.00000000000E+00 0. -1.
         11    1    1    2    0    0  0.21244730431E+02  0.42578507991E+02 -0.14113754690E+03  0.14894319406E+03  0.00000000000E+00 0.  1.
<mgrwt>
<rscale>  0 0.12164967E+03</rscale>
<asrwt>0</asrwt>
<pdfrwt beam="2">  1        2 0.12102705E+00 0.12626907E+03</pdfrwt>
<pdfrwt beam="1">  1       -2 0.27074243E-02 0.12626907E+03</pdfrwt>
<totfact> 0.16921624E+04</totfact>
</mgrwt>
</event>
<event>
 7    1  0.4230786E-006  0.1274714E+03  0.7546771E-02  0.1246804E+00
         -2   -1    0    0    0  501 -0.00000000000E+00  0.00000000000E+00  0.22302507281E+03  0.22302507281E+03  0.00000000000E+00 0.  1.
          2   -1    0    0  501    0  0.00000000000E+00 -0.00000000000E+00 -0.54590019618E+02  0.54590019618E+02  0.00000000000E+00 0. -1.
         23    2    1    2    0    0 -0.16761273351E+02  0.18520661451E+02  0.90237880437E+02  0.15617880892E+03  0.12499996042E+03 0.  0.
          5    1    3    3  502    0 -0.55065529249E+02 -0.28781204846E+02  0.25876108862E+02  0.67470239912E+02  0.47000000000E+01 0.  1.
         -5    1    3    3    0  502  0.38304255898E+02  0.47301866297E+02  0.64361771575E+02  0.88708569007E+02  0.47000000000E+01 0.  1.
        -11    1    1    2    0    0 -0.19827522712E+02 -0.58611913153E+01  0.80048053913E+02  0.82675118118E+02  0.00000000000E+00 0.  1.
         11    1    1    2    0    0  0.36588796064E+02 -0.12659470135E+02 -0.18508811574E+01  0.38761165392E+02  0.00000000000E+00 0. -1.
<mgrwt>
<rscale>  0 0.11778045E+03</rscale>
<asrwt>0</asrwt>
<pdfrwt beam="2">  1        2 0.83984647E-02 0.12747135E+03</pdfrwt>
<pdfrwt beam="1">  1       -2 0.34311549E-01 0.12747135E+03</pdfrwt>
<totfact> 0.60049237E+03</totfact>
</mgrwt>
</event>
<event>
 7    1  0.4230786E-006  0.1336290E+03  0.7546771E-02  0.1236106E+00
          1   -1    0    0  501    0  0.00000000000E+00  0.00000000000E+00  0.21285357161E+03  0.21285357161E+03  0.00000000000E+00 0. -1.
         -1   -1    0    0    0  501 -0.00000000000E+00 -0.00000000000E+00 -0.86261342264E+02  0.86261342264E+02  0.00000000000E+00 0.  1.
         23    2    1    2    0    0  0.23149541785E+01  0.47188049407E+02 -0.50171593016E+01  0.13372314381E+03  0.12499854512E+03 0.  0.
          5    1    3    3  502    0 -0.72268726418E+01  0.43274137146E+02 -0.61735734083E+02  0.75883262296E+02  0.47000000000E+01 0.  1.
         -5    1    3    3    0  502  0.95418268203E+01  0.39139122613E+01  0.56718574781E+02  0.57839881513E+02  0.47000000000E+01 0.  1.
        -11    1    1    2    0    0  0.16520523872E+02  0.15847874442E+02  0.61111075033E+01  0.23694481810E+02  0.00000000000E+00 0.  1.
         11    1    1    2    0    0 -0.18835478051E+02 -0.63035923849E+02  0.12549828115E+03  0.14169728826E+03  0.00000000000E+00 0. -1.
<mgrwt>
<rscale>  0 0.12433877E+03</rscale>
<asrwt>0</asrwt>
<pdfrwt beam="1">  1        1 0.32746703E-01 0.13362899E+03</pdfrwt>
<pdfrwt beam="2">  1       -1 0.13270976E-01 0.13362899E+03</pdfrwt>
<totfact> 0.50581207E+03</totfact>
</mgrwt>
</event>
<event>
 7    1  0.4230786E-006  0.1379564E+03  0.7546771E-02  0.1227556E+00
          1   -1    0    0  501    0  0.00000000000E+00  0.00000000000E+00  0.37755691168E+03  0.37755691168E+03  0.00000000000E+00 0. -1.
         -1   -1    0    0    0  501 -0.00000000000E+00 -0.00000000000E+00 -0.44165406386E+02  0.44165406386E+02  0.00000000000E+00 0.  1.
         23    2    1    2    0    0  0.58343358221E+02 -0.43722579272E+01  0.12233315357E+03  0.18438378974E+03  0.12493565291E+03 0.  0.
          5    1    3    3  502    0  0.77326495189E+02  0.39179550316E+02  0.97578057757E+02  0.13060624555E+03  0.47000000000E+01 0. -1.
         -5    1    3    3    0  502 -0.18983136968E+02 -0.43551808243E+02  0.24755095814E+02  0.53777544190E+02  0.47000000000E+01 0. -1.
        -11    1    1    2    0    0 -0.21049562223E+02 -0.18703918583E+02  0.75431690349E+01  0.29151673009E+02  0.00000000000E+00 0.  1.
         11    1    1    2    0    0 -0.37293795998E+02  0.23076176510E+02  0.20351518268E+03  0.20818685531E+03  0.00000000000E+00 0. -1.
<mgrwt>
<rscale>  0 0.12993252E+03</rscale>
<asrwt>0</asrwt>
<pdfrwt beam="1">  1        1 0.58085677E-01 0.13795645E+03</pdfrwt>
<pdfrwt beam="2">  1       -1 0.67946782E-02 0.13795645E+03</pdfrwt>
<totfact> 0.69010445E+03</totfact>
</mgrwt>
</event>
<event>
 7    1  0.4230786E-006  0.1505067E+03  0.7546771E-02  0.1208978E+00
          2   -1    0    0  501    0  0.00000000000E+00  0.00000000000E+00  0.59557952161E+03  0.59557952161E+03  0.00000000000E+00 0. -1.
         -2   -1    0    0    0  501 -0.00000000000E+00 -0.00000000000E+00 -0.31553289942E+02  0.31553289942E+02  0.00000000000E+00 0.  1.
         23    2    1    2    0    0  0.60832262106E+02  0.57679615640E+02  0.31485029221E+03  0.34897418160E+03  0.12499908295E+03 0.  0.
          5    1    3    3  502    0  0.73416076411E+02  0.85862983888E+02  0.28115104969E+03  0.30303527026E+03  0.47000000000E+01 0. -1.
         -5    1    3    3    0  502 -0.12583814305E+02 -0.28183368248E+02  0.33699242523E+02  0.45938911338E+02  0.47000000000E+01 0. -1.
        -11    1    1    2    0    0 -0.71008946988E+02 -0.71611325594E+02  0.23535841360E+03  0.25605475070E+03  0.00000000000E+00 0. -1.
         11    1    1    2    0    0  0.10176684882E+02  0.13931709954E+02  0.13817525861E+02  0.22103879260E+02  0.00000000000E+00 0.  1.
<mgrwt>
<rscale>  0 0.14328312E+03</rscale>
<asrwt>0</asrwt>
<pdfrwt beam="1">  1        2 0.91627611E-01 0.15050672E+03</pdfrwt>
<pdfrwt beam="2">  1       -2 0.48543527E-02 0.15050672E+03</pdfrwt>
<totfact> 0.10023319E+04</totfact>
</mgrwt>
</event>
<event>
 7    1  0.4230786E-006  0.1456016E+03  0.7546771E-02  0.1215810E+00
         -1   -1    0    0    0  501 -0.00000000000E+00  0.00000000000E+00  0.18710297974E+03  0.18710297974E+03  0.00000000000E+00 0.  1.
          1   -1    0    0  501    0  0.00000000000E+00 -0.00000000000E+00 -0.95352025482E+02  0.95352025482E+02  0.00000000000E+00 0. -1.
         23    2    1    2    0    0  0.66224789793E+02 -0.34487874448E+02  0.73060425601E+02  0.16290381011E+03  0.12499875717E+03 0.  0.
          5    1    3    3  502    0 -0.19275060566E+02  0.31384977398E+02  0.13288373937E+02  0.39436222537E+02  0.47000000000E+01 0. -1.
         -5    1    3    3    0  502  0.85499850359E+02 -0.65872851846E+02  0.59772051665E+02  0.12346758758E+03  0.47000000000E+01 0. -1.
        -11    1    1    2    0    0 -0.34687876311E+02  0.60825816225E+02 -0.81176391642E+01  0.70490600423E+02  0.00000000000E+00 0. -1.
         11    1    1    2    0    0 -0.31536913481E+02 -0.26337941777E+02  0.26808167820E+02  0.49060594685E+02  0.00000000000E+00 0.  1.
<mgrwt>
<rscale>  0 0.13817190E+03</rscale>
<asrwt>0</asrwt>
<pdfrwt beam="2">  1        1 0.14669542E-01 0.14560160E+03</pdfrwt>
<pdfrwt beam="1">  1       -1 0.28785074E-01 0.14560160E+03</pdfrwt>
<totfact> 0.40518264E+03</totfact>
</mgrwt>
</event>
<event>
 7    1  0.4230786E-006  0.2860045E+03  0.7546771E-02  0.1093858E+00
          1   -1    0    0  501    0  0.00000000000E+00  0.00000000000E+00  0.15718333401E+03  0.15718333401E+03  0.00000000000E+00 0. -1.
         -1   -1    0    0    0  501 -0.00000000000E+00 -0.00000000000E+00 -0.59537248164E+03  0.59537248164E+03  0.00000000000E+00 0.  1.
         23    2    1    2    0    0 -0.36193168258E+02  0.25636222585E+03 -0.37171982734E+03  0.46901405363E+03  0.12151961236E+03 0.  0.
          5    1    3    3  502    0 -0.77695649490E+02  0.14871899291E+03 -0.18807558762E+03  0.25208821761E+03  0.47000000000E+01 0. -1.
         -5    1    3    3    0  502  0.41502481232E+02  0.10764323295E+03 -0.18364423972E+03  0.21692583601E+03  0.47000000000E+01 0.  1.
        -11    1    1    2    0    0  0.67398711018E+02 -0.19874927522E+03 -0.55796941233E+02  0.21715699228E+03  0.00000000000E+00 0.  1.
         11    1    1    2    0    0 -0.31205542760E+02 -0.57612950636E+02 -0.10672379056E+02  0.66384769749E+02  0.00000000000E+00 0. -1.
<mgrwt>
<rscale>  0 0.28337753E+03</rscale>
<asrwt>0</asrwt>
<pdfrwt beam="1">  1        1 0.24182051E-01 0.28600446E+03</pdfrwt>
<pdfrwt beam="2">  1       -1 0.91595766E-01 0.28600446E+03</pdfrwt>
<totfact> 0.24522402E+02</totfact>
</mgrwt>
</event>
<event>
 7    1  0.4230786E-006  0.1264299E+03  0.7546771E-02  0.1251721E+00
         -1   -1    0    0    0  501 -0.00000000000E+00  0.00000000000E+00  0.86792005265E+02  0.86792005265E+02  0.00000000000E+00 0.  1.
          1   -1    0    0  501    0  0.00000000000E+00 -0.00000000000E+00 -0.14342668039E+03  0.14342668039E+03  0.00000000000E+00 0. -1.
         23    2    1    2    0    0 -0.88192315728E+01 -0.16776331575E+02  0.10109292486E+01  0.12643391318E+03  0.12500115311E+03 0.  0.
          5    1    3    3  502    0  0.25944864607E+02  0.12790329005E+02  0.50852101834E+02  0.58692033331E+02  0.47000000000E+01 0.  1.
         -5    1    3    3    0  502 -0.34764096180E+02 -0.29566660580E+02 -0.49841172586E+02  0.67741879851E+02  0.47000000000E+01 0.  1.
        -11    1    1    2    0    0  0.30554528726E+02 -0.24172298489E+02 -0.34163692715E+02  0.51817344006E+02  0.00000000000E+00 0.  1.
         11    1    1    2    0    0 -0.21735297153E+02  0.40948630064E+02 -0.23481911660E+02  0.51967428469E+02  0.00000000000E+00 0. -1.
<mgrwt>
<rscale>  0 0.11491961E+03</rscale>
<asrwt>0</asrwt>
<pdfrwt beam="2">  1        1 0.22065643E-01 0.12642987E+03</pdfrwt>
<pdfrwt beam="1">  1       -1 0.13352616E-01 0.12642987E+03</pdfrwt>
<totfact> 0.81723850E+03</totfact>
</mgrwt>
</event>
<event>
 7    1  0.4230786E-006  0.1346315E+03  0.7546771E-02  0.1238747E+00
         -1   -1    0    0    0  501 -0.00000000000E+00  0.00000000000E+00  0.32275855623E+03  0.32275855623E+03  0.00000000000E+00 0.  1.
          1   -1    0    0  501    0  0.00000000000E+00 -0.00000000000E+00 -0.40079883410E+02  0.40079883410E+02  0.00000000000E+00 0. -1.
         23    2    1    2    0    0 -0.92921788312E+01 -0.49128145655E+02  0.17036974641E+03  0.21714395003E+03  0.12500290101E+03 0.  0.
          5    1    3    3  502    0  0.15471165779E+02  0.23066773217E+02 -0.23362597591E+01  0.28266253853E+02  0.47000000000E+01 0.  1.
         -5    1    3    3    0  502 -0.24763344610E+02 -0.72194918872E+02  0.17270600616E+03  0.18887769618E+03  0.47000000000E+01 0.  1.
        -11    1    1    2    0    0 -0.11512204840E+02  0.32438699634E+02  0.11388849542E+03  0.11897642407E+03  0.00000000000E+00 0.  1.
         11    1    1    2    0    0  0.20804383671E+02  0.16689446020E+02 -0.15795690039E+01  0.26718065548E+02  0.00000000000E+00 0. -1.
<mgrwt>
<rscale>  0 0.12267557E+03</rscale>
<asrwt>0</asrwt>
<pdfrwt beam="2">  1        1 0.61661361E-02 0.13463151E+03</pdfrwt>
<pdfrwt beam="1">  1       -1 0.49655161E-01 0.13463151E+03</pdfrwt>
<totfact> 0.49386368E+03</totfact>
</mgrwt>
</event>
<event>
 7    1  0.4230786E-006  0.1431080E+03  0.7546771E-02  0.1219680E+00
          1   -1    0    0  501    0  0.00000000000E+00  0.00000000000E+00  0.30845839445E+03  0.30845839445E+03  0.00000000000E+00 0. -1.
         -1   -1    0    0    0  501 -0.00000000000E+00 -0.00000000000E+00 -0.61756507484E+02  0.61756507484E+02  0.00000000000E+00 0.  1.
         23    2    1    2    0    0  0.97900467419E+01  0.68984687052E+02  0.69298999085E+02  0.15900392038E+03  0.12500065344E+03 0.  0.
          5    1    3    3  502    0 -0.62155847145E+01  0.42836694193E+02 -0.31371067457E+02  0.53664231440E+02  0.47000000000E+01 0.  1.
         -5    1    3    3    0  502  0.16005631456E+02  0.26147992860E+02  0.10067006654E+03  0.10533968894E+03  0.47000000000E+01 0.  1.
        -11    1    1    2    0    0  0.25472844152E+02 -0.42593650843E+02  0.15302061128E+03  0.16086762371E+03  0.00000000000E+00 0.  1.
         11    1    1    2    0    0 -0.35262890894E+02 -0.26391036209E+02  0.24382276597E+02  0.50343357839E+02  0.00000000000E+00 0. -1.
<mgrwt>
<rscale>  0 0.13538336E+03</rscale>
<asrwt>0</asrwt>
<pdfrwt beam="1">  1        1 0.47455137E-01 0.14310799E+03</pdfrwt>
<pdfrwt beam="2">  1       -1 0.95010013E-02 0.14310799E+03</pdfrwt>
<totfact> 0.53633049E+03</totfact>
</mgrwt>
</event>
<event>
 7    1  0.4230786E-006  0.1556470E+03  0.7546771E-02  0.1201855E+00
         -1   -1    0    0    0  501 -0.00000000000E+00  0.00000000000E+00  0.16258797734E+03  0.16258797734E+03  0.00000000000E+00 0.  1.
          1   -1    0    0  501    0  0.00000000000E+00 -0.00000000000E+00 -0.13774639711E+03  0.13774639711E+03  0.00000000000E+00 0. -1.
         23    2    1    2    0    0 -0.36635128352E+02  0.85205816442E+02  0.57631896158E+02  0.16597415923E+03  0.12499528908E+03 0.  0.
          5    1    3    3  502    0 -0.14533217238E+02  0.87370450850E+02  0.90051992792E+02  0.12639723688E+03  0.47000000000E+01 0. -1.
         -5    1    3    3    0  502 -0.22101911113E+02 -0.21646344082E+01 -0.32420096634E+02  0.39576922350E+02  0.47000000000E+01 0. -1.
        -11    1    1    2    0    0  0.36062675314E+02 -0.27150102282E+02  0.25702984177E+02  0.51945047890E+02  0.00000000000E+00 0.  1.
         11    1    1    2    0    0  0.57245303794E+00 -0.58055714159E+02 -0.58493300100E+02  0.82415167328E+02  0.00000000000E+00 0. -1.
<mgrwt>
<rscale>  0 0.14888113E+03</rscale>
<asrwt>0</asrwt>
<pdfrwt beam="2">  1        1 0.21191753E-01 0.15564699E+03</pdfrwt>
<pdfrwt beam="1">  1       -1 0.25013535E-01 0.15564699E+03</pdfrwt>
<totfact> 0.32002334E+03</totfact>
</mgrwt>
</event>
<event>
 6    1  0.4230786E-006  0.1454919E+03  0.7546771E-02  0.1225746E+00
          1   -1    0    0  501    0  0.00000000000E+00  0.00000000000E+00  0.33510334463E+02  0.33510334463E+02  0.00000000000E+00 0. -1.
         -1   -1    0    0    0  501 -0.00000000000E+00 -0.00000000000E+00 -0.57070953103E+03  0.57070953103E+03  0.00000000000E+00 0.  1.
          5    1    1    2  502    0 -0.44917146344E+02 -0.28402064865E+01 -0.45654345616E+02  0.64280837597E+02  0.47000000000E+01 0. -1.
         -5    1    1    2    0  502  0.54985681412E+02  0.17166453634E+02 -0.40958716504E+03  0.41364459148E+03  0.47000000000E+01 0.  1.
        -11    1    1    2    0    0  0.39233960696E+02  0.67539603055E+00 -0.56567139132E+02  0.68844760594E+02  0.00000000000E+00 0. -1.
         11    1    1    2    0    0 -0.49302495765E+02 -0.15001643178E+02 -0.25390546777E+02  0.57449675824E+02  0.00000000000E+00 0.  1.
<mgrwt>
<rscale>  0 0.13115903E+03</rscale>
<asrwt>0</asrwt>
<pdfrwt beam="1">  1        1 0.51554359E-02 0.14549186E+03</pdfrwt>
<pdfrwt beam="2">  1       -1 0.87801469E-01 0.14549186E+03</pdfrwt>
<totfact> 0.20810324E+03</totfact>
</mgrwt>
</event>
<event>
 7    1  0.4230786E-006  0.1254825E+03  0.7546771E-02  0.1249074E+00
          1   -1    0    0  501    0  0.00000000000E+00  0.00000000000E+00  0.48369418241E+02  0.48369418241E+02  0.00000000000E+00 0. -1.
         -1   -1    0    0    0  501 -0.00000000000E+00 -0.00000000000E+00 -0.28511479786E+03  0.28511479786E+03  0.00000000000E+00 0.  1.
         23    2    1    2    0    0 -0.86792021139E+01  0.65344467732E+01 -0.19406471702E+03  0.23109949948E+03  0.12501134638E+03 0.  0.
          5    1    3    3  502    0 -0.49104873878E+02  0.43927752401E+02 -0.75695182507E+02  0.10046286241E+03  0.47000000000E+01 0. -1.
         -5    1    3    3    0  502  0.40425671764E+02 -0.37393305628E+02 -0.11836953451E+03  0.13063663707E+03  0.47000000000E+01 0. -1.
        -11    1    1    2    0    0 -0.99251261725E+01  0.40322663745E+02 -0.27218617334E+02  0.49651570676E+02  0.00000000000E+00 0.  1.
         11    1    1    2    0    0  0.18604328286E+02 -0.46857110519E+02 -0.15462045264E+02  0.52733145942E+02  0.00000000000E+00 0. -1.
<mgrwt>
<rscale>  0 0.11644836E+03</rscale>
<asrwt>0</asrwt>
<pdfrwt beam="1">  1        1 0.74414489E-02 0.12548253E+03</pdfrwt>
<pdfrwt beam="2">  1       -1 0.43863815E-01 0.12548253E+03</pdfrwt>
<totfact> 0.47671560E+03</totfact>
</mgrwt>
</event>
<event>
 7    1  0.4230786E-006  0.1413050E+03  0.7546771E-02  0.1223549E+00
         -2   -1    0    0    0  501 -0.00000000000E+00  0.00000000000E+00  0.39849539078E+03  0.39849539078E+03  0.00000000000E+00 0. -1.
          2   -1    0    0  501    0  0.00000000000E+00 -0.00000000000E+00 -0.44983317967E+02  0.44983317967E+02  0.00000000000E+00 0.  1.
         23    2    1    2    0    0 -0.15237940879E+02 -0.64114155707E+02  0.27273406002E+03  0.30716601659E+03  0.12499709776E+03 0.  0.
          5    1    3    3  502    0 -0.64924245422E+02 -0.23920058108E+02  0.90651484034E+02  0.11413635872E+03  0.47000000000E+01 0.  1.
         -5    1    3    3    0  502  0.49686304543E+02 -0.40194097599E+02  0.18208257598E+03  0.19302965787E+03  0.47000000000E+01 0.  1.
        -11    1    1    2    0    0  0.35931995830E+02  0.48513891694E+02  0.10329532998E+02  0.61248716424E+02  0.00000000000E+00 0.  1.
         11    1    1    2    0    0 -0.20694054951E+02  0.15600264013E+02  0.70448479799E+02  0.75063975738E+02  0.00000000000E+00 0. -1.
<mgrwt>
<rscale>  0 0.13266879E+03</rscale>
<asrwt>0</asrwt>
<pdfrwt beam="2">  1        2 0.69205107E-02 0.14130497E+03</pdfrwt>
<pdfrwt beam="1">  1       -2 0.61306981E-01 0.14130497E+03</pdfrwt>
<totfact> 0.24950863E+03</totfact>
</mgrwt>
</event>
<event>
 7    1  0.4230786E-006  0.1283755E+03  0.7546771E-02  0.1237494E+00
         -2   -1    0    0    0  501 -0.00000000000E+00  0.00000000000E+00  0.12584546253E+03  0.12584546253E+03  0.00000000000E+00 0.  1.
          2   -1    0    0  501    0  0.00000000000E+00 -0.00000000000E+00 -0.12973151452E+03  0.12973151452E+03  0.00000000000E+00 0. -1.
         23    2    1    2    0    0  0.19253230325E+02  0.45552809186E+02  0.44090437004E+02  0.13573589848E+03  0.11846738875E+03 0.  0.
          5    1    3    3  502    0  0.54643666597E+02  0.41107728289E+02 -0.11520233661E+02  0.69502384189E+02  0.47000000000E+01 0. -1.
         -5    1    3    3    0  502 -0.35390436272E+02  0.44450808970E+01  0.55610670665E+02  0.66233514292E+02  0.47000000000E+01 0.  1.
        -11    1    1    2    0    0  0.24674207581E+02 -0.58835567174E+02 -0.25053941381E+02  0.68542982596E+02  0.00000000000E+00 0. -1.
         11    1    1    2    0    0 -0.43927437907E+02  0.13282757987E+02 -0.22922547617E+02  0.51298095969E+02  0.00000000000E+00 0.  1.
<mgrwt>
<rscale>  0 0.12346124E+03</rscale>
<asrwt>0</asrwt>
<pdfrwt beam="2">  1        2 0.19958695E-01 0.12837549E+03</pdfrwt>
<pdfrwt beam="1">  1       -2 0.19360840E-01 0.12837549E+03</pdfrwt>
<totfact> 0.58604201E+03</totfact>
</mgrwt>
</event>
<event>
 7    1  0.4230786E-006  0.1551628E+03  0.7546771E-02  0.1203462E+00
         -3   -1    0    0    0  501 -0.00000000000E+00  0.00000000000E+00  0.67333867500E+02  0.67333867500E+02  0.00000000000E+00 0.  1.
          3   -1    0    0  501    0  0.00000000000E+00 -0.00000000000E+00 -0.41316299586E+03  0.41316299586E+03  0.00000000000E+00 0. -1.
         23    2    1    2    0    0 -0.85961420427E+02  0.32567949400E+02 -0.57586570512E+02  0.16550443845E+03  0.12500187564E+03 0.  0.
          5    1    3    3  502    0  0.77113144449E+01  0.47887314862E+01 -0.66500158144E+02  0.67281181269E+02  0.47000000000E+01 0.  1.
         -5    1    3    3    0  502 -0.93672734871E+02  0.27779217913E+02  0.89135876319E+01  0.98223257178E+02  0.47000000000E+01 0.  1.
        -11    1    1    2    0    0  0.17249887231E+02 -0.37162587681E+02 -0.19394852562E+03  0.19822877471E+03  0.00000000000E+00 0. -1.
         11    1    1    2    0    0  0.68711533195E+02  0.45946382816E+01 -0.94294032227E+02  0.11676365020E+03  0.00000000000E+00 0.  1.
<mgrwt>
<rscale>  0 0.14759335E+03</rscale>
<asrwt>0</asrwt>
<pdfrwt beam="2">  1        3 0.63563539E-01 0.15516284E+03</pdfrwt>
<pdfrwt beam="1">  1       -3 0.10359056E-01 0.15516284E+03</pdfrwt>
<totfact> 0.40199883E+02</totfact>
</mgrwt>
</event>
<event>
 7    1  0.4230786E-006  0.1409451E+03  0.7546771E-02  0.1223281E+00
         -1   -1    0    0    0  501 -0.00000000000E+00  0.00000000000E+00  0.39276931727E+02  0.39276931727E+02  0.00000000000E+00 0. -1.
          1   -1    0    0  501    0  0.00000000000E+00 -0.00000000000E+00 -0.63280690058E+03  0.63280690058E+03  0.00000000000E+00 0.  1.
         23    2    1    2    0    0 -0.47399807044E+02  0.44688506559E+02 -0.11832825749E+03  0.18403018602E+03  0.12498691339E+03 0.  0.
          5    1    3    3  502    0  0.26764788349E+02 -0.94757274911E+01  0.59916713290E+01  0.29396146553E+02  0.47000000000E+01 0.  1.
         -5    1    3    3    0  502 -0.74164595393E+02  0.54164234050E+02 -0.12431992882E+03  0.15463403947E+03  0.47000000000E+01 0.  1.
        -11    1    1    2    0    0 -0.27224129139E+02 -0.12183851495E+02 -0.12157103809E+03  0.12517634261E+03  0.00000000000E+00 0. -1.
         11    1    1    2    0    0  0.74623936183E+02 -0.32504655064E+02 -0.35363067327E+03  0.36287730368E+03  0.00000000000E+00 0.  1.
<mgrwt>
<rscale>  0 0.13285452E+03</rscale>
<asrwt>0</asrwt>
<pdfrwt beam="2">  1        1 0.97354897E-01 0.14094514E+03</pdfrwt>
<pdfrwt beam="1">  1       -1 0.60426055E-02 0.14094514E+03</pdfrwt>
<totfact> 0.41937003E+03</totfact>
</mgrwt>
</event>
<event>
 6    1  0.4230786E-006  0.2349685E+03  0.7546771E-02  0.1128537E+00
         -2   -1    0    0    0  501 -0.00000000000E+00  0.00000000000E+00  0.81402303148E+02  0.81402303148E+02  0.00000000000E+00 0.  1.
          2   -1    0    0  501    0  0.00000000000E+00 -0.00000000000E+00 -0.11845463303E+04  0.11845463303E+04  0.00000000000E+00 0. -1.
          5    1    1    2  502    0 -0.49632274007E+00  0.22329790282E+02  0.79271889087E+01  0.24161874810E+02  0.47000000000E+01 0. -1.
         -5    1    1    2    0  502 -0.11172029765E+03 -0.16852856236E+03 -0.13247650131E+03  0.24177554598E+03  0.47000000000E+01 0.  1.
        -11    1    1    2    0    0  0.12066000421E+03  0.12328012390E+03 -0.92717409385E+03  0.94308463346E+03  0.00000000000E+00 0. -1.
         11    1    1    2    0    0 -0.84433838214E+01  0.22918648178E+02 -0.51420620883E+02  0.56926579176E+02  0.00000000000E+00 0.  1.
<mgrwt>
<rscale>  0 0.22732419E+03</rscale>
<asrwt>0</asrwt>
<pdfrwt beam="2">  1        2 0.18223789E+00 0.23496847E+03</pdfrwt>
<pdfrwt beam="1">  1       -2 0.12523432E-01 0.23496847E+03</pdfrwt>
<totfact> 0.94438333E+02</totfact>
</mgrwt>
</event>
<event>
 7    1  0.4230786E-006  0.1479064E+03  0.7546771E-02  0.1209609E+00
         -2   -1    0    0    0  501 -0.00000000000E+00  0.00000000000E+00  0.48495932510E+02  0.48495932510E+02  0.00000000000E+00 0.  1.
          2   -1    0    0  501    0  0.00000000000E+00 -0.00000000000E+00 -0.39978971113E+03  0.39978971113E+03  0.00000000000E+00 0. -1.
         23    2    1    2    0    0  0.67989282044E+02  0.40350912173E+02 -0.21492419114E+03  0.26089981850E+03  0.12500227506E+03 0.  0.
          5    1    3    3  502    0 -0.93477571389E+01  0.54280042950E+02 -0.37508486677E+02  0.66803294821E+02  0.47000000000E+01 0.  1.
         -5    1    3    3    0  502  0.77337039183E+02 -0.13929130777E+02 -0.17741570446E+03  0.19409652368E+03  0.47000000000E+01 0.  1.
        -11    1    1    2    0    0 -0.36584019306E+02 -0.40427873915E+02 -0.14491995128E+03  0.15483732023E+03  0.00000000000E+00 0. -1.
         11    1    1    2    0    0 -0.31405262738E+02  0.76961742371E-01  0.85503637986E+01  0.32548504909E+02  0.00000000000E+00 0.  1.
<mgrwt>
<rscale>  0 0.14280090E+03</rscale>
<asrwt>0</asrwt>
<pdfrwt beam="2">  1        2 0.61506109E-01 0.14790641E+03</pdfrwt>
<pdfrwt beam="1">  1       -2 0.74609127E-02 0.14790641E+03</pdfrwt>
<totfact> 0.80757838E+03</totfact>
</mgrwt>
</event>
<event>
 7    1  0.4230786E-006  0.2475746E+03  0.7546771E-02  0.1117376E+00
          1   -1    0    0  501    0  0.00000000000E+00  0.00000000000E+00  0.76004882302E+03  0.76004882302E+03  0.00000000000E+00 0. -1.
         -1   -1    0    0    0  501 -0.00000000000E+00 -0.00000000000E+00 -0.87540882686E+02  0.87540882686E+02  0.00000000000E+00 0.  1.
         23    2    1    2    0    0 -0.14302744611E+02  0.21322209204E+03  0.19001516387E+03  0.31208806515E+03  0.12499987550E+03 0.  0.
          5    1    3    3  502    0  0.19847231128E+02  0.13940645969E+02  0.76017099796E+02  0.79930867972E+02  0.47000000000E+01 0. -1.
         -5    1    3    3    0  502 -0.34149975738E+02  0.19928144607E+03  0.11399806407E+03  0.23215719718E+03  0.47000000000E+01 0. -1.
        -11    1    1    2    0    0  0.38268659409E+02 -0.13940818527E+03  0.38262614228E+03  0.40902554586E+03  0.00000000000E+00 0.  1.
         11    1    1    2    0    0 -0.23965914798E+02 -0.73813906765E+02  0.99866634196E+02  0.12647609470E+03  0.00000000000E+00 0. -1.
<mgrwt>
<rscale>  0 0.24366398E+03</rscale>
<asrwt>0</asrwt>
<pdfrwt beam="1">  1        1 0.11693058E+00 0.24757463E+03</pdfrwt>
<pdfrwt beam="2">  1       -1 0.13467829E-01 0.24757463E+03</pdfrwt>
<totfact> 0.95364366E+02</totfact>
</mgrwt>
</event>
<event>
 7    1  0.4230786E-006  0.1590053E+03  0.7546771E-02  0.1198010E+00
          2   -1    0    0  501    0  0.00000000000E+00  0.00000000000E+00  0.52647598731E+02  0.52647598731E+02  0.00000000000E+00 0. -1.
         -2   -1    0    0    0  501 -0.00000000000E+00 -0.00000000000E+00 -0.45874304419E+03  0.45874304419E+03  0.00000000000E+00 0.  1.
         23    2    1    2    0    0 -0.93795976622E+02  0.29329416752E+02 -0.30669243399E+03  0.34546044951E+03  0.12499909276E+03 0.  0.
          5    1    3    3  502    0 -0.73792125940E+02  0.16995203539E+01 -0.30174057002E+03  0.31067286302E+03  0.47000000000E+01 0.  1.
         -5    1    3    3    0  502 -0.20003850682E+02  0.27629896398E+02 -0.49518639683E+01  0.34787586490E+02  0.47000000000E+01 0.  1.
        -11    1    1    2    0    0  0.55263030601E+02  0.19914034362E+02 -0.14531013154E+02  0.60512161250E+02  0.00000000000E+00 0. -1.
         11    1    1    2    0    0  0.38532946021E+02 -0.49243451114E+02 -0.84871998312E+02  0.10541803216E+03  0.00000000000E+00 0.  1.
<mgrwt>
<rscale>  0 0.15202236E+03</rscale>
<asrwt>0</asrwt>
<pdfrwt beam="1">  1        2 0.80996303E-02 0.15900526E+03</pdfrwt>
<pdfrwt beam="2">  1       -2 0.70575856E-01 0.15900526E+03</pdfrwt>
<totfact> 0.15308962E+03</totfact>
</mgrwt>
</event>
<event>
 7    1  0.4230786E-006  0.2811944E+03  0.7546771E-02  0.1096725E+00
         -2   -1    0    0    0  501 -0.00000000000E+00  0.00000000000E+00  0.75344428223E+02  0.75344428223E+02  0.00000000000E+00 0.  1.
          2   -1    0    0  501    0  0.00000000000E+00 -0.00000000000E+00 -0.10084742205E+04  0.10084742205E+04  0.00000000000E+00 0. -1.
         23    2    1    2    0    0 -0.42898263775E+02 -0.24820333885E+03 -0.51013622063E+03  0.58250257970E+03  0.12500053322E+03 0.  0.
          5    1    3    3  502    0 -0.64064889359E+02 -0.23717051442E+03 -0.49799052074E+03  0.55531145469E+03  0.47000000000E+01 0.  1.
         -5    1    3    3    0  502  0.21166625584E+02 -0.11032824432E+02 -0.12145699885E+02  0.27191125009E+02  0.47000000000E+01 0.  1.
        -11    1    1    2    0    0  0.25896668979E+02  0.12630358147E+03 -0.30359601739E+03  0.32983901215E+03  0.00000000000E+00 0. -1.
         11    1    1    2    0    0  0.17001594796E+02  0.12189975738E+03 -0.11939755427E+03  0.17147705690E+03  0.00000000000E+00 0.  1.
<mgrwt>
<rscale>  0 0.27811090E+03</rscale>
<asrwt>0</asrwt>
<pdfrwt beam="2">  1        2 0.15514989E+00 0.28119440E+03</pdfrwt>
<pdfrwt beam="1">  1       -2 0.11591450E-01 0.28119440E+03</pdfrwt>
<totfact> 0.13574007E+03</totfact>
</mgrwt>
</event>
<event>
 7    1  0.4230786E-006  0.1514343E+03  0.7546771E-02  0.1207772E+00
         -2   -1    0    0    0  501 -0.00000000000E+00  0.00000000000E+00  0.31535709284E+02  0.31535709284E+02  0.00000000000E+00 0.  1.
          2   -1    0    0  501    0  0.00000000000E+00 -0.00000000000E+00 -0.61040149526E+03  0.61040149526E+03  0.00000000000E+00 0. -1.
         23    2    1    2    0    0 -0.41651774962E+02 -0.74617138670E+02 -0.28410177014E+03  0.32194124697E+03  0.12501905040E+03 0.  0.
          5    1    3    3  502    0  0.71685167968E+01 -0.26902198312E+02 -0.23745397384E+03  0.23912673544E+03  0.47000000000E+01 0.  1.
         -5    1    3    3    0  502 -0.48820291759E+02 -0.47714940358E+02 -0.46647796292E+02  0.82814511528E+02  0.47000000000E+01 0.  1.
        -11    1    1    2    0    0  0.39797307194E+02  0.91511703567E+02 -0.28078165753E+03  0.29798751107E+03  0.00000000000E+00 0.  1.
         11    1    1    2    0    0  0.18544677684E+01 -0.16894564897E+02 -0.13982358318E+02  0.22008446513E+02  0.00000000000E+00 0. -1.
<mgrwt>
<rscale>  0 0.14421162E+03</rscale>
<asrwt>0</asrwt>
<pdfrwt beam="2">  1        2 0.93907918E-01 0.15143431E+03</pdfrwt>
<pdfrwt beam="1">  1       -2 0.48516478E-02 0.15143431E+03</pdfrwt>
<totfact> 0.97573319E+03</totfact>
</mgrwt>
</event>
<event>
 7    1  0.4230786E-006  0.1427035E+03  0.7546771E-02  0.1218829E+00
         -1   -1    0    0    0  501 -0.00000000000E+00  0.00000000000E+00  0.11414923542E+03  0.11414923542E+03  0.00000000000E+00 0.  1.
          1   -1    0    0  501    0  0.00000000000E+00 -0.00000000000E+00 -0.15508172990E+03  0.15508172990E+03  0.00000000000E+00 0. -1.
         23    2    1    2    0    0 -0.14482296161E+02  0.67305162319E+02  0.52692106760E+01  0.14280070674E+03  0.12499822193E+03 0.  0.
          5    1    3    3  502    0  0.52722596624E+02  0.17598988328E+02  0.16877885553E+02  0.58278208669E+02  0.47000000000E+01 0.  1.
         -5    1    3    3    0  502 -0.67204892784E+02  0.49706173991E+02 -0.11608674877E+02  0.84522498067E+02  0.47000000000E+01 0.  1.
        -11    1    1    2    0    0  0.27207182192E+02 -0.81504315306E+02 -0.58311264489E+02  0.10384309193E+03  0.00000000000E+00 0. -1.
         11    1    1    2    0    0 -0.12724886032E+02  0.14199152987E+02  0.12109559337E+02  0.22587166653E+02  0.00000000000E+00 0.  1.
<mgrwt>
<rscale>  0 0.13599005E+03</rscale>
<asrwt>0</asrwt>
<pdfrwt beam="2">  1        1 0.23858728E-01 0.14270346E+03</pdfrwt>
<pdfrwt beam="1">  1       -1 0.17561421E-01 0.14270346E+03</pdfrwt>
<totfact> 0.48574544E+03</totfact>
</mgrwt>
</event>
<event>
 7    1  0.4230786E-006  0.1323095E+03  0.7546771E-02  0.1237315E+00
         -2   -1    0    0    0  501 -0.00000000000E+00  0.00000000000E+00  0.74581306707E+02  0.74581306707E+02  0.00000000000E+00 0.  1.
          2   -1    0    0  501    0  0.00000000000E+00 -0.00000000000E+00 -0.21415156005E+03  0.21415156005E+03  0.00000000000E+00 0. -1.
         23    2    1    2    0    0  0.38960935320E+02 -0.19095382782E+02 -0.22301675270E+02  0.13417590997E+03  0.12499288769E+03 0.  0.
          5    1    3    3  502    0 -0.26644057849E+02  0.23638731598E+02  0.23893054265E+02  0.43146998648E+02  0.47000000000E+01 0. -1.
         -5    1    3    3    0  502  0.65604993169E+02 -0.42734114380E+02 -0.46194729535E+02  0.91028911327E+02  0.47000000000E+01 0. -1.
        -11    1    1    2    0    0 -0.38215276181E+02 -0.14499054512E+01 -0.28970489888E+01  0.38352346111E+02  0.00000000000E+00 0.  1.
         11    1    1    2    0    0 -0.74565913880E+00  0.20545288233E+02 -0.11437152909E+03  0.11620461067E+03  0.00000000000E+00 0. -1.
<mgrwt>
<rscale>  0 0.12357377E+03</rscale>
<asrwt>0</asrwt>
<pdfrwt beam="2">  1        2 0.32946394E-01 0.13230952E+03</pdfrwt>
<pdfrwt beam="1">  1       -2 0.11474047E-01 0.13230952E+03</pdfrwt>
<totfact> 0.79520801E+03</totfact>
</mgrwt>
</event>
<event>
 7    1  0.4230786E-006  0.1375773E+03  0.7546771E-02  0.1228239E+00
          2   -1    0    0  501    0  0.00000000000E+00  0.00000000000E+00  0.61557873463E+03  0.61557873463E+03  0.00000000000E+00 0. -1.
         -2   -1    0    0    0  501 -0.00000000000E+00 -0.00000000000E+00 -0.24668760823E+02  0.24668760823E+02  0.00000000000E+00 0.  1.
         23    2    1    2    0    0  0.54023199699E+02 -0.19634258951E+02  0.30276170518E+03  0.33255401450E+03  0.12499404869E+03 0.  0.
          5    1    3    3  502    0 -0.15309948595E+02  0.13602042276E+02  0.91357919312E+00  0.21031754729E+02  0.47000000000E+01 0. -1.
         -5    1    3    3    0  502  0.69333148293E+02 -0.33236301228E+02  0.30184812599E+03  0.31152225978E+03  0.47000000000E+01 0. -1.
        -11    1    1    2    0    0 -0.74971522974E+02  0.19434818830E+02  0.26667440754E+03  0.27769350204E+03  0.00000000000E+00 0. -1.
         11    1    1    2    0    0  0.20948323276E+02  0.19944012096E+00  0.21473861079E+02  0.29999978901E+02  0.00000000000E+00 0.  1.
<mgrwt>
<rscale>  0 0.12947371E+03</rscale>
<asrwt>0</asrwt>
<pdfrwt beam="1">  1        2 0.94704409E-01 0.13757733E+03</pdfrwt>
<pdfrwt beam="2">  1       -2 0.37951945E-02 0.13757733E+03</pdfrwt>
<totfact> 0.13852972E+04</totfact>
</mgrwt>
</event>
<event>
 7    1  0.4230786E-006  0.1310779E+03  0.7546771E-02  0.1241544E+00
          2   -1    0    0  501    0  0.00000000000E+00  0.00000000000E+00  0.14255272708E+03  0.14255272708E+03  0.00000000000E+00 0. -1.
         -2   -1    0    0    0  501 -0.00000000000E+00 -0.00000000000E+00 -0.89667270887E+02  0.89667270887E+02  0.00000000000E+00 0.  1.
         23    2    1    2    0    0  0.16179168519E+02  0.35978604735E+02  0.28898682762E+02  0.13422573247E+03  0.12500075159E+03 0.  0.
          5    1    3    3  502    0  0.25824368811E+02 -0.42084340265E+02  0.24463684963E+02  0.55304173459E+02  0.47000000000E+01 0. -1.
         -5    1    3    3    0  502 -0.96452002921E+01  0.78062945000E+02  0.44349977985E+01  0.78921559008E+02  0.47000000000E+01 0. -1.
        -11    1    1    2    0    0 -0.42140444146E+02 -0.14486587105E+02  0.40721795419E+02  0.60365079814E+02  0.00000000000E+00 0. -1.
         11    1    1    2    0    0  0.25961275627E+02 -0.21492017630E+02 -0.16735021992E+02  0.37629185682E+02  0.00000000000E+00 0.  1.
<mgrwt>
<rscale>  0 0.12094644E+03</rscale>
<asrwt>0</asrwt>
<pdfrwt beam="1">  1        2 0.21931189E-01 0.13107789E+03</pdfrwt>
<pdfrwt beam="2">  1       -2 0.13794965E-01 0.13107789E+03</pdfrwt>
<totfact> 0.92329182E+03</totfact>
</mgrwt>
</event>
<event>
 7    1  0.4230786E-006  0.1366100E+03  0.7546771E-02  0.1230071E+00
         -1   -1    0    0    0  501 -0.00000000000E+00  0.00000000000E+00  0.31901069809E+02  0.31901069809E+02  0.00000000000E+00 0.  1.
          1   -1    0    0  501    0  0.00000000000E+00 -0.00000000000E+00 -0.47967474187E+03  0.47967474187E+03  0.00000000000E+00 0. -1.
         23    2    1    2    0    0 -0.19885953867E+02 -0.51393487010E+02 -0.20187827002E+03  0.24375626769E+03  0.12500216183E+03 0.  0.
          5    1    3    3  502    0 -0.38188169389E+02  0.25422756383E+02 -0.12586857329E+03  0.13405088797E+03  0.47000000000E+01 0.  1.
         -5    1    3    3    0  502  0.18302215522E+02 -0.76816243392E+02 -0.76009696731E+02  0.10970537972E+03  0.47000000000E+01 0.  1.
        -11    1    1    2    0    0 -0.31190614785E+02  0.24686682655E+02 -0.15632861691E+03  0.16131002206E+03  0.00000000000E+00 0.  1.
         11    1    1    2    0    0  0.51076568652E+02  0.26706804354E+02 -0.89566785128E+02  0.10650952193E+03  0.00000000000E+00 0. -1.
<mgrwt>
<rscale>  0 0.12825296E+03</rscale>
<asrwt>0</asrwt>
<pdfrwt beam="2">  1        1 0.73796111E-01 0.13660996E+03</pdfrwt>
<pdfrwt beam="1">  1       -1 0.49078571E-02 0.13660996E+03</pdfrwt>
<totfact> 0.82532176E+03</totfact>
</mgrwt>
</event>
<event>
 7    1  0.4230786E-006  0.2616834E+03  0.7546771E-02  0.1108358E+00
         -2   -1    0    0    0  501 -0.00000000000E+00  0.00000000000E+00  0.65961469385E+02  0.65961469385E+02  0.00000000000E+00 0.  1.
          2   -1    0    0  501    0  0.00000000000E+00 -0.00000000000E+00 -0.10138045767E+04  0.10138045767E+04  0.00000000000E+00 0. -1.
         23    2    1    2    0    0 -0.16015626330E+03  0.16493145625E+03 -0.39068235904E+03  0.47022431218E+03  0.12500313661E+03 0.  0.
          5    1    3    3  502    0 -0.12502750612E+03  0.39307808913E+02 -0.19792783038E+03  0.23743314252E+03  0.47000000000E+01 0.  1.
         -5    1    3    3    0  502 -0.35128757177E+02  0.12562364733E+03 -0.19275452866E+03  0.23279116965E+03  0.47000000000E+01 0.  1.
        -11    1    1    2    0    0  0.48811874128E+02 -0.11497123867E+03 -0.26763793857E+03  0.29534903240E+03  0.00000000000E+00 0.  1.
         11    1    1    2    0    0  0.11134438917E+03 -0.49960217579E+02 -0.28952280966E+03  0.31419270146E+03  0.00000000000E+00 0. -1.
<mgrwt>
<rscale>  0 0.25798761E+03</rscale>
<asrwt>0</asrwt>
<pdfrwt beam="2">  1        2 0.15596992E+00 0.26168339E+03</pdfrwt>
<pdfrwt beam="1">  1       -2 0.10147919E-01 0.26168339E+03</pdfrwt>
<totfact> 0.16684695E+03</totfact>
</mgrwt>
</event>
<event>
 7    1  0.4230786E-006  0.1451995E+03  0.7546771E-02  0.1215407E+00
         -3   -1    0    0    0  501 -0.00000000000E+00  0.00000000000E+00  0.18126434726E+02  0.18126434726E+02  0.00000000000E+00 0.  1.
          3   -1    0    0  501    0  0.00000000000E+00 -0.00000000000E+00 -0.10375771415E+04  0.10375771415E+04  0.00000000000E+00 0. -1.
         23    2    1    2    0    0 -0.71251208117E+02  0.26197810093E+02 -0.42134216760E+03  0.44565919956E+03  0.12377334139E+03 0.  0.
          5    1    3    3  502    0  0.11980338686E+02 -0.36277381269E+02 -0.80090108255E+02  0.88859959189E+02  0.47000000000E+01 0. -1.
         -5    1    3    3    0  502 -0.83231546803E+02  0.62475191362E+02 -0.34125205935E+03  0.35679924037E+03  0.47000000000E+01 0.  1.
        -11    1    1    2    0    0  0.46296460310E+02 -0.61247932530E+02 -0.40294715688E+03  0.41019639529E+03  0.00000000000E+00 0. -1.
         11    1    1    2    0    0  0.24954747807E+02  0.35050122437E+02 -0.19516138230E+03  0.19984798138E+03  0.00000000000E+00 0.  1.
<mgrwt>
<rscale>  0 0.13846682E+03</rscale>
<asrwt>0</asrwt>
<pdfrwt beam="2">  1        3 0.15962723E+00 0.14519952E+03</pdfrwt>
<pdfrwt beam="1">  1       -3 0.27886827E-02 0.14519952E+03</pdfrwt>
<totfact> 0.39431797E+02</totfact>
</mgrwt>
</event>
<event>
 7    1  0.4230786E-006  0.1738554E+03  0.7546771E-02  0.1180509E+00
         -2   -1    0    0    0  501 -0.00000000000E+00  0.00000000000E+00  0.16117668738E+03  0.16117668738E+03  0.00000000000E+00 0.  1.
          2   -1    0    0  501    0  0.00000000000E+00 -0.00000000000E+00 -0.20554025716E+03  0.20554025716E+03  0.00000000000E+00 0. -1.
         23    2    1    2    0    0  0.62211950910E+02 -0.10359122686E+03  0.60349308290E+02  0.18403189616E+03  0.12499692266E+03 0.  0.
          5    1    3    3  502    0  0.59860664257E+02 -0.46663885600E+01  0.59934756115E+02  0.84966695229E+02  0.47000000000E+01 0.  1.
         -5    1    3    3    0  502  0.23512866530E+01 -0.98924838304E+02  0.41455217453E+00  0.99065200933E+02  0.47000000000E+01 0.  1.
        -11    1    1    2    0    0 -0.29897459287E+02  0.53234746915E+02 -0.10657252669E+03  0.12282304261E+03  0.00000000000E+00 0.  1.
         11    1    1    2    0    0 -0.32314491623E+02  0.50356479949E+02  0.18596486105E+01  0.59862005769E+02  0.00000000000E+00 0. -1.
<mgrwt>
<rscale>  0 0.16747271E+03</rscale>
<asrwt>0</asrwt>
<pdfrwt beam="2">  1        2 0.31621578E-01 0.17385540E+03</pdfrwt>
<pdfrwt beam="1">  1       -2 0.24796414E-01 0.17385540E+03</pdfrwt>
<totfact> 0.23408229E+03</totfact>
</mgrwt>
</event>
<event>
 7    1  0.7616590E-006  0.2007856E+03  0.7546771E-02  0.1152270E+00
         -1   -1    0    0    0  501 -0.00000000000E+00  0.00000000000E+00  0.13690905023E+03  0.13690905023E+03  0.00000000000E+00 0.  1.
          1   -1    0    0  501    0  0.00000000000E+00 -0.00000000000E+00 -0.30561326828E+03  0.30561326828E+03  0.00000000000E+00 0. -1.
         23    2    1    2    0    0  0.23109849138E+02  0.15542132926E+03 -0.15446108706E+02  0.20137887865E+03  0.12500006310E+03 0.  0.
          5    1    3    3  502    0 -0.51822273330E+02  0.63305865170E+02 -0.67605282566E+01  0.82225150169E+02  0.47000000000E+01 0.  1.
         -5    1    3    3    0  502  0.74932122468E+02  0.92115464091E+02 -0.86855804492E+01  0.11915372848E+03  0.47000000000E+01 0.  1.
        -11    1    1    2    0    0  0.38748242732E+02 -0.47897085270E+02 -0.59498236983E+02  0.85648101533E+02  0.00000000000E+00 0. -1.
         11    1    1    2    0    0 -0.61858091870E+02 -0.10752424399E+03 -0.93759872370E+02  0.15549533833E+03  0.00000000000E+00 0.  1.
<mgrwt>
<rscale>  0 0.19702954E+03</rscale>
<asrwt>0</asrwt>
<pdfrwt beam="2">  1        1 0.47017426E-01 0.20078563E+03</pdfrwt>
<pdfrwt beam="1">  1       -1 0.21062931E-01 0.20078563E+03</pdfrwt>
<totfact> 0.15736929E+03</totfact>
</mgrwt>
</event>
<event>
 7    1  0.4230786E-006  0.1391441E+03  0.7546771E-02  0.1226128E+00
          2   -1    0    0  501    0  0.00000000000E+00  0.00000000000E+00  0.20914417825E+03  0.20914417825E+03  0.00000000000E+00 0. -1.
         -2   -1    0    0    0  501 -0.00000000000E+00 -0.00000000000E+00 -0.73960487982E+02  0.73960487982E+02  0.00000000000E+00 0.  1.
         23    2    1    2    0    0 -0.50119817898E+02  0.34973576349E+02  0.65864615939E+02  0.15394552985E+03  0.12500372530E+03 0.  0.
          5    1    3    3  502    0 -0.17384949818E+02  0.67441399917E+02 -0.42107341229E+01  0.69931389123E+02  0.47000000000E+01 0. -1.
         -5    1    3    3    0  502 -0.32734868080E+02 -0.32467823568E+02  0.70075350062E+02  0.84014140725E+02  0.47000000000E+01 0. -1.
        -11    1    1    2    0    0  0.67751344359E+02 -0.45937981773E+02  0.34951010078E+02  0.89006269089E+02  0.00000000000E+00 0.  1.
         11    1    1    2    0    0 -0.17631526460E+02  0.10964405424E+02  0.34368064255E+02  0.40152867298E+02  0.00000000000E+00 0. -1.
<mgrwt>
<rscale>  0 0.13089911E+03</rscale>
<asrwt>0</asrwt>
<pdfrwt beam="1">  1        2 0.32176027E-01 0.13914409E+03</pdfrwt>
<pdfrwt beam="2">  1       -2 0.11378537E-01 0.13914409E+03</pdfrwt>
<totfact> 0.82958365E+03</totfact>
</mgrwt>
</event>
<event>
 7    1  0.4230786E-006  0.1323075E+03  0.7546771E-02  0.1236799E+00
         -1   -1    0    0    0  501 -0.00000000000E+00  0.00000000000E+00  0.16549241622E+03  0.16549241622E+03  0.00000000000E+00 0.  1.
          1   -1    0    0  501    0  0.00000000000E+00 -0.00000000000E+00 -0.87673661588E+02  0.87673661588E+02  0.00000000000E+00 0. -1.
         23    2    1    2    0    0 -0.33291405562E+02  0.27783568396E+02  0.73442024977E+02  0.15132417722E+03  0.12500012489E+03 0.  0.
          5    1    3    3  502    0 -0.34998861291E+02 -0.45540497543E+02  0.42389625940E+02  0.71538993531E+02  0.47000000000E+01 0. -1.
         -5    1    3    3    0  502  0.17074557296E+01  0.73324065939E+02  0.31052399037E+02  0.79785183692E+02  0.47000000000E+01 0. -1.
        -11    1    1    2    0    0  0.15545344382E+02 -0.86715578708E+01 -0.43678087554E+02  0.47165972695E+02  0.00000000000E+00 0. -1.
         11    1    1    2    0    0  0.17746061179E+02 -0.19112010525E+02  0.48054817211E+02  0.54675927892E+02  0.00000000000E+00 0.  1.
<mgrwt>
<rscale>  0 0.12389952E+03</rscale>
<asrwt>0</asrwt>
<pdfrwt beam="2">  1        1 0.13488256E-01 0.13230750E+03</pdfrwt>
<pdfrwt beam="1">  1       -1 0.25460372E-01 0.13230750E+03</pdfrwt>
<totfact> 0.55074444E+03</totfact>
</mgrwt>
</event>
<event>
 7    1  0.4230786E-006  0.1549960E+03  0.7546771E-02  0.1203393E+00
         -2   -1    0    0    0  501 -0.00000000000E+00  0.00000000000E+00  0.16842871184E+03  0.16842871184E+03  0.00000000000E+00 0.  1.
          2   -1    0    0  501    0  0.00000000000E+00 -0.00000000000E+00 -0.33347589735E+03  0.33347589735E+03  0.00000000000E+00 0. -1.
         23    2    1    2    0    0  0.60968182892E+01 -0.91440353850E+02  0.11576046766E+03  0.19345348701E+03  0.12500102502E+03 0.  0.
          5    1    3    3  502    0 -0.45102782305E+02 -0.50093128547E+01  0.84764877491E+01  0.46403610113E+02  0.47000000000E+01 0.  1.
         -5    1    3    3    0  502  0.51199600595E+02 -0.86431040995E+02  0.10728397991E+03  0.14704987689E+03  0.47000000000E+01 0.  1.
        -11    1    1    2    0    0 -0.45824813870E+02  0.64472988049E+02 -0.18786674707E+03  0.20383962914E+03  0.00000000000E+00 0.  1.
         11    1    1    2    0    0  0.39727995581E+02  0.26967365801E+02 -0.92940906101E+02  0.10461149305E+03  0.00000000000E+00 0. -1.
<mgrwt>
<rscale>  0 0.14764806E+03</rscale>
<asrwt>0</asrwt>
<pdfrwt beam="2">  1        2 0.51303984E-01 0.15499602E+03</pdfrwt>
<pdfrwt beam="1">  1       -2 0.25912110E-01 0.15499602E+03</pdfrwt>
<totfact> 0.12854538E+03</totfact>
</mgrwt>
</event>
<event>
 7    1  0.4230786E-006  0.1463229E+03  0.7546771E-02  0.1215292E+00
         -2   -1    0    0    0  501 -0.00000000000E+00  0.00000000000E+00  0.15714371155E+03  0.15714371155E+03  0.00000000000E+00 0.  1.
          2   -1    0    0  501    0  0.00000000000E+00 -0.00000000000E+00 -0.11123850425E+03  0.11123850425E+03  0.00000000000E+00 0. -1.
         23    2    1    2    0    0  0.76055403285E+02 -0.83858712570E+00  0.17414885497E+02  0.14735556112E+03  0.12500102223E+03 0.  0.
          5    1    3    3  502    0 -0.12808512324E+02  0.41668145290E+02 -0.10053059564E+02  0.44982733648E+02  0.47000000000E+01 0. -1.
         -5    1    3    3    0  502  0.88863915609E+02 -0.42506732415E+02  0.27467945061E+02  0.10237282747E+03  0.47000000000E+01 0. -1.
        -11    1    1    2    0    0 -0.84374056887E+02 -0.26918755008E+02  0.19481280452E+02  0.90681426626E+02  0.00000000000E+00 0. -1.
         11    1    1    2    0    0  0.83186536023E+01  0.27757342134E+02  0.90090413443E+01  0.30345228061E+02  0.00000000000E+00 0.  1.
<mgrwt>
<rscale>  0 0.13855095E+03</rscale>
<asrwt>0</asrwt>
<pdfrwt beam="2">  1        2 0.17113616E-01 0.14632287E+03</pdfrwt>
<pdfrwt beam="1">  1       -2 0.24175956E-01 0.14632287E+03</pdfrwt>
<totfact> 0.48182600E+03</totfact>
</mgrwt>
</event>
<event>
 7    1  0.4230786E-006  0.1314897E+03  0.7546771E-02  0.1239150E+00
         -3   -1    0    0    0  501 -0.00000000000E+00  0.00000000000E+00  0.74994244829E+02  0.74994244829E+02  0.00000000000E+00 0.  1.
          3   -1    0    0  501    0  0.00000000000E+00 -0.00000000000E+00 -0.17706385415E+03  0.17706385415E+03  0.00000000000E+00 0. -1.
         23    2    1    2    0    0  0.14676555588E+02  0.38054678312E+02 -0.53511922526E+02  0.14196151053E+03  0.12500393912E+03 0.  0.
          5    1    3    3  502    0 -0.85011948828E+01 -0.37045490040E+02 -0.50220148720E+02  0.63156883902E+02  0.47000000000E+01 0. -1.
         -5    1    3    3    0  502  0.23177750471E+02  0.75100168352E+02 -0.32917738057E+01  0.78804626629E+02  0.47000000000E+01 0. -1.
        -11    1    1    2    0    0 -0.13964026094E+02  0.84834709001E+01  0.20873795201E+02  0.26508086113E+02  0.00000000000E+00 0.  1.
         11    1    1    2    0    0 -0.71252949415E+00 -0.46538149212E+02 -0.69431481995E+02  0.83588502334E+02  0.00000000000E+00 0. -1.
<mgrwt>
<rscale>  0 0.12242469E+03</rscale>
<asrwt>0</asrwt>
<pdfrwt beam="2">  1        3 0.27240593E-01 0.13148971E+03</pdfrwt>
<pdfrwt beam="1">  1       -3 0.11537576E-01 0.13148971E+03</pdfrwt>
<totfact> 0.17019928E+03</totfact>
</mgrwt>
</event>
<event>
 7    1  0.4230786E-006  0.1961766E+03  0.7546771E-02  0.1157654E+00
          2   -1    0    0  501    0  0.00000000000E+00  0.00000000000E+00  0.18393935706E+03  0.18393935706E+03  0.00000000000E+00 0. -1.
         -2   -1    0    0    0  501 -0.00000000000E+00 -0.00000000000E+00 -0.18891673384E+03  0.18891673384E+03  0.00000000000E+00 0.  1.
         23    2    1    2    0    0 -0.11047079365E+03  0.10323503570E+03 -0.14397946378E+02  0.19670420309E+03  0.12499589516E+03 0.  0.
          5    1    3    3  502    0 -0.69865529645E+02  0.80820802080E+02 -0.67176371149E+02  0.12628518964E+03  0.47000000000E+01 0. -1.
         -5    1    3    3    0  502 -0.40605264010E+02  0.22414233619E+02  0.52778424771E+02  0.70419013450E+02  0.47000000000E+01 0. -1.
        -11    1    1    2    0    0  0.10843133392E+03 -0.69913745895E+02 -0.21325244539E+02  0.13076716750E+03  0.00000000000E+00 0.  1.
         11    1    1    2    0    0  0.20394597314E+01 -0.33321289804E+02  0.30745814144E+02  0.45384720310E+02  0.00000000000E+00 0. -1.
<mgrwt>
<rscale>  0 0.19089813E+03</rscale>
<asrwt>0</asrwt>
<pdfrwt beam="1">  1        2 0.28298363E-01 0.19617656E+03</pdfrwt>
<pdfrwt beam="2">  1       -2 0.29064113E-01 0.19617656E+03</pdfrwt>
<totfact> 0.20018659E+03</totfact>
</mgrwt>
</event>
<event>
 7    1  0.4230786E-006  0.1263492E+03  0.7546771E-02  0.1247727E+00
          1   -1    0    0  501    0  0.00000000000E+00  0.00000000000E+00  0.25727054596E+03  0.25727054596E+03  0.00000000000E+00 0. -1.
         -1   -1    0    0    0  501 -0.00000000000E+00 -0.00000000000E+00 -0.47420546628E+02  0.47420546628E+02  0.00000000000E+00 0.  1.
         23    2    1    2    0    0 -0.13739011014E+02  0.12237660891E+02  0.13398607696E+03  0.18416405910E+03  0.12500244429E+03 0.  0.
          5    1    3    3  502    0 -0.52415592961E+01  0.72143604954E+01  0.15771541477E+03  0.15803722030E+03  0.47000000000E+01 0. -1.
         -5    1    3    3    0  502 -0.84974517175E+01  0.50233003957E+01 -0.23729337818E+02  0.26126838803E+02  0.47000000000E+01 0. -1.
        -11    1    1    2    0    0 -0.21747389767E+02 -0.25372422112E+02  0.75633655332E+02  0.82687112565E+02  0.00000000000E+00 0. -1.
         11    1    1    2    0    0  0.35486400780E+02  0.13134761221E+02  0.23026704396E+00  0.37839920924E+02  0.00000000000E+00 0.  1.
<mgrwt>
<rscale>  0 0.11723662E+03</rscale>
<asrwt>0</asrwt>
<pdfrwt beam="1">  1        1 0.39580083E-01 0.12634925E+03</pdfrwt>
<pdfrwt beam="2">  1       -1 0.72954689E-02 0.12634925E+03</pdfrwt>
<totfact> 0.99204322E+03</totfact>
</mgrwt>
</event>
<event>
 7    1  0.4230786E-006  0.1306305E+03  0.7546771E-02  0.1240274E+00
          2   -1    0    0  501    0  0.00000000000E+00  0.00000000000E+00  0.24976761295E+03  0.24976761295E+03  0.00000000000E+00 0. -1.
         -2   -1    0    0    0  501 -0.00000000000E+00 -0.00000000000E+00 -0.79080271191E+02  0.79080271191E+02  0.00000000000E+00 0.  1.
         23    2    1    2    0    0  0.37849132928E+02  0.26943075007E+01 -0.13181276001E+01  0.13063718846E+03  0.12499808555E+03 0.  0.
          5    1    3    3  502    0  0.22318352173E+02 -0.57522609049E+02 -0.20830190262E+02  0.65291241540E+02  0.47000000000E+01 0. -1.
         -5    1    3    3    0  502  0.15530780755E+02  0.60216916550E+02  0.19512062662E+02  0.65345946921E+02  0.47000000000E+01 0. -1.
        -11    1    1    2    0    0  0.62720153412E+01 -0.33010195751E+02  0.25351208491E+02  0.42091507123E+02  0.00000000000E+00 0.  1.
         11    1    1    2    0    0 -0.44121148269E+02  0.30315888250E+02  0.14665426087E+03  0.15611918855E+03  0.00000000000E+00 0. -1.
<mgrwt>
<rscale>  0 0.12172757E+03</rscale>
<asrwt>0</asrwt>
<pdfrwt beam="1">  1        2 0.38425786E-01 0.13063054E+03</pdfrwt>
<pdfrwt beam="2">  1       -2 0.12166196E-01 0.13063054E+03</pdfrwt>
<totfact> 0.61394089E+03</totfact>
</mgrwt>
</event>
<event>
 7    1  0.4230786E-006  0.2201626E+03  0.7546771E-02  0.1135841E+00
          2   -1    0    0  501    0  0.00000000000E+00  0.00000000000E+00  0.81120957116E+03  0.81120957116E+03  0.00000000000E+00 0. -1.
         -2   -1    0    0    0  501 -0.00000000000E+00 -0.00000000000E+00 -0.67029861515E+02  0.67029861515E+02  0.00000000000E+00 0.  1.
         23    2    1    2    0    0 -0.12436651602E+03 -0.13184736477E+03  0.20890380217E+03  0.30350018285E+03  0.12498321698E+03 0.  0.
          5    1    3    3  502    0 -0.34959150859E+02  0.56640828482E+01  0.10094805726E+03  0.10708325886E+03  0.47000000000E+01 0. -1.
         -5    1    3    3    0  502 -0.89407365160E+02 -0.13751144762E+03  0.10795574491E+03  0.19641692399E+03  0.47000000000E+01 0. -1.
        -11    1    1    2    0    0  0.33688159266E+02  0.55523878261E+02  0.73896455732E+02  0.98379262558E+02  0.00000000000E+00 0.  1.
         11    1    1    2    0    0  0.90678356753E+02  0.76323486512E+02  0.46137945174E+03  0.47635998726E+03  0.00000000000E+00 0. -1.
<mgrwt>
<rscale>  0 0.21739421E+03</rscale>
<asrwt>0</asrwt>
<pdfrwt beam="1">  1        2 0.12480147E+00 0.22016258E+03</pdfrwt>
<pdfrwt beam="2">  1       -2 0.10312287E-01 0.22016258E+03</pdfrwt>
<totfact> 0.21918849E+03</totfact>
</mgrwt>
</event>
<event>
 7    1  0.4230786E-006  0.1691879E+03  0.7546771E-02  0.1185418E+00
         -1   -1    0    0    0  501 -0.00000000000E+00  0.00000000000E+00  0.41762866329E+02  0.41762866329E+02  0.00000000000E+00 0.  1.
          1   -1    0    0  501    0  0.00000000000E+00 -0.00000000000E+00 -0.59299751007E+03  0.59299751007E+03  0.00000000000E+00 0. -1.
         23    2    1    2    0    0  0.10170590173E+03 -0.51511158317E+02 -0.29842509938E+03  0.34304824250E+03  0.12500826717E+03 0.  0.
          5    1    3    3  502    0 -0.70858945584E+01 -0.48406551609E+02 -0.42773573145E+02  0.65154222426E+02  0.47000000000E+01 0. -1.
         -5    1    3    3    0  502  0.10879179629E+03 -0.31046067076E+01 -0.25565152624E+03  0.27789402007E+03  0.47000000000E+01 0. -1.
        -11    1    1    2    0    0 -0.39524500940E+02  0.10912408421E+02 -0.16828861532E+02  0.44322425617E+02  0.00000000000E+00 0.  1.
         11    1    1    2    0    0 -0.62181400794E+02  0.40598749896E+02 -0.23598068282E+03  0.24738970828E+03  0.00000000000E+00 0. -1.
<mgrwt>
<rscale>  0 0.16293945E+03</rscale>
<asrwt>0</asrwt>
<pdfrwt beam="2">  1        1 0.91230392E-01 0.16918793E+03</pdfrwt>
<pdfrwt beam="1">  1       -1 0.64250560E-02 0.16918793E+03</pdfrwt>
<totfact> 0.42155577E+03</totfact>
</mgrwt>
</event>
<event>
 7    1  0.4230786E-006  0.1287479E+03  0.7546771E-02  0.1242969E+00
          1   -1    0    0  501    0  0.00000000000E+00  0.00000000000E+00  0.66902076844E+03  0.66902076844E+03  0.00000000000E+00 0. -1.
         -1   -1    0    0    0  501 -0.00000000000E+00 -0.00000000000E+00 -0.19692004666E+02  0.19692004666E+02  0.00000000000E+00 0.  1.
         23    2    1    2    0    0  0.30704646838E+02 -0.21932140606E+01  0.30986171754E+03  0.33554480626E+03  0.12501378918E+03 0.  0.
          5    1    3    3  502    0 -0.31355098140E+02  0.22786064581E+01  0.23908947297E+03  0.24119328414E+03  0.47000000000E+01 0. -1.
         -5    1    3    3    0  502  0.62059744978E+02 -0.44718205187E+01  0.70772244573E+02  0.94351522126E+02  0.47000000000E+01 0. -1.
        -11    1    1    2    0    0  0.26165221932E+02  0.24565064422E+02  0.14167509625E+03  0.14615024504E+03  0.00000000000E+00 0.  1.
         11    1    1    2    0    0 -0.56869868770E+02 -0.22371850361E+02  0.19779194998E+03  0.20701772180E+03  0.00000000000E+00 0. -1.
<mgrwt>
<rscale>  0 0.12007760E+03</rscale>
<asrwt>0</asrwt>
<pdfrwt beam="1">  1        1 0.10292625E+00 0.12874794E+03</pdfrwt>
<pdfrwt beam="2">  1       -1 0.30295397E-02 0.12874794E+03</pdfrwt>
<totfact> 0.10666155E+04</totfact>
</mgrwt>
</event>
<event>
 7    1  0.4230786E-006  0.1260889E+03  0.7546771E-02  0.1248414E+00
          2   -1    0    0  501    0  0.00000000000E+00  0.00000000000E+00  0.25907572204E+02  0.25907572204E+02  0.00000000000E+00 0. -1.
         -2   -1    0    0    0  501 -0.00000000000E+00 -0.00000000000E+00 -0.46898747809E+03  0.46898747809E+03  0.00000000000E+00 0.  1.
         23    2    1    2    0    0  0.76994239243E+01  0.14618836170E+02 -0.22690773531E+03  0.25958724948E+03  0.12500171299E+03 0.  0.
          5    1    3    3  502    0  0.38494855992E+02  0.18000323789E+02 -0.14900301062E+02  0.45276644819E+02  0.47000000000E+01 0.  1.
         -5    1    3    3    0  502 -0.30795432068E+02 -0.33814876196E+01 -0.21200743425E+03  0.21431060466E+03  0.47000000000E+01 0.  1.
        -11    1    1    2    0    0  0.38497988552E+02 -0.24597123131E+02 -0.10588927750E+03  0.11532412011E+03  0.00000000000E+00 0.  1.
         11    1    1    2    0    0 -0.46197412476E+02  0.99782869610E+01 -0.11028289308E+03  0.11998368071E+03  0.00000000000E+00 0. -1.
<mgrwt>
<rscale>  0 0.11683364E+03</rscale>
<asrwt>0</asrwt>
<pdfrwt beam="1">  1        2 0.39857803E-02 0.12608894E+03</pdfrwt>
<pdfrwt beam="2">  1       -2 0.72151921E-01 0.12608894E+03</pdfrwt>
<totfact> 0.36018320E+03</totfact>
</mgrwt>
</event>
<event>
 7    1  0.4230786E-006  0.1284240E+03  0.7546771E-02  0.1243853E+00
         -2   -1    0    0    0  501 -0.00000000000E+00  0.00000000000E+00  0.40688305591E+02  0.40688305591E+02  0.00000000000E+00 0.  1.
          2   -1    0    0  501    0  0.00000000000E+00 -0.00000000000E+00 -0.32239366205E+03  0.32239366205E+03  0.00000000000E+00 0. -1.
         23    2    1    2    0    0  0.22043312095E+02 -0.19672724892E+02 -0.12581116357E+03  0.17978088171E+03  0.12497916962E+03 0.  0.
          5    1    3    3  502    0 -0.44003613154E+02  0.18367588440E+02 -0.71514769154E+02  0.86082161234E+02  0.47000000000E+01 0.  1.
         -5    1    3    3    0  502  0.66046925249E+02 -0.38040313332E+02 -0.54296394413E+02  0.93698720479E+02  0.47000000000E+01 0.  1.
        -11    1    1    2    0    0 -0.50615700372E+02  0.88650818061E+01 -0.45093421332E+02  0.68366332701E+02  0.00000000000E+00 0.  1.
         11    1    1    2    0    0  0.28572388277E+02  0.10807643086E+02 -0.11080077156E+03  0.11493475322E+03  0.00000000000E+00 0. -1.
<mgrwt>
<rscale>  0 0.11954276E+03</rscale>
<asrwt>0</asrwt>
<pdfrwt beam="2">  1        2 0.49599023E-01 0.12842397E+03</pdfrwt>
<pdfrwt beam="1">  1       -2 0.62597396E-02 0.12842397E+03</pdfrwt>
<totfact> 0.13143127E+04</totfact>
</mgrwt>
</event>
<event>
 7    1  0.4230786E-006  0.2261330E+03  0.7546771E-02  0.1132443E+00
          2   -1    0    0  501    0  0.00000000000E+00  0.00000000000E+00  0.16329635291E+03  0.16329635291E+03  0.00000000000E+00 0. -1.
         -2   -1    0    0    0  501 -0.00000000000E+00 -0.00000000000E+00 -0.29238086538E+03  0.29238086538E+03  0.00000000000E+00 0.  1.
         23    2    1    2    0    0  0.12727388947E+03 -0.13897322270E+03 -0.82684700812E+02  0.24077558595E+03  0.12499569382E+03 0.  0.
          5    1    3    3  502    0  0.65207773079E+02 -0.10529149077E+03 -0.10921687992E+03  0.16519312504E+03  0.47000000000E+01 0.  1.
         -5    1    3    3    0  502  0.62066116394E+02 -0.33681731932E+02  0.26532179112E+02  0.75582460919E+02  0.47000000000E+01 0.  1.
        -11    1    1    2    0    0 -0.11398153094E+03  0.11784086141E+03 -0.72075338153E+02  0.17908967693E+03  0.00000000000E+00 0.  1.
         11    1    1    2    0    0 -0.13292358536E+02  0.21132361289E+02  0.25675526496E+02  0.35811955405E+02  0.00000000000E+00 0. -1.
<mgrwt>
<rscale>  0 0.22194288E+03</rscale>
<asrwt>0</asrwt>
<pdfrwt beam="1">  1        2 0.25122516E-01 0.22613298E+03</pdfrwt>
<pdfrwt beam="2">  1       -2 0.44981671E-01 0.22613298E+03</pdfrwt>
<totfact> 0.10110653E+03</totfact>
</mgrwt>
</event>
<event>
 7    1  0.4230786E-006  0.1404579E+03  0.7546771E-02  0.1214600E+00
          1   -1    0    0  501    0  0.00000000000E+00  0.00000000000E+00  0.12172310603E+03  0.12172310603E+03  0.00000000000E+00 0. -1.
         -1   -1    0    0    0  501 -0.00000000000E+00 -0.00000000000E+00 -0.17729355378E+03  0.17729355378E+03  0.00000000000E+00 0.  1.
         23    2    1    2    0    0 -0.51259867409E+02 -0.38399520974E+02 -0.80346345372E+02  0.16181457389E+03  0.12500529545E+03 0.  0.
          5    1    3    3  502    0 -0.24741561946E+01  0.12648922662E+02  0.28704242300E+02  0.31814151244E+02  0.47000000000E+01 0. -1.
         -5    1    3    3    0  502 -0.48785711214E+02 -0.51048443636E+02 -0.10905058767E+03  0.13000042265E+03  0.47000000000E+01 0. -1.
        -11    1    1    2    0    0  0.30069149840E+02  0.35713689873E+01  0.70027761425E+02  0.76294140133E+02  0.00000000000E+00 0. -1.
         11    1    1    2    0    0  0.21190717569E+02  0.34828151987E+02 -0.45251863806E+02  0.60907945786E+02  0.00000000000E+00 0.  1.
<mgrwt>
<rscale>  0 0.13905931E+03</rscale>
<asrwt>0</asrwt>
<pdfrwt beam="1">  1        1 0.18726632E-01 0.14045790E+03</pdfrwt>
<pdfrwt beam="2">  1       -1 0.27275931E-01 0.14045790E+03</pdfrwt>
<totfact> 0.32299756E+03</totfact>
</mgrwt>
</event>
<event>
 7    1  0.4230786E-006  0.1494184E+03  0.7546771E-02  0.1210702E+00
         -2   -1    0    0    0  501 -0.00000000000E+00  0.00000000000E+00  0.28549767007E+02  0.28549767007E+02  0.00000000000E+00 0.  1.
          2   -1    0    0  501    0  0.00000000000E+00 -0.00000000000E+00 -0.64914350999E+03  0.64914350999E+03  0.00000000000E+00 0. -1.
         23    2    1    2    0    0 -0.68492158305E+02 -0.44535494199E+02 -0.31178461803E+03  0.34573906365E+03  0.12510502027E+03 0.  0.
          5    1    3    3  502    0 -0.68964676477E+02  0.21501240360E+02 -0.97344222248E+02  0.12131124245E+03  0.47000000000E+01 0.  1.
         -5    1    3    3    0  502  0.47251817215E+00 -0.66036734558E+02 -0.21444039579E+03  0.22442782120E+03  0.47000000000E+01 0.  1.
        -11    1    1    2    0    0  0.54125941950E+02  0.64129281203E+02 -0.28796055352E+03  0.29993909829E+03  0.00000000000E+00 0. -1.
         11    1    1    2    0    0  0.14366216354E+02 -0.19593787005E+02 -0.20848571420E+02  0.32015115052E+02  0.00000000000E+00 0.  1.
<mgrwt>
<rscale>  0 0.14197033E+03</rscale>
<asrwt>0</asrwt>
<pdfrwt beam="2">  1        2 0.99868229E-01 0.14941838E+03</pdfrwt>
<pdfrwt beam="1">  1       -2 0.43922720E-02 0.14941838E+03</pdfrwt>
<totfact> 0.10539900E+04</totfact>
</mgrwt>
</event>
<event>
 7    1  0.4230786E-006  0.1499757E+03  0.7546771E-02  0.1209358E+00
         -3   -1    0    0    0  501 -0.00000000000E+00  0.00000000000E+00  0.20205095755E+03  0.20205095755E+03  0.00000000000E+00 0.  1.
          3   -1    0    0  501    0  0.00000000000E+00 -0.00000000000E+00 -0.93265634054E+02  0.93265634054E+02  0.00000000000E+00 0. -1.
         23    2    1    2    0    0  0.66442182626E+02  0.49534160665E+02  0.49500260487E+02  0.15793347650E+03  0.12499804201E+03 0.  0.
          5    1    3    3  502    0  0.26876832449E+02 -0.34809398472E+02  0.47115338880E+02  0.64622004783E+02  0.47000000000E+01 0.  1.
         -5    1    3    3    0  502  0.39565350177E+02  0.84343559137E+02  0.23849216078E+01  0.93311471715E+02  0.47000000000E+01 0.  1.
        -11    1    1    2    0    0 -0.23481937715E+02  0.44645228304E+00  0.67027902146E+02  0.71023519939E+02  0.00000000000E+00 0.  1.
         11    1    1    2    0    0 -0.42960244910E+02 -0.49980612948E+02 -0.77428391328E+01  0.66359595170E+02  0.00000000000E+00 0. -1.
<mgrwt>
<rscale>  0 0.14299223E+03</rscale>
<asrwt>0</asrwt>
<pdfrwt beam="2">  1        3 0.14348559E-01 0.14997569E+03</pdfrwt>
<pdfrwt beam="1">  1       -3 0.31084763E-01 0.14997569E+03</pdfrwt>
<totfact> 0.94299854E+02</totfact>
</mgrwt>
</event>
<event>
 7    1  0.4230786E-006  0.1467346E+03  0.7546771E-02  0.1214628E+00
         -1   -1    0    0    0  501 -0.00000000000E+00  0.00000000000E+00  0.81660510707E+02  0.81660510707E+02  0.00000000000E+00 0.  1.
          1   -1    0    0  501    0  0.00000000000E+00 -0.00000000000E+00 -0.21514625578E+03  0.21514625578E+03  0.00000000000E+00 0. -1.
         23    2    1    2    0    0 -0.48137040753E+02  0.59926324408E+02 -0.70453972639E+02  0.16277225345E+03  0.12499082040E+03 0.  0.
          5    1    3    3  502    0 -0.85832884776E+02  0.17546908057E+02 -0.55895430877E+02  0.10402676235E+03  0.47000000000E+01 0. -1.
         -5    1    3    3    0  502  0.37695844023E+02  0.42379416351E+02 -0.14558541762E+02  0.58745491104E+02  0.47000000000E+01 0. -1.
        -11    1    1    2    0    0 -0.11181100973E+02  0.49418883691E+01  0.12977204495E+02  0.17828267334E+02  0.00000000000E+00 0.  1.
         11    1    1    2    0    0  0.59318141726E+02 -0.64868212777E+02 -0.76008976929E+02  0.11620624570E+03  0.00000000000E+00 0. -1.
<mgrwt>
<rscale>  0 0.13903859E+03</rscale>
<asrwt>0</asrwt>
<pdfrwt beam="2">  1        1 0.33099424E-01 0.14673460E+03</pdfrwt>
<pdfrwt beam="1">  1       -1 0.12563156E-01 0.14673460E+03</pdfrwt>
<totfact> 0.54647397E+03</totfact>
</mgrwt>
</event>
<event>
 7    1  0.4230786E-006  0.1568583E+03  0.7546771E-02  0.1199760E+00
         -1   -1    0    0    0  501 -0.00000000000E+00  0.00000000000E+00  0.10018363428E+03  0.10018363428E+03  0.00000000000E+00 0.  1.
          1   -1    0    0  501    0  0.00000000000E+00 -0.00000000000E+00 -0.25410515866E+03  0.25410515866E+03  0.00000000000E+00 0. -1.
         23    2    1    2    0    0  0.64925037005E+02 -0.69100427828E+02 -0.85249592213E+01  0.15708982972E+03  0.12495763328E+03 0.  0.
          5    1    3    3  502    0  0.89180442312E+02 -0.74455703222E+01  0.30595645437E+01  0.89666263129E+02  0.47000000000E+01 0. -1.
         -5    1    3    3    0  502 -0.24255405307E+02 -0.61654857505E+02 -0.11584523765E+02  0.67423566588E+02  0.47000000000E+01 0. -1.
        -11    1    1    2    0    0 -0.31409701446E+01  0.44325413927E+02 -0.11639567493E+03  0.12458957081E+03  0.00000000000E+00 0. -1.
         11    1    1    2    0    0 -0.61784066860E+02  0.24775013900E+02 -0.29000890226E+02  0.72609392405E+02  0.00000000000E+00 0.  1.
<mgrwt>
<rscale>  0 0.15058169E+03</rscale>
<asrwt>0</asrwt>
<pdfrwt beam="2">  1        1 0.39093100E-01 0.15685834E+03</pdfrwt>
<pdfrwt beam="1">  1       -1 0.15412867E-01 0.15685834E+03</pdfrwt>
<totfact> 0.32400513E+03</totfact>
</mgrwt>
</event>
<event>
 7    1  0.4230786E-006  0.1294226E+03  0.7546771E-02  0.1243706E+00
          1   -1    0    0  501    0  0.00000000000E+00  0.00000000000E+00  0.39055334254E+03  0.39055334254E+03  0.00000000000E+00 0. -1.
         -1   -1    0    0    0  501 -0.00000000000E+00 -0.00000000000E+00 -0.32375838632E+02  0.32375838632E+02  0.00000000000E+00 0.  1.
         23    2    1    2    0    0  0.26565518579E+02  0.20387004600E+02  0.18720449737E+03  0.22758674809E+03  0.12501538839E+03 0.  0.
          5    1    3    3  502    0 -0.85596315972E+00  0.43541278749E+02  0.77061310436E+01  0.44475274970E+02  0.47000000000E+01 0.  1.
         -5    1    3    3    0  502  0.27421481739E+02 -0.23154274149E+02  0.17949836633E+03  0.18311147312E+03  0.47000000000E+01 0.  1.
        -11    1    1    2    0    0  0.32113256243E+02 -0.13554710123E+02  0.73876408333E+02  0.81686688642E+02  0.00000000000E+00 0. -1.
         11    1    1    2    0    0 -0.58678774822E+02 -0.68322944766E+01  0.97096598200E+02  0.11365574444E+03  0.00000000000E+00 0.  1.
<mgrwt>
<rscale>  0 0.11963138E+03</rscale>
<asrwt>0</asrwt>
<pdfrwt beam="1">  1        1 0.60085126E-01 0.12942258E+03</pdfrwt>
<pdfrwt beam="2">  1       -1 0.49808985E-02 0.12942258E+03</pdfrwt>
<totfact> 0.10450463E+04</totfact>
</mgrwt>
</event>
<event>
 7    1  0.4230786E-006  0.1734450E+03  0.7546771E-02  0.1180483E+00
         -2   -1    0    0    0  501 -0.00000000000E+00  0.00000000000E+00  0.33228823256E+02  0.33228823256E+02  0.00000000000E+00 0.  1.
          2   -1    0    0  501    0  0.00000000000E+00 -0.00000000000E+00 -0.87831544787E+03  0.87831544787E+03  0.00000000000E+00 0. -1.
         23    2    1    2    0    0 -0.64572725471E+01 -0.12007082209E+03 -0.30587530901E+03  0.35162889174E+03  0.12499789660E+03 0.  0.
          5    1    3    3  502    0  0.20067345575E+02 -0.46369849101E+02 -0.18949942854E+02  0.54166886547E+02  0.47000000000E+01 0. -1.
         -5    1    3    3    0  502 -0.26524618122E+02 -0.73700972984E+02 -0.28692536616E+03  0.29746200519E+03  0.47000000000E+01 0. -1.
        -11    1    1    2    0    0 -0.32028364051E+02  0.10273085279E+03 -0.35621215635E+03  0.37211093044E+03  0.00000000000E+00 0.  1.
         11    1    1    2    0    0  0.38485636598E+02  0.17339969291E+02 -0.18299915925E+03  0.18780444895E+03  0.00000000000E+00 0. -1.
<mgrwt>
<rscale>  0 0.16749787E+03</rscale>
<asrwt>0</asrwt>
<pdfrwt beam="2">  1        2 0.13512542E+00 0.17344501E+03</pdfrwt>
<pdfrwt beam="1">  1       -2 0.51121278E-02 0.17344501E+03</pdfrwt>
<totfact> 0.58294461E+03</totfact>
</mgrwt>
</event>
<event>
 7    1  0.4230786E-006  0.1273303E+03  0.7546771E-02  0.1246367E+00
          4   -1    0    0  501    0  0.00000000000E+00  0.00000000000E+00  0.16907718735E+03  0.16907718735E+03  0.00000000000E+00 0.  1.
         -4   -1    0    0    0  501 -0.00000000000E+00 -0.00000000000E+00 -0.74206813834E+02  0.74206813834E+02  0.00000000000E+00 0. -1.
         23    2    1    2    0    0  0.24116352523E+02 -0.25572254685E+01  0.35939106291E+02  0.13230500885E+03  0.12499943258E+03 0.  0.
          5    1    3    3  502    0  0.53944595738E+02 -0.14704075194E+02  0.66947012458E+02  0.87351140311E+02  0.47000000000E+01 0. -1.
         -5    1    3    3    0  502 -0.29828243215E+02  0.12146849725E+02 -0.31007906167E+02  0.44953868537E+02  0.47000000000E+01 0. -1.
        -11    1    1    2    0    0 -0.14227598923E+02 -0.25029037340E+02 -0.14267798371E+02  0.32131718778E+02  0.00000000000E+00 0. -1.
         11    1    1    2    0    0 -0.98887536000E+01  0.27586262808E+02  0.73199065593E+02  0.78847273556E+02  0.00000000000E+00 0.  1.
<mgrwt>
<rscale>  0 0.11803924E+03</rscale>
<asrwt>0</asrwt>
<pdfrwt beam="1">  1        4 0.26011875E-01 0.12733026E+03</pdfrwt>
<pdfrwt beam="2">  1       -4 0.11416433E-01 0.12733026E+03</pdfrwt>
<totfact> 0.13681955E+03</totfact>
</mgrwt>
</event>
<event>
 7    1  0.4230786E-006  0.1287135E+03  0.7546771E-02  0.1243357E+00
         -2   -1    0    0    0  501 -0.00000000000E+00  0.00000000000E+00  0.39103408666E+02  0.39103408666E+02  0.00000000000E+00 0.  1.
          2   -1    0    0  501    0  0.00000000000E+00 -0.00000000000E+00 -0.33590144801E+03  0.33590144801E+03  0.00000000000E+00 0. -1.
         23    2    1    2    0    0  0.23710985903E+02  0.19499340615E+02 -0.13523104136E+03  0.18669384175E+03  0.12499888346E+03 0.  0.
          5    1    3    3  502    0  0.10106747387E+02  0.31079761925E+01 -0.15608630954E+03  0.15651463792E+03  0.47000000000E+01 0.  1.
         -5    1    3    3    0  502  0.13604238516E+02  0.16391364422E+02  0.20855268179E+02  0.30179203833E+02  0.47000000000E+01 0.  1.
        -11    1    1    2    0    0  0.10177024280E+02 -0.49759734666E+02 -0.94877831992E+02  0.10761694114E+03  0.00000000000E+00 0. -1.
         11    1    1    2    0    0 -0.33888010182E+02  0.30260394051E+02 -0.66689165997E+02  0.80694073783E+02  0.00000000000E+00 0.  1.
<mgrwt>
<rscale>  0 0.11984251E+03</rscale>
<asrwt>0</asrwt>
<pdfrwt beam="2">  1        2 0.51677145E-01 0.12871346E+03</pdfrwt>
<pdfrwt beam="1">  1       -2 0.60159091E-02 0.12871346E+03</pdfrwt>
<totfact> 0.13368211E+04</totfact>
</mgrwt>
</event>
<event>
 7    1  0.4230786E-006  0.1343835E+03  0.7546771E-02  0.1228971E+00
          3   -1    0    0  501    0  0.00000000000E+00  0.00000000000E+00  0.42730837954E+02  0.42730837954E+02  0.00000000000E+00 0. -1.
         -3   -1    0    0    0  501 -0.00000000000E+00 -0.00000000000E+00 -0.36294376445E+03  0.36294376445E+03  0.00000000000E+00 0.  1.
         23    2    1    2    0    0  0.30611401204E+02 -0.57470411229E+02 -0.15873161372E+03  0.20797755265E+03  0.11755437533E+03 0.  0.
          5    1    3    3  502    0  0.15560215321E+02 -0.49560783732E+02 -0.40739708514E+01  0.52317098768E+02  0.47000000000E+01 0. -1.
         -5    1    3    3    0  502  0.15051185883E+02 -0.79096274969E+01 -0.15465764287E+03  0.15566045388E+03  0.47000000000E+01 0.  1.
        -11    1    1    2    0    0 -0.35345487315E+02  0.80462998134E+02 -0.10763716737E+03  0.13895811362E+03  0.00000000000E+00 0.  1.
         11    1    1    2    0    0  0.47340861115E+01 -0.22992586905E+02 -0.53844145411E+02  0.58738936141E+02  0.00000000000E+00 0. -1.
<mgrwt>
<rscale>  0 0.12898390E+03</rscale>
<asrwt>0</asrwt>
<pdfrwt beam="1">  1        3 0.65739749E-02 0.13438355E+03</pdfrwt>
<pdfrwt beam="2">  1       -3 0.55837504E-01 0.13438355E+03</pdfrwt>
<totfact> 0.10792683E+03</totfact>
</mgrwt>
</event>
<event>
 7    1  0.4230786E-006  0.1258950E+03  0.7546771E-02  0.1249978E+00
         -3   -1    0    0    0  501 -0.00000000000E+00  0.00000000000E+00  0.11372861097E+03  0.11372861097E+03  0.00000000000E+00 0.  1.
          3   -1    0    0  501    0  0.00000000000E+00 -0.00000000000E+00 -0.26881498133E+03  0.26881498133E+03  0.00000000000E+00 0. -1.
         23    2    1    2    0    0 -0.12434538860E+02  0.83882690479E+01  0.67080077342E+02  0.14265088612E+03  0.12499823087E+03 0.  0.
          5    1    3    3  502    0  0.56279736994E+02  0.61888558895E+01  0.34023911586E+02  0.66222558792E+02  0.47000000000E+01 0.  1.
         -5    1    3    3    0  502 -0.68714275853E+02  0.21994131584E+01  0.33056165756E+02  0.76428327332E+02  0.47000000000E+01 0.  1.
        -11    1    1    2    0    0 -0.14491430123E+02 -0.28793595755E+02 -0.27663776499E+02  0.42477726325E+02  0.00000000000E+00 0.  1.
         11    1    1    2    0    0  0.26925968983E+02  0.20405326707E+02 -0.19450267120E+03  0.19741497985E+03  0.00000000000E+00 0. -1.
<mgrwt>
<rscale>  0 0.11592325E+03</rscale>
<asrwt>0</asrwt>
<pdfrwt beam="2">  1        3 0.41356150E-01 0.12589495E+03</pdfrwt>
<pdfrwt beam="1">  1       -3 0.17496710E-01 0.12589495E+03</pdfrwt>
<totfact> 0.38044599E+02</totfact>
</mgrwt>
</event>
<event>
 7    1  0.4230786E-006  0.1455360E+03  0.7546771E-02  0.1216069E+00
         -1   -1    0    0    0  501 -0.00000000000E+00  0.00000000000E+00  0.40712283535E+03  0.40712283535E+03  0.00000000000E+00 0.  1.
          1   -1    0    0  501    0  0.00000000000E+00 -0.00000000000E+00 -0.43672540516E+02  0.43672540516E+02  0.00000000000E+00 0. -1.
         23    2    1    2    0    0  0.56180421985E+02 -0.49043104429E+02  0.23697538858E+03  0.27809721608E+03  0.12497704146E+03 0.  0.
          5    1    3    3  502    0  0.31991967382E+02 -0.40687958175E+01  0.22241225072E+03  0.22478732248E+03  0.47000000000E+01 0.  1.
         -5    1    3    3    0  502  0.24188454603E+02 -0.44974308611E+02  0.14563137854E+02  0.53309893597E+02  0.47000000000E+01 0.  1.
        -11    1    1    2    0    0  0.13994415567E+02  0.42353384765E+02  0.32345693250E+02  0.55098972222E+02  0.00000000000E+00 0. -1.
         11    1    1    2    0    0 -0.70174837552E+02  0.66897196641E+01  0.94129213003E+02  0.11759918756E+03  0.00000000000E+00 0.  1.
<mgrwt>
<rscale>  0 0.13798304E+03</rscale>
<asrwt>0</asrwt>
<pdfrwt beam="2">  1        1 0.67188526E-02 0.14553600E+03</pdfrwt>
<pdfrwt beam="1">  1       -1 0.62634280E-01 0.14553600E+03</pdfrwt>
<totfact> 0.28607651E+03</totfact>
</mgrwt>
</event>
<event>
 7    1  0.4230786E-006  0.1616093E+03  0.7546771E-02  0.1193271E+00
         -1   -1    0    0    0  501 -0.00000000000E+00  0.00000000000E+00  0.34610399611E+03  0.34610399611E+03  0.00000000000E+00 0.  1.
          1   -1    0    0  501    0  0.00000000000E+00 -0.00000000000E+00 -0.66280768001E+02  0.66280768001E+02  0.00000000000E+00 0. -1.
         23    2    1    2    0    0 -0.32601383802E+02 -0.97137992191E+02  0.16592302499E+03  0.23162042229E+03  0.12497571783E+03 0.  0.
          5    1    3    3  502    0  0.32019914381E+02 -0.30670192346E+02  0.12008826113E+03  0.12809846243E+03  0.47000000000E+01 0.  1.
         -5    1    3    3    0  502 -0.64621298183E+02 -0.66467799845E+02  0.45834763862E+02  0.10352195986E+03  0.47000000000E+01 0.  1.
        -11    1    1    2    0    0  0.12236574775E+02  0.34026134837E+02  0.10834057739E+03  0.11421555202E+03  0.00000000000E+00 0.  1.
         11    1    1    2    0    0  0.20364809028E+02  0.63111857354E+02  0.55596257242E+01  0.66548789798E+02  0.00000000000E+00 0. -1.
<mgrwt>
<rscale>  0 0.15601449E+03</rscale>
<asrwt>0</asrwt>
<pdfrwt beam="2">  1        1 0.10197041E-01 0.16160931E+03</pdfrwt>
<pdfrwt beam="1">  1       -1 0.53246768E-01 0.16160931E+03</pdfrwt>
<totfact> 0.22308438E+03</totfact>
</mgrwt>
</event>
<event>
 7    1  0.4230786E-006  0.1393491E+03  0.7546771E-02  0.1225515E+00
          1   -1    0    0  501    0  0.00000000000E+00  0.00000000000E+00  0.78452507094E+03  0.78452507094E+03  0.00000000000E+00 0. -1.
         -1   -1    0    0    0  501 -0.00000000000E+00 -0.00000000000E+00 -0.20664459605E+02  0.20664459605E+02  0.00000000000E+00 0.  1.
         23    2    1    2    0    0  0.59729623562E+02 -0.14953513785E+02  0.34317651359E+03  0.37038939169E+03  0.12500778571E+03 0.  0.
          5    1    3    3  502    0 -0.16003737465E+02 -0.51634766110E+02  0.15427438197E+03  0.16353881379E+03  0.47000000000E+01 0.  1.
         -5    1    3    3    0  502  0.75733361027E+02  0.36681252325E+02  0.18890213162E+03  0.20685057790E+03  0.47000000000E+01 0.  1.
        -11    1    1    2    0    0 -0.31431428000E+02  0.51069791508E+02  0.17837398804E+03  0.18818431891E+03  0.00000000000E+00 0.  1.
         11    1    1    2    0    0 -0.28298195562E+02 -0.36116277724E+02  0.24231010970E+03  0.24661581995E+03  0.00000000000E+00 0. -1.
<mgrwt>
<rscale>  0 0.13131636E+03</rscale>
<asrwt>0</asrwt>
<pdfrwt beam="1">  1        1 0.12069614E+00 0.13934914E+03</pdfrwt>
<pdfrwt beam="2">  1       -1 0.31791482E-02 0.13934914E+03</pdfrwt>
<totfact> 0.79345520E+03</totfact>
</mgrwt>
</event>
<event>
 7    1  0.4230786E-006  0.1483687E+03  0.7546771E-02  0.1212561E+00
          1   -1    0    0  501    0  0.00000000000E+00  0.00000000000E+00  0.37061222669E+03  0.37061222669E+03  0.00000000000E+00 0. -1.
         -1   -1    0    0    0  501 -0.00000000000E+00 -0.00000000000E+00 -0.51660183688E+02  0.51660183688E+02  0.00000000000E+00 0.  1.
         23    2    1    2    0    0 -0.59032623528E+02 -0.53886866442E+02  0.12298006280E+03  0.19271055593E+03  0.12499847002E+03 0.  0.
          5    1    3    3  502    0  0.21512233529E+02 -0.62390670145E+02  0.66864741760E+02  0.94065698334E+02  0.47000000000E+01 0. -1.
         -5    1    3    3    0  502 -0.80544857057E+02  0.85038037023E+01  0.56115321036E+02  0.98644857598E+02  0.47000000000E+01 0. -1.
        -11    1    1    2    0    0 -0.24865851215E+01  0.57002269722E+02  0.80233536187E+02  0.98452334600E+02  0.00000000000E+00 0.  1.
         11    1    1    2    0    0  0.61519208649E+02 -0.31154032795E+01  0.11573844402E+03  0.13110951985E+03  0.00000000000E+00 0. -1.
<mgrwt>
<rscale>  0 0.14057221E+03</rscale>
<asrwt>0</asrwt>
<pdfrwt beam="1">  1        1 0.57017264E-01 0.14836867E+03</pdfrwt>
<pdfrwt beam="2">  1       -1 0.79477208E-02 0.14836867E+03</pdfrwt>
<totfact> 0.56038572E+03</totfact>
</mgrwt>
</event>
<event>
 7    1  0.4230786E-006  0.2158597E+03  0.7546771E-02  0.1140653E+00
          1   -1    0    0  501    0  0.00000000000E+00  0.00000000000E+00  0.36118000152E+03  0.36118000152E+03  0.00000000000E+00 0. -1.
         -1   -1    0    0    0  501 -0.00000000000E+00 -0.00000000000E+00 -0.12328390572E+03  0.12328390572E+03  0.00000000000E+00 0.  1.
         23    2    1    2    0    0 -0.13765550331E+03  0.10965012860E+03  0.17234781928E+03  0.27622309891E+03  0.12499296486E+03 0.  0.
          5    1    3    3  502    0 -0.42836490043E+02  0.33413722469E+02  0.13999646531E+03  0.15024161217E+03  0.47000000000E+01 0. -1.
         -5    1    3    3    0  502 -0.94819013270E+02  0.76236406136E+02  0.32351353975E+02  0.12598148674E+03  0.47000000000E+01 0. -1.
        -11    1    1    2    0    0  0.23364591746E+02 -0.51456725833E+02 -0.12807670544E+02  0.57945967984E+02  0.00000000000E+00 0.  1.
         11    1    1    2    0    0  0.11429091157E+03 -0.58193402772E+02  0.78355947067E+02  0.15029484034E+03  0.00000000000E+00 0. -1.
<mgrwt>
<rscale>  0 0.21115721E+03</rscale>
<asrwt>0</asrwt>
<pdfrwt beam="1">  1        1 0.55566154E-01 0.21585975E+03</pdfrwt>
<pdfrwt beam="2">  1       -1 0.18966755E-01 0.21585975E+03</pdfrwt>
<totfact> 0.15133526E+03</totfact>
</mgrwt>
</event>
<event>
 7    1  0.4230786E-006  0.2001431E+03  0.7546771E-02  0.1153844E+00
         -1   -1    0    0    0  501 -0.00000000000E+00  0.00000000000E+00  0.34631512522E+03  0.34631512522E+03  0.00000000000E+00 0.  1.
          1   -1    0    0  501    0  0.00000000000E+00 -0.00000000000E+00 -0.10641748431E+03  0.10641748431E+03  0.00000000000E+00 0. -1.
         23    2    1    2    0    0  0.13417649648E+03 -0.80178678607E+02  0.15248563825E+03  0.25161303001E+03  0.12500117715E+03 0.  0.
          5    1    3    3  502    0  0.72805303155E+02 -0.79565668063E+02  0.15628362693E+03  0.18994201681E+03  0.47000000000E+01 0. -1.
         -5    1    3    3    0  502  0.61371193323E+02 -0.61301054409E+00 -0.37979886837E+01  0.61671013206E+02  0.47000000000E+01 0. -1.
        -11    1    1    2    0    0 -0.59442740035E+02 -0.13835156052E+02  0.29443357189E+02  0.67762542518E+02  0.00000000000E+00 0.  1.
         11    1    1    2    0    0 -0.74733756443E+02  0.94013834660E+02  0.57968645478E+02  0.13335703700E+03  0.00000000000E+00 0. -1.
<mgrwt>
<rscale>  0 0.19521054E+03</rscale>
<asrwt>0</asrwt>
<pdfrwt beam="2">  1        1 0.16371921E-01 0.20014307E+03</pdfrwt>
<pdfrwt beam="1">  1       -1 0.53279249E-01 0.20014307E+03</pdfrwt>
<totfact> 0.12027017E+03</totfact>
</mgrwt>
</event>
<event>
 7    1  0.4230786E-006  0.1674711E+03  0.7546771E-02  0.1187229E+00
         -1   -1    0    0    0  501 -0.00000000000E+00  0.00000000000E+00  0.93058388444E+03  0.93058388444E+03  0.00000000000E+00 0.  1.
          1   -1    0    0  501    0  0.00000000000E+00 -0.00000000000E+00 -0.26216097476E+02  0.26216097476E+02  0.00000000000E+00 0. -1.
         23    2    1    2    0    0 -0.10548716592E+03 -0.35969775831E+02  0.51936509688E+03  0.54569834285E+03  0.12500084233E+03 0.  0.
          5    1    3    3  502    0 -0.15200617576E+02  0.42953955382E+02  0.18004612902E+03  0.18578159121E+03  0.47000000000E+01 0.  1.
         -5    1    3    3    0  502 -0.90286548341E+02 -0.78923731212E+02  0.33931896786E+03  0.35991675164E+03  0.47000000000E+01 0.  1.
        -11    1    1    2    0    0  0.95196790928E+02  0.61835213943E+02  0.33707501545E+03  0.35567624144E+03  0.00000000000E+00 0.  1.
         11    1    1    2    0    0  0.10290374989E+02 -0.25865438112E+02  0.47927674632E+02  0.55425397625E+02  0.00000000000E+00 0. -1.
<mgrwt>
<rscale>  0 0.16130732E+03</rscale>
<asrwt>0</asrwt>
<pdfrwt beam="2">  1        1 0.40332465E-02 0.16747112E+03</pdfrwt>
<pdfrwt beam="1">  1       -1 0.14316673E+00 0.16747112E+03</pdfrwt>
<totfact> 0.94894054E+02</totfact>
</mgrwt>
</event>
<event>
 7    1  0.4230786E-006  0.1574889E+03  0.7546771E-02  0.1199988E+00
         -1   -1    0    0    0  501 -0.00000000000E+00  0.00000000000E+00  0.36627361788E+02  0.36627361788E+02  0.00000000000E+00 0.  1.
          1   -1    0    0  501    0  0.00000000000E+00 -0.00000000000E+00 -0.68804713363E+03  0.68804713363E+03  0.00000000000E+00 0. -1.
         23    2    1    2    0    0 -0.54762808211E+02  0.78609850832E+02 -0.19957426075E+03  0.25422950172E+03  0.12499712068E+03 0.  0.
          5    1    3    3  502    0  0.40616675066E+02  0.23661944869E+02 -0.63471026465E+02  0.79121824605E+02  0.47000000000E+01 0. -1.
         -5    1    3    3    0  502 -0.95379483277E+02  0.54947905963E+02 -0.13610323429E+03  0.17510767711E+03  0.47000000000E+01 0. -1.
        -11    1    1    2    0    0  0.72808534041E+02 -0.39303037844E+02 -0.23017095596E+03  0.24459043395E+03  0.00000000000E+00 0.  1.
         11    1    1    2    0    0 -0.18045725830E+02 -0.39306812988E+02 -0.22167455513E+03  0.22585455975E+03  0.00000000000E+00 0. -1.
<mgrwt>
<rscale>  0 0.15039505E+03</rscale>
<asrwt>0</asrwt>
<pdfrwt beam="2">  1        1 0.10585340E+00 0.15748890E+03</pdfrwt>
<pdfrwt beam="1">  1       -1 0.56349792E-02 0.15748890E+03</pdfrwt>
<totfact> 0.41564721E+03</totfact>
</mgrwt>
</event>
<event>
 7    1  0.4230786E-006  0.1496917E+03  0.7546771E-02  0.1214417E+00
         -1   -1    0    0    0  501 -0.00000000000E+00  0.00000000000E+00  0.50615498420E+03  0.50615498420E+03  0.00000000000E+00 0. -1.
          1   -1    0    0  501    0  0.00000000000E+00 -0.00000000000E+00 -0.36291998572E+02  0.36291998572E+02  0.00000000000E+00 0.  1.
         23    2    1    2    0    0 -0.82044981045E+02  0.72702929974E+01  0.33686114826E+03  0.36862314587E+03  0.12499341739E+03 0.  0.
          5    1    3    3  502    0 -0.96642584690E+02 -0.24807920517E+02  0.30479108264E+03  0.32074119809E+03  0.47000000000E+01 0.  1.
         -5    1    3    3    0  502  0.14597603646E+02  0.32078213515E+02  0.32070065621E+02  0.47881947783E+02  0.47000000000E+01 0.  1.
        -11    1    1    2    0    0  0.71580545146E+01 -0.28194227472E+02  0.62188744523E+02  0.68655605397E+02  0.00000000000E+00 0. -1.
         11    1    1    2    0    0  0.74886926530E+02  0.20923934474E+02  0.70813092845E+02  0.10516823150E+03  0.00000000000E+00 0.  1.
<mgrwt>
<rscale>  0 0.13919429E+03</rscale>
<asrwt>0</asrwt>
<pdfrwt beam="2">  1        1 0.55833848E-02 0.14969165E+03</pdfrwt>
<pdfrwt beam="1">  1       -1 0.77869992E-01 0.14969165E+03</pdfrwt>
<totfact> 0.23961165E+03</totfact>
</mgrwt>
</event>
<event>
 7    1  0.4230786E-006  0.1295391E+03  0.7546771E-02  0.1242133E+00
          1   -1    0    0  501    0  0.00000000000E+00  0.00000000000E+00  0.54372517722E+03  0.54372517722E+03  0.00000000000E+00 0. -1.
         -1   -1    0    0    0  501 -0.00000000000E+00 -0.00000000000E+00 -0.24746659857E+02  0.24746659857E+02  0.00000000000E+00 0.  1.
         23    2    1    2    0    0 -0.33902857009E+02 -0.24506224674E+01  0.23560670570E+03  0.26886968614E+03  0.12499991638E+03 0.  0.
          5    1    3    3  502    0  0.11490552632E+02 -0.52108858073E+02  0.15371222862E+03  0.16277869983E+03  0.47000000000E+01 0. -1.
         -5    1    3    3    0  502 -0.45393409641E+02  0.49658235605E+02  0.81894477076E+02  0.10609098632E+03  0.47000000000E+01 0. -1.
        -11    1    1    2    0    0  0.52529188965E+02 -0.29352403528E+02  0.16530761551E+03  0.17591897860E+03  0.00000000000E+00 0. -1.
         11    1    1    2    0    0 -0.18626331955E+02  0.31803025996E+02  0.11806419616E+03  0.12368317234E+03  0.00000000000E+00 0.  1.
<mgrwt>
<rscale>  0 0.12058627E+03</rscale>
<asrwt>0</asrwt>
<pdfrwt beam="1">  1        1 0.83650018E-01 0.12953914E+03</pdfrwt>
<pdfrwt beam="2">  1       -1 0.38071789E-02 0.12953914E+03</pdfrwt>
<totfact> 0.10140630E+04</totfact>
</mgrwt>
</event>
<event>
 7    1  0.4230786E-006  0.1668745E+03  0.7546771E-02  0.1187608E+00
         -2   -1    0    0    0  501 -0.00000000000E+00  0.00000000000E+00  0.54530321506E+02  0.54530321506E+02  0.00000000000E+00 0.  1.
          2   -1    0    0  501    0  0.00000000000E+00 -0.00000000000E+00 -0.44444401356E+03  0.44444401356E+03  0.00000000000E+00 0. -1.
         23    2    1    2    0    0 -0.89045250660E+02  0.65537817548E+02 -0.20715917483E+03  0.26601130320E+03  0.12499130978E+03 0.  0.
          5    1    3    3  502    0 -0.70221958993E+01 -0.17543430323E+01 -0.14020124205E+03  0.14046660539E+03  0.47000000000E+01 0. -1.
         -5    1    3    3    0  502 -0.82023054761E+02  0.67292160580E+02 -0.66957932774E+02  0.12554469781E+03  0.47000000000E+01 0. -1.
        -11    1    1    2    0    0 -0.13134084200E+02 -0.48114695482E+01  0.11012841890E+01  0.14030938452E+02  0.00000000000E+00 0.  1.
         11    1    1    2    0    0  0.10217933486E+03 -0.60726347999E+02 -0.18385580142E+03  0.21893209342E+03  0.00000000000E+00 0. -1.
<mgrwt>
<rscale>  0 0.16096794E+03</rscale>
<asrwt>0</asrwt>
<pdfrwt beam="2">  1        2 0.68376004E-01 0.16687447E+03</pdfrwt>
<pdfrwt beam="1">  1       -2 0.83892800E-02 0.16687447E+03</pdfrwt>
<totfact> 0.60498511E+03</totfact>
</mgrwt>
</event>
<event>
 7    1  0.4230786E-006  0.1600478E+03  0.7546771E-02  0.1196236E+00
          2   -1    0    0  501    0  0.00000000000E+00  0.00000000000E+00  0.20472922103E+03  0.20472922103E+03  0.00000000000E+00 0. -1.
         -2   -1    0    0    0  501 -0.00000000000E+00 -0.00000000000E+00 -0.10911461326E+03  0.10911461326E+03  0.00000000000E+00 0.  1.
         23    2    1    2    0    0  0.70666012329E+02  0.70685653728E+02  0.75400812093E+02  0.17691967970E+03  0.12500057464E+03 0.  0.
          5    1    3    3  502    0 -0.22132155284E+01 -0.29195645913E+02  0.36892684363E+02  0.47333330991E+02  0.47000000000E+01 0.  1.
         -5    1    3    3    0  502  0.72879227858E+02  0.99881299641E+02  0.38508127730E+02  0.12958634871E+03  0.47000000000E+01 0.  1.
        -11    1    1    2    0    0 -0.36267965358E+02 -0.73089898920E+02 -0.19941882423E+02  0.83995102892E+02  0.00000000000E+00 0.  1.
         11    1    1    2    0    0 -0.34398046971E+02  0.24042451919E+01  0.40155678096E+02  0.52929051699E+02  0.00000000000E+00 0. -1.
<mgrwt>
<rscale>  0 0.15350094E+03</rscale>
<asrwt>0</asrwt>
<pdfrwt beam="1">  1        2 0.31496803E-01 0.16004778E+03</pdfrwt>
<pdfrwt beam="2">  1       -2 0.16786864E-01 0.16004778E+03</pdfrwt>
<totfact> 0.45551989E+03</totfact>
</mgrwt>
</event>
<event>
 7    1  0.4230786E-006  0.1316315E+03  0.7546771E-02  0.1238779E+00
          3   -1    0    0  501    0  0.00000000000E+00  0.00000000000E+00  0.87316376888E+02  0.87316376888E+02  0.00000000000E+00 0. -1.
         -3   -1    0    0    0  501 -0.00000000000E+00 -0.00000000000E+00 -0.19324796118E+03  0.19324796118E+03  0.00000000000E+00 0.  1.
         23    2    1    2    0    0  0.24084530492E+01  0.41171921645E+02 -0.12266500961E+03  0.17992650005E+03  0.12500365219E+03 0.  0.
          5    1    3    3  502    0 -0.57145205710E+02  0.38117232776E+02 -0.46512900755E+02  0.83090540417E+02  0.47000000000E+01 0.  1.
         -5    1    3    3    0  502  0.59553658759E+02  0.30546888691E+01 -0.76152108856E+02  0.96835959637E+02  0.47000000000E+01 0.  1.
        -11    1    1    2    0    0 -0.34251632756E+01  0.20742809388E+02 -0.19683644640E+02  0.28800030400E+02  0.00000000000E+00 0.  1.
         11    1    1    2    0    0  0.10167102264E+01 -0.61914731033E+02  0.36417069957E+02  0.71837807614E+02  0.00000000000E+00 0. -1.
<mgrwt>
<rscale>  0 0.12265580E+03</rscale>
<asrwt>0</asrwt>
<pdfrwt beam="1">  1        3 0.13433289E-01 0.13163146E+03</pdfrwt>
<pdfrwt beam="2">  1       -3 0.29730455E-01 0.13163146E+03</pdfrwt>
<totfact> 0.11226236E+03</totfact>
</mgrwt>
</event>
<event>
 7    1  0.4230786E-006  0.1349728E+03  0.7546771E-02  0.1232676E+00
          1   -1    0    0  501    0  0.00000000000E+00  0.00000000000E+00  0.66288527266E+02  0.66288527266E+02  0.00000000000E+00 0. -1.
         -1   -1    0    0    0  501 -0.00000000000E+00 -0.00000000000E+00 -0.28321376349E+03  0.28321376349E+03  0.00000000000E+00 0.  1.
         23    2    1    2    0    0 -0.48054824389E+02 -0.16829609811E+02 -0.20373159787E+03  0.24438541595E+03  0.12500066258E+03 0.  0.
          5    1    3    3  502    0 -0.11327881264E+02  0.53822928167E+02 -0.84197001079E+02  0.10067995571E+03  0.47000000000E+01 0.  1.
         -5    1    3    3    0  502 -0.36726943125E+02 -0.70652537978E+02 -0.11953459679E+03  0.14370546024E+03  0.47000000000E+01 0.  1.
        -11    1    1    2    0    0  0.21282932548E+02  0.77133437167E+01 -0.52222786703E+02  0.56918172319E+02  0.00000000000E+00 0.  1.
         11    1    1    2    0    0  0.26771891841E+02  0.91162660943E+01  0.39029148350E+02  0.48198702484E+02  0.00000000000E+00 0. -1.
<mgrwt>
<rscale>  0 0.12654380E+03</rscale>
<asrwt>0</asrwt>
<pdfrwt beam="1">  1        1 0.10198235E-01 0.13497284E+03</pdfrwt>
<pdfrwt beam="2">  1       -1 0.43571347E-01 0.13497284E+03</pdfrwt>
<totfact> 0.31831169E+03</totfact>
</mgrwt>
</event>
<event>
 7    1  0.4230786E-006  0.1658880E+03  0.7546771E-02  0.1190045E+00
         -1   -1    0    0    0  501 -0.00000000000E+00  0.00000000000E+00  0.57515460384E+02  0.57515460384E+02  0.00000000000E+00 0.  1.
          1   -1    0    0  501    0  0.00000000000E+00 -0.00000000000E+00 -0.43392924991E+03  0.43392924991E+03  0.00000000000E+00 0. -1.
         23    2    1    2    0    0 -0.46536849354E+02  0.98634579792E+02 -0.14021990651E+03  0.21721064635E+03  0.12499753608E+03 0.  0.
          5    1    3    3  502    0  0.27718361626E+02  0.58406893349E+01  0.53710865318E+01  0.29212322634E+02  0.47000000000E+01 0.  1.
         -5    1    3    3    0  502 -0.74255210980E+02  0.92793890457E+02 -0.14559099304E+03  0.18799832371E+03  0.47000000000E+01 0.  1.
        -11    1    1    2    0    0 -0.30036732048E+01 -0.70227056671E+02 -0.18360921808E+03  0.19660418741E+03  0.00000000000E+00 0.  1.
         11    1    1    2    0    0  0.49540522559E+02 -0.28407523120E+02 -0.52584664930E+02  0.77629876536E+02  0.00000000000E+00 0. -1.
<mgrwt>
<rscale>  0 0.15881205E+03</rscale>
<asrwt>0</asrwt>
<pdfrwt beam="2">  1        1 0.66758346E-01 0.16588804E+03</pdfrwt>
<pdfrwt beam="1">  1       -1 0.88485324E-02 0.16588804E+03</pdfrwt>
<totfact> 0.39202394E+03</totfact>
</mgrwt>
</event>
<event>
 7    1  0.4230786E-006  0.1261349E+03  0.7546771E-02  0.1252949E+00
          2   -1    0    0  501    0  0.00000000000E+00  0.00000000000E+00  0.28932045437E+03  0.28932045437E+03  0.00000000000E+00 0.  1.
         -2   -1    0    0    0  501 -0.00000000000E+00 -0.00000000000E+00 -0.57546134882E+02  0.57546134882E+02  0.00000000000E+00 0. -1.
         23    2    1    2    0    0 -0.59018831010E+02 -0.31087115242E+01  0.32440883622E+02  0.13023986564E+03  0.11143215501E+03 0.  0.
          5    1    3    3  502    0 -0.74169652234E+02 -0.21608682297E+02 -0.13187287588E+02  0.78511572504E+02  0.47000000000E+01 0. -1.
         -5    1    3    3    0  502  0.15150821224E+02  0.18499970773E+02  0.45628171210E+02  0.51728293132E+02  0.47000000000E+01 0.  1.
        -11    1    1    2    0    0  0.21994199450E+02 -0.25507569773E+02  0.51257353849E+02  0.61332676844E+02  0.00000000000E+00 0.  1.
         11    1    1    2    0    0  0.37024631560E+02  0.28616281298E+02  0.14807608202E+03  0.15529404677E+03  0.00000000000E+00 0. -1.
<mgrwt>
<rscale>  0 0.11422012E+03</rscale>
<asrwt>0</asrwt>
<pdfrwt beam="1">  1        2 0.44510839E-01 0.12613489E+03</pdfrwt>
<pdfrwt beam="2">  1       -2 0.88532516E-02 0.12613489E+03</pdfrwt>
<totfact> 0.86446747E+03</totfact>
</mgrwt>
</event>
<event>
 7    1  0.4230786E-006  0.1407396E+03  0.7546771E-02  0.1222601E+00
          1   -1    0    0  501    0  0.00000000000E+00  0.00000000000E+00  0.53420305960E+03  0.53420305960E+03  0.00000000000E+00 0. -1.
         -1   -1    0    0    0  501 -0.00000000000E+00 -0.00000000000E+00 -0.34510825981E+02  0.34510825981E+02  0.00000000000E+00 0.  1.
         23    2    1    2    0    0  0.34625088007E+02 -0.54628051709E+02  0.17359794685E+03  0.22348129109E+03  0.12499807824E+03 0.  0.
          5    1    3    3  502    0  0.67625895236E+02 -0.12987060219E+00  0.12849378195E+03  0.14527911265E+03  0.47000000000E+01 0. -1.
         -5    1    3    3    0  502 -0.33000807228E+02 -0.54498181107E+02  0.45104164903E+02  0.78202178443E+02  0.47000000000E+01 0. -1.
        -11    1    1    2    0    0 -0.57292479664E+02  0.19955569977E+02  0.11407401566E+03  0.12920345989E+03  0.00000000000E+00 0.  1.
         11    1    1    2    0    0  0.22667391656E+02  0.34672481732E+02  0.21202027110E+03  0.21602913459E+03  0.00000000000E+00 0. -1.
<mgrwt>
<rscale>  0 0.13332665E+03</rscale>
<asrwt>0</asrwt>
<pdfrwt beam="1">  1        1 0.82185080E-01 0.14073962E+03</pdfrwt>
<pdfrwt beam="2">  1       -1 0.53093582E-02 0.14073962E+03</pdfrwt>
<totfact> 0.63919409E+03</totfact>
</mgrwt>
</event>
<event>
 7    1  0.4230786E-006  0.1312193E+03  0.7546771E-02  0.1242322E+00
          2   -1    0    0  501    0  0.00000000000E+00  0.00000000000E+00  0.35273584916E+03  0.35273584916E+03  0.00000000000E+00 0. -1.
         -2   -1    0    0    0  501 -0.00000000000E+00 -0.00000000000E+00 -0.36604613234E+02  0.36604613234E+02  0.00000000000E+00 0.  1.
         23    2    1    2    0    0 -0.11585183591E+02  0.38200129146E+02  0.15405004394E+03  0.20236087261E+03  0.12500016152E+03 0.  0.
          5    1    3    3  502    0 -0.10851900086E+01  0.80196858409E+02  0.12943155473E+03  0.15233952571E+03  0.47000000000E+01 0. -1.
         -5    1    3    3    0  502 -0.10499993583E+02 -0.41996729263E+02  0.24618489213E+02  0.50021346895E+02  0.47000000000E+01 0. -1.
        -11    1    1    2    0    0 -0.25684344474E+02 -0.19683180117E+02  0.13126858435E+03  0.13519820401E+03  0.00000000000E+00 0. -1.
         11    1    1    2    0    0  0.37269528065E+02 -0.18516949029E+02  0.30812607641E+02  0.51781385779E+02  0.00000000000E+00 0.  1.
<mgrwt>
<rscale>  0 0.12047096E+03</rscale>
<asrwt>0</asrwt>
<pdfrwt beam="1">  1        2 0.54267051E-01 0.13121931E+03</pdfrwt>
<pdfrwt beam="2">  1       -2 0.56314792E-02 0.13121931E+03</pdfrwt>
<totfact> 0.14048030E+04</totfact>
</mgrwt>
</event>
<event>
 7    1  0.4230786E-006  0.1434360E+03  0.7546771E-02  0.1224585E+00
          2   -1    0    0  501    0  0.00000000000E+00  0.00000000000E+00  0.14241737069E+03  0.14241737069E+03  0.00000000000E+00 0. -1.
         -2   -1    0    0    0  501 -0.00000000000E+00 -0.00000000000E+00 -0.11681199638E+03  0.11681199638E+03  0.00000000000E+00 0.  1.
         23    2    1    2    0    0 -0.45272256991E+02 -0.53896096883E+02 -0.23525721175E+02  0.14535251327E+03  0.12497810627E+03 0.  0.
          5    1    3    3  502    0 -0.59530625059E+02 -0.51521440960E+02  0.33975326157E+02  0.85876463516E+02  0.47000000000E+01 0. -1.
         -5    1    3    3    0  502  0.14258368068E+02 -0.23746559230E+01 -0.57501047332E+02  0.59476049759E+02  0.47000000000E+01 0. -1.
        -11    1    1    2    0    0  0.28894335806E+01  0.59049287605E+02  0.35955578356E+02  0.69195164629E+02  0.00000000000E+00 0.  1.
         11    1    1    2    0    0  0.42382823410E+02 -0.51531907225E+01  0.13175517132E+02  0.44681689164E+02  0.00000000000E+00 0. -1.
<mgrwt>
<rscale>  0 0.13195359E+03</rscale>
<asrwt>0</asrwt>
<pdfrwt beam="1">  1        2 0.21910365E-01 0.14343603E+03</pdfrwt>
<pdfrwt beam="2">  1       -2 0.17971076E-01 0.14343603E+03</pdfrwt>
<totfact> 0.60235547E+03</totfact>
</mgrwt>
</event>
<event>
 7    1  0.4230786E-006  0.1262172E+03  0.7546771E-02  0.1248399E+00
         -2   -1    0    0    0  501 -0.00000000000E+00  0.00000000000E+00  0.32116230303E+03  0.32116230303E+03  0.00000000000E+00 0. -1.
          2   -1    0    0  501    0  0.00000000000E+00 -0.00000000000E+00 -0.38377997766E+02  0.38377997766E+02  0.00000000000E+00 0.  1.
         23    2    1    2    0    0  0.11312569803E+02  0.13320251225E+02  0.19218085993E+03  0.22992230137E+03  0.12500151365E+03 0.  0.
          5    1    3    3  502    0  0.16974045086E+02 -0.14721529736E+02 -0.10454499880E+02  0.25223564619E+02  0.47000000000E+01 0. -1.
         -5    1    3    3    0  502 -0.56614752825E+01  0.28041780961E+02  0.20263535981E+03  0.20469873675E+03  0.47000000000E+01 0. -1.
        -11    1    1    2    0    0  0.15727664979E+02  0.24178335389E+02  0.10820563510E+01  0.28863856184E+02  0.00000000000E+00 0.  1.
         11    1    1    2    0    0 -0.27040234782E+02 -0.37498586614E+02  0.89521388978E+02  0.10075414324E+03  0.00000000000E+00 0. -1.
<mgrwt>
<rscale>  0 0.11684219E+03</rscale>
<asrwt>0</asrwt>
<pdfrwt beam="2">  1        2 0.59043076E-02 0.12621720E+03</pdfrwt>
<pdfrwt beam="1">  1       -2 0.49409583E-01 0.12621720E+03</pdfrwt>
<totfact> 0.46881386E+03</totfact>
</mgrwt>
</event>
<event>
 7    1  0.4230786E-006  0.1259943E+03  0.7546771E-02  0.1247009E+00
         -3   -1    0    0    0  501 -0.00000000000E+00  0.00000000000E+00  0.10394397736E+03  0.10394397736E+03  0.00000000000E+00 0.  1.
          3   -1    0    0  501    0  0.00000000000E+00 -0.00000000000E+00 -0.12061749706E+03  0.12061749706E+03  0.00000000000E+00 0. -1.
         23    2    1    2    0    0 -0.11188130962E+02  0.11195439037E+02  0.58481690340E+01  0.12612991630E+03  0.12499617024E+03 0.  0.
          5    1    3    3  502    0 -0.43207175906E+02  0.16143952458E+02 -0.45676616900E+02  0.65084027089E+02  0.47000000000E+01 0.  1.
         -5    1    3    3    0  502  0.32019044944E+02 -0.49485134210E+01  0.51524785934E+02  0.61045889212E+02  0.47000000000E+01 0.  1.
        -11    1    1    2    0    0 -0.29385263737E+02 -0.11584891401E+02  0.21771636842E+02  0.38362841454E+02  0.00000000000E+00 0.  1.
         11    1    1    2    0    0  0.40573394699E+02  0.38945236350E+00 -0.44293325574E+02  0.60068716658E+02  0.00000000000E+00 0. -1.
<mgrwt>
<rscale>  0 0.11765965E+03</rscale>
<asrwt>0</asrwt>
<pdfrwt beam="2">  1        3 0.18556538E-01 0.12599426E+03</pdfrwt>
<pdfrwt beam="1">  1       -3 0.15991381E-01 0.12599426E+03</pdfrwt>
<totfact> 0.19266853E+03</totfact>
</mgrwt>
</event>
<event>
 7    1  0.4230786E-006  0.1419229E+03  0.7546771E-02  0.1221321E+00
          1   -1    0    0  501    0  0.00000000000E+00  0.00000000000E+00  0.13558791161E+03  0.13558791161E+03  0.00000000000E+00 0. -1.
         -1   -1    0    0    0  501 -0.00000000000E+00 -0.00000000000E+00 -0.12890216929E+03  0.12890216929E+03  0.00000000000E+00 0.  1.
         23    2    1    2    0    0  0.49804542150E+01 -0.67018041872E+02 -0.30214365223E+02  0.14510347079E+03  0.12500354599E+03 0.  0.
          5    1    3    3  502    0  0.13504512590E+02  0.35660650771E+02 -0.36191080892E+01  0.38590695991E+02  0.47000000000E+01 0.  1.
         -5    1    3    3    0  502 -0.85240583753E+01 -0.10267869264E+03 -0.26595257134E+02  0.10651277480E+03  0.47000000000E+01 0.  1.
        -11    1    1    2    0    0  0.27804873827E+02  0.16836936617E+02 -0.18808482821E+02  0.37554659754E+02  0.00000000000E+00 0.  1.
         11    1    1    2    0    0 -0.32785328042E+02  0.50181105255E+02  0.55708590363E+02  0.81831950359E+02  0.00000000000E+00 0. -1.
<mgrwt>
<rscale>  0 0.13422317E+03</rscale>
<asrwt>0</asrwt>
<pdfrwt beam="1">  1        1 0.20859679E-01 0.14192290E+03</pdfrwt>
<pdfrwt beam="2">  1       -1 0.19831103E-01 0.14192290E+03</pdfrwt>
<totfact> 0.47394933E+03</totfact>
</mgrwt>
</event>
<event>
 7    1  0.4230786E-006  0.2195129E+03  0.7546771E-02  0.1136823E+00
          1   -1    0    0  501    0  0.00000000000E+00  0.00000000000E+00  0.98095054408E+03  0.98095054408E+03  0.00000000000E+00 0. -1.
         -1   -1    0    0    0  501 -0.00000000000E+00 -0.00000000000E+00 -0.65699025805E+02  0.65699025805E+02  0.00000000000E+00 0.  1.
         23    2    1    2    0    0 -0.15019439666E+03 -0.10001147000E+03  0.18258151089E+03  0.28552041317E+03  0.12500098918E+03 0.  0.
          5    1    3    3  502    0 -0.61969473962E+02 -0.21234367013E+02 -0.26145497936E+01  0.65727010553E+02  0.47000000000E+01 0. -1.
         -5    1    3    3    0  502 -0.88224922701E+02 -0.78777102986E+02  0.18519606069E+03  0.21979340262E+03  0.47000000000E+01 0. -1.
        -11    1    1    2    0    0  0.24590190024E+02 -0.19467980629E+02  0.82993314648E+02  0.88721868733E+02  0.00000000000E+00 0.  1.
         11    1    1    2    0    0  0.12560420664E+03  0.11947945063E+03  0.64967669273E+03  0.67240728798E+03  0.00000000000E+00 0. -1.
<mgrwt>
<rscale>  0 0.21610223E+03</rscale>
<asrwt>0</asrwt>
<pdfrwt beam="1">  1        1 0.15091546E+00 0.21951287E+03</pdfrwt>
<pdfrwt beam="2">  1       -1 0.10107543E-01 0.21951287E+03</pdfrwt>
<totfact> 0.99417330E+02</totfact>
</mgrwt>
</event>
<event>
 7    1  0.4230786E-006  0.1778572E+03  0.7546771E-02  0.1175559E+00
          4   -1    0    0  501    0  0.00000000000E+00  0.00000000000E+00  0.85527727631E+02  0.85527727631E+02  0.00000000000E+00 0. -1.
         -4   -1    0    0    0  501 -0.00000000000E+00 -0.00000000000E+00 -0.35707013920E+03  0.35707013920E+03  0.00000000000E+00 0.  1.
         23    2    1    2    0    0 -0.12646556501E+03 -0.50231705236E+00 -0.20844123742E+03  0.27400898826E+03  0.12505752572E+03 0.  0.
          5    1    3    3  502    0 -0.11817378436E+03 -0.28690996796E+02 -0.88611826717E+02  0.15054023529E+03  0.47000000000E+01 0.  1.
         -5    1    3    3    0  502 -0.82917806471E+01  0.28188679744E+02 -0.11982941070E+03  0.12346875297E+03  0.47000000000E+01 0.  1.
        -11    1    1    2    0    0  0.70643168987E+02 -0.14236341307E+02 -0.80736975827E+02  0.10822009982E+03  0.00000000000E+00 0.  1.
         11    1    1    2    0    0  0.55822396022E+02  0.14738658359E+02  0.17635801669E+02  0.60368778756E+02  0.00000000000E+00 0. -1.
<mgrwt>
<rscale>  0 0.17221350E+03</rscale>
<asrwt>0</asrwt>
<pdfrwt beam="1">  1        4 0.13158112E-01 0.17785718E+03</pdfrwt>
<pdfrwt beam="2">  1       -4 0.54933868E-01 0.17785718E+03</pdfrwt>
<totfact> 0.26415267E+02</totfact>
</mgrwt>
</event>
<event>
 7    1  0.4230786E-006  0.1250284E+03  0.7546771E-02  0.1249915E+00
         -2   -1    0    0    0  501 -0.00000000000E+00  0.00000000000E+00  0.10249390034E+03  0.10249390034E+03  0.00000000000E+00 0.  1.
          2   -1    0    0  501    0  0.00000000000E+00 -0.00000000000E+00 -0.25857554760E+03  0.25857554760E+03  0.00000000000E+00 0. -1.
         23    2    1    2    0    0  0.32140017524E+00 -0.16972142022E+01  0.50404432646E+02  0.13480619896E+03  0.12501648137E+03 0.  0.
          5    1    3    3  502    0 -0.35846411246E+02 -0.51397515313E+02  0.19169535812E+02  0.65698027998E+02  0.47000000000E+01 0.  1.
         -5    1    3    3    0  502  0.36167811421E+02  0.49700301110E+02  0.31234896834E+02  0.69108170962E+02  0.47000000000E+01 0.  1.
        -11    1    1    2    0    0  0.18092431887E+02 -0.39680871325E+02 -0.70146813276E+02  0.82598323551E+02  0.00000000000E+00 0.  1.
         11    1    1    2    0    0 -0.18413832062E+02  0.41378085527E+02 -0.13633926663E+03  0.14366492543E+03  0.00000000000E+00 0. -1.
<mgrwt>
<rscale>  0 0.11595957E+03</rscale>
<asrwt>0</asrwt>
<pdfrwt beam="2">  1        2 0.39780854E-01 0.12502841E+03</pdfrwt>
<pdfrwt beam="1">  1       -2 0.15768292E-01 0.12502841E+03</pdfrwt>
<totfact> 0.38792073E+03</totfact>
</mgrwt>
</event>
<event>
 7    1  0.4230786E-006  0.1252571E+03  0.7546771E-02  0.1250557E+00
          1   -1    0    0  501    0  0.00000000000E+00  0.00000000000E+00  0.30190695286E+03  0.30190695286E+03  0.00000000000E+00 0. -1.
         -1   -1    0    0    0  501 -0.00000000000E+00 -0.00000000000E+00 -0.43412438164E+02  0.43412438164E+02  0.00000000000E+00 0.  1.
         23    2    1    2    0    0 -0.12500485686E+00  0.80104944669E+01  0.91152861820E+02  0.15491350075E+03  0.12500065940E+03 0.  0.
          5    1    3    3  502    0  0.55933440946E+02  0.22460247934E+02  0.71416828434E+02  0.93570646769E+02  0.47000000000E+01 0.  1.
         -5    1    3    3    0  502 -0.56058445803E+02 -0.14449753467E+02  0.19736033386E+02  0.61342853984E+02  0.47000000000E+01 0.  1.
        -11    1    1    2    0    0  0.60466118884E+01  0.22782769645E+02  0.37887209981E+01  0.23874055266E+02  0.00000000000E+00 0.  1.
         11    1    1    2    0    0 -0.59216070315E+01 -0.30793264112E+02  0.16355293188E+03  0.16653183501E+03  0.00000000000E+00 0. -1.
<mgrwt>
<rscale>  0 0.11558895E+03</rscale>
<asrwt>0</asrwt>
<pdfrwt beam="1">  1        1 0.46447222E-01 0.12525713E+03</pdfrwt>
<pdfrwt beam="2">  1       -1 0.66788368E-02 0.12525713E+03</pdfrwt>
<totfact> 0.92885381E+03</totfact>
</mgrwt>
</event>
<event>
 7    1  0.4230786E-006  0.1301067E+03  0.7546771E-02  0.1240378E+00
          1   -1    0    0  501    0  0.00000000000E+00  0.00000000000E+00  0.65243460187E+03  0.65243460187E+03  0.00000000000E+00 0. -1.
         -1   -1    0    0    0  501 -0.00000000000E+00 -0.00000000000E+00 -0.24071136878E+02  0.24071136878E+02  0.00000000000E+00 0.  1.
         23    2    1    2    0    0 -0.21899839079E+02 -0.28639627691E+02  0.21467401718E+03  0.25102329569E+03  0.12501171985E+03 0.  0.
          5    1    3    3  502    0 -0.69949501268E+02 -0.15100967511E+02  0.16738084484E+03  0.18209725194E+03  0.47000000000E+01 0. -1.
         -5    1    3    3    0  502  0.48049662189E+02 -0.13538660180E+02  0.47293172348E+02  0.68926043747E+02  0.47000000000E+01 0. -1.
        -11    1    1    2    0    0  0.56744711197E+02  0.29188157156E+02  0.24049540005E+03  0.24881709791E+03  0.00000000000E+00 0.  1.
         11    1    1    2    0    0 -0.34844872118E+02 -0.54852946516E+00  0.17319404776E+03  0.17666534515E+03  0.00000000000E+00 0. -1.
<mgrwt>
<rscale>  0 0.12166319E+03</rscale>
<asrwt>0</asrwt>
<pdfrwt beam="1">  1        1 0.10037454E+00 0.13010673E+03</pdfrwt>
<pdfrwt beam="2">  1       -1 0.37032523E-02 0.13010673E+03</pdfrwt>
<totfact> 0.82480155E+03</totfact>
</mgrwt>
</event>
<event>
 7    1  0.4230786E-006  0.1406888E+03  0.7546771E-02  0.1222930E+00
         -2   -1    0    0    0  501 -0.00000000000E+00  0.00000000000E+00  0.33359404548E+03  0.33359404548E+03  0.00000000000E+00 0.  1.
          2   -1    0    0  501    0  0.00000000000E+00 -0.00000000000E+00 -0.66697183840E+02  0.66697183840E+02  0.00000000000E+00 0. -1.
         23    2    1    2    0    0  0.53952264037E+01 -0.64216213175E+02  0.24926102518E+03  0.28622439673E+03  0.12506204904E+03 0.  0.
          5    1    3    3  502    0  0.55582498782E+02 -0.14869976355E+02  0.55735730007E+02  0.80243952838E+02  0.47000000000E+01 0.  1.
         -5    1    3    3    0  502 -0.50187272378E+02 -0.49346236820E+02  0.19352529517E+03  0.20598044389E+03  0.47000000000E+01 0.  1.
        -11    1    1    2    0    0 -0.34791352089E+02  0.32273546099E+02  0.42787230984E+02  0.63896534282E+02  0.00000000000E+00 0.  1.
         11    1    1    2    0    0  0.29396125685E+02  0.31942667076E+02 -0.25151394523E+02  0.50170298302E+02  0.00000000000E+00 0. -1.
<mgrwt>
<rscale>  0 0.13309787E+03</rscale>
<asrwt>0</asrwt>
<pdfrwt beam="2">  1        2 0.10261105E-01 0.14068883E+03</pdfrwt>
<pdfrwt beam="1">  1       -2 0.51322160E-01 0.14068883E+03</pdfrwt>
<totfact> 0.21860528E+03</totfact>
</mgrwt>
</event>
<event>
 7    1  0.4230786E-006  0.1261633E+03  0.7546771E-02  0.1247422E+00
          1   -1    0    0  501    0  0.00000000000E+00  0.00000000000E+00  0.11874344327E+03  0.11874344327E+03  0.00000000000E+00 0. -1.
         -1   -1    0    0    0  501 -0.00000000000E+00 -0.00000000000E+00 -0.11208653313E+03  0.11208653313E+03  0.00000000000E+00 0.  1.
         23    2    1    2    0    0  0.16892110646E+02  0.32004090744E+01 -0.29405806898E+02  0.12954490373E+03  0.12498637759E+03 0.  0.
          5    1    3    3  502    0  0.12736242753E+02 -0.59719861073E+01  0.48568579534E+02  0.50782609380E+02  0.47000000000E+01 0. -1.
         -5    1    3    3    0  502  0.41558678929E+01  0.91723951817E+01 -0.77974386432E+02  0.78762294346E+02  0.47000000000E+01 0. -1.
        -11    1    1    2    0    0  0.92565653870E+01  0.19765243860E+02  0.56747625118E+02  0.60800015001E+02  0.00000000000E+00 0. -1.
         11    1    1    2    0    0 -0.26148676033E+02 -0.22965652934E+02 -0.20684908077E+02  0.40485057677E+02  0.00000000000E+00 0.  1.
<mgrwt>
<rscale>  0 0.11741594E+03</rscale>
<asrwt>0</asrwt>
<pdfrwt beam="1">  1        1 0.18268222E-01 0.12616331E+03</pdfrwt>
<pdfrwt beam="2">  1       -1 0.17244082E-01 0.12616331E+03</pdfrwt>
<totfact> 0.69563036E+03</totfact>
</mgrwt>
</event>
<event>
 7    1  0.4230786E-006  0.1459053E+03  0.7546771E-02  0.1214361E+00
          1   -1    0    0  501    0  0.00000000000E+00  0.00000000000E+00  0.26272904713E+03  0.26272904713E+03  0.00000000000E+00 0. -1.
         -1   -1    0    0    0  501 -0.00000000000E+00 -0.00000000000E+00 -0.98953978083E+02  0.98953978083E+02  0.00000000000E+00 0.  1.
         23    2    1    2    0    0  0.41105962891E+01 -0.75143415573E+02 -0.14064848736E+02  0.14658161971E+03  0.12499968545E+03 0.  0.
          5    1    3    3  502    0 -0.45871322497E+02 -0.18507997718E+02  0.30936131587E+02  0.58530833282E+02  0.47000000000E+01 0.  1.
         -5    1    3    3    0  502  0.49981918786E+02 -0.56635417855E+02 -0.45000980323E+02  0.88050786431E+02  0.47000000000E+01 0.  1.
        -11    1    1    2    0    0 -0.24289880063E+02  0.80981603897E+02  0.17440274483E+03  0.19381521057E+03  0.00000000000E+00 0. -1.
         11    1    1    2    0    0  0.20179283774E+02 -0.58381883246E+01  0.34371729461E+01  0.21286194925E+02  0.00000000000E+00 0.  1.
<mgrwt>
<rscale>  0 0.13923607E+03</rscale>
<asrwt>0</asrwt>
<pdfrwt beam="1">  1        1 0.40419853E-01 0.14590528E+03</pdfrwt>
<pdfrwt beam="2">  1       -1 0.15223689E-01 0.14590528E+03</pdfrwt>
<totfact> 0.31593095E+03</totfact>
</mgrwt>
</event>
<event>
 7    1  0.4230786E-006  0.1161120E+03  0.7546771E-02  0.1262169E+00
          3   -1    0    0  501    0  0.00000000000E+00  0.00000000000E+00  0.37038679955E+02  0.37038679955E+02  0.00000000000E+00 0. -1.
         -3   -1    0    0    0  501 -0.00000000000E+00 -0.00000000000E+00 -0.31562733421E+03  0.31562733421E+03  0.00000000000E+00 0.  1.
         23    2    1    2    0    0  0.16112550797E+02  0.78149730445E+01 -0.20629071373E+03  0.23672318164E+03  0.11472278788E+03 0.  0.
          5    1    3    3  502    0 -0.46434202045E+02  0.13536574035E+02 -0.12336153767E+03  0.13258783101E+03  0.47000000000E+01 0. -1.
         -5    1    3    3    0  502  0.62546752842E+02 -0.57216009901E+01 -0.82929176056E+02  0.10413535063E+03  0.47000000000E+01 0.  1.
        -11    1    1    2    0    0 -0.34204833137E+02 -0.64999966142E+01 -0.86279682465E+02  0.93039798862E+02  0.00000000000E+00 0.  1.
         11    1    1    2    0    0  0.18092282340E+02 -0.13149764304E+01  0.13981741939E+02  0.22903033662E+02  0.00000000000E+00 0. -1.
<mgrwt>
<rscale>  0 0.10914123E+03</rscale>
<asrwt>0</asrwt>
<pdfrwt beam="1">  1        3 0.56982584E-02 0.11611204E+03</pdfrwt>
<pdfrwt beam="2">  1       -3 0.48558052E-01 0.11611204E+03</pdfrwt>
<totfact> 0.17500068E+03</totfact>
</mgrwt>
</event>
<event>
 7    1  0.4230786E-006  0.1288231E+03  0.7546771E-02  0.1244178E+00
         -1   -1    0    0    0  501 -0.00000000000E+00  0.00000000000E+00  0.21493896013E+02  0.21493896013E+02  0.00000000000E+00 0.  1.
          1   -1    0    0  501    0  0.00000000000E+00 -0.00000000000E+00 -0.62958116120E+03  0.62958116120E+03  0.00000000000E+00 0. -1.
         23    2    1    2    0    0  0.20994925695E+01  0.31037683539E+02 -0.25829183678E+03  0.28863482495E+03  0.12501057378E+03 0.  0.
          5    1    3    3  502    0  0.18642326692E+02 -0.45549069276E+02 -0.11670911430E+03  0.12674920677E+03  0.47000000000E+01 0.  1.
         -5    1    3    3    0  502 -0.16542834122E+02  0.76586752815E+02 -0.14158272248E+03  0.16188561817E+03  0.47000000000E+01 0.  1.
        -11    1    1    2    0    0 -0.15134900147E+02  0.25581895689E+02 -0.60977004177E+02  0.67835784273E+02  0.00000000000E+00 0.  1.
         11    1    1    2    0    0  0.13035407577E+02 -0.56619579227E+02 -0.28881842423E+03  0.29460444800E+03  0.00000000000E+00 0. -1.
<mgrwt>
<rscale>  0 0.11934721E+03</rscale>
<asrwt>0</asrwt>
<pdfrwt beam="2">  1        1 0.96858638E-01 0.12882309E+03</pdfrwt>
<pdfrwt beam="1">  1       -1 0.33067533E-02 0.12882309E+03</pdfrwt>
<totfact> 0.10217609E+04</totfact>
</mgrwt>
</event>
<event>
 7    1  0.4230786E-006  0.1448530E+03  0.7546771E-02  0.1216323E+00
         -3   -1    0    0    0  501 -0.00000000000E+00  0.00000000000E+00  0.15313152277E+03  0.15313152277E+03  0.00000000000E+00 0.  1.
          3   -1    0    0  501    0  0.00000000000E+00 -0.00000000000E+00 -0.13356953690E+03  0.13356953690E+03  0.00000000000E+00 0. -1.
         23    2    1    2    0    0 -0.33856982877E+02 -0.64893418817E+02  0.66162821944E+02  0.15924796566E+03  0.12499977785E+03 0.  0.
          5    1    3    3  502    0 -0.74660146258E+02 -0.45764861659E+02  0.11811629139E+02  0.88488217209E+02  0.47000000000E+01 0. -1.
         -5    1    3    3    0  502  0.40803163382E+02 -0.19128557159E+02  0.54351192805E+02  0.70759748447E+02  0.47000000000E+01 0. -1.
        -11    1    1    2    0    0  0.54043669270E+00  0.81256834462E+02 -0.28102444612E+02  0.85980885154E+02  0.00000000000E+00 0. -1.
         11    1    1    2    0    0  0.33316546184E+02 -0.16363415645E+02 -0.18498391460E+02  0.41472208861E+02  0.00000000000E+00 0.  1.
<mgrwt>
<rscale>  0 0.13779792E+03</rscale>
<asrwt>0</asrwt>
<pdfrwt beam="2">  1        3 0.20549160E-01 0.14485301E+03</pdfrwt>
<pdfrwt beam="1">  1       -3 0.23558696E-01 0.14485301E+03</pdfrwt>
<totfact> 0.83464222E+02</totfact>
</mgrwt>
</event>
<event>
 7    1  0.4230786E-006  0.1347892E+03  0.7546771E-02  0.1230924E+00
          2   -1    0    0  501    0  0.00000000000E+00  0.00000000000E+00  0.66857991745E+02  0.66857991745E+02  0.00000000000E+00 0. -1.
         -2   -1    0    0    0  501 -0.00000000000E+00 -0.00000000000E+00 -0.23464779342E+03  0.23464779342E+03  0.00000000000E+00 0.  1.
         23    2    1    2    0    0  0.51902444972E+02 -0.12878616198E+02 -0.12801049563E+03  0.18588926663E+03  0.12372715913E+03 0.  0.
          5    1    3    3  502    0 -0.31356840003E+02  0.26379017490E+02 -0.52323237255E+02  0.66625183944E+02  0.47000000000E+01 0. -1.
         -5    1    3    3    0  502  0.83259284976E+02 -0.39257633688E+02 -0.75687258378E+02  0.11926408268E+03  0.47000000000E+01 0.  1.
        -11    1    1    2    0    0 -0.55889767225E+02 -0.30827733115E+02 -0.16451440083E+02  0.65914073537E+02  0.00000000000E+00 0.  1.
         11    1    1    2    0    0  0.39873222526E+01  0.43706349313E+02 -0.23327865961E+02  0.49702445004E+02  0.00000000000E+00 0. -1.
<mgrwt>
<rscale>  0 0.12768991E+03</rscale>
<asrwt>0</asrwt>
<pdfrwt beam="1">  1        2 0.10285845E-01 0.13478921E+03</pdfrwt>
<pdfrwt beam="2">  1       -2 0.36099661E-01 0.13478921E+03</pdfrwt>
<totfact> 0.42736030E+03</totfact>
</mgrwt>
</event>
<event>
 7    1  0.4230786E-006  0.1438691E+03  0.7546771E-02  0.1224698E+00
          1   -1    0    0  501    0  0.00000000000E+00  0.00000000000E+00  0.97336450649E+02  0.97336450649E+02  0.00000000000E+00 0. -1.
         -1   -1    0    0    0  501 -0.00000000000E+00 -0.00000000000E+00 -0.15654751654E+03  0.15654751654E+03  0.00000000000E+00 0.  1.
         23    2    1    2    0    0 -0.15418388270E+02 -0.69542495245E+02 -0.48150848842E+02  0.15171297544E+03  0.12499774930E+03 0.  0.
          5    1    3    3  502    0  0.54746225656E+02 -0.31417472527E+02 -0.28063191532E+02  0.69237558611E+02  0.47000000000E+01 0. -1.
         -5    1    3    3    0  502 -0.70164613925E+02 -0.38125022718E+02 -0.20087657309E+02  0.82475416827E+02  0.47000000000E+01 0. -1.
        -11    1    1    2    0    0  0.93115342808E+01  0.45475595061E+02  0.29221935373E+02  0.54851216247E+02  0.00000000000E+00 0. -1.
         11    1    1    2    0    0  0.61068539890E+01  0.24066900184E+02 -0.40282152424E+02  0.47319775507E+02  0.00000000000E+00 0.  1.
<mgrwt>
<rscale>  0 0.13187658E+03</rscale>
<asrwt>0</asrwt>
<pdfrwt beam="1">  1        1 0.14974839E-01 0.14386912E+03</pdfrwt>
<pdfrwt beam="2">  1       -1 0.24084233E-01 0.14386912E+03</pdfrwt>
<totfact> 0.52956972E+03</totfact>
</mgrwt>
</event>
<event>
 7    1  0.4230786E-006  0.1592351E+03  0.7546771E-02  0.1197082E+00
         -2   -1    0    0    0  501 -0.00000000000E+00  0.00000000000E+00  0.63584334106E+02  0.63584334106E+02  0.00000000000E+00 0. -1.
          2   -1    0    0  501    0  0.00000000000E+00 -0.00000000000E+00 -0.59354720910E+03  0.59354720910E+03  0.00000000000E+00 0.  1.
         23    2    1    2    0    0 -0.58793453025E+02  0.79209837229E+02 -0.63331490132E+02  0.17136712921E+03  0.12499978760E+03 0.  0.
          5    1    3    3  502    0 -0.44436006759E+02 -0.34922088105E+01  0.23413808654E+02  0.50567288386E+02  0.47000000000E+01 0. -1.
         -5    1    3    3    0  502 -0.14357446266E+02  0.82702046039E+02 -0.86745298785E+02  0.12079984083E+03  0.47000000000E+01 0. -1.
        -11    1    1    2    0    0  0.25335493244E+00 -0.30856593361E+02 -0.31639105102E+02  0.44195322312E+02  0.00000000000E+00 0. -1.
         11    1    1    2    0    0  0.58540098093E+02 -0.48353243868E+02 -0.43499227976E+03  0.44156909169E+03  0.00000000000E+00 0.  1.
<mgrwt>
<rscale>  0 0.15279328E+03</rscale>
<asrwt>0</asrwt>
<pdfrwt beam="2">  1        2 0.91314958E-01 0.15923509E+03</pdfrwt>
<pdfrwt beam="1">  1       -2 0.97822050E-02 0.15923509E+03</pdfrwt>
<totfact> 0.34409730E+03</totfact>
</mgrwt>
</event>
<event>
 7    1  0.4230786E-006  0.1326184E+03  0.7546771E-02  0.1237154E+00
         -2   -1    0    0    0  501 -0.00000000000E+00  0.00000000000E+00  0.55335237827E+02  0.55335237827E+02  0.00000000000E+00 0.  1.
          2   -1    0    0  501    0  0.00000000000E+00 -0.00000000000E+00 -0.25104069871E+03  0.25104069871E+03  0.00000000000E+00 0. -1.
         23    2    1    2    0    0  0.47587692309E+01 -0.44042810831E+02 -0.87790735584E+02  0.15904353461E+03  0.12500087031E+03 0.  0.
          5    1    3    3  502    0  0.15266632896E+02  0.40974864871E+02 -0.45903790202E+02  0.63570886309E+02  0.47000000000E+01 0. -1.
         -5    1    3    3    0  502 -0.10507863665E+02 -0.85017675702E+02 -0.41886945381E+02  0.95472648303E+02  0.47000000000E+01 0. -1.
        -11    1    1    2    0    0  0.30315194124E+02  0.53569931927E+02 -0.82721805594E+02  0.10310987209E+03  0.00000000000E+00 0.  1.
         11    1    1    2    0    0 -0.35073963355E+02 -0.95271210958E+01 -0.25192919707E+02  0.44222529837E+02  0.00000000000E+00 0. -1.
<mgrwt>
<rscale>  0 0.12367567E+03</rscale>
<asrwt>0</asrwt>
<pdfrwt beam="2">  1        2 0.38621646E-01 0.13261837E+03</pdfrwt>
<pdfrwt beam="1">  1       -2 0.85131135E-02 0.13261837E+03</pdfrwt>
<totfact> 0.10718888E+04</totfact>
</mgrwt>
</event>
<event>
 6    1  0.4230786E-006  0.2424227E+03  0.7546771E-02  0.1124037E+00
         -2   -1    0    0    0  501 -0.00000000000E+00  0.00000000000E+00  0.46763944279E+03  0.46763944279E+03  0.00000000000E+00 0.  1.
          2   -1    0    0  501    0  0.00000000000E+00 -0.00000000000E+00 -0.11412832045E+03  0.11412832045E+03  0.00000000000E+00 0. -1.
          5    1    1    2  502    0  0.16326221591E+03 -0.56028641870E+02  0.14096215180E+03  0.22290396608E+03  0.47000000000E+01 0. -1.
         -5    1    1    2    0  502 -0.15583379004E+02 -0.59789841224E+02  0.10849155232E+03  0.12494068088E+03  0.47000000000E+01 0.  1.
        -11    1    1    2    0    0 -0.10173639552E+03  0.12642041853E+03  0.83338597750E+02  0.18242186894E+03  0.00000000000E+00 0.  1.
         11    1    1    2    0    0 -0.45942441386E+02 -0.10601935435E+02  0.20718820464E+02  0.51501247334E+02  0.00000000000E+00 0. -1.
<mgrwt>
<rscale>  0 0.23373739E+03</rscale>
<asrwt>0</asrwt>
<pdfrwt beam="2">  1        2 0.17558203E-01 0.24242266E+03</pdfrwt>
<pdfrwt beam="1">  1       -2 0.71944528E-01 0.24242266E+03</pdfrwt>
<totfact> 0.58111828E+02</totfact>
</mgrwt>
</event>
<event>
 7    1  0.4230786E-006  0.1255756E+03  0.7546771E-02  0.1256670E+00
         -1   -1    0    0    0  501 -0.00000000000E+00  0.00000000000E+00  0.20882281098E+02  0.20882281098E+02  0.00000000000E+00 0.  1.
          1   -1    0    0  501    0  0.00000000000E+00 -0.00000000000E+00 -0.54981205720E+03  0.54981205720E+03  0.00000000000E+00 0. -1.
         23    2    1    2    0    0  0.10424436844E+02 -0.60256862820E+01 -0.23912003147E+03  0.27008815411E+03  0.12499697502E+03 0.  0.
          5    1    3    3  502    0  0.42810888071E+02 -0.47673079280E+02 -0.81323291496E+02  0.10363909670E+03  0.47000000000E+01 0.  1.
         -5    1    3    3    0  502 -0.32386451227E+02  0.41647392998E+02 -0.15779673997E+03  0.16644905741E+03  0.47000000000E+01 0.  1.
        -11    1    1    2    0    0 -0.35776415755E+01 -0.35942415381E+02 -0.10761469227E+03  0.11351466309E+03  0.00000000000E+00 0.  1.
         11    1    1    2    0    0 -0.68467952684E+01  0.41968101663E+02 -0.18219505236E+03  0.18709152110E+03  0.00000000000E+00 0. -1.
<mgrwt>
<rscale>  0 0.11213306E+03</rscale>
<asrwt>0</asrwt>
<pdfrwt beam="2">  1        1 0.84586454E-01 0.12557556E+03</pdfrwt>
<pdfrwt beam="1">  1       -1 0.32126593E-02 0.12557556E+03</pdfrwt>
<totfact> 0.12773262E+04</totfact>
</mgrwt>
</event>
<event>
 7    1  0.4230786E-006  0.1308334E+03  0.7546771E-02  0.1236659E+00
          2   -1    0    0  501    0  0.00000000000E+00  0.00000000000E+00  0.15882261964E+03  0.15882261964E+03  0.00000000000E+00 0.  1.
         -2   -1    0    0    0  501 -0.00000000000E+00 -0.00000000000E+00 -0.88042232318E+02  0.88042232318E+02  0.00000000000E+00 0. -1.
         23    2    1    2    0    0  0.14720675301E+02 -0.35725337512E+02  0.43393194673E+02  0.13784179662E+03  0.12499757409E+03 0.  0.
          5    1    3    3  502    0  0.34036151950E+02 -0.77211788151E+02  0.32660688659E+02  0.90603148139E+02  0.47000000000E+01 0. -1.
         -5    1    3    3    0  502 -0.19315476650E+02  0.41486450639E+02  0.10732506014E+02  0.47238648480E+02  0.47000000000E+01 0. -1.
        -11    1    1    2    0    0 -0.47830381245E+01  0.32064309895E+02 -0.33853855017E+02  0.46873029796E+02  0.00000000000E+00 0. -1.
         11    1    1    2    0    0 -0.99376371760E+01  0.36610276163E+01  0.61241047668E+02  0.62150025546E+02  0.00000000000E+00 0.  1.
<mgrwt>
<rscale>  0 0.12398813E+03</rscale>
<asrwt>0</asrwt>
<pdfrwt beam="1">  1        2 0.24434249E-01 0.13083345E+03</pdfrwt>
<pdfrwt beam="2">  1       -2 0.13544959E-01 0.13083345E+03</pdfrwt>
<totfact> 0.84327395E+03</totfact>
</mgrwt>
</event>
<event>
 7    1  0.4230786E-006  0.2281723E+03  0.7546771E-02  0.1130941E+00
          2   -1    0    0  501    0  0.00000000000E+00  0.00000000000E+00  0.10897088283E+04  0.10897088283E+04  0.00000000000E+00 0. -1.
         -2   -1    0    0    0  501 -0.00000000000E+00 -0.00000000000E+00 -0.46514257642E+02  0.46514257642E+02  0.00000000000E+00 0.  1.
         23    2    1    2    0    0 -0.36373543461E+02  0.18739074868E+03  0.41986986924E+03  0.47786328094E+03  0.12499712325E+03 0.  0.
          5    1    3    3  502    0 -0.90228619387E+01  0.15431347884E+03  0.19497004938E+03  0.24885632791E+03  0.47000000000E+01 0.  1.
         -5    1    3    3    0  502 -0.27350681523E+02  0.33077269841E+02  0.22489981987E+03  0.22900695303E+03  0.47000000000E+01 0.  1.
        -11    1    1    2    0    0  0.10270552430E+02 -0.74145113241E+01  0.46235407840E+01  0.13484671104E+02  0.00000000000E+00 0.  1.
         11    1    1    2    0    0  0.26102991032E+02 -0.17997623735E+03  0.61870116067E+03  0.64487513394E+03  0.00000000000E+00 0. -1.
<mgrwt>
<rscale>  0 0.22399214E+03</rscale>
<asrwt>0</asrwt>
<pdfrwt beam="1">  1        2 0.16764749E+00 0.22817232E+03</pdfrwt>
<pdfrwt beam="2">  1       -2 0.71560405E-02 0.22817232E+03</pdfrwt>
<totfact> 0.26015317E+03</totfact>
</mgrwt>
</event>
<event>
 7    1  0.4230786E-006  0.1333890E+03  0.7546771E-02  0.1234847E+00
          3   -1    0    0  501    0  0.00000000000E+00  0.00000000000E+00  0.40586643799E+02  0.40586643799E+02  0.00000000000E+00 0. -1.
         -3   -1    0    0    0  501 -0.00000000000E+00 -0.00000000000E+00 -0.46044464697E+03  0.46044464697E+03  0.00000000000E+00 0.  1.
         23    2    1    2    0    0 -0.42955915921E+02  0.17957406557E+02 -0.35448893286E+03  0.37875456472E+03  0.12499975044E+03 0.  0.
          5    1    3    3  502    0  0.37784530129E+02 -0.22458545493E+00 -0.19838290820E+03  0.20200393417E+03  0.47000000000E+01 0. -1.
         -5    1    3    3    0  502 -0.80740446050E+02  0.18181992012E+02 -0.15610602466E+03  0.17675063055E+03  0.47000000000E+01 0. -1.
        -11    1    1    2    0    0  0.17999624509E+02  0.55961091198E+01 -0.82003203997E+02  0.84141716084E+02  0.00000000000E+00 0.  1.
         11    1    1    2    0    0  0.24956291412E+02 -0.23553515676E+02  0.16634133688E+02  0.38135009969E+02  0.00000000000E+00 0. -1.
<mgrwt>
<rscale>  0 0.12514215E+03</rscale>
<asrwt>0</asrwt>
<pdfrwt beam="1">  1        3 0.62440992E-02 0.13338897E+03</pdfrwt>
<pdfrwt beam="2">  1       -3 0.70837636E-01 0.13338897E+03</pdfrwt>
<totfact> 0.71439267E+02</totfact>
</mgrwt>
</event>
<event>
 7    1  0.4230786E-006  0.1965609E+03  0.7546771E-02  0.1157408E+00
         -1   -1    0    0    0  501 -0.00000000000E+00  0.00000000000E+00  0.38173780509E+03  0.38173780509E+03  0.00000000000E+00 0.  1.
          1   -1    0    0  501    0  0.00000000000E+00 -0.00000000000E+00 -0.94579935587E+02  0.94579935587E+02  0.00000000000E+00 0. -1.
         23    2    1    2    0    0 -0.14583658441E+03 -0.41855577213E+02  0.19851919213E+03  0.27936727772E+03  0.12496402491E+03 0.  0.
          5    1    3    3  502    0 -0.63477572065E+02  0.44088941794E+02  0.78972971491E+02  0.11059863096E+03  0.47000000000E+01 0.  1.
         -5    1    3    3    0  502 -0.82359012346E+02 -0.85944519007E+02  0.11954622064E+03  0.16876864676E+03  0.47000000000E+01 0.  1.
        -11    1    1    2    0    0  0.83852352360E+02  0.58800814177E+02  0.22741714741E+02  0.10490919089E+03  0.00000000000E+00 0.  1.
         11    1    1    2    0    0  0.61984232050E+02 -0.16945236964E+02  0.65896962632E+02  0.92041272062E+02  0.00000000000E+00 0. -1.
<mgrwt>
<rscale>  0 0.19117236E+03</rscale>
<asrwt>0</asrwt>
<pdfrwt beam="2">  1        1 0.14550760E-01 0.19656095E+03</pdfrwt>
<pdfrwt beam="1">  1       -1 0.58728892E-01 0.19656095E+03</pdfrwt>
<totfact> 0.11670940E+03</totfact>
</mgrwt>
</event>
<event>
 7    1  0.4230786E-006  0.1301841E+03  0.7546771E-02  0.1242062E+00
         -1   -1    0    0    0  501 -0.00000000000E+00  0.00000000000E+00  0.44698325459E+03  0.44698325459E+03  0.00000000000E+00 0.  1.
          1   -1    0    0  501    0  0.00000000000E+00 -0.00000000000E+00 -0.37552548676E+02  0.37552548676E+02  0.00000000000E+00 0. -1.
         23    2    1    2    0    0 -0.32665797739E+02  0.16092019001E+02  0.34551831294E+03  0.36923000570E+03  0.12498753986E+03 0.  0.
          5    1    3    3  502    0 -0.65087011858E+02  0.45249735367E+02  0.27455436456E+03  0.28580770941E+03  0.47000000000E+01 0.  1.
         -5    1    3    3    0  502  0.32421214118E+02 -0.29157716366E+02  0.70963948381E+02  0.83422296291E+02  0.47000000000E+01 0.  1.
        -11    1    1    2    0    0 -0.30932133570E+02 -0.33880263639E+01  0.20539379959E+02  0.37284604583E+02  0.00000000000E+00 0.  1.
         11    1    1    2    0    0  0.63597931309E+02 -0.12703992637E+02  0.43373013021E+02  0.78021192981E+02  0.00000000000E+00 0. -1.
<mgrwt>
<rscale>  0 0.12062979E+03</rscale>
<asrwt>0</asrwt>
<pdfrwt beam="2">  1        1 0.57773155E-02 0.13018407E+03</pdfrwt>
<pdfrwt beam="1">  1       -1 0.68766651E-01 0.13018407E+03</pdfrwt>
<totfact> 0.29110704E+03</totfact>
</mgrwt>
</event>
<event>
 7    1  0.4230786E-006  0.1446989E+03  0.7546771E-02  0.1217048E+00
         -2   -1    0    0    0  501 -0.00000000000E+00  0.00000000000E+00  0.10799564141E+03  0.10799564141E+03  0.00000000000E+00 0.  1.
          2   -1    0    0  501    0  0.00000000000E+00 -0.00000000000E+00 -0.19005365457E+03  0.19005365457E+03  0.00000000000E+00 0. -1.
         23    2    1    2    0    0  0.27608403483E+02 -0.67456848783E+02  0.15541851142E+02  0.14553114170E+03  0.12500045470E+03 0.  0.
          5    1    3    3  502    0  0.23508446839E+02 -0.93922393895E+02 -0.21784283707E+02  0.99351437656E+02  0.47000000000E+01 0. -1.
         -5    1    3    3    0  502  0.40999566435E+01  0.26465545112E+02  0.37326134850E+02  0.46179704042E+02  0.47000000000E+01 0. -1.
        -11    1    1    2    0    0 -0.15023155358E+02 -0.19324894945E+02 -0.49922561040E+01  0.24981380717E+02  0.00000000000E+00 0.  1.
         11    1    1    2    0    0 -0.12585248125E+02  0.86781743728E+02 -0.92607608205E+02  0.12753677357E+03  0.00000000000E+00 0. -1.
<mgrwt>
<rscale>  0 0.13727189E+03</rscale>
<asrwt>0</asrwt>
<pdfrwt beam="2">  1        2 0.29239023E-01 0.14469887E+03</pdfrwt>
<pdfrwt beam="1">  1       -2 0.16614714E-01 0.14469887E+03</pdfrwt>
<totfact> 0.49940880E+03</totfact>
</mgrwt>
</event>
<event>
 7    1  0.4230786E-006  0.1374474E+03  0.7546771E-02  0.1228251E+00
          2   -1    0    0  501    0  0.00000000000E+00  0.00000000000E+00  0.51684444048E+03  0.51684444048E+03  0.00000000000E+00 0. -1.
         -2   -1    0    0    0  501 -0.00000000000E+00 -0.00000000000E+00 -0.31965769332E+02  0.31965769332E+02  0.00000000000E+00 0.  1.
         23    2    1    2    0    0  0.40870146194E+02 -0.39962321276E+02  0.34918740428E+03  0.37526475152E+03  0.12499773779E+03 0.  0.
          5    1    3    3  502    0  0.57523946816E+02  0.24590419529E+02  0.10709936753E+03  0.12412114129E+03  0.47000000000E+01 0. -1.
         -5    1    3    3    0  502 -0.16653800622E+02 -0.64552740805E+02  0.24208803675E+03  0.25114361023E+03  0.47000000000E+01 0. -1.
        -11    1    1    2    0    0 -0.31603963932E+02  0.44557202951E+02  0.14782858329E+03  0.15759900034E+03  0.00000000000E+00 0. -1.
         11    1    1    2    0    0 -0.92661822620E+01 -0.45948816757E+01 -0.12137316421E+02  0.15946457953E+02  0.00000000000E+00 0.  1.
<mgrwt>
<rscale>  0 0.12946520E+03</rscale>
<asrwt>0</asrwt>
<pdfrwt beam="1">  1        2 0.79514523E-01 0.13744741E+03</pdfrwt>
<pdfrwt beam="2">  1       -2 0.49178111E-02 0.13744741E+03</pdfrwt>
<totfact> 0.11453659E+04</totfact>
</mgrwt>
</event>
<event>
 7    1  0.4230786E-006  0.1343513E+03  0.7546771E-02  0.1234424E+00
         -2   -1    0    0    0  501 -0.00000000000E+00  0.00000000000E+00  0.63560240812E+02  0.63560240812E+02  0.00000000000E+00 0.  1.
          2   -1    0    0  501    0  0.00000000000E+00 -0.00000000000E+00 -0.22300128895E+03  0.22300128895E+03  0.00000000000E+00 0. -1.
         23    2    1    2    0    0 -0.36465443596E+02 -0.33063580340E+02 -0.73317272012E+02  0.15305458395E+03  0.12500941713E+03 0.  0.
          5    1    3    3  502    0 -0.20863389658E+01  0.46408117495E+02 -0.34452800514E+02  0.58027162976E+02  0.47000000000E+01 0. -1.
         -5    1    3    3    0  502 -0.34379104630E+02 -0.79471697836E+02 -0.38864471498E+02  0.95027420973E+02  0.47000000000E+01 0. -1.
        -11    1    1    2    0    0  0.17327025676E+02  0.29313074384E+01 -0.95091232200E+02  0.96701400318E+02  0.00000000000E+00 0. -1.
         11    1    1    2    0    0  0.19138417920E+02  0.30132272902E+02  0.89674560745E+01  0.36805545495E+02  0.00000000000E+00 0.  1.
<mgrwt>
<rscale>  0 0.12541404E+03</rscale>
<asrwt>0</asrwt>
<pdfrwt beam="2">  1        2 0.34307891E-01 0.13435134E+03</pdfrwt>
<pdfrwt beam="1">  1       -2 0.97784986E-02 0.13435134E+03</pdfrwt>
<totfact> 0.98106253E+03</totfact>
</mgrwt>
</event>
<event>
 7    1  0.4230786E-006  0.1708972E+03  0.7546771E-02  0.1186283E+00
          2   -1    0    0  501    0  0.00000000000E+00  0.00000000000E+00  0.10672603390E+03  0.10672603390E+03  0.00000000000E+00 0. -1.
         -2   -1    0    0    0  501 -0.00000000000E+00 -0.00000000000E+00 -0.22617676810E+03  0.22617676810E+03  0.00000000000E+00 0.  1.
         23    2    1    2    0    0  0.59442298751E+02 -0.10023969495E+03 -0.81110985496E+02  0.18916883851E+03  0.12499789667E+03 0.  0.
          5    1    3    3  502    0  0.84615476464E+02 -0.33720420185E+02 -0.74159475763E+02  0.11755238594E+03  0.47000000000E+01 0.  1.
         -5    1    3    3    0  502 -0.25173177713E+02 -0.66519274767E+02 -0.69515097331E+01  0.71616452573E+02  0.47000000000E+01 0.  1.
        -11    1    1    2    0    0 -0.45752509750E+02  0.16860375789E+02 -0.33382917197E+02  0.59093007884E+02  0.00000000000E+00 0.  1.
         11    1    1    2    0    0 -0.13689789001E+02  0.83379319162E+02 -0.49568315027E+01  0.84640955603E+02  0.00000000000E+00 0. -1.
<mgrwt>
<rscale>  0 0.16215645E+03</rscale>
<asrwt>0</asrwt>
<pdfrwt beam="1">  1        2 0.16419390E-01 0.17089721E+03</pdfrwt>
<pdfrwt beam="2">  1       -2 0.34796426E-01 0.17089721E+03</pdfrwt>
<totfact> 0.26522981E+03</totfact>
</mgrwt>
</event>
<event>
 7    1  0.4230786E-006  0.1437914E+03  0.7546771E-02  0.1220785E+00
         -3   -1    0    0    0  501 -0.00000000000E+00  0.00000000000E+00  0.42338779815E+03  0.42338779815E+03  0.00000000000E+00 0.  1.
          3   -1    0    0  501    0  0.00000000000E+00 -0.00000000000E+00 -0.38516484321E+02  0.38516484321E+02  0.00000000000E+00 0. -1.
         23    2    1    2    0    0 -0.70990172166E+02 -0.31366448898E+01  0.19525937353E+03  0.24249164319E+03  0.12500612376E+03 0.  0.
          5    1    3    3  502    0 -0.39647688813E+02  0.31968678043E+02  0.11075607143E+02  0.52332539377E+02  0.47000000000E+01 0. -1.
         -5    1    3    3    0  502 -0.31342483352E+02 -0.35105322933E+02  0.18418376639E+03  0.19015910381E+03  0.47000000000E+01 0. -1.
        -11    1    1    2    0    0  0.43729877732E+02 -0.33171723551E+02  0.14790581219E+03  0.15776182913E+03  0.00000000000E+00 0.  1.
         11    1    1    2    0    0  0.27260294434E+02  0.36308368441E+02  0.41706128111E+02  0.61650810161E+02  0.00000000000E+00 0. -1.
<mgrwt>
<rscale>  0 0.13460052E+03</rscale>
<asrwt>0</asrwt>
<pdfrwt beam="2">  1        3 0.59256133E-02 0.14379143E+03</pdfrwt>
<pdfrwt beam="1">  1       -3 0.65136581E-01 0.14379143E+03</pdfrwt>
<totfact> 0.93754338E+02</totfact>
</mgrwt>
</event>
<event>
 7    1  0.4230786E-006  0.1886712E+03  0.7546771E-02  0.1164323E+00
          2   -1    0    0  501    0  0.00000000000E+00  0.00000000000E+00  0.27561517737E+03  0.27561517737E+03  0.00000000000E+00 0. -1.
         -2   -1    0    0    0  501 -0.00000000000E+00 -0.00000000000E+00 -0.12875158822E+03  0.12875158822E+03  0.00000000000E+00 0.  1.
         23    2    1    2    0    0 -0.13767924119E+03 -0.31893577008E+02  0.14133206491E+02  0.18919978884E+03  0.12499615538E+03 0.  0.
          5    1    3    3  502    0 -0.10160664257E+03 -0.32201065699E+02 -0.48164080229E+02  0.11705847714E+03  0.47000000000E+01 0.  1.
         -5    1    3    3    0  502 -0.36072598623E+02  0.30748869104E+00  0.62297286720E+02  0.72141311697E+02  0.47000000000E+01 0.  1.
        -11    1    1    2    0    0  0.80788186157E+02  0.48535911344E+02  0.12322404696E+03  0.15513423691E+03  0.00000000000E+00 0. -1.
         11    1    1    2    0    0  0.56891055032E+02 -0.16642334336E+02  0.95063356899E+01  0.60032739843E+02  0.00000000000E+00 0.  1.
<mgrwt>
<rscale>  0 0.18364350E+03</rscale>
<asrwt>0</asrwt>
<pdfrwt beam="1">  1        2 0.42402335E-01 0.18867118E+03</pdfrwt>
<pdfrwt beam="2">  1       -2 0.19807937E-01 0.18867118E+03</pdfrwt>
<totfact> 0.25226384E+03</totfact>
</mgrwt>
</event>
<event>
 7    1  0.4230786E-006  0.2403145E+03  0.7546771E-02  0.1122672E+00
          2   -1    0    0  501    0  0.00000000000E+00  0.00000000000E+00  0.21452114293E+03  0.21452114293E+03  0.00000000000E+00 0. -1.
         -2   -1    0    0    0  501 -0.00000000000E+00 -0.00000000000E+00 -0.30966832178E+03  0.30966832178E+03  0.00000000000E+00 0.  1.
         23    2    1    2    0    0  0.17048014655E+03 -0.11428720220E+03 -0.16440885069E+03  0.29117234190E+03  0.12500407011E+03 0.  0.
          5    1    3    3  502    0  0.17955138253E+03 -0.12287631808E+03 -0.12818649132E+03  0.25256910949E+03  0.47000000000E+01 0.  1.
         -5    1    3    3    0  502 -0.90712359753E+01  0.85891158758E+01 -0.36222359372E+02  0.38603232405E+02  0.47000000000E+01 0.  1.
        -11    1    1    2    0    0 -0.75856135262E+02  0.41303783898E+02  0.73542849982E+02  0.11344032178E+03  0.00000000000E+00 0. -1.
         11    1    1    2    0    0 -0.94624011292E+02  0.72983418306E+02 -0.42811781374E+01  0.11957680104E+03  0.00000000000E+00 0.  1.
<mgrwt>
<rscale>  0 0.23572759E+03</rscale>
<asrwt>0</asrwt>
<pdfrwt beam="1">  1        2 0.33003253E-01 0.24031451E+03</pdfrwt>
<pdfrwt beam="2">  1       -2 0.47641280E-01 0.24031451E+03</pdfrwt>
<totfact> 0.66862880E+02</totfact>
</mgrwt>
</event>
<event>
 7    1  0.9164249E-006  0.1564580E+03  0.7546771E-02  0.1200720E+00
         -1   -1    0    0    0  501 -0.00000000000E+00  0.00000000000E+00  0.86627091810E+02  0.86627091810E+02  0.00000000000E+00 0.  1.
          1   -1    0    0  501    0  0.00000000000E+00 -0.00000000000E+00 -0.24880484771E+03  0.24880484771E+03  0.00000000000E+00 0. -1.
         23    2    1    2    0    0  0.88663179042E+02  0.31512502921E+02 -0.55121174877E+02  0.16588385352E+03  0.12499964712E+03 0.  0.
          5    1    3    3  502    0  0.14804491074E+02  0.57416490440E+02  0.14280761852E+02  0.61170715947E+02  0.47000000000E+01 0.  1.
         -5    1    3    3    0  502  0.73858687968E+02 -0.25903987519E+02 -0.69401936729E+02  0.10471313757E+03  0.47000000000E+01 0.  1.
        -11    1    1    2    0    0 -0.42644145190E+02 -0.40447394271E+02 -0.10766782740E+03  0.12266570784E+03  0.00000000000E+00 0. -1.
         11    1    1    2    0    0 -0.46019033852E+02  0.89348913500E+01  0.61124638069E+00  0.46882378163E+02  0.00000000000E+00 0.  1.
<mgrwt>
<rscale>  0 0.14979883E+03</rscale>
<asrwt>0</asrwt>
<pdfrwt beam="2">  1        1 0.38277669E-01 0.15645801E+03</pdfrwt>
<pdfrwt beam="1">  1       -1 0.13327245E-01 0.15645801E+03</pdfrwt>
<totfact> 0.41768665E+03</totfact>
</mgrwt>
</event>
<event>
 6    1  0.4230786E-006  0.4239455E+03  0.7546771E-02  0.1074867E+00
          2   -1    0    0  501    0  0.00000000000E+00  0.00000000000E+00  0.14246107313E+03  0.14246107313E+03  0.00000000000E+00 0. -1.
         -2   -1    0    0    0  501 -0.00000000000E+00 -0.00000000000E+00 -0.69205700717E+03  0.69205700717E+03  0.00000000000E+00 0.  1.
          5    1    1    2  502    0  0.25611311940E+02  0.16283587575E+03 -0.81336936719E+02  0.18387291537E+03  0.47000000000E+01 0. -1.
         -5    1    1    2    0  502  0.80446767255E+02 -0.18602679464E+03 -0.46805117493E+03  0.51007023343E+03  0.47000000000E+01 0.  1.
        -11    1    1    2    0    0 -0.42787986595E+02 -0.24956582140E+02 -0.27325018174E+02  0.56571188844E+02  0.00000000000E+00 0.  1.
         11    1    1    2    0    0 -0.63270092599E+02  0.48147501022E+02  0.27117195778E+02  0.84003742649E+02  0.00000000000E+00 0. -1.
<mgrwt>
<rscale>  0 0.32170616E+03</rscale>
<asrwt>0</asrwt>
<pdfrwt beam="1">  1        2 0.21917089E-01 0.42394551E+03</pdfrwt>
<pdfrwt beam="2">  1       -2 0.10647031E+00 0.42394551E+03</pdfrwt>
<totfact> 0.18475913E+02</totfact>
</mgrwt>
</event>
<event>
 7    1  0.4230786E-006  0.1398961E+03  0.7546771E-02  0.1224222E+00
          3   -1    0    0  501    0  0.00000000000E+00  0.00000000000E+00  0.55779665931E+03  0.55779665931E+03  0.00000000000E+00 0. -1.
         -3   -1    0    0    0  501 -0.00000000000E+00 -0.00000000000E+00 -0.36765373159E+02  0.36765373159E+02  0.00000000000E+00 0.  1.
         23    2    1    2    0    0  0.51661237096E+02  0.36375131271E+02  0.14153931962E+03  0.19900827082E+03  0.12481538072E+03 0.  0.
          5    1    3    3  502    0  0.86068822382E+02  0.63698635555E+01  0.59264662271E+02  0.10479889094E+03  0.47000000000E+01 0.  1.
         -5    1    3    3    0  502 -0.34407585287E+02  0.30005267716E+02  0.82274657347E+02  0.94209379880E+02  0.47000000000E+01 0.  1.
        -11    1    1    2    0    0  0.25443809511E+01 -0.49576811850E+02  0.24447876428E+03  0.24946783426E+03  0.00000000000E+00 0.  1.
         11    1    1    2    0    0 -0.54205618047E+02  0.13201680579E+02  0.13501320225E+03  0.14608592739E+03  0.00000000000E+00 0. -1.
<mgrwt>
<rscale>  0 0.13220392E+03</rscale>
<asrwt>0</asrwt>
<pdfrwt beam="1">  1        3 0.85814865E-01 0.13989608E+03</pdfrwt>
<pdfrwt beam="2">  1       -3 0.56562116E-02 0.13989608E+03</pdfrwt>
<totfact> 0.55747639E+02</totfact>
</mgrwt>
</event>
<event>
 7    1  0.4230786E-006  0.2117468E+03  0.7546771E-02  0.1143816E+00
          2   -1    0    0  501    0  0.00000000000E+00  0.00000000000E+00  0.21245740941E+03  0.21245740941E+03  0.00000000000E+00 0. -1.
         -2   -1    0    0    0  501 -0.00000000000E+00 -0.00000000000E+00 -0.26323573447E+03  0.26323573447E+03  0.00000000000E+00 0.  1.
         23    2    1    2    0    0  0.12955735862E+03  0.11147431479E+03 -0.14828166151E+03  0.25850371936E+03  0.12500035900E+03 0.  0.
          5    1    3    3  502    0  0.98744267579E+02  0.11435871702E+03 -0.56243092614E+02  0.16128769948E+03  0.47000000000E+01 0. -1.
         -5    1    3    3    0  502  0.30813091045E+02 -0.28844022285E+01 -0.92038568899E+02  0.97216019878E+02  0.47000000000E+01 0. -1.
        -11    1    1    2    0    0 -0.34714677311E+02 -0.85186643767E+02  0.68163693630E+02  0.11449088272E+03  0.00000000000E+00 0. -1.
         11    1    1    2    0    0 -0.94842681313E+02 -0.26287671020E+02  0.29339642829E+02  0.10269854180E+03  0.00000000000E+00 0.  1.
<mgrwt>
<rscale>  0 0.20718294E+03</rscale>
<asrwt>0</asrwt>
<pdfrwt beam="1">  1        2 0.32685755E-01 0.21174683E+03</pdfrwt>
<pdfrwt beam="2">  1       -2 0.40497805E-01 0.21174683E+03</pdfrwt>
<totfact> 0.92538520E+02</totfact>
</mgrwt>
</event>
<event>
 7    1  0.4230786E-006  0.1267644E+03  0.7546771E-02  0.1247056E+00
         -2   -1    0    0    0  501 -0.00000000000E+00  0.00000000000E+00  0.53614169584E+02  0.53614169584E+02  0.00000000000E+00 0.  1.
          2   -1    0    0  501    0  0.00000000000E+00 -0.00000000000E+00 -0.22948199828E+03  0.22948199828E+03  0.00000000000E+00 0. -1.
         23    2    1    2    0    0  0.15500839875E+02 -0.14477949342E+02 -0.87044264857E+02  0.15377225258E+03  0.12497725620E+03 0.  0.
          5    1    3    3  502    0  0.80831474005E+01 -0.60899313087E+02 -0.86901868793E+02  0.10652740683E+03  0.47000000000E+01 0. -1.
         -5    1    3    3    0  502  0.74176924749E+01  0.46421363745E+02 -0.14239606350E+00  0.47244845753E+02  0.47000000000E+01 0. -1.
        -11    1    1    2    0    0  0.32840395204E+02  0.20655906670E+02 -0.63472123829E+02  0.74389976078E+02  0.00000000000E+00 0.  1.
         11    1    1    2    0    0 -0.48341235079E+02 -0.61779573276E+01 -0.25351440010E+02  0.54933939203E+02  0.00000000000E+00 0. -1.
<mgrwt>
<rscale>  0 0.11763160E+03</rscale>
<asrwt>0</asrwt>
<pdfrwt beam="2">  1        2 0.35304923E-01 0.12676435E+03</pdfrwt>
<pdfrwt beam="1">  1       -2 0.82483337E-02 0.12676435E+03</pdfrwt>
<totfact> 0.12341088E+04</totfact>
</mgrwt>
</event>
<event>
 7    1  0.4230786E-006  0.1417961E+03  0.7546771E-02  0.1222323E+00
         -1   -1    0    0    0  501 -0.00000000000E+00  0.00000000000E+00  0.51707714699E+02  0.51707714699E+02  0.00000000000E+00 0.  1.
          1   -1    0    0  501    0  0.00000000000E+00 -0.00000000000E+00 -0.31228817319E+03  0.31228817319E+03  0.00000000000E+00 0. -1.
         23    2    1    2    0    0 -0.30953341140E+02  0.59278272656E+02 -0.13083588726E+03  0.19293563887E+03  0.12503642834E+03 0.  0.
          5    1    3    3  502    0 -0.45477164660E+02 -0.14384987748E+02 -0.75641289024E+01  0.48522226084E+02  0.47000000000E+01 0. -1.
         -5    1    3    3    0  502  0.14523823521E+02  0.73663260404E+02 -0.12327175836E+03  0.14441341279E+03  0.47000000000E+01 0. -1.
        -11    1    1    2    0    0  0.30052162753E+02 -0.37243223125E+02 -0.94742882028E+01  0.48784754707E+02  0.00000000000E+00 0.  1.
         11    1    1    2    0    0  0.90117838706E+00 -0.22035049531E+02 -0.12027028303E+03  0.12227549431E+03  0.00000000000E+00 0. -1.
<mgrwt>
<rscale>  0 0.13352056E+03</rscale>
<asrwt>0</asrwt>
<pdfrwt beam="2">  1        1 0.48044334E-01 0.14179609E+03</pdfrwt>
<pdfrwt beam="1">  1       -1 0.79550331E-02 0.14179609E+03</pdfrwt>
<totfact> 0.69106302E+03</totfact>
</mgrwt>
</event>
<event>
 7    1  0.4230786E-006  0.1303908E+03  0.7546771E-02  0.1240753E+00
         -3   -1    0    0    0  501 -0.00000000000E+00  0.00000000000E+00  0.10046002256E+03  0.10046002256E+03  0.00000000000E+00 0.  1.
          3   -1    0    0  501    0  0.00000000000E+00 -0.00000000000E+00 -0.13286259409E+03  0.13286259409E+03  0.00000000000E+00 0. -1.
         23    2    1    2    0    0  0.61550941808E+01 -0.36610370108E+02 -0.12024416436E+01  0.13039633662E+03  0.12499421728E+03 0.  0.
          5    1    3    3  502    0  0.37001772105E+02  0.23774321681E+02 -0.33166885235E+02  0.55285457279E+02  0.47000000000E+01 0. -1.
         -5    1    3    3    0  502 -0.30846677924E+02 -0.60384691789E+02  0.31964443592E+02  0.75110879342E+02  0.47000000000E+01 0. -1.
        -11    1    1    2    0    0  0.27267504874E+02 -0.15043118902E+02 -0.27072833988E+02  0.41264398560E+02  0.00000000000E+00 0.  1.
         11    1    1    2    0    0 -0.33422599054E+02  0.51653489010E+02 -0.41272959045E+01  0.61661881466E+02  0.00000000000E+00 0. -1.
<mgrwt>
<rscale>  0 0.12143229E+03</rscale>
<asrwt>0</asrwt>
<pdfrwt beam="2">  1        3 0.20440399E-01 0.13039079E+03</pdfrwt>
<pdfrwt beam="1">  1       -3 0.15455388E-01 0.13039079E+03</pdfrwt>
<totfact> 0.17347067E+03</totfact>
</mgrwt>
</event>
<event>
 7    1  0.4230786E-006  0.1665152E+03  0.7546771E-02  0.1188063E+00
         -1   -1    0    0    0  501 -0.00000000000E+00  0.00000000000E+00  0.24853173144E+02  0.24853173144E+02  0.00000000000E+00 0.  1.
          1   -1    0    0  501    0  0.00000000000E+00 -0.00000000000E+00 -0.10069615822E+04  0.10069615822E+04  0.00000000000E+00 0. -1.
         23    2    1    2    0    0 -0.23419339418E+02 -0.10749024778E+03 -0.62455827435E+03  0.64637476782E+03  0.12499873437E+03 0.  0.
          5    1    3    3  502    0 -0.12001363876E+02  0.20235594158E+02 -0.23509998509E+03  0.23632097874E+03  0.47000000000E+01 0. -1.
         -5    1    3    3    0  502 -0.11417975542E+02 -0.12772584194E+03 -0.38945828926E+03  0.41005378908E+03  0.47000000000E+01 0. -1.
        -11    1    1    2    0    0  0.27788640754E+02 -0.13305710201E+01 -0.33319536666E+02  0.43407032815E+02  0.00000000000E+00 0.  1.
         11    1    1    2    0    0 -0.43693013357E+01  0.10882081880E+03 -0.32423059800E+03  0.34203295466E+03  0.00000000000E+00 0. -1.
<mgrwt>
<rscale>  0 0.16056246E+03</rscale>
<asrwt>0</asrwt>
<pdfrwt beam="2">  1        1 0.15491719E+00 0.16651517E+03</pdfrwt>
<pdfrwt beam="1">  1       -1 0.38235646E-02 0.16651517E+03</pdfrwt>
<totfact> 0.40984143E+03</totfact>
</mgrwt>
</event>
<event>
 7    1  0.4230786E-006  0.1374471E+03  0.7546771E-02  0.1228638E+00
          2   -1    0    0  501    0  0.00000000000E+00  0.00000000000E+00  0.75864518361E+03  0.75864518361E+03  0.00000000000E+00 0. -1.
         -2   -1    0    0    0  501 -0.00000000000E+00 -0.00000000000E+00 -0.21403451979E+02  0.21403451979E+02  0.00000000000E+00 0.  1.
         23    2    1    2    0    0  0.32682419420E+02 -0.46834463107E+02  0.30263880320E+03  0.33238823786E+03  0.12502035032E+03 0.  0.
          5    1    3    3  502    0 -0.28465477590E+02 -0.10332865243E+02  0.11666200785E+02  0.32790879209E+02  0.47000000000E+01 0. -1.
         -5    1    3    3    0  502  0.61147897010E+02 -0.36501597864E+02  0.29097260241E+03  0.29959735865E+03  0.47000000000E+01 0. -1.
        -11    1    1    2    0    0 -0.78403467226E+01  0.66637823991E+02  0.36545513769E+03  0.37156362616E+03  0.00000000000E+00 0. -1.
         11    1    1    2    0    0 -0.24842072697E+02 -0.19803360884E+02  0.69147790742E+02  0.76096771566E+02  0.00000000000E+00 0.  1.
<mgrwt>
<rscale>  0 0.12920632E+03</rscale>
<asrwt>0</asrwt>
<pdfrwt beam="1">  1        2 0.11671462E+00 0.13744706E+03</pdfrwt>
<pdfrwt beam="2">  1       -2 0.32928394E-02 0.13744706E+03</pdfrwt>
<totfact> 0.13353553E+04</totfact>
</mgrwt>
</event>
<event>
 7    1  0.4230786E-006  0.1317357E+03  0.7546771E-02  0.1242602E+00
          2   -1    0    0  501    0  0.00000000000E+00  0.00000000000E+00  0.87680068532E+02  0.87680068532E+02  0.00000000000E+00 0. -1.
         -2   -1    0    0    0  501 -0.00000000000E+00 -0.00000000000E+00 -0.14473023758E+03  0.14473023758E+03  0.00000000000E+00 0.  1.
         23    2    1    2    0    0  0.38679575147E+02  0.15284691774E+02 -0.48576174666E+02  0.14040630149E+03  0.12499821365E+03 0.  0.
          5    1    3    3  502    0  0.13432416511E+02  0.54725831887E+02 -0.68906729565E+02  0.89137948531E+02  0.47000000000E+01 0. -1.
         -5    1    3    3    0  502  0.25247158637E+02 -0.39441140113E+02  0.20330554899E+02  0.51268352959E+02  0.47000000000E+01 0. -1.
        -11    1    1    2    0    0 -0.13158828736E+02  0.17345974211E+02 -0.36138519501E+02  0.42190403965E+02  0.00000000000E+00 0.  1.
         11    1    1    2    0    0 -0.25520746412E+02 -0.32630665984E+02  0.27664525120E+02  0.49813600654E+02  0.00000000000E+00 0. -1.
<mgrwt>
<rscale>  0 0.12030030E+03</rscale>
<asrwt>0</asrwt>
<pdfrwt beam="1">  1        2 0.13489241E-01 0.13173566E+03</pdfrwt>
<pdfrwt beam="2">  1       -2 0.22266190E-01 0.13173566E+03</pdfrwt>
<totfact> 0.72843651E+03</totfact>
</mgrwt>
</event>
<event>
 7    1  0.4230786E-006  0.1772210E+03  0.7546771E-02  0.1176152E+00
         -2   -1    0    0    0  501 -0.00000000000E+00  0.00000000000E+00  0.17765914645E+02  0.17765914645E+02  0.00000000000E+00 0.  1.
          2   -1    0    0  501    0  0.00000000000E+00 -0.00000000000E+00 -0.15934437290E+04  0.15934437290E+04  0.00000000000E+00 0. -1.
         23    2    1    2    0    0  0.56787045959E+02  0.11199847092E+03 -0.72376582189E+03  0.74514714026E+03  0.12505546619E+03 0.  0.
          5    1    3    3  502    0 -0.37425609544E+02  0.39187187384E+02 -0.16216861961E+03  0.17104696165E+03  0.47000000000E+01 0.  1.
         -5    1    3    3    0  502  0.94212655503E+02  0.72811283539E+02 -0.56159720228E+03  0.57410017861E+03  0.47000000000E+01 0.  1.
        -11    1    1    2    0    0 -0.80606840331E+02 -0.10209496174E+03 -0.71812759913E+03  0.72981373826E+03  0.00000000000E+00 0.  1.
         11    1    1    2    0    0  0.23819794372E+02 -0.99035091858E+01 -0.13378439338E+03  0.13624876517E+03  0.00000000000E+00 0. -1.
<mgrwt>
<rscale>  0 0.17163666E+03</rscale>
<asrwt>0</asrwt>
<pdfrwt beam="2">  1        2 0.24514525E+00 0.17722104E+03</pdfrwt>
<pdfrwt beam="1">  1       -2 0.27332169E-02 0.17722104E+03</pdfrwt>
<totfact> 0.58692516E+03</totfact>
</mgrwt>
</event>
<event>
 7    1  0.4230786E-006  0.1566513E+03  0.7546771E-02  0.1200522E+00
          1   -1    0    0  501    0  0.00000000000E+00  0.00000000000E+00  0.28489347677E+03  0.28489347677E+03  0.00000000000E+00 0. -1.
         -1   -1    0    0    0  501 -0.00000000000E+00 -0.00000000000E+00 -0.17229198394E+03  0.17229198394E+03  0.00000000000E+00 0.  1.
         23    2    1    2    0    0 -0.79699469757E+02  0.50951523109E+02 -0.11497835087E+03  0.19431842101E+03  0.12486618593E+03 0.  0.
          5    1    3    3  502    0 -0.82323756166E+02  0.26277022999E+02 -0.10908707506E+02  0.87228279052E+02  0.47000000000E+01 0.  1.
         -5    1    3    3    0  502  0.26242864083E+01  0.24674500110E+02 -0.10406964336E+03  0.10709014196E+03  0.47000000000E+01 0.  1.
        -11    1    1    2    0    0  0.35342899712E+02  0.20981188577E+02  0.11481166638E+03  0.12194691292E+03  0.00000000000E+00 0. -1.
         11    1    1    2    0    0  0.44356570045E+02 -0.71932711685E+02  0.11276817732E+03  0.14092012678E+03  0.00000000000E+00 0.  1.
<mgrwt>
<rscale>  0 0.14996041E+03</rscale>
<asrwt>0</asrwt>
<pdfrwt beam="1">  1        1 0.43829766E-01 0.15665129E+03</pdfrwt>
<pdfrwt beam="2">  1       -1 0.26506459E-01 0.15665129E+03</pdfrwt>
<totfact> 0.11714092E+03</totfact>
</mgrwt>
</event>
<event>
 7    1  0.4230786E-006  0.1901193E+03  0.7546771E-02  0.1165610E+00
         -2   -1    0    0    0  501 -0.00000000000E+00  0.00000000000E+00  0.75010084592E+03  0.75010084592E+03  0.00000000000E+00 0.  1.
          2   -1    0    0  501    0  0.00000000000E+00 -0.00000000000E+00 -0.42657305437E+02  0.42657305437E+02  0.00000000000E+00 0. -1.
         23    2    1    2    0    0 -0.13645585807E+03 -0.43634240755E+02  0.45988504561E+03  0.49763398825E+03  0.12498473074E+03 0.  0.
          5    1    3    3  502    0 -0.64567356194E+02  0.18193524744E+01  0.58381306625E+02  0.87193580569E+02  0.47000000000E+01 0. -1.
         -5    1    3    3    0  502 -0.71888501880E+02 -0.45453593230E+02  0.40150373898E+03  0.41044040768E+03  0.47000000000E+01 0. -1.
        -11    1    1    2    0    0  0.37428155528E+02 -0.20274307791E+02  0.58755808301E+02  0.72554527025E+02  0.00000000000E+00 0.  1.
         11    1    1    2    0    0  0.99027702546E+02  0.63908548546E+02  0.18880268658E+03  0.22256963609E+03  0.00000000000E+00 0. -1.
<mgrwt>
<rscale>  0 0.18228441E+03</rscale>
<asrwt>0</asrwt>
<pdfrwt beam="2">  1        2 0.65626630E-02 0.19011925E+03</pdfrwt>
<pdfrwt beam="1">  1       -2 0.11540012E+00 0.19011925E+03</pdfrwt>
<totfact> 0.66362025E+02</totfact>
</mgrwt>
</event>
<event>
 7    1  0.4230786E-006  0.1273113E+03  0.7546771E-02  0.1245614E+00
          1   -1    0    0  501    0  0.00000000000E+00  0.00000000000E+00  0.19666526941E+02  0.19666526941E+02  0.00000000000E+00 0. -1.
         -1   -1    0    0    0  501 -0.00000000000E+00 -0.00000000000E+00 -0.64267925563E+03  0.64267925563E+03  0.00000000000E+00 0.  1.
         23    2    1    2    0    0  0.21849111914E+02  0.10320353043E+02 -0.31131347523E+03  0.33633946835E+03  0.12499705888E+03 0.  0.
          5    1    3    3  502    0 -0.13447803094E+02 -0.33617876444E+02 -0.24421394750E+02  0.43926069095E+02  0.47000000000E+01 0.  1.
         -5    1    3    3    0  502  0.35296915007E+02  0.43938229487E+02 -0.28689208048E+03  0.29241339925E+03  0.47000000000E+01 0.  1.
        -11    1    1    2    0    0  0.22811965936E+02 -0.36920629653E+02 -0.15052332924E+03  0.15665500735E+03  0.00000000000E+00 0. -1.
         11    1    1    2    0    0 -0.44661077850E+02  0.26600276611E+02 -0.16117592422E+03  0.16935130687E+03  0.00000000000E+00 0.  1.
<mgrwt>
<rscale>  0 0.11848720E+03</rscale>
<asrwt>0</asrwt>
<pdfrwt beam="1">  1        1 0.30256198E-02 0.12731126E+03</pdfrwt>
<pdfrwt beam="2">  1       -1 0.98873722E-01 0.12731126E+03</pdfrwt>
<totfact> 0.33339851E+03</totfact>
</mgrwt>
</event>
<event>
 7    1  0.4230786E-006  0.1651941E+03  0.7546771E-02  0.1189538E+00
         -2   -1    0    0    0  501 -0.00000000000E+00  0.00000000000E+00  0.58791833471E+02  0.58791833471E+02  0.00000000000E+00 0. -1.
          2   -1    0    0  501    0  0.00000000000E+00 -0.00000000000E+00 -0.44102282253E+03  0.44102282253E+03  0.00000000000E+00 0.  1.
         23    2    1    2    0    0  0.19818721161E+02 -0.10616919056E+03 -0.13078126853E+03  0.21069607615E+03  0.12499767027E+03 0.  0.
          5    1    3    3  502    0 -0.18685305854E+02  0.20224042990E+02 -0.45422088863E+02  0.53323622593E+02  0.47000000000E+01 0. -1.
         -5    1    3    3    0  502  0.38504027015E+02 -0.12639323355E+03 -0.85359179666E+02  0.15737245355E+03  0.47000000000E+01 0. -1.
        -11    1    1    2    0    0 -0.12396192511E+02  0.88352934696E+02 -0.25440262572E+03  0.26959340243E+03  0.00000000000E+00 0.  1.
         11    1    1    2    0    0 -0.74225286505E+01  0.17816255866E+02  0.29529051881E+01  0.19525177431E+02  0.00000000000E+00 0. -1.
<mgrwt>
<rscale>  0 0.15925756E+03</rscale>
<asrwt>0</asrwt>
<pdfrwt beam="2">  1        2 0.67849666E-01 0.16519412E+03</pdfrwt>
<pdfrwt beam="1">  1       -2 0.90448973E-02 0.16519412E+03</pdfrwt>
<totfact> 0.54217577E+03</totfact>
</mgrwt>
</event>
<event>
 7    1  0.4230786E-006  0.1642240E+03  0.7546771E-02  0.1190592E+00
          1   -1    0    0  501    0  0.00000000000E+00  0.00000000000E+00  0.60691390966E+03  0.60691390966E+03  0.00000000000E+00 0. -1.
         -1   -1    0    0    0  501 -0.00000000000E+00 -0.00000000000E+00 -0.40577011781E+02  0.40577011781E+02  0.00000000000E+00 0.  1.
         23    2    1    2    0    0 -0.24988135085E+02  0.10349119069E+03  0.23155132418E+03  0.28387589355E+03  0.12503868907E+03 0.  0.
          5    1    3    3  502    0 -0.51361480748E+01  0.85712202090E+02  0.48286018910E+02  0.98623482124E+02  0.47000000000E+01 0. -1.
         -5    1    3    3    0  502 -0.19851987010E+02  0.17778988597E+02  0.18326530527E+03  0.18525241143E+03  0.47000000000E+01 0. -1.
        -11    1    1    2    0    0 -0.68638660705E+01  0.79237685396E+01  0.12916101074E+01  0.10562529147E+02  0.00000000000E+00 0.  1.
         11    1    1    2    0    0  0.31852001155E+02 -0.11141495923E+03  0.33349396359E+03  0.35305249874E+03  0.00000000000E+00 0. -1.
<mgrwt>
<rscale>  0 0.15833248E+03</rscale>
<asrwt>0</asrwt>
<pdfrwt beam="1">  1        1 0.93371364E-01 0.16422395E+03</pdfrwt>
<pdfrwt beam="2">  1       -1 0.62426176E-02 0.16422395E+03</pdfrwt>
<totfact> 0.42588401E+03</totfact>
</mgrwt>
</event>
<event>
 6    1  0.4230786E-006  0.2321972E+03  0.7546771E-02  0.1160410E+00
         -3   -1    0    0    0  501 -0.00000000000E+00  0.00000000000E+00  0.40968021989E+02  0.40968021989E+02  0.00000000000E+00 0.  1.
          3   -1    0    0  501    0  0.00000000000E+00 -0.00000000000E+00 -0.71195267091E+03  0.71195267091E+03  0.00000000000E+00 0. -1.
          5    1    1    2  502    0  0.32049199717E+01 -0.50603468948E+02 -0.40659142238E+03  0.40976780905E+03  0.47000000000E+01 0. -1.
         -5    1    1    2    0  502 -0.17709595289E+02  0.11369403478E+02  0.27400771751E+02  0.34868114278E+02  0.47000000000E+01 0.  1.
        -11    1    1    2    0    0 -0.27063379591E+02  0.49405092277E+00 -0.30047155622E+02  0.40441342240E+02  0.00000000000E+00 0.  1.
         11    1    1    2    0    0  0.41568054909E+02  0.38740014547E+02 -0.26174684267E+03  0.26784342733E+03  0.00000000000E+00 0. -1.
<mgrwt>
<rscale>  0 0.18785551E+03</rscale>
<asrwt>0</asrwt>
<pdfrwt beam="2">  1        3 0.10953118E+00 0.23219723E+03</pdfrwt>
<pdfrwt beam="1">  1       -3 0.63027729E-02 0.23219723E+03</pdfrwt>
<totfact> 0.28678817E+02</totfact>
</mgrwt>
</event>
<event>
 7    1  0.4230786E-006  0.2247245E+03  0.7546771E-02  0.1133643E+00
         -3   -1    0    0    0  501 -0.00000000000E+00  0.00000000000E+00  0.29844301213E+03  0.29844301213E+03  0.00000000000E+00 0.  1.
          3   -1    0    0  501    0  0.00000000000E+00 -0.00000000000E+00 -0.19425506872E+03  0.19425506872E+03  0.00000000000E+00 0. -1.
         23    2    1    2    0    0 -0.14969057871E+03 -0.11165245847E+03  0.16216864813E+03  0.27712774146E+03  0.12501029483E+03 0.  0.
          5    1    3    3  502    0 -0.14060740170E+03 -0.54068030735E+02  0.15820866866E+03  0.21850827490E+03  0.47000000000E+01 0.  1.
         -5    1    3    3    0  502 -0.90831770091E+01 -0.57584427735E+02  0.39599794645E+01  0.58619466557E+02  0.47000000000E+01 0.  1.
        -11    1    1    2    0    0  0.10306192281E+03  0.12112306224E+03 -0.53433910239E+02  0.16777287893E+03  0.00000000000E+00 0.  1.
         11    1    1    2    0    0  0.46628655899E+02 -0.94706037710E+01 -0.45467944869E+01  0.47797460464E+02  0.00000000000E+00 0. -1.
<mgrwt>
<rscale>  0 0.22032238E+03</rscale>
<asrwt>0</asrwt>
<pdfrwt beam="2">  1        3 0.29885395E-01 0.22472453E+03</pdfrwt>
<pdfrwt beam="1">  1       -3 0.45914310E-01 0.22472453E+03</pdfrwt>
<totfact> 0.12644839E+02</totfact>
</mgrwt>
</event>
<event>
 7    1  0.4230786E-006  0.1525103E+03  0.7546771E-02  0.1205685E+00
         -1   -1    0    0    0  501 -0.00000000000E+00  0.00000000000E+00  0.52894805534E+02  0.52894805534E+02  0.00000000000E+00 0. -1.
          1   -1    0    0  501    0  0.00000000000E+00 -0.00000000000E+00 -0.37500912802E+03  0.37500912802E+03  0.00000000000E+00 0.  1.
         23    2    1    2    0    0 -0.85677815626E+02 -0.17251428504E+02 -0.15219202625E+03  0.21545717700E+03  0.12498432858E+03 0.  0.
          5    1    3    3  502    0 -0.35563474989E+01  0.44116417158E+01  0.21136429640E+02  0.22381886607E+02  0.47000000000E+01 0. -1.
         -5    1    3    3    0  502 -0.82121468127E+02 -0.21663070220E+02 -0.17332845589E+03  0.19307529039E+03  0.47000000000E+01 0. -1.
        -11    1    1    2    0    0  0.15169018588E+02 -0.31587311405E+02 -0.21756441029E+02  0.41245606954E+02  0.00000000000E+00 0.  1.
         11    1    1    2    0    0  0.70508797038E+02  0.48838739909E+02 -0.14816585521E+03  0.17120114961E+03  0.00000000000E+00 0. -1.
<mgrwt>
<rscale>  0 0.14583592E+03</rscale>
<asrwt>0</asrwt>
<pdfrwt beam="2">  1        1 0.57693713E-01 0.15251027E+03</pdfrwt>
<pdfrwt beam="1">  1       -1 0.81376622E-02 0.15251027E+03</pdfrwt>
<totfact> 0.53358206E+03</totfact>
</mgrwt>
</event>
<event>
 7    1  0.4230786E-006  0.1508003E+03  0.7546771E-02  0.1209907E+00
         -2   -1    0    0    0  501 -0.00000000000E+00  0.00000000000E+00  0.30369630468E+02  0.30369630468E+02  0.00000000000E+00 0.  1.
          2   -1    0    0  501    0  0.00000000000E+00 -0.00000000000E+00 -0.61492773687E+03  0.61492773687E+03  0.00000000000E+00 0. -1.
         23    2    1    2    0    0 -0.42468861658E+02  0.72868077641E+02 -0.28550112316E+03  0.32288019268E+03  0.12500946583E+03 0.  0.
          5    1    3    3  502    0 -0.62331382234E+02  0.74887175068E+02 -0.11349108987E+03  0.14965162104E+03  0.47000000000E+01 0.  1.
         -5    1    3    3    0  502  0.19862520576E+02 -0.20190974279E+01 -0.17201003329E+03  0.17322857163E+03  0.47000000000E+01 0.  1.
        -11    1    1    2    0    0 -0.30727901713E+01 -0.15233129896E+02 -0.11442837744E+01  0.15582030395E+02  0.00000000000E+00 0.  1.
         11    1    1    2    0    0  0.45541651830E+02 -0.57634947744E+02 -0.29791269947E+03  0.30683514427E+03  0.00000000000E+00 0. -1.
<mgrwt>
<rscale>  0 0.14257358E+03</rscale>
<asrwt>0</asrwt>
<pdfrwt beam="2">  1        2 0.94604268E-01 0.15080029E+03</pdfrwt>
<pdfrwt beam="1">  1       -2 0.46722508E-02 0.15080029E+03</pdfrwt>
<totfact> 0.10235441E+04</totfact>
</mgrwt>
</event>
<event>
 7    1  0.4230786E-006  0.1437770E+03  0.7546771E-02  0.1218605E+00
         -2   -1    0    0    0  501 -0.00000000000E+00  0.00000000000E+00  0.61581834080E+02  0.61581834080E+02  0.00000000000E+00 0.  1.
          2   -1    0    0  501    0  0.00000000000E+00 -0.00000000000E+00 -0.35960297976E+03  0.35960297976E+03  0.00000000000E+00 0. -1.
         23    2    1    2    0    0 -0.10897918083E+02 -0.70206649483E+02 -0.58502058009E+02  0.15522346480E+03  0.12499637988E+03 0.  0.
          5    1    3    3  502    0  0.51539818403E+02 -0.34755786680E+02  0.23239781994E+00  0.62341491781E+02  0.47000000000E+01 0.  1.
         -5    1    3    3    0  502 -0.62437736487E+02 -0.35450862804E+02 -0.58734455829E+02  0.92881973023E+02  0.47000000000E+01 0.  1.
        -11    1    1    2    0    0 -0.26840712047E+01  0.88462517633E+02 -0.15556581799E+03  0.17897917474E+03  0.00000000000E+00 0.  1.
         11    1    1    2    0    0  0.13581989288E+02 -0.18255868149E+02 -0.83953269684E+02  0.86982174297E+02  0.00000000000E+00 0. -1.
<mgrwt>
<rscale>  0 0.13614995E+03</rscale>
<asrwt>0</asrwt>
<pdfrwt beam="2">  1        2 0.55323536E-01 0.14377703E+03</pdfrwt>
<pdfrwt beam="1">  1       -2 0.94741282E-02 0.14377703E+03</pdfrwt>
<totfact> 0.62296852E+03</totfact>
</mgrwt>
</event>
<event>
 7    1  0.4230786E-006  0.1273810E+03  0.7546771E-02  0.1245523E+00
          2   -1    0    0  501    0  0.00000000000E+00  0.00000000000E+00  0.22824923125E+03  0.22824923125E+03  0.00000000000E+00 0.  1.
         -2   -1    0    0    0  501 -0.00000000000E+00 -0.00000000000E+00 -0.62585258457E+02  0.62585258457E+02  0.00000000000E+00 0. -1.
         23    2    1    2    0    0  0.21317012140E+02 -0.12148948737E+02  0.41089154522E+02  0.13384409041E+03  0.12499563975E+03 0.  0.
          5    1    3    3  502    0  0.70351546381E+02 -0.27622838500E+02  0.23199317325E+02  0.79200123796E+02  0.47000000000E+01 0.  1.
         -5    1    3    3    0  502 -0.49034534241E+02  0.15473889763E+02  0.17889837197E+02  0.54643966616E+02  0.47000000000E+01 0.  1.
        -11    1    1    2    0    0 -0.51888917697E+02 -0.73303134961E+01  0.10089118524E+03  0.11368915751E+03  0.00000000000E+00 0.  1.
         11    1    1    2    0    0  0.30571905557E+02  0.19479262233E+02  0.23683633024E+02  0.43301241781E+02  0.00000000000E+00 0. -1.
<mgrwt>
<rscale>  0 0.11854142E+03</rscale>
<asrwt>0</asrwt>
<pdfrwt beam="1">  1        2 0.35115266E-01 0.12738101E+03</pdfrwt>
<pdfrwt beam="2">  1       -2 0.96285014E-02 0.12738101E+03</pdfrwt>
<totfact> 0.97631797E+03</totfact>
</mgrwt>
</event>
<event>
 7    1  0.4230786E-006  0.1256266E+03  0.7546771E-02  0.1251575E+00
         -1   -1    0    0    0  501 -0.00000000000E+00  0.00000000000E+00  0.16559336976E+03  0.16559336976E+03  0.00000000000E+00 0.  1.
          1   -1    0    0  501    0  0.00000000000E+00 -0.00000000000E+00 -0.69170974367E+02  0.69170974367E+02  0.00000000000E+00 0. -1.
         23    2    1    2    0    0  0.20227208311E+01 -0.12398439618E+02  0.61579390143E+02  0.13990737435E+03  0.12499695757E+03 0.  0.
          5    1    3    3  502    0  0.36002433399E+01 -0.65396212209E+02  0.56158163367E+02  0.86402868217E+02  0.47000000000E+01 0.  1.
         -5    1    3    3    0  502 -0.15775225088E+01  0.52997772591E+02  0.54212267758E+01  0.53504506134E+02  0.47000000000E+01 0.  1.
        -11    1    1    2    0    0  0.13026298317E+02  0.53808150843E+01  0.61695692531E+02  0.63285038483E+02  0.00000000000E+00 0.  1.
         11    1    1    2    0    0 -0.15049019148E+02  0.70176245334E+01 -0.26852687281E+02  0.31571931294E+02  0.00000000000E+00 0. -1.
<mgrwt>
<rscale>  0 0.11500331E+03</rscale>
<asrwt>0</asrwt>
<pdfrwt beam="2">  1        1 0.10641688E-01 0.12562664E+03</pdfrwt>
<pdfrwt beam="1">  1       -1 0.25475903E-01 0.12562664E+03</pdfrwt>
<totfact> 0.74769976E+03</totfact>
</mgrwt>
</event>
<event>
 7    1  0.4230786E-006  0.1435598E+03  0.7546771E-02  0.1218909E+00
          2   -1    0    0  501    0  0.00000000000E+00  0.00000000000E+00  0.45245060774E+03  0.45245060774E+03  0.00000000000E+00 0. -1.
         -2   -1    0    0    0  501 -0.00000000000E+00 -0.00000000000E+00 -0.41675977108E+02  0.41675977108E+02  0.00000000000E+00 0.  1.
         23    2    1    2    0    0 -0.59863096674E+02 -0.37460530262E+02  0.14339618255E+03  0.20290857633E+03  0.12499017365E+03 0.  0.
          5    1    3    3  502    0  0.11196535059E+02  0.66220967163E+01 -0.17027575399E+02  0.21937248830E+02  0.47000000000E+01 0.  1.
         -5    1    3    3    0  502 -0.71059631733E+02 -0.44082626979E+02  0.16042375795E+03  0.18097132750E+03  0.47000000000E+01 0.  1.
        -11    1    1    2    0    0  0.31796732025E+02  0.59044265268E+02  0.10185059349E+03  0.12194589302E+03  0.00000000000E+00 0.  1.
         11    1    1    2    0    0  0.28066364649E+02 -0.21583735006E+02  0.16552785458E+03  0.16927211550E+03  0.00000000000E+00 0. -1.
<mgrwt>
<rscale>  0 0.13593280E+03</rscale>
<asrwt>0</asrwt>
<pdfrwt beam="1">  1        2 0.69607783E-01 0.14355983E+03</pdfrwt>
<pdfrwt beam="2">  1       -2 0.64116891E-02 0.14355983E+03</pdfrwt>
<totfact> 0.88974638E+03</totfact>
</mgrwt>
</event>
<event>
 7    1  0.4230786E-006  0.1264362E+03  0.7546771E-02  0.1247933E+00
         -1   -1    0    0    0  501 -0.00000000000E+00  0.00000000000E+00  0.15722753136E+03  0.15722753136E+03  0.00000000000E+00 0.  1.
          1   -1    0    0  501    0  0.00000000000E+00 -0.00000000000E+00 -0.12124472819E+03  0.12124472819E+03  0.00000000000E+00 0. -1.
         23    2    1    2    0    0  0.90239168812E+01  0.16732457750E+02  0.10357348604E+03  0.16344286656E+03  0.12499878961E+03 0.  0.
          5    1    3    3  502    0 -0.38910159982E+02 -0.73281963212E+01  0.10207122183E+03  0.10958251383E+03  0.47000000000E+01 0. -1.
         -5    1    3    3    0  502  0.47934076863E+02  0.24060654071E+02  0.15022642057E+01  0.53860352736E+02  0.47000000000E+01 0. -1.
        -11    1    1    2    0    0  0.12445123161E+02 -0.41520090113E+02 -0.69799006690E+02  0.82162645456E+02  0.00000000000E+00 0. -1.
         11    1    1    2    0    0 -0.21469040042E+02  0.24787632363E+02  0.22083238253E+01  0.32866747521E+02  0.00000000000E+00 0.  1.
<mgrwt>
<rscale>  0 0.11711531E+03</rscale>
<asrwt>0</asrwt>
<pdfrwt beam="2">  1        1 0.18653035E-01 0.12643616E+03</pdfrwt>
<pdfrwt beam="1">  1       -1 0.24188851E-01 0.12643616E+03</pdfrwt>
<totfact> 0.39337293E+03</totfact>
</mgrwt>
</event>
<event>
 7    1  0.4294907E-006  0.1493275E+03  0.7546771E-02  0.1210089E+00
          1   -1    0    0  501    0  0.00000000000E+00  0.00000000000E+00  0.79427793916E+03  0.79427793916E+03  0.00000000000E+00 0. -1.
         -1   -1    0    0    0  501 -0.00000000000E+00 -0.00000000000E+00 -0.24356561813E+02  0.24356561813E+02  0.00000000000E+00 0.  1.
         23    2    1    2    0    0 -0.80592005322E+02  0.13356315549E+02  0.34112776782E+03  0.37237999466E+03  0.12500097584E+03 0.  0.
          5    1    3    3  502    0 -0.94929402356E+02 -0.30628230341E+02  0.26479948348E+03  0.28300271443E+03  0.47000000000E+01 0. -1.
         -5    1    3    3    0  502  0.14337397034E+02  0.43984545890E+02  0.76328284339E+02  0.89377280228E+02  0.47000000000E+01 0. -1.
        -11    1    1    2    0    0  0.90730482861E+02  0.16209681230E+02  0.30924950697E+03  0.32269185277E+03  0.00000000000E+00 0.  1.
         11    1    1    2    0    0 -0.10138477539E+02 -0.29565996780E+02  0.11954410256E+03  0.12356265354E+03  0.00000000000E+00 0. -1.
<mgrwt>
<rscale>  0 0.14243515E+03</rscale>
<asrwt>0</asrwt>
<pdfrwt beam="1">  1        1 0.12219659E+00 0.14932751E+03</pdfrwt>
<pdfrwt beam="2">  1       -1 0.37471640E-02 0.14932751E+03</pdfrwt>
<totfact> 0.61445983E+03</totfact>
</mgrwt>
</event>
<event>
 7    1  0.4230786E-006  0.1300941E+03  0.7546771E-02  0.1240966E+00
         -3   -1    0    0    0  501 -0.00000000000E+00  0.00000000000E+00  0.73049350361E+03  0.73049350361E+03  0.00000000000E+00 0.  1.
          3   -1    0    0  501    0  0.00000000000E+00 -0.00000000000E+00 -0.18141286715E+02  0.18141286715E+02  0.00000000000E+00 0. -1.
         23    2    1    2    0    0 -0.35177620015E+02  0.70979731653E+01  0.45134945185E+03  0.46972418321E+03  0.12504652910E+03 0.  0.
          5    1    3    3  502    0  0.26309551806E+02  0.30055054230E+02  0.32296161102E+03  0.32545628123E+03  0.47000000000E+01 0. -1.
         -5    1    3    3    0  502 -0.61487171821E+02 -0.22957081064E+02  0.12838784083E+03  0.14426790198E+03  0.47000000000E+01 0. -1.
        -11    1    1    2    0    0  0.55770780698E+02 -0.33124147494E+02  0.16254888440E+03  0.17501351076E+03  0.00000000000E+00 0.  1.
         11    1    1    2    0    0 -0.20593160683E+02  0.26026174329E+02  0.98453880650E+02  0.10389709636E+03  0.00000000000E+00 0. -1.
<mgrwt>
<rscale>  0 0.12130094E+03</rscale>
<asrwt>0</asrwt>
<pdfrwt beam="2">  1        3 0.27909677E-02 0.13009412E+03</pdfrwt>
<pdfrwt beam="1">  1       -3 0.11238359E+00 0.13009412E+03</pdfrwt>
<totfact> 0.90350655E+02</totfact>
</mgrwt>
</event>
<event>
 7    1  0.4230786E-006  0.1272377E+03  0.7546771E-02  0.1246750E+00
          2   -1    0    0  501    0  0.00000000000E+00  0.00000000000E+00  0.17536133937E+03  0.17536133937E+03  0.00000000000E+00 0. -1.
         -2   -1    0    0    0  501 -0.00000000000E+00 -0.00000000000E+00 -0.70133830772E+02  0.70133830772E+02  0.00000000000E+00 0.  1.
         23    2    1    2    0    0 -0.23503355046E+02  0.30941543104E+01  0.48846682265E+02  0.13629167590E+03  0.12500976386E+03 0.  0.
          5    1    3    3  502    0 -0.31525245845E+02 -0.31515216441E+02 -0.27054763198E+02  0.52355517423E+02  0.47000000000E+01 0.  1.
         -5    1    3    3    0  502  0.80218907994E+01  0.34609370751E+02  0.75901445463E+02  0.83936158473E+02  0.47000000000E+01 0.  1.
        -11    1    1    2    0    0  0.33102574651E+02 -0.12000660617E+02 -0.13794819979E+02  0.37816575229E+02  0.00000000000E+00 0.  1.
         11    1    1    2    0    0 -0.95992196049E+01  0.89065063068E+01  0.70175646313E+02  0.71386919019E+02  0.00000000000E+00 0. -1.
<mgrwt>
<rscale>  0 0.11781259E+03</rscale>
<asrwt>0</asrwt>
<pdfrwt beam="1">  1        2 0.26978667E-01 0.12723766E+03</pdfrwt>
<pdfrwt beam="2">  1       -2 0.10789820E-01 0.12723766E+03</pdfrwt>
<totfact> 0.10848666E+04</totfact>
</mgrwt>
</event>
<event>
 7    1  0.4230786E-006  0.1312014E+03  0.7546771E-02  0.1239212E+00
          2   -1    0    0  501    0  0.00000000000E+00  0.00000000000E+00  0.41280934588E+03  0.41280934588E+03  0.00000000000E+00 0. -1.
         -2   -1    0    0    0  501 -0.00000000000E+00 -0.00000000000E+00 -0.32982226703E+02  0.32982226703E+02  0.00000000000E+00 0.  1.
         23    2    1    2    0    0 -0.67759645140E+01  0.39261530646E+02  0.18123466198E+03  0.22374050105E+03  0.12500571036E+03 0.  0.
          5    1    3    3  502    0 -0.64586048365E+02  0.22110594141E+02  0.75234501993E+02  0.10169835941E+03  0.47000000000E+01 0.  1.
         -5    1    3    3    0  502  0.57810083851E+02  0.17150936505E+02  0.10600015999E+03  0.12204214164E+03  0.47000000000E+01 0.  1.
        -11    1    1    2    0    0 -0.39890876720E+02 -0.42395049361E+01  0.66785737836E+02  0.77907574894E+02  0.00000000000E+00 0. -1.
         11    1    1    2    0    0  0.46666841234E+02 -0.35022025709E+02  0.13180671936E+03  0.14414349664E+03  0.00000000000E+00 0.  1.
<mgrwt>
<rscale>  0 0.12238577E+03</rscale>
<asrwt>0</asrwt>
<pdfrwt beam="1">  1        2 0.63509126E-01 0.13120141E+03</pdfrwt>
<pdfrwt beam="2">  1       -2 0.50741890E-02 0.13120141E+03</pdfrwt>
<totfact> 0.13899578E+04</totfact>
</mgrwt>
</event>
<event>
 7    1  0.4230786E-006  0.1931077E+03  0.7546771E-02  0.1160281E+00
          1   -1    0    0  501    0  0.00000000000E+00  0.00000000000E+00  0.32486889703E+02  0.32486889703E+02  0.00000000000E+00 0. -1.
         -1   -1    0    0    0  501 -0.00000000000E+00 -0.00000000000E+00 -0.11534365362E+04  0.11534365362E+04  0.00000000000E+00 0.  1.
         23    2    1    2    0    0  0.95074159322E+02  0.11238751556E+03 -0.77793027342E+03  0.80153981937E+03  0.12498208794E+03 0.  0.
          5    1    3    3  502    0 -0.22050240231E+02  0.59045057640E+02 -0.29816170667E+03  0.30478685216E+03  0.47000000000E+01 0.  1.
         -5    1    3    3    0  502  0.11712439955E+03  0.53342457923E+02 -0.47976856675E+03  0.49675296721E+03  0.47000000000E+01 0.  1.
        -11    1    1    2    0    0 -0.83546325237E+02 -0.39057253777E+02 -0.24235513095E+03  0.25930959687E+03  0.00000000000E+00 0.  1.
         11    1    1    2    0    0 -0.11527834085E+02 -0.73330261786E+02 -0.10066424218E+03  0.12507400972E+03  0.00000000000E+00 0. -1.
<mgrwt>
<rscale>  0 0.18799645E+03</rscale>
<asrwt>0</asrwt>
<pdfrwt beam="1">  1        1 0.49979838E-02 0.19310767E+03</pdfrwt>
<pdfrwt beam="2">  1       -1 0.17745175E+00 0.19310767E+03</pdfrwt>
<totfact> 0.39691513E+02</totfact>
</mgrwt>
</event>
<event>
 7    1  0.4230786E-006  0.1312256E+03  0.7546771E-02  0.1238835E+00
          1   -1    0    0  501    0  0.00000000000E+00  0.00000000000E+00  0.63262518881E+02  0.63262518881E+02  0.00000000000E+00 0. -1.
         -1   -1    0    0    0  501 -0.00000000000E+00 -0.00000000000E+00 -0.27573201926E+03  0.27573201926E+03  0.00000000000E+00 0.  1.
         23    2    1    2    0    0 -0.10875331979E+02  0.38427169080E+02 -0.19853392275E+03  0.23798295332E+03  0.12500098967E+03 0.  0.
          5    1    3    3  502    0  0.26185943838E+02 -0.18266053430E+01 -0.17699417106E+03  0.17899180633E+03  0.47000000000E+01 0. -1.
         -5    1    3    3    0  502 -0.37061275817E+02  0.40253774423E+02 -0.21539751682E+02  0.58991146988E+02  0.47000000000E+01 0. -1.
        -11    1    1    2    0    0  0.27480377547E+02  0.23358445216E+02 -0.52622646676E+01  0.36448313301E+02  0.00000000000E+00 0.  1.
         11    1    1    2    0    0 -0.16605045568E+02 -0.61785614296E+02 -0.86733129667E+01  0.64563271525E+02  0.00000000000E+00 0. -1.
<mgrwt>
<rscale>  0 0.12262065E+03</rscale>
<asrwt>0</asrwt>
<pdfrwt beam="1">  1        1 0.97326950E-02 0.13122564E+03</pdfrwt>
<pdfrwt beam="2">  1       -1 0.42420312E-01 0.13122564E+03</pdfrwt>
<totfact> 0.35455929E+03</totfact>
</mgrwt>
</event>
<event>
 7    1  0.4714901E-006  0.1866602E+03  0.7546771E-02  0.1166885E+00
         -1   -1    0    0    0  501 -0.00000000000E+00  0.00000000000E+00  0.47551827977E+02  0.47551827977E+02  0.00000000000E+00 0.  1.
          1   -1    0    0  501    0  0.00000000000E+00 -0.00000000000E+00 -0.68751626927E+03  0.68751626927E+03  0.00000000000E+00 0. -1.
         23    2    1    2    0    0 -0.11878567246E+03  0.71460229810E+02 -0.25260730295E+03  0.31408993108E+03  0.12500173948E+03 0.  0.
          5    1    3    3  502    0 -0.10842237389E+03  0.75643801632E+01 -0.98026796724E+02  0.14643761089E+03  0.47000000000E+01 0.  1.
         -5    1    3    3    0  502 -0.10363298575E+02  0.63895849647E+02 -0.15458050623E+03  0.16765232019E+03  0.47000000000E+01 0.  1.
        -11    1    1    2    0    0  0.55987477974E+02 -0.12673629050E+02 -0.26663444043E+03  0.27274373207E+03  0.00000000000E+00 0. -1.
         11    1    1    2    0    0  0.62798194488E+02 -0.58786600760E+02 -0.12072269791E+03  0.14823443409E+03  0.00000000000E+00 0.  1.
<mgrwt>
<rscale>  0 0.18095231E+03</rscale>
<asrwt>0</asrwt>
<pdfrwt beam="2">  1        1 0.10577173E+00 0.18666021E+03</pdfrwt>
<pdfrwt beam="1">  1       -1 0.73156663E-02 0.18666021E+03</pdfrwt>
<totfact> 0.28267769E+03</totfact>
</mgrwt>
</event>
<event>
 7    1  0.4230786E-006  0.1439084E+03  0.7546771E-02  0.1219510E+00
          2   -1    0    0  501    0  0.00000000000E+00  0.00000000000E+00  0.11377112478E+03  0.11377112478E+03  0.00000000000E+00 0. -1.
         -2   -1    0    0    0  501 -0.00000000000E+00 -0.00000000000E+00 -0.15322236662E+03  0.15322236662E+03  0.00000000000E+00 0.  1.
         23    2    1    2    0    0 -0.49958008712E+02 -0.50900637514E+02 -0.52355186278E+02  0.15313616990E+03  0.12499177360E+03 0.  0.
          5    1    3    3  502    0 -0.78815354064E+02 -0.12967844306E+02  0.28344461467E+01  0.80063406792E+02  0.47000000000E+01 0. -1.
         -5    1    3    3    0  502  0.28857345353E+02 -0.37932793207E+02 -0.55189632424E+02  0.73072763109E+02  0.47000000000E+01 0. -1.
        -11    1    1    2    0    0  0.70659430416E+02  0.35466962497E+02 -0.95534769822E+01  0.79636232068E+02  0.00000000000E+00 0.  1.
         11    1    1    2    0    0 -0.20701421704E+02  0.15433675016E+02  0.22457421413E+02  0.34221089427E+02  0.00000000000E+00 0. -1.
<mgrwt>
<rscale>  0 0.13550427E+03</rscale>
<asrwt>0</asrwt>
<pdfrwt beam="1">  1        2 0.17503250E-01 0.14390838E+03</pdfrwt>
<pdfrwt beam="2">  1       -2 0.23572672E-01 0.14390838E+03</pdfrwt>
<totfact> 0.49003097E+03</totfact>
</mgrwt>
</event>
<event>
 7    1  0.4230786E-006  0.1297321E+03  0.7546771E-02  0.1242328E+00
          1   -1    0    0  501    0  0.00000000000E+00  0.00000000000E+00  0.33362986541E+03  0.33362986541E+03  0.00000000000E+00 0. -1.
         -1   -1    0    0    0  501 -0.00000000000E+00 -0.00000000000E+00 -0.38633698034E+02  0.38633698034E+02  0.00000000000E+00 0.  1.
         23    2    1    2    0    0 -0.23143653125E+02  0.26012583284E+02  0.15289346640E+03  0.20051643035E+03  0.12497257141E+03 0.  0.
          5    1    3    3  502    0 -0.45601303471E+02 -0.33905748482E+02  0.10826010131E+03  0.12235774677E+03  0.47000000000E+01 0. -1.
         -5    1    3    3    0  502  0.22457650346E+02  0.59918331766E+02  0.44633365088E+02  0.78158683585E+02  0.47000000000E+01 0. -1.
        -11    1    1    2    0    0 -0.28974690153E+02 -0.32249892609E+02  0.54747547156E+02  0.69834677363E+02  0.00000000000E+00 0.  1.
         11    1    1    2    0    0  0.52118343278E+02  0.62373093244E+01  0.87355153822E+02  0.10191245573E+03  0.00000000000E+00 0. -1.
<mgrwt>
<rscale>  0 0.12046720E+03</rscale>
<asrwt>0</asrwt>
<pdfrwt beam="1">  1        1 0.51327670E-01 0.12973213E+03</pdfrwt>
<pdfrwt beam="2">  1       -1 0.59436461E-02 0.12973213E+03</pdfrwt>
<totfact> 0.97918264E+03</totfact>
</mgrwt>
</event>
<event>
 7    1  0.4230786E-006  0.1416432E+03  0.7546771E-02  0.1225281E+00
          1   -1    0    0  501    0  0.00000000000E+00  0.00000000000E+00  0.11267741236E+03  0.11267741236E+03  0.00000000000E+00 0. -1.
         -1   -1    0    0    0  501 -0.00000000000E+00 -0.00000000000E+00 -0.17006474417E+03  0.17006474417E+03  0.00000000000E+00 0.  1.
         23    2    1    2    0    0  0.63591451985E+02  0.19907285894E+02 -0.95574984006E+02  0.17087240871E+03  0.12499051841E+03 0.  0.
          5    1    3    3  502    0  0.74435629332E+01 -0.31417908230E+02 -0.88506200328E+02  0.94328834845E+02  0.47000000000E+01 0.  1.
         -5    1    3    3    0  502  0.56147889052E+02  0.51325194124E+02 -0.70687836786E+01  0.76543573862E+02  0.47000000000E+01 0.  1.
        -11    1    1    2    0    0 -0.72317207571E+02 -0.39302810786E+02  0.22158508389E+02  0.85237837494E+02  0.00000000000E+00 0.  1.
         11    1    1    2    0    0  0.87257555861E+01  0.19395524892E+02  0.16029143816E+02  0.26631910330E+02  0.00000000000E+00 0. -1.
<mgrwt>
<rscale>  0 0.13147684E+03</rscale>
<asrwt>0</asrwt>
<pdfrwt beam="1">  1        1 0.17334987E-01 0.14164322E+03</pdfrwt>
<pdfrwt beam="2">  1       -1 0.26163807E-01 0.14164322E+03</pdfrwt>
<totfact> 0.38221635E+03</totfact>
</mgrwt>
</event>
<event>
 7    1  0.4230786E-006  0.1359589E+03  0.7546771E-02  0.1229209E+00
          1   -1    0    0  501    0  0.00000000000E+00  0.00000000000E+00  0.27714950397E+03  0.27714950397E+03  0.00000000000E+00 0. -1.
         -1   -1    0    0    0  501 -0.00000000000E+00 -0.00000000000E+00 -0.55889758724E+02  0.55889758724E+02  0.00000000000E+00 0.  1.
         23    2    1    2    0    0 -0.48965216791E+01 -0.61779297075E+02  0.95059346902E+02  0.16589481915E+03  0.12101303283E+03 0.  0.
          5    1    3    3  502    0 -0.35246978782E+02  0.24011475827E+02  0.43933608846E+02  0.61409709907E+02  0.47000000000E+01 0. -1.
         -5    1    3    3    0  502  0.30350457103E+02 -0.85790772902E+02  0.51125738056E+02  0.10448510924E+03  0.47000000000E+01 0.  1.
        -11    1    1    2    0    0  0.12572727975E+02 -0.57285173023E+01 -0.85404019491E+01  0.16242778847E+02  0.00000000000E+00 0.  1.
         11    1    1    2    0    0 -0.76762062955E+01  0.67507814378E+02  0.13474080030E+03  0.15090166470E+03  0.00000000000E+00 0. -1.
<mgrwt>
<rscale>  0 0.12882548E+03</rscale>
<asrwt>0</asrwt>
<pdfrwt beam="1">  1        1 0.42638384E-01 0.13595886E+03</pdfrwt>
<pdfrwt beam="2">  1       -1 0.85984246E-02 0.13595886E+03</pdfrwt>
<totfact> 0.71033019E+03</totfact>
</mgrwt>
</event>
<event>
 7    1  0.4230786E-006  0.1746124E+03  0.7546771E-02  0.1178988E+00
         -2   -1    0    0    0  501 -0.00000000000E+00  0.00000000000E+00  0.29366937462E+02  0.29366937462E+02  0.00000000000E+00 0. -1.
          2   -1    0    0  501    0  0.00000000000E+00 -0.00000000000E+00 -0.91631784436E+03  0.91631784436E+03  0.00000000000E+00 0.  1.
         23    2    1    2    0    0  0.41498112070E+02  0.11462738010E+03 -0.44502974696E+03  0.47805959719E+03  0.12501189230E+03 0.  0.
          5    1    3    3  502    0 -0.39077929419E+02  0.74058754021E+02 -0.19794787448E+03  0.21498194024E+03  0.47000000000E+01 0. -1.
         -5    1    3    3    0  502  0.80576041489E+02  0.40568626075E+02 -0.24708187247E+03  0.26307765695E+03  0.47000000000E+01 0. -1.
        -11    1    1    2    0    0 -0.24553929000E+02 -0.11413696588E+03 -0.43301320151E+03  0.44847583557E+03  0.00000000000E+00 0.  1.
         11    1    1    2    0    0 -0.16944183070E+02 -0.49041421741E+00 -0.89079584273E+01  0.19149349058E+02  0.00000000000E+00 0. -1.
<mgrwt>
<rscale>  0 0.16891166E+03</rscale>
<asrwt>0</asrwt>
<pdfrwt beam="2">  1        2 0.14097195E+00 0.17461244E+03</pdfrwt>
<pdfrwt beam="1">  1       -2 0.45179911E-02 0.17461244E+03</pdfrwt>
<totfact> 0.66434215E+03</totfact>
</mgrwt>
</event>
<event>
 7    1  0.4230786E-006  0.2271257E+03  0.7546771E-02  0.1131810E+00
         -2   -1    0    0    0  501 -0.00000000000E+00  0.00000000000E+00  0.31203159244E+03  0.31203159244E+03  0.00000000000E+00 0.  1.
          2   -1    0    0  501    0  0.00000000000E+00 -0.00000000000E+00 -0.16148902955E+03  0.16148902955E+03  0.00000000000E+00 0. -1.
         23    2    1    2    0    0  0.12949511802E+03  0.13852920680E+03  0.13122570924E+03  0.26230946103E+03  0.12500695921E+03 0.  0.
          5    1    3    3  502    0 -0.51006311690E+01  0.47574560485E+02 -0.74733575695E+01  0.48654869407E+02  0.47000000000E+01 0. -1.
         -5    1    3    3    0  502  0.13459574919E+03  0.90954646316E+02  0.13869906681E+03  0.21365459162E+03  0.47000000000E+01 0. -1.
        -11    1    1    2    0    0 -0.64917303895E+02 -0.92592560908E+01  0.10800137003E+02  0.66457754458E+02  0.00000000000E+00 0. -1.
         11    1    1    2    0    0 -0.64577814124E+02 -0.12926995071E+03  0.85167166439E+01  0.14475340651E+03  0.00000000000E+00 0.  1.
<mgrwt>
<rscale>  0 0.22280395E+03</rscale>
<asrwt>0</asrwt>
<pdfrwt beam="2">  1        2 0.24844466E-01 0.22712566E+03</pdfrwt>
<pdfrwt beam="1">  1       -2 0.48004860E-01 0.22712566E+03</pdfrwt>
<totfact> 0.90085101E+02</totfact>
</mgrwt>
</event>
<event>
 7    1  0.4230786E-006  0.1964408E+03  0.7546771E-02  0.1157107E+00
          1   -1    0    0  501    0  0.00000000000E+00  0.00000000000E+00  0.64703159107E+03  0.64703159107E+03  0.00000000000E+00 0. -1.
         -1   -1    0    0    0  501 -0.00000000000E+00 -0.00000000000E+00 -0.58644306414E+02  0.58644306414E+02  0.00000000000E+00 0.  1.
         23    2    1    2    0    0  0.11559242024E+03 -0.98032754492E+02  0.20891613093E+03  0.28676634711E+03  0.12496783388E+03 0.  0.
          5    1    3    3  502    0  0.53015795454E+02 -0.81159530050E+02  0.38554363869E+02  0.10443214476E+03  0.47000000000E+01 0.  1.
         -5    1    3    3    0  502  0.62576624785E+02 -0.16873224443E+02  0.17036176706E+03  0.18233420236E+03  0.47000000000E+01 0.  1.
        -11    1    1    2    0    0 -0.84745960451E+02  0.34045694117E+02  0.12564253021E+03  0.15532878837E+03  0.00000000000E+00 0.  1.
         11    1    1    2    0    0 -0.30846459789E+02  0.63987060375E+02  0.25382862352E+03  0.26358076200E+03  0.00000000000E+00 0. -1.
<mgrwt>
<rscale>  0 0.19150933E+03</rscale>
<asrwt>0</asrwt>
<pdfrwt beam="1">  1        1 0.99543317E-01 0.19644080E+03</pdfrwt>
<pdfrwt beam="2">  1       -1 0.90222015E-02 0.19644080E+03</pdfrwt>
<totfact> 0.22423924E+03</totfact>
</mgrwt>
</event>
<event>
 7    1  0.4230786E-006  0.1274507E+03  0.7546771E-02  0.1245723E+00
         -1   -1    0    0    0  501 -0.00000000000E+00  0.00000000000E+00  0.37673540954E+02  0.37673540954E+02  0.00000000000E+00 0. -1.
          1   -1    0    0  501    0  0.00000000000E+00 -0.00000000000E+00 -0.33143878096E+03  0.33143878096E+03  0.00000000000E+00 0.  1.
         23    2    1    2    0    0 -0.21799023038E+02 -0.11973665687E+02 -0.15052632601E+03  0.19723551112E+03  0.12500042380E+03 0.  0.
          5    1    3    3  502    0  0.56684442758E+01 -0.36037986539E+02  0.52605089625E+01  0.37156839059E+02  0.47000000000E+01 0.  1.
         -5    1    3    3    0  502 -0.27467467313E+02  0.24064320852E+02 -0.15578683497E+03  0.16007867206E+03  0.47000000000E+01 0.  1.
        -11    1    1    2    0    0 -0.47299348431E+01 -0.38058729200E+02 -0.56396400082E+02  0.68201122381E+02  0.00000000000E+00 0.  1.
         11    1    1    2    0    0  0.26528957881E+02  0.50032394886E+02 -0.86842513913E+02  0.10367568841E+03  0.00000000000E+00 0. -1.
<mgrwt>
<rscale>  0 0.11842216E+03</rscale>
<asrwt>0</asrwt>
<pdfrwt beam="2">  1        1 0.50990579E-01 0.12745067E+03</pdfrwt>
<pdfrwt beam="1">  1       -1 0.57959297E-02 0.12745067E+03</pdfrwt>
<totfact> 0.10234431E+04</totfact>
</mgrwt>
</event>
<event>
 7    1  0.4230786E-006  0.2775948E+03  0.7546771E-02  0.1098940E+00
          4   -1    0    0  501    0  0.00000000000E+00  0.00000000000E+00  0.84675724351E+02  0.84675724351E+02  0.00000000000E+00 0. -1.
         -4   -1    0    0    0  501 -0.00000000000E+00 -0.00000000000E+00 -0.89839808640E+03  0.89839808640E+03  0.00000000000E+00 0.  1.
         23    2    1    2    0    0  0.79180776210E+02 -0.23486953588E+03 -0.51007463263E+03  0.58071938800E+03  0.12500233014E+03 0.  0.
          5    1    3    3  502    0  0.66187098797E+02 -0.10341422157E+03 -0.13262424512E+03  0.18079411955E+03  0.47000000000E+01 0. -1.
         -5    1    3    3    0  502  0.12993677413E+02 -0.13145531431E+03 -0.37745038751E+03  0.39992526845E+03  0.47000000000E+01 0. -1.
        -11    1    1    2    0    0 -0.19047020981E+02  0.15237844860E+03 -0.22969216513E+03  0.27629779465E+03  0.00000000000E+00 0. -1.
         11    1    1    2    0    0 -0.60133755230E+02  0.82491087279E+02 -0.73955564287E+02  0.12605662810E+03  0.00000000000E+00 0.  1.
<mgrwt>
<rscale>  0 0.27412748E+03</rscale>
<asrwt>0</asrwt>
<pdfrwt beam="1">  1        4 0.13027034E-01 0.27759481E+03</pdfrwt>
<pdfrwt beam="2">  1       -4 0.13821509E+00 0.27759481E+03</pdfrwt>
<totfact> 0.34598972E+01</totfact>
</mgrwt>
</event>
<event>
 7    1  0.4230786E-006  0.1523097E+03  0.7546771E-02  0.1206050E+00
          2   -1    0    0  501    0  0.00000000000E+00  0.00000000000E+00  0.29301104296E+03  0.29301104296E+03  0.00000000000E+00 0. -1.
         -2   -1    0    0    0  501 -0.00000000000E+00 -0.00000000000E+00 -0.66958900848E+02  0.66958900848E+02  0.00000000000E+00 0.  1.
         23    2    1    2    0    0 -0.86773892179E+02  0.65756522447E+01  0.10956873503E+03  0.18762611839E+03  0.12500122016E+03 0.  0.
          5    1    3    3  502    0 -0.11479022586E+03 -0.97912926008E+01  0.65206557831E+02  0.13246377070E+03  0.47000000000E+01 0.  1.
         -5    1    3    3    0  502  0.28016333686E+02  0.16366944845E+02  0.44362177196E+02  0.55162347687E+02  0.47000000000E+01 0.  1.
        -11    1    1    2    0    0  0.71557957014E+02  0.55583949371E+01  0.20836272805E+02  0.74736786328E+02  0.00000000000E+00 0.  1.
         11    1    1    2    0    0  0.15215935165E+02 -0.12134047182E+02  0.95647134284E+02  0.97607039094E+02  0.00000000000E+00 0. -1.
<mgrwt>
<rscale>  0 0.14555044E+03</rscale>
<asrwt>0</asrwt>
<pdfrwt beam="1">  1        2 0.45078621E-01 0.15230973E+03</pdfrwt>
<pdfrwt beam="2">  1       -2 0.10301370E-01 0.15230973E+03</pdfrwt>
<totfact> 0.68142436E+03</totfact>
</mgrwt>
</event>
<event>
 7    1  0.4230786E-006  0.1376154E+03  0.7546771E-02  0.1227364E+00
          3   -1    0    0  501    0  0.00000000000E+00  0.00000000000E+00  0.31471441946E+03  0.31471441946E+03  0.00000000000E+00 0. -1.
         -3   -1    0    0    0  501 -0.00000000000E+00 -0.00000000000E+00 -0.66733393238E+02  0.66733393238E+02  0.00000000000E+00 0.  1.
         23    2    1    2    0    0  0.46013319015E+02 -0.34566902680E+02  0.35259732457E+02  0.14206067144E+03  0.12500355735E+03 0.  0.
          5    1    3    3  502    0 -0.12285370651E+02 -0.82666251213E+00 -0.39311477216E+02  0.41461981909E+02  0.47000000000E+01 0.  1.
         -5    1    3    3    0  502  0.58298689666E+02 -0.33740240168E+02  0.74571209673E+02  0.10059868953E+03  0.47000000000E+01 0.  1.
        -11    1    1    2    0    0 -0.60287653700E+02  0.51721994804E+02  0.11921809410E+03  0.14325752998E+03  0.00000000000E+00 0.  1.
         11    1    1    2    0    0  0.14274334686E+02 -0.17155092124E+02  0.93503199669E+02  0.96129611280E+02  0.00000000000E+00 0. -1.
<mgrwt>
<rscale>  0 0.13006185E+03</rscale>
<asrwt>0</asrwt>
<pdfrwt beam="1">  1        3 0.48417602E-01 0.13761535E+03</pdfrwt>
<pdfrwt beam="2">  1       -3 0.10266676E-01 0.13761535E+03</pdfrwt>
<totfact> 0.69780887E+02</totfact>
</mgrwt>
</event>
<event>
 6    1  0.4230786E-006  0.1908921E+03  0.7546771E-02  0.1184395E+00
          2   -1    0    0  501    0  0.00000000000E+00  0.00000000000E+00  0.46304138625E+03  0.46304138625E+03  0.00000000000E+00 0. -1.
         -2   -1    0    0    0  501 -0.00000000000E+00 -0.00000000000E+00 -0.11368721511E+03  0.11368721511E+03  0.00000000000E+00 0.  1.
          5    1    1    2  502    0 -0.92249030323E+01  0.87070715183E+02  0.38874275021E+02  0.95915105884E+02  0.47000000000E+01 0. -1.
         -5    1    1    2    0  502 -0.32374164176E+02 -0.67652110329E+02 -0.59963350618E+02  0.96138379201E+02  0.47000000000E+01 0.  1.
        -11    1    1    2    0    0  0.25965730144E+02 -0.56510755150E+02  0.25275524046E+03  0.26029386502E+03  0.00000000000E+00 0.  1.
         11    1    1    2    0    0  0.15633337064E+02  0.37092150297E+02  0.11768800628E+03  0.12438125125E+03  0.00000000000E+00 0. -1.
<mgrwt>
<rscale>  0 0.16387043E+03</rscale>
<asrwt>0</asrwt>
<pdfrwt beam="1">  1        2 0.71237135E-01 0.19089210E+03</pdfrwt>
<pdfrwt beam="2">  1       -2 0.17490341E-01 0.19089210E+03</pdfrwt>
<totfact> 0.17797567E+03</totfact>
</mgrwt>
</event>
<event>
 7    1  0.4230786E-006  0.2171966E+03  0.7546771E-02  0.1139568E+00
          2   -1    0    0  501    0  0.00000000000E+00  0.00000000000E+00  0.20564154805E+03  0.20564154805E+03  0.00000000000E+00 0. -1.
         -2   -1    0    0    0  501 -0.00000000000E+00 -0.00000000000E+00 -0.21130875213E+03  0.21130875213E+03  0.00000000000E+00 0.  1.
         23    2    1    2    0    0 -0.49092619058E+02  0.16974130730E+03  0.76613951924E+01  0.21733171457E+03  0.12630194191E+03 0.  0.
          5    1    3    3  502    0 -0.36571904047E+02  0.81086527147E+02 -0.57917636422E+02  0.10625004310E+03  0.47000000000E+01 0. -1.
         -5    1    3    3    0  502 -0.12520715011E+02  0.88654780154E+02  0.65579031615E+02  0.11108167147E+03  0.47000000000E+01 0. -1.
        -11    1    1    2    0    0  0.73543751871E+02 -0.14247062152E+03  0.87174084265E+00  0.16033502851E+03  0.00000000000E+00 0.  1.
         11    1    1    2    0    0 -0.24451132814E+02 -0.27270685778E+02 -0.14200340119E+02  0.39283557097E+02  0.00000000000E+00 0. -1.
<mgrwt>
<rscale>  0 0.21254334E+03</rscale>
<asrwt>0</asrwt>
<pdfrwt beam="1">  1        2 0.31637161E-01 0.21719663E+03</pdfrwt>
<pdfrwt beam="2">  1       -2 0.32509039E-01 0.21719663E+03</pdfrwt>
<totfact> 0.14488204E+03</totfact>
</mgrwt>
</event>
<event>
 7    1  0.4230786E-006  0.1582500E+03  0.7546771E-02  0.1199996E+00
          2   -1    0    0  501    0  0.00000000000E+00  0.00000000000E+00  0.25235000204E+03  0.25235000204E+03  0.00000000000E+00 0.  1.
         -2   -1    0    0    0  501 -0.00000000000E+00 -0.00000000000E+00 -0.81856821904E+02  0.81856821904E+02  0.00000000000E+00 0. -1.
         23    2    1    2    0    0  0.85237951170E+02 -0.46399772435E+02  0.89001067925E+02  0.18156058025E+03  0.12499842801E+03 0.  0.
          5    1    3    3  502    0 -0.99402294579E+01 -0.23560243790E+01 -0.24497710499E+02  0.26955274665E+02  0.47000000000E+01 0. -1.
         -5    1    3    3    0  502  0.95178180628E+02 -0.44043748056E+02  0.11349877842E+03  0.15460530558E+03  0.47000000000E+01 0. -1.
        -11    1    1    2    0    0 -0.68753948605E+02  0.33420951500E+01  0.81318247038E+02  0.10654075441E+03  0.00000000000E+00 0.  1.
         11    1    1    2    0    0 -0.16484002565E+02  0.43057677285E+02  0.17386517820E+00  0.46105489292E+02  0.00000000000E+00 0. -1.
<mgrwt>
<rscale>  0 0.15038926E+03</rscale>
<asrwt>0</asrwt>
<pdfrwt beam="1">  1        2 0.38823077E-01 0.15824997E+03</pdfrwt>
<pdfrwt beam="2">  1       -2 0.12593357E-01 0.15824997E+03</pdfrwt>
<totfact> 0.58143379E+03</totfact>
</mgrwt>
</event>
<event>
 7    1  0.4230786E-006  0.2536500E+03  0.7546771E-02  0.1113384E+00
          2   -1    0    0  501    0  0.00000000000E+00  0.00000000000E+00  0.13325902936E+03  0.13325902936E+03  0.00000000000E+00 0. -1.
         -2   -1    0    0    0  501 -0.00000000000E+00 -0.00000000000E+00 -0.55577092709E+03  0.55577092709E+03  0.00000000000E+00 0.  1.
         23    2    1    2    0    0 -0.89418176331E+02  0.20178078689E+03 -0.36301262499E+03  0.44285043268E+03  0.12500897410E+03 0.  0.
          5    1    3    3  502    0 -0.44074367125E+02  0.10230994619E+03 -0.29159818553E+03  0.31218819121E+03  0.47000000000E+01 0.  1.
         -5    1    3    3    0  502 -0.45343809206E+02  0.99470840695E+02 -0.71414439459E+02  0.13066224147E+03  0.47000000000E+01 0.  1.
        -11    1    1    2    0    0  0.99291785875E+02 -0.13847711286E+03 -0.63842860191E+02  0.18196340380E+03  0.00000000000E+00 0.  1.
         11    1    1    2    0    0 -0.98736095438E+01 -0.63303674034E+02  0.43435874500E+01  0.64216119967E+02  0.00000000000E+00 0. -1.
<mgrwt>
<rscale>  0 0.24987434E+03</rscale>
<asrwt>0</asrwt>
<pdfrwt beam="1">  1        2 0.20501389E-01 0.25365003E+03</pdfrwt>
<pdfrwt beam="2">  1       -2 0.85503219E-01 0.25365003E+03</pdfrwt>
<totfact> 0.33229083E+02</totfact>
</mgrwt>
</event>
<event>
 7    1  0.4230786E-006  0.1251273E+03  0.7546771E-02  0.1250660E+00
         -2   -1    0    0    0  501 -0.00000000000E+00  0.00000000000E+00  0.27220907554E+02  0.27220907554E+02  0.00000000000E+00 0.  1.
          2   -1    0    0  501    0  0.00000000000E+00 -0.00000000000E+00 -0.51224733747E+03  0.51224733747E+03  0.00000000000E+00 0. -1.
         23    2    1    2    0    0 -0.48080479282E+01  0.29332477572E+01 -0.16686752514E+03  0.20857042135E+03  0.12500051380E+03 0.  0.
          5    1    3    3  502    0 -0.63260667080E+02 -0.11049197799E+02 -0.77309711798E+02  0.10061251567E+03  0.47000000000E+01 0.  1.
         -5    1    3    3    0  502  0.58452619152E+02  0.13982445556E+02 -0.89557813339E+02  0.10795790568E+03  0.47000000000E+01 0.  1.
        -11    1    1    2    0    0  0.37134938093E+02  0.23452803963E+02 -0.21823890494E+03  0.22261459357E+03  0.00000000000E+00 0. -1.
         11    1    1    2    0    0 -0.32326890165E+02 -0.26386051720E+02 -0.99919999836E+02  0.10828323010E+03  0.00000000000E+00 0.  1.
<mgrwt>
<rscale>  0 0.11552901E+03</rscale>
<asrwt>0</asrwt>
<pdfrwt beam="2">  1        2 0.78807279E-01 0.12512733E+03</pdfrwt>
<pdfrwt beam="1">  1       -2 0.41878321E-02 0.12512733E+03</pdfrwt>
<totfact> 0.14598900E+04</totfact>
</mgrwt>
</event>
<event>
 7    1  0.4230786E-006  0.1431843E+03  0.7546771E-02  0.1219337E+00
         -1   -1    0    0    0  501 -0.00000000000E+00  0.00000000000E+00  0.42468464013E+03  0.42468464013E+03  0.00000000000E+00 0.  1.
          1   -1    0    0  501    0  0.00000000000E+00 -0.00000000000E+00 -0.44494185687E+02  0.44494185687E+02  0.00000000000E+00 0. -1.
         23    2    1    2    0    0 -0.22047210838E+02  0.66277101307E+02  0.28781774882E+03  0.32146665937E+03  0.12499209130E+03 0.  0.
          5    1    3    3  502    0 -0.44608861285E+02  0.50719404965E+02  0.55661082670E+02  0.87650753957E+02  0.47000000000E+01 0. -1.
         -5    1    3    3    0  502  0.22561650447E+02  0.15557696341E+02  0.23215666615E+03  0.23381590542E+03  0.47000000000E+01 0. -1.
        -11    1    1    2    0    0 -0.45173669809E+01 -0.68627937635E+02  0.98704067862E+02  0.12030250804E+03  0.00000000000E+00 0.  1.
         11    1    1    2    0    0  0.26564577819E+02  0.23508363280E+01 -0.63313622391E+01  0.27409658406E+02  0.00000000000E+00 0. -1.
<mgrwt>
<rscale>  0 0.13562714E+03</rscale>
<asrwt>0</asrwt>
<pdfrwt beam="2">  1        1 0.68452596E-02 0.14318434E+03</pdfrwt>
<pdfrwt beam="1">  1       -1 0.65336096E-01 0.14318434E+03</pdfrwt>
<totfact> 0.25688388E+03</totfact>
</mgrwt>
</event>
<event>
 7    1  0.4230786E-006  0.1700883E+03  0.7546771E-02  0.1178904E+00
         -2   -1    0    0    0  501 -0.00000000000E+00  0.00000000000E+00  0.13424002421E+03  0.13424002421E+03  0.00000000000E+00 0.  1.
          2   -1    0    0  501    0  0.00000000000E+00 -0.00000000000E+00 -0.25805131386E+03  0.25805131386E+03  0.00000000000E+00 0. -1.
         23    2    1    2    0    0  0.81261581879E+02  0.81857165938E+02  0.22045035501E+02  0.17151100590E+03  0.12500400493E+03 0.  0.
          5    1    3    3  502    0  0.22718331407E+02  0.62035007335E+01 -0.47448846703E+02  0.53179780526E+02  0.47000000000E+01 0. -1.
         -5    1    3    3    0  502  0.58543250472E+02  0.75653665204E+02  0.69493882204E+02  0.11833122537E+03  0.47000000000E+01 0. -1.
        -11    1    1    2    0    0 -0.10869130468E+03 -0.41192411601E+02 -0.10987443184E+03  0.15994688262E+03  0.00000000000E+00 0.  1.
         11    1    1    2    0    0  0.27429722803E+02 -0.40664754337E+02 -0.35981893306E+02  0.60833449551E+02  0.00000000000E+00 0. -1.
<mgrwt>
<rscale>  0 0.16899078E+03</rscale>
<asrwt>0</asrwt>
<pdfrwt beam="2">  1        2 0.39700202E-01 0.17008833E+03</pdfrwt>
<pdfrwt beam="1">  1       -2 0.20652311E-01 0.17008833E+03</pdfrwt>
<totfact> 0.25110875E+03</totfact>
</mgrwt>
</event>
<event>
 7    1  0.4230786E-006  0.1327661E+03  0.7546771E-02  0.1237364E+00
         -1   -1    0    0    0  501 -0.00000000000E+00  0.00000000000E+00  0.52571420411E+03  0.52571420411E+03  0.00000000000E+00 0.  1.
          1   -1    0    0  501    0  0.00000000000E+00 -0.00000000000E+00 -0.25731413398E+02  0.25731413398E+02  0.00000000000E+00 0. -1.
         23    2    1    2    0    0 -0.44480303545E+02 -0.48421102493E+01  0.27168425664E+03  0.30238910855E+03  0.12499957692E+03 0.  0.
          5    1    3    3  502    0 -0.64924627421E+02 -0.15082595142E+02  0.61187220072E+02  0.90601643595E+02  0.47000000000E+01 0. -1.
         -5    1    3    3    0  502  0.20444323875E+02  0.10240484893E+02  0.21049703657E+03  0.21178746496E+03  0.47000000000E+01 0. -1.
        -11    1    1    2    0    0  0.57249156142E+02 -0.26699398457E+02  0.17247953474E+03  0.18368318829E+03  0.00000000000E+00 0.  1.
         11    1    1    2    0    0 -0.12768852597E+02  0.31541508707E+02  0.55818999328E+02  0.65373320660E+02  0.00000000000E+00 0. -1.
<mgrwt>
<rscale>  0 0.12354316E+03</rscale>
<asrwt>0</asrwt>
<pdfrwt beam="2">  1        1 0.39586794E-02 0.13276610E+03</pdfrwt>
<pdfrwt beam="1">  1       -1 0.80879101E-01 0.13276610E+03</pdfrwt>
<totfact> 0.35296966E+03</totfact>
</mgrwt>
</event>
<event>
 7    1  0.4230786E-006  0.1443689E+03  0.7546771E-02  0.1217609E+00
         -1   -1    0    0    0  501 -0.00000000000E+00  0.00000000000E+00  0.52976624603E+03  0.52976624603E+03  0.00000000000E+00 0.  1.
          1   -1    0    0  501    0  0.00000000000E+00 -0.00000000000E+00 -0.37571613503E+02  0.37571613503E+02  0.00000000000E+00 0. -1.
         23    2    1    2    0    0  0.32963601609E+01 -0.72147677060E+02  0.37578864687E+03  0.40256612861E+03  0.12500490987E+03 0.  0.
          5    1    3    3  502    0 -0.14286316318E+02 -0.57071437530E+02  0.54264703874E+02  0.80174783456E+02  0.47000000000E+01 0.  1.
         -5    1    3    3    0  502  0.17582676479E+02 -0.15076239530E+02  0.32152394299E+03  0.32239134515E+03  0.47000000000E+01 0.  1.
        -11    1    1    2    0    0 -0.29402585000E+02  0.69436926533E+02  0.42977192634E+02  0.86793074941E+02  0.00000000000E+00 0.  1.
         11    1    1    2    0    0  0.26106224840E+02  0.27107505269E+01  0.73428793024E+02  0.77978655982E+02  0.00000000000E+00 0. -1.
<mgrwt>
<rscale>  0 0.13686585E+03</rscale>
<asrwt>0</asrwt>
<pdfrwt beam="2">  1        1 0.57802486E-02 0.14436891E+03</pdfrwt>
<pdfrwt beam="1">  1       -1 0.81502494E-01 0.14436891E+03</pdfrwt>
<totfact> 0.20782465E+03</totfact>
</mgrwt>
</event>
<event>
 7    1  0.4230786E-006  0.1895216E+03  0.7546771E-02  0.1163254E+00
          1   -1    0    0  501    0  0.00000000000E+00  0.00000000000E+00  0.16945492617E+03  0.16945492617E+03  0.00000000000E+00 0. -1.
         -1   -1    0    0    0  501 -0.00000000000E+00 -0.00000000000E+00 -0.26971466204E+03  0.26971466204E+03  0.00000000000E+00 0.  1.
         23    2    1    2    0    0 -0.97836518012E+02  0.10354619389E+03 -0.16967130400E+03  0.25437530408E+03  0.12499858157E+03 0.  0.
          5    1    3    3  502    0 -0.10462499374E+03  0.12605388475E+03 -0.13557351272E+03  0.21269282669E+03  0.47000000000E+01 0.  1.
         -5    1    3    3    0  502  0.67884757271E+01 -0.22507690856E+02 -0.34097791285E+02  0.41682477384E+02  0.47000000000E+01 0.  1.
        -11    1    1    2    0    0 -0.83950151339E+01 -0.40971746376E+02  0.40371385360E+02  0.58129244241E+02  0.00000000000E+00 0. -1.
         11    1    1    2    0    0  0.10623153315E+03 -0.62574447519E+02  0.29040182772E+02  0.12666503990E+03  0.00000000000E+00 0.  1.
<mgrwt>
<rscale>  0 0.18478208E+03</rscale>
<asrwt>0</asrwt>
<pdfrwt beam="1">  1        1 0.26069989E-01 0.18952162E+03</pdfrwt>
<pdfrwt beam="2">  1       -1 0.41494563E-01 0.18952162E+03</pdfrwt>
<totfact> 0.10431339E+03</totfact>
</mgrwt>
</event>
<event>
 7    1  0.4230786E-006  0.1470651E+03  0.7546771E-02  0.1213715E+00
         -2   -1    0    0    0  501 -0.00000000000E+00  0.00000000000E+00  0.45923238161E+02  0.45923238161E+02  0.00000000000E+00 0.  1.
          2   -1    0    0  501    0  0.00000000000E+00 -0.00000000000E+00 -0.42107568561E+03  0.42107568561E+03  0.00000000000E+00 0. -1.
         23    2    1    2    0    0 -0.77030875891E+02 -0.83002799303E+01 -0.13977544469E+03  0.20289239322E+03  0.12500199118E+03 0.  0.
          5    1    3    3  502    0  0.54417474897E+01 -0.33698534476E+02  0.44628058275E+01  0.34744934558E+02  0.47000000000E+01 0.  1.
         -5    1    3    3    0  502 -0.82472623381E+02  0.25398254546E+02 -0.14423825052E+03  0.16814745866E+03  0.47000000000E+01 0.  1.
        -11    1    1    2    0    0  0.25733802826E+01  0.39098973709E+02 -0.79883784953E+02  0.88976239130E+02  0.00000000000E+00 0.  1.
         11    1    1    2    0    0  0.74457495609E+02 -0.30798693778E+02 -0.15549321781E+03  0.17513029143E+03  0.00000000000E+00 0. -1.
<mgrwt>
<rscale>  0 0.13971353E+03</rscale>
<asrwt>0</asrwt>
<pdfrwt beam="2">  1        2 0.64780875E-01 0.14706512E+03</pdfrwt>
<pdfrwt beam="1">  1       -2 0.70651136E-02 0.14706512E+03</pdfrwt>
<totfact> 0.83026120E+03</totfact>
</mgrwt>
</event>
<event>
 7    1  0.4230786E-006  0.1404647E+03  0.7546771E-02  0.1223672E+00
          2   -1    0    0  501    0  0.00000000000E+00  0.00000000000E+00  0.39217751746E+02  0.39217751746E+02  0.00000000000E+00 0. -1.
         -2   -1    0    0    0  501 -0.00000000000E+00 -0.00000000000E+00 -0.40700118618E+03  0.40700118618E+03  0.00000000000E+00 0.  1.
         23    2    1    2    0    0  0.63103976910E+02 -0.11122202171E+02 -0.22161971882E+03  0.26238451576E+03  0.12499807622E+03 0.  0.
          5    1    3    3  502    0  0.20693233889E+02 -0.66034600505E+02 -0.13017835229E+03  0.14750346368E+03  0.47000000000E+01 0. -1.
         -5    1    3    3    0  502  0.42410743021E+02  0.54912398334E+02 -0.91441366529E+02  0.11488105208E+03  0.47000000000E+01 0. -1.
        -11    1    1    2    0    0 -0.25851693815E+02 -0.35294964942E+02 -0.97817724286E+02  0.10715573623E+03  0.00000000000E+00 0.  1.
         11    1    1    2    0    0 -0.37252283095E+02  0.46417167113E+02 -0.48345991330E+02  0.76678685932E+02  0.00000000000E+00 0. -1.
<mgrwt>
<rscale>  0 0.13258361E+03</rscale>
<asrwt>0</asrwt>
<pdfrwt beam="1">  1        2 0.60335000E-02 0.14046471E+03</pdfrwt>
<pdfrwt beam="2">  1       -2 0.62615570E-01 0.14046471E+03</pdfrwt>
<totfact> 0.28461599E+03</totfact>
</mgrwt>
</event>
<event>
 7    1  0.4230786E-006  0.1589708E+03  0.7546771E-02  0.1196609E+00
         -2   -1    0    0    0  501 -0.00000000000E+00  0.00000000000E+00  0.78142404074E+02  0.78142404074E+02  0.00000000000E+00 0. -1.
          2   -1    0    0  501    0  0.00000000000E+00 -0.00000000000E+00 -0.28238853843E+03  0.28238853843E+03  0.00000000000E+00 0.  1.
         23    2    1    2    0    0  0.48037585685E+00 -0.98238563221E+02 -0.94497678138E+02  0.18493658456E+03  0.12498273109E+03 0.  0.
          5    1    3    3  502    0  0.11128473458E+02  0.25152656227E+02  0.18336185206E+01  0.27963390239E+02  0.47000000000E+01 0.  1.
         -5    1    3    3    0  502 -0.10648097601E+02 -0.12339121945E+03 -0.96331296658E+02  0.15697319432E+03  0.47000000000E+01 0.  1.
        -11    1    1    2    0    0 -0.37187146786E+02  0.83274603506E+02 -0.98826314876E+02  0.13447744788E+03  0.00000000000E+00 0. -1.
         11    1    1    2    0    0  0.36706770929E+02  0.14963959715E+02 -0.10922141344E+02  0.41116910072E+02  0.00000000000E+00 0.  1.
<mgrwt>
<rscale>  0 0.15318811E+03</rscale>
<asrwt>0</asrwt>
<pdfrwt beam="2">  1        2 0.43444391E-01 0.15897084E+03</pdfrwt>
<pdfrwt beam="1">  1       -2 0.12021908E-01 0.15897084E+03</pdfrwt>
<totfact> 0.55577435E+03</totfact>
</mgrwt>
</event>
<event>
 7    1  0.4230786E-006  0.1954876E+03  0.7546771E-02  0.1157982E+00
         -2   -1    0    0    0  501 -0.00000000000E+00  0.00000000000E+00  0.82912548517E+02  0.82912548517E+02  0.00000000000E+00 0.  1.
          2   -1    0    0  501    0  0.00000000000E+00 -0.00000000000E+00 -0.43082241472E+03  0.43082241472E+03  0.00000000000E+00 0. -1.
         23    2    1    2    0    0  0.52853064423E+02 -0.14070290756E+03 -0.13668275989E+03  0.23853211342E+03  0.12499855066E+03 0.  0.
          5    1    3    3  502    0 -0.11309177245E+02  0.18921702534E+02 -0.23422863577E+02  0.32506135650E+02  0.47000000000E+01 0.  1.
         -5    1    3    3    0  502  0.64162241668E+02 -0.15962461009E+03 -0.11325989631E+03  0.20602597777E+03  0.47000000000E+01 0.  1.
        -11    1    1    2    0    0 -0.34250004576E+01  0.76069630526E+02 -0.40893077107E+02  0.86432419102E+02  0.00000000000E+00 0.  1.
         11    1    1    2    0    0 -0.49428063965E+02  0.64633277031E+02 -0.17033402920E+03  0.18877043071E+03  0.00000000000E+00 0. -1.
<mgrwt>
<rscale>  0 0.19053240E+03</rscale>
<asrwt>0</asrwt>
<pdfrwt beam="2">  1        2 0.66280371E-01 0.19548758E+03</pdfrwt>
<pdfrwt beam="1">  1       -2 0.12755777E-01 0.19548758E+03</pdfrwt>
<totfact> 0.32413343E+03</totfact>
</mgrwt>
</event>
<event>
 7    1  0.4230786E-006  0.1292269E+03  0.7546771E-02  0.1246018E+00
         -2   -1    0    0    0  501 -0.00000000000E+00  0.00000000000E+00  0.16939721288E+02  0.16939721288E+02  0.00000000000E+00 0. -1.
          2   -1    0    0  501    0  0.00000000000E+00 -0.00000000000E+00 -0.79781001040E+03  0.79781001040E+03  0.00000000000E+00 0.  1.
         23    2    1    2    0    0  0.43774995109E+01  0.32349385610E+02 -0.32089614061E+03  0.34593918081E+03  0.12503574894E+03 0.  0.
          5    1    3    3  502    0  0.42113094299E+02  0.50227322585E+02 -0.27887559069E+03  0.28651349310E+03  0.47000000000E+01 0. -1.
         -5    1    3    3    0  502 -0.37735594788E+02 -0.17877936976E+02 -0.42020549916E+02  0.59425687710E+02  0.47000000000E+01 0. -1.
        -11    1    1    2    0    0  0.92232767829E+01 -0.59505609127E+02 -0.30336700905E+03  0.30928551297E+03  0.00000000000E+00 0.  1.
         11    1    1    2    0    0 -0.13600776294E+02  0.27156223517E+02 -0.15660713945E+03  0.15952503791E+03  0.00000000000E+00 0. -1.
<mgrwt>
<rscale>  0 0.11824654E+03</rscale>
<asrwt>0</asrwt>
<pdfrwt beam="2">  1        2 0.12273998E+00 0.12922687E+03</pdfrwt>
<pdfrwt beam="1">  1       -2 0.26061113E-02 0.12922687E+03</pdfrwt>
<totfact> 0.17614873E+04</totfact>
</mgrwt>
</event>
<event>
 7    1  0.4230786E-006  0.1368783E+03  0.7546771E-02  0.1220491E+00
         -1   -1    0    0    0  501 -0.00000000000E+00  0.00000000000E+00  0.11806112561E+03  0.11806112561E+03  0.00000000000E+00 0.  1.
          1   -1    0    0  501    0  0.00000000000E+00 -0.00000000000E+00 -0.14961435191E+03  0.14961435191E+03  0.00000000000E+00 0. -1.
         23    2    1    2    0    0  0.30856264297E+02 -0.50144883192E+02 -0.19742473229E+02  0.13028861562E+03  0.11453706717E+03 0.  0.
          5    1    3    3  502    0  0.19160109223E+02 -0.86980854425E+02 -0.19773130799E+02  0.91355599300E+02  0.47000000000E+01 0. -1.
         -5    1    3    3    0  502  0.11696155075E+02  0.36835971233E+02  0.30657570229E-01  0.38933016324E+02  0.47000000000E+01 0.  1.
        -11    1    1    2    0    0 -0.38857135129E+02  0.87629971261E+02 -0.20635548538E+02  0.98054651481E+02  0.00000000000E+00 0.  1.
         11    1    1    2    0    0  0.80008708321E+01 -0.37485088069E+02  0.88247954649E+01  0.39332210421E+02  0.00000000000E+00 0. -1.
<mgrwt>
<rscale>  0 0.13480824E+03</rscale>
<asrwt>0</asrwt>
<pdfrwt beam="2">  1        1 0.23017592E-01 0.13687825E+03</pdfrwt>
<pdfrwt beam="1">  1       -1 0.18163250E-01 0.13687825E+03</pdfrwt>
<totfact> 0.48052133E+03</totfact>
</mgrwt>
</event>
<event>
 7    1  0.4324432E-006  0.1707699E+03  0.7546771E-02  0.1183443E+00
         -1   -1    0    0    0  501 -0.00000000000E+00  0.00000000000E+00  0.34149942364E+02  0.34149942364E+02  0.00000000000E+00 0.  1.
          1   -1    0    0  501    0  0.00000000000E+00 -0.00000000000E+00 -0.79986529865E+03  0.79986529865E+03  0.00000000000E+00 0. -1.
         23    2    1    2    0    0 -0.11617493466E+03 -0.62842350921E+01 -0.29791346900E+03  0.34338722586E+03  0.12500497916E+03 0.  0.
          5    1    3    3  502    0 -0.11292022666E+03  0.25154473977E+02 -0.28723973777E+03  0.30969740409E+03  0.47000000000E+01 0.  1.
         -5    1    3    3    0  502 -0.32547080022E+01 -0.31438709069E+02 -0.10673731237E+02  0.33689821766E+02  0.47000000000E+01 0.  1.
        -11    1    1    2    0    0  0.19702980061E+02 -0.56867537050E+01 -0.10368926428E+02  0.22979582813E+02  0.00000000000E+00 0.  1.
         11    1    1    2    0    0  0.96471954597E+02  0.11970988797E+02 -0.45743296086E+03  0.46764843234E+03  0.00000000000E+00 0. -1.
<mgrwt>
<rscale>  0 0.16474321E+03</rscale>
<asrwt>0</asrwt>
<pdfrwt beam="2">  1        1 0.12305619E+00 0.17076988E+03</pdfrwt>
<pdfrwt beam="1">  1       -1 0.52538379E-02 0.17076988E+03</pdfrwt>
<totfact> 0.37073658E+03</totfact>
</mgrwt>
</event>
<event>
 7    1  0.4230786E-006  0.1519676E+03  0.7546771E-02  0.1206754E+00
         -1   -1    0    0    0  501 -0.00000000000E+00  0.00000000000E+00  0.98217783940E+02  0.98217783940E+02  0.00000000000E+00 0.  1.
          1   -1    0    0  501    0  0.00000000000E+00 -0.00000000000E+00 -0.19712358726E+03  0.19712358726E+03  0.00000000000E+00 0. -1.
         23    2    1    2    0    0 -0.80154626074E+02 -0.32472182208E+02 -0.61550545592E+02  0.16395921836E+03  0.12495978923E+03 0.  0.
          5    1    3    3  502    0 -0.23272008108E+02 -0.65472348660E+02 -0.68472956640E+02  0.97667039432E+02  0.47000000000E+01 0.  1.
         -5    1    3    3    0  502 -0.56882617966E+02  0.33000166453E+02  0.69224110483E+01  0.66292178930E+02  0.47000000000E+01 0.  1.
        -11    1    1    2    0    0  0.26557223939E+02 -0.31940588327E+02 -0.62844786109E+01  0.42011688819E+02  0.00000000000E+00 0. -1.
         11    1    1    2    0    0  0.53597402135E+02  0.64412770534E+02 -0.31070779113E+02  0.89370464015E+02  0.00000000000E+00 0.  1.
<mgrwt>
<rscale>  0 0.14500107E+03</rscale>
<asrwt>0</asrwt>
<pdfrwt beam="2">  1        1 0.30326705E-01 0.15196761E+03</pdfrwt>
<pdfrwt beam="1">  1       -1 0.15110428E-01 0.15196761E+03</pdfrwt>
<totfact> 0.45770309E+03</totfact>
</mgrwt>
</event>
<event>
 7    1  0.4230786E-006  0.1117233E+03  0.7546771E-02  0.1266287E+00
          1   -1    0    0  501    0  0.00000000000E+00  0.00000000000E+00  0.17455358145E+03  0.17455358145E+03  0.00000000000E+00 0. -1.
         -1   -1    0    0    0  501 -0.00000000000E+00 -0.00000000000E+00 -0.68471027329E+02  0.68471027329E+02  0.00000000000E+00 0.  1.
         23    2    1    2    0    0  0.10715514930E+02  0.15481373414E+02  0.15914596449E+02  0.11285112442E+03  0.11012541359E+03 0.  0.
          5    1    3    3  502    0  0.28784134936E+02 -0.38892958409E+02  0.24970986355E+02  0.54651887409E+02  0.47000000000E+01 0. -1.
         -5    1    3    3    0  502 -0.18068620006E+02  0.54374331823E+02 -0.90563899061E+01  0.58199237007E+02  0.47000000000E+01 0.  1.
        -11    1    1    2    0    0  0.14026400223E+02 -0.28947582498E+02  0.96139762290E+02  0.10137828332E+03  0.00000000000E+00 0. -1.
         11    1    1    2    0    0 -0.24741915153E+02  0.13466209085E+02 -0.59718046202E+01  0.28795201041E+02  0.00000000000E+00 0.  1.
<mgrwt>
<rscale>  0 0.10696949E+03</rscale>
<asrwt>0</asrwt>
<pdfrwt beam="1">  1        1 0.26854397E-01 0.11172333E+03</pdfrwt>
<pdfrwt beam="2">  1       -1 0.10534004E-01 0.11172333E+03</pdfrwt>
<totfact> 0.91105865E+03</totfact>
</mgrwt>
</event>
<event>
 7    1  0.4230786E-006  0.1361916E+03  0.7546771E-02  0.1230269E+00
          2   -1    0    0  501    0  0.00000000000E+00  0.00000000000E+00  0.12893398967E+03  0.12893398967E+03  0.00000000000E+00 0. -1.
         -2   -1    0    0    0  501 -0.00000000000E+00 -0.00000000000E+00 -0.12563764547E+03  0.12563764547E+03  0.00000000000E+00 0.  1.
         23    2    1    2    0    0  0.43957061447E+02  0.31513014126E+02 -0.36038911635E+02  0.14087920644E+03  0.12499141708E+03 0.  0.
          5    1    3    3  502    0  0.63288205810E+02 -0.19703818551E+02  0.12439262061E+02  0.67605197291E+02  0.47000000000E+01 0. -1.
         -5    1    3    3    0  502 -0.19331144363E+02  0.51216832676E+02 -0.48478173696E+02  0.73274009149E+02  0.47000000000E+01 0. -1.
        -11    1    1    2    0    0  0.27160109973E+02 -0.21727266997E+02  0.10516231760E+02  0.36336439497E+02  0.00000000000E+00 0.  1.
         11    1    1    2    0    0 -0.71117171420E+02 -0.97857471287E+01  0.28819024075E+02  0.77355989207E+02  0.00000000000E+00 0. -1.
<mgrwt>
<rscale>  0 0.12812218E+03</rscale>
<asrwt>0</asrwt>
<pdfrwt beam="1">  1        2 0.19835998E-01 0.13619158E+03</pdfrwt>
<pdfrwt beam="2">  1       -2 0.19328869E-01 0.13619158E+03</pdfrwt>
<totfact> 0.59420118E+03</totfact>
</mgrwt>
</event>
<event>
 7    1  0.4230786E-006  0.1261298E+03  0.7546771E-02  0.1248261E+00
          1   -1    0    0  501    0  0.00000000000E+00  0.00000000000E+00  0.10680285027E+04  0.10680285027E+04  0.00000000000E+00 0. -1.
         -1   -1    0    0    0  501 -0.00000000000E+00 -0.00000000000E+00 -0.11277383644E+02  0.11277383644E+02  0.00000000000E+00 0.  1.
         23    2    1    2    0    0  0.10215473367E+02  0.13343198795E+02  0.63179607613E+03  0.64426314322E+03  0.12500527610E+03 0.  0.
          5    1    3    3  502    0 -0.39320332647E+02 -0.37649303751E+02  0.25462570639E+03  0.26042253932E+03  0.47000000000E+01 0.  1.
         -5    1    3    3    0  502  0.49535806015E+02  0.50992502546E+02  0.37717036974E+03  0.38384060390E+03  0.47000000000E+01 0.  1.
        -11    1    1    2    0    0  0.16228316602E+02  0.34683503828E+02  0.17962614081E+03  0.18366233735E+03  0.00000000000E+00 0. -1.
         11    1    1    2    0    0 -0.26443789970E+02 -0.48026702623E+02  0.24532890210E+03  0.25138040575E+03  0.00000000000E+00 0.  1.
<mgrwt>
<rscale>  0 0.11692284E+03</rscale>
<asrwt>0</asrwt>
<pdfrwt beam="1">  1        1 0.16431200E+00 0.12612976E+03</pdfrwt>
<pdfrwt beam="2">  1       -1 0.17349829E-02 0.12612976E+03</pdfrwt>
<totfact> 0.11528812E+04</totfact>
</mgrwt>
</event>
<event>
 7    1  0.4230786E-006  0.1450187E+03  0.7546771E-02  0.1215606E+00
         -2   -1    0    0    0  501 -0.00000000000E+00  0.00000000000E+00  0.51346908397E+02  0.51346908397E+02  0.00000000000E+00 0. -1.
          2   -1    0    0  501    0  0.00000000000E+00 -0.00000000000E+00 -0.34451232253E+03  0.34451232253E+03  0.00000000000E+00 0.  1.
         23    2    1    2    0    0  0.58198592399E+02  0.44911667431E+02 -0.17700818224E+03  0.22882816588E+03  0.12500519546E+03 0.  0.
          5    1    3    3  502    0  0.86225836830E+02  0.66038781654E+02 -0.12200371762E+03  0.16341056494E+03  0.47000000000E+01 0. -1.
         -5    1    3    3    0  502 -0.28027244431E+02 -0.21127114223E+02 -0.55004464617E+02  0.65417600947E+02  0.47000000000E+01 0. -1.
        -11    1    1    2    0    0 -0.54515970601E+02 -0.31964838408E+02 -0.13193640578E+03  0.14629065970E+03  0.00000000000E+00 0.  1.
         11    1    1    2    0    0 -0.36826217979E+01 -0.12946829023E+02  0.15779173891E+02  0.20740405342E+02  0.00000000000E+00 0. -1.
<mgrwt>
<rscale>  0 0.13832138E+03</rscale>
<asrwt>0</asrwt>
<pdfrwt beam="2">  1        2 0.53001896E-01 0.14501873E+03</pdfrwt>
<pdfrwt beam="1">  1       -2 0.78995243E-02 0.14501873E+03</pdfrwt>
<totfact> 0.86563180E+03</totfact>
</mgrwt>
</event>
<event>
 7    1  0.4230786E-006  0.1255889E+03  0.7546771E-02  0.1249437E+00
          1   -1    0    0  501    0  0.00000000000E+00  0.00000000000E+00  0.25392375075E+03  0.25392375075E+03  0.00000000000E+00 0. -1.
         -1   -1    0    0    0  501 -0.00000000000E+00 -0.00000000000E+00 -0.47728090266E+02  0.47728090266E+02  0.00000000000E+00 0.  1.
         23    2    1    2    0    0  0.51365135218E+01 -0.10983503902E+02  0.14067009862E+03  0.18857532363E+03  0.12500221961E+03 0.  0.
          5    1    3    3  502    0  0.21622239602E+01 -0.52690988839E+02  0.13636091577E+03  0.14627851813E+03  0.47000000000E+01 0.  1.
         -5    1    3    3    0  502  0.29742895616E+01  0.41707484938E+02  0.43091828448E+01  0.42296805494E+02  0.47000000000E+01 0.  1.
        -11    1    1    2    0    0 -0.51281827041E+01  0.35782913042E+02  0.77516114787E+02  0.85530480972E+02  0.00000000000E+00 0. -1.
         11    1    1    2    0    0 -0.83308176563E-02 -0.24799409140E+02 -0.11990552917E+02  0.27546036418E+02  0.00000000000E+00 0.  1.
<mgrwt>
<rscale>  0 0.11623695E+03</rscale>
<asrwt>0</asrwt>
<pdfrwt beam="1">  1        1 0.39065192E-01 0.12558892E+03</pdfrwt>
<pdfrwt beam="2">  1       -1 0.73427833E-02 0.12558892E+03</pdfrwt>
<totfact> 0.99799235E+03</totfact>
</mgrwt>
</event>
<event>
 7    1  0.4230786E-006  0.2133000E+03  0.7546771E-02  0.1142457E+00
         -1   -1    0    0    0  501 -0.00000000000E+00  0.00000000000E+00  0.15499713471E+03  0.15499713471E+03  0.00000000000E+00 0.  1.
          1   -1    0    0  501    0  0.00000000000E+00 -0.00000000000E+00 -0.27967083008E+03  0.27967083008E+03  0.00000000000E+00 0. -1.
         23    2    1    2    0    0  0.17272282012E+03 -0.43011607551E+01 -0.25353735478E+02  0.21480158890E+03  0.12508092627E+03 0.  0.
          5    1    3    3  502    0  0.17269678183E+03 -0.32762769982E+02 -0.42952649865E+02  0.18100993808E+03  0.47000000000E+01 0. -1.
         -5    1    3    3    0  502  0.26038291393E-01  0.28461609227E+02  0.17598914388E+02  0.33791650824E+02  0.47000000000E+01 0. -1.
        -11    1    1    2    0    0 -0.59090268183E+02 -0.13569078773E+02  0.96804932833E+01  0.61396185898E+02  0.00000000000E+00 0.  1.
         11    1    1    2    0    0 -0.11363255194E+03  0.17870239528E+02 -0.10900045317E+03  0.15847018998E+03  0.00000000000E+00 0. -1.
<mgrwt>
<rscale>  0 0.20887816E+03</rscale>
<asrwt>0</asrwt>
<pdfrwt beam="2">  1        1 0.43026281E-01 0.21330005E+03</pdfrwt>
<pdfrwt beam="1">  1       -1 0.23845713E-01 0.21330005E+03</pdfrwt>
<totfact> 0.14365222E+03</totfact>
</mgrwt>
</event>
<event>
 7    1  0.4230786E-006  0.1417436E+03  0.7546771E-02  0.1226042E+00
         -2   -1    0    0    0  501 -0.00000000000E+00  0.00000000000E+00  0.16582880833E+02  0.16582880833E+02  0.00000000000E+00 0.  1.
          2   -1    0    0  501    0  0.00000000000E+00 -0.00000000000E+00 -0.91857635246E+03  0.91857635246E+03  0.00000000000E+00 0. -1.
         23    2    1    2    0    0 -0.29185719066E+02 -0.60122775770E+02 -0.57673857488E+03  0.59390118792E+03  0.12499873158E+03 0.  0.
          5    1    3    3  502    0  0.24797448314E+02  0.28132545585E+02 -0.13553442066E+03  0.14070544676E+03  0.47000000000E+01 0.  1.
         -5    1    3    3    0  502 -0.53983167380E+02 -0.88255321355E+02 -0.44120415422E+03  0.45319574117E+03  0.47000000000E+01 0.  1.
        -11    1    1    2    0    0  0.27811894205E+02 -0.77194918927E+01 -0.49719726037E+02  0.57490374599E+02  0.00000000000E+00 0.  1.
         11    1    1    2    0    0  0.13738248609E+01  0.67842267662E+02 -0.27553517071E+03  0.28376767077E+03  0.00000000000E+00 0. -1.
<mgrwt>
<rscale>  0 0.13095716E+03</rscale>
<asrwt>0</asrwt>
<pdfrwt beam="2">  1        2 0.14131947E+00 0.14174356E+03</pdfrwt>
<pdfrwt beam="1">  1       -2 0.25512118E-02 0.14174356E+03</pdfrwt>
<totfact> 0.15274975E+04</totfact>
</mgrwt>
</event>
<event>
 7    1  0.4230786E-006  0.1661092E+03  0.7546771E-02  0.1188598E+00
         -1   -1    0    0    0  501 -0.00000000000E+00  0.00000000000E+00  0.10758941032E+03  0.10758941032E+03  0.00000000000E+00 0.  1.
          1   -1    0    0  501    0  0.00000000000E+00 -0.00000000000E+00 -0.24583213186E+03  0.24583213186E+03  0.00000000000E+00 0. -1.
         23    2    1    2    0    0 -0.88993152911E+02  0.63605590781E+02 -0.19369671146E+02  0.16723475502E+03  0.12500730651E+03 0.  0.
          5    1    3    3  502    0 -0.28671918690E+02  0.86133729234E+01 -0.66345849183E+02  0.72939226883E+02  0.47000000000E+01 0.  1.
         -5    1    3    3    0  502 -0.60321234221E+02  0.54992217858E+02  0.46976178038E+02  0.94295528133E+02  0.47000000000E+01 0.  1.
        -11    1    1    2    0    0  0.61934519065E+02  0.35382665061E+01 -0.87571768064E+02  0.10731830479E+03  0.00000000000E+00 0. -1.
         11    1    1    2    0    0  0.27058633847E+02 -0.67143857287E+02 -0.31301282327E+02  0.78868482376E+02  0.00000000000E+00 0.  1.
<mgrwt>
<rscale>  0 0.16008714E+03</rscale>
<asrwt>0</asrwt>
<pdfrwt beam="2">  1        1 0.37820328E-01 0.16610924E+03</pdfrwt>
<pdfrwt beam="1">  1       -1 0.16552217E-01 0.16610924E+03</pdfrwt>
<totfact> 0.30235218E+03</totfact>
</mgrwt>
</event>
<event>
 7    1  0.4230786E-006  0.2875940E+03  0.7546771E-02  0.1093675E+00
          1   -1    0    0  501    0  0.00000000000E+00  0.00000000000E+00  0.11571579355E+04  0.11571579355E+04  0.00000000000E+00 0. -1.
         -1   -1    0    0    0  501 -0.00000000000E+00 -0.00000000000E+00 -0.72371575619E+02  0.72371575619E+02  0.00000000000E+00 0.  1.
         23    2    1    2    0    0 -0.25109426004E+03  0.63536725763E+02  0.40088449348E+03  0.49337480544E+03  0.12500031434E+03 0.  0.
          5    1    3    3  502    0 -0.21597948233E+03  0.72907203812E+02  0.39525091565E+03  0.45629811908E+03  0.47000000000E+01 0. -1.
         -5    1    3    3    0  502 -0.35114777710E+02 -0.93704780488E+01  0.56335778361E+01  0.37076686363E+02  0.47000000000E+01 0. -1.
        -11    1    1    2    0    0  0.34265612518E+02 -0.97673812831E+01  0.20034525322E+03  0.20348895407E+03  0.00000000000E+00 0. -1.
         11    1    1    2    0    0  0.21682864752E+03 -0.53769344480E+02  0.48355661313E+03  0.53266575157E+03  0.00000000000E+00 0.  1.
<mgrwt>
<rscale>  0 0.28371796E+03</rscale>
<asrwt>0</asrwt>
<pdfrwt beam="1">  1        1 0.17802428E+00 0.28759402E+03</pdfrwt>
<pdfrwt beam="2">  1       -1 0.11134089E-01 0.28759402E+03</pdfrwt>
<totfact> 0.63363532E+02</totfact>
</mgrwt>
</event>
<event>
 7    1  0.4230786E-006  0.1838577E+03  0.7546771E-02  0.1169532E+00
          2   -1    0    0  501    0  0.00000000000E+00  0.00000000000E+00  0.87686804963E+03  0.87686804963E+03  0.00000000000E+00 0. -1.
         -2   -1    0    0    0  501 -0.00000000000E+00 -0.00000000000E+00 -0.34383238002E+02  0.34383238002E+02  0.00000000000E+00 0.  1.
         23    2    1    2    0    0 -0.90414611521E+02  0.10001469118E+03  0.41151703399E+03  0.45072154269E+03  0.12500359737E+03 0.  0.
          5    1    3    3  502    0 -0.50735924628E+02  0.49506885049E+02  0.58936109272E+02  0.92307208230E+02  0.47000000000E+01 0.  1.
         -5    1    3    3    0  502 -0.39678686893E+02  0.50507806131E+02  0.35258092472E+03  0.35841433446E+03  0.47000000000E+01 0.  1.
        -11    1    1    2    0    0  0.10451347865E+03 -0.61397183681E+02  0.31895374485E+03  0.34120986612E+03  0.00000000000E+00 0.  1.
         11    1    1    2    0    0 -0.14098867131E+02 -0.38617507498E+02  0.11201403279E+03  0.11931987882E+03  0.00000000000E+00 0. -1.
<mgrwt>
<rscale>  0 0.17822474E+03</rscale>
<asrwt>0</asrwt>
<pdfrwt beam="1">  1        2 0.13490276E+00 0.18385766E+03</pdfrwt>
<pdfrwt beam="2">  1       -2 0.52897296E-02 0.18385766E+03</pdfrwt>
<totfact> 0.55600704E+03</totfact>
</mgrwt>
</event>
<event>
 7    1  0.4230786E-006  0.1826293E+03  0.7546771E-02  0.1170483E+00
         -2   -1    0    0    0  501 -0.00000000000E+00  0.00000000000E+00  0.74063597653E+02  0.74063597653E+02  0.00000000000E+00 0.  1.
          2   -1    0    0  501    0  0.00000000000E+00 -0.00000000000E+00 -0.74776596146E+03  0.74776596146E+03  0.00000000000E+00 0. -1.
         23    2    1    2    0    0 -0.44605712335E+02 -0.12490138074E+03 -0.68098076780E+02  0.19491230907E+03  0.12555252161E+03 0.  0.
          5    1    3    3  502    0 -0.53021936364E+01 -0.84753952429E+02 -0.99083225175E+02  0.13057917606E+03  0.47000000000E+01 0. -1.
         -5    1    3    3    0  502 -0.39303518698E+02 -0.40147428306E+02  0.30985148395E+02  0.64333133009E+02  0.47000000000E+01 0.  1.
        -11    1    1    2    0    0  0.26415375786E+02 -0.71147484685E+01 -0.74983604442E+02  0.79818122371E+02  0.00000000000E+00 0.  1.
         11    1    1    2    0    0  0.18190336548E+02  0.13201612920E+03 -0.53062068258E+03  0.54709912767E+03  0.00000000000E+00 0. -1.
<mgrwt>
<rscale>  0 0.17725873E+03</rscale>
<asrwt>0</asrwt>
<pdfrwt beam="2">  1        2 0.11504093E+00 0.18262930E+03</pdfrwt>
<pdfrwt beam="1">  1       -2 0.11394398E-01 0.18262930E+03</pdfrwt>
<totfact> 0.20632698E+03</totfact>
</mgrwt>
</event>
<event>
 7    1  0.4230786E-006  0.1432357E+03  0.7546771E-02  0.1219393E+00
         -3   -1    0    0    0  501 -0.00000000000E+00  0.00000000000E+00  0.28156586151E+03  0.28156586151E+03  0.00000000000E+00 0.  1.
          3   -1    0    0  501    0  0.00000000000E+00 -0.00000000000E+00 -0.65287534023E+02  0.65287534023E+02  0.00000000000E+00 0. -1.
         23    2    1    2    0    0 -0.14944224899E+02  0.68320904098E+02  0.17147250959E+03  0.22342626500E+03  0.12500159421E+03 0.  0.
          5    1    3    3  502    0  0.45918957159E+02  0.31239044389E+02  0.26289364783E+02  0.61625069749E+02  0.47000000000E+01 0.  1.
         -5    1    3    3    0  502 -0.60863182058E+02  0.37081859709E+02  0.14518314481E+03  0.16180119526E+03  0.47000000000E+01 0.  1.
        -11    1    1    2    0    0 -0.15359188610E+02 -0.76773481645E+02  0.14270213930E+02  0.79584616379E+02  0.00000000000E+00 0. -1.
         11    1    1    2    0    0  0.30303413510E+02  0.84525775465E+01  0.30535603971E+02  0.43842514154E+02  0.00000000000E+00 0.  1.
<mgrwt>
<rscale>  0 0.13558759E+03</rscale>
<asrwt>0</asrwt>
<pdfrwt beam="2">  1        3 0.10044236E-01 0.14323573E+03</pdfrwt>
<pdfrwt beam="1">  1       -3 0.43317824E-01 0.14323573E+03</pdfrwt>
<totfact> 0.90582270E+02</totfact>
</mgrwt>
</event>
<event>
 7    1  0.4230786E-006  0.1257754E+03  0.7546771E-02  0.1245655E+00
          3   -1    0    0  501    0  0.00000000000E+00  0.00000000000E+00  0.51521148765E+03  0.51521148765E+03  0.00000000000E+00 0. -1.
         -3   -1    0    0    0  501 -0.00000000000E+00 -0.00000000000E+00 -0.24932197606E+02  0.24932197606E+02  0.00000000000E+00 0.  1.
         23    2    1    2    0    0 -0.53412140334E+01  0.13612723626E+02  0.23903289196E+03  0.27010400430E+03  0.12492243550E+03 0.  0.
          5    1    3    3  502    0  0.13342319110E+02  0.10397494727E+02 -0.10068297523E+02  0.20238230922E+02  0.47000000000E+01 0.  1.
         -5    1    3    3    0  502 -0.18683533143E+02  0.32152288988E+01  0.24910118948E+03  0.24986577338E+03  0.47000000000E+01 0.  1.
        -11    1    1    2    0    0 -0.19710919527E+02 -0.34162881114E+02  0.22474576202E+03  0.22818036800E+03  0.00000000000E+00 0. -1.
         11    1    1    2    0    0  0.25052133560E+02  0.20550157489E+02  0.26500636061E+02  0.41859312947E+02  0.00000000000E+00 0.  1.
<mgrwt>
<rscale>  0 0.11846270E+03</rscale>
<asrwt>0</asrwt>
<pdfrwt beam="1">  1        3 0.79263298E-01 0.12577539E+03</pdfrwt>
<pdfrwt beam="2">  1       -3 0.38357231E-02 0.12577539E+03</pdfrwt>
<totfact> 0.12021738E+03</totfact>
</mgrwt>
</event>
<event>
 7    1  0.4230786E-006  0.1294949E+03  0.7546771E-02  0.1242634E+00
         -3   -1    0    0    0  501 -0.00000000000E+00  0.00000000000E+00  0.11112936944E+03  0.11112936944E+03  0.00000000000E+00 0.  1.
          3   -1    0    0  501    0  0.00000000000E+00 -0.00000000000E+00 -0.12369742295E+03  0.12369742295E+03  0.00000000000E+00 0. -1.
         23    2    1    2    0    0 -0.28618846349E+02  0.17956609599E+02  0.24061892819E+02  0.13171139964E+03  0.12500975928E+03 0.  0.
          5    1    3    3  502    0 -0.61038009274E+02  0.49507192957E+02  0.32986813531E+02  0.85362875991E+02  0.47000000000E+01 0.  1.
         -5    1    3    3    0  502  0.32419162925E+02 -0.31550583359E+02 -0.89249207115E+01  0.46348523652E+02  0.47000000000E+01 0.  1.
        -11    1    1    2    0    0  0.54880365114E+02 -0.20729954399E+02 -0.46566664717E+02  0.74900198580E+02  0.00000000000E+00 0. -1.
         11    1    1    2    0    0 -0.26261518765E+02  0.27733448000E+01  0.99367183873E+01  0.28215194161E+02  0.00000000000E+00 0.  1.
<mgrwt>
<rscale>  0 0.12028110E+03</rscale>
<asrwt>0</asrwt>
<pdfrwt beam="2">  1        3 0.19030373E-01 0.12949486E+03</pdfrwt>
<pdfrwt beam="1">  1       -3 0.17096826E-01 0.12949486E+03</pdfrwt>
<totfact> 0.16510258E+03</totfact>
</mgrwt>
</event>
<event>
 7    1  0.4230786E-006  0.1372212E+03  0.7546771E-02  0.1228240E+00
          2   -1    0    0  501    0  0.00000000000E+00  0.00000000000E+00  0.75792359721E+02  0.75792359721E+02  0.00000000000E+00 0. -1.
         -2   -1    0    0    0  501 -0.00000000000E+00 -0.00000000000E+00 -0.21109810979E+03  0.21109810979E+03  0.00000000000E+00 0.  1.
         23    2    1    2    0    0 -0.10746674817E+01 -0.56611224758E+02 -0.10835753950E+03  0.17484570539E+03  0.12499471448E+03 0.  0.
          5    1    3    3  502    0  0.53751858449E+02 -0.90395632648E+01 -0.15446759446E+02  0.56847764847E+02  0.47000000000E+01 0. -1.
         -5    1    3    3    0  502 -0.54826525931E+02 -0.47571661494E+02 -0.92910780050E+02  0.11799794054E+03  0.47000000000E+01 0. -1.
        -11    1    1    2    0    0  0.17410018015E+02 -0.13592845638E+02 -0.33001940896E+02  0.39711488045E+02  0.00000000000E+00 0.  1.
         11    1    1    2    0    0 -0.16335350534E+02  0.70204070396E+02  0.60537303223E+01  0.72333276077E+02  0.00000000000E+00 0. -1.
<mgrwt>
<rscale>  0 0.12947296E+03</rscale>
<asrwt>0</asrwt>
<pdfrwt beam="1">  1        2 0.11660363E-01 0.13722122E+03</pdfrwt>
<pdfrwt beam="2">  1       -2 0.32476632E-01 0.13722122E+03</pdfrwt>
<totfact> 0.44629402E+03</totfact>
</mgrwt>
</event>
<event>
 7    1  0.4230786E-006  0.1413248E+03  0.7546771E-02  0.1221832E+00
         -3   -1    0    0    0  501 -0.00000000000E+00  0.00000000000E+00  0.87560780012E+02  0.87560780012E+02  0.00000000000E+00 0.  1.
          3   -1    0    0  501    0  0.00000000000E+00 -0.00000000000E+00 -0.18684999927E+03  0.18684999927E+03  0.00000000000E+00 0. -1.
         23    2    1    2    0    0  0.64837677183E+02 -0.11981679731E+02 -0.65269844765E+02  0.15566901429E+03  0.12500081737E+03 0.  0.
          5    1    3    3  502    0  0.31291491718E+02 -0.37180844473E+02 -0.93084446896E+02  0.10511125964E+03  0.47000000000E+01 0. -1.
         -5    1    3    3    0  502  0.33546185465E+02  0.25199164743E+02  0.27814602132E+02  0.50557754645E+02  0.47000000000E+01 0. -1.
        -11    1    1    2    0    0 -0.76650308809E+02  0.13673316641E+02  0.49193337507E+01  0.78015570709E+02  0.00000000000E+00 0.  1.
         11    1    1    2    0    0  0.11812631625E+02 -0.16916369101E+01 -0.38938708247E+02  0.40726194290E+02  0.00000000000E+00 0. -1.
<mgrwt>
<rscale>  0 0.13386440E+03</rscale>
<asrwt>0</asrwt>
<pdfrwt beam="2">  1        3 0.28746154E-01 0.14132477E+03</pdfrwt>
<pdfrwt beam="1">  1       -3 0.13470889E-01 0.14132477E+03</pdfrwt>
<totfact> 0.12025012E+03</totfact>
</mgrwt>
</event>
<event>
 7    1  0.4230786E-006  0.1864588E+03  0.7546771E-02  0.1165989E+00
         -2   -1    0    0    0  501 -0.00000000000E+00  0.00000000000E+00  0.53368482348E+02  0.53368482348E+02  0.00000000000E+00 0.  1.
          2   -1    0    0  501    0  0.00000000000E+00 -0.00000000000E+00 -0.59439554962E+03  0.59439554962E+03  0.00000000000E+00 0. -1.
         23    2    1    2    0    0 -0.11515881439E+03 -0.76729062063E+02 -0.26064595844E+03  0.32047338318E+03  0.12497188553E+03 0.  0.
          5    1    3    3  502    0 -0.67909650885E+02 -0.31845343634E+01 -0.20670431342E+03  0.21764793849E+03  0.47000000000E+01 0.  1.
         -5    1    3    3    0  502 -0.47249163509E+02 -0.73544527700E+02 -0.53941645023E+02  0.10282544469E+03  0.47000000000E+01 0.  1.
        -11    1    1    2    0    0 -0.26216368664E+01  0.38298093253E+02 -0.11089209896E+03  0.11734851741E+03  0.00000000000E+00 0.  1.
         11    1    1    2    0    0  0.11778045126E+03  0.38430968810E+02 -0.16948900987E+03  0.20994213138E+03  0.00000000000E+00 0. -1.
<mgrwt>
<rscale>  0 0.18188773E+03</rscale>
<asrwt>0</asrwt>
<pdfrwt beam="2">  1        2 0.91445462E-01 0.18645877E+03</pdfrwt>
<pdfrwt beam="1">  1       -2 0.82105364E-02 0.18645877E+03</pdfrwt>
<totfact> 0.45471707E+03</totfact>
</mgrwt>
</event>
<event>
 7    1  0.4230786E-006  0.1465384E+03  0.7546771E-02  0.1214443E+00
         -2   -1    0    0    0  501 -0.00000000000E+00  0.00000000000E+00  0.14078738386E+03  0.14078738386E+03  0.00000000000E+00 0.  1.
          2   -1    0    0  501    0  0.00000000000E+00 -0.00000000000E+00 -0.12612116009E+03  0.12612116009E+03  0.00000000000E+00 0. -1.
         23    2    1    2    0    0 -0.11692258748E+02 -0.75560482563E+02  0.17939766945E+02  0.14763244090E+03  0.12500962735E+03 0.  0.
          5    1    3    3  502    0 -0.55877675226E+00 -0.10617257270E+03  0.33217368766E+02  0.11134815227E+03  0.47000000000E+01 0. -1.
         -5    1    3    3    0  502 -0.11133481995E+02  0.30612090141E+02 -0.15277601821E+02  0.36284288632E+02  0.47000000000E+01 0. -1.
        -11    1    1    2    0    0 -0.14384660457E+02  0.60643496508E+02  0.34322161475E+02  0.71151689322E+02  0.00000000000E+00 0.  1.
         11    1    1    2    0    0  0.26076919205E+02  0.14916986056E+02 -0.37595704651E+02  0.48124413725E+02  0.00000000000E+00 0. -1.
<mgrwt>
<rscale>  0 0.13917494E+03</rscale>
<asrwt>0</asrwt>
<pdfrwt beam="2">  1        2 0.19403255E-01 0.14653840E+03</pdfrwt>
<pdfrwt beam="1">  1       -2 0.21659597E-01 0.14653840E+03</pdfrwt>
<totfact> 0.50449503E+03</totfact>
</mgrwt>
</event>
<event>
 7    1  0.4230786E-006  0.3276884E+03  0.7546771E-02  0.1073452E+00
         -2   -1    0    0    0  501 -0.00000000000E+00  0.00000000000E+00  0.63119397356E+02  0.63119397356E+02  0.00000000000E+00 0.  1.
          2   -1    0    0  501    0  0.00000000000E+00 -0.00000000000E+00 -0.17054136678E+04  0.17054136678E+04  0.00000000000E+00 0. -1.
         23    2    1    2    0    0 -0.18910095680E+03 -0.23662586315E+03 -0.66582569569E+03  0.74209402885E+03  0.12501487763E+03 0.  0.
          5    1    3    3  502    0 -0.34699922902E+01 -0.91440284797E+02 -0.17127989281E+03  0.19424792975E+03  0.47000000000E+01 0. -1.
         -5    1    3    3    0  502 -0.18563096451E+03 -0.14518557835E+03 -0.49454580289E+03  0.54784609910E+03  0.47000000000E+01 0. -1.
        -11    1    1    2    0    0  0.57275666904E+02  0.11550848020E+03 -0.29687543716E+03  0.32366299790E+03  0.00000000000E+00 0.  1.
         11    1    1    2    0    0  0.13182528990E+03  0.12111738295E+03 -0.67959313758E+03  0.70277603840E+03  0.00000000000E+00 0. -1.
<mgrwt>
<rscale>  0 0.32481987E+03</rscale>
<asrwt>0</asrwt>
<pdfrwt beam="2">  1        2 0.26237132E+00 0.32768840E+03</pdfrwt>
<pdfrwt beam="1">  1       -2 0.97106769E-02 0.32768840E+03</pdfrwt>
<totfact> 0.73478180E+02</totfact>
</mgrwt>
</event>
<event>
 7    1  0.4230786E-006  0.1274387E+03  0.7546771E-02  0.1248030E+00
         -2   -1    0    0    0  501 -0.00000000000E+00  0.00000000000E+00  0.64845614661E+03  0.64845614661E+03  0.00000000000E+00 0.  1.
          2   -1    0    0  501    0  0.00000000000E+00 -0.00000000000E+00 -0.18370613416E+02  0.18370613416E+02  0.00000000000E+00 0. -1.
         23    2    1    2    0    0  0.33120292331E+01  0.24584945046E+02  0.35671396699E+03  0.37879478383E+03  0.12500097981E+03 0.  0.
          5    1    3    3  502    0 -0.42564920917E+02 -0.32685288478E+02  0.15534563161E+03  0.16442157960E+03  0.47000000000E+01 0.  1.
         -5    1    3    3    0  502  0.45876950150E+02  0.57270233524E+02  0.20136833537E+03  0.21437320423E+03  0.47000000000E+01 0.  1.
        -11    1    1    2    0    0 -0.29565419875E+02 -0.40069520372E+02  0.96886544655E+02  0.10893430612E+03  0.00000000000E+00 0. -1.
         11    1    1    2    0    0  0.26253390642E+02  0.15484575326E+02  0.17648502155E+03  0.17909767007E+03  0.00000000000E+00 0.  1.
<mgrwt>
<rscale>  0 0.11705872E+03</rscale>
<asrwt>0</asrwt>
<pdfrwt beam="2">  1        2 0.28262487E-02 0.12743875E+03</pdfrwt>
<pdfrwt beam="1">  1       -2 0.99762466E-01 0.12743875E+03</pdfrwt>
<totfact> 0.27830399E+03</totfact>
</mgrwt>
</event>
<event>
 7    1  0.4230786E-006  0.1323713E+03  0.7546771E-02  0.1235904E+00
          2   -1    0    0  501    0  0.00000000000E+00  0.00000000000E+00  0.53360471758E+03  0.53360471758E+03  0.00000000000E+00 0. -1.
         -2   -1    0    0    0  501 -0.00000000000E+00 -0.00000000000E+00 -0.28556410741E+02  0.28556410741E+02  0.00000000000E+00 0.  1.
         23    2    1    2    0    0  0.42939210098E+02  0.72215095483E+01  0.19823032938E+03  0.23836404558E+03  0.12500491501E+03 0.  0.
          5    1    3    3  502    0  0.66953597531E+02  0.50770357756E+01  0.20253405911E+03  0.21342608935E+03  0.47000000000E+01 0.  1.
         -5    1    3    3    0  502 -0.24014387432E+02  0.21444737727E+01 -0.43037297312E+01  0.24937956234E+02  0.47000000000E+01 0.  1.
        -11    1    1    2    0    0 -0.46391138956E+02  0.36446077204E+02  0.19407028276E+03  0.20283917020E+03  0.00000000000E+00 0. -1.
         11    1    1    2    0    0  0.34519288580E+01 -0.43667586753E+02  0.11274769470E+03  0.12095791254E+03  0.00000000000E+00 0.  1.
<mgrwt>
<rscale>  0 0.12446728E+03</rscale>
<asrwt>0</asrwt>
<pdfrwt beam="1">  1        2 0.82093026E-01 0.13237128E+03</pdfrwt>
<pdfrwt beam="2">  1       -2 0.43932943E-02 0.13237128E+03</pdfrwt>
<totfact> 0.13052546E+04</totfact>
</mgrwt>
</event>
<event>
 7    1  0.4230786E-006  0.1355719E+03  0.7546771E-02  0.1232426E+00
          1   -1    0    0  501    0  0.00000000000E+00  0.00000000000E+00  0.45579887002E+02  0.45579887002E+02  0.00000000000E+00 0. -1.
         -1   -1    0    0    0  501 -0.00000000000E+00 -0.00000000000E+00 -0.37176661382E+03  0.37176661382E+03  0.00000000000E+00 0.  1.
         23    2    1    2    0    0 -0.84771392497E+01  0.51793433616E+02 -0.26367291994E+03  0.29648467349E+03  0.12500132499E+03 0.  0.
          5    1    3    3  502    0 -0.46874635836E+02  0.72305400920E+02 -0.13185924916E+03  0.15758887675E+03  0.47000000000E+01 0. -1.
         -5    1    3    3    0  502  0.38397496586E+02 -0.20511967304E+02 -0.13181367078E+03  0.13889579673E+03  0.47000000000E+01 0. -1.
        -11    1    1    2    0    0 -0.11840505164E+02 -0.59166010590E+02 -0.74718664502E+02  0.96040060374E+02  0.00000000000E+00 0.  1.
         11    1    1    2    0    0  0.20317644414E+02  0.73725769738E+01  0.12204857618E+02  0.24821766964E+02  0.00000000000E+00 0. -1.
<mgrwt>
<rscale>  0 0.12670634E+03</rscale>
<asrwt>0</asrwt>
<pdfrwt beam="1">  1        1 0.70122901E-02 0.13557195E+03</pdfrwt>
<pdfrwt beam="2">  1       -1 0.57194865E-01 0.13557195E+03</pdfrwt>
<totfact> 0.31968364E+03</totfact>
</mgrwt>
</event>
<event>
 7    1  0.4230786E-006  0.2959734E+03  0.7546771E-02  0.1088920E+00
          3   -1    0    0  501    0  0.00000000000E+00  0.00000000000E+00  0.53782676841E+03  0.53782676841E+03  0.00000000000E+00 0. -1.
         -3   -1    0    0    0  501 -0.00000000000E+00 -0.00000000000E+00 -0.18293077873E+03  0.18293077873E+03  0.00000000000E+00 0.  1.
         23    2    1    2    0    0  0.23269002055E+03  0.13353179057E+03  0.42462864251E+02  0.29900397484E+03  0.12499958949E+03 0.  0.
          5    1    3    3  502    0  0.40537127101E+01  0.10097159253E+02  0.37240260310E+02  0.39080841849E+02  0.47000000000E+01 0.  1.
         -5    1    3    3    0  502  0.22863630784E+03  0.12343463132E+03  0.52226039415E+01  0.25992313299E+03  0.47000000000E+01 0.  1.
        -11    1    1    2    0    0 -0.71067269003E+01 -0.25043907907E+02  0.72056430165E+01  0.27011556449E+02  0.00000000000E+00 0.  1.
         11    1    1    2    0    0 -0.22558329365E+03 -0.10848788267E+03  0.30522748241E+03  0.39474201585E+03  0.00000000000E+00 0. -1.
<mgrwt>
<rscale>  0 0.29275415E+03</rscale>
<asrwt>0</asrwt>
<pdfrwt beam="1">  1        3 0.82742579E-01 0.29597345E+03</pdfrwt>
<pdfrwt beam="2">  1       -3 0.28143197E-01 0.29597345E+03</pdfrwt>
<totfact> 0.41973364E+01</totfact>
</mgrwt>
</event>
<event>
 7    1  0.4230786E-006  0.1330056E+03  0.7546771E-02  0.1235965E+00
          1   -1    0    0  501    0  0.00000000000E+00  0.00000000000E+00  0.21068040374E+03  0.21068040374E+03  0.00000000000E+00 0. -1.
         -1   -1    0    0    0  501 -0.00000000000E+00 -0.00000000000E+00 -0.65979721121E+02  0.65979721121E+02  0.00000000000E+00 0.  1.
         23    2    1    2    0    0  0.27916033270E+02 -0.35857420086E+02  0.69766349903E+02  0.15019263238E+03  0.12500169501E+03 0.  0.
          5    1    3    3  502    0  0.36464459516E+02 -0.77908784236E+02  0.29220797780E+02  0.90969118342E+02  0.47000000000E+01 0.  1.
         -5    1    3    3    0  502 -0.85484262464E+01  0.42051364151E+02  0.40545552123E+02  0.59223514040E+02  0.47000000000E+01 0.  1.
        -11    1    1    2    0    0  0.33427637917E+01  0.59272276787E+02  0.28684642760E+02  0.65933190394E+02  0.00000000000E+00 0.  1.
         11    1    1    2    0    0 -0.31258797062E+02 -0.23414856701E+02  0.46249689957E+02  0.60534302087E+02  0.00000000000E+00 0. -1.
<mgrwt>
<rscale>  0 0.12442887E+03</rscale>
<asrwt>0</asrwt>
<pdfrwt beam="1">  1        1 0.32412369E-01 0.13300558E+03</pdfrwt>
<pdfrwt beam="2">  1       -1 0.10150726E-01 0.13300558E+03</pdfrwt>
<totfact> 0.77365960E+03</totfact>
</mgrwt>
</event>
<event>
 7    1  0.4230786E-006  0.1255334E+03  0.7546771E-02  0.1249898E+00
          2   -1    0    0  501    0  0.00000000000E+00  0.00000000000E+00  0.12051000950E+03  0.12051000950E+03  0.00000000000E+00 0.  1.
         -2   -1    0    0    0  501 -0.00000000000E+00 -0.00000000000E+00 -0.10144480418E+03  0.10144480418E+03  0.00000000000E+00 0. -1.
         23    2    1    2    0    0 -0.92320186394E+01 -0.68605174442E+01 -0.10216349077E+02  0.12594842060E+03  0.12500533587E+03 0.  0.
          5    1    3    3  502    0 -0.16801457040E+02 -0.63220284862E+02 -0.18851510332E+02  0.68239012438E+02  0.47000000000E+01 0. -1.
         -5    1    3    3    0  502  0.75694384007E+01  0.56359767418E+02  0.86351612546E+01  0.57709408167E+02  0.47000000000E+01 0. -1.
        -11    1    1    2    0    0  0.40675032110E+01 -0.41322809401E+02  0.22038826025E+02  0.47008818447E+02  0.00000000000E+00 0. -1.
         11    1    1    2    0    0  0.51645154284E+01  0.48183326845E+02  0.72427283705E+01  0.48997574631E+02  0.00000000000E+00 0.  1.
<mgrwt>
<rscale>  0 0.11596957E+03</rscale>
<asrwt>0</asrwt>
<pdfrwt beam="1">  1        2 0.18540001E-01 0.12553339E+03</pdfrwt>
<pdfrwt beam="2">  1       -2 0.15606893E-01 0.12553339E+03</pdfrwt>
<totfact> 0.90956248E+03</totfact>
</mgrwt>
</event>
<event>
 7    1  0.4230786E-006  0.1293009E+03  0.7546771E-02  0.1242194E+00
          1   -1    0    0  501    0  0.00000000000E+00  0.00000000000E+00  0.10376344121E+02  0.10376344121E+02  0.00000000000E+00 0. -1.
         -1   -1    0    0    0  501 -0.00000000000E+00 -0.00000000000E+00 -0.25252646501E+04  0.25252646501E+04  0.00000000000E+00 0.  1.
         23    2    1    2    0    0 -0.32524680101E+02  0.59473449674E+01 -0.22431919397E+04  0.22469153951E+04  0.12500195554E+03 0.  0.
          5    1    3    3  502    0 -0.19022324441E+02 -0.50213297213E+02 -0.52786978599E+03  0.53061457293E+03  0.47000000000E+01 0. -1.
         -5    1    3    3    0  502 -0.13502355660E+02  0.56160642180E+02 -0.17153221537E+04  0.17163008222E+04  0.47000000000E+01 0. -1.
        -11    1    1    2    0    0  0.98530990273E+01 -0.43800164336E+02 -0.77360754706E+02  0.89443973106E+02  0.00000000000E+00 0. -1.
         11    1    1    2    0    0  0.22671581074E+02  0.37852819369E+02 -0.19433561159E+03  0.19928162599E+03  0.00000000000E+00 0.  1.
<mgrwt>
<rscale>  0 0.12054935E+03</rscale>
<asrwt>0</asrwt>
<pdfrwt beam="1">  1        1 0.15963619E-02 0.12930087E+03</pdfrwt>
<pdfrwt beam="2">  1       -1 0.38850194E+00 0.12930087E+03</pdfrwt>
<totfact> 0.89259125E+01</totfact>
</mgrwt>
</event>
<event>
 7    1  0.4230786E-006  0.2034143E+03  0.7546771E-02  0.1151005E+00
         -4   -1    0    0    0  501 -0.00000000000E+00  0.00000000000E+00  0.26139738652E+03  0.26139738652E+03  0.00000000000E+00 0. -1.
          4   -1    0    0  501    0  0.00000000000E+00 -0.00000000000E+00 -0.14673643408E+03  0.14673643408E+03  0.00000000000E+00 0.  1.
         23    2    1    2    0    0  0.64087472348E+02 -0.14712204620E+03  0.88401466459E+02  0.22179311371E+03  0.12500106169E+03 0.  0.
          5    1    3    3  502    0  0.74635168083E+02 -0.11826361986E+03  0.13349951855E+02  0.14055960769E+03  0.47000000000E+01 0. -1.
         -5    1    3    3    0  502 -0.10547695736E+02 -0.28858426338E+02  0.75051514604E+02  0.81233506021E+02  0.47000000000E+01 0. -1.
        -11    1    1    2    0    0 -0.39948293452E+02  0.10015057917E+03 -0.27192462240E+02  0.11119997599E+03  0.00000000000E+00 0.  1.
         11    1    1    2    0    0 -0.24139178896E+02  0.46971467035E+02  0.53451948218E+02  0.75140730909E+02  0.00000000000E+00 0. -1.
<mgrwt>
<rscale>  0 0.19850620E+03</rscale>
<asrwt>0</asrwt>
<pdfrwt beam="2">  1        4 0.22574836E-01 0.20341427E+03</pdfrwt>
<pdfrwt beam="1">  1       -4 0.40214982E-01 0.20341427E+03</pdfrwt>
<totfact> 0.19402530E+02</totfact>
</mgrwt>
</event>
<event>
 7    1  0.4230786E-006  0.1756270E+03  0.7546771E-02  0.1177905E+00
          1   -1    0    0  501    0  0.00000000000E+00  0.00000000000E+00  0.19865184675E+03  0.19865184675E+03  0.00000000000E+00 0. -1.
         -1   -1    0    0    0  501 -0.00000000000E+00 -0.00000000000E+00 -0.19765971733E+03  0.19765971733E+03  0.00000000000E+00 0.  1.
         23    2    1    2    0    0 -0.67556643752E+02  0.10322392071E+03 -0.10934335151E+03  0.20688357811E+03  0.12500307377E+03 0.  0.
          5    1    3    3  502    0 -0.48407645249E+02 -0.16131476183E+02 -0.14760175358E+02  0.53324266699E+02  0.47000000000E+01 0.  1.
         -5    1    3    3    0  502 -0.19148998503E+02  0.11935539689E+03 -0.94583176154E+02  0.15355931141E+03  0.47000000000E+01 0.  1.
        -11    1    1    2    0    0  0.23887849528E+02 -0.10377108226E+03  0.96257071779E+02  0.14354264431E+03  0.00000000000E+00 0. -1.
         11    1    1    2    0    0  0.43668794224E+02  0.54716155602E+00  0.14078409150E+02  0.45885341657E+02  0.00000000000E+00 0.  1.
<mgrwt>
<rscale>  0 0.16994474E+03</rscale>
<asrwt>0</asrwt>
<pdfrwt beam="1">  1        1 0.30561823E-01 0.17562701E+03</pdfrwt>
<pdfrwt beam="2">  1       -1 0.30409187E-01 0.17562701E+03</pdfrwt>
<totfact> 0.14614793E+03</totfact>
</mgrwt>
</event>
<event>
 7    1  0.4230786E-006  0.1385947E+03  0.7546771E-02  0.1223334E+00
         -1   -1    0    0    0  501 -0.00000000000E+00  0.00000000000E+00  0.39187478405E+03  0.39187478405E+03  0.00000000000E+00 0.  1.
          1   -1    0    0  501    0  0.00000000000E+00 -0.00000000000E+00 -0.42071633286E+02  0.42071633286E+02  0.00000000000E+00 0. -1.
         23    2    1    2    0    0  0.18455986713E+02  0.73650514920E+02  0.21145975529E+03  0.25283140878E+03  0.11594598470E+03 0.  0.
          5    1    3    3  502    0 -0.32732981383E+02  0.80210801411E+02  0.13067862680E+03  0.15685730533E+03  0.47000000000E+01 0. -1.
         -5    1    3    3    0  502  0.51188968097E+02 -0.65602864915E+01  0.80781128485E+02  0.95974103450E+02  0.47000000000E+01 0.  1.
        -11    1    1    2    0    0  0.23725471299E+02 -0.67763504209E+02  0.10413982905E+03  0.12649068932E+03  0.00000000000E+00 0.  1.
         11    1    1    2    0    0 -0.42181458012E+02 -0.58870107108E+01  0.34203566431E+02  0.54624319234E+02  0.00000000000E+00 0. -1.
<mgrwt>
<rscale>  0 0.13281778E+03</rscale>
<asrwt>0</asrwt>
<pdfrwt beam="2">  1        1 0.64725592E-02 0.13859471E+03</pdfrwt>
<pdfrwt beam="1">  1       -1 0.60288426E-01 0.13859471E+03</pdfrwt>
<totfact> 0.32286014E+03</totfact>
</mgrwt>
</event>
<event>
 7    1  0.4230786E-006  0.1343577E+03  0.7546771E-02  0.1229308E+00
         -1   -1    0    0    0  501 -0.00000000000E+00  0.00000000000E+00  0.28632760262E+03  0.28632760262E+03  0.00000000000E+00 0.  1.
          1   -1    0    0  501    0  0.00000000000E+00 -0.00000000000E+00 -0.54243671539E+02  0.54243671539E+02  0.00000000000E+00 0. -1.
         23    2    1    2    0    0 -0.20692375589E+02  0.44680396483E+02  0.14476986642E+03  0.19751027954E+03  0.12500993587E+03 0.  0.
          5    1    3    3  502    0 -0.38010484709E+02 -0.35442994413E+02  0.53248877524E+02  0.74555588378E+02  0.47000000000E+01 0. -1.
         -5    1    3    3    0  502  0.17318109120E+02  0.80123390896E+02  0.91520988892E+02  0.12295469117E+03  0.47000000000E+01 0. -1.
        -11    1    1    2    0    0 -0.26200318287E+02 -0.27508054318E+02  0.84961220534E+02  0.93067495536E+02  0.00000000000E+00 0.  1.
         11    1    1    2    0    0  0.46892693876E+02 -0.17172342166E+02  0.23528441286E+01  0.49993499076E+02  0.00000000000E+00 0. -1.
<mgrwt>
<rscale>  0 0.12875942E+03</rscale>
<asrwt>0</asrwt>
<pdfrwt beam="2">  1        1 0.83451804E-02 0.13435772E+03</pdfrwt>
<pdfrwt beam="1">  1       -1 0.44050400E-01 0.13435772E+03</pdfrwt>
<totfact> 0.40757785E+03</totfact>
</mgrwt>
</event>
<event>
 7    1  0.4230786E-006  0.1281910E+03  0.7546771E-02  0.1244798E+00
          3   -1    0    0  501    0  0.00000000000E+00  0.00000000000E+00  0.28434306859E+02  0.28434306859E+02  0.00000000000E+00 0. -1.
         -3   -1    0    0    0  501 -0.00000000000E+00 -0.00000000000E+00 -0.48560659645E+03  0.48560659645E+03  0.00000000000E+00 0.  1.
         23    2    1    2    0    0 -0.64243099533E+01  0.27806583830E+02 -0.33846973533E+03  0.36193189139E+03  0.12497381487E+03 0.  0.
          5    1    3    3  502    0  0.12062417309E+02  0.66984317830E+02 -0.11072328601E+03  0.13005436099E+03  0.47000000000E+01 0. -1.
         -5    1    3    3    0  502 -0.18486727262E+02 -0.39177734001E+02 -0.22774644932E+03  0.23187753040E+03  0.47000000000E+01 0. -1.
        -11    1    1    2    0    0  0.36926250819E+02 -0.11517891749E+02 -0.10978342668E+03  0.11639849914E+03  0.00000000000E+00 0.  1.
         11    1    1    2    0    0 -0.30501940866E+02 -0.16288692081E+02 -0.89191275863E+01  0.35710512783E+02  0.00000000000E+00 0. -1.
<mgrwt>
<rscale>  0 0.11897490E+03</rscale>
<asrwt>0</asrwt>
<pdfrwt beam="1">  1        3 0.43745091E-02 0.12819100E+03</pdfrwt>
<pdfrwt beam="2">  1       -3 0.74708702E-01 0.12819100E+03</pdfrwt>
<totfact> 0.11137872E+03</totfact>
</mgrwt>
</event>
<event>
 7    1  0.6328917E-006  0.1845245E+03  0.7546771E-02  0.1168805E+00
         -1   -1    0    0    0  501 -0.00000000000E+00  0.00000000000E+00  0.37207117898E+02  0.37207117898E+02  0.00000000000E+00 0.  1.
          1   -1    0    0  501    0  0.00000000000E+00 -0.00000000000E+00 -0.10750760589E+04  0.10750760589E+04  0.00000000000E+00 0. -1.
         23    2    1    2    0    0  0.12007296803E+03 -0.63296697220E+02 -0.26860317477E+03  0.32587873166E+03  0.12500117090E+03 0.  0.
          5    1    3    3  502    0  0.65699697886E+02 -0.93391259545E+02 -0.12518635895E+03  0.16950543392E+03  0.47000000000E+01 0.  1.
         -5    1    3    3    0  502  0.54373270142E+02  0.30094562325E+02 -0.14341681582E+03  0.15637329774E+03  0.47000000000E+01 0.  1.
        -11    1    1    2    0    0 -0.41826176401E+02  0.73263799565E+02 -0.38842401115E+03  0.39747984326E+03  0.00000000000E+00 0. -1.
         11    1    1    2    0    0 -0.78246791626E+02 -0.99671023442E+01 -0.38084175509E+03  0.38892460189E+03  0.00000000000E+00 0.  1.
<mgrwt>
<rscale>  0 0.17896881E+03</rscale>
<asrwt>0</asrwt>
<pdfrwt beam="2">  1        1 0.16539630E+00 0.18452448E+03</pdfrwt>
<pdfrwt beam="1">  1       -1 0.57241725E-02 0.18452448E+03</pdfrwt>
<totfact> 0.20121153E+03</totfact>
</mgrwt>
</event>
<event>
 7    1  0.8545968E-006  0.1170682E+03  0.7546771E-02  0.1310849E+00
         -2   -1    0    0    0  501 -0.00000000000E+00  0.00000000000E+00  0.23037694966E+03  0.23037694966E+03  0.00000000000E+00 0.  1.
          2   -1    0    0  501    0  0.00000000000E+00 -0.00000000000E+00 -0.29266325259E+02  0.29266325259E+02  0.00000000000E+00 0. -1.
         23    2    1    2    0    0 -0.80646160695E+01 -0.87681396328E-01  0.18892907296E+03  0.22225920593E+03  0.11679004363E+03 0.  0.
          5    1    3    3  502    0 -0.14857076061E+02  0.32546428331E+02  0.63947973385E+01  0.36646775291E+02  0.47000000000E+01 0. -1.
         -5    1    3    3    0  502  0.67924599919E+01 -0.32634109728E+02  0.18253427562E+03  0.18561243064E+03  0.47000000000E+01 0.  1.
        -11    1    1    2    0    0  0.15196972142E+02 -0.13131667495E+02  0.48121949830E+01  0.20652987048E+02  0.00000000000E+00 0. -1.
         11    1    1    2    0    0 -0.71323560722E+01  0.13219348891E+02  0.73693564516E+01  0.16731081936E+02  0.00000000000E+00 0.  1.
<mgrwt>
<rscale>  0 0.86777518E+02</rscale>
<asrwt>0</asrwt>
<pdfrwt beam="2">  1        2 0.45025117E-02 0.11706819E+03</pdfrwt>
<pdfrwt beam="1">  1       -2 0.35442606E-01 0.11706819E+03</pdfrwt>
<totfact> 0.12468111E+04</totfact>
</mgrwt>
</event>
<event>
 7    1  0.4230786E-006  0.1254594E+03  0.7546771E-02  0.1254327E+00
          1   -1    0    0  501    0  0.00000000000E+00  0.00000000000E+00  0.39784724590E+03  0.39784724590E+03  0.00000000000E+00 0. -1.
         -1   -1    0    0    0  501 -0.00000000000E+00 -0.00000000000E+00 -0.29420312317E+02  0.29420312317E+02  0.00000000000E+00 0.  1.
         23    2    1    2    0    0  0.35743235054E+01 -0.10151321404E+02  0.16537497213E+03  0.20757874690E+03  0.12499691853E+03 0.  0.
          5    1    3    3  502    0  0.18919801133E+02  0.17405872993E+02 -0.10991870114E+02  0.28351975207E+02  0.47000000000E+01 0.  1.
         -5    1    3    3    0  502 -0.15345477627E+02 -0.27557194397E+02  0.17636684225E+03  0.17922677169E+03  0.47000000000E+01 0.  1.
        -11    1    1    2    0    0 -0.53568944213E+01  0.46609288931E+02  0.12529026122E+03  0.13378629111E+03  0.00000000000E+00 0. -1.
         11    1    1    2    0    0  0.17825709158E+01 -0.36457967527E+02  0.77761700222E+02  0.85902520200E+02  0.00000000000E+00 0.  1.
<mgrwt>
<rscale>  0 0.11344112E+03</rscale>
<asrwt>0</asrwt>
<pdfrwt beam="1">  1        1 0.61207265E-01 0.12545937E+03</pdfrwt>
<pdfrwt beam="2">  1       -1 0.45262022E-02 0.12545937E+03</pdfrwt>
<totfact> 0.11729422E+04</totfact>
</mgrwt>
</event>
<event>
 6    1  0.4230786E-006  0.1881628E+03  0.7546771E-02  0.1166456E+00
         -1   -1    0    0    0  501 -0.00000000000E+00  0.00000000000E+00  0.63655671596E+02  0.63655671596E+02  0.00000000000E+00 0.  1.
          1   -1    0    0  501    0  0.00000000000E+00 -0.00000000000E+00 -0.82317614962E+03  0.82317614962E+03  0.00000000000E+00 0. -1.
          5    1    1    2  502    0 -0.90368470008E+00 -0.26190546541E+02 -0.24668590233E+01  0.26738301510E+02  0.47000000000E+01 0. -1.
         -5    1    1    2    0  502 -0.64426902930E+02  0.14420840240E+03 -0.10898539814E+03  0.19195519308E+03  0.47000000000E+01 0.  1.
        -11    1    1    2    0    0  0.43943226065E+02 -0.13029502823E+03 -0.53240240301E+03  0.54987282187E+03  0.00000000000E+00 0. -1.
         11    1    1    2    0    0  0.21387361565E+02  0.12277172368E+02 -0.11566581785E+03  0.11826550476E+03  0.00000000000E+00 0.  1.
<mgrwt>
<rscale>  0 0.18139885E+03</rscale>
<asrwt>0</asrwt>
<pdfrwt beam="2">  1        1 0.12664248E+00 0.18816280E+03</pdfrwt>
<pdfrwt beam="1">  1       -1 0.97931808E-02 0.18816280E+03</pdfrwt>
<totfact> 0.13861161E+03</totfact>
</mgrwt>
</event>
<event>
 7    1  0.4230786E-006  0.1459924E+03  0.7546771E-02  0.1215020E+00
         -2   -1    0    0    0  501 -0.00000000000E+00  0.00000000000E+00  0.39734712349E+02  0.39734712349E+02  0.00000000000E+00 0.  1.
          2   -1    0    0  501    0  0.00000000000E+00 -0.00000000000E+00 -0.56439943972E+03  0.56439943972E+03  0.00000000000E+00 0. -1.
         23    2    1    2    0    0 -0.63166702484E+02 -0.41209867692E+02 -0.14317381569E+03  0.20448109372E+03  0.12500196275E+03 0.  0.
          5    1    3    3  502    0 -0.11983875322E+02 -0.48095789839E+02  0.25009962555E+01  0.49851411717E+02  0.47000000000E+01 0.  1.
         -5    1    3    3    0  502 -0.51182827162E+02  0.68859221470E+01 -0.14567481195E+03  0.15462968200E+03  0.47000000000E+01 0.  1.
        -11    1    1    2    0    0  0.26119626537E+02 -0.16079571225E+02 -0.35125722325E+02  0.46632648113E+02  0.00000000000E+00 0.  1.
         11    1    1    2    0    0  0.37047075946E+02  0.57289438917E+02 -0.34636518936E+03  0.35302041024E+03  0.00000000000E+00 0. -1.
<mgrwt>
<rscale>  0 0.13875062E+03</rscale>
<asrwt>0</asrwt>
<pdfrwt beam="2">  1        2 0.86830681E-01 0.14599238E+03</pdfrwt>
<pdfrwt beam="1">  1       -2 0.61130328E-02 0.14599238E+03</pdfrwt>
<totfact> 0.75043822E+03</totfact>
</mgrwt>
</event>
<event>
 7    1  0.4230786E-006  0.1288629E+03  0.7546771E-02  0.1243209E+00
         -2   -1    0    0    0  501 -0.00000000000E+00  0.00000000000E+00  0.47040663749E+02  0.47040663749E+02  0.00000000000E+00 0.  1.
          2   -1    0    0  501    0  0.00000000000E+00 -0.00000000000E+00 -0.27368346644E+03  0.27368346644E+03  0.00000000000E+00 0. -1.
         23    2    1    2    0    0 -0.27196307236E+02 -0.15499018028E+02 -0.11180306008E+03  0.17060356280E+03  0.12500317079E+03 0.  0.
          5    1    3    3  502    0 -0.27546990785E+02  0.47249662675E+02 -0.87198127382E+02  0.10303868566E+03  0.47000000000E+01 0.  1.
         -5    1    3    3    0  502  0.35068354912E+00 -0.62748680703E+02 -0.24604932700E+02  0.67564877134E+02  0.47000000000E+01 0.  1.
        -11    1    1    2    0    0  0.23724686907E+02 -0.36507366348E+02 -0.63228729856E+02  0.76769270191E+02  0.00000000000E+00 0. -1.
         11    1    1    2    0    0  0.34716203296E+01  0.52006384376E+02 -0.51611012751E+02  0.73351297199E+02  0.00000000000E+00 0.  1.
<mgrwt>
<rscale>  0 0.11993223E+03</rscale>
<asrwt>0</asrwt>
<pdfrwt beam="2">  1        2 0.42105148E-01 0.12886292E+03</pdfrwt>
<pdfrwt beam="1">  1       -2 0.72370253E-02 0.12886292E+03</pdfrwt>
<totfact> 0.12531459E+04</totfact>
</mgrwt>
</event>
<event>
 7    1  0.4230786E-006  0.1285459E+03  0.7546771E-02  0.1242957E+00
          2   -1    0    0  501    0  0.00000000000E+00  0.00000000000E+00  0.72237136318E+02  0.72237136318E+02  0.00000000000E+00 0. -1.
         -2   -1    0    0    0  501 -0.00000000000E+00 -0.00000000000E+00 -0.17919112305E+03  0.17919112305E+03  0.00000000000E+00 0.  1.
         23    2    1    2    0    0 -0.28624642338E+02  0.89303311992E+01 -0.72878976271E+02  0.14776802904E+03  0.12499969703E+03 0.  0.
          5    1    3    3  502    0 -0.35357447670E+02  0.44032167424E+02  0.98590673466E+01  0.57517580641E+02  0.47000000000E+01 0.  1.
         -5    1    3    3    0  502  0.67328053321E+01 -0.35101836225E+02 -0.82738043617E+02  0.90250448396E+02  0.47000000000E+01 0.  1.
        -11    1    1    2    0    0 -0.32039567372E+02 -0.30373229704E+01 -0.27545518133E+02  0.42361713579E+02  0.00000000000E+00 0.  1.
         11    1    1    2    0    0  0.60664209710E+02 -0.58930082288E+01 -0.65294923258E+01  0.61298516750E+02  0.00000000000E+00 0. -1.
<mgrwt>
<rscale>  0 0.12008504E+03</rscale>
<asrwt>0</asrwt>
<pdfrwt beam="1">  1        2 0.11113406E-01 0.12854589E+03</pdfrwt>
<pdfrwt beam="2">  1       -2 0.27567865E-01 0.12854589E+03</pdfrwt>
<totfact> 0.63197629E+03</totfact>
</mgrwt>
</event>
<event>
 7    1  0.4230786E-006  0.1229379E+03  0.7546771E-02  0.1242497E+00
          2   -1    0    0  501    0  0.00000000000E+00  0.00000000000E+00  0.32611252285E+03  0.32611252285E+03  0.00000000000E+00 0. -1.
         -2   -1    0    0    0  501 -0.00000000000E+00 -0.00000000000E+00 -0.61366741178E+02  0.61366741178E+02  0.00000000000E+00 0.  1.
         23    2    1    2    0    0  0.35139388765E+02  0.18530084171E+02  0.29365948770E+02  0.12639652965E+03  0.11634252489E+03 0.  0.
          5    1    3    3  502    0 -0.32006403373E+02  0.88281955495E+01  0.45482242504E+02  0.56507267468E+02  0.47000000000E+01 0. -1.
         -5    1    3    3    0  502  0.67145792137E+02  0.97018886213E+01 -0.16116293734E+02  0.69889262182E+02  0.47000000000E+01 0.  1.
        -11    1    1    2    0    0 -0.12447245863E+02  0.14679288733E+02 -0.28722900224E+01  0.19459329312E+02  0.00000000000E+00 0.  1.
         11    1    1    2    0    0 -0.22692142902E+02 -0.33209372904E+02  0.23825212292E+03  0.24162340506E+03  0.00000000000E+00 0. -1.
<mgrwt>
<rscale>  0 0.12036435E+03</rscale>
<asrwt>0</asrwt>
<pdfrwt beam="1">  1        2 0.50171157E-01 0.12293789E+03</pdfrwt>
<pdfrwt beam="2">  1       -2 0.94410372E-02 0.12293789E+03</pdfrwt>
<totfact> 0.68798716E+03</totfact>
</mgrwt>
</event>
<event>
 7    1  0.4230786E-006  0.1545819E+03  0.7546771E-02  0.1201698E+00
          1   -1    0    0  501    0  0.00000000000E+00  0.00000000000E+00  0.59842911824E+03  0.59842911824E+03  0.00000000000E+00 0. -1.
         -1   -1    0    0    0  501 -0.00000000000E+00 -0.00000000000E+00 -0.36654144857E+02  0.36654144857E+02  0.00000000000E+00 0.  1.
         23    2    1    2    0    0  0.69780897884E+02  0.58323233001E+02  0.22650710548E+03  0.27422808544E+03  0.12499840316E+03 0.  0.
          5    1    3    3  502    0  0.57176423724E+02  0.75720440007E+02  0.23273061098E+03  0.25137294157E+03  0.47000000000E+01 0.  1.
         -5    1    3    3    0  502  0.12604474160E+02 -0.17397207005E+02 -0.62235055041E+01  0.22855143867E+02  0.47000000000E+01 0.  1.
        -11    1    1    2    0    0 -0.70263505855E+02 -0.23748962148E+01  0.12653801822E+03  0.14475659032E+03  0.00000000000E+00 0.  1.
         11    1    1    2    0    0  0.48260797127E+00 -0.55948336787E+02  0.20872984969E+03  0.21609858734E+03  0.00000000000E+00 0. -1.
<mgrwt>
<rscale>  0 0.14900741E+03</rscale>
<asrwt>0</asrwt>
<pdfrwt beam="1">  1        1 0.92066011E-01 0.15458193E+03</pdfrwt>
<pdfrwt beam="2">  1       -1 0.56390997E-02 0.15458193E+03</pdfrwt>
<totfact> 0.50411154E+03</totfact>
</mgrwt>
</event>
<event>
 6    1  0.4230786E-006  0.3362610E+03  0.7546771E-02  0.1072119E+00
          2   -1    0    0  501    0  0.00000000000E+00  0.00000000000E+00  0.49161477321E+03  0.49161477321E+03  0.00000000000E+00 0. -1.
         -2   -1    0    0    0  501 -0.00000000000E+00 -0.00000000000E+00 -0.29606046639E+03  0.29606046639E+03  0.00000000000E+00 0.  1.
          5    1    1    2  502    0 -0.12495068693E+03  0.52644012465E+02 -0.26593129209E+02  0.13825104243E+03  0.47000000000E+01 0. -1.
         -5    1    1    2    0  502 -0.15542648873E+03 -0.12337191177E+03 -0.86441309181E+02  0.21649991211E+03  0.47000000000E+01 0.  1.
        -11    1    1    2    0    0  0.22653746427E+03  0.50470293904E+02  0.18570268776E+03  0.29724057853E+03  0.00000000000E+00 0. -1.
         11    1    1    2    0    0  0.53839711381E+02  0.20257605400E+02  0.12288605745E+03  0.13568370652E+03  0.00000000000E+00 0.  1.
<mgrwt>
<rscale>  0 0.32779070E+03</rscale>
<asrwt>0</asrwt>
<pdfrwt beam="1">  1        2 0.75633042E-01 0.33626099E+03</pdfrwt>
<pdfrwt beam="2">  1       -2 0.45547764E-01 0.33626099E+03</pdfrwt>
<totfact> 0.29453646E+02</totfact>
</mgrwt>
</event>
<event>
 7    1  0.4230786E-006  0.1589567E+03  0.7546771E-02  0.1197860E+00
         -2   -1    0    0    0  501 -0.00000000000E+00  0.00000000000E+00  0.83092576301E+03  0.83092576301E+03  0.00000000000E+00 0. -1.
          2   -1    0    0  501    0  0.00000000000E+00 -0.00000000000E+00 -0.40987260802E+02  0.40987260802E+02  0.00000000000E+00 0.  1.
         23    2    1    2    0    0  0.17723609334E+02  0.96584968679E+02  0.68205869677E+03  0.70033656293E+03  0.12499781214E+03 0.  0.
          5    1    3    3  502    0 -0.35511488012E+01  0.27848676638E+02  0.21040314563E+02  0.35396953050E+02  0.47000000000E+01 0. -1.
         -5    1    3    3    0  502  0.21274758135E+02  0.68736292040E+02  0.66101838221E+03  0.66493960988E+03  0.47000000000E+01 0. -1.
        -11    1    1    2    0    0 -0.31083900578E+02 -0.10879558030E+03  0.10255563306E+03  0.15271000308E+03  0.00000000000E+00 0. -1.
         11    1    1    2    0    0  0.13360291244E+02  0.12210611625E+02  0.53241723818E+01  0.18866457800E+02  0.00000000000E+00 0.  1.
<mgrwt>
<rscale>  0 0.15214685E+03</rscale>
<asrwt>0</asrwt>
<pdfrwt beam="2">  1        2 0.63057331E-02 0.15895671E+03</pdfrwt>
<pdfrwt beam="1">  1       -2 0.12783472E+00 0.15895671E+03</pdfrwt>
<totfact> 0.54225747E+02</totfact>
</mgrwt>
</event>
<event>
 7    1  0.4230786E-006  0.3971490E+03  0.7546771E-02  0.1044771E+00
         -1   -1    0    0    0  501 -0.00000000000E+00  0.00000000000E+00  0.10257046212E+04  0.10257046212E+04  0.00000000000E+00 0.  1.
          1   -1    0    0  501    0  0.00000000000E+00 -0.00000000000E+00 -0.38443657092E+02  0.38443657092E+02  0.00000000000E+00 0. -1.
         23    2    1    2    0    0  0.19237307259E+02 -0.49496669579E+02  0.78839061044E+03  0.79828921813E+03  0.11351619643E+03 0.  0.
          5    1    3    3  502    0 -0.29970168392E+02  0.21018985597E+02  0.31227193830E+03  0.31444532466E+03  0.47000000000E+01 0. -1.
         -5    1    3    3    0  502  0.49207475651E+02 -0.70515655176E+02  0.47611867214E+03  0.48384389347E+03  0.47000000000E+01 0.  1.
        -11    1    1    2    0    0 -0.29033239835E+02 -0.58001877497E+02  0.49625124017E+02  0.81668841930E+02  0.00000000000E+00 0.  1.
         11    1    1    2    0    0  0.97959325756E+01  0.10749854708E+03  0.14924522961E+03  0.18419021820E+03  0.00000000000E+00 0. -1.
<mgrwt>
<rscale>  0 0.39714902E+03</rscale>
<asrwt>0</asrwt>
<pdfrwt beam="2">  1        1 0.59144096E-02 0.39714902E+03</pdfrwt>
<pdfrwt beam="1">  1       -1 0.15780069E+00 0.39714902E+03</pdfrwt>
<totfact> 0.43487243E+02</totfact>
</mgrwt>
</event>
<event>
 7    1  0.4230786E-006  0.1212297E+03  0.7546771E-02  0.1268459E+00
         -2   -1    0    0    0  501 -0.00000000000E+00  0.00000000000E+00  0.39422782891E+02  0.39422782891E+02  0.00000000000E+00 0.  1.
          2   -1    0    0  501    0  0.00000000000E+00 -0.00000000000E+00 -0.23313367121E+03  0.23313367121E+03  0.00000000000E+00 0. -1.
         23    2    1    2    0    0  0.35641469746E+02  0.26138594558E+02 -0.11934180687E+03  0.17011497402E+03  0.11288532689E+03 0.  0.
          5    1    3    3  502    0  0.58230129414E+02 -0.20356733512E+02 -0.34994150055E+02  0.71076192279E+02  0.47000000000E+01 0. -1.
         -5    1    3    3    0  502 -0.22588659668E+02  0.46495328070E+02 -0.84347656817E+02  0.99038781740E+02  0.47000000000E+01 0.  1.
        -11    1    1    2    0    0  0.13920331467E+02  0.91339168687E+00 -0.16096225068E+02  0.21300196571E+02  0.00000000000E+00 0. -1.
         11    1    1    2    0    0 -0.49561801212E+02 -0.27051986245E+02 -0.58272856377E+02  0.81141283510E+02  0.00000000000E+00 0.  1.
<mgrwt>
<rscale>  0 0.10584740E+03</rscale>
<asrwt>0</asrwt>
<pdfrwt beam="2">  1        2 0.35866718E-01 0.12122969E+03</pdfrwt>
<pdfrwt beam="1">  1       -2 0.60650437E-02 0.12122969E+03</pdfrwt>
<totfact> 0.19335800E+04</totfact>
</mgrwt>
</event>
<event>
 7    1  0.4230786E-006  0.1495751E+03  0.7546771E-02  0.1210258E+00
         -2   -1    0    0    0  501 -0.00000000000E+00  0.00000000000E+00  0.46377470578E+02  0.46377470578E+02  0.00000000000E+00 0.  1.
          2   -1    0    0  501    0  0.00000000000E+00 -0.00000000000E+00 -0.39974057004E+03  0.39974057004E+03  0.00000000000E+00 0. -1.
         23    2    1    2    0    0  0.81756072185E+02  0.76152996697E+01 -0.20240611068E+03  0.25167625512E+03  0.12502262044E+03 0.  0.
          5    1    3    3  502    0  0.12726561544E+02  0.50921091133E+02 -0.29309651700E+02  0.60299822336E+02  0.47000000000E+01 0. -1.
         -5    1    3    3    0  502  0.69029510641E+02 -0.43305791464E+02 -0.17309645898E+03  0.19137643278E+03  0.47000000000E+01 0. -1.
        -11    1    1    2    0    0 -0.29382224799E+02  0.40998197664E+02 -0.52703129538E+02  0.72950580594E+02  0.00000000000E+00 0.  1.
         11    1    1    2    0    0 -0.52373847386E+02 -0.48613497334E+02 -0.98253859251E+02  0.12149120491E+03  0.00000000000E+00 0. -1.
<mgrwt>
<rscale>  0 0.14230715E+03</rscale>
<asrwt>0</asrwt>
<pdfrwt beam="2">  1        2 0.61498550E-01 0.14957508E+03</pdfrwt>
<pdfrwt beam="1">  1       -2 0.71349954E-02 0.14957508E+03</pdfrwt>
<totfact> 0.86575953E+03</totfact>
</mgrwt>
</event>
<event>
 7    1  0.4230786E-006  0.1360219E+03  0.7546771E-02  0.1230380E+00
          1   -1    0    0  501    0  0.00000000000E+00  0.00000000000E+00  0.26997000082E+03  0.26997000082E+03  0.00000000000E+00 0. -1.
         -1   -1    0    0    0  501 -0.00000000000E+00 -0.00000000000E+00 -0.54652667673E+02  0.54652667673E+02  0.00000000000E+00 0.  1.
         23    2    1    2    0    0  0.44508579226E+02  0.29918090286E+02  0.12494468938E+03  0.18469737741E+03  0.12500336022E+03 0.  0.
          5    1    3    3  502    0 -0.14793103751E+02  0.58133466516E+02  0.25315750986E+02  0.65278733870E+02  0.47000000000E+01 0. -1.
         -5    1    3    3    0  502  0.59301682976E+02 -0.28215376230E+02  0.99628938395E+02  0.11941864354E+03  0.47000000000E+01 0. -1.
        -11    1    1    2    0    0  0.25706834044E+02 -0.51873360437E+01  0.50761361859E+01  0.26711737689E+02  0.00000000000E+00 0.  1.
         11    1    1    2    0    0 -0.70215413269E+02 -0.24730754242E+02  0.85296507578E+02  0.11321355339E+03  0.00000000000E+00 0. -1.
<mgrwt>
<rscale>  0 0.12804898E+03</rscale>
<asrwt>0</asrwt>
<pdfrwt beam="1">  1        1 0.41533845E-01 0.13602186E+03</pdfrwt>
<pdfrwt beam="2">  1       -1 0.84081029E-02 0.13602186E+03</pdfrwt>
<totfact> 0.75904115E+03</totfact>
</mgrwt>
</event>
<event>
 6    1  0.4230786E-006  0.2349292E+03  0.7546771E-02  0.1124914E+00
          2   -1    0    0  501    0  0.00000000000E+00  0.00000000000E+00  0.94180366991E+03  0.94180366991E+03  0.00000000000E+00 0. -1.
         -2   -1    0    0    0  501 -0.00000000000E+00 -0.00000000000E+00 -0.58892454059E+02  0.58892454059E+02  0.00000000000E+00 0.  1.
          5    1    1    2  502    0  0.10509615899E+03  0.78200996097E+02  0.18439224236E+03  0.22623701613E+03  0.47000000000E+01 0. -1.
         -5    1    1    2    0  502 -0.39498208919E+02  0.95763292890E+02  0.15917296061E+03  0.18997062447E+03  0.47000000000E+01 0.  1.
        -11    1    1    2    0    0  0.31105392834E+02 -0.40202290828E+02  0.21041355262E+03  0.21646623935E+03  0.00000000000E+00 0.  1.
         11    1    1    2    0    0 -0.96703342904E+02 -0.13376199816E+03  0.32893246026E+03  0.36802224402E+03  0.00000000000E+00 0. -1.
<mgrwt>
<rscale>  0 0.23246832E+03</rscale>
<asrwt>0</asrwt>
<pdfrwt beam="1">  1        2 0.14489286E+00 0.23492925E+03</pdfrwt>
<pdfrwt beam="2">  1       -2 0.90603782E-02 0.23492925E+03</pdfrwt>
<totfact> 0.22122969E+03</totfact>
</mgrwt>
</event>
<event>
 7    1  0.4230786E-006  0.1501591E+03  0.7546771E-02  0.1208803E+00
         -2   -1    0    0    0  501 -0.00000000000E+00  0.00000000000E+00  0.39770168944E+03  0.39770168944E+03  0.00000000000E+00 0.  1.
          2   -1    0    0  501    0  0.00000000000E+00 -0.00000000000E+00 -0.49754841577E+02  0.49754841577E+02  0.00000000000E+00 0. -1.
         23    2    1    2    0    0 -0.61863092269E+02  0.55646810719E+02  0.23581958947E+03  0.27956867123E+03  0.12499661367E+03 0.  0.
          5    1    3    3  502    0 -0.28522365365E+02  0.90299033509E+02  0.19290270939E+03  0.21494414640E+03  0.47000000000E+01 0. -1.
         -5    1    3    3    0  502 -0.33340726905E+02 -0.34652222790E+02  0.42916880079E+02  0.64624524838E+02  0.47000000000E+01 0. -1.
        -11    1    1    2    0    0 -0.12668984876E+02 -0.29873284368E+02  0.20995675444E+01  0.32516526269E+02  0.00000000000E+00 0. -1.
         11    1    1    2    0    0  0.74532077145E+02 -0.25773526351E+02  0.11002769084E+03  0.13537133351E+03  0.00000000000E+00 0.  1.
<mgrwt>
<rscale>  0 0.14341759E+03</rscale>
<asrwt>0</asrwt>
<pdfrwt beam="2">  1        2 0.76545913E-02 0.15015913E+03</pdfrwt>
<pdfrwt beam="1">  1       -2 0.61184873E-01 0.15015913E+03</pdfrwt>
<totfact> 0.22122278E+03</totfact>
</mgrwt>
</event>
<event>
 7    1  0.4230786E-006  0.1310465E+03  0.7546771E-02  0.1246262E+00
         -2   -1    0    0    0  501 -0.00000000000E+00  0.00000000000E+00  0.10095905842E+03  0.10095905842E+03  0.00000000000E+00 0.  1.
          2   -1    0    0  501    0  0.00000000000E+00 -0.00000000000E+00 -0.12393448889E+03  0.12393448889E+03  0.00000000000E+00 0. -1.
         23    2    1    2    0    0  0.16585255437E+02 -0.35618025759E+02  0.12097342745E+02  0.13160373618E+03  0.12501793158E+03 0.  0.
          5    1    3    3  502    0 -0.54494239919E+02 -0.16823008594E+02  0.21800225196E+01  0.57266729440E+02  0.47000000000E+01 0. -1.
         -5    1    3    3    0  502  0.71079495356E+02 -0.18795017165E+02  0.99173202258E+01  0.74337006738E+02  0.47000000000E+01 0. -1.
        -11    1    1    2    0    0  0.12526274761E+02  0.29027316192E+02 -0.50584651524E+02  0.59651484596E+02  0.00000000000E+00 0. -1.
         11    1    1    2    0    0 -0.29111530198E+02  0.65907095667E+01  0.15511878315E+02  0.33638326533E+02  0.00000000000E+00 0.  1.
<mgrwt>
<rscale>  0 0.11810146E+03</rscale>
<asrwt>0</asrwt>
<pdfrwt beam="2">  1        2 0.19066844E-01 0.13104655E+03</pdfrwt>
<pdfrwt beam="1">  1       -2 0.15532163E-01 0.13104655E+03</pdfrwt>
<totfact> 0.89110277E+03</totfact>
</mgrwt>
</event>
<event>
 7    1  0.4230786E-006  0.1461372E+03  0.7546771E-02  0.1214799E+00
          2   -1    0    0  501    0  0.00000000000E+00  0.00000000000E+00  0.89811502744E+02  0.89811502744E+02  0.00000000000E+00 0. -1.
         -2   -1    0    0    0  501 -0.00000000000E+00 -0.00000000000E+00 -0.20048865165E+03  0.20048865165E+03  0.00000000000E+00 0.  1.
         23    2    1    2    0    0  0.27130759440E+02  0.70661737613E+02 -0.82067807597E+02  0.16760434832E+03  0.12500773281E+03 0.  0.
          5    1    3    3  502    0  0.28899616797E+02  0.79841190764E+02 -0.16986459178E+00  0.85040710531E+02  0.47000000000E+01 0.  1.
         -5    1    3    3    0  502 -0.17688573565E+01 -0.91794531512E+01 -0.81897943006E+02  0.82563637790E+02  0.47000000000E+01 0.  1.
        -11    1    1    2    0    0  0.24105775240E+02 -0.10177908440E+02 -0.34394695763E+02  0.43216586130E+02  0.00000000000E+00 0.  1.
         11    1    1    2    0    0 -0.51236534680E+02 -0.60483829173E+02  0.57853544499E+01  0.79479219948E+02  0.00000000000E+00 0. -1.
<mgrwt>
<rscale>  0 0.13891312E+03</rscale>
<asrwt>0</asrwt>
<pdfrwt beam="1">  1        2 0.13817154E-01 0.14613724E+03</pdfrwt>
<pdfrwt beam="2">  1       -2 0.30844407E-01 0.14613724E+03</pdfrwt>
<totfact> 0.40168150E+03</totfact>
</mgrwt>
</event>
<event>
 7    1  0.4230786E-006  0.1216394E+03  0.7546771E-02  0.1252332E+00
          2   -1    0    0  501    0  0.00000000000E+00  0.00000000000E+00  0.58249711000E+03  0.58249711000E+03  0.00000000000E+00 0. -1.
         -2   -1    0    0    0  501 -0.00000000000E+00 -0.00000000000E+00 -0.31971965400E+02  0.31971965400E+02  0.00000000000E+00 0.  1.
         23    2    1    2    0    0 -0.26007474631E+02  0.14463825971E+02  0.11111456904E+03  0.16475008120E+03  0.11794299812E+03 0.  0.
          5    1    3    3  502    0 -0.68312545222E+02  0.11995819950E+01  0.95485608448E+02  0.11750589029E+03  0.47000000000E+01 0. -1.
         -5    1    3    3    0  502  0.42305070591E+02  0.13264243976E+02  0.15628960588E+02  0.47244190913E+02  0.47000000000E+01 0.  1.
        -11    1    1    2    0    0  0.35342112692E+02 -0.45719768773E+02  0.34562127742E+03  0.35041893441E+03  0.00000000000E+00 0. -1.
         11    1    1    2    0    0 -0.93346380617E+01  0.31255942802E+02  0.93789298148E+02  0.99300059795E+02  0.00000000000E+00 0.  1.
<mgrwt>
<rscale>  0 0.11457116E+03</rscale>
<asrwt>0</asrwt>
<pdfrwt beam="1">  1        2 0.89614932E-01 0.12163939E+03</pdfrwt>
<pdfrwt beam="2">  1       -2 0.49187644E-02 0.12163939E+03</pdfrwt>
<totfact> 0.99359952E+03</totfact>
</mgrwt>
</event>
<event>
 7    1  0.4230786E-006  0.2658009E+03  0.7546771E-02  0.1105953E+00
          1   -1    0    0  501    0  0.00000000000E+00  0.00000000000E+00  0.70186178918E+03  0.70186178918E+03  0.00000000000E+00 0. -1.
         -1   -1    0    0    0  501 -0.00000000000E+00 -0.00000000000E+00 -0.10247822225E+03  0.10247822225E+03  0.00000000000E+00 0.  1.
         23    2    1    2    0    0  0.56710034375E+02 -0.22760914210E+03  0.19978876326E+03  0.33251414785E+03  0.12501263548E+03 0.  0.
          5    1    3    3  502    0  0.65492719228E+02 -0.67877573946E+02  0.29771830950E+02  0.99020771734E+02  0.47000000000E+01 0.  1.
         -5    1    3    3    0  502 -0.87826848529E+01 -0.15973156815E+03  0.17001693231E+03  0.23349337611E+03  0.47000000000E+01 0.  1.
        -11    1    1    2    0    0 -0.62876973271E+02  0.86905999389E+02  0.13864692291E+03  0.17529727816E+03  0.00000000000E+00 0.  1.
         11    1    1    2    0    0  0.61669388960E+01  0.14070314271E+03  0.26094788075E+03  0.29652858542E+03  0.00000000000E+00 0. -1.
<mgrwt>
<rscale>  0 0.26199095E+03</rscale>
<asrwt>0</asrwt>
<pdfrwt beam="1">  1        1 0.10797873E+00 0.26580088E+03</pdfrwt>
<pdfrwt beam="2">  1       -1 0.15765881E-01 0.26580088E+03</pdfrwt>
<totfact> 0.83551368E+02</totfact>
</mgrwt>
</event>
<event>
 7    1  0.4230786E-006  0.2229518E+03  0.7546771E-02  0.1134944E+00
          1   -1    0    0  501    0  0.00000000000E+00  0.00000000000E+00  0.19318647435E+03  0.19318647435E+03  0.00000000000E+00 0. -1.
         -1   -1    0    0    0  501 -0.00000000000E+00 -0.00000000000E+00 -0.28173356870E+03  0.28173356870E+03  0.00000000000E+00 0.  1.
         23    2    1    2    0    0  0.13142090757E+03  0.12965602160E+03 -0.13914799667E+03  0.26281111512E+03  0.12500151348E+03 0.  0.
          5    1    3    3  502    0  0.54045929501E+02 -0.16459854265E+02 -0.45815909302E+02  0.72890855690E+02  0.47000000000E+01 0.  1.
         -5    1    3    3    0  502  0.77374978070E+02  0.14611587586E+03 -0.93332087370E+02  0.18992025943E+03  0.47000000000E+01 0.  1.
        -11    1    1    2    0    0 -0.99922706541E+02 -0.87032508547E+02 -0.84275446163E+01  0.13277887006E+03  0.00000000000E+00 0.  1.
         11    1    1    2    0    0 -0.31498201029E+02 -0.42623513049E+02  0.59028446942E+02  0.79330057866E+02  0.00000000000E+00 0. -1.
<mgrwt>
<rscale>  0 0.21858335E+03</rscale>
<asrwt>0</asrwt>
<pdfrwt beam="1">  1        1 0.29720996E-01 0.22295183E+03</pdfrwt>
<pdfrwt beam="2">  1       -1 0.43343626E-01 0.22295183E+03</pdfrwt>
<totfact> 0.81924875E+02</totfact>
</mgrwt>
</event>
<event>
 7    1  0.4230786E-006  0.1322604E+03  0.7546771E-02  0.1282309E+00
         -2   -1    0    0    0  501 -0.00000000000E+00  0.00000000000E+00  0.28380579432E+02  0.28380579432E+02  0.00000000000E+00 0.  1.
          2   -1    0    0  501    0  0.00000000000E+00 -0.00000000000E+00 -0.27150644726E+03  0.27150644726E+03  0.00000000000E+00 0. -1.
         23    2    1    2    0    0 -0.18180648188E+02 -0.29733606969E+02 -0.16590048105E+03  0.21216921416E+03  0.12758598070E+03 0.  0.
          5    1    3    3  502    0 -0.19760142204E+02 -0.62689347594E+02 -0.16625724645E+03  0.17884065399E+03  0.47000000000E+01 0. -1.
         -5    1    3    3    0  502  0.15794940156E+01  0.32955740625E+02  0.35676539964E+00  0.33328560170E+02  0.47000000000E+01 0.  1.
        -11    1    1    2    0    0 -0.21250230715E+01  0.17113169900E+02 -0.38834233641E+02  0.42490869720E+02  0.00000000000E+00 0. -1.
         11    1    1    2    0    0  0.20305671260E+02  0.12620437069E+02 -0.38391153134E+02  0.45226942811E+02  0.00000000000E+00 0.  1.
<mgrwt>
<rscale>  0 0.99048657E+02</rscale>
<asrwt>0</asrwt>
<pdfrwt beam="2">  1        2 0.41770221E-01 0.13226037E+03</pdfrwt>
<pdfrwt beam="1">  1       -2 0.43662431E-02 0.13226037E+03</pdfrwt>
<totfact> 0.27170040E+04</totfact>
</mgrwt>
</event>
<event>
 7    1  0.4230786E-006  0.1505922E+03  0.7546771E-02  0.1208523E+00
         -3   -1    0    0    0  501 -0.00000000000E+00  0.00000000000E+00  0.14390792937E+04  0.14390792937E+04  0.00000000000E+00 0.  1.
          3   -1    0    0  501    0  0.00000000000E+00 -0.00000000000E+00 -0.13857073524E+02  0.13857073524E+02  0.00000000000E+00 0. -1.
         23    2    1    2    0    0  0.29964967141E+01  0.83931916624E+02  0.93887237160E+03  0.95087293240E+03  0.12499783110E+03 0.  0.
          5    1    3    3  502    0 -0.35708334420E+02  0.79174152262E+02  0.34833093985E+03  0.35902669147E+03  0.47000000000E+01 0. -1.
         -5    1    3    3    0  502  0.38704831134E+02  0.47577643619E+01  0.59054143176E+03  0.59184624093E+03  0.47000000000E+01 0. -1.
        -11    1    1    2    0    0 -0.40846539322E+02 -0.74015911749E+02  0.36005271190E+03  0.36984422439E+03  0.00000000000E+00 0. -1.
         11    1    1    2    0    0  0.37850042608E+02 -0.99160048750E+01  0.12629713666E+03  0.13221921043E+03  0.00000000000E+00 0.  1.
<mgrwt>
<rscale>  0 0.14363277E+03</rscale>
<asrwt>0</asrwt>
<pdfrwt beam="2">  1        3 0.21318586E-02 0.15059218E+03</pdfrwt>
<pdfrwt beam="1">  1       -3 0.22139670E+00 0.15059218E+03</pdfrwt>
<totfact> 0.24586379E+02</totfact>
</mgrwt>
</event>
<event>
 7    1  0.4230786E-006  0.1438957E+03  0.7546771E-02  0.1218040E+00
         -2   -1    0    0    0  501 -0.00000000000E+00  0.00000000000E+00  0.40061707480E+02  0.40061707480E+02  0.00000000000E+00 0.  1.
          2   -1    0    0  501    0  0.00000000000E+00 -0.00000000000E+00 -0.49933325787E+03  0.49933325787E+03  0.00000000000E+00 0. -1.
         23    2    1    2    0    0  0.45838848689E+02  0.54581112614E+02 -0.14556515958E+03  0.20468317364E+03  0.12500275192E+03 0.  0.
          5    1    3    3  502    0 -0.10722590237E+02 -0.35104522395E+02 -0.28818977264E+02  0.46903356857E+02  0.47000000000E+01 0.  1.
         -5    1    3    3    0  502  0.56561438926E+02  0.89685635009E+02 -0.11674618231E+03  0.15777981679E+03  0.47000000000E+01 0.  1.
        -11    1    1    2    0    0  0.21223030332E+02  0.98094211805E+01 -0.74087892661E+02  0.77689494780E+02  0.00000000000E+00 0.  1.
         11    1    1    2    0    0 -0.67061879021E+02 -0.64390533795E+02 -0.23961849815E+03  0.25702229693E+03  0.00000000000E+00 0. -1.
<mgrwt>
<rscale>  0 0.13655551E+03</rscale>
<asrwt>0</asrwt>
<pdfrwt beam="2">  1        2 0.76820495E-01 0.14389575E+03</pdfrwt>
<pdfrwt beam="1">  1       -2 0.61633401E-02 0.14389575E+03</pdfrwt>
<totfact> 0.84857622E+03</totfact>
</mgrwt>
</event>
<event>
 7    1  0.4230786E-006  0.1288005E+03  0.7546771E-02  0.1243654E+00
         -1   -1    0    0    0  501 -0.00000000000E+00  0.00000000000E+00  0.45671208227E+02  0.45671208227E+02  0.00000000000E+00 0.  1.
          1   -1    0    0  501    0  0.00000000000E+00 -0.00000000000E+00 -0.46667218668E+03  0.46667218668E+03  0.00000000000E+00 0. -1.
         23    2    1    2    0    0 -0.10582020943E+02  0.29198340241E+02 -0.66243922956E+02  0.14483721889E+03  0.12500016163E+03 0.  0.
          5    1    3    3  502    0 -0.34456860697E+02 -0.10974639666E+02 -0.86359536801E+02  0.93743146744E+02  0.47000000000E+01 0. -1.
         -5    1    3    3    0  502  0.23874839754E+02  0.40172979907E+02  0.20115613845E+02  0.51094072144E+02  0.47000000000E+01 0. -1.
        -11    1    1    2    0    0  0.86116353197E+01 -0.61808645074E+02 -0.20817833872E+03  0.21733082980E+03  0.00000000000E+00 0.  1.
         11    1    1    2    0    0  0.19703856237E+01  0.32610304832E+02 -0.14657871678E+03  0.15017534623E+03  0.00000000000E+00 0. -1.
<mgrwt>
<rscale>  0 0.11966305E+03</rscale>
<asrwt>0</asrwt>
<pdfrwt beam="2">  1        1 0.71795720E-01 0.12880048E+03</pdfrwt>
<pdfrwt beam="1">  1       -1 0.70263398E-02 0.12880048E+03</pdfrwt>
<totfact> 0.49964884E+03</totfact>
</mgrwt>
</event>
<event>
 7    1  0.4230786E-006  0.1384607E+03  0.7546771E-02  0.1226671E+00
          1   -1    0    0  501    0  0.00000000000E+00  0.00000000000E+00  0.10691643445E+03  0.10691643445E+03  0.00000000000E+00 0. -1.
         -1   -1    0    0    0  501 -0.00000000000E+00 -0.00000000000E+00 -0.14465449607E+03  0.14465449607E+03  0.00000000000E+00 0.  1.
         23    2    1    2    0    0 -0.59474116980E+02  0.37917815920E+01 -0.31693640724E+02  0.14204171274E+03  0.12497925067E+03 0.  0.
          5    1    3    3  502    0  0.49018766031E+01 -0.44442446320E+02  0.16801913921E+02  0.47995351239E+02  0.47000000000E+01 0.  1.
         -5    1    3    3    0  502 -0.64375993583E+02  0.48234227912E+02 -0.48495554644E+02  0.94046361505E+02  0.47000000000E+01 0.  1.
        -11    1    1    2    0    0  0.33851420551E+02  0.25160981144E+02  0.33770133383E+02  0.54031616246E+02  0.00000000000E+00 0. -1.
         11    1    1    2    0    0  0.25622696429E+02 -0.28952762736E+02 -0.39814554278E+02  0.55497601522E+02  0.00000000000E+00 0.  1.
<mgrwt>
<rscale>  0 0.13053043E+03</rscale>
<asrwt>0</asrwt>
<pdfrwt beam="1">  1        1 0.16448682E-01 0.13846069E+03</pdfrwt>
<pdfrwt beam="2">  1       -1 0.22254538E-01 0.13846069E+03</pdfrwt>
<totfact> 0.53228145E+03</totfact>
</mgrwt>
</event>
<event>
 7    1  0.4230786E-006  0.1373861E+03  0.7546771E-02  0.1228424E+00
         -2   -1    0    0    0  501 -0.00000000000E+00  0.00000000000E+00  0.83974600937E+02  0.83974600937E+02  0.00000000000E+00 0.  1.
          2   -1    0    0  501    0  0.00000000000E+00 -0.00000000000E+00 -0.17986810582E+03  0.17986810582E+03  0.00000000000E+00 0. -1.
         23    2    1    2    0    0 -0.52048347715E+02 -0.23324318473E+02 -0.45654829446E+02  0.14477330444E+03  0.12498756696E+03 0.  0.
          5    1    3    3  502    0  0.33443562868E+02 -0.31252552197E+00 -0.44806797687E+02  0.56109791378E+02  0.47000000000E+01 0. -1.
         -5    1    3    3    0  502 -0.85491910583E+02 -0.23011792951E+02 -0.84803175820E+00  0.88663513058E+02  0.47000000000E+01 0. -1.
        -11    1    1    2    0    0  0.76821960745E+02  0.10374055187E+02 -0.25120239815E+02  0.81487797381E+02  0.00000000000E+00 0.  1.
         11    1    1    2    0    0 -0.24773613030E+02  0.12950263285E+02 -0.25118435624E+02  0.37581604941E+02  0.00000000000E+00 0. -1.
<mgrwt>
<rscale>  0 0.12934947E+03</rscale>
<asrwt>0</asrwt>
<pdfrwt beam="2">  1        2 0.27672016E-01 0.13738612E+03</pdfrwt>
<pdfrwt beam="1">  1       -2 0.12919169E-01 0.13738612E+03</pdfrwt>
<totfact> 0.79670430E+03</totfact>
</mgrwt>
</event>
<event>
 7    1  0.4230786E-006  0.1272076E+03  0.7546771E-02  0.1245688E+00
          2   -1    0    0  501    0  0.00000000000E+00  0.00000000000E+00  0.10306662503E+03  0.10306662503E+03  0.00000000000E+00 0. -1.
         -2   -1    0    0    0  501 -0.00000000000E+00 -0.00000000000E+00 -0.12397694990E+03  0.12397694990E+03  0.00000000000E+00 0.  1.
         23    2    1    2    0    0 -0.20225525455E+02  0.12165539548E+02 -0.30922559873E+02  0.13091213766E+03  0.12499884338E+03 0.  0.
          5    1    3    3  502    0 -0.54824681876E+02 -0.14837943433E+02 -0.56205090984E+02  0.80043816505E+02  0.47000000000E+01 0. -1.
         -5    1    3    3    0  502  0.34599156421E+02  0.27003482982E+02  0.25282531111E+02  0.50868321159E+02  0.47000000000E+01 0. -1.
        -11    1    1    2    0    0  0.21267944103E+01  0.33294264524E+02  0.28447165244E+02  0.43843728343E+02  0.00000000000E+00 0. -1.
         11    1    1    2    0    0  0.18098731045E+02 -0.45459804072E+02 -0.18434930237E+02  0.52287708924E+02  0.00000000000E+00 0.  1.
<mgrwt>
<rscale>  0 0.11844293E+03</rscale>
<asrwt>0</asrwt>
<pdfrwt beam="1">  1        2 0.15856404E-01 0.12720764E+03</pdfrwt>
<pdfrwt beam="2">  1       -2 0.19073377E-01 0.12720764E+03</pdfrwt>
<totfact> 0.78154516E+03</totfact>
</mgrwt>
</event>
<event>
 7    1  0.4230786E-006  0.1322993E+03  0.7546771E-02  0.1237172E+00
         -2   -1    0    0    0  501 -0.00000000000E+00  0.00000000000E+00  0.61860283627E+03  0.61860283627E+03  0.00000000000E+00 0. -1.
          2   -1    0    0  501    0  0.00000000000E+00 -0.00000000000E+00 -0.30457544493E+02  0.30457544493E+02  0.00000000000E+00 0.  1.
         23    2    1    2    0    0  0.39010662164E+02  0.18944151698E+02  0.49251148076E+03  0.50997124940E+03  0.12498961513E+03 0.  0.
          5    1    3    3  502    0  0.11155026929E+02 -0.31752910872E+02  0.34961672334E+02  0.48755415156E+02  0.47000000000E+01 0. -1.
         -5    1    3    3    0  502  0.27855635235E+02  0.50697062570E+02  0.45754980842E+03  0.46121583424E+03  0.47000000000E+01 0. -1.
        -11    1    1    2    0    0 -0.33397189200E+02 -0.52336956455E+02  0.39663650019E+02  0.73673159225E+02  0.00000000000E+00 0.  1.
         11    1    1    2    0    0 -0.56134729638E+01  0.33392804757E+02  0.55970160999E+02  0.65415972136E+02  0.00000000000E+00 0. -1.
<mgrwt>
<rscale>  0 0.12366394E+03</rscale>
<asrwt>0</asrwt>
<pdfrwt beam="2">  1        2 0.46857765E-02 0.13229934E+03</pdfrwt>
<pdfrwt beam="1">  1       -2 0.95169658E-01 0.13229934E+03</pdfrwt>
<totfact> 0.15871286E+03</totfact>
</mgrwt>
</event>
<event>
 7    1  0.4230786E-006  0.1953658E+03  0.7546771E-02  0.1158202E+00
         -2   -1    0    0    0  501 -0.00000000000E+00  0.00000000000E+00  0.14126929460E+03  0.14126929460E+03  0.00000000000E+00 0.  1.
          2   -1    0    0  501    0  0.00000000000E+00 -0.00000000000E+00 -0.25591979222E+03  0.25591979222E+03  0.00000000000E+00 0. -1.
         23    2    1    2    0    0  0.14582695204E+03  0.35749430484E+02 -0.10328693292E+03  0.22098864394E+03  0.12499707404E+03 0.  0.
          5    1    3    3  502    0  0.15528379473E+03  0.31524341790E+02 -0.49584686797E+02  0.16609506976E+03  0.47000000000E+01 0.  1.
         -5    1    3    3    0  502 -0.94568426992E+01  0.42250886941E+01 -0.53702246124E+02  0.54893574188E+02  0.47000000000E+01 0.  1.
        -11    1    1    2    0    0 -0.43070383058E+02 -0.40621388921E+01  0.38276969631E+02  0.57764048276E+02  0.00000000000E+00 0.  1.
         11    1    1    2    0    0 -0.10275656898E+03 -0.31687291592E+02 -0.49640534328E+02  0.11843639460E+03  0.00000000000E+00 0. -1.
<mgrwt>
<rscale>  0 0.19028820E+03</rscale>
<asrwt>0</asrwt>
<pdfrwt beam="2">  1        2 0.39372275E-01 0.19536579E+03</pdfrwt>
<pdfrwt beam="1">  1       -2 0.21733738E-01 0.19536579E+03</pdfrwt>
<totfact> 0.23329156E+03</totfact>
</mgrwt>
</event>
<event>
 7    1  0.4230786E-006  0.1685471E+03  0.7546771E-02  0.1182614E+00
         -2   -1    0    0    0  501 -0.00000000000E+00  0.00000000000E+00  0.11193954167E+03  0.11193954167E+03  0.00000000000E+00 0.  1.
          2   -1    0    0  501    0  0.00000000000E+00 -0.00000000000E+00 -0.23719250067E+03  0.23719250067E+03  0.00000000000E+00 0. -1.
         23    2    1    2    0    0 -0.10106084664E+03  0.77851944019E+02 -0.54110009573E+02  0.17701983607E+03  0.11015402542E+03 0.  0.
          5    1    3    3  502    0 -0.70871687265E+02  0.19254341275E+02 -0.77542507787E+02  0.10690395796E+03  0.47000000000E+01 0. -1.
         -5    1    3    3    0  502 -0.30189159377E+02  0.58597602744E+02  0.23432498214E+02  0.70115878114E+02  0.47000000000E+01 0.  1.
        -11    1    1    2    0    0 -0.79742644132E+01 -0.22897222805E+02 -0.38879990688E+02  0.45820578140E+02  0.00000000000E+00 0.  1.
         11    1    1    2    0    0  0.10903511106E+03 -0.54954721214E+02 -0.32262958737E+02  0.12629162812E+03  0.00000000000E+00 0. -1.
<mgrwt>
<rscale>  0 0.16550930E+03</rscale>
<asrwt>0</asrwt>
<pdfrwt beam="2">  1        2 0.36491153E-01 0.16854711E+03</pdfrwt>
<pdfrwt beam="1">  1       -2 0.17221468E-01 0.16854711E+03</pdfrwt>
<totfact> 0.37337655E+03</totfact>
</mgrwt>
</event>
<event>
 7    1  0.4230786E-006  0.3256637E+03  0.7546771E-02  0.1074349E+00
         -2   -1    0    0    0  501 -0.00000000000E+00  0.00000000000E+00  0.58849199410E+02  0.58849199410E+02  0.00000000000E+00 0.  1.
          2   -1    0    0  501    0  0.00000000000E+00 -0.00000000000E+00 -0.18177182298E+04  0.18177182298E+04  0.00000000000E+00 0. -1.
         23    2    1    2    0    0 -0.26084218943E+03  0.14966305380E+03 -0.70139824084E+03  0.77331517753E+03  0.12497677415E+03 0.  0.
          5    1    3    3  502    0 -0.10635559995E+03  0.12593887617E+03 -0.42301314772E+03  0.45402018382E+03  0.47000000000E+01 0. -1.
         -5    1    3    3    0  502 -0.15448658948E+03  0.23724177626E+02 -0.27838509312E+03  0.31929499371E+03  0.47000000000E+01 0. -1.
        -11    1    1    2    0    0  0.17649925268E+03 -0.13301512587E+03 -0.64189166540E+03  0.67887400894E+03  0.00000000000E+00 0. -1.
         11    1    1    2    0    0  0.84342936749E+02 -0.16647927923E+02 -0.41557912411E+03  0.42437824270E+03  0.00000000000E+00 0.  1.
<mgrwt>
<rscale>  0 0.32284060E+03</rscale>
<asrwt>0</asrwt>
<pdfrwt beam="2">  1        2 0.27964890E+00 0.32566374E+03</pdfrwt>
<pdfrwt beam="1">  1       -2 0.90537249E-02 0.32566374E+03</pdfrwt>
<totfact> 0.71653493E+02</totfact>
</mgrwt>
</event>
<event>
 7    1  0.4230786E-006  0.1583532E+03  0.7546771E-02  0.1195855E+00
         -2   -1    0    0    0  501 -0.00000000000E+00  0.00000000000E+00  0.63759841986E+02  0.63759841986E+02  0.00000000000E+00 0.  1.
          2   -1    0    0  501    0  0.00000000000E+00 -0.00000000000E+00 -0.46927954345E+03  0.46927954345E+03  0.00000000000E+00 0. -1.
         23    2    1    2    0    0 -0.91458311674E+02 -0.32948209748E+02 -0.78121811952E+02  0.17657504277E+03  0.12500208370E+03 0.  0.
          5    1    3    3  502    0 -0.29090723815E+01  0.27281766112E+01  0.30944951260E+02  0.31552902532E+02  0.47000000000E+01 0.  1.
         -5    1    3    3    0  502 -0.88549239292E+02 -0.35676386359E+02 -0.10906676321E+03  0.14502214024E+03  0.47000000000E+01 0.  1.
        -11    1    1    2    0    0  0.65375548239E+02  0.68165882157E+02 -0.25382931323E+03  0.27083181137E+03  0.00000000000E+00 0.  1.
         11    1    1    2    0    0  0.26082763435E+02 -0.35217672409E+02 -0.73568576285E+02  0.85632531289E+02  0.00000000000E+00 0. -1.
<mgrwt>
<rscale>  0 0.15382084E+03</rscale>
<asrwt>0</asrwt>
<pdfrwt beam="2">  1        2 0.72196855E-01 0.15835318E+03</pdfrwt>
<pdfrwt beam="1">  1       -2 0.98092061E-02 0.15835318E+03</pdfrwt>
<totfact> 0.44517346E+03</totfact>
</mgrwt>
</event>
<event>
 7    1  0.4230786E-006  0.1513196E+03  0.7546771E-02  0.1207521E+00
          2   -1    0    0  501    0  0.00000000000E+00  0.00000000000E+00  0.22926076314E+03  0.22926076314E+03  0.00000000000E+00 0. -1.
         -2   -1    0    0    0  501 -0.00000000000E+00 -0.00000000000E+00 -0.86925349134E+02  0.86925349134E+02  0.00000000000E+00 0.  1.
         23    2    1    2    0    0  0.71423702631E+02  0.46617503353E+02  0.46581499274E+02  0.15832708991E+03  0.12499237741E+03 0.  0.
          5    1    3    3  502    0  0.66889889997E+02 -0.23688728904E+02 -0.43762748027E+01  0.71250649415E+02  0.47000000000E+01 0. -1.
         -5    1    3    3    0  502  0.45338126340E+01  0.70306232257E+02  0.50957774077E+02  0.87076440500E+02  0.47000000000E+01 0. -1.
        -11    1    1    2    0    0 -0.47321457404E+02 -0.35742110667E+02  0.81691972546E+00  0.59308398761E+02  0.00000000000E+00 0.  1.
         11    1    1    2    0    0 -0.24102245227E+02 -0.10875392686E+02  0.94936995006E+02  0.98550623599E+02  0.00000000000E+00 0. -1.
<mgrwt>
<rscale>  0 0.14440552E+03</rscale>
<asrwt>0</asrwt>
<pdfrwt beam="1">  1        2 0.35270886E-01 0.15131963E+03</pdfrwt>
<pdfrwt beam="2">  1       -2 0.13373131E-01 0.15131963E+03</pdfrwt>
<totfact> 0.58328191E+03</totfact>
</mgrwt>
</event>
<event>
 7    1  0.4230786E-006  0.1256868E+03  0.7546771E-02  0.1248746E+00
         -3   -1    0    0    0  501 -0.00000000000E+00  0.00000000000E+00  0.57505663007E+03  0.57505663007E+03  0.00000000000E+00 0.  1.
          3   -1    0    0  501    0  0.00000000000E+00 -0.00000000000E+00 -0.29784673900E+02  0.29784673900E+02  0.00000000000E+00 0. -1.
         23    2    1    2    0    0 -0.85503293006E+01  0.97352480795E+01  0.46543226595E+03  0.48210409492E+03  0.12501712269E+03 0.  0.
          5    1    3    3  502    0 -0.19906534104E+02  0.29829967693E+02  0.45484175456E+03  0.45627755672E+03  0.47000000000E+01 0. -1.
         -5    1    3    3    0  502  0.11356204804E+02 -0.20094719614E+02  0.10590511385E+02  0.25826538198E+02  0.47000000000E+01 0. -1.
        -11    1    1    2    0    0  0.26922663505E+02 -0.41725496645E+02  0.22410376120E+02  0.54480013201E+02  0.00000000000E+00 0. -1.
         11    1    1    2    0    0 -0.18372334204E+02  0.31990248566E+02  0.57429314107E+02  0.68257195857E+02  0.00000000000E+00 0.  1.
<mgrwt>
<rscale>  0 0.11663931E+03</rscale>
<asrwt>0</asrwt>
<pdfrwt beam="2">  1        3 0.45822579E-02 0.12568677E+03</pdfrwt>
<pdfrwt beam="1">  1       -3 0.88470243E-01 0.12568677E+03</pdfrwt>
<totfact> 0.71469462E+02</totfact>
</mgrwt>
</event>
<event>
 7    1  0.4230786E-006  0.1295505E+03  0.7546771E-02  0.1242242E+00
         -1   -1    0    0    0  501 -0.00000000000E+00  0.00000000000E+00  0.18359534444E+03  0.18359534444E+03  0.00000000000E+00 0.  1.
          1   -1    0    0  501    0  0.00000000000E+00 -0.00000000000E+00 -0.81547983222E+02  0.81547983222E+02  0.00000000000E+00 0. -1.
         23    2    1    2    0    0 -0.32435765368E+02  0.16573110265E+01  0.10694247081E+03  0.16798814382E+03  0.12541331208E+03 0.  0.
          5    1    3    3  502    0 -0.64861740315E+02  0.64862716860E+01  0.10722853681E+02  0.66228292052E+02  0.47000000000E+01 0. -1.
         -5    1    3    3    0  502  0.32425974947E+02 -0.48289606595E+01  0.96219617128E+02  0.10175985177E+03  0.47000000000E+01 0. -1.
        -11    1    1    2    0    0 -0.13797463336E+02  0.26109826901E+02 -0.25898552418E+02  0.39278850195E+02  0.00000000000E+00 0. -1.
         11    1    1    2    0    0  0.46233228704E+02 -0.27767137927E+02  0.21003442825E+02  0.57876333640E+02  0.00000000000E+00 0.  1.
<mgrwt>
<rscale>  0 0.12051962E+03</rscale>
<asrwt>0</asrwt>
<pdfrwt beam="2">  1        1 0.12545844E-01 0.12955047E+03</pdfrwt>
<pdfrwt beam="1">  1       -1 0.28245437E-01 0.12955047E+03</pdfrwt>
<totfact> 0.50903790E+03</totfact>
</mgrwt>
</event>
<event>
 7    1  0.4230786E-006  0.1374725E+03  0.7546771E-02  0.1228749E+00
         -1   -1    0    0    0  501 -0.00000000000E+00  0.00000000000E+00  0.73667123589E+03  0.73667123589E+03  0.00000000000E+00 0.  1.
          1   -1    0    0  501    0  0.00000000000E+00 -0.00000000000E+00 -0.25282705947E+02  0.25282705947E+02  0.00000000000E+00 0. -1.
         23    2    1    2    0    0 -0.22739149135E+02 -0.52509708558E+02  0.55952598010E+03  0.57616665304E+03  0.12499740509E+03 0.  0.
          5    1    3    3  502    0  0.22926838297E+02  0.26428691536E+02  0.27722966495E+03  0.27946823214E+03  0.47000000000E+01 0.  1.
         -5    1    3    3    0  502 -0.45665987433E+02 -0.78938400094E+02  0.28229631515E+03  0.29669842090E+03  0.47000000000E+01 0.  1.
        -11    1    1    2    0    0  0.36970795500E+02  0.68087643351E+02  0.14352093529E+03  0.16309820895E+03  0.00000000000E+00 0.  1.
         11    1    1    2    0    0 -0.14231646365E+02 -0.15577934794E+02  0.83416145608E+01  0.22689079844E+02  0.00000000000E+00 0. -1.
<mgrwt>
<rscale>  0 0.12913226E+03</rscale>
<asrwt>0</asrwt>
<pdfrwt beam="2">  1        1 0.38896476E-02 0.13747251E+03</pdfrwt>
<pdfrwt beam="1">  1       -1 0.11333402E+00 0.13747251E+03</pdfrwt>
<totfact> 0.17426925E+03</totfact>
</mgrwt>
</event>
<event>
 7    1  0.4230786E-006  0.1322947E+03  0.7546771E-02  0.1235466E+00
         -1   -1    0    0    0  501 -0.00000000000E+00  0.00000000000E+00  0.83850145126E+02  0.83850145126E+02  0.00000000000E+00 0.  1.
          1   -1    0    0  501    0  0.00000000000E+00 -0.00000000000E+00 -0.18246922701E+03  0.18246922701E+03  0.00000000000E+00 0. -1.
         23    2    1    2    0    0  0.39288813756E+02  0.18265658638E+02 -0.16450887896E+02  0.13331359315E+03  0.12499854893E+03 0.  0.
          5    1    3    3  502    0  0.58464184163E+02 -0.31246769327E+02  0.19214355380E+02  0.69178774750E+02  0.47000000000E+01 0. -1.
         -5    1    3    3    0  502 -0.19175370407E+02  0.49512427965E+02 -0.35665243276E+02  0.64134818400E+02  0.47000000000E+01 0. -1.
        -11    1    1    2    0    0 -0.63438422550E+02 -0.17420223500E+02 -0.86274356107E+02  0.10849498682E+03  0.00000000000E+00 0.  1.
         11    1    1    2    0    0  0.24149608794E+02 -0.84543513857E+00  0.41061621206E+01  0.24510792171E+02  0.00000000000E+00 0. -1.
<mgrwt>
<rscale>  0 0.12474657E+03</rscale>
<asrwt>0</asrwt>
<pdfrwt beam="2">  1        1 0.28072188E-01 0.13229468E+03</pdfrwt>
<pdfrwt beam="1">  1       -1 0.12900022E-01 0.13229468E+03</pdfrwt>
<totfact> 0.63963715E+03</totfact>
</mgrwt>
</event>
<event>
 7    1  0.4230786E-006  0.1596247E+03  0.7546771E-02  0.1196457E+00
          1   -1    0    0  501    0  0.00000000000E+00  0.00000000000E+00  0.25051661730E+03  0.25051661730E+03  0.00000000000E+00 0. -1.
         -1   -1    0    0    0  501 -0.00000000000E+00 -0.00000000000E+00 -0.13040451500E+03  0.13040451500E+03  0.00000000000E+00 0.  1.
         23    2    1    2    0    0 -0.64731174663E+02  0.75204220833E+02 -0.46203321023E+02  0.16617694887E+03  0.12503692117E+03 0.  0.
          5    1    3    3  502    0 -0.83955061045E+01 -0.17045527475E+02 -0.54261449654E+02  0.57683875114E+02  0.47000000000E+01 0.  1.
         -5    1    3    3    0  502 -0.56335668559E+02  0.92249748308E+02  0.80581286311E+01  0.10849307375E+03  0.47000000000E+01 0.  1.
        -11    1    1    2    0    0  0.49799814041E+02 -0.37180943907E+02  0.23899600179E+02  0.66585546157E+02  0.00000000000E+00 0.  1.
         11    1    1    2    0    0  0.14931360622E+02 -0.38023276927E+02  0.14241582314E+03  0.14815863727E+03  0.00000000000E+00 0. -1.
<mgrwt>
<rscale>  0 0.15331584E+03</rscale>
<asrwt>0</asrwt>
<pdfrwt beam="1">  1        1 0.38541018E-01 0.15962466E+03</pdfrwt>
<pdfrwt beam="2">  1       -1 0.20062233E-01 0.15962466E+03</pdfrwt>
<totfact> 0.21681218E+03</totfact>
</mgrwt>
</event>
<event>
 7    1  0.4230786E-006  0.1603762E+03  0.7546771E-02  0.1195520E+00
          2   -1    0    0  501    0  0.00000000000E+00  0.00000000000E+00  0.27039992626E+03  0.27039992626E+03  0.00000000000E+00 0.  1.
         -2   -1    0    0    0  501 -0.00000000000E+00 -0.00000000000E+00 -0.83454386199E+02  0.83454386199E+02  0.00000000000E+00 0. -1.
         23    2    1    2    0    0 -0.80236228270E+02 -0.60481232372E+02  0.74505679218E+02  0.17683782377E+03  0.12499875153E+03 0.  0.
          5    1    3    3  502    0  0.39050553653E+01 -0.77037849478E+01 -0.30605445333E+02  0.32146244633E+02  0.47000000000E+01 0. -1.
         -5    1    3    3    0  502 -0.84141283635E+02 -0.52777447424E+02  0.10511112455E+03  0.14469157914E+03  0.47000000000E+01 0. -1.
        -11    1    1    2    0    0  0.37064939021E+02  0.16933433008E+02 -0.83100959857E+01  0.41588562771E+02  0.00000000000E+00 0.  1.
         11    1    1    2    0    0  0.43171289249E+02  0.43547799364E+02  0.12074995683E+03  0.13542792592E+03  0.00000000000E+00 0. -1.
<mgrwt>
<rscale>  0 0.15410340E+03</rscale>
<asrwt>0</asrwt>
<pdfrwt beam="1">  1        2 0.41599988E-01 0.16037618E+03</pdfrwt>
<pdfrwt beam="2">  1       -2 0.12839136E-01 0.16037618E+03</pdfrwt>
<totfact> 0.52392403E+03</totfact>
</mgrwt>
</event>
<event>
 6    1  0.4230786E-006  0.5394558E+03  0.7546771E-02  0.1045052E+00
          1   -1    0    0  501    0  0.00000000000E+00  0.00000000000E+00  0.13527372922E+04  0.13527372922E+04  0.00000000000E+00 0. -1.
         -1   -1    0    0    0  501 -0.00000000000E+00 -0.00000000000E+00 -0.90278740594E+02  0.90278740594E+02  0.00000000000E+00 0.  1.
          5    1    1    2  502    0  0.11094112247E+03 -0.27180376869E+03  0.74549105756E+03  0.80122670214E+03  0.47000000000E+01 0. -1.
         -5    1    1    2    0  502 -0.18380440860E+01  0.20150416430E+03  0.18117039553E+03  0.27102049526E+03  0.47000000000E+01 0.  1.
        -11    1    1    2    0    0 -0.10155701788E+03  0.88684107735E+02  0.31116241614E+03  0.33911760211E+03  0.00000000000E+00 0.  1.
         11    1    1    2    0    0 -0.75460605038E+01 -0.18384503343E+02  0.24634682381E+02  0.31651233282E+02  0.00000000000E+00 0. -1.
<mgrwt>
<rscale>  0 0.39634708E+03</rscale>
<asrwt>0</asrwt>
<pdfrwt beam="1">  1        1 0.20811342E+00 0.53945584E+03</pdfrwt>
<pdfrwt beam="2">  1       -1 0.13889038E-01 0.53945584E+03</pdfrwt>
<totfact> 0.31860457E+02</totfact>
</mgrwt>
</event>
<event>
 7    1  0.4230786E-006  0.1138852E+03  0.7546771E-02  0.1263530E+00
         -1   -1    0    0    0  501 -0.00000000000E+00  0.00000000000E+00  0.17432499098E+02  0.17432499098E+02  0.00000000000E+00 0.  1.
          1   -1    0    0  501    0  0.00000000000E+00 -0.00000000000E+00 -0.67662166692E+03  0.67662166692E+03  0.00000000000E+00 0. -1.
         23    2    1    2    0    0 -0.23341682977E+02  0.71599538537E+01 -0.25652768850E+03  0.28067114061E+03  0.11123729188E+03 0.  0.
          5    1    3    3  502    0 -0.55477571446E+02  0.81159592366E+01 -0.23512582071E+03  0.24176408189E+03  0.47000000000E+01 0. -1.
         -5    1    3    3    0  502  0.32135888468E+02 -0.95600538287E+00 -0.21401867791E+02  0.38907058728E+02  0.47000000000E+01 0.  1.
        -11    1    1    2    0    0  0.36934858048E+02  0.31961610685E+02 -0.16269342628E+03  0.16986724007E+03  0.00000000000E+00 0. -1.
         11    1    1    2    0    0 -0.13593175071E+02 -0.39121564539E+02 -0.23996805305E+03  0.24351578533E+03  0.00000000000E+00 0.  1.
<mgrwt>
<rscale>  0 0.10841686E+03</rscale>
<asrwt>0</asrwt>
<pdfrwt beam="2">  1        1 0.10409561E+00 0.11388518E+03</pdfrwt>
<pdfrwt beam="1">  1       -1 0.26819237E-02 0.11388518E+03</pdfrwt>
<totfact> 0.12416750E+04</totfact>
</mgrwt>
</event>
<event>
 7    1  0.4230786E-006  0.1296755E+03  0.7546771E-02  0.1245342E+00
          1   -1    0    0  501    0  0.00000000000E+00  0.00000000000E+00  0.37377424197E+03  0.37377424197E+03  0.00000000000E+00 0. -1.
         -1   -1    0    0    0  501 -0.00000000000E+00 -0.00000000000E+00 -0.33148509591E+02  0.33148509591E+02  0.00000000000E+00 0.  1.
         23    2    1    2    0    0 -0.20039991955E+02  0.27894979121E+02  0.17250576772E+03  0.21581001624E+03  0.12504396057E+03 0.  0.
          5    1    3    3  502    0 -0.44675266127E+02  0.51235068890E+01  0.56668403061E+01  0.45566794987E+02  0.47000000000E+01 0. -1.
         -5    1    3    3    0  502  0.24635274172E+02  0.22771472233E+02  0.16683892742E+03  0.17024322125E+03  0.47000000000E+01 0. -1.
        -11    1    1    2    0    0 -0.95159953073E+01 -0.17373507619E+02 -0.28443864483E+00  0.19810952502E+02  0.00000000000E+00 0.  1.
         11    1    1    2    0    0  0.29555987262E+02 -0.10521471502E+02  0.16840440330E+03  0.17130178282E+03  0.00000000000E+00 0. -1.
<mgrwt>
<rscale>  0 0.11864904E+03</rscale>
<asrwt>0</asrwt>
<pdfrwt beam="1">  1        1 0.57503727E-01 0.12967545E+03</pdfrwt>
<pdfrwt beam="2">  1       -1 0.50997710E-02 0.12967545E+03</pdfrwt>
<totfact> 0.10664857E+04</totfact>
</mgrwt>
</event>
<event>
 7    1  0.4230786E-006  0.1257048E+03  0.7546771E-02  0.1249064E+00
         -1   -1    0    0    0  501 -0.00000000000E+00  0.00000000000E+00  0.62360475921E+03  0.62360475921E+03  0.00000000000E+00 0.  1.
          1   -1    0    0  501    0  0.00000000000E+00 -0.00000000000E+00 -0.20846866218E+02  0.20846866218E+02  0.00000000000E+00 0. -1.
         23    2    1    2    0    0 -0.12993621548E+02 -0.34579133735E+01  0.43546134139E+03  0.45324196637E+03  0.12498363438E+03 0.  0.
          5    1    3    3  502    0  0.13358427271E+00 -0.95002134749E+01 -0.55525689796E+01  0.11966324544E+02  0.47000000000E+01 0. -1.
         -5    1    3    3    0  502 -0.13127205821E+02  0.60423001014E+01  0.44101391037E+03  0.44127564182E+03  0.47000000000E+01 0. -1.
        -11    1    1    2    0    0 -0.19826603824E+02 -0.29453953083E+02  0.11898567252E+03  0.12417012458E+03  0.00000000000E+00 0.  1.
         11    1    1    2    0    0  0.32820225371E+02  0.32911866456E+02  0.48310879078E+02  0.67039534488E+02  0.00000000000E+00 0. -1.
<mgrwt>
<rscale>  0 0.11645430E+03</rscale>
<asrwt>0</asrwt>
<pdfrwt beam="2">  1        1 0.32072107E-02 0.12570481E+03</pdfrwt>
<pdfrwt beam="1">  1       -1 0.95939180E-01 0.12570481E+03</pdfrwt>
<totfact> 0.32815476E+03</totfact>
</mgrwt>
</event>
<event>
 7    1  0.4230786E-006  0.1304706E+03  0.7546771E-02  0.1241180E+00
          1   -1    0    0  501    0  0.00000000000E+00  0.00000000000E+00  0.12989982146E+03  0.12989982146E+03  0.00000000000E+00 0. -1.
         -1   -1    0    0    0  501 -0.00000000000E+00 -0.00000000000E+00 -0.10399585274E+03  0.10399585274E+03  0.00000000000E+00 0.  1.
         23    2    1    2    0    0 -0.34285580454E+02  0.14844567188E+02 -0.89268832232E+01  0.13077561554E+03  0.12500684051E+03 0.  0.
          5    1    3    3  502    0  0.38443354924E+02 -0.93550030685E+01 -0.31435886657E+02  0.50751478698E+02  0.47000000000E+01 0.  1.
         -5    1    3    3    0  502 -0.72728935378E+02  0.24199570257E+02  0.22509003433E+02  0.80024136842E+02  0.47000000000E+01 0.  1.
        -11    1    1    2    0    0  0.45112814931E+02 -0.42535740487E+02  0.70056835804E+01  0.62398196226E+02  0.00000000000E+00 0.  1.
         11    1    1    2    0    0 -0.10827234477E+02  0.27691173299E+02  0.27825168365E+02  0.40721862428E+02  0.00000000000E+00 0. -1.
<mgrwt>
<rscale>  0 0.12116970E+03</rscale>
<asrwt>0</asrwt>
<pdfrwt beam="1">  1        1 0.19984588E-01 0.13047058E+03</pdfrwt>
<pdfrwt beam="2">  1       -1 0.15999362E-01 0.13047058E+03</pdfrwt>
<totfact> 0.70008236E+03</totfact>
</mgrwt>
</event>
<event>
 7    1  0.4230786E-006  0.1252690E+03  0.7546771E-02  0.1242028E+00
         -1   -1    0    0    0  501 -0.00000000000E+00  0.00000000000E+00  0.12753031833E+03  0.12753031833E+03  0.00000000000E+00 0.  1.
          1   -1    0    0  501    0  0.00000000000E+00 -0.00000000000E+00 -0.10690993722E+03  0.10690993722E+03  0.00000000000E+00 0. -1.
         23    2    1    2    0    0 -0.80383150377E+01  0.15087835371E+01  0.18495601013E+02  0.12662705109E+03  0.12500172748E+03 0.  0.
          5    1    3    3  502    0 -0.16950497522E+02 -0.57160147175E+02 -0.99910427678E+01  0.60634253743E+02  0.47000000000E+01 0. -1.
         -5    1    3    3    0  502  0.89121824841E+01  0.58668930713E+02  0.28486643781E+02  0.65992797345E+02  0.47000000000E+01 0. -1.
        -11    1    1    2    0    0  0.50806910831E+02  0.12871720953E+02 -0.21772119634E+02  0.56754282498E+02  0.00000000000E+00 0. -1.
         11    1    1    2    0    0 -0.42768595794E+02 -0.14380504490E+02  0.23896899726E+02  0.51058921964E+02  0.00000000000E+00 0.  1.
<mgrwt>
<rscale>  0 0.12065063E+03</rscale>
<asrwt>0</asrwt>
<pdfrwt beam="2">  1        1 0.16447683E-01 0.12526900E+03</pdfrwt>
<pdfrwt beam="1">  1       -1 0.19620049E-01 0.12526900E+03</pdfrwt>
<totfact> 0.64767593E+03</totfact>
</mgrwt>
</event>
<event>
 7    1  0.4230786E-006  0.1294862E+03  0.7546771E-02  0.1241115E+00
          2   -1    0    0  501    0  0.00000000000E+00  0.00000000000E+00  0.24648478768E+03  0.24648478768E+03  0.00000000000E+00 0. -1.
         -2   -1    0    0    0  501 -0.00000000000E+00 -0.00000000000E+00 -0.54659827776E+02  0.54659827776E+02  0.00000000000E+00 0.  1.
         23    2    1    2    0    0 -0.31095993505E+02 -0.12964066468E+02  0.83307759297E+02  0.15397028836E+03  0.12502655361E+03 0.  0.
          5    1    3    3  502    0  0.75645388090E+01  0.42858133780E+02 -0.32059913926E+01  0.43890890391E+02  0.47000000000E+01 0.  1.
         -5    1    3    3    0  502 -0.38660532315E+02 -0.55822200248E+02  0.86513750690E+02  0.11007939797E+03  0.47000000000E+01 0.  1.
        -11    1    1    2    0    0  0.44682833855E+02  0.29807169031E+02  0.22087156214E+02  0.58076375891E+02  0.00000000000E+00 0.  1.
         11    1    1    2    0    0 -0.13586840350E+02 -0.16843102563E+02  0.86430044392E+02  0.89097951201E+02  0.00000000000E+00 0. -1.
<mgrwt>
<rscale>  0 0.12120925E+03</rscale>
<asrwt>0</asrwt>
<pdfrwt beam="1">  1        2 0.37920736E-01 0.12948617E+03</pdfrwt>
<pdfrwt beam="2">  1       -2 0.84092044E-02 0.12948617E+03</pdfrwt>
<totfact> 0.11118401E+04</totfact>
</mgrwt>
</event>
<event>
 7    1  0.4230786E-006  0.1279026E+03  0.7546771E-02  0.1245161E+00
          2   -1    0    0  501    0  0.00000000000E+00  0.00000000000E+00  0.96691439576E+02  0.96691439576E+02  0.00000000000E+00 0. -1.
         -2   -1    0    0    0  501 -0.00000000000E+00 -0.00000000000E+00 -0.18905744039E+03  0.18905744039E+03  0.00000000000E+00 0.  1.
         23    2    1    2    0    0  0.19071230694E+02 -0.19272649706E+02 -0.13104779477E+03  0.18311905586E+03  0.12499566887E+03 0.  0.
          5    1    3    3  502    0 -0.42036209482E+02 -0.44211614054E+02 -0.54520790984E+02  0.81953135232E+02  0.47000000000E+01 0.  1.
         -5    1    3    3    0  502  0.61107440176E+02  0.24938964347E+02 -0.76527003790E+02  0.10116592063E+03  0.47000000000E+01 0.  1.
        -11    1    1    2    0    0 -0.31835961730E+01  0.95724460312E+01 -0.29905607526E+02  0.31561247901E+02  0.00000000000E+00 0.  1.
         11    1    1    2    0    0 -0.15887634521E+02  0.97002036753E+01  0.68587401483E+02  0.71068576207E+02  0.00000000000E+00 0. -1.
<mgrwt>
<rscale>  0 0.11875723E+03</rscale>
<asrwt>0</asrwt>
<pdfrwt beam="1">  1        2 0.14875606E-01 0.12790256E+03</pdfrwt>
<pdfrwt beam="2">  1       -2 0.29085760E-01 0.12790256E+03</pdfrwt>
<totfact> 0.40588652E+03</totfact>
</mgrwt>
</event>
<event>
 7    1  0.4230786E-006  0.1297517E+03  0.7546771E-02  0.1240327E+00
          2   -1    0    0  501    0  0.00000000000E+00  0.00000000000E+00  0.68330998908E+02  0.68330998908E+02  0.00000000000E+00 0. -1.
         -2   -1    0    0    0  501 -0.00000000000E+00 -0.00000000000E+00 -0.20069298217E+03  0.20069298217E+03  0.00000000000E+00 0.  1.
         23    2    1    2    0    0  0.17458270751E+02  0.30158902596E+02 -0.99052709832E+02  0.16323894185E+03  0.12498464781E+03 0.  0.
          5    1    3    3  502    0  0.13221328353E+02  0.76913655809E+02 -0.81395779158E+02  0.11286220288E+03  0.47000000000E+01 0.  1.
         -5    1    3    3    0  502  0.42369423982E+01 -0.46754753214E+02 -0.17656930675E+02  0.50376738976E+02  0.47000000000E+01 0.  1.
        -11    1    1    2    0    0 -0.24433585584E+02 -0.17499118028E+02 -0.64637718362E+02  0.71282914301E+02  0.00000000000E+00 0.  1.
         11    1    1    2    0    0  0.69753148323E+01 -0.12659784568E+02  0.31328444934E+02  0.34502124924E+02  0.00000000000E+00 0. -1.
<mgrwt>
<rscale>  0 0.12169498E+03</rscale>
<asrwt>0</asrwt>
<pdfrwt beam="1">  1        2 0.10512462E-01 0.12975174E+03</pdfrwt>
<pdfrwt beam="2">  1       -2 0.30875843E-01 0.12975174E+03</pdfrwt>
<totfact> 0.55249662E+03</totfact>
</mgrwt>
</event>
<event>
 7    1  0.4230786E-006  0.1401652E+03  0.7546771E-02  0.1223064E+00
          1   -1    0    0  501    0  0.00000000000E+00  0.00000000000E+00  0.95080232616E+02  0.95080232616E+02  0.00000000000E+00 0. -1.
         -1   -1    0    0    0  501 -0.00000000000E+00 -0.00000000000E+00 -0.18889242605E+03  0.18889242605E+03  0.00000000000E+00 0.  1.
         23    2    1    2    0    0 -0.36968292921E+02 -0.51518134094E+02 -0.96708645514E+02  0.17029045744E+03  0.12500201980E+03 0.  0.
          5    1    3    3  502    0  0.22263659416E+02 -0.72704173073E+02 -0.62442224614E+02  0.98502227018E+02  0.47000000000E+01 0. -1.
         -5    1    3    3    0  502 -0.59231952337E+02  0.21186038978E+02 -0.34266420900E+02  0.71788230419E+02  0.47000000000E+01 0. -1.
        -11    1    1    2    0    0  0.27662743985E+02  0.45257089910E+01  0.42917091968E+02  0.51259986634E+02  0.00000000000E+00 0. -1.
         11    1    1    2    0    0  0.93055489360E+01  0.46992425103E+02 -0.40020639889E+02  0.62422214597E+02  0.00000000000E+00 0.  1.
<mgrwt>
<rscale>  0 0.13300500E+03</rscale>
<asrwt>0</asrwt>
<pdfrwt beam="1">  1        1 0.14627728E-01 0.14016518E+03</pdfrwt>
<pdfrwt beam="2">  1       -1 0.29060373E-01 0.14016518E+03</pdfrwt>
<totfact> 0.39939244E+03</totfact>
</mgrwt>
</event>
<event>
 7    1  0.4230786E-006  0.1570941E+03  0.7546771E-02  0.1199511E+00
         -2   -1    0    0    0  501 -0.00000000000E+00  0.00000000000E+00  0.26081942587E+03  0.26081942587E+03  0.00000000000E+00 0.  1.
          2   -1    0    0  501    0  0.00000000000E+00 -0.00000000000E+00 -0.81128128609E+02  0.81128128609E+02  0.00000000000E+00 0. -1.
         23    2    1    2    0    0  0.40908701513E+02 -0.85906093425E+02  0.87248590123E+02  0.17969665448E+03  0.12500076962E+03 0.  0.
          5    1    3    3  502    0  0.63369185273E+02 -0.15732186830E+02  0.83049062137E+02  0.10574683005E+03  0.47000000000E+01 0. -1.
         -5    1    3    3    0  502 -0.22460483760E+02 -0.70173906595E+02  0.41995279864E+01  0.73949824427E+02  0.47000000000E+01 0. -1.
        -11    1    1    2    0    0 -0.17711923748E+02  0.32979683652E+02  0.97307479095E+02  0.10425985452E+03  0.00000000000E+00 0.  1.
         11    1    1    2    0    0 -0.23196777765E+02  0.52926409773E+02 -0.48647719528E+01  0.57991045483E+02  0.00000000000E+00 0. -1.
<mgrwt>
<rscale>  0 0.15078584E+03</rscale>
<asrwt>0</asrwt>
<pdfrwt beam="2">  1        2 0.12481251E-01 0.15709415E+03</pdfrwt>
<pdfrwt beam="1">  1       -2 0.40126065E-01 0.15709415E+03</pdfrwt>
<totfact> 0.27969458E+03</totfact>
</mgrwt>
</event>
<event>
 7    1  0.4230786E-006  0.2187599E+03  0.7546771E-02  0.1137910E+00
         -2   -1    0    0    0  501 -0.00000000000E+00  0.00000000000E+00  0.29697402034E+03  0.29697402034E+03  0.00000000000E+00 0.  1.
          2   -1    0    0  501    0  0.00000000000E+00 -0.00000000000E+00 -0.16930291223E+03  0.16930291223E+03  0.00000000000E+00 0. -1.
         23    2    1    2    0    0 -0.17812957275E+03  0.22432544961E+02  0.14528361631E+03  0.26260847596E+03  0.12499007447E+03 0.  0.
          5    1    3    3  502    0  0.21983634861E+00  0.27795065199E+02  0.56749737014E+02  0.63365894837E+02  0.47000000000E+01 0.  1.
         -5    1    3    3    0  502 -0.17834940910E+03 -0.53625202372E+01  0.88533879291E+02  0.19924258112E+03  0.47000000000E+01 0.  1.
        -11    1    1    2    0    0  0.35549329873E+02 -0.45308980101E+02 -0.13768866087E+02  0.59213513707E+02  0.00000000000E+00 0. -1.
         11    1    1    2    0    0  0.14258024288E+03  0.22876435140E+02 -0.38436421072E+01  0.14445494290E+03  0.00000000000E+00 0.  1.
<mgrwt>
<rscale>  0 0.21468376E+03</rscale>
<asrwt>0</asrwt>
<pdfrwt beam="2">  1        2 0.26046602E-01 0.21875987E+03</pdfrwt>
<pdfrwt beam="1">  1       -2 0.45688311E-01 0.21875987E+03</pdfrwt>
<totfact> 0.94130464E+02</totfact>
</mgrwt>
</event>
<event>
 7    1  0.4230786E-006  0.3670223E+03  0.7546771E-02  0.1056896E+00
          2   -1    0    0  501    0  0.00000000000E+00  0.00000000000E+00  0.18227039607E+04  0.18227039607E+04  0.00000000000E+00 0. -1.
         -2   -1    0    0    0  501 -0.00000000000E+00 -0.00000000000E+00 -0.84084478592E+02  0.84084478592E+02  0.00000000000E+00 0.  1.
         23    2    1    2    0    0 -0.32736621097E+03 -0.10914162520E+03  0.51522794176E+03  0.63258614174E+03  0.12499945727E+03 0.  0.
          5    1    3    3  502    0  0.24421394815E+01  0.12606132093E+02  0.33617520074E+02  0.36291958718E+02  0.47000000000E+01 0. -1.
         -5    1    3    3    0  502 -0.32980835045E+03 -0.12174775729E+03  0.48161042169E+03  0.59629418303E+03  0.47000000000E+01 0. -1.
        -11    1    1    2    0    0  0.15069649090E+03  0.21109254075E+02  0.65732296506E+03  0.67470624228E+03  0.00000000000E+00 0.  1.
         11    1    1    2    0    0  0.17666972006E+03  0.88032371126E+02  0.56606857525E+03  0.59949605524E+03  0.00000000000E+00 0. -1.
<mgrwt>
<rscale>  0 0.36429571E+03</rscale>
<asrwt>0</asrwt>
<pdfrwt beam="1">  1        2 0.28041597E+00 0.36702234E+03</pdfrwt>
<pdfrwt beam="2">  1       -2 0.12936075E-01 0.36702234E+03</pdfrwt>
<totfact> 0.39805311E+02</totfact>
</mgrwt>
</event>
<event>
 7    1  0.4230786E-006  0.1305183E+03  0.7546771E-02  0.1239427E+00
         -2   -1    0    0    0  501 -0.00000000000E+00  0.00000000000E+00  0.18699214204E+02  0.18699214204E+02  0.00000000000E+00 0.  1.
          2   -1    0    0  501    0  0.00000000000E+00 -0.00000000000E+00 -0.72473425890E+03  0.72473425890E+03  0.00000000000E+00 0. -1.
         23    2    1    2    0    0 -0.26884556241E+02 -0.26218974449E+02 -0.35193143214E+03  0.37535418574E+03  0.12499927136E+03 0.  0.
          5    1    3    3  502    0  0.77179752589E+01  0.24345031679E+02 -0.27803818974E+03  0.27924822768E+03  0.47000000000E+01 0. -1.
         -5    1    3    3    0  502 -0.34602531500E+02 -0.50564006129E+02 -0.73893242398E+02  0.96105958057E+02  0.47000000000E+01 0. -1.
        -11    1    1    2    0    0  0.13322411651E+02  0.59198941668E+02 -0.16878602946E+03  0.17936199455E+03  0.00000000000E+00 0.  1.
         11    1    1    2    0    0  0.13562144590E+02 -0.32979967219E+02 -0.18531758309E+03  0.18871729281E+03  0.00000000000E+00 0. -1.
<mgrwt>
<rscale>  0 0.12225204E+03</rscale>
<asrwt>0</asrwt>
<pdfrwt beam="2">  1        2 0.11149758E+00 0.13051832E+03</pdfrwt>
<pdfrwt beam="1">  1       -2 0.28768022E-02 0.13051832E+03</pdfrwt>
<totfact> 0.17149167E+04</totfact>
</mgrwt>
</event>
<event>
 7    1  0.4230786E-006  0.1358143E+03  0.7546771E-02  0.1231448E+00
          4   -1    0    0  501    0  0.00000000000E+00  0.00000000000E+00  0.35029637895E+03  0.35029637895E+03  0.00000000000E+00 0.  1.
         -4   -1    0    0    0  501 -0.00000000000E+00 -0.00000000000E+00 -0.44192803667E+02  0.44192803667E+02  0.00000000000E+00 0. -1.
         23    2    1    2    0    0  0.18887844938E+02  0.49642132583E+02  0.12202611453E+03  0.18258118648E+03  0.12499770005E+03 0.  0.
          5    1    3    3  502    0 -0.31055069764E+02 -0.30293972822E+01 -0.89186435293E+01  0.32790651234E+02  0.47000000000E+01 0.  1.
         -5    1    3    3    0  502  0.49942914702E+02  0.52671529865E+02  0.13094475806E+03  0.14979053525E+03  0.47000000000E+01 0.  1.
        -11    1    1    2    0    0  0.17970002222E+02 -0.50139437544E+02  0.15805168930E+03  0.16678495336E+03  0.00000000000E+00 0.  1.
         11    1    1    2    0    0 -0.36857847160E+02  0.49730496125E+00  0.26025771460E+02  0.45123042778E+02  0.00000000000E+00 0. -1.
<mgrwt>
<rscale>  0 0.12734566E+03</rscale>
<asrwt>0</asrwt>
<pdfrwt beam="1">  1        4 0.53891749E-01 0.13581427E+03</pdfrwt>
<pdfrwt beam="2">  1       -4 0.67988931E-02 0.13581427E+03</pdfrwt>
<totfact> 0.79522157E+02</totfact>
</mgrwt>
</event>
<event>
 7    1  0.4230786E-006  0.1276903E+03  0.7546771E-02  0.1245434E+00
         -4   -1    0    0    0  501 -0.00000000000E+00  0.00000000000E+00  0.24425476427E+02  0.24425476427E+02  0.00000000000E+00 0.  1.
          4   -1    0    0  501    0  0.00000000000E+00 -0.00000000000E+00 -0.56005242602E+03  0.56005242602E+03  0.00000000000E+00 0. -1.
         23    2    1    2    0    0  0.23335695501E+02 -0.11613428484E+02 -0.21490311819E+03  0.24997631743E+03  0.12500153063E+03 0.  0.
          5    1    3    3  502    0 -0.14747414195E+02  0.41751842709E+02 -0.29879052350E+02  0.53624158402E+02  0.47000000000E+01 0.  1.
         -5    1    3    3    0  502  0.38083109696E+02 -0.53365271193E+02 -0.18502406584E+03  0.19635215903E+03  0.47000000000E+01 0.  1.
        -11    1    1    2    0    0 -0.30978381116E+02  0.48368696859E+02 -0.19826199280E+03  0.20641465239E+03  0.00000000000E+00 0.  1.
         11    1    1    2    0    0  0.76426856151E+01 -0.36755268375E+02 -0.12246183860E+03  0.12808693263E+03  0.00000000000E+00 0. -1.
<mgrwt>
<rscale>  0 0.11859450E+03</rscale>
<asrwt>0</asrwt>
<pdfrwt beam="2">  1        4 0.86161909E-01 0.12769029E+03</pdfrwt>
<pdfrwt beam="1">  1       -4 0.37577657E-02 0.12769029E+03</pdfrwt>
<totfact> 0.74389858E+02</totfact>
</mgrwt>
</event>
<event>
 7    1  0.4230786E-006  0.1267230E+03  0.7546771E-02  0.1287781E+00
          4   -1    0    0  501    0  0.00000000000E+00  0.00000000000E+00  0.44995115002E+02  0.44995115002E+02  0.00000000000E+00 0. -1.
         -4   -1    0    0    0  501 -0.00000000000E+00 -0.00000000000E+00 -0.17235848821E+03  0.17235848821E+03  0.00000000000E+00 0.  1.
         23    2    1    2    0    0 -0.14692131262E+02  0.14765568279E+02 -0.11909859246E+03  0.17390573726E+03  0.12499939999E+03 0.  0.
          5    1    3    3  502    0  0.48927783543E+02 -0.10390401608E+02 -0.81392021286E+02  0.95648521040E+02  0.47000000000E+01 0.  1.
         -5    1    3    3    0  502 -0.63619914805E+02  0.25155969888E+02 -0.37706571169E+02  0.78257216217E+02  0.47000000000E+01 0.  1.
        -11    1    1    2    0    0  0.40240713287E+01 -0.12518234916E+02  0.13661065384E+02  0.18961119769E+02  0.00000000000E+00 0. -1.
         11    1    1    2    0    0  0.10668059933E+02 -0.22473333636E+01 -0.21925846140E+02  0.24486746190E+02  0.00000000000E+00 0.  1.
<mgrwt>
<rscale>  0 0.96523496E+02</rscale>
<asrwt>0</asrwt>
<pdfrwt beam="1">  1        4 0.69223255E-02 0.12672305E+03</pdfrwt>
<pdfrwt beam="2">  1       -4 0.26516690E-01 0.12672305E+03</pdfrwt>
<totfact> 0.30380436E+03</totfact>
</mgrwt>
</event>
<event>
 7    1  0.4230786E-006  0.1300600E+03  0.7546771E-02  0.1232059E+00
          4   -1    0    0  501    0  0.00000000000E+00  0.00000000000E+00  0.82432934245E+02  0.82432934245E+02  0.00000000000E+00 0. -1.
         -4   -1    0    0    0  501 -0.00000000000E+00 -0.00000000000E+00 -0.26481447875E+03  0.26481447875E+03  0.00000000000E+00 0.  1.
         23    2    1    2    0    0 -0.26216452600E+02 -0.24549359375E+02 -0.18853398882E+03  0.22904295917E+03  0.12500255506E+03 0.  0.
          5    1    3    3  502    0 -0.62130617078E+02 -0.36095001591E+02 -0.56161157713E+02  0.91319375567E+02  0.47000000000E+01 0.  1.
         -5    1    3    3    0  502  0.35914164478E+02  0.11545642216E+02 -0.13237283111E+03  0.13772358360E+03  0.47000000000E+01 0.  1.
        -11    1    1    2    0    0 -0.10103882488E+02  0.96449915913E+01 -0.48748689829E+02  0.50710443344E+02  0.00000000000E+00 0.  1.
         11    1    1    2    0    0  0.36320335088E+02  0.14904367784E+02  0.54901134148E+02  0.67494010480E+02  0.00000000000E+00 0. -1.
<mgrwt>
<rscale>  0 0.12694602E+03</rscale>
<asrwt>0</asrwt>
<pdfrwt beam="1">  1        4 0.12681990E-01 0.13006003E+03</pdfrwt>
<pdfrwt beam="2">  1       -4 0.40740688E-01 0.13006003E+03</pdfrwt>
<totfact> 0.48748804E+02</totfact>
</mgrwt>
</event>
<event>
 7    1  0.4230786E-006  0.1271898E+03  0.7546771E-02  0.1245548E+00
         -1   -1    0    0    0  501 -0.00000000000E+00  0.00000000000E+00  0.29343608880E+03  0.29343608880E+03  0.00000000000E+00 0. -1.
          1   -1    0    0  501    0  0.00000000000E+00 -0.00000000000E+00 -0.98771616956E+02  0.98771616956E+02  0.00000000000E+00 0.  1.
         23    2    1    2    0    0 -0.18244323181E+01 -0.23021845501E+02  0.25070089540E+03  0.28111953166E+03  0.12507564991E+03 0.  0.
          5    1    3    3  502    0 -0.39420532107E+02 -0.53633087959E+02  0.83049239625E+02  0.10653521802E+03  0.47000000000E+01 0.  1.
         -5    1    3    3    0  502  0.37596099788E+02  0.30611242458E+02  0.16765165578E+03  0.17458431364E+03  0.47000000000E+01 0.  1.
        -11    1    1    2    0    0 -0.66876768539E+01 -0.16758012385E+02  0.18707499712E+02  0.25990893526E+02  0.00000000000E+00 0. -1.
         11    1    1    2    0    0  0.85121091720E+01  0.39779857887E+02 -0.74743923267E+02  0.85097280576E+02  0.00000000000E+00 0.  1.
<mgrwt>
<rscale>  0 0.11852657E+03</rscale>
<asrwt>0</asrwt>
<pdfrwt beam="2">  1        1 0.15195633E-01 0.12718983E+03</pdfrwt>
<pdfrwt beam="1">  1       -1 0.45144013E-01 0.12718983E+03</pdfrwt>
<totfact> 0.17688384E+03</totfact>
</mgrwt>
</event>
<event>
 7    1  0.4230786E-006  0.1278006E+03  0.7546771E-02  0.1244657E+00
          3   -1    0    0  501    0  0.00000000000E+00  0.00000000000E+00  0.25863467113E+03  0.25863467113E+03  0.00000000000E+00 0. -1.
         -3   -1    0    0    0  501 -0.00000000000E+00 -0.00000000000E+00 -0.48543634738E+02  0.48543634738E+02  0.00000000000E+00 0.  1.
         23    2    1    2    0    0  0.10271346949E+02  0.24516538788E+02  0.12255416661E+03  0.17706643095E+03  0.12500574376E+03 0.  0.
          5    1    3    3  502    0  0.30760636092E+02  0.68746688354E+02  0.53891581688E+02  0.92729264363E+02  0.47000000000E+01 0.  1.
         -5    1    3    3    0  502 -0.20489289143E+02 -0.44230149566E+02  0.68662584918E+02  0.84337166586E+02  0.47000000000E+01 0.  1.
        -11    1    1    2    0    0 -0.26958312015E+02  0.27754893873E+02  0.51699955216E+02  0.64575305573E+02  0.00000000000E+00 0.  1.
         11    1    1    2    0    0  0.16686965066E+02 -0.52271432661E+02  0.35836914567E+02  0.65536569343E+02  0.00000000000E+00 0. -1.
<mgrwt>
<rscale>  0 0.11905937E+03</rscale>
<asrwt>0</asrwt>
<pdfrwt beam="1">  1        3 0.39789948E-01 0.12780062E+03</pdfrwt>
<pdfrwt beam="2">  1       -3 0.74682517E-02 0.12780062E+03</pdfrwt>
<totfact> 0.17024831E+03</totfact>
</mgrwt>
</event>
<event>
 7    1  0.4230786E-006  0.1314990E+03  0.7546771E-02  0.1239286E+00
          2   -1    0    0  501    0  0.00000000000E+00  0.00000000000E+00  0.44199128267E+03  0.44199128267E+03  0.00000000000E+00 0. -1.
         -2   -1    0    0    0  501 -0.00000000000E+00 -0.00000000000E+00 -0.30722691063E+02  0.30722691063E+02  0.00000000000E+00 0.  1.
         23    2    1    2    0    0  0.11624964553E+02  0.39092811966E+02  0.19666192924E+03  0.23657535768E+03  0.12501438997E+03 0.  0.
          5    1    3    3  502    0 -0.51792027421E+02  0.30322076582E+02  0.13384895023E+03  0.14676332617E+03  0.47000000000E+01 0.  1.
         -5    1    3    3    0  502  0.63416991974E+02  0.87707353848E+01  0.62812979016E+02  0.89812031506E+02  0.47000000000E+01 0.  1.
        -11    1    1    2    0    0 -0.34662541702E+02  0.76609438078E+01  0.14439930662E+03  0.14869882854E+03  0.00000000000E+00 0. -1.
         11    1    1    2    0    0  0.23037577150E+02 -0.46753755774E+02  0.70207355750E+02  0.87439787518E+02  0.00000000000E+00 0.  1.
<mgrwt>
<rscale>  0 0.12234005E+03</rscale>
<asrwt>0</asrwt>
<pdfrwt beam="1">  1        2 0.67998654E-01 0.13149899E+03</pdfrwt>
<pdfrwt beam="2">  1       -2 0.47265682E-02 0.13149899E+03</pdfrwt>
<totfact> 0.14368482E+04</totfact>
</mgrwt>
</event>
<event>
 7    1  0.4230786E-006  0.1320581E+03  0.7546771E-02  0.1237754E+00
         -2   -1    0    0    0  501 -0.00000000000E+00  0.00000000000E+00  0.25094683906E+02  0.25094683906E+02  0.00000000000E+00 0.  1.
          2   -1    0    0  501    0  0.00000000000E+00 -0.00000000000E+00 -0.56816721511E+03  0.56816721511E+03  0.00000000000E+00 0. -1.
         23    2    1    2    0    0  0.41792246767E+02 -0.82440503418E+01 -0.23899514886E+03  0.27305316611E+03  0.12499917634E+03 0.  0.
          5    1    3    3  502    0 -0.17185067577E+02  0.15740484735E+01  0.74798004924E+01  0.19386634356E+02  0.47000000000E+01 0. -1.
         -5    1    3    3    0  502  0.58977314344E+02 -0.98180988152E+01 -0.24647494935E+03  0.25366653175E+03  0.47000000000E+01 0. -1.
        -11    1    1    2    0    0 -0.63536056636E+02  0.43119632943E+01 -0.28151666357E+03  0.28862961627E+03  0.00000000000E+00 0. -1.
         11    1    1    2    0    0  0.21743809869E+02  0.39320870475E+01 -0.22560718771E+02  0.31579116638E+02  0.00000000000E+00 0.  1.
<mgrwt>
<rscale>  0 0.12329790E+03</rscale>
<asrwt>0</asrwt>
<pdfrwt beam="2">  1        2 0.87410336E-01 0.13205813E+03</pdfrwt>
<pdfrwt beam="1">  1       -2 0.38607208E-02 0.13205813E+03</pdfrwt>
<totfact> 0.14745418E+04</totfact>
</mgrwt>
</event>
<event>
 7    1  0.4230786E-006  0.3970042E+03  0.7546771E-02  0.1045623E+00
         -2   -1    0    0    0  501 -0.00000000000E+00  0.00000000000E+00  0.78604038638E+02  0.78604038638E+02  0.00000000000E+00 0.  1.
          2   -1    0    0  501    0  0.00000000000E+00 -0.00000000000E+00 -0.19757542913E+04  0.19757542913E+04  0.00000000000E+00 0. -1.
         23    2    1    2    0    0 -0.37569721974E+03 -0.29074705760E+02 -0.86675462805E+03  0.95334985044E+03  0.12497444800E+03 0.  0.
          5    1    3    3  502    0 -0.97059796232E+02  0.33993003923E+02 -0.15180353070E+03  0.18341900200E+03  0.47000000000E+01 0. -1.
         -5    1    3    3    0  502 -0.27863742351E+03 -0.63067709683E+02 -0.71495109736E+03  0.76993084845E+03  0.47000000000E+01 0. -1.
        -11    1    1    2    0    0  0.22925794411E+03 -0.23956824193E+02 -0.66451453749E+03  0.70335816260E+03  0.00000000000E+00 0. -1.
         11    1    1    2    0    0  0.14643927563E+03  0.53031529953E+02 -0.36588108714E+03  0.39765031691E+03  0.00000000000E+00 0.  1.
<mgrwt>
<rscale>  0 0.39472082E+03</rscale>
<asrwt>0</asrwt>
<pdfrwt beam="2">  1        2 0.30396220E+00 0.39700422E+03</pdfrwt>
<pdfrwt beam="1">  1       -2 0.12092929E-01 0.39700422E+03</pdfrwt>
<totfact> 0.36699898E+02</totfact>
</mgrwt>
</event>
<event>
 7    1  0.4230786E-006  0.2462219E+03  0.7546771E-02  0.1118222E+00
         -2   -1    0    0    0  501 -0.00000000000E+00  0.00000000000E+00  0.14361561216E+03  0.14361561216E+03  0.00000000000E+00 0.  1.
          2   -1    0    0  501    0  0.00000000000E+00 -0.00000000000E+00 -0.60513262296E+03  0.60513262296E+03  0.00000000000E+00 0. -1.
         23    2    1    2    0    0  0.70873858223E+02  0.19994035343E+03 -0.15903945240E+02  0.24673498422E+03  0.12500387295E+03 0.  0.
          5    1    3    3  502    0  0.55155969472E+02  0.25588878667E+02  0.26594066856E+02  0.66530489790E+02  0.47000000000E+01 0. -1.
         -5    1    3    3    0  502  0.15717888751E+02  0.17435147476E+03 -0.42498012095E+02  0.18020449443E+03  0.47000000000E+01 0. -1.
        -11    1    1    2    0    0 -0.16134527933E+02 -0.14753557134E+02 -0.73045941220E+01  0.23050976878E+02  0.00000000000E+00 0.  1.
         11    1    1    2    0    0 -0.54739330291E+02 -0.18518679630E+03 -0.43830847144E+03  0.47896227402E+03  0.00000000000E+00 0. -1.
<mgrwt>
<rscale>  0 0.24237325E+03</rscale>
<asrwt>0</asrwt>
<pdfrwt beam="2">  1        2 0.93097328E-01 0.24622189E+03</pdfrwt>
<pdfrwt beam="1">  1       -2 0.22094709E-01 0.24622189E+03</pdfrwt>
<totfact> 0.88540399E+02</totfact>
</mgrwt>
</event>
<event>
 7    1  0.4230786E-006  0.1286097E+03  0.7546771E-02  0.1243516E+00
         -1   -1    0    0    0  501 -0.00000000000E+00  0.00000000000E+00  0.43570760946E+02  0.43570760946E+02  0.00000000000E+00 0.  1.
          1   -1    0    0  501    0  0.00000000000E+00 -0.00000000000E+00 -0.47790196256E+03  0.47790196256E+03  0.00000000000E+00 0. -1.
         23    2    1    2    0    0 -0.19342494808E+02  0.23278393548E+02 -0.73949543245E+02  0.14835431286E+03  0.12499780593E+03 0.  0.
          5    1    3    3  502    0 -0.21688243825E+02  0.69235497479E+02 -0.16422155133E+02  0.74536643408E+02  0.47000000000E+01 0. -1.
         -5    1    3    3    0  502  0.23457490175E+01 -0.45957103931E+02 -0.57527388112E+02  0.73817669451E+02  0.47000000000E+01 0. -1.
        -11    1    1    2    0    0 -0.37192696494E+02 -0.72524079653E+01 -0.14165468432E+03  0.14663541074E+03  0.00000000000E+00 0.  1.
         11    1    1    2    0    0  0.56535191302E+02 -0.16025985583E+02 -0.21872697405E+03  0.22648299990E+03  0.00000000000E+00 0. -1.
<mgrwt>
<rscale>  0 0.11974648E+03</rscale>
<asrwt>0</asrwt>
<pdfrwt beam="2">  1        1 0.73523379E-01 0.12860975E+03</pdfrwt>
<pdfrwt beam="1">  1       -1 0.67031940E-02 0.12860975E+03</pdfrwt>
<totfact> 0.51989584E+03</totfact>
</mgrwt>
</event>
<event>
 7    1  0.4230786E-006  0.1453855E+03  0.7546771E-02  0.1216345E+00
         -1   -1    0    0    0  501 -0.00000000000E+00  0.00000000000E+00  0.26836147087E+02  0.26836147087E+02  0.00000000000E+00 0.  1.
          1   -1    0    0  501    0  0.00000000000E+00 -0.00000000000E+00 -0.64306932270E+03  0.64306932270E+03  0.00000000000E+00 0. -1.
         23    2    1    2    0    0  0.66742714636E+02 -0.32607297018E+02 -0.34907070308E+03  0.37813663056E+03  0.12497651718E+03 0.  0.
          5    1    3    3  502    0  0.60155891533E+02  0.37125314690E+02 -0.12943924698E+03  0.14755889988E+03  0.47000000000E+01 0. -1.
         -5    1    3    3    0  502  0.65868231038E+01 -0.69732611708E+02 -0.21963145611E+03  0.23057773068E+03  0.47000000000E+01 0. -1.
        -11    1    1    2    0    0 -0.69307770808E+02  0.12936322401E+02 -0.26192966803E+03  0.27125277238E+03  0.00000000000E+00 0. -1.
         11    1    1    2    0    0  0.25650561718E+01  0.19670974617E+02 -0.52328044967E+01  0.20516066837E+02  0.00000000000E+00 0.  1.
<mgrwt>
<rscale>  0 0.13778174E+03</rscale>
<asrwt>0</asrwt>
<pdfrwt beam="2">  1        1 0.98933737E-01 0.14538554E+03</pdfrwt>
<pdfrwt beam="1">  1       -1 0.41286382E-02 0.14538554E+03</pdfrwt>
<totfact> 0.72214687E+03</totfact>
</mgrwt>
</event>
<event>
 6    1  0.4230786E-006  0.1797266E+03  0.7546771E-02  0.1189758E+00
          2   -1    0    0  501    0  0.00000000000E+00  0.00000000000E+00  0.94738970575E+02  0.94738970575E+02  0.00000000000E+00 0. -1.
         -2   -1    0    0    0  501 -0.00000000000E+00 -0.00000000000E+00 -0.23965993563E+03  0.23965993563E+03  0.00000000000E+00 0.  1.
          5    1    1    2  502    0 -0.62958628502E+02 -0.46986375793E+02  0.48234842388E+01  0.78847095148E+02  0.47000000000E+01 0. -1.
         -5    1    1    2    0  502  0.42756062633E+02 -0.11158359665E+02 -0.13762359339E+03  0.14461996176E+03  0.47000000000E+01 0.  1.
        -11    1    1    2    0    0 -0.27374120253E+02  0.33940993730E+02 -0.31877108966E+02  0.54013735207E+02  0.00000000000E+00 0. -1.
         11    1    1    2    0    0  0.47576686122E+02  0.24203741728E+02  0.19756253066E+02  0.56918114087E+02  0.00000000000E+00 0.  1.
<mgrwt>
<rscale>  0 0.15906380E+03</rscale>
<asrwt>0</asrwt>
<pdfrwt beam="1">  1        2 0.14575227E-01 0.17972662E+03</pdfrwt>
<pdfrwt beam="2">  1       -2 0.36870758E-01 0.17972662E+03</pdfrwt>
<totfact> 0.27452721E+03</totfact>
</mgrwt>
</event>
<event>
 7    1  0.4230786E-006  0.1646144E+03  0.7546771E-02  0.1190625E+00
          3   -1    0    0  501    0  0.00000000000E+00  0.00000000000E+00  0.26506622586E+02  0.26506622586E+02  0.00000000000E+00 0. -1.
         -3   -1    0    0    0  501 -0.00000000000E+00 -0.00000000000E+00 -0.95782156571E+03  0.95782156571E+03  0.00000000000E+00 0.  1.
         23    2    1    2    0    0 -0.83582285244E+02 -0.66978701453E+02 -0.63920132734E+03  0.66005774642E+03  0.12500298745E+03 0.  0.
          5    1    3    3  502    0 -0.35349211407E+01 -0.69608636127E+02 -0.16594291135E+03  0.18004720970E+03  0.47000000000E+01 0.  1.
         -5    1    3    3    0  502 -0.80047364103E+02  0.26299346743E+01 -0.47325841599E+03  0.48001053672E+03  0.47000000000E+01 0.  1.
        -11    1    1    2    0    0  0.64122774327E+02  0.12410725678E+02 -0.74493556255E+02  0.99070915120E+02  0.00000000000E+00 0. -1.
         11    1    1    2    0    0  0.19459510917E+02  0.54567975775E+02 -0.21762005953E+03  0.22519952676E+03  0.00000000000E+00 0.  1.
<mgrwt>
<rscale>  0 0.15830382E+03</rscale>
<asrwt>0</asrwt>
<pdfrwt beam="1">  1        3 0.40779421E-02 0.16461437E+03</pdfrwt>
<pdfrwt beam="2">  1       -3 0.14735716E+00 0.16461437E+03</pdfrwt>
<totfact> 0.26979126E+02</totfact>
</mgrwt>
</event>
<event>
 7    1  0.4230786E-006  0.1592739E+03  0.7546771E-02  0.1197225E+00
         -4   -1    0    0    0  501 -0.00000000000E+00  0.00000000000E+00  0.30196299343E+03  0.30196299343E+03  0.00000000000E+00 0.  1.
          4   -1    0    0  501    0  0.00000000000E+00 -0.00000000000E+00 -0.75834986270E+02  0.75834986270E+02  0.00000000000E+00 0. -1.
         23    2    1    2    0    0  0.92033172078E+02  0.35667094614E+02  0.16739039540E+03  0.23105785936E+03  0.12500377394E+03 0.  0.
          5    1    3    3  502    0  0.10003062293E+03  0.69611186835E+02  0.11290448181E+03  0.16619673544E+03  0.47000000000E+01 0. -1.
         -5    1    3    3    0  502 -0.79974508552E+01 -0.33944092221E+02  0.54485913583E+02  0.64861123918E+02  0.47000000000E+01 0. -1.
        -11    1    1    2    0    0 -0.50223546148E+02  0.21518292807E+02 -0.12105446523E+00  0.54639328027E+02  0.00000000000E+00 0. -1.
         11    1    1    2    0    0 -0.41809625929E+02 -0.57185387421E+02  0.58858666224E+02  0.92100792312E+02  0.00000000000E+00 0.  1.
<mgrwt>
<rscale>  0 0.15267433E+03</rscale>
<asrwt>0</asrwt>
<pdfrwt beam="2">  1        4 0.11666921E-01 0.15927395E+03</pdfrwt>
<pdfrwt beam="1">  1       -4 0.46455845E-01 0.15927395E+03</pdfrwt>
<totfact> 0.44974674E+02</totfact>
</mgrwt>
</event>
<event>
 7    1  0.4230786E-006  0.1469538E+03  0.7546771E-02  0.1215029E+00
          1   -1    0    0  501    0  0.00000000000E+00  0.00000000000E+00  0.55549592898E+02  0.55549592898E+02  0.00000000000E+00 0. -1.
         -1   -1    0    0    0  501 -0.00000000000E+00 -0.00000000000E+00 -0.95225160025E+03  0.95225160025E+03  0.00000000000E+00 0.  1.
         23    2    1    2    0    0 -0.53712452936E+01 -0.72421328351E+02 -0.87719378681E+03  0.88941798349E+03  0.12775645053E+03 0.  0.
          5    1    3    3  502    0  0.46488084850E+02 -0.80917414003E+02 -0.60262349576E+03  0.60982451374E+03  0.47000000000E+01 0. -1.
         -5    1    3    3    0  502 -0.51859330144E+02  0.84960856521E+01 -0.27457029105E+03  0.27959346974E+03  0.47000000000E+01 0.  1.
        -11    1    1    2    0    0  0.42773313072E+02  0.25373160078E+02  0.11067465262E+02  0.50949409720E+02  0.00000000000E+00 0. -1.
         11    1    1    2    0    0 -0.37402067778E+02  0.47048168273E+02 -0.30575685801E+02  0.67433799939E+02  0.00000000000E+00 0.  1.
<mgrwt>
<rscale>  0 0.13874378E+03</rscale>
<asrwt>0</asrwt>
<pdfrwt beam="1">  1        1 0.85460922E-02 0.14695377E+03</pdfrwt>
<pdfrwt beam="2">  1       -1 0.14650023E+00 0.14695377E+03</pdfrwt>
<totfact> 0.32085392E+02</totfact>
</mgrwt>
</event>
<event>
 7    1  0.4230786E-006  0.1607894E+03  0.7546771E-02  0.1195400E+00
          3   -1    0    0  501    0  0.00000000000E+00  0.00000000000E+00  0.10380595291E+03  0.10380595291E+03  0.00000000000E+00 0. -1.
         -3   -1    0    0    0  501 -0.00000000000E+00 -0.00000000000E+00 -0.21669098080E+03  0.21669098080E+03  0.00000000000E+00 0.  1.
         23    2    1    2    0    0  0.97260905703E+01  0.10066101340E+03 -0.84118793557E+02  0.18146403021E+03  0.12500394544E+03 0.  0.
          5    1    3    3  502    0  0.52284170675E+02  0.70187101511E+02 -0.93413961890E+02  0.12809419190E+03  0.47000000000E+01 0.  1.
         -5    1    3    3    0  502 -0.42558080104E+02  0.30473911886E+02  0.92951683332E+01  0.53369838318E+02  0.47000000000E+01 0.  1.
        -11    1    1    2    0    0 -0.46790487459E+02 -0.30449435582E+02 -0.19340980720E+02  0.59081226961E+02  0.00000000000E+00 0.  1.
         11    1    1    2    0    0  0.37064396889E+02 -0.70211577814E+02 -0.94252536103E+01  0.79951676539E+02  0.00000000000E+00 0. -1.
<mgrwt>
<rscale>  0 0.15420457E+03</rscale>
<asrwt>0</asrwt>
<pdfrwt beam="1">  1        3 0.15970147E-01 0.16078937E+03</pdfrwt>
<pdfrwt beam="2">  1       -3 0.33337074E-01 0.16078937E+03</pdfrwt>
<totfact> 0.69542640E+02</totfact>
</mgrwt>
</event>
<event>
 7    1  0.4230786E-006  0.1302254E+03  0.7546771E-02  0.1236179E+00
          1   -1    0    0  501    0  0.00000000000E+00  0.00000000000E+00  0.23355591300E+03  0.23355591300E+03  0.00000000000E+00 0. -1.
         -1   -1    0    0    0  501 -0.00000000000E+00 -0.00000000000E+00 -0.64015836369E+02  0.64015836369E+02  0.00000000000E+00 0.  1.
         23    2    1    2    0    0  0.18895750096E+02  0.31291806182E+02  0.58946514752E+02  0.14294524916E+03  0.12498970418E+03 0.  0.
          5    1    3    3  502    0 -0.45256198963E+02 -0.68869294546E+01 -0.25816757463E+01  0.46090220129E+02  0.47000000000E+01 0. -1.
         -5    1    3    3    0  502  0.64151949059E+02  0.38178735637E+02  0.61528190498E+02  0.96855029032E+02  0.47000000000E+01 0. -1.
        -11    1    1    2    0    0  0.41180014904E+02 -0.23617028353E+02  0.50439532629E+02  0.69265461145E+02  0.00000000000E+00 0. -1.
         11    1    1    2    0    0 -0.60075765000E+02 -0.76747778290E+01  0.60154029249E+02  0.85361039063E+02  0.00000000000E+00 0.  1.
<mgrwt>
<rscale>  0 0.12429245E+03</rscale>
<asrwt>0</asrwt>
<pdfrwt beam="1">  1        1 0.35931679E-01 0.13022539E+03</pdfrwt>
<pdfrwt beam="2">  1       -1 0.98485903E-02 0.13022539E+03</pdfrwt>
<totfact> 0.71201362E+03</totfact>
</mgrwt>
</event>
<event>
 7    1  0.4230786E-006  0.1328983E+03  0.7546771E-02  0.1236489E+00
         -2   -1    0    0    0  501 -0.00000000000E+00  0.00000000000E+00  0.18367511985E+02  0.18367511985E+02  0.00000000000E+00 0.  1.
          2   -1    0    0  501    0  0.00000000000E+00 -0.00000000000E+00 -0.77433854021E+03  0.77433854021E+03  0.00000000000E+00 0. -1.
         23    2    1    2    0    0  0.43299840224E+02 -0.12940299397E+02 -0.35087271398E+03  0.37519811760E+03  0.12497855225E+03 0.  0.
          5    1    3    3  502    0  0.13625746095E+02 -0.46616967326E+02 -0.31152509495E+03  0.31532329026E+03  0.47000000000E+01 0. -1.
         -5    1    3    3    0  502  0.29674094129E+02  0.33676667928E+02 -0.39347619029E+02  0.59874827335E+02  0.47000000000E+01 0. -1.
        -11    1    1    2    0    0 -0.38211500985E+00 -0.28945529431E+02 -0.53477459864E+02  0.60809772236E+02  0.00000000000E+00 0.  1.
         11    1    1    2    0    0 -0.42917725214E+02  0.41885828828E+02 -0.35162085438E+03  0.35669816236E+03  0.00000000000E+00 0. -1.
<mgrwt>
<rscale>  0 0.12409619E+03</rscale>
<asrwt>0</asrwt>
<pdfrwt beam="2">  1        2 0.11912898E+00 0.13289833E+03</pdfrwt>
<pdfrwt beam="1">  1       -2 0.28257717E-02 0.13289833E+03</pdfrwt>
<totfact> 0.16269483E+04</totfact>
</mgrwt>
</event>
<event>
 7    1  0.4230786E-006  0.1388170E+03  0.7546771E-02  0.1226843E+00
         -4   -1    0    0    0  501 -0.00000000000E+00  0.00000000000E+00  0.81346520967E+03  0.81346520967E+03  0.00000000000E+00 0.  1.
          4   -1    0    0  501    0  0.00000000000E+00 -0.00000000000E+00 -0.18988950529E+02  0.18988950529E+02  0.00000000000E+00 0. -1.
         23    2    1    2    0    0  0.55197579775E+02 -0.24475113450E+02  0.49302468203E+03  0.51219478972E+03  0.12499744613E+03 0.  0.
          5    1    3    3  502    0 -0.20748785890E+02  0.16281415989E+01  0.11979351368E+02  0.24469528401E+02  0.47000000000E+01 0.  1.
         -5    1    3    3    0  502  0.75946365664E+02 -0.26103255049E+02  0.48104533066E+03  0.48772526132E+03  0.47000000000E+01 0.  1.
        -11    1    1    2    0    0 -0.29348162221E+02  0.50978627032E+02  0.25027977901E+03  0.25709940261E+03  0.00000000000E+00 0. -1.
         11    1    1    2    0    0 -0.25849417554E+02 -0.26503513582E+02  0.51171798099E+02  0.63159967865E+02  0.00000000000E+00 0.  1.
<mgrwt>
<rscale>  0 0.13041359E+03</rscale>
<asrwt>0</asrwt>
<pdfrwt beam="2">  1        4 0.29213776E-02 0.13881702E+03</pdfrwt>
<pdfrwt beam="1">  1       -4 0.12514847E+00 0.13881702E+03</pdfrwt>
<totfact> 0.47104411E+02</totfact>
</mgrwt>
</event>
<event>
 7    1  0.4230786E-006  0.1710267E+03  0.7546771E-02  0.1183838E+00
         -1   -1    0    0    0  501 -0.00000000000E+00  0.00000000000E+00  0.41440931449E+02  0.41440931449E+02  0.00000000000E+00 0.  1.
          1   -1    0    0  501    0  0.00000000000E+00 -0.00000000000E+00 -0.64383198562E+03  0.64383198562E+03  0.00000000000E+00 0. -1.
         23    2    1    2    0    0 -0.11555366184E+03 -0.16459292222E+02 -0.24096956122E+03  0.29549357548E+03  0.12500626644E+03 0.  0.
          5    1    3    3  502    0 -0.22784278167E+02 -0.60965817652E+02 -0.12016654001E+03  0.13674078247E+03  0.47000000000E+01 0. -1.
         -5    1    3    3    0  502 -0.92769383676E+02  0.44506525430E+02 -0.12080302121E+03  0.15875279301E+03  0.47000000000E+01 0. -1.
        -11    1    1    2    0    0  0.57144353275E+02  0.44295554418E+02 -0.25664164729E+03  0.26663178425E+03  0.00000000000E+00 0.  1.
         11    1    1    2    0    0  0.58409308568E+02 -0.27836262197E+02 -0.10477984566E+03  0.12314755733E+03  0.00000000000E+00 0. -1.
<mgrwt>
<rscale>  0 0.16438098E+03</rscale>
<asrwt>0</asrwt>
<pdfrwt beam="2">  1        1 0.99051067E-01 0.17102668E+03</pdfrwt>
<pdfrwt beam="1">  1       -1 0.63755284E-02 0.17102668E+03</pdfrwt>
<totfact> 0.38074845E+03</totfact>
</mgrwt>
</event>
<event>
 7    1  0.4230786E-006  0.1304980E+03  0.7546771E-02  0.1240786E+00
         -1   -1    0    0    0  501 -0.00000000000E+00  0.00000000000E+00  0.34072870348E+03  0.34072870348E+03  0.00000000000E+00 0.  1.
          1   -1    0    0  501    0  0.00000000000E+00 -0.00000000000E+00 -0.45840158315E+02  0.45840158315E+02  0.00000000000E+00 0. -1.
         23    2    1    2    0    0 -0.19965591809E+02  0.31686041447E+02  0.24312896575E+03  0.27593734466E+03  0.12500837616E+03 0.  0.
          5    1    3    3  502    0  0.31622365761E+02  0.61353123019E+02  0.10868013180E+03  0.12883183135E+03  0.47000000000E+01 0.  1.
         -5    1    3    3    0  502 -0.51587957570E+02 -0.29667081572E+02  0.13444883395E+03  0.14710551331E+03  0.47000000000E+01 0.  1.
        -11    1    1    2    0    0 -0.27333213274E+02  0.65005633648E+01  0.39734077263E+02  0.48663731545E+02  0.00000000000E+00 0.  1.
         11    1    1    2    0    0  0.47298805083E+02 -0.38186604812E+02  0.12025502153E+02  0.61967785594E+02  0.00000000000E+00 0. -1.
<mgrwt>
<rscale>  0 0.12141202E+03</rscale>
<asrwt>0</asrwt>
<pdfrwt beam="2">  1        1 0.70523323E-02 0.13049799E+03</pdfrwt>
<pdfrwt beam="1">  1       -1 0.52419799E-01 0.13049799E+03</pdfrwt>
<totfact> 0.37222026E+03</totfact>
</mgrwt>
</event>
<event>
 7    1  0.4230786E-006  0.1361099E+03  0.7546771E-02  0.1230758E+00
         -2   -1    0    0    0  501 -0.00000000000E+00  0.00000000000E+00  0.32248816334E+02  0.32248816334E+02  0.00000000000E+00 0.  1.
          2   -1    0    0  501    0  0.00000000000E+00 -0.00000000000E+00 -0.46188504126E+03  0.46188504126E+03  0.00000000000E+00 0. -1.
         23    2    1    2    0    0  0.49086262387E+02  0.22161893501E+02 -0.20848916381E+03  0.24898520259E+03  0.12500115602E+03 0.  0.
          5    1    3    3  502    0  0.73909578320E+02 -0.10300476742E+02 -0.62942361328E+02  0.97737180429E+02  0.47000000000E+01 0.  1.
         -5    1    3    3    0  502 -0.24823315933E+02  0.32462370243E+02 -0.14554680248E+03  0.15124802217E+03  0.47000000000E+01 0.  1.
        -11    1    1    2    0    0 -0.61665223086E+02 -0.47155971306E+02 -0.16871243287E+03  0.18571529386E+03  0.00000000000E+00 0. -1.
         11    1    1    2    0    0  0.12578960699E+02  0.24994077804E+02 -0.52434628248E+02  0.59433361145E+02  0.00000000000E+00 0.  1.
<mgrwt>
<rscale>  0 0.12779973E+03</rscale>
<asrwt>0</asrwt>
<pdfrwt beam="2">  1        2 0.71059234E-01 0.13610988E+03</pdfrwt>
<pdfrwt beam="1">  1       -2 0.49613566E-02 0.13610988E+03</pdfrwt>
<totfact> 0.12774287E+04</totfact>
</mgrwt>
</event>
<event>
 7    1  0.4230786E-006  0.1356477E+03  0.7546771E-02  0.1231162E+00
          1   -1    0    0  501    0  0.00000000000E+00  0.00000000000E+00  0.43212928360E+03  0.43212928360E+03  0.00000000000E+00 0. -1.
         -1   -1    0    0    0  501 -0.00000000000E+00 -0.00000000000E+00 -0.33981035397E+02  0.33981035397E+02  0.00000000000E+00 0.  1.
         23    2    1    2    0    0 -0.23798102164E+02 -0.46936175809E+02  0.20555127183E+03  0.24627549307E+03  0.12502375322E+03 0.  0.
          5    1    3    3  502    0  0.64124990660E+01  0.23817432603E+02 -0.16889699172E+01  0.25166105369E+02  0.47000000000E+01 0. -1.
         -5    1    3    3    0  502 -0.30210601230E+02 -0.70753608412E+02  0.20724024175E+03  0.22110938770E+03  0.47000000000E+01 0. -1.
        -11    1    1    2    0    0  0.18857830476E+02  0.13593175115E+02 -0.10559303483E+01  0.23270306592E+02  0.00000000000E+00 0.  1.
         11    1    1    2    0    0  0.49402716875E+01  0.33343000694E+02  0.19365290672E+03  0.19656451933E+03  0.00000000000E+00 0. -1.
<mgrwt>
<rscale>  0 0.12753368E+03</rscale>
<asrwt>0</asrwt>
<pdfrwt beam="1">  1        1 0.66481424E-01 0.13564768E+03</pdfrwt>
<pdfrwt beam="2">  1       -1 0.52278519E-02 0.13564768E+03</pdfrwt>
<totfact> 0.85898522E+03</totfact>
</mgrwt>
</event>
<event>
 7    1  0.4230786E-006  0.2314738E+03  0.7546771E-02  0.1128552E+00
          3   -1    0    0  501    0  0.00000000000E+00  0.00000000000E+00  0.57873842811E+03  0.57873842811E+03  0.00000000000E+00 0. -1.
         -3   -1    0    0    0  501 -0.00000000000E+00 -0.00000000000E+00 -0.87092017260E+02  0.87092017260E+02  0.00000000000E+00 0.  1.
         23    2    1    2    0    0  0.16364454395E+03  0.10571709376E+03  0.28829902788E+03  0.36972484263E+03  0.12499795641E+03 0.  0.
          5    1    3    3  502    0  0.63972711593E+02  0.11318839374E+03  0.14326810600E+03  0.19352509011E+03  0.47000000000E+01 0.  1.
         -5    1    3    3    0  502  0.99671832355E+02 -0.74712999741E+01  0.14503092188E+03  0.17619975252E+03  0.47000000000E+01 0.  1.
        -11    1    1    2    0    0 -0.42489469627E+02 -0.81096977963E+02  0.83207382836E+02  0.12371557470E+03  0.00000000000E+00 0.  1.
         11    1    1    2    0    0 -0.12115507432E+03 -0.24620115798E+02  0.12014000013E+03  0.17239002804E+03  0.00000000000E+00 0. -1.
<mgrwt>
<rscale>  0 0.22730411E+03</rscale>
<asrwt>0</asrwt>
<pdfrwt beam="1">  1        3 0.89036679E-01 0.23147382E+03</pdfrwt>
<pdfrwt beam="2">  1       -3 0.13398772E-01 0.23147382E+03</pdfrwt>
<totfact> 0.13144052E+02</totfact>
</mgrwt>
</event>
<event>
 7    1  0.4230786E-006  0.2680523E+03  0.7546771E-02  0.1104523E+00
         -3   -1    0    0    0  501 -0.00000000000E+00  0.00000000000E+00  0.40849223482E+03  0.40849223482E+03  0.00000000000E+00 0.  1.
          3   -1    0    0  501    0  0.00000000000E+00 -0.00000000000E+00 -0.16981428445E+03  0.16981428445E+03  0.00000000000E+00 0. -1.
         23    2    1    2    0    0  0.12622634002E+03  0.20072950813E+03  0.16201258305E+03  0.31320939774E+03  0.12500650151E+03 0.  0.
          5    1    3    3  502    0  0.15443965201E+02  0.46623245221E+02  0.10331416813E+03  0.11449083104E+03  0.47000000000E+01 0.  1.
         -5    1    3    3    0  502  0.11078237482E+03  0.15410626291E+03  0.58698414924E+02  0.19871856670E+03  0.47000000000E+01 0.  1.
        -11    1    1    2    0    0 -0.11005234382E+02 -0.59730447990E+02 -0.13025097838E+02  0.62116783357E+02  0.00000000000E+00 0.  1.
         11    1    1    2    0    0 -0.11522110564E+03 -0.14099906014E+03  0.89690465152E+02  0.20298033817E+03  0.00000000000E+00 0. -1.
<mgrwt>
<rscale>  0 0.26440794E+03</rscale>
<asrwt>0</asrwt>
<pdfrwt beam="2">  1        3 0.26125275E-01 0.26805233E+03</pdfrwt>
<pdfrwt beam="1">  1       -3 0.62844959E-01 0.26805233E+03</pdfrwt>
<totfact> 0.86622079E+01</totfact>
</mgrwt>
</event>
<event>
 7    1  0.4230786E-006  0.1455610E+03  0.7546771E-02  0.1216087E+00
         -1   -1    0    0    0  501 -0.00000000000E+00  0.00000000000E+00  0.20215962759E+03  0.20215962759E+03  0.00000000000E+00 0.  1.
          1   -1    0    0  501    0  0.00000000000E+00 -0.00000000000E+00 -0.85727882895E+02  0.85727882895E+02  0.00000000000E+00 0. -1.
         23    2    1    2    0    0  0.74351551487E+02  0.59604613990E+01  0.70527593732E+02  0.16174717270E+03  0.12499730433E+03 0.  0.
          5    1    3    3  502    0  0.56495918323E+02 -0.41925201439E+02 -0.47161667411E+01  0.70667131905E+02  0.47000000000E+01 0. -1.
         -5    1    3    3    0  502  0.17855633164E+02  0.47885662838E+02  0.75243760473E+02  0.91080040796E+02  0.47000000000E+01 0. -1.
        -11    1    1    2    0    0 -0.16482456846E+02  0.34495987687E+01 -0.27469202772E+02  0.32219997149E+02  0.00000000000E+00 0. -1.
         11    1    1    2    0    0 -0.57869094642E+02 -0.94100601677E+01  0.73373353737E+02  0.93920340638E+02  0.00000000000E+00 0.  1.
<mgrwt>
<rscale>  0 0.13797016E+03</rscale>
<asrwt>0</asrwt>
<pdfrwt beam="2">  1        1 0.13188905E-01 0.14556101E+03</pdfrwt>
<pdfrwt beam="1">  1       -1 0.31101481E-01 0.14556101E+03</pdfrwt>
<totfact> 0.40860579E+03</totfact>
</mgrwt>
</event>
<event>
 7    1  0.4230786E-006  0.1344195E+03  0.7546771E-02  0.1232665E+00
         -2   -1    0    0    0  501 -0.00000000000E+00  0.00000000000E+00  0.39721265787E+02  0.39721265787E+02  0.00000000000E+00 0. -1.
          2   -1    0    0  501    0  0.00000000000E+00 -0.00000000000E+00 -0.39383682522E+03  0.39383682522E+03  0.00000000000E+00 0.  1.
         23    2    1    2    0    0  0.21383223237E+02  0.44558561893E+02 -0.13597680111E+03  0.19120222116E+03  0.12500356500E+03 0.  0.
          5    1    3    3  502    0  0.32792757610E+01  0.58679305677E+02 -0.61514567245E+01  0.59278537298E+02  0.47000000000E+01 0. -1.
         -5    1    3    3    0  502  0.18103947476E+02 -0.14120743784E+02 -0.12982534439E+03  0.13192368386E+03  0.47000000000E+01 0. -1.
        -11    1    1    2    0    0 -0.54750752279E+02 -0.30109118466E+02 -0.92998324218E+02  0.11203969028E+03  0.00000000000E+00 0. -1.
         11    1    1    2    0    0  0.33367529042E+02 -0.14449443428E+02 -0.12514043410E+03  0.13031617957E+03  0.00000000000E+00 0.  1.
<mgrwt>
<rscale>  0 0.12655084E+03</rscale>
<asrwt>0</asrwt>
<pdfrwt beam="2">  1        2 0.60590279E-01 0.13441949E+03</pdfrwt>
<pdfrwt beam="1">  1       -2 0.61109642E-02 0.13441949E+03</pdfrwt>
<totfact> 0.11061236E+04</totfact>
</mgrwt>
</event>
<event>
 7    1  0.4230786E-006  0.1807178E+03  0.7546771E-02  0.1172516E+00
         -1   -1    0    0    0  501 -0.00000000000E+00  0.00000000000E+00  0.93407008117E+03  0.93407008117E+03  0.00000000000E+00 0.  1.
          1   -1    0    0  501    0  0.00000000000E+00 -0.00000000000E+00 -0.32986759462E+02  0.32986759462E+02  0.00000000000E+00 0. -1.
         23    2    1    2    0    0  0.10677470248E+03  0.75203379711E+02  0.59472694105E+03  0.62157787724E+03  0.12491011828E+03 0.  0.
          5    1    3    3  502    0  0.46210091975E+01 -0.30156540504E+02  0.15316235509E+03  0.15624201636E+03  0.47000000000E+01 0.  1.
         -5    1    3    3    0  502  0.10215369328E+03  0.10535992022E+03  0.44156458597E+03  0.46533586088E+03  0.47000000000E+01 0.  1.
        -11    1    1    2    0    0 -0.20271347015E+02 -0.53378026983E+02  0.19275348233E+03  0.20103245068E+03  0.00000000000E+00 0.  1.
         11    1    1    2    0    0 -0.86503355464E+02 -0.21825352728E+02  0.11360289832E+03  0.14444651272E+03  0.00000000000E+00 0. -1.
<mgrwt>
<rscale>  0 0.17521504E+03</rscale>
<asrwt>0</asrwt>
<pdfrwt beam="2">  1        1 0.50748868E-02 0.18071780E+03</pdfrwt>
<pdfrwt beam="1">  1       -1 0.14370307E+00 0.18071780E+03</pdfrwt>
<totfact> 0.68555654E+02</totfact>
</mgrwt>
</event>
<event>
 7    1  0.4230786E-006  0.1496704E+03  0.7546771E-02  0.1209787E+00
         -2   -1    0    0    0  501 -0.00000000000E+00  0.00000000000E+00  0.60273303641E+02  0.60273303641E+02  0.00000000000E+00 0.  1.
          2   -1    0    0  501    0  0.00000000000E+00 -0.00000000000E+00 -0.33425760946E+03  0.33425760946E+03  0.00000000000E+00 0. -1.
         23    2    1    2    0    0 -0.47552167650E+01  0.82184981986E+02 -0.95815497467E+02  0.17771278236E+03  0.12499696039E+03 0.  0.
          5    1    3    3  502    0  0.51798711730E+02  0.76655791356E+02 -0.57990502141E+02  0.10928954764E+03  0.47000000000E+01 0.  1.
         -5    1    3    3    0  502 -0.56553928495E+02  0.55291906302E+01 -0.37824995326E+02  0.68423234713E+02  0.47000000000E+01 0.  1.
        -11    1    1    2    0    0  0.39727111644E+02 -0.65030756502E+02 -0.76661763743E+02  0.10809379589E+03  0.00000000000E+00 0.  1.
         11    1    1    2    0    0 -0.34971894879E+02 -0.17154225485E+02 -0.10150704461E+03  0.10872433485E+03  0.00000000000E+00 0. -1.
<mgrwt>
<rscale>  0 0.14266501E+03</rscale>
<asrwt>0</asrwt>
<pdfrwt beam="2">  1        2 0.51424247E-01 0.14967038E+03</pdfrwt>
<pdfrwt beam="1">  1       -2 0.92728161E-02 0.14967038E+03</pdfrwt>
<totfact> 0.69814173E+03</totfact>
</mgrwt>
</event>
<event>
 7    1  0.4230786E-006  0.1250330E+03  0.7546771E-02  0.1249875E+00
          1   -1    0    0  501    0  0.00000000000E+00  0.00000000000E+00  0.42311168959E+02  0.42311168959E+02  0.00000000000E+00 0. -1.
         -1   -1    0    0    0  501 -0.00000000000E+00 -0.00000000000E+00 -0.34024306651E+03  0.34024306651E+03  0.00000000000E+00 0.  1.
         23    2    1    2    0    0  0.13314846270E+00 -0.26394847859E+01 -0.24711832733E+03  0.27694896255E+03  0.12500510208E+03 0.  0.
          5    1    3    3  502    0 -0.56678088755E+01  0.40624392411E+02 -0.22313402906E+03  0.22692146271E+03  0.47000000000E+01 0. -1.
         -5    1    3    3    0  502  0.58009573382E+01 -0.43263877197E+02 -0.23984298269E+02  0.50027499833E+02  0.47000000000E+01 0. -1.
        -11    1    1    2    0    0  0.40467746394E+01  0.39894145582E+02 -0.54801591086E+02  0.67905328379E+02  0.00000000000E+00 0.  1.
         11    1    1    2    0    0 -0.41799231021E+01 -0.37254660796E+02  0.39880208611E+01  0.37699944543E+02  0.00000000000E+00 0. -1.
<mgrwt>
<rscale>  0 0.11598293E+03</rscale>
<asrwt>0</asrwt>
<pdfrwt beam="1">  1        1 0.65094109E-02 0.12503304E+03</pdfrwt>
<pdfrwt beam="2">  1       -1 0.52345085E-01 0.12503304E+03</pdfrwt>
<totfact> 0.41464156E+03</totfact>
</mgrwt>
</event>
<event>
 7    1  0.4230786E-006  0.1327838E+03  0.7546771E-02  0.1235333E+00
          1   -1    0    0  501    0  0.00000000000E+00  0.00000000000E+00  0.49004170494E+03  0.49004170494E+03  0.00000000000E+00 0. -1.
         -1   -1    0    0    0  501 -0.00000000000E+00 -0.00000000000E+00 -0.28951059370E+02  0.28951059370E+02  0.00000000000E+00 0.  1.
         23    2    1    2    0    0 -0.30059566581E+02 -0.33231718664E+02  0.22760112520E+03  0.26350297146E+03  0.12499447631E+03 0.  0.
          5    1    3    3  502    0  0.14341025658E+02 -0.17457967300E+02  0.21257369733E+03  0.21382261909E+03  0.47000000000E+01 0.  1.
         -5    1    3    3    0  502 -0.44400592239E+02 -0.15773751364E+02  0.15027427876E+02  0.49680352373E+02  0.47000000000E+01 0.  1.
        -11    1    1    2    0    0 -0.19512712828E+02  0.26378900897E+02  0.17702612389E+03  0.18004122004E+03  0.00000000000E+00 0. -1.
         11    1    1    2    0    0  0.49572279409E+02  0.68528177677E+01  0.56463396486E+02  0.75448572816E+02  0.00000000000E+00 0.  1.
<mgrwt>
<rscale>  0 0.12483136E+03</rscale>
<asrwt>0</asrwt>
<pdfrwt beam="1">  1        1 0.75391026E-01 0.13278382E+03</pdfrwt>
<pdfrwt beam="2">  1       -1 0.44540095E-02 0.13278382E+03</pdfrwt>
<totfact> 0.92460626E+03</totfact>
</mgrwt>
</event>
<event>
 7    1  0.4230786E-006  0.1294502E+03  0.7546771E-02  0.1242601E+00
         -1   -1    0    0    0  501 -0.00000000000E+00  0.00000000000E+00  0.20656575145E+03  0.20656575145E+03  0.00000000000E+00 0.  1.
          1   -1    0    0  501    0  0.00000000000E+00 -0.00000000000E+00 -0.71789874873E+02  0.71789874873E+02  0.00000000000E+00 0. -1.
         23    2    1    2    0    0  0.28746314517E+02 -0.17513645939E+02  0.12722920158E+03  0.18150652828E+03  0.12499708669E+03 0.  0.
          5    1    3    3  502    0 -0.19774769512E+02  0.74837915404E+01 -0.16799318692E+02  0.27410869260E+02  0.47000000000E+01 0. -1.
         -5    1    3    3    0  502  0.48521084029E+02 -0.24997437479E+02  0.14402852028E+03  0.15409565902E+03  0.47000000000E+01 0. -1.
        -11    1    1    2    0    0 -0.19606661847E+02  0.53556266574E+02  0.14897700877E+02  0.58946046259E+02  0.00000000000E+00 0.  1.
         11    1    1    2    0    0 -0.91396526701E+01 -0.36042620636E+02 -0.73510258820E+01  0.37903051787E+02  0.00000000000E+00 0. -1.
<mgrwt>
<rscale>  0 0.12030129E+03</rscale>
<asrwt>0</asrwt>
<pdfrwt beam="2">  1        1 0.11044596E-01 0.12945018E+03</pdfrwt>
<pdfrwt beam="1">  1       -1 0.31779346E-01 0.12945018E+03</pdfrwt>
<totfact> 0.49368261E+03</totfact>
</mgrwt>
</event>
<event>
 7    1  0.4230786E-006  0.1353271E+03  0.7546771E-02  0.1232264E+00
          2   -1    0    0  501    0  0.00000000000E+00  0.00000000000E+00  0.72402622862E+02  0.72402622862E+02  0.00000000000E+00 0. -1.
         -2   -1    0    0    0  501 -0.00000000000E+00 -0.00000000000E+00 -0.32170958649E+03  0.32170958649E+03  0.00000000000E+00 0.  1.
         23    2    1    2    0    0  0.51003122842E+02 -0.14675199521E+02 -0.25598037725E+03  0.28955028275E+03  0.12448587343E+03 0.  0.
          5    1    3    3  502    0 -0.10573539376E+02 -0.20869221290E+02  0.22477949981E+01  0.23968035266E+02  0.47000000000E+01 0.  1.
         -5    1    3    3    0  502  0.61576662218E+02  0.61940217692E+01 -0.25822817225E+03  0.26558224748E+03  0.47000000000E+01 0.  1.
        -11    1    1    2    0    0  0.21832519806E+02 -0.11390531820E+02 -0.78601971697E+01  0.25849290817E+02  0.00000000000E+00 0.  1.
         11    1    1    2    0    0 -0.72835642648E+02  0.26065731340E+02  0.14533610789E+02  0.78712635788E+02  0.00000000000E+00 0. -1.
<mgrwt>
<rscale>  0 0.12681198E+03</rscale>
<asrwt>0</asrwt>
<pdfrwt beam="1">  1        2 0.11138865E-01 0.13532706E+03</pdfrwt>
<pdfrwt beam="2">  1       -2 0.49493783E-01 0.13532706E+03</pdfrwt>
<totfact> 0.21211822E+03</totfact>
</mgrwt>
</event>
<event>
 7    1  0.7430152E-006  0.1773975E+03  0.7546771E-02  0.1176088E+00
         -1   -1    0    0    0  501 -0.00000000000E+00  0.00000000000E+00  0.36678945490E+02  0.36678945490E+02  0.00000000000E+00 0.  1.
          1   -1    0    0  501    0  0.00000000000E+00 -0.00000000000E+00 -0.75655473872E+03  0.75655473872E+03  0.00000000000E+00 0. -1.
         23    2    1    2    0    0 -0.11833461714E+03 -0.42921173257E+02 -0.39260861855E+03  0.43082642870E+03  0.12499830230E+03 0.  0.
          5    1    3    3  502    0 -0.14638767945E+02 -0.22925173725E+01  0.61975748184E+01  0.16734667504E+02  0.47000000000E+01 0. -1.
         -5    1    3    3    0  502 -0.10369584920E+03 -0.40628655884E+02 -0.39880619337E+03  0.41409176120E+03  0.47000000000E+01 0. -1.
        -11    1    1    2    0    0  0.31529258219E+02  0.20642813641E+02 -0.20673110258E+02  0.42983687215E+02  0.00000000000E+00 0.  1.
         11    1    1    2    0    0  0.86805358924E+02  0.22278359616E+02 -0.30659406442E+03  0.31942356830E+03  0.00000000000E+00 0. -1.
<mgrwt>
<rscale>  0 0.17169852E+03</rscale>
<asrwt>0</asrwt>
<pdfrwt beam="2">  1        1 0.11639304E+00 0.17739753E+03</pdfrwt>
<pdfrwt beam="1">  1       -1 0.56429146E-02 0.17739753E+03</pdfrwt>
<totfact> 0.36274599E+03</totfact>
</mgrwt>
</event>
<event>
 7    1  0.4230786E-006  0.2826209E+03  0.7546771E-02  0.1096057E+00
          2   -1    0    0  501    0  0.00000000000E+00  0.00000000000E+00  0.15017441710E+03  0.15017441710E+03  0.00000000000E+00 0.  1.
         -2   -1    0    0    0  501 -0.00000000000E+00 -0.00000000000E+00 -0.55671683302E+03  0.55671683302E+03  0.00000000000E+00 0. -1.
         23    2    1    2    0    0 -0.57962629984E+02  0.24675128660E+03 -0.31236106094E+03  0.42124106147E+03  0.12501494137E+03 0.  0.
          5    1    3    3  502    0  0.85126938144E+01  0.19899543706E+03 -0.23971793368E+03  0.31170246655E+03  0.47000000000E+01 0. -1.
         -5    1    3    3    0  502 -0.66475323798E+02  0.47755849545E+02 -0.72643127257E+02  0.10953859492E+03  0.47000000000E+01 0. -1.
        -11    1    1    2    0    0  0.45825652663E+02 -0.19836870661E+03 -0.32254563751E+02  0.20613221749E+03  0.00000000000E+00 0.  1.
         11    1    1    2    0    0  0.12136977321E+02 -0.48382579991E+02 -0.61926791232E+02  0.79517971160E+02  0.00000000000E+00 0. -1.
<mgrwt>
<rscale>  0 0.27932795E+03</rscale>
<asrwt>0</asrwt>
<pdfrwt beam="1">  1        2 0.23103756E-01 0.28262095E+03</pdfrwt>
<pdfrwt beam="2">  1       -2 0.85648744E-01 0.28262095E+03</pdfrwt>
<totfact> 0.28882825E+02</totfact>
</mgrwt>
</event>
<event>
 7    1  0.4230786E-006  0.1454765E+03  0.7546771E-02  0.1215826E+00
          1   -1    0    0  501    0  0.00000000000E+00  0.00000000000E+00  0.21991503944E+03  0.21991503944E+03  0.00000000000E+00 0. -1.
         -1   -1    0    0    0  501 -0.00000000000E+00 -0.00000000000E+00 -0.79157008255E+02  0.79157008255E+02  0.00000000000E+00 0.  1.
         23    2    1    2    0    0 -0.38425412529E+02  0.63714512050E+02  0.74586742632E+02  0.16348266383E+03  0.12500939094E+03 0.  0.
          5    1    3    3  502    0  0.19042119956E+02 -0.20200498598E+02  0.52088747627E+02  0.59211401819E+02  0.47000000000E+01 0. -1.
         -5    1    3    3    0  502 -0.57467532485E+02  0.83915010648E+02  0.22497995005E+02  0.10427126201E+03  0.47000000000E+01 0. -1.
        -11    1    1    2    0    0  0.18425951092E+02 -0.85637880152E+02  0.57076556733E+02  0.10455187956E+03  0.00000000000E+00 0. -1.
         11    1    1    2    0    0  0.19999461437E+02  0.21923368102E+02  0.90947318190E+01  0.31037504306E+02  0.00000000000E+00 0.  1.
<mgrwt>
<rscale>  0 0.13816027E+03</rscale>
<asrwt>0</asrwt>
<pdfrwt beam="1">  1        1 0.33833083E-01 0.14547646E+03</pdfrwt>
<pdfrwt beam="2">  1       -1 0.12178001E-01 0.14547646E+03</pdfrwt>
<totfact> 0.55777294E+03</totfact>
</mgrwt>
</event>
<event>
 7    1  0.4230786E-006  0.1314184E+03  0.7546771E-02  0.1235707E+00
         -1   -1    0    0    0  501 -0.00000000000E+00  0.00000000000E+00  0.87098317359E+02  0.87098317359E+02  0.00000000000E+00 0.  1.
          1   -1    0    0  501    0  0.00000000000E+00 -0.00000000000E+00 -0.23820234519E+03  0.23820234519E+03  0.00000000000E+00 0. -1.
         23    2    1    2    0    0 -0.20072774507E+01 -0.52552924387E+02  0.10613483379E+02  0.13184632781E+03  0.12043657710E+03 0.  0.
          5    1    3    3  502    0 -0.19934121784E+02  0.24041003577E+02  0.37088955317E+02  0.48713649738E+02  0.47000000000E+01 0. -1.
         -5    1    3    3    0  502  0.17926844334E+02 -0.76593927965E+02 -0.26475471938E+02  0.83132678070E+02  0.47000000000E+01 0.  1.
        -11    1    1    2    0    0 -0.30527132326E+02  0.10365169486E+01 -0.13874579890E+02  0.33548236057E+02  0.00000000000E+00 0.  1.
         11    1    1    2    0    0  0.32534409777E+02  0.51516407439E+02 -0.14784293132E+03  0.15990609869E+03  0.00000000000E+00 0. -1.
<mgrwt>
<rscale>  0 0.12459267E+03</rscale>
<asrwt>0</asrwt>
<pdfrwt beam="2">  1        1 0.36646515E-01 0.13141845E+03</pdfrwt>
<pdfrwt beam="1">  1       -1 0.13399741E-01 0.13141845E+03</pdfrwt>
<totfact> 0.43308169E+03</totfact>
</mgrwt>
</event>
<event>
 7    1  0.4230786E-006  0.1596221E+03  0.7546771E-02  0.1196743E+00
          1   -1    0    0  501    0  0.00000000000E+00  0.00000000000E+00  0.36971671397E+03  0.36971671397E+03  0.00000000000E+00 0. -1.
         -1   -1    0    0    0  501 -0.00000000000E+00 -0.00000000000E+00 -0.58788928981E+02  0.58788928981E+02  0.00000000000E+00 0.  1.
         23    2    1    2    0    0  0.14382093390E+02  0.98227109504E+02  0.16003120532E+03  0.22602919050E+03  0.12499519443E+03 0.  0.
          5    1    3    3  502    0 -0.28465256228E+02 -0.13506645698E+02  0.86599346116E+01  0.33011888126E+02  0.47000000000E+01 0. -1.
         -5    1    3    3    0  502  0.42847349619E+02  0.11173375520E+03  0.15137127071E+03  0.19301730238E+03  0.47000000000E+01 0. -1.
        -11    1    1    2    0    0  0.22452225693E+02 -0.84506921643E+02  0.68120445216E+02  0.11084185717E+03  0.00000000000E+00 0.  1.
         11    1    1    2    0    0 -0.36834319084E+02 -0.13720187861E+02  0.82776134456E+02  0.91634595284E+02  0.00000000000E+00 0. -1.
<mgrwt>
<rscale>  0 0.15307664E+03</rscale>
<asrwt>0</asrwt>
<pdfrwt beam="1">  1        1 0.56879493E-01 0.15962208E+03</pdfrwt>
<pdfrwt beam="2">  1       -1 0.90444509E-02 0.15962208E+03</pdfrwt>
<totfact> 0.46379454E+03</totfact>
</mgrwt>
</event>
<event>
 7    1  0.4230786E-006  0.1328627E+03  0.7546771E-02  0.1233346E+00
          1   -1    0    0  501    0  0.00000000000E+00  0.00000000000E+00  0.13256230042E+03  0.13256230042E+03  0.00000000000E+00 0. -1.
         -1   -1    0    0    0  501 -0.00000000000E+00 -0.00000000000E+00 -0.20410778792E+03  0.20410778792E+03  0.00000000000E+00 0.  1.
         23    2    1    2    0    0 -0.35751451944E+02 -0.27403354548E+02 -0.15218022752E+03  0.20201812545E+03  0.12499356465E+03 0.  0.
          5    1    3    3  502    0 -0.63418361613E+02 -0.26287925594E+02 -0.27317385099E+02  0.74035620821E+02  0.47000000000E+01 0. -1.
         -5    1    3    3    0  502  0.27666909668E+02 -0.11154289535E+01 -0.12486284242E+03  0.12798250462E+03  0.47000000000E+01 0. -1.
        -11    1    1    2    0    0 -0.13223802502E+02  0.57972861521E+01 -0.17608846254E+02  0.22771669805E+02  0.00000000000E+00 0.  1.
         11    1    1    2    0    0  0.48975254446E+02  0.21606068396E+02  0.98243586270E+02  0.11188029309E+03  0.00000000000E+00 0. -1.
<mgrwt>
<rscale>  0 0.12610898E+03</rscale>
<asrwt>0</asrwt>
<pdfrwt beam="1">  1        1 0.20394200E-01 0.13286272E+03</pdfrwt>
<pdfrwt beam="2">  1       -1 0.31401198E-01 0.13286272E+03</pdfrwt>
<totfact> 0.22828901E+03</totfact>
</mgrwt>
</event>
<event>
 7    1  0.4230786E-006  0.1573350E+03  0.7546771E-02  0.1199507E+00
          1   -1    0    0  501    0  0.00000000000E+00  0.00000000000E+00  0.99851231288E+02  0.99851231288E+02  0.00000000000E+00 0. -1.
         -1   -1    0    0    0  501 -0.00000000000E+00 -0.00000000000E+00 -0.24958634350E+03  0.24958634350E+03  0.00000000000E+00 0.  1.
         23    2    1    2    0    0  0.17971438929E+02 -0.93842532117E+02 -0.14900660311E+03  0.21669625362E+03  0.12499962044E+03 0.  0.
          5    1    3    3  502    0  0.14622979312E+02 -0.95423468509E+02 -0.16962424821E+03  0.19522793204E+03  0.47000000000E+01 0. -1.
         -5    1    3    3    0  502  0.33484596169E+01  0.15809363921E+01  0.20617645106E+02  0.21468321578E+02  0.47000000000E+01 0. -1.
        -11    1    1    2    0    0  0.28595191318E+02  0.68112740731E+02 -0.19367842366E+02  0.76368473432E+02  0.00000000000E+00 0.  1.
         11    1    1    2    0    0 -0.46566630247E+02  0.25729791386E+02  0.18639333263E+02  0.56372847736E+02  0.00000000000E+00 0. -1.
<mgrwt>
<rscale>  0 0.15078873E+03</rscale>
<asrwt>0</asrwt>
<pdfrwt beam="1">  1        1 0.15361728E-01 0.15733499E+03</pdfrwt>
<pdfrwt beam="2">  1       -1 0.38397899E-01 0.15733499E+03</pdfrwt>
<totfact> 0.23415182E+03</totfact>
</mgrwt>
</event>
<event>
 7    1  0.4230786E-006  0.1374243E+03  0.7546771E-02  0.1227028E+00
         -2   -1    0    0    0  501 -0.00000000000E+00  0.00000000000E+00  0.38103015991E+03  0.38103015991E+03  0.00000000000E+00 0.  1.
          2   -1    0    0  501    0  0.00000000000E+00 -0.00000000000E+00 -0.65088508792E+02  0.65088508792E+02  0.00000000000E+00 0. -1.
         23    2    1    2    0    0  0.82448911389E+01  0.56506063964E+02  0.30502639052E+03  0.33455424011E+03  0.12499810866E+03 0.  0.
          5    1    3    3  502    0  0.45998633771E+02  0.79179292546E+02  0.18186705563E+03  0.20367363747E+03  0.47000000000E+01 0.  1.
         -5    1    3    3    0  502 -0.37753742632E+02 -0.22673228582E+02  0.12315933489E+03  0.13088060264E+03  0.47000000000E+01 0.  1.
        -11    1    1    2    0    0  0.24872020452E+02 -0.59499829743E+02  0.32202562066E+02  0.72082259568E+02  0.00000000000E+00 0.  1.
         11    1    1    2    0    0 -0.33116911591E+02  0.29937657788E+01 -0.21287301470E+02  0.39482169022E+02  0.00000000000E+00 0. -1.
<mgrwt>
<rscale>  0 0.13028876E+03</rscale>
<asrwt>0</asrwt>
<pdfrwt beam="2">  1        2 0.10013617E-01 0.13742431E+03</pdfrwt>
<pdfrwt beam="1">  1       -2 0.58620023E-01 0.13742431E+03</pdfrwt>
<totfact> 0.17206695E+03</totfact>
</mgrwt>
</event>
<event>
 7    1  0.4230786E-006  0.1476936E+03  0.7546771E-02  0.1213421E+00
          1   -1    0    0  501    0  0.00000000000E+00  0.00000000000E+00  0.46442503964E+03  0.46442503964E+03  0.00000000000E+00 0. -1.
         -1   -1    0    0    0  501 -0.00000000000E+00 -0.00000000000E+00 -0.43220017272E+02  0.43220017272E+02  0.00000000000E+00 0.  1.
         23    2    1    2    0    0  0.78651325088E+02 -0.96877154435E+00  0.14537912961E+03  0.20724016720E+03  0.12500570435E+03 0.  0.
          5    1    3    3  502    0  0.18197957473E+02 -0.54655744451E+02  0.96968594691E+02  0.11288673267E+03  0.47000000000E+01 0. -1.
         -5    1    3    3    0  502  0.60453367615E+02  0.53686972907E+02  0.48410534916E+02  0.94353434525E+02  0.47000000000E+01 0. -1.
        -11    1    1    2    0    0 -0.65358147254E+02  0.39431998497E+02  0.15247905781E+03  0.17051813097E+03  0.00000000000E+00 0. -1.
         11    1    1    2    0    0 -0.13293177834E+02 -0.38463226953E+02  0.12334683494E+03  0.12988675874E+03  0.00000000000E+00 0.  1.
<mgrwt>
<rscale>  0 0.13993176E+03</rscale>
<asrwt>0</asrwt>
<pdfrwt beam="1">  1        1 0.71450003E-01 0.14769359E+03</pdfrwt>
<pdfrwt beam="2">  1       -1 0.66492337E-02 0.14769359E+03</pdfrwt>
<totfact> 0.55010721E+03</totfact>
</mgrwt>
</event>
<event>
 7    1  0.4230786E-006  0.1950182E+03  0.7546771E-02  0.1158661E+00
         -4   -1    0    0    0  501 -0.00000000000E+00  0.00000000000E+00  0.15427145806E+03  0.15427145806E+03  0.00000000000E+00 0. -1.
          4   -1    0    0  501    0  0.00000000000E+00 -0.00000000000E+00 -0.25348493155E+03  0.25348493155E+03  0.00000000000E+00 0.  1.
         23    2    1    2    0    0 -0.47333959409E+02 -0.14200737130E+03  0.20089650248E+02  0.19605027024E+03  0.12500206878E+03 0.  0.
          5    1    3    3  502    0 -0.78938469702E+02 -0.40999598759E+02  0.87030321618E+01  0.89499060700E+02  0.47000000000E+01 0.  1.
         -5    1    3    3    0  502  0.31604510293E+02 -0.10100777254E+03  0.11386618086E+02  0.10655120954E+03  0.47000000000E+01 0.  1.
        -11    1    1    2    0    0  0.44550215114E+02  0.87659662390E+02 -0.22835176375E+02  0.10094742868E+03  0.00000000000E+00 0. -1.
         11    1    1    2    0    0  0.27837442949E+01  0.54347708906E+02 -0.96467947360E+02  0.11075869069E+03  0.00000000000E+00 0.  1.
<mgrwt>
<rscale>  0 0.18977858E+03</rscale>
<asrwt>0</asrwt>
<pdfrwt beam="2">  1        4 0.38997682E-01 0.19501824E+03</pdfrwt>
<pdfrwt beam="1">  1       -4 0.23734071E-01 0.19501824E+03</pdfrwt>
<totfact> 0.18687290E+02</totfact>
</mgrwt>
</event>
<event>
 7    1  0.4230786E-006  0.1721340E+03  0.7546771E-02  0.1181879E+00
          1   -1    0    0  501    0  0.00000000000E+00  0.00000000000E+00  0.12401697065E+03  0.12401697065E+03  0.00000000000E+00 0. -1.
         -1   -1    0    0    0  501 -0.00000000000E+00 -0.00000000000E+00 -0.22970833528E+03  0.22970833528E+03  0.00000000000E+00 0.  1.
         23    2    1    2    0    0  0.11830148623E+03  0.32857584202E+01 -0.10967513729E+03  0.20410474661E+03  0.12499629593E+03 0.  0.
          5    1    3    3  502    0 -0.46118633976E+01 -0.30328391991E+02  0.63814284516E+01  0.31684274867E+02  0.47000000000E+01 0. -1.
         -5    1    3    3    0  502  0.12291334963E+03  0.33614150411E+02 -0.11605656574E+03  0.17242047175E+03  0.47000000000E+01 0. -1.
        -11    1    1    2    0    0 -0.98807254836E+02 -0.17317318295E+02 -0.32930292937E+02  0.10558014640E+03  0.00000000000E+00 0.  1.
         11    1    1    2    0    0 -0.19494231398E+02  0.14031559874E+02  0.36914065604E+02  0.44040412915E+02  0.00000000000E+00 0. -1.
<mgrwt>
<rscale>  0 0.16619169E+03</rscale>
<asrwt>0</asrwt>
<pdfrwt beam="1">  1        1 0.19079534E-01 0.17213399E+03</pdfrwt>
<pdfrwt beam="2">  1       -1 0.35339744E-01 0.17213399E+03</pdfrwt>
<totfact> 0.20516717E+03</totfact>
</mgrwt>
</event>
<event>
 7    1  0.4230786E-006  0.1506641E+03  0.7546771E-02  0.1208553E+00
          2   -1    0    0  501    0  0.00000000000E+00  0.00000000000E+00  0.31884489272E+03  0.31884489272E+03  0.00000000000E+00 0. -1.
         -2   -1    0    0    0  501 -0.00000000000E+00 -0.00000000000E+00 -0.59708407721E+02  0.59708407721E+02  0.00000000000E+00 0.  1.
         23    2    1    2    0    0  0.35798613296E+02 -0.76107562071E+02  0.12646394926E+03  0.19670485304E+03  0.12500306807E+03 0.  0.
          5    1    3    3  502    0  0.20210530186E+02 -0.77895615112E+02  0.12506474549E+02  0.81576309611E+02  0.47000000000E+01 0.  1.
         -5    1    3    3    0  502  0.15588083110E+02  0.17880530412E+01  0.11395747471E+03  0.11512854343E+03  0.47000000000E+01 0.  1.
        -11    1    1    2    0    0 -0.51635897357E+02  0.23181690430E+02  0.27230067473E+02  0.62810295666E+02  0.00000000000E+00 0.  1.
         11    1    1    2    0    0  0.15837284061E+02  0.52925871642E+02  0.10544246826E+03  0.11903815174E+03  0.00000000000E+00 0. -1.
<mgrwt>
<rscale>  0 0.14360930E+03</rscale>
<asrwt>0</asrwt>
<pdfrwt beam="1">  1        2 0.49053060E-01 0.15066409E+03</pdfrwt>
<pdfrwt beam="2">  1       -2 0.91859090E-02 0.15066409E+03</pdfrwt>
<totfact> 0.74531167E+03</totfact>
</mgrwt>
</event>
<event>
 7    1  0.4230786E-006  0.1259594E+03  0.7546771E-02  0.1248508E+00
         -2   -1    0    0    0  501 -0.00000000000E+00  0.00000000000E+00  0.51429442730E+02  0.51429442730E+02  0.00000000000E+00 0. -1.
          2   -1    0    0  501    0  0.00000000000E+00 -0.00000000000E+00 -0.24133198287E+03  0.24133198287E+03  0.00000000000E+00 0.  1.
         23    2    1    2    0    0 -0.15109324195E+02  0.25059692176E+01 -0.82127015987E+02  0.15036824889E+03  0.12502476538E+03 0.  0.
          5    1    3    3  502    0 -0.33438121096E+02 -0.46790670519E+02 -0.78519709902E+02  0.97441826918E+02  0.47000000000E+01 0.  1.
         -5    1    3    3    0  502  0.18328796901E+02  0.49296639737E+02 -0.36073060856E+01  0.52926421968E+02  0.47000000000E+01 0.  1.
        -11    1    1    2    0    0  0.17867509196E+02  0.16023455171E+02 -0.11843297161E+03  0.12084025722E+03  0.00000000000E+00 0.  1.
         11    1    1    2    0    0 -0.27581850009E+01 -0.18529424389E+02  0.10657447454E+02  0.21552919499E+02  0.00000000000E+00 0. -1.
<mgrwt>
<rscale>  0 0.11677885E+03</rscale>
<asrwt>0</asrwt>
<pdfrwt beam="2">  1        2 0.37127998E-01 0.12595937E+03</pdfrwt>
<pdfrwt beam="1">  1       -2 0.79122218E-02 0.12595937E+03</pdfrwt>
<totfact> 0.12464238E+04</totfact>
</mgrwt>
</event>
<event>
 7    1  0.4230786E-006  0.1259193E+03  0.7546771E-02  0.1248808E+00
         -1   -1    0    0    0  501 -0.00000000000E+00  0.00000000000E+00  0.72327224672E+02  0.72327224672E+02  0.00000000000E+00 0.  1.
          1   -1    0    0  501    0  0.00000000000E+00 -0.00000000000E+00 -0.17156137117E+03  0.17156137117E+03  0.00000000000E+00 0. -1.
         23    2    1    2    0    0 -0.14981704197E+02 -0.22904815834E+01 -0.33382077668E+02  0.13026907568E+03  0.12500388475E+03 0.  0.
          5    1    3    3  502    0 -0.46117433300E+02  0.47388706378E+02 -0.25036747789E+02  0.70862090614E+02  0.47000000000E+01 0. -1.
         -5    1    3    3    0  502  0.31135729103E+02 -0.49679187961E+02 -0.83453298786E+01  0.59406985061E+02  0.47000000000E+01 0. -1.
        -11    1    1    2    0    0  0.30216335893E+02 -0.21754532642E+02 -0.74989381490E+02  0.83723915231E+02  0.00000000000E+00 0. -1.
         11    1    1    2    0    0 -0.15234631696E+02  0.24045014225E+02  0.91373126579E+01  0.29895604938E+02  0.00000000000E+00 0.  1.
<mgrwt>
<rscale>  0 0.11660312E+03</rscale>
<asrwt>0</asrwt>
<pdfrwt beam="2">  1        1 0.26394057E-01 0.12591930E+03</pdfrwt>
<pdfrwt beam="1">  1       -1 0.11127265E-01 0.12591930E+03</pdfrwt>
<totfact> 0.86429524E+03</totfact>
</mgrwt>
</event>
<event>
 7    1  0.4230786E-006  0.1359079E+03  0.7546771E-02  0.1231151E+00
          2   -1    0    0  501    0  0.00000000000E+00  0.00000000000E+00  0.30198959883E+03  0.30198959883E+03  0.00000000000E+00 0. -1.
         -2   -1    0    0    0  501 -0.00000000000E+00 -0.00000000000E+00 -0.49388838271E+02  0.49388838271E+02  0.00000000000E+00 0.  1.
         23    2    1    2    0    0  0.53312640937E+02  0.10261649927E+01  0.11491588957E+03  0.17797927726E+03  0.12501068258E+03 0.  0.
          5    1    3    3  502    0 -0.27795874428E+02 -0.31055469597E+02  0.65047411600E+02  0.77397083814E+02  0.47000000000E+01 0. -1.
         -5    1    3    3    0  502  0.81108515365E+02  0.32081634590E+02  0.49868477970E+02  0.10058219344E+03  0.47000000000E+01 0. -1.
        -11    1    1    2    0    0 -0.78156105521E+02  0.17581543148E+01  0.11815475839E+03  0.14167573845E+03  0.00000000000E+00 0. -1.
         11    1    1    2    0    0  0.24843464584E+02 -0.27843193075E+01  0.19530112602E+02  0.31723421392E+02  0.00000000000E+00 0.  1.
<mgrwt>
<rscale>  0 0.12754062E+03</rscale>
<asrwt>0</asrwt>
<pdfrwt beam="1">  1        2 0.46459937E-01 0.13590792E+03</pdfrwt>
<pdfrwt beam="2">  1       -2 0.75982830E-02 0.13590792E+03</pdfrwt>
<totfact> 0.10521861E+04</totfact>
</mgrwt>
</event>
<event>
 7    1  0.4230786E-006  0.1381290E+03  0.7546771E-02  0.1226796E+00
          2   -1    0    0  501    0  0.00000000000E+00  0.00000000000E+00  0.13287782136E+03  0.13287782136E+03  0.00000000000E+00 0. -1.
         -2   -1    0    0    0  501 -0.00000000000E+00 -0.00000000000E+00 -0.11964823232E+03  0.11964823232E+03  0.00000000000E+00 0.  1.
         23    2    1    2    0    0  0.42844810717E+02  0.40240028381E+02 -0.15415597841E+02  0.13898651312E+03  0.12499868992E+03 0.  0.
          5    1    3    3  502    0  0.19646275221E+02 -0.40938910400E+02  0.16590411260E+02  0.48572649305E+02  0.47000000000E+01 0.  1.
         -5    1    3    3    0  502  0.23198535496E+02  0.81178938781E+02 -0.32006009101E+02  0.90413863811E+02  0.47000000000E+01 0.  1.
        -11    1    1    2    0    0 -0.28168569403E+02 -0.69739234252E+02  0.10550867798E+02  0.75949653769E+02  0.00000000000E+00 0.  1.
         11    1    1    2    0    0 -0.14676241314E+02  0.29499205871E+02  0.18094319079E+02  0.37589886793E+02  0.00000000000E+00 0. -1.
<mgrwt>
<rscale>  0 0.13044578E+03</rscale>
<asrwt>0</asrwt>
<pdfrwt beam="1">  1        2 0.20442742E-01 0.13812896E+03</pdfrwt>
<pdfrwt beam="2">  1       -2 0.18407420E-01 0.13812896E+03</pdfrwt>
<totfact> 0.62400761E+03</totfact>
</mgrwt>
</event>
<event>
 7    1  0.4230786E-006  0.1399063E+03  0.7546771E-02  0.1224601E+00
         -1   -1    0    0    0  501 -0.00000000000E+00  0.00000000000E+00  0.14534060809E+03  0.14534060809E+03  0.00000000000E+00 0.  1.
          1   -1    0    0  501    0  0.00000000000E+00 -0.00000000000E+00 -0.11572703371E+03  0.11572703371E+03  0.00000000000E+00 0. -1.
         23    2    1    2    0    0 -0.13111221046E+01  0.62824492660E+02  0.49928557616E+02  0.14854837540E+03  0.12500049219E+03 0.  0.
          5    1    3    3  502    0 -0.20769002932E+02  0.14749063968E+02  0.82939722575E+02  0.86890586093E+02  0.47000000000E+01 0. -1.
         -5    1    3    3    0  502  0.19457880827E+02  0.48075428692E+02 -0.33011164959E+02  0.61657789306E+02  0.47000000000E+01 0. -1.
        -11    1    1    2    0    0  0.34693390043E+02  0.43133310756E+01 -0.49167017117E+00  0.34963951110E+02  0.00000000000E+00 0. -1.
         11    1    1    2    0    0 -0.33382267939E+02 -0.67137823736E+02 -0.19823313070E+02  0.77555315290E+02  0.00000000000E+00 0.  1.
<mgrwt>
<rscale>  0 0.13194274E+03</rscale>
<asrwt>0</asrwt>
<pdfrwt beam="2">  1        1 0.17804159E-01 0.13990625E+03</pdfrwt>
<pdfrwt beam="1">  1       -1 0.22360093E-01 0.13990625E+03</pdfrwt>
<totfact> 0.47742034E+03</totfact>
</mgrwt>
</event>
<event>
 6    1  0.4230786E-006  0.2060560E+03  0.7546771E-02  0.1173714E+00
         -3   -1    0    0    0  501 -0.00000000000E+00  0.00000000000E+00  0.20570124461E+03  0.20570124461E+03  0.00000000000E+00 0.  1.
          3   -1    0    0  501    0  0.00000000000E+00 -0.00000000000E+00 -0.13495942480E+03  0.13495942480E+03  0.00000000000E+00 0. -1.
          5    1    1    2  502    0 -0.27194839047E+02 -0.51120313880E+02 -0.30906934739E+02  0.65804060490E+02  0.47000000000E+01 0. -1.
         -5    1    1    2    0  502  0.79019934086E+02  0.52762603182E+02  0.13472715271E+03  0.16492888757E+03  0.47000000000E+01 0.  1.
        -11    1    1    2    0    0  0.19296286835E+02  0.97456029196E+01 -0.31097478431E+02  0.37873164994E+02  0.00000000000E+00 0.  1.
         11    1    1    2    0    0 -0.71121381874E+02 -0.11387892221E+02 -0.19809197276E+01  0.72054556358E+02  0.00000000000E+00 0. -1.
<mgrwt>
<rscale>  0 0.17402563E+03</rscale>
<asrwt>0</asrwt>
<pdfrwt beam="2">  1        3 0.20762989E-01 0.20605595E+03</pdfrwt>
<pdfrwt beam="1">  1       -3 0.31646345E-01 0.20605595E+03</pdfrwt>
<totfact> 0.49973041E+02</totfact>
</mgrwt>
</event>
<event>
 7    1  0.4630618E-006  0.1735619E+03  0.7546771E-02  0.1180468E+00
          1   -1    0    0  501    0  0.00000000000E+00  0.00000000000E+00  0.18930691832E+03  0.18930691832E+03  0.00000000000E+00 0. -1.
         -1   -1    0    0    0  501 -0.00000000000E+00 -0.00000000000E+00 -0.14154482333E+03  0.14154482333E+03  0.00000000000E+00 0.  1.
         23    2    1    2    0    0  0.54969923228E+02  0.10713072986E+03  0.24218580504E+01  0.17357882881E+03  0.12500023470E+03 0.  0.
          5    1    3    3  502    0  0.42724064404E+02  0.30540048679E+02 -0.55581300284E+02  0.76612082557E+02  0.47000000000E+01 0. -1.
         -5    1    3    3    0  502  0.12245858824E+02  0.76590681182E+02  0.58003158334E+02  0.96966746253E+02  0.47000000000E+01 0. -1.
        -11    1    1    2    0    0 -0.54073356388E+02 -0.13068895746E+02  0.86221715896E+01  0.56294455766E+02  0.00000000000E+00 0. -1.
         11    1    1    2    0    0 -0.89656683992E+00 -0.94061834115E+02  0.36718065351E+02  0.10097845707E+03  0.00000000000E+00 0.  1.
<mgrwt>
<rscale>  0 0.16751123E+03</rscale>
<asrwt>0</asrwt>
<pdfrwt beam="1">  1        1 0.29124141E-01 0.17356193E+03</pdfrwt>
<pdfrwt beam="2">  1       -1 0.21776127E-01 0.17356193E+03</pdfrwt>
<totfact> 0.27009168E+03</totfact>
</mgrwt>
</event>
<event>
 7    1  0.4230786E-006  0.1330017E+03  0.7546771E-02  0.1235961E+00
         -2   -1    0    0    0  501 -0.00000000000E+00  0.00000000000E+00  0.16343720450E+02  0.16343720450E+02  0.00000000000E+00 0.  1.
          2   -1    0    0  501    0  0.00000000000E+00 -0.00000000000E+00 -0.91024014673E+03  0.91024014673E+03  0.00000000000E+00 0. -1.
         23    2    1    2    0    0  0.28129403822E+02 -0.35688700004E+02 -0.37786418167E+03  0.40058804288E+03  0.12499797454E+03 0.  0.
          5    1    3    3  502    0 -0.44999463291E+01 -0.36600289210E+02 -0.36215685274E+03  0.36405975701E+03  0.47000000000E+01 0.  1.
         -5    1    3    3    0  502  0.32629350151E+02  0.91158920656E+00 -0.15707328927E+02  0.36528285865E+02  0.47000000000E+01 0.  1.
        -11    1    1    2    0    0  0.31574931766E+02 -0.11136464416E+01 -0.14679519093E+03  0.15015673346E+03  0.00000000000E+00 0. -1.
         11    1    1    2    0    0 -0.59704335588E+02  0.36802346445E+02 -0.36923705368E+03  0.37583909084E+03  0.00000000000E+00 0.  1.
<mgrwt>
<rscale>  0 0.12443130E+03</rscale>
<asrwt>0</asrwt>
<pdfrwt beam="2">  1        2 0.14003693E+00 0.13300166E+03</pdfrwt>
<pdfrwt beam="1">  1       -2 0.25144188E-02 0.13300166E+03</pdfrwt>
<totfact> 0.15723388E+04</totfact>
</mgrwt>
</event>
<event>
 7    1  0.4230786E-006  0.1341381E+03  0.7546771E-02  0.1235219E+00
          1   -1    0    0  501    0  0.00000000000E+00  0.00000000000E+00  0.35148034922E+03  0.35148034922E+03  0.00000000000E+00 0. -1.
         -1   -1    0    0    0  501 -0.00000000000E+00 -0.00000000000E+00 -0.39446193550E+02  0.39446193550E+02  0.00000000000E+00 0.  1.
         23    2    1    2    0    0  0.44212860145E+02  0.20330924822E+02  0.19078587247E+03  0.23322154538E+03  0.12499966635E+03 0.  0.
          5    1    3    3  502    0 -0.37569235766E+02  0.22783509580E+02  0.32082334563E+02  0.54606794227E+02  0.47000000000E+01 0.  1.
         -5    1    3    3    0  502  0.81782095911E+02 -0.24525847579E+01  0.15870353791E+03  0.17861475115E+03  0.47000000000E+01 0.  1.
        -11    1    1    2    0    0 -0.51935820078E+02  0.20892772993E+02  0.87484793468E+02  0.10386253636E+03  0.00000000000E+00 0.  1.
         11    1    1    2    0    0  0.77229599332E+01 -0.41223697816E+02  0.33763489736E+02  0.53842461040E+02  0.00000000000E+00 0. -1.
<mgrwt>
<rscale>  0 0.12490443E+03</rscale>
<asrwt>0</asrwt>
<pdfrwt beam="1">  1        1 0.54073898E-01 0.13413814E+03</pdfrwt>
<pdfrwt beam="2">  1       -1 0.60686454E-02 0.13413814E+03</pdfrwt>
<totfact> 0.89188356E+03</totfact>
</mgrwt>
</event>
<event>
 7    1  0.4230786E-006  0.1256720E+03  0.7546771E-02  0.1250118E+00
          3   -1    0    0  501    0  0.00000000000E+00  0.00000000000E+00  0.41786511209E+03  0.41786511209E+03  0.00000000000E+00 0. -1.
         -3   -1    0    0    0  501 -0.00000000000E+00 -0.00000000000E+00 -0.28019130392E+02  0.28019130392E+02  0.00000000000E+00 0.  1.
         23    2    1    2    0    0 -0.35227533666E+00 -0.13056632093E+02  0.22800160770E+03  0.26034242736E+03  0.12499138623E+03 0.  0.
          5    1    3    3  502    0 -0.30621347180E+02 -0.12859738633E+02  0.22723816887E+03  0.22970049015E+03  0.47000000000E+01 0. -1.
         -5    1    3    3    0  502  0.30269071843E+02 -0.19689345978E+00  0.76343882605E+00  0.30641937213E+02  0.47000000000E+01 0. -1.
        -11    1    1    2    0    0 -0.74670693677E+01  0.40153359414E+02  0.29899331217E+02  0.50616394621E+02  0.00000000000E+00 0.  1.
         11    1    1    2    0    0  0.78193447044E+01 -0.27096727321E+02  0.13194504278E+03  0.13492542051E+03  0.00000000000E+00 0. -1.
<mgrwt>
<rscale>  0 0.11584255E+03</rscale>
<asrwt>0</asrwt>
<pdfrwt beam="1">  1        3 0.64286936E-01 0.12567198E+03</pdfrwt>
<pdfrwt beam="2">  1       -3 0.43106357E-02 0.12567198E+03</pdfrwt>
<totfact> 0.15611047E+03</totfact>
</mgrwt>
</event>
<event>
 7    1  0.4230786E-006  0.1366372E+03  0.7546771E-02  0.1229618E+00
         -1   -1    0    0    0  501 -0.00000000000E+00  0.00000000000E+00  0.52599596933E+03  0.52599596933E+03  0.00000000000E+00 0.  1.
          1   -1    0    0  501    0  0.00000000000E+00 -0.00000000000E+00 -0.41949599066E+02  0.41949599066E+02  0.00000000000E+00 0. -1.
         23    2    1    2    0    0  0.73561942522E-01  0.55164246745E+02  0.42339807329E+03  0.44489958567E+03  0.12500645317E+03 0.  0.
          5    1    3    3  502    0 -0.15766776584E+02 -0.35733237380E+02  0.18693151037E+03  0.19102600626E+03  0.47000000000E+01 0.  1.
         -5    1    3    3    0  502  0.15840338526E+02  0.90897484125E+02  0.23646656292E+03  0.25387357942E+03  0.47000000000E+01 0.  1.
        -11    1    1    2    0    0 -0.13436369789E+02  0.42506384917E+01 -0.18452175305E+02  0.23218241410E+02  0.00000000000E+00 0. -1.
         11    1    1    2    0    0  0.13362807846E+02 -0.59414885236E+02  0.79100472274E+02  0.99827741311E+02  0.00000000000E+00 0.  1.
<mgrwt>
<rscale>  0 0.12855371E+03</rscale>
<asrwt>0</asrwt>
<pdfrwt beam="2">  1        1 0.64537849E-02 0.13663716E+03</pdfrwt>
<pdfrwt beam="1">  1       -1 0.80922452E-01 0.13663716E+03</pdfrwt>
<totfact> 0.18114562E+03</totfact>
</mgrwt>
</event>
<event>
 7    1  0.4230786E-006  0.1473829E+03  0.7546771E-02  0.1210276E+00
         -2   -1    0    0    0  501 -0.00000000000E+00  0.00000000000E+00  0.12033369008E+03  0.12033369008E+03  0.00000000000E+00 0.  1.
          2   -1    0    0  501    0  0.00000000000E+00 -0.00000000000E+00 -0.15761494869E+03  0.15761494869E+03  0.00000000000E+00 0. -1.
         23    2    1    2    0    0  0.23701388014E+02  0.74393952604E+02 -0.19819341994E+02  0.14870949452E+03  0.12500196585E+03 0.  0.
          5    1    3    3  502    0 -0.19607813306E+02 -0.28770920568E+02 -0.85499657983E+01  0.36158320317E+02  0.47000000000E+01 0.  1.
         -5    1    3    3    0  502  0.43309201320E+02  0.10316487317E+03 -0.11269376195E+02  0.11255117421E+03  0.47000000000E+01 0.  1.
        -11    1    1    2    0    0  0.38093605246E+02 -0.41459746655E+02 -0.18325785800E+02  0.59210368843E+02  0.00000000000E+00 0. -1.
         11    1    1    2    0    0 -0.61794993260E+02 -0.32934205949E+02  0.86386918392E+00  0.70028775396E+02  0.00000000000E+00 0.  1.
<mgrwt>
<rscale>  0 0.14229301E+03</rscale>
<asrwt>0</asrwt>
<pdfrwt beam="2">  1        2 0.24248454E-01 0.14738286E+03</pdfrwt>
<pdfrwt beam="1">  1       -2 0.18512875E-01 0.14738286E+03</pdfrwt>
<totfact> 0.51276133E+03</totfact>
</mgrwt>
</event>
<event>
 7    1  0.4230786E-006  0.1260811E+03  0.7546771E-02  0.1248780E+00
         -1   -1    0    0    0  501 -0.00000000000E+00  0.00000000000E+00  0.24967671270E+02  0.24967671270E+02  0.00000000000E+00 0.  1.
          1   -1    0    0  501    0  0.00000000000E+00 -0.00000000000E+00 -0.50579364976E+03  0.50579364976E+03  0.00000000000E+00 0. -1.
         23    2    1    2    0    0 -0.14444388956E+02 -0.80401698607E+01 -0.21344227651E+03  0.24789926551E+03  0.12499262272E+03 0.  0.
          5    1    3    3  502    0 -0.51553120259E+02 -0.28389999563E+02 -0.19068734961E+03  0.19961831475E+03  0.47000000000E+01 0. -1.
         -5    1    3    3    0  502  0.37108731303E+02  0.20349829703E+02 -0.22754926907E+02  0.48280950760E+02  0.47000000000E+01 0. -1.
        -11    1    1    2    0    0  0.45903807414E+02  0.16374661837E+02 -0.88410931785E+02  0.10095435575E+03  0.00000000000E+00 0.  1.
         11    1    1    2    0    0 -0.31459418458E+02 -0.83344919761E+01 -0.17897277019E+03  0.18190769977E+03  0.00000000000E+00 0. -1.
<mgrwt>
<rscale>  0 0.11661989E+03</rscale>
<asrwt>0</asrwt>
<pdfrwt beam="2">  1        1 0.77814406E-01 0.12608109E+03</pdfrwt>
<pdfrwt beam="1">  1       -1 0.38411803E-02 0.12608109E+03</pdfrwt>
<totfact> 0.10985592E+04</totfact>
</mgrwt>
</event>
<event>
 7    1  0.4230786E-006  0.1416190E+03  0.7546771E-02  0.1228651E+00
          2   -1    0    0  501    0  0.00000000000E+00  0.00000000000E+00  0.86738552834E+02  0.86738552834E+02  0.00000000000E+00 0. -1.
         -2   -1    0    0    0  501 -0.00000000000E+00 -0.00000000000E+00 -0.16577303921E+03  0.16577303921E+03  0.00000000000E+00 0.  1.
         23    2    1    2    0    0 -0.65557375918E+02  0.11527489530E+02 -0.50411887353E+02  0.15032402457E+03  0.12500120569E+03 0.  0.
          5    1    3    3  502    0 -0.56435070788E+02 -0.16131306478E+02  0.28979947319E+02  0.65628222665E+02  0.47000000000E+01 0.  1.
         -5    1    3    3    0  502 -0.91223051296E+01  0.27658796008E+02 -0.79391834672E+02  0.84695801904E+02  0.47000000000E+01 0.  1.
        -11    1    1    2    0    0  0.71039174697E+01  0.88272570804E+01  0.20329226507E+02  0.23273666693E+02  0.00000000000E+00 0. -1.
         11    1    1    2    0    0  0.58453458448E+02 -0.20354746610E+02 -0.48951825531E+02  0.78913900784E+02  0.00000000000E+00 0.  1.
<mgrwt>
<rscale>  0 0.12919786E+03</rscale>
<asrwt>0</asrwt>
<pdfrwt beam="1">  1        2 0.13344393E-01 0.14161905E+03</pdfrwt>
<pdfrwt beam="2">  1       -2 0.25503544E-01 0.14161905E+03</pdfrwt>
<totfact> 0.58611344E+03</totfact>
</mgrwt>
</event>
<event>
 7    1  0.4230786E-006  0.1357768E+03  0.7546771E-02  0.1231103E+00
         -2   -1    0    0    0  501 -0.00000000000E+00  0.00000000000E+00  0.62587104343E+02  0.62587104343E+02  0.00000000000E+00 0.  1.
          2   -1    0    0  501    0  0.00000000000E+00 -0.00000000000E+00 -0.23606675458E+03  0.23606675458E+03  0.00000000000E+00 0. -1.
         23    2    1    2    0    0 -0.41710503078E+02  0.32729340102E+02 -0.80875763465E+02  0.15803873109E+03  0.12499750253E+03 0.  0.
          5    1    3    3  502    0 -0.48282394518E+02  0.30070826119E+02 -0.11203719939E+03  0.12573729857E+03  0.47000000000E+01 0. -1.
         -5    1    3    3    0  502  0.65718914400E+01  0.26585139829E+01  0.31161435928E+02  0.32301432519E+02  0.47000000000E+01 0. -1.
        -11    1    1    2    0    0 -0.11416643360E+02 -0.81968637578E+01  0.13472188995E+02  0.19468646522E+02  0.00000000000E+00 0.  1.
         11    1    1    2    0    0  0.53127146438E+02 -0.24532476344E+02 -0.10607607576E+03  0.12114648131E+03  0.00000000000E+00 0. -1.
<mgrwt>
<rscale>  0 0.12757267E+03</rscale>
<asrwt>0</asrwt>
<pdfrwt beam="2">  1        2 0.36317962E-01 0.13577684E+03</pdfrwt>
<pdfrwt beam="1">  1       -2 0.96287852E-02 0.13577684E+03</pdfrwt>
<totfact> 0.94638870E+03</totfact>
</mgrwt>
</event>
<event>
 7    1  0.4230786E-006  0.1584434E+03  0.7546771E-02  0.1198630E+00
          2   -1    0    0  501    0  0.00000000000E+00  0.00000000000E+00  0.79284350821E+03  0.79284350821E+03  0.00000000000E+00 0. -1.
         -2   -1    0    0    0  501 -0.00000000000E+00 -0.00000000000E+00 -0.26691932125E+02  0.26691932125E+02  0.00000000000E+00 0.  1.
         23    2    1    2    0    0 -0.53076677952E+02  0.81633466908E+02  0.41168162387E+03  0.44111912308E+03  0.12499265841E+03 0.  0.
          5    1    3    3  502    0  0.18535353462E+02  0.24681860130E+02  0.27379688670E+03  0.27557136773E+03  0.47000000000E+01 0. -1.
         -5    1    3    3    0  502 -0.71612031414E+02  0.56951606779E+02  0.13788473717E+03  0.16554775535E+03  0.47000000000E+01 0. -1.
        -11    1    1    2    0    0  0.57250940666E+02 -0.95585116463E+02  0.34038483003E+03  0.35815641445E+03  0.00000000000E+00 0. -1.
         11    1    1    2    0    0 -0.41742627139E+01  0.13951649555E+02  0.14085122181E+02  0.20259902797E+02  0.00000000000E+00 0.  1.
<mgrwt>
<rscale>  0 0.15150962E+03</rscale>
<asrwt>0</asrwt>
<pdfrwt beam="1">  1        2 0.12197591E+00 0.15844343E+03</pdfrwt>
<pdfrwt beam="2">  1       -2 0.41064517E-02 0.15844343E+03</pdfrwt>
<totfact> 0.91934369E+03</totfact>
</mgrwt>
</event>
<event>
 7    1  0.4230786E-006  0.1359464E+03  0.7546771E-02  0.1232248E+00
         -2   -1    0    0    0  501 -0.00000000000E+00  0.00000000000E+00  0.22588693345E+02  0.22588693345E+02  0.00000000000E+00 0. -1.
          2   -1    0    0  501    0  0.00000000000E+00 -0.00000000000E+00 -0.64540775850E+03  0.64540775850E+03  0.00000000000E+00 0.  1.
         23    2    1    2    0    0 -0.19048756459E+02  0.49935295850E+02 -0.30528698728E+03  0.33418791142E+03  0.12500010658E+03 0.  0.
          5    1    3    3  502    0  0.39830847087E+02  0.47219025141E+02 -0.79513242001E+02  0.10079969429E+03  0.47000000000E+01 0.  1.
         -5    1    3    3    0  502 -0.58879603546E+02  0.27162707088E+01 -0.22577374528E+03  0.23338821714E+03  0.47000000000E+01 0.  1.
        -11    1    1    2    0    0  0.24596168784E+02 -0.60409472088E+02 -0.31500859847E+03  0.32169036813E+03  0.00000000000E+00 0.  1.
         11    1    1    2    0    0 -0.55474123252E+01  0.10474176239E+02 -0.25234794015E+01  0.12118172291E+02  0.00000000000E+00 0. -1.
<mgrwt>
<rscale>  0 0.12682262E+03</rscale>
<asrwt>0</asrwt>
<pdfrwt beam="2">  1        2 0.99293513E-01 0.13594637E+03</pdfrwt>
<pdfrwt beam="1">  1       -2 0.34751832E-02 0.13594637E+03</pdfrwt>
<totfact> 0.14931888E+04</totfact>
</mgrwt>
</event>
<event>
 7    1  0.4230786E-006  0.1928581E+03  0.7546771E-02  0.1160551E+00
         -2   -1    0    0    0  501 -0.00000000000E+00  0.00000000000E+00  0.36296555105E+03  0.36296555105E+03  0.00000000000E+00 0.  1.
          2   -1    0    0  501    0  0.00000000000E+00 -0.00000000000E+00 -0.94991287326E+02  0.94991287326E+02  0.00000000000E+00 0. -1.
         23    2    1    2    0    0  0.13514703621E+03 -0.57493503558E+02  0.18012165034E+03  0.26389024422E+03  0.12499611085E+03 0.  0.
          5    1    3    3  502    0  0.12475274663E+03 -0.33143476572E+02  0.19443499532E+03  0.23342835140E+03  0.47000000000E+01 0. -1.
         -5    1    3    3    0  502  0.10394289580E+02 -0.24350026986E+02 -0.14313344980E+02  0.30461892827E+02  0.47000000000E+01 0. -1.
        -11    1    1    2    0    0 -0.15067144860E+02 -0.23355790719E+02  0.19681684889E+02  0.34057018871E+02  0.00000000000E+00 0. -1.
         11    1    1    2    0    0 -0.12007989135E+03  0.80849294276E+02  0.68170928495E+02  0.16000957528E+03  0.00000000000E+00 0.  1.
<mgrwt>
<rscale>  0 0.18770106E+03</rscale>
<asrwt>0</asrwt>
<pdfrwt beam="2">  1        2 0.14614044E-01 0.19285811E+03</pdfrwt>
<pdfrwt beam="1">  1       -2 0.55840853E-01 0.19285811E+03</pdfrwt>
<totfact> 0.12203742E+03</totfact>
</mgrwt>
</event>
<event>
 7    1  0.4230786E-006  0.1914092E+03  0.7546771E-02  0.1162980E+00
          1   -1    0    0  501    0  0.00000000000E+00  0.00000000000E+00  0.29250928271E+03  0.29250928271E+03  0.00000000000E+00 0. -1.
         -1   -1    0    0    0  501 -0.00000000000E+00 -0.00000000000E+00 -0.11035459692E+03  0.11035459692E+03  0.00000000000E+00 0.  1.
         23    2    1    2    0    0  0.62894041475E+02  0.13059766297E+03  0.85359922892E+02  0.20958003835E+03  0.12500426399E+03 0.  0.
          5    1    3    3  502    0  0.96237383058E+02  0.77121387446E+02  0.33638103407E+02  0.12791776382E+03  0.47000000000E+01 0. -1.
         -5    1    3    3    0  502 -0.33343341584E+02  0.53476275519E+02  0.51721819486E+02  0.81662274535E+02  0.47000000000E+01 0. -1.
        -11    1    1    2    0    0  0.13384015807E+02 -0.16689573688E+02 -0.56718854939E+01  0.22132420429E+02  0.00000000000E+00 0.  1.
         11    1    1    2    0    0 -0.76278057281E+02 -0.11390808928E+03  0.10246664840E+03  0.17115142085E+03  0.00000000000E+00 0. -1.
<mgrwt>
<rscale>  0 0.18507438E+03</rscale>
<asrwt>0</asrwt>
<pdfrwt beam="1">  1        1 0.45001428E-01 0.19140918E+03</pdfrwt>
<pdfrwt beam="2">  1       -1 0.16977630E-01 0.19140918E+03</pdfrwt>
<totfact> 0.23505006E+03</totfact>
</mgrwt>
</event>
<event>
 7    1  0.4230786E-006  0.1449214E+03  0.7546771E-02  0.1216847E+00
          1   -1    0    0  501    0  0.00000000000E+00  0.00000000000E+00  0.43022203651E+02  0.43022203651E+02  0.00000000000E+00 0. -1.
         -1   -1    0    0    0  501 -0.00000000000E+00 -0.00000000000E+00 -0.39934916167E+03  0.39934916167E+03  0.00000000000E+00 0.  1.
         23    2    1    2    0    0  0.60384061764E+02 -0.41602293806E+02 -0.20220355830E+03  0.24877398595E+03  0.12500092532E+03 0.  0.
          5    1    3    3  502    0  0.47032111483E+02 -0.99850122223E+01 -0.50188510994E+01  0.48569525898E+02  0.47000000000E+01 0.  1.
         -5    1    3    3    0  502  0.13351950282E+02 -0.31617281584E+02 -0.19718470720E+03  0.20020446005E+03  0.47000000000E+01 0.  1.
        -11    1    1    2    0    0 -0.11823461851E+02  0.62233928397E+02 -0.71091143941E+02  0.95219781772E+02  0.00000000000E+00 0. -1.
         11    1    1    2    0    0 -0.48560599913E+02 -0.20631634591E+02 -0.83032255775E+02  0.98377597597E+02  0.00000000000E+00 0.  1.
<mgrwt>
<rscale>  0 0.13741753E+03</rscale>
<asrwt>0</asrwt>
<pdfrwt beam="1">  1        1 0.66188007E-02 0.14492142E+03</pdfrwt>
<pdfrwt beam="2">  1       -1 0.61438332E-01 0.14492142E+03</pdfrwt>
<totfact> 0.30287904E+03</totfact>
</mgrwt>
</event>
<event>
 7    1  0.4230786E-006  0.1499583E+03  0.7546771E-02  0.1209877E+00
         -1   -1    0    0    0  501 -0.00000000000E+00  0.00000000000E+00  0.22441885060E+03  0.22441885060E+03  0.00000000000E+00 0.  1.
          1   -1    0    0  501    0  0.00000000000E+00 -0.00000000000E+00 -0.10664349465E+03  0.10664349465E+03  0.00000000000E+00 0. -1.
         23    2    1    2    0    0  0.67483455936E+02 -0.48040907626E+02  0.14149880831E+03  0.20617809329E+03  0.12500219105E+03 0.  0.
          5    1    3    3  502    0  0.95843708141E+02 -0.58593833478E+02  0.81661988708E+02  0.13896051278E+03  0.47000000000E+01 0.  1.
         -5    1    3    3    0  502 -0.28360252204E+02  0.10552925852E+02  0.59836819607E+02  0.67217580511E+02  0.47000000000E+01 0.  1.
        -11    1    1    2    0    0 -0.54549731484E+02 -0.41353194585E+01  0.17175368785E+02  0.57339056191E+02  0.00000000000E+00 0.  1.
         11    1    1    2    0    0 -0.12933724453E+02  0.52176227085E+02 -0.40898821148E+02  0.67545195775E+02  0.00000000000E+00 0. -1.
<mgrwt>
<rscale>  0 0.14259674E+03</rscale>
<asrwt>0</asrwt>
<pdfrwt beam="2">  1        1 0.16406691E-01 0.14995831E+03</pdfrwt>
<pdfrwt beam="1">  1       -1 0.34525977E-01 0.14995831E+03</pdfrwt>
<totfact> 0.25794026E+03</totfact>
</mgrwt>
</event>
<event>
 7    1  0.4230786E-006  0.1333780E+03  0.7546771E-02  0.1236261E+00
          2   -1    0    0  501    0  0.00000000000E+00  0.00000000000E+00  0.98523098091E+02  0.98523098091E+02  0.00000000000E+00 0. -1.
         -2   -1    0    0    0  501 -0.00000000000E+00 -0.00000000000E+00 -0.15383801570E+03  0.15383801570E+03  0.00000000000E+00 0.  1.
         23    2    1    2    0    0 -0.10872297775E+02  0.46044710355E+02 -0.70403303046E+02  0.15081884193E+03  0.12470515543E+03 0.  0.
          5    1    3    3  502    0 -0.40552126398E+01  0.49294538739E+02  0.24571889484E+02  0.55428007829E+02  0.47000000000E+01 0. -1.
         -5    1    3    3    0  502 -0.68170851354E+01 -0.32498283844E+01 -0.94975192530E+02  0.95390834101E+02  0.47000000000E+01 0.  1.
        -11    1    1    2    0    0 -0.38944196167E+02 -0.15456957659E+02  0.46008169254E+01  0.42151340092E+02  0.00000000000E+00 0.  1.
         11    1    1    2    0    0  0.49816493942E+02 -0.30587752696E+02  0.10487568509E+02  0.59390931773E+02  0.00000000000E+00 0. -1.
<mgrwt>
<rscale>  0 0.12424041E+03</rscale>
<asrwt>0</asrwt>
<pdfrwt beam="1">  1        2 0.15157400E-01 0.13337803E+03</pdfrwt>
<pdfrwt beam="2">  1       -2 0.23667387E-01 0.13337803E+03</pdfrwt>
<totfact> 0.57217154E+03</totfact>
</mgrwt>
</event>
<event>
 7    1  0.4230786E-006  0.1267923E+03  0.7546771E-02  0.1245775E+00
         -2   -1    0    0    0  501 -0.00000000000E+00  0.00000000000E+00  0.42299967812E+03  0.42299967812E+03  0.00000000000E+00 0.  1.
          2   -1    0    0  501    0  0.00000000000E+00 -0.00000000000E+00 -0.32758533415E+02  0.32758533415E+02  0.00000000000E+00 0. -1.
         23    2    1    2    0    0  0.48947219107E+01 -0.20340826051E+02  0.29096988694E+03  0.31739528295E+03  0.12505432030E+03 0.  0.
          5    1    3    3  502    0  0.11832965013E+02  0.50510015624E+02  0.88118308992E+02  0.10236311405E+03  0.47000000000E+01 0.  1.
         -5    1    3    3    0  502 -0.69382431021E+01 -0.70850841675E+02  0.20285157795E+03  0.21503216890E+03  0.47000000000E+01 0.  1.
        -11    1    1    2    0    0 -0.41170877964E+02  0.13038197479E+02  0.13983354273E+02  0.45393501545E+02  0.00000000000E+00 0. -1.
         11    1    1    2    0    0  0.36276156053E+02  0.73026285718E+01  0.85287903487E+02  0.92969427035E+02  0.00000000000E+00 0.  1.
<mgrwt>
<rscale>  0 0.11839104E+03</rscale>
<asrwt>0</asrwt>
<pdfrwt beam="2">  1        2 0.50397747E-02 0.12679231E+03</pdfrwt>
<pdfrwt beam="1">  1       -2 0.65076870E-01 0.12679231E+03</pdfrwt>
<totfact> 0.32932853E+03</totfact>
</mgrwt>
</event>
<event>
 7    1  0.4230786E-006  0.2590766E+03  0.7546771E-02  0.1109929E+00
         -2   -1    0    0    0  501 -0.00000000000E+00  0.00000000000E+00  0.16717821332E+03  0.16717821332E+03  0.00000000000E+00 0.  1.
          2   -1    0    0  501    0  0.00000000000E+00 -0.00000000000E+00 -0.42834929353E+03  0.42834929353E+03  0.00000000000E+00 0. -1.
         23    2    1    2    0    0 -0.92636678029E+01  0.22673717267E+03 -0.33450281228E+02  0.26122708790E+03  0.12500043650E+03 0.  0.
          5    1    3    3  502    0 -0.16082507443E+02  0.23221660711E+03 -0.69463205437E+01  0.23292389536E+03  0.47000000000E+01 0.  1.
         -5    1    3    3    0  502  0.68188396399E+01 -0.54794344361E+01 -0.26503960684E+02  0.28303192536E+02  0.47000000000E+01 0.  1.
        -11    1    1    2    0    0 -0.32549323305E+02 -0.14944354954E+03 -0.17236773457E+03  0.23044189911E+03  0.00000000000E+00 0. -1.
         11    1    1    2    0    0  0.41812991108E+02 -0.77293623132E+02 -0.55353064414E+02  0.10385851983E+03  0.00000000000E+00 0.  1.
<mgrwt>
<rscale>  0 0.25541680E+03</rscale>
<asrwt>0</asrwt>
<pdfrwt beam="2">  1        2 0.65899892E-01 0.25907657E+03</pdfrwt>
<pdfrwt beam="1">  1       -2 0.25719725E-01 0.25907657E+03</pdfrwt>
<totfact> 0.10014338E+03</totfact>
</mgrwt>
</event>
<event>
 7    1  0.4230786E-006  0.1404356E+03  0.7546771E-02  0.1223840E+00
          2   -1    0    0  501    0  0.00000000000E+00  0.00000000000E+00  0.20942080873E+03  0.20942080873E+03  0.00000000000E+00 0. -1.
         -2   -1    0    0    0  501 -0.00000000000E+00 -0.00000000000E+00 -0.75883347938E+02  0.75883347938E+02  0.00000000000E+00 0.  1.
         23    2    1    2    0    0  0.22554665198E+02 -0.59902093473E+02  0.83546400682E+02  0.16340798158E+03  0.12500077461E+03 0.  0.
          5    1    3    3  502    0  0.68521085112E+02 -0.84287899476E+01  0.27810779836E+02  0.74576893741E+02  0.47000000000E+01 0. -1.
         -5    1    3    3    0  502 -0.45966419914E+02 -0.51473303525E+02  0.55735620846E+02  0.88831087838E+02  0.47000000000E+01 0. -1.
        -11    1    1    2    0    0  0.78789790554E+01  0.47580945931E+02  0.68827734499E+02  0.84043332650E+02  0.00000000000E+00 0. -1.
         11    1    1    2    0    0 -0.30433644253E+02  0.12321147541E+02 -0.18836674383E+02  0.37852842444E+02  0.00000000000E+00 0.  1.
<mgrwt>
<rscale>  0 0.13246722E+03</rscale>
<asrwt>0</asrwt>
<pdfrwt beam="1">  1        2 0.32218586E-01 0.14043563E+03</pdfrwt>
<pdfrwt beam="2">  1       -2 0.11674361E-01 0.14043563E+03</pdfrwt>
<totfact> 0.79575875E+03</totfact>
</mgrwt>
</event>
<event>
 7    1  0.4359955E-006  0.2076256E+03  0.7546771E-02  0.1147366E+00
          2   -1    0    0  501    0  0.00000000000E+00  0.00000000000E+00  0.14194552285E+04  0.14194552285E+04  0.00000000000E+00 0. -1.
         -2   -1    0    0    0  501 -0.00000000000E+00 -0.00000000000E+00 -0.27756141245E+02  0.27756141245E+02  0.00000000000E+00 0.  1.
         23    2    1    2    0    0 -0.22340260423E+00 -0.16578235612E+03  0.75271889987E+03  0.78082913274E+03  0.12499821126E+03 0.  0.
          5    1    3    3  502    0 -0.56824616108E+02 -0.12319449831E+03  0.45901140186E+03  0.47866426486E+03  0.47000000000E+01 0. -1.
         -5    1    3    3    0  502  0.56601213504E+02 -0.42587857810E+02  0.29370749800E+03  0.30216486789E+03  0.47000000000E+01 0. -1.
        -11    1    1    2    0    0 -0.29626170911E+02  0.84314557651E+02  0.20221757459E+03  0.22108505628E+03  0.00000000000E+00 0.  1.
         11    1    1    2    0    0  0.29849573515E+02  0.81467798464E+02  0.43676261279E+03  0.44529718072E+03  0.00000000000E+00 0. -1.
<mgrwt>
<rscale>  0 0.20283830E+03</rscale>
<asrwt>0</asrwt>
<pdfrwt beam="1">  1        2 0.21837767E+00 0.20762561E+03</pdfrwt>
<pdfrwt beam="2">  1       -2 0.42701767E-02 0.20762561E+03</pdfrwt>
<totfact> 0.37420372E+03</totfact>
</mgrwt>
</event>
<event>
 7    1  0.4230786E-006  0.1377548E+03  0.7546771E-02  0.1227863E+00
          1   -1    0    0  501    0  0.00000000000E+00  0.00000000000E+00  0.67622643499E+03  0.67622643499E+03  0.00000000000E+00 0. -1.
         -1   -1    0    0    0  501 -0.00000000000E+00 -0.00000000000E+00 -0.32059650738E+02  0.32059650738E+02  0.00000000000E+00 0.  1.
         23    2    1    2    0    0  0.36783352399E+02 -0.44708916786E+02  0.15544654041E+03  0.20770171309E+03  0.12499788975E+03 0.  0.
          5    1    3    3  502    0  0.18083881281E+02 -0.86976365801E+02  0.83180286381E+02  0.12179066061E+03  0.47000000000E+01 0. -1.
         -5    1    3    3    0  502  0.18699471118E+02  0.42267449015E+02  0.72266254028E+02  0.85911052476E+02  0.47000000000E+01 0. -1.
        -11    1    1    2    0    0 -0.70915583295E+01 -0.27625540931E+02  0.17240309502E+03  0.17474635299E+03  0.00000000000E+00 0. -1.
         11    1    1    2    0    0 -0.29691794070E+02  0.72334457717E+02  0.31631714882E+03  0.32583801965E+03  0.00000000000E+00 0.  1.
<mgrwt>
<rscale>  0 0.12972560E+03</rscale>
<asrwt>0</asrwt>
<pdfrwt beam="1">  1        1 0.10403483E+00 0.13775476E+03</pdfrwt>
<pdfrwt beam="2">  1       -1 0.49322545E-02 0.13775476E+03</pdfrwt>
<totfact> 0.51617579E+03</totfact>
</mgrwt>
</event>
<event>
 7    1  0.4230786E-006  0.1291350E+03  0.7546771E-02  0.1243524E+00
          2   -1    0    0  501    0  0.00000000000E+00  0.00000000000E+00  0.99396716599E+01  0.99396716599E+01  0.00000000000E+00 0. -1.
         -2   -1    0    0    0  501 -0.00000000000E+00 -0.00000000000E+00 -0.15482476054E+04  0.15482476054E+04  0.00000000000E+00 0.  1.
         23    2    1    2    0    0 -0.23448179668E+02  0.22421616249E+02 -0.11915802123E+04  0.11985571495E+04  0.12499316879E+03 0.  0.
          5    1    3    3  502    0 -0.49261842971E+02 -0.25173243645E+02 -0.28549296992E+03  0.29084144691E+03  0.47000000000E+01 0. -1.
         -5    1    3    3    0  502  0.25813663303E+02  0.47594859895E+02 -0.90608724237E+03  0.90771570257E+03  0.47000000000E+01 0. -1.
        -11    1    1    2    0    0  0.49419850493E+02 -0.39671743269E+02 -0.20789933946E+03  0.21734374660E+03  0.00000000000E+00 0. -1.
         11    1    1    2    0    0 -0.25971670825E+02  0.17250127019E+02 -0.13882838202E+03  0.14228638102E+03  0.00000000000E+00 0.  1.
<mgrwt>
<rscale>  0 0.11974153E+03</rscale>
<asrwt>0</asrwt>
<pdfrwt beam="1">  1        2 0.15291799E-02 0.12913496E+03</pdfrwt>
<pdfrwt beam="2">  1       -2 0.23819199E+00 0.12913496E+03</pdfrwt>
<totfact> 0.65291292E+02</totfact>
</mgrwt>
</event>
<event>
 7    1  0.4230786E-006  0.2089070E+03  0.7546771E-02  0.1146208E+00
          3   -1    0    0  501    0  0.00000000000E+00  0.00000000000E+00  0.12613959387E+03  0.12613959387E+03  0.00000000000E+00 0. -1.
         -3   -1    0    0    0  501 -0.00000000000E+00 -0.00000000000E+00 -0.40051542270E+03  0.40051542270E+03  0.00000000000E+00 0.  1.
         23    2    1    2    0    0 -0.13597117738E+02 -0.16682751497E+03 -0.26241634749E+03  0.33541684956E+03  0.12500328866E+03 0.  0.
          5    1    3    3  502    0 -0.95485581652E+01 -0.18169311865E+03 -0.26235936371E+03  0.31930876915E+03  0.47000000000E+01 0.  1.
         -5    1    3    3    0  502 -0.40485595733E+01  0.14865603680E+02 -0.56983780483E-01  0.16108080412E+02  0.47000000000E+01 0.  1.
        -11    1    1    2    0    0  0.29836878451E+02  0.86994606144E+02  0.33578123965E+02  0.97907054000E+02  0.00000000000E+00 0. -1.
         11    1    1    2    0    0 -0.16239760713E+02  0.79832908829E+02 -0.45537605305E+02  0.93331113017E+02  0.00000000000E+00 0.  1.
<mgrwt>
<rscale>  0 0.20424227E+03</rscale>
<asrwt>0</asrwt>
<pdfrwt beam="1">  1        3 0.19406092E-01 0.20890697E+03</pdfrwt>
<pdfrwt beam="2">  1       -3 0.61617756E-01 0.20890697E+03</pdfrwt>
<totfact> 0.15118633E+02</totfact>
</mgrwt>
</event>
<event>
 7    1  0.4230786E-006  0.1384571E+03  0.7546771E-02  0.1225989E+00
         -1   -1    0    0    0  501 -0.00000000000E+00  0.00000000000E+00  0.34861802389E+02  0.34861802389E+02  0.00000000000E+00 0.  1.
          1   -1    0    0  501    0  0.00000000000E+00 -0.00000000000E+00 -0.52007700331E+03  0.52007700331E+03  0.00000000000E+00 0. -1.
         23    2    1    2    0    0 -0.53146753984E+02  0.26871273863E+02 -0.16140540690E+03  0.21265481912E+03  0.12499489549E+03 0.  0.
          5    1    3    3  502    0 -0.17878521796E+02  0.27947898106E+02 -0.17222189320E+03  0.17545140936E+03  0.47000000000E+01 0.  1.
         -5    1    3    3    0  502 -0.35268232187E+02 -0.10766242430E+01  0.10816486301E+02  0.37203409753E+02  0.47000000000E+01 0.  1.
        -11    1    1    2    0    0  0.60737532987E+02  0.12090633482E+02 -0.25885978216E+03  0.26616464482E+03  0.00000000000E+00 0.  1.
         11    1    1    2    0    0 -0.75907790034E+01 -0.38961907346E+02 -0.64950011867E+02  0.76119341769E+02  0.00000000000E+00 0. -1.
<mgrwt>
<rscale>  0 0.13099328E+03</rscale>
<asrwt>0</asrwt>
<pdfrwt beam="2">  1        1 0.80011843E-01 0.13845709E+03</pdfrwt>
<pdfrwt beam="1">  1       -1 0.53633545E-02 0.13845709E+03</pdfrwt>
<totfact> 0.65173177E+03</totfact>
</mgrwt>
</event>
<event>
 7    1  0.4230786E-006  0.1932338E+03  0.7546771E-02  0.1160382E+00
          1   -1    0    0  501    0  0.00000000000E+00  0.00000000000E+00  0.54797539936E+03  0.54797539936E+03  0.00000000000E+00 0. -1.
         -1   -1    0    0    0  501 -0.00000000000E+00 -0.00000000000E+00 -0.13459693054E+03  0.13459693054E+03  0.00000000000E+00 0.  1.
         23    2    1    2    0    0 -0.12051018827E+03 -0.84808039936E+02 -0.40070300750E+02  0.19734470673E+03  0.12499678059E+03 0.  0.
          5    1    3    3  502    0 -0.32284572825E+02  0.18353868490E+02 -0.48492168367E+02  0.61259599444E+02  0.47000000000E+01 0. -1.
         -5    1    3    3    0  502 -0.88225615448E+02 -0.10316190843E+03  0.84218676173E+01  0.13608510729E+03  0.47000000000E+01 0. -1.
        -11    1    1    2    0    0  0.49047909881E+02  0.44771227889E+02  0.33304759684E+03  0.33960397829E+03  0.00000000000E+00 0. -1.
         11    1    1    2    0    0  0.71462278393E+02  0.40036812046E+02  0.12040117274E+03  0.14562364488E+03  0.00000000000E+00 0.  1.
<mgrwt>
<rscale>  0 0.18788586E+03</rscale>
<asrwt>0</asrwt>
<pdfrwt beam="1">  1        1 0.84303906E-01 0.19323381E+03</pdfrwt>
<pdfrwt beam="2">  1       -1 0.20707220E-01 0.19323381E+03</pdfrwt>
<totfact> 0.76288158E+02</totfact>
</mgrwt>
</event>
<event>
 7    1  0.4230786E-006  0.2373775E+03  0.7546771E-02  0.1124244E+00
          2   -1    0    0  501    0  0.00000000000E+00  0.00000000000E+00  0.17752873837E+04  0.17752873837E+04  0.00000000000E+00 0. -1.
         -2   -1    0    0    0  501 -0.00000000000E+00 -0.00000000000E+00 -0.30139175239E+02  0.30139175239E+02  0.00000000000E+00 0.  1.
         23    2    1    2    0    0  0.15681117888E+03 -0.12702860636E+03  0.79466753647E+03  0.82936394886E+03  0.12498821342E+03 0.  0.
          5    1    3    3  502    0  0.11187121101E+03 -0.12437776499E+03  0.42223467021E+03  0.45419071215E+03  0.47000000000E+01 0. -1.
         -5    1    3    3    0  502  0.44939967867E+02 -0.26508413720E+01  0.37243286626E+03  0.37517323671E+03  0.47000000000E+01 0. -1.
        -11    1    1    2    0    0 -0.46136897840E+01  0.49428983379E+02  0.26532931724E+03  0.26993361613E+03  0.00000000000E+00 0. -1.
         11    1    1    2    0    0 -0.15219748910E+03  0.77599622981E+02  0.68515135478E+03  0.70612899398E+03  0.00000000000E+00 0.  1.
<mgrwt>
<rscale>  0 0.23343644E+03</rscale>
<asrwt>0</asrwt>
<pdfrwt beam="1">  1        2 0.27312105E+00 0.23737748E+03</pdfrwt>
<pdfrwt beam="2">  1       -2 0.46367976E-02 0.23737748E+03</pdfrwt>
<totfact> 0.21445011E+03</totfact>
</mgrwt>
</event>
<event>
 7    1  0.4230786E-006  0.3206166E+03  0.7546771E-02  0.1076905E+00
         -2   -1    0    0    0  501 -0.00000000000E+00  0.00000000000E+00  0.76333936324E+02  0.76333936324E+02  0.00000000000E+00 0.  1.
          2   -1    0    0  501    0  0.00000000000E+00 -0.00000000000E+00 -0.13169273042E+04  0.13169273042E+04  0.00000000000E+00 0. -1.
         23    2    1    2    0    0  0.14436928307E+03 -0.25753907232E+03 -0.53745650136E+03  0.62582305614E+03  0.12500457226E+03 0.  0.
          5    1    3    3  502    0  0.73389276308E+02 -0.22778321861E+03 -0.44623621043E+03  0.50637933020E+03  0.47000000000E+01 0. -1.
         -5    1    3    3    0  502  0.70980006763E+02 -0.29755853711E+02 -0.91220290926E+02  0.11944372594E+03  0.47000000000E+01 0. -1.
        -11    1    1    2    0    0 -0.62806307797E+02  0.17175219303E+03 -0.34850489941E+03  0.39357224626E+03  0.00000000000E+00 0.  1.
         11    1    1    2    0    0 -0.81562975273E+02  0.85786879292E+02 -0.35463196711E+03  0.37386593813E+03  0.00000000000E+00 0. -1.
<mgrwt>
<rscale>  0 0.31728745E+03</rscale>
<asrwt>0</asrwt>
<pdfrwt beam="2">  1        2 0.20260420E+00 0.32061660E+03</pdfrwt>
<pdfrwt beam="1">  1       -2 0.11743683E-01 0.32061660E+03</pdfrwt>
<totfact> 0.87814376E+02</totfact>
</mgrwt>
</event>
<event>
 7    1  0.4230786E-006  0.1295278E+03  0.7546771E-02  0.1242086E+00
          3   -1    0    0  501    0  0.00000000000E+00  0.00000000000E+00  0.83056969307E+02  0.83056969307E+02  0.00000000000E+00 0. -1.
         -3   -1    0    0    0  501 -0.00000000000E+00 -0.00000000000E+00 -0.15588688480E+03  0.15588688480E+03  0.00000000000E+00 0.  1.
         23    2    1    2    0    0  0.24316167430E+02  0.23688658210E+02 -0.50517150775E+02  0.13903036453E+03  0.12500012485E+03 0.  0.
          5    1    3    3  502    0  0.64466617671E+02 -0.15561138541E+02 -0.49132116887E+02  0.82668910337E+02  0.47000000000E+01 0. -1.
         -5    1    3    3    0  502 -0.40150450241E+02  0.39249796751E+02 -0.13850338886E+01  0.56361454190E+02  0.47000000000E+01 0. -1.
        -11    1    1    2    0    0 -0.46756793649E+02  0.10751187662E+02 -0.32015342029E+02  0.57678140692E+02  0.00000000000E+00 0.  1.
         11    1    1    2    0    0  0.22440626219E+02 -0.34439845872E+02  0.97025773152E+01  0.42235348884E+02  0.00000000000E+00 0. -1.
<mgrwt>
<rscale>  0 0.12061494E+03</rscale>
<asrwt>0</asrwt>
<pdfrwt beam="1">  1        3 0.12777995E-01 0.12952783E+03</pdfrwt>
<pdfrwt beam="2">  1       -3 0.23982598E-01 0.12952783E+03</pdfrwt>
<totfact> 0.18010479E+03</totfact>
</mgrwt>
</event>
<event>
 6    1  0.4230786E-006  0.2420237E+03  0.7546771E-02  0.1129384E+00
         -1   -1    0    0    0  501 -0.00000000000E+00  0.00000000000E+00  0.92287391323E+02  0.92287391323E+02  0.00000000000E+00 0.  1.
          1   -1    0    0  501    0  0.00000000000E+00 -0.00000000000E+00 -0.49278599480E+03  0.49278599480E+03  0.00000000000E+00 0. -1.
          5    1    1    2  502    0  0.39077243332E+02  0.11638787035E+03 -0.14009933910E+03  0.18634130548E+03  0.47000000000E+01 0. -1.
         -5    1    1    2    0  502  0.10577166973E+03 -0.48797235041E+02 -0.86060837894E+02  0.14490470691E+03  0.47000000000E+01 0.  1.
        -11    1    1    2    0    0 -0.14486906299E+03 -0.34478134674E+02 -0.15722611773E+03  0.21655447185E+03  0.00000000000E+00 0.  1.
         11    1    1    2    0    0  0.20149931378E-01 -0.33112500633E+02 -0.17112308748E+02  0.37272901884E+02  0.00000000000E+00 0. -1.
<mgrwt>
<rscale>  0 0.22614309E+03</rscale>
<asrwt>0</asrwt>
<pdfrwt beam="2">  1        1 0.75813229E-01 0.24202375E+03</pdfrwt>
<pdfrwt beam="1">  1       -1 0.14198060E-01 0.24202375E+03</pdfrwt>
<totfact> 0.16118588E+03</totfact>
</mgrwt>
</event>
<event>
 7    1  0.4230786E-006  0.1659875E+03  0.7546771E-02  0.1188600E+00
         -2   -1    0    0    0  501 -0.00000000000E+00  0.00000000000E+00  0.70642124886E+02  0.70642124886E+02  0.00000000000E+00 0.  1.
          2   -1    0    0  501    0  0.00000000000E+00 -0.00000000000E+00 -0.34573276748E+03  0.34573276748E+03  0.00000000000E+00 0. -1.
         23    2    1    2    0    0  0.10891221163E+03  0.81116257001E+01 -0.11878678655E+03  0.20411307366E+03  0.12499671143E+03 0.  0.
          5    1    3    3  502    0 -0.14507217340E+02 -0.32510475217E+02 -0.23463105171E+02  0.42895193881E+02  0.47000000000E+01 0.  1.
         -5    1    3    3    0  502  0.12341942897E+03  0.40622100918E+02 -0.95323681375E+02  0.16121787978E+03  0.47000000000E+01 0.  1.
        -11    1    1    2    0    0 -0.39536967400E+02  0.29844062704E+02 -0.17546249581E+02  0.52551981354E+02  0.00000000000E+00 0.  1.
         11    1    1    2    0    0 -0.69375244229E+02 -0.37955688404E+02 -0.13875760647E+03  0.15970983735E+03  0.00000000000E+00 0. -1.
<mgrwt>
<rscale>  0 0.16008610E+03</rscale>
<asrwt>0</asrwt>
<pdfrwt beam="2">  1        2 0.53189657E-01 0.16598749E+03</pdfrwt>
<pdfrwt beam="1">  1       -2 0.10868019E-01 0.16598749E+03</pdfrwt>
<totfact> 0.52741459E+03</totfact>
</mgrwt>
</event>
<event>
 7    1  0.4230786E-006  0.1359964E+03  0.7546771E-02  0.1231557E+00
          1   -1    0    0  501    0  0.00000000000E+00  0.00000000000E+00  0.27291468983E+03  0.27291468983E+03  0.00000000000E+00 0. -1.
         -1   -1    0    0    0  501 -0.00000000000E+00 -0.00000000000E+00 -0.52975342574E+02  0.52975342574E+02  0.00000000000E+00 0.  1.
         23    2    1    2    0    0  0.52897697853E+02 -0.83888068065E+01  0.11855380985E+03  0.18041628976E+03  0.12500597290E+03 0.  0.
          5    1    3    3  502    0 -0.19440933433E+02 -0.48275659720E+02  0.56735874659E+02  0.77133252800E+02  0.47000000000E+01 0.  1.
         -5    1    3    3    0  502  0.72338631286E+02  0.39886852913E+02  0.61817935192E+02  0.10328303696E+03  0.47000000000E+01 0.  1.
        -11    1    1    2    0    0 -0.53349935329E+02  0.25407555982E+02  0.20087249504E+02  0.62411994787E+02  0.00000000000E+00 0.  1.
         11    1    1    2    0    0  0.45223747680E+00 -0.17018749176E+02  0.81298287900E+02  0.83061747861E+02  0.00000000000E+00 0. -1.
<mgrwt>
<rscale>  0 0.12727472E+03</rscale>
<asrwt>0</asrwt>
<pdfrwt beam="1">  1        1 0.41986875E-01 0.13599644E+03</pdfrwt>
<pdfrwt beam="2">  1       -1 0.81500528E-02 0.13599644E+03</pdfrwt>
<totfact> 0.78504631E+03</totfact>
</mgrwt>
</event>
<event>
 7    1  0.4230786E-006  0.1385329E+03  0.7546771E-02  0.1227073E+00
         -2   -1    0    0    0  501 -0.00000000000E+00  0.00000000000E+00  0.86844426359E+02  0.86844426359E+02  0.00000000000E+00 0.  1.
          2   -1    0    0  501    0  0.00000000000E+00 -0.00000000000E+00 -0.18055260535E+03  0.18055260535E+03  0.00000000000E+00 0. -1.
         23    2    1    2    0    0  0.53838245249E+02  0.25877331711E+02 -0.29936541830E+02  0.14173059273E+03  0.12499268551E+03 0.  0.
          5    1    3    3  502    0 -0.27223448610E-01 -0.45896913593E+02  0.24728482211E+01  0.46203164359E+02  0.47000000000E+01 0. -1.
         -5    1    3    3    0  502  0.53865468698E+02  0.71774245304E+02 -0.32409390051E+02  0.95527428367E+02  0.47000000000E+01 0. -1.
        -11    1    1    2    0    0 -0.25367995701E+02 -0.44966035808E+02 -0.73696306346E+02  0.89981248887E+02  0.00000000000E+00 0. -1.
         11    1    1    2    0    0 -0.28470249548E+02  0.19088704097E+02  0.99246691887E+01  0.35685190093E+02  0.00000000000E+00 0.  1.
<mgrwt>
<rscale>  0 0.13025814E+03</rscale>
<asrwt>0</asrwt>
<pdfrwt beam="2">  1        2 0.27777324E-01 0.13853290E+03</pdfrwt>
<pdfrwt beam="1">  1       -2 0.13360681E-01 0.13853290E+03</pdfrwt>
<totfact> 0.75201517E+03</totfact>
</mgrwt>
</event>
<event>
 7    1  0.4230786E-006  0.1419306E+03  0.7546771E-02  0.1217409E+00
          2   -1    0    0  501    0  0.00000000000E+00  0.00000000000E+00  0.36822708809E+03  0.36822708809E+03  0.00000000000E+00 0. -1.
         -2   -1    0    0    0  501 -0.00000000000E+00 -0.00000000000E+00 -0.48136439807E+02  0.48136439807E+02  0.00000000000E+00 0.  1.
         23    2    1    2    0    0 -0.54076272082E+02  0.39942124426E+02  0.15244224224E+03  0.20828567351E+03  0.12499867226E+03 0.  0.
          5    1    3    3  502    0 -0.19169351900E+02 -0.44654952429E+02  0.67728858588E+02  0.83491419405E+02  0.47000000000E+01 0. -1.
         -5    1    3    3    0  502 -0.34906920182E+02  0.84597076855E+02  0.84713383651E+02  0.12479425411E+03  0.47000000000E+01 0. -1.
        -11    1    1    2    0    0 -0.31028727232E+02 -0.13257236872E+02  0.52865983219E+02  0.62716412723E+02  0.00000000000E+00 0.  1.
         11    1    1    2    0    0  0.85104999314E+02 -0.26684887555E+02  0.11478242283E+03  0.14536144166E+03  0.00000000000E+00 0. -1.
<mgrwt>
<rscale>  0 0.13701027E+03</rscale>
<asrwt>0</asrwt>
<pdfrwt beam="1">  1        2 0.56650319E-01 0.14193056E+03</pdfrwt>
<pdfrwt beam="2">  1       -2 0.74056064E-02 0.14193056E+03</pdfrwt>
<totfact> 0.88945845E+03</totfact>
</mgrwt>
</event>
<event>
 7    1  0.4230786E-006  0.1484941E+03  0.7546771E-02  0.1211799E+00
          1   -1    0    0  501    0  0.00000000000E+00  0.00000000000E+00  0.52160852189E+03  0.52160852189E+03  0.00000000000E+00 0. -1.
         -1   -1    0    0    0  501 -0.00000000000E+00 -0.00000000000E+00 -0.34861443828E+02  0.34861443828E+02  0.00000000000E+00 0.  1.
         23    2    1    2    0    0  0.58477725142E+02  0.54782162500E+02  0.26814074533E+03  0.30651255798E+03  0.12501903545E+03 0.  0.
          5    1    3    3  502    0 -0.22040424687E+02  0.60355407146E+02  0.15111776473E+03  0.16427788746E+03  0.47000000000E+01 0.  1.
         -5    1    3    3    0  502  0.80518149830E+02 -0.55732446458E+01  0.11702298060E+03  0.14223467051E+03  0.47000000000E+01 0.  1.
        -11    1    1    2    0    0 -0.40818822116E+01 -0.62012366261E+02  0.83149351791E+02  0.10380756251E+03  0.00000000000E+00 0.  1.
         11    1    1    2    0    0 -0.54395842931E+02  0.72302037606E+01  0.13545698094E+03  0.14614984522E+03  0.00000000000E+00 0. -1.
<mgrwt>
<rscale>  0 0.14114304E+03</rscale>
<asrwt>0</asrwt>
<pdfrwt beam="1">  1        1 0.80247459E-01 0.14849407E+03</pdfrwt>
<pdfrwt beam="2">  1       -1 0.53632995E-02 0.14849407E+03</pdfrwt>
<totfact> 0.65180905E+03</totfact>
</mgrwt>
</event>
<event>
 7    1  0.4230786E-006  0.1806860E+03  0.7546771E-02  0.1171887E+00
         -1   -1    0    0    0  501 -0.00000000000E+00  0.00000000000E+00  0.13346588629E+04  0.13346588629E+04  0.00000000000E+00 0. -1.
          1   -1    0    0  501    0  0.00000000000E+00 -0.00000000000E+00 -0.63755386357E+02  0.63755386357E+02  0.00000000000E+00 0.  1.
         23    2    1    2    0    0 -0.97281690797E+02  0.86938512953E+02  0.12128707785E+04  0.12262556635E+04  0.12500157815E+03 0.  0.
          5    1    3    3  502    0 -0.67621197335E+02 -0.19136262572E+02  0.46704235475E+03  0.47232348450E+03  0.47000000000E+01 0.  1.
         -5    1    3    3    0  502 -0.29660493462E+02  0.10607477553E+03  0.74582842373E+03  0.75393217899E+03  0.47000000000E+01 0.  1.
        -11    1    1    2    0    0  0.11428970107E+02 -0.73625616926E+02  0.18863098365E+02  0.76858111514E+02  0.00000000000E+00 0.  1.
         11    1    1    2    0    0  0.85852720689E+02 -0.13312896027E+02  0.39169599673E+02  0.95300474232E+02  0.00000000000E+00 0. -1.
<mgrwt>
<rscale>  0 0.17584397E+03</rscale>
<asrwt>0</asrwt>
<pdfrwt beam="2">  1        1 0.98085220E-02 0.18068599E+03</pdfrwt>
<pdfrwt beam="1">  1       -1 0.20533211E+00 0.18068599E+03</pdfrwt>
<totfact> 0.10292065E+02</totfact>
</mgrwt>
</event>
<event>
 7    1  0.4230786E-006  0.1384058E+03  0.7546771E-02  0.1227331E+00
         -2   -1    0    0    0  501 -0.00000000000E+00  0.00000000000E+00  0.31631033422E+02  0.31631033422E+02  0.00000000000E+00 0.  1.
          2   -1    0    0  501    0  0.00000000000E+00 -0.00000000000E+00 -0.52330330862E+03  0.52330330862E+03  0.00000000000E+00 0. -1.
         23    2    1    2    0    0 -0.14334037221E+02 -0.57666723894E+02 -0.19428684663E+03  0.23854466573E+03  0.12500105241E+03 0.  0.
          5    1    3    3  502    0 -0.40129107727E+02 -0.82343566602E+02 -0.91179499756E+02  0.12933135514E+03  0.47000000000E+01 0.  1.
         -5    1    3    3    0  502  0.25795070506E+02  0.24676842708E+02 -0.10310734688E+03  0.10921331058E+03  0.47000000000E+01 0.  1.
        -11    1    1    2    0    0  0.47542422466E+02  0.37042156197E+02 -0.11472023656E+03  0.12958833260E+03  0.00000000000E+00 0.  1.
         11    1    1    2    0    0 -0.33208385244E+02  0.20624567697E+02 -0.18266519200E+03  0.18680134371E+03  0.00000000000E+00 0. -1.
<mgrwt>
<rscale>  0 0.13008383E+03</rscale>
<asrwt>0</asrwt>
<pdfrwt beam="2">  1        2 0.80508200E-01 0.13840585E+03</pdfrwt>
<pdfrwt beam="1">  1       -2 0.48663129E-02 0.13840585E+03</pdfrwt>
<totfact> 0.11482881E+04</totfact>
</mgrwt>
</event>
<event>
 7    1  0.4230786E-006  0.1376226E+03  0.7546771E-02  0.1228370E+00
         -1   -1    0    0    0  501 -0.00000000000E+00  0.00000000000E+00  0.60877087649E+03  0.60877087649E+03  0.00000000000E+00 0.  1.
          1   -1    0    0  501    0  0.00000000000E+00 -0.00000000000E+00 -0.24691969803E+02  0.24691969803E+02  0.00000000000E+00 0. -1.
         23    2    1    2    0    0 -0.51260260625E+02 -0.26206571358E+02  0.32050777342E+03  0.34880539407E+03  0.12500228563E+03 0.  0.
          5    1    3    3  502    0 -0.70957743282E+02 -0.63100768102E+02  0.23494603025E+03  0.25345302405E+03  0.47000000000E+01 0.  1.
         -5    1    3    3    0  502  0.19697482657E+02  0.36894196744E+02  0.85561743166E+02  0.95352370028E+02  0.47000000000E+01 0.  1.
        -11    1    1    2    0    0  0.74180441266E+02  0.32761877052E+02  0.22653621860E+03  0.24061325149E+03  0.00000000000E+00 0.  1.
         11    1    1    2    0    0 -0.22920180641E+02 -0.65553056937E+01  0.37034914662E+02  0.44044200724E+02  0.00000000000E+00 0. -1.
<mgrwt>
<rscale>  0 0.12938608E+03</rscale>
<asrwt>0</asrwt>
<pdfrwt beam="2">  1        1 0.37987651E-02 0.13762256E+03</pdfrwt>
<pdfrwt beam="1">  1       -1 0.93657046E-01 0.13762256E+03</pdfrwt>
<totfact> 0.27513124E+03</totfact>
</mgrwt>
</event>
<event>
 7    1  0.4230786E-006  0.1286235E+03  0.7546771E-02  0.1243490E+00
         -1   -1    0    0    0  501 -0.00000000000E+00  0.00000000000E+00  0.73694158893E+02  0.73694158893E+02  0.00000000000E+00 0.  1.
          1   -1    0    0  501    0  0.00000000000E+00 -0.00000000000E+00 -0.18641057907E+03  0.18641057907E+03  0.00000000000E+00 0. -1.
         23    2    1    2    0    0 -0.27317484966E+02  0.13165700384E+02 -0.28164359801E+02  0.13167092753E+03  0.12499768535E+03 0.  0.
          5    1    3    3  502    0  0.24622721084E+02 -0.91487413799E+01 -0.60679026427E+02  0.66287345025E+02  0.47000000000E+01 0. -1.
         -5    1    3    3    0  502 -0.51940206050E+02  0.22314441764E+02  0.32514666625E+02  0.65383582507E+02  0.47000000000E+01 0. -1.
        -11    1    1    2    0    0  0.54941054582E+02  0.37892771831E+01 -0.77811472096E+02  0.95328397081E+02  0.00000000000E+00 0. -1.
         11    1    1    2    0    0 -0.27623569616E+02 -0.16954977567E+02 -0.67405882765E+01  0.33105413348E+02  0.00000000000E+00 0.  1.
<mgrwt>
<rscale>  0 0.11976214E+03</rscale>
<asrwt>0</asrwt>
<pdfrwt beam="2">  1        1 0.28678550E-01 0.12862349E+03</pdfrwt>
<pdfrwt beam="1">  1       -1 0.11337563E-01 0.12862349E+03</pdfrwt>
<totfact> 0.75851441E+03</totfact>
</mgrwt>
</event>
<event>
 7    1  0.4230786E-006  0.1323177E+03  0.7546771E-02  0.1236996E+00
          2   -1    0    0  501    0  0.00000000000E+00  0.00000000000E+00  0.69141510302E+03  0.69141510302E+03  0.00000000000E+00 0.  1.
         -2   -1    0    0    0  501 -0.00000000000E+00 -0.00000000000E+00 -0.19882580560E+02  0.19882580560E+02  0.00000000000E+00 0. -1.
         23    2    1    2    0    0  0.38446026178E+02  0.20156655127E+02  0.34978228328E+03  0.37397276442E+03  0.12499438051E+03 0.  0.
          5    1    3    3  502    0  0.20657354968E+02  0.49663547828E+02  0.54738362059E+02  0.76886751641E+02  0.47000000000E+01 0. -1.
         -5    1    3    3    0  502  0.17788671210E+02 -0.29506892700E+02  0.29504392122E+03  0.29708601278E+03  0.47000000000E+01 0. -1.
        -11    1    1    2    0    0 -0.51572571732E+02 -0.47475888958E+02  0.20275715949E+03  0.21453241226E+03  0.00000000000E+00 0.  1.
         11    1    1    2    0    0  0.13126545554E+02  0.27319233831E+02  0.11899307969E+03  0.12279250690E+03  0.00000000000E+00 0. -1.
<mgrwt>
<rscale>  0 0.12377496E+03</rscale>
<asrwt>0</asrwt>
<pdfrwt beam="1">  1        2 0.10637154E+00 0.13231773E+03</pdfrwt>
<pdfrwt beam="2">  1       -2 0.30588591E-02 0.13231773E+03</pdfrwt>
<totfact> 0.16592371E+04</totfact>
</mgrwt>
</event>
<event>
 7    1  0.4230786E-006  0.1742352E+03  0.7546771E-02  0.1180421E+00
          1   -1    0    0  501    0  0.00000000000E+00  0.00000000000E+00  0.38980510649E+02  0.38980510649E+02  0.00000000000E+00 0. -1.
         -1   -1    0    0    0  501 -0.00000000000E+00 -0.00000000000E+00 -0.91321622005E+03  0.91321622005E+03  0.00000000000E+00 0.  1.
         23    2    1    2    0    0  0.97206397696E+02  0.72694971132E+02 -0.70722312530E+03  0.72836972828E+03  0.12499707812E+03 0.  0.
          5    1    3    3  502    0  0.68566469951E+02  0.42761883052E+02 -0.15763854082E+03  0.17720592257E+03  0.47000000000E+01 0. -1.
         -5    1    3    3    0  502  0.28639927745E+02  0.29933088080E+02 -0.54958458448E+03  0.55116380571E+03  0.47000000000E+01 0. -1.
        -11    1    1    2    0    0 -0.87556784825E+02 -0.44971539428E+02 -0.16771274353E+03  0.19446386366E+03  0.00000000000E+00 0.  1.
         11    1    1    2    0    0 -0.96496128710E+01 -0.27723431703E+02  0.70015943667E+00  0.29363138749E+02  0.00000000000E+00 0. -1.
<mgrwt>
<rscale>  0 0.16755566E+03</rscale>
<asrwt>0</asrwt>
<pdfrwt beam="1">  1        1 0.59970016E-02 0.17423522E+03</pdfrwt>
<pdfrwt beam="2">  1       -1 0.14049480E+00 0.17423522E+03</pdfrwt>
<totfact> 0.57710930E+02</totfact>
</mgrwt>
</event>
<event>
 7    1  0.4230786E-006  0.1329379E+03  0.7546771E-02  0.1237464E+00
         -4   -1    0    0    0  501 -0.00000000000E+00  0.00000000000E+00  0.15553542094E+03  0.15553542094E+03  0.00000000000E+00 0.  1.
          4   -1    0    0  501    0  0.00000000000E+00 -0.00000000000E+00 -0.89984226050E+02  0.89984226050E+02  0.00000000000E+00 0. -1.
         23    2    1    2    0    0  0.41966503138E+02 -0.17034728356E+02  0.61515296394E+02  0.14648080055E+03  0.12498449458E+03 0.  0.
          5    1    3    3  502    0  0.21360433199E+02 -0.58645348948E+02  0.75204971440E+02  0.97843869451E+02  0.47000000000E+01 0. -1.
         -5    1    3    3    0  502  0.20606069938E+02  0.41610620592E+02 -0.13689675046E+02  0.48636931104E+02  0.47000000000E+01 0. -1.
        -11    1    1    2    0    0  0.79596643639E+01  0.42129643258E+02  0.48989918047E+01  0.43153947891E+02  0.00000000000E+00 0.  1.
         11    1    1    2    0    0 -0.49926167501E+02 -0.25094914902E+02 -0.86309330832E+00  0.55884898545E+02  0.00000000000E+00 0. -1.
<mgrwt>
<rscale>  0 0.12348035E+03</rscale>
<asrwt>0</asrwt>
<pdfrwt beam="2">  1        4 0.13843727E-01 0.13293793E+03</pdfrwt>
<pdfrwt beam="1">  1       -4 0.23928526E-01 0.13293793E+03</pdfrwt>
<totfact> 0.11573675E+03</totfact>
</mgrwt>
</event>
<event>
 7    1  0.4230786E-006  0.1414706E+03  0.7546771E-02  0.1222211E+00
          4   -1    0    0  501    0  0.00000000000E+00  0.00000000000E+00  0.44072043994E+02  0.44072043994E+02  0.00000000000E+00 0. -1.
         -4   -1    0    0    0  501 -0.00000000000E+00 -0.00000000000E+00 -0.40137623610E+03  0.40137623610E+03  0.00000000000E+00 0.  1.
         23    2    1    2    0    0 -0.49959860975E+02 -0.43515518210E+02 -0.26301129717E+03  0.29864505879E+03  0.12499736265E+03 0.  0.
          5    1    3    3  502    0  0.95955438605E+01  0.59811669235E+01  0.93775942945E+01  0.15423297134E+02  0.47000000000E+01 0.  1.
         -5    1    3    3    0  502 -0.59555404835E+02 -0.49496685134E+02 -0.27238889146E+03  0.28322176166E+03  0.47000000000E+01 0.  1.
        -11    1    1    2    0    0  0.76196967492E+02  0.32939006173E+02 -0.60423391159E+02  0.10267396058E+03  0.00000000000E+00 0. -1.
         11    1    1    2    0    0 -0.26237106517E+02  0.10576512038E+02 -0.33869503774E+02  0.44129260714E+02  0.00000000000E+00 0.  1.
<mgrwt>
<rscale>  0 0.13359924E+03</rscale>
<asrwt>0</asrwt>
<pdfrwt beam="1">  1        4 0.67803146E-02 0.14147059E+03</pdfrwt>
<pdfrwt beam="2">  1       -4 0.61750189E-01 0.14147059E+03</pdfrwt>
<totfact> 0.60612874E+02</totfact>
</mgrwt>
</event>
<event>
 7    1  0.4230786E-006  0.1605969E+03  0.7546771E-02  0.1195853E+00
         -2   -1    0    0    0  501 -0.00000000000E+00  0.00000000000E+00  0.66782519614E+02  0.66782519614E+02  0.00000000000E+00 0.  1.
          2   -1    0    0  501    0  0.00000000000E+00 -0.00000000000E+00 -0.33730594829E+03  0.33730594829E+03  0.00000000000E+00 0. -1.
         23    2    1    2    0    0  0.18750902695E+02  0.99067574810E+02 -0.11216919370E+03  0.19589103439E+03  0.12500155443E+03 0.  0.
          5    1    3    3  502    0 -0.12307217443E+02 -0.45681851005E+01 -0.82414932641E+02  0.83586165354E+02  0.47000000000E+01 0. -1.
         -5    1    3    3    0  502  0.31058120138E+02  0.10363575991E+03 -0.29754261057E+02  0.11230486904E+03  0.47000000000E+01 0. -1.
        -11    1    1    2    0    0  0.33688710575E+02 -0.23780545340E+02 -0.32791202588E+02  0.52684974367E+02  0.00000000000E+00 0.  1.
         11    1    1    2    0    0 -0.52439613270E+02 -0.75287029470E+02 -0.12556303239E+03  0.15551245915E+03  0.00000000000E+00 0. -1.
<mgrwt>
<rscale>  0 0.15382274E+03</rscale>
<asrwt>0</asrwt>
<pdfrwt beam="2">  1        2 0.51893223E-01 0.16059692E+03</pdfrwt>
<pdfrwt beam="1">  1       -2 0.10274234E-01 0.16059692E+03</pdfrwt>
<totfact> 0.59090854E+03</totfact>
</mgrwt>
</event>
<event>
 7    1  0.4230786E-006  0.1360331E+03  0.7546771E-02  0.1230389E+00
          1   -1    0    0  501    0  0.00000000000E+00  0.00000000000E+00  0.12399036850E+03  0.12399036850E+03  0.00000000000E+00 0. -1.
         -1   -1    0    0    0  501 -0.00000000000E+00 -0.00000000000E+00 -0.12303836744E+03  0.12303836744E+03  0.00000000000E+00 0.  1.
         23    2    1    2    0    0 -0.52006327073E+02  0.13276061696E+02 -0.22028303568E+02  0.13780514164E+03  0.12499639609E+03 0.  0.
          5    1    3    3  502    0  0.15708013455E+02  0.34834831474E+02 -0.48413452078E+02  0.61855957778E+02  0.47000000000E+01 0. -1.
         -5    1    3    3    0  502 -0.67714340529E+02 -0.21558769778E+02  0.26385148510E+02  0.75949183863E+02  0.47000000000E+01 0. -1.
        -11    1    1    2    0    0  0.34951483552E+02 -0.22620313689E+02 -0.30961406485E+02  0.51883460615E+02  0.00000000000E+00 0.  1.
         11    1    1    2    0    0  0.17054843521E+02  0.93442519930E+01  0.53941711117E+02  0.57340133686E+02  0.00000000000E+00 0. -1.
<mgrwt>
<rscale>  0 0.12804266E+03</rscale>
<asrwt>0</asrwt>
<pdfrwt beam="1">  1        1 0.19075441E-01 0.13603312E+03</pdfrwt>
<pdfrwt beam="2">  1       -1 0.18928980E-01 0.13603312E+03</pdfrwt>
<totfact> 0.57066198E+03</totfact>
</mgrwt>
</event>
<event>
 7    1  0.4230786E-006  0.1283588E+03  0.7546771E-02  0.1244182E+00
          2   -1    0    0  501    0  0.00000000000E+00  0.00000000000E+00  0.87827723357E+02  0.87827723357E+02  0.00000000000E+00 0. -1.
         -2   -1    0    0    0  501 -0.00000000000E+00 -0.00000000000E+00 -0.22149012354E+03  0.22149012354E+03  0.00000000000E+00 0.  1.
         23    2    1    2    0    0  0.24686094857E+02  0.15532057586E+02 -0.16441172888E+03  0.20858379638E+03  0.12500134171E+03 0.  0.
          5    1    3    3  502    0  0.19252387324E+02 -0.10015272747E+01  0.17090573785E+02  0.26188455221E+02  0.47000000000E+01 0. -1.
         -5    1    3    3    0  502  0.54337075323E+01  0.16533584861E+02 -0.18150230266E+03  0.18239534116E+03  0.47000000000E+01 0. -1.
        -11    1    1    2    0    0 -0.10188327247E+02 -0.67171394327E+01 -0.32780054067E+02  0.34977906154E+02  0.00000000000E+00 0.  1.
         11    1    1    2    0    0 -0.14497767610E+02 -0.88149181532E+01  0.63529382759E+02  0.65756144363E+02  0.00000000000E+00 0. -1.
<mgrwt>
<rscale>  0 0.11934480E+03</rscale>
<asrwt>0</asrwt>
<pdfrwt beam="1">  1        2 0.13511958E-01 0.12835881E+03</pdfrwt>
<pdfrwt beam="2">  1       -2 0.34075403E-01 0.12835881E+03</pdfrwt>
<totfact> 0.34128977E+03</totfact>
</mgrwt>
</event>
<event>
 7    1  0.4230786E-006  0.1393050E+03  0.7546771E-02  0.1225712E+00
          2   -1    0    0  501    0  0.00000000000E+00  0.00000000000E+00  0.43920981696E+03  0.43920981696E+03  0.00000000000E+00 0. -1.
         -2   -1    0    0    0  501 -0.00000000000E+00 -0.00000000000E+00 -0.35336446839E+02  0.35336446839E+02  0.00000000000E+00 0.  1.
         23    2    1    2    0    0  0.60983971259E+02 -0.78259963322E+01  0.23773722985E+03  0.27554467636E+03  0.12500234895E+03 0.  0.
          5    1    3    3  502    0  0.11087648238E+02  0.46600160899E+02  0.16467126394E+03  0.17156114393E+03  0.47000000000E+01 0.  1.
         -5    1    3    3    0  502  0.49896323021E+02 -0.54426157231E+02  0.73065965912E+02  0.10398353243E+03  0.47000000000E+01 0.  1.
        -11    1    1    2    0    0 -0.19223964655E+02 -0.26696198830E+02  0.12945790763E+03  0.13357244363E+03  0.00000000000E+00 0.  1.
         11    1    1    2    0    0 -0.41760006604E+02  0.34522195162E+02  0.36678232644E+02  0.65429143814E+02  0.00000000000E+00 0. -1.
<mgrwt>
<rscale>  0 0.13118208E+03</rscale>
<asrwt>0</asrwt>
<pdfrwt beam="1">  1        2 0.67570737E-01 0.13930498E+03</pdfrwt>
<pdfrwt beam="2">  1       -2 0.54363768E-02 0.13930498E+03</pdfrwt>
<totfact> 0.11775755E+04</totfact>
</mgrwt>
</event>
<event>
 7    1  0.4230786E-006  0.1488735E+03  0.7546771E-02  0.1211479E+00
          3   -1    0    0  501    0  0.00000000000E+00  0.00000000000E+00  0.11563892332E+03  0.11563892332E+03  0.00000000000E+00 0. -1.
         -3   -1    0    0    0  501 -0.00000000000E+00 -0.00000000000E+00 -0.15760950401E+03  0.15760950401E+03  0.00000000000E+00 0.  1.
         23    2    1    2    0    0  0.76936383667E+02  0.24836792158E+02 -0.25201909942E+02  0.15099156502E+03  0.12500897194E+03 0.  0.
          5    1    3    3  502    0  0.87746988327E+01 -0.46601007005E+02  0.42638792128E+01  0.47842657320E+02  0.47000000000E+01 0. -1.
         -5    1    3    3    0  502  0.68161684834E+02  0.71437799162E+02 -0.29465789154E+02  0.10314890770E+03  0.47000000000E+01 0. -1.
        -11    1    1    2    0    0 -0.66959829948E+01 -0.46706467286E+02 -0.11102989088E+02  0.48472741219E+02  0.00000000000E+00 0.  1.
         11    1    1    2    0    0 -0.70240400672E+02  0.21869675129E+02 -0.56656816685E+01  0.73784121094E+02  0.00000000000E+00 0. -1.
<mgrwt>
<rscale>  0 0.14138402E+03</rscale>
<asrwt>0</asrwt>
<pdfrwt beam="1">  1        3 0.17790604E-01 0.14887349E+03</pdfrwt>
<pdfrwt beam="2">  1       -3 0.24247616E-01 0.14887349E+03</pdfrwt>
<totfact> 0.10248458E+03</totfact>
</mgrwt>
</event>
<event>
 7    1  0.4230786E-006  0.1888701E+03  0.7546771E-02  0.1164780E+00
         -2   -1    0    0    0  501 -0.00000000000E+00  0.00000000000E+00  0.64453533618E+02  0.64453533618E+02  0.00000000000E+00 0.  1.
          2   -1    0    0  501    0  0.00000000000E+00 -0.00000000000E+00 -0.50550164532E+03  0.50550164532E+03  0.00000000000E+00 0. -1.
         23    2    1    2    0    0 -0.12814678114E+03  0.60219996332E+02 -0.18604990505E+03  0.26511600195E+03  0.12499552730E+03 0.  0.
          5    1    3    3  502    0 -0.11388068740E+03  0.59576396910E+02 -0.20433768247E+03  0.24144178699E+03  0.47000000000E+01 0.  1.
         -5    1    3    3    0  502 -0.14266093741E+02  0.64359942159E+00  0.18287777415E+02  0.23674214953E+02  0.47000000000E+01 0.  1.
        -11    1    1    2    0    0  0.10882694150E+03 -0.79502887457E+02 -0.23534663706E+03  0.27120481538E+03  0.00000000000E+00 0. -1.
         11    1    1    2    0    0  0.19319839632E+02  0.19282891125E+02 -0.19651569586E+02  0.33634361608E+02  0.00000000000E+00 0.  1.
<mgrwt>
<rscale>  0 0.18315911E+03</rscale>
<asrwt>0</asrwt>
<pdfrwt beam="2">  1        2 0.77769484E-01 0.18887013E+03</pdfrwt>
<pdfrwt beam="1">  1       -2 0.99159282E-02 0.18887013E+03</pdfrwt>
<totfact> 0.40622362E+03</totfact>
</mgrwt>
</event>
<event>
 7    1  0.4230786E-006  0.1529894E+03  0.7546771E-02  0.1205685E+00
         -2   -1    0    0    0  501 -0.00000000000E+00  0.00000000000E+00  0.23998943415E+02  0.23998943415E+02  0.00000000000E+00 0.  1.
          2   -1    0    0  501    0  0.00000000000E+00 -0.00000000000E+00 -0.82154690810E+03  0.82154690810E+03  0.00000000000E+00 0. -1.
         23    2    1    2    0    0 -0.47580773421E+02  0.74279709167E+02 -0.39273848412E+03  0.42148461565E+03  0.12499743648E+03 0.  0.
          5    1    3    3  502    0 -0.66107430016E+02  0.65302206017E+02 -0.38908409578E+03  0.40005386387E+03  0.47000000000E+01 0.  1.
         -5    1    3    3    0  502  0.18526656596E+02  0.89775031501E+01 -0.36543883425E+01  0.21430751774E+02  0.47000000000E+01 0.  1.
        -11    1    1    2    0    0  0.30695264332E+02  0.96176510631E+01 -0.53043769961E+02  0.62034990095E+02  0.00000000000E+00 0.  1.
         11    1    1    2    0    0  0.16885509088E+02 -0.83897360230E+02 -0.35176571060E+03  0.36202624577E+03  0.00000000000E+00 0. -1.
<mgrwt>
<rscale>  0 0.14583632E+03</rscale>
<asrwt>0</asrwt>
<pdfrwt beam="2">  1        2 0.12639181E+00 0.15298943E+03</pdfrwt>
<pdfrwt beam="1">  1       -2 0.36921458E-02 0.15298943E+03</pdfrwt>
<totfact> 0.10280502E+04</totfact>
</mgrwt>
</event>
<event>
 7    1  0.4230786E-006  0.1969744E+03  0.7546771E-02  0.1156940E+00
         -2   -1    0    0    0  501 -0.00000000000E+00  0.00000000000E+00  0.22625557557E+04  0.22625557557E+04  0.00000000000E+00 0.  1.
          2   -1    0    0  501    0  0.00000000000E+00 -0.00000000000E+00 -0.16490934949E+02  0.16490934949E+02  0.00000000000E+00 0. -1.
         23    2    1    2    0    0  0.15074541798E+03 -0.21213272003E+02  0.14689038484E+04  0.14820517699E+04  0.12499899527E+03 0.  0.
          5    1    3    3  502    0 -0.15321096734E+02 -0.24857652131E+02  0.28776238884E+03  0.28927827659E+03  0.47000000000E+01 0. -1.
         -5    1    3    3    0  502  0.16606651472E+03  0.36443801277E+01  0.11811414596E+04  0.11927734933E+04  0.47000000000E+01 0. -1.
        -11    1    1    2    0    0 -0.31333821433E+02 -0.24140029492E+02  0.93806784836E+02  0.10180502085E+03  0.00000000000E+00 0. -1.
         11    1    1    2    0    0 -0.11941159655E+03  0.45353301495E+02  0.68335418753E+03  0.69518989993E+03  0.00000000000E+00 0.  1.
<mgrwt>
<rscale>  0 0.19169665E+03</rscale>
<asrwt>0</asrwt>
<pdfrwt beam="2">  1        2 0.25370687E-02 0.19697445E+03</pdfrwt>
<pdfrwt beam="1">  1       -2 0.34808525E+00 0.19697445E+03</pdfrwt>
<totfact> 0.75345593E+01</totfact>
</mgrwt>
</event>
<event>
 7    1  0.4230786E-006  0.1415818E+03  0.7546771E-02  0.1221963E+00
         -2   -1    0    0    0  501 -0.00000000000E+00  0.00000000000E+00  0.50100161641E+03  0.50100161641E+03  0.00000000000E+00 0.  1.
          2   -1    0    0  501    0  0.00000000000E+00 -0.00000000000E+00 -0.42509898008E+02  0.42509898008E+02  0.00000000000E+00 0. -1.
         23    2    1    2    0    0 -0.36780891716E+02  0.55382846276E+02  0.38146441519E+03  0.40689128150E+03  0.12500128498E+03 0.  0.
          5    1    3    3  502    0  0.43660311187E+02  0.28460032576E+02  0.99712732080E+02  0.11260956960E+03  0.47000000000E+01 0. -1.
         -5    1    3    3    0  502 -0.80441202903E+02  0.26922813700E+02  0.28175168311E+03  0.29428171190E+03  0.47000000000E+01 0. -1.
        -11    1    1    2    0    0 -0.15663576984E+01  0.21003769053E+02 -0.72471545377E+00  0.21074558201E+02  0.00000000000E+00 0. -1.
         11    1    1    2    0    0  0.38347249414E+02 -0.76386615329E+02  0.77752018662E+02  0.11554567471E+03  0.00000000000E+00 0.  1.
<mgrwt>
<rscale>  0 0.13377262E+03</rscale>
<asrwt>0</asrwt>
<pdfrwt beam="2">  1        2 0.65399847E-02 0.14158183E+03</pdfrwt>
<pdfrwt beam="1">  1       -2 0.77077168E-01 0.14158183E+03</pdfrwt>
<totfact> 0.16519348E+03</totfact>
</mgrwt>
</event>
<event>
 7    1  0.4230786E-006  0.1341478E+03  0.7546771E-02  0.1233919E+00
          1   -1    0    0  501    0  0.00000000000E+00  0.00000000000E+00  0.12722857998E+03  0.12722857998E+03  0.00000000000E+00 0. -1.
         -1   -1    0    0    0  501 -0.00000000000E+00 -0.00000000000E+00 -0.11103717148E+03  0.11103717148E+03  0.00000000000E+00 0.  1.
         23    2    1    2    0    0 -0.15563541286E+02 -0.46137859750E+02  0.75475373867E+01  0.13435993514E+03  0.12499880372E+03 0.  0.
          5    1    3    3  502    0 -0.70354944129E+02 -0.31460777453E+02  0.54409470574E+01  0.77403440403E+02  0.47000000000E+01 0. -1.
         -5    1    3    3    0  502  0.54791402843E+02 -0.14677082297E+02  0.21065903293E+01  0.56956494740E+02  0.47000000000E+01 0. -1.
        -11    1    1    2    0    0  0.25767320118E+02 -0.17800138309E+02 -0.15322885758E+02  0.34865319988E+02  0.00000000000E+00 0. -1.
         11    1    1    2    0    0 -0.10203778832E+02  0.63937998059E+02  0.23966756871E+02  0.69040496328E+02  0.00000000000E+00 0.  1.
<mgrwt>
<rscale>  0 0.12573917E+03</rscale>
<asrwt>0</asrwt>
<pdfrwt beam="1">  1        1 0.19573628E-01 0.13414778E+03</pdfrwt>
<pdfrwt beam="2">  1       -1 0.17082642E-01 0.13414778E+03</pdfrwt>
<totfact> 0.64950500E+03</totfact>
</mgrwt>
</event>
<event>
 7    1  0.4230786E-006  0.1460763E+03  0.7546771E-02  0.1215499E+00
         -1   -1    0    0    0  501 -0.00000000000E+00  0.00000000000E+00  0.54523369592E+03  0.54523369592E+03  0.00000000000E+00 0.  1.
          1   -1    0    0  501    0  0.00000000000E+00 -0.00000000000E+00 -0.36328207354E+02  0.36328207354E+02  0.00000000000E+00 0. -1.
         23    2    1    2    0    0 -0.38792311233E+01 -0.75474640381E+02  0.37944266279E+03  0.40658950433E+03  0.12500728343E+03 0.  0.
          5    1    3    3  502    0  0.44228176022E+02 -0.61727645616E+02  0.11828581969E+03  0.14064159743E+03  0.47000000000E+01 0.  1.
         -5    1    3    3    0  502 -0.48107407145E+02 -0.13746994766E+02  0.26115684310E+03  0.26594790690E+03  0.47000000000E+01 0.  1.
        -11    1    1    2    0    0  0.37543661314E+02  0.30050939354E+02  0.10057676429E+03  0.11148215542E+03  0.00000000000E+00 0.  1.
         11    1    1    2    0    0 -0.33664430191E+02  0.45423701027E+02  0.28886061485E+02  0.63490243528E+02  0.00000000000E+00 0. -1.
<mgrwt>
<rscale>  0 0.13839951E+03</rscale>
<asrwt>0</asrwt>
<pdfrwt beam="2">  1        1 0.55889554E-02 0.14607632E+03</pdfrwt>
<pdfrwt beam="1">  1       -1 0.83882101E-01 0.14607632E+03</pdfrwt>
<totfact> 0.20510662E+03</totfact>
</mgrwt>
</event>
<event>
 7    1  0.4230786E-006  0.1456366E+03  0.7546771E-02  0.1216590E+00
         -1   -1    0    0    0  501 -0.00000000000E+00  0.00000000000E+00  0.86264962513E+02  0.86264962513E+02  0.00000000000E+00 0.  1.
          1   -1    0    0  501    0  0.00000000000E+00 -0.00000000000E+00 -0.20517201789E+03  0.20517201789E+03  0.00000000000E+00 0. -1.
         23    2    1    2    0    0  0.93953802524E+01 -0.74123996635E+02 -0.39809298232E+02  0.15097946386E+03  0.12500951257E+03 0.  0.
          5    1    3    3  502    0  0.62355728862E+02 -0.58262210866E+02 -0.42455954298E+02  0.95432280662E+02  0.47000000000E+01 0. -1.
         -5    1    3    3    0  502 -0.52960348610E+02 -0.15861785769E+02  0.26466560663E+01  0.55547183196E+02  0.47000000000E+01 0. -1.
        -11    1    1    2    0    0 -0.43073253077E+02  0.21773206892E+02 -0.13698835060E+02  0.50170068277E+02  0.00000000000E+00 0.  1.
         11    1    1    2    0    0  0.33677872824E+02  0.52350789744E+02 -0.65398922082E+02  0.90287448265E+02  0.00000000000E+00 0. -1.
<mgrwt>
<rscale>  0 0.13760409E+03</rscale>
<asrwt>0</asrwt>
<pdfrwt beam="2">  1        1 0.31564925E-01 0.14563660E+03</pdfrwt>
<pdfrwt beam="1">  1       -1 0.13271533E-01 0.14563660E+03</pdfrwt>
<totfact> 0.53211554E+03</totfact>
</mgrwt>
</event>
<event>
 7    1  0.4230786E-006  0.2020670E+03  0.7546771E-02  0.1152351E+00
         -1   -1    0    0    0  501 -0.00000000000E+00  0.00000000000E+00  0.68699430334E+02  0.68699430334E+02  0.00000000000E+00 0.  1.
          1   -1    0    0  501    0  0.00000000000E+00 -0.00000000000E+00 -0.53765921526E+03  0.53765921526E+03  0.00000000000E+00 0. -1.
         23    2    1    2    0    0  0.19107276203E+02 -0.15760435086E+03 -0.24479385488E+03  0.31741944182E+03  0.12500740477E+03 0.  0.
          5    1    3    3  502    0  0.35730658066E+02 -0.17016193029E+03 -0.23843538470E+03  0.29513604511E+03  0.47000000000E+01 0. -1.
         -5    1    3    3    0  502 -0.16623381863E+02  0.12557579436E+02 -0.63584701760E+01  0.22283396708E+02  0.47000000000E+01 0. -1.
        -11    1    1    2    0    0  0.33944357994E+02  0.35392627788E+02 -0.57754283971E+02  0.75765525527E+02  0.00000000000E+00 0. -1.
         11    1    1    2    0    0 -0.53051634197E+02  0.12221172307E+03 -0.16641164607E+03  0.21317367824E+03  0.00000000000E+00 0.  1.
<mgrwt>
<rscale>  0 0.19693450E+03</rscale>
<asrwt>0</asrwt>
<pdfrwt beam="2">  1        1 0.82716798E-01 0.20206700E+03</pdfrwt>
<pdfrwt beam="1">  1       -1 0.10569144E-01 0.20206700E+03</pdfrwt>
<totfact> 0.22687276E+03</totfact>
</mgrwt>
</event>
<event>
 7    1  0.4230786E-006  0.1560140E+03  0.7546771E-02  0.1201015E+00
         -1   -1    0    0    0  501 -0.00000000000E+00  0.00000000000E+00  0.34896319856E+03  0.34896319856E+03  0.00000000000E+00 0.  1.
          1   -1    0    0  501    0  0.00000000000E+00 -0.00000000000E+00 -0.59508189943E+02  0.59508189943E+02  0.00000000000E+00 0. -1.
         23    2    1    2    0    0 -0.65776324094E+02 -0.66249823222E+02  0.14564713906E+03  0.21343255764E+03  0.12499921461E+03 0.  0.
          5    1    3    3  502    0 -0.11832959554E+02  0.18612123602E+02  0.10069008940E+03  0.10318436985E+03  0.47000000000E+01 0.  1.
         -5    1    3    3    0  502 -0.53943364541E+02 -0.84861946824E+02  0.44957049656E+02  0.11024818779E+03  0.47000000000E+01 0.  1.
        -11    1    1    2    0    0 -0.22240160092E+01  0.62152026086E+02  0.83064640255E+02  0.10376683022E+03  0.00000000000E+00 0. -1.
         11    1    1    2    0    0  0.68000340104E+02  0.40977971367E+01  0.60743229300E+02  0.91272000643E+02  0.00000000000E+00 0.  1.
<mgrwt>
<rscale>  0 0.14955972E+03</rscale>
<asrwt>0</asrwt>
<pdfrwt beam="2">  1        1 0.91551064E-02 0.15601400E+03</pdfrwt>
<pdfrwt beam="1">  1       -1 0.53686645E-01 0.15601400E+03</pdfrwt>
<totfact> 0.25328221E+03</totfact>
</mgrwt>
</event>
<event>
 7    1  0.4230786E-006  0.1328905E+03  0.7546771E-02  0.1253446E+00
          1   -1    0    0  501    0  0.00000000000E+00  0.00000000000E+00  0.36558588070E+03  0.36558588070E+03  0.00000000000E+00 0. -1.
         -1   -1    0    0    0  501 -0.00000000000E+00 -0.00000000000E+00 -0.29961348577E+02  0.29961348577E+02  0.00000000000E+00 0.  1.
         23    2    1    2    0    0  0.13527795156E+02  0.43053202828E+02  0.17619814109E+03  0.22069363741E+03  0.12499326842E+03 0.  0.
          5    1    3    3  502    0 -0.17188363349E+02 -0.19467074799E+02  0.13919978665E+03  0.14167948843E+03  0.47000000000E+01 0. -1.
         -5    1    3    3    0  502  0.30716158505E+02  0.62520277626E+02  0.36998354440E+02  0.79014148980E+02  0.47000000000E+01 0. -1.
        -11    1    1    2    0    0 -0.28679460491E+02 -0.42231285451E+02  0.14572980776E+03  0.15441233692E+03  0.00000000000E+00 0. -1.
         11    1    1    2    0    0  0.15151665336E+02 -0.82191737683E+00  0.13696583271E+02  0.20441254950E+02  0.00000000000E+00 0.  1.
<mgrwt>
<rscale>  0 0.11393843E+03</rscale>
<asrwt>0</asrwt>
<pdfrwt beam="1">  1        1 0.56243979E-01 0.13289054E+03</pdfrwt>
<pdfrwt beam="2">  1       -1 0.46094385E-02 0.13289054E+03</pdfrwt>
<totfact> 0.12754259E+04</totfact>
</mgrwt>
</event>
<event>
 7    1  0.4230786E-006  0.2160160E+03  0.7546771E-02  0.1140435E+00
          2   -1    0    0  501    0  0.00000000000E+00  0.00000000000E+00  0.13715941585E+03  0.13715941585E+03  0.00000000000E+00 0. -1.
         -2   -1    0    0    0  501 -0.00000000000E+00 -0.00000000000E+00 -0.58423453352E+03  0.58423453352E+03  0.00000000000E+00 0.  1.
         23    2    1    2    0    0  0.14344577064E+03 -0.10228881824E+03 -0.47438719376E+03  0.52125437834E+03  0.12499290335E+03 0.  0.
          5    1    3    3  502    0 -0.13153979036E+00 -0.44944406224E+02 -0.40724230776E+02  0.60832309884E+02  0.47000000000E+01 0.  1.
         -5    1    3    3    0  502  0.14357731043E+03 -0.57344412012E+02 -0.43366296298E+03  0.46042206845E+03  0.47000000000E+01 0.  1.
        -11    1    1    2    0    0 -0.13813538767E+03  0.86443891394E+02  0.51359414748E+02  0.17085584909E+03  0.00000000000E+00 0. -1.
         11    1    1    2    0    0 -0.53103829712E+01  0.15844926842E+02 -0.24047338664E+02  0.29283721942E+02  0.00000000000E+00 0.  1.
<mgrwt>
<rscale>  0 0.21143515E+03</rscale>
<asrwt>0</asrwt>
<pdfrwt beam="1">  1        2 0.21101448E-01 0.21601601E+03</pdfrwt>
<pdfrwt beam="2">  1       -2 0.89882237E-01 0.21601601E+03</pdfrwt>
<totfact> 0.28724342E+02</totfact>
</mgrwt>
</event>
<event>
 7    1  0.4230786E-006  0.1806634E+03  0.7546771E-02  0.1172118E+00
          2   -1    0    0  501    0  0.00000000000E+00  0.00000000000E+00  0.32019599626E+03  0.32019599626E+03  0.00000000000E+00 0. -1.
         -2   -1    0    0    0  501 -0.00000000000E+00 -0.00000000000E+00 -0.91316472250E+02  0.91316472250E+02  0.00000000000E+00 0.  1.
         23    2    1    2    0    0 -0.12294353059E+03 -0.43587206440E+02  0.12388462520E+03  0.21905856180E+03  0.12499718739E+03 0.  0.
          5    1    3    3  502    0 -0.29577378406E+02  0.32866359714E+02  0.78166386368E+02  0.89928265145E+02  0.47000000000E+01 0. -1.
         -5    1    3    3    0  502 -0.93366152185E+02 -0.76453566153E+02  0.45718238829E+02  0.12913029665E+03  0.47000000000E+01 0. -1.
        -11    1    1    2    0    0  0.40328109835E+02  0.18582242450E+02 -0.12991177717E+02  0.46264747657E+02  0.00000000000E+00 0.  1.
         11    1    1    2    0    0  0.82615420756E+02  0.25004963990E+02  0.11798607653E+03  0.14618915906E+03  0.00000000000E+00 0. -1.
<mgrwt>
<rscale>  0 0.17561220E+03</rscale>
<asrwt>0</asrwt>
<pdfrwt beam="1">  1        2 0.49260922E-01 0.18066337E+03</pdfrwt>
<pdfrwt beam="2">  1       -2 0.14048688E-01 0.18066337E+03</pdfrwt>
<totfact> 0.38017995E+03</totfact>
</mgrwt>
</event>
<event>
 7    1  0.4230786E-006  0.1847091E+03  0.7546771E-02  0.1168507E+00
          3   -1    0    0  501    0  0.00000000000E+00  0.00000000000E+00  0.87117297144E+02  0.87117297144E+02  0.00000000000E+00 0. -1.
         -3   -1    0    0    0  501 -0.00000000000E+00 -0.00000000000E+00 -0.36053591046E+03  0.36053591046E+03  0.00000000000E+00 0.  1.
         23    2    1    2    0    0 -0.12379764920E+03  0.56259997435E+02 -0.18495875132E+03  0.26139473679E+03  0.12500569375E+03 0.  0.
          5    1    3    3  502    0 -0.47850623286E+02  0.78059205501E+02 -0.48692188205E+02  0.10380722954E+03  0.47000000000E+01 0.  1.
         -5    1    3    3    0  502 -0.75947025919E+02 -0.21799208065E+02 -0.13626656312E+03  0.15758750725E+03  0.47000000000E+01 0.  1.
        -11    1    1    2    0    0 -0.85702471199E+01 -0.16162836495E+02  0.54413003114E+01  0.19086491777E+02  0.00000000000E+00 0. -1.
         11    1    1    2    0    0  0.13236789632E+03 -0.40097160940E+02 -0.93901162304E+02  0.16717197904E+03  0.00000000000E+00 0.  1.
<mgrwt>
<rscale>  0 0.17927463E+03</rscale>
<asrwt>0</asrwt>
<pdfrwt beam="1">  1        3 0.13402661E-01 0.18470915E+03</pdfrwt>
<pdfrwt beam="2">  1       -3 0.55467064E-01 0.18470915E+03</pdfrwt>
<totfact> 0.35257304E+02</totfact>
</mgrwt>
</event>
<event>
 7    1  0.4230786E-006  0.1424170E+03  0.7546771E-02  0.1221020E+00
          2   -1    0    0  501    0  0.00000000000E+00  0.00000000000E+00  0.19259203009E+03  0.19259203009E+03  0.00000000000E+00 0. -1.
         -2   -1    0    0    0  501 -0.00000000000E+00 -0.00000000000E+00 -0.12721203375E+03  0.12721203375E+03  0.00000000000E+00 0.  1.
         23    2    1    2    0    0 -0.30001985136E+02 -0.61268833606E+02 -0.56804597715E+02  0.15332766278E+03  0.12501448224E+03 0.  0.
          5    1    3    3  502    0 -0.43765621946E+02 -0.71492035665E+02  0.96753424073E+01  0.84511792541E+02  0.47000000000E+01 0. -1.
         -5    1    3    3    0  502  0.13763636809E+02  0.10223202059E+02 -0.66479940122E+02  0.68815870242E+02  0.47000000000E+01 0. -1.
        -11    1    1    2    0    0 -0.31619789470E+02  0.29454019729E+02  0.39356359193E+02  0.58448895398E+02  0.00000000000E+00 0.  1.
         11    1    1    2    0    0  0.61621774606E+02  0.31814813878E+02  0.82828234863E+02  0.10802750566E+03  0.00000000000E+00 0. -1.
<mgrwt>
<rscale>  0 0.13443439E+03</rscale>
<asrwt>0</asrwt>
<pdfrwt beam="1">  1        2 0.29629543E-01 0.14241703E+03</pdfrwt>
<pdfrwt beam="2">  1       -2 0.19571082E-01 0.14241703E+03</pdfrwt>
<totfact> 0.37403205E+03</totfact>
</mgrwt>
</event>
<event>
 7    1  0.4230786E-006  0.1374222E+03  0.7546771E-02  0.1225661E+00
          2   -1    0    0  501    0  0.00000000000E+00  0.00000000000E+00  0.98821756621E+02  0.98821756621E+02  0.00000000000E+00 0. -1.
         -2   -1    0    0    0  501 -0.00000000000E+00 -0.00000000000E+00 -0.16555340413E+03  0.16555340413E+03  0.00000000000E+00 0.  1.
         23    2    1    2    0    0  0.52560217582E+02 -0.22293174102E+02 -0.59986758371E+02  0.14994420300E+03  0.12500116299E+03 0.  0.
          5    1    3    3  502    0  0.92119816562E+02 -0.97348429621E+01 -0.55112899103E+02  0.10789045101E+03  0.47000000000E+01 0.  1.
         -5    1    3    3    0  502 -0.39559598981E+02 -0.12558331140E+02 -0.48738592677E+01  0.42053751993E+02  0.47000000000E+01 0.  1.
        -11    1    1    2    0    0 -0.11850663834E+02  0.56383177716E+02  0.10579129687E+02  0.58578314653E+02  0.00000000000E+00 0. -1.
         11    1    1    2    0    0 -0.40709553748E+02 -0.34090003613E+02 -0.17324018826E+02  0.55852643098E+02  0.00000000000E+00 0.  1.
<mgrwt>
<rscale>  0 0.13121683E+03</rscale>
<asrwt>0</asrwt>
<pdfrwt beam="1">  1        2 0.15203347E-01 0.13742217E+03</pdfrwt>
<pdfrwt beam="2">  1       -2 0.25469754E-01 0.13742217E+03</pdfrwt>
<totfact> 0.50274240E+03</totfact>
</mgrwt>
</event>
<event>
 7    1  0.4230786E-006  0.2064780E+03  0.7546771E-02  0.1149323E+00
         -4   -1    0    0    0  501 -0.00000000000E+00  0.00000000000E+00  0.26449368911E+03  0.26449368911E+03  0.00000000000E+00 0.  1.
          4   -1    0    0  501    0  0.00000000000E+00 -0.00000000000E+00 -0.14479969300E+03  0.14479969300E+03  0.00000000000E+00 0. -1.
         23    2    1    2    0    0 -0.14359290667E+03 -0.79927851450E+02  0.80363029434E+02  0.22156572343E+03  0.12500307602E+03 0.  0.
          5    1    3    3  502    0 -0.86445712519E+02 -0.10942503342E+03  0.70511683626E+02  0.15633517416E+03  0.47000000000E+01 0.  1.
         -5    1    3    3    0  502 -0.57147194156E+02  0.29497181966E+02  0.98513458076E+01  0.65230549270E+02  0.47000000000E+01 0.  1.
        -11    1    1    2    0    0  0.51572544048E+02  0.68815129528E+02 -0.25105385163E+01  0.86032273916E+02  0.00000000000E+00 0. -1.
         11    1    1    2    0    0  0.92020362627E+02  0.11112721922E+02  0.41841505190E+02  0.10169538477E+03  0.00000000000E+00 0.  1.
<mgrwt>
<rscale>  0 0.20049363E+03</rscale>
<asrwt>0</asrwt>
<pdfrwt beam="2">  1        4 0.22276876E-01 0.20647797E+03</pdfrwt>
<pdfrwt beam="1">  1       -4 0.40691337E-01 0.20647797E+03</pdfrwt>
<totfact> 0.19464298E+02</totfact>
</mgrwt>
</event>
<event>
 7    1  0.4230786E-006  0.2396089E+03  0.7546771E-02  0.1122854E+00
          1   -1    0    0  501    0  0.00000000000E+00  0.00000000000E+00  0.20960473252E+03  0.20960473252E+03  0.00000000000E+00 0. -1.
         -1   -1    0    0    0  501 -0.00000000000E+00 -0.00000000000E+00 -0.26029773395E+03  0.26029773395E+03  0.00000000000E+00 0.  1.
         23    2    1    2    0    0 -0.14898146417E+03 -0.13996823440E+03 -0.57289675553E+02  0.24636255812E+03  0.12500327920E+03 0.  0.
          5    1    3    3  502    0 -0.20783902938E+02 -0.29138807544E+01  0.31943435201E+02  0.38508886959E+02  0.47000000000E+01 0. -1.
         -5    1    3    3    0  502 -0.12819756123E+03 -0.13705435365E+03 -0.89233110754E+02  0.20785367116E+03  0.47000000000E+01 0. -1.
        -11    1    1    2    0    0  0.50287101590E+02  0.10688521898E+03 -0.81702591908E+01  0.11840606301E+03  0.00000000000E+00 0. -1.
         11    1    1    2    0    0  0.98694362580E+02  0.33083015420E+02  0.14766933316E+02  0.10513384533E+03  0.00000000000E+00 0.  1.
<mgrwt>
<rscale>  0 0.23546080E+03</rscale>
<asrwt>0</asrwt>
<pdfrwt beam="1">  1        1 0.32246882E-01 0.23960885E+03</pdfrwt>
<pdfrwt beam="2">  1       -1 0.40045805E-01 0.23960885E+03</pdfrwt>
<totfact> 0.85195249E+02</totfact>
</mgrwt>
</event>
<event>
 7    1  0.5867615E-006  0.1705595E+03  0.7546771E-02  0.1183090E+00
          1   -1    0    0  501    0  0.00000000000E+00  0.00000000000E+00  0.22914114681E+03  0.22914114681E+03  0.00000000000E+00 0. -1.
         -1   -1    0    0    0  501 -0.00000000000E+00 -0.00000000000E+00 -0.11375704085E+03  0.11375704085E+03  0.00000000000E+00 0.  1.
         23    2    1    2    0    0 -0.31309902146E+02 -0.11173609845E+03  0.39291390431E+02  0.17502670696E+03  0.12500107646E+03 0.  0.
          5    1    3    3  502    0 -0.48524994614E+02  0.72327443835E+01  0.20004068526E+02  0.53190604914E+02  0.47000000000E+01 0.  1.
         -5    1    3    3    0  502  0.17215092467E+02 -0.11896884284E+03  0.19287321904E+02  0.12183610204E+03  0.47000000000E+01 0.  1.
        -11    1    1    2    0    0  0.64817585331E+02  0.74787841609E+02  0.58592090653E+02  0.11501118949E+03  0.00000000000E+00 0.  1.
         11    1    1    2    0    0 -0.33507683185E+02  0.36948256845E+02  0.17500624870E+02  0.52860291213E+02  0.00000000000E+00 0. -1.
<mgrwt>
<rscale>  0 0.16506896E+03</rscale>
<asrwt>0</asrwt>
<pdfrwt beam="1">  1        1 0.35252484E-01 0.17055948E+03</pdfrwt>
<pdfrwt beam="2">  1       -1 0.17501083E-01 0.17055948E+03</pdfrwt>
<totfact> 0.30234459E+03</totfact>
</mgrwt>
</event>
<event>
 7    1  0.4230786E-006  0.1366263E+03  0.7546771E-02  0.1229763E+00
          4   -1    0    0  501    0  0.00000000000E+00  0.00000000000E+00  0.66071810197E+02  0.66071810197E+02  0.00000000000E+00 0. -1.
         -4   -1    0    0    0  501 -0.00000000000E+00 -0.00000000000E+00 -0.22441468943E+03  0.22441468943E+03  0.00000000000E+00 0.  1.
         23    2    1    2    0    0 -0.27549807219E+01  0.55082539107E+02 -0.83913458028E+02  0.16033779437E+03  0.12500025532E+03 0.  0.
          5    1    3    3  502    0 -0.21745134137E+02  0.91222332376E+02 -0.69383043144E+02  0.11674956727E+03  0.47000000000E+01 0. -1.
         -5    1    3    3    0  502  0.18990153416E+02 -0.36139793269E+02 -0.14530414884E+02  0.43588227091E+02  0.47000000000E+01 0. -1.
        -11    1    1    2    0    0 -0.23649757327E+02 -0.67874249227E+02 -0.70263120771E+02  0.10051433167E+03  0.00000000000E+00 0.  1.
         11    1    1    2    0    0  0.26404738049E+02  0.12791710120E+02 -0.41663004372E+01  0.29634373598E+02  0.00000000000E+00 0. -1.
<mgrwt>
<rscale>  0 0.12845729E+03</rscale>
<asrwt>0</asrwt>
<pdfrwt beam="1">  1        4 0.10164894E-01 0.13662628E+03</pdfrwt>
<pdfrwt beam="2">  1       -4 0.34525337E-01 0.13662628E+03</pdfrwt>
<totfact> 0.99062076E+02</totfact>
</mgrwt>
</event>
<event>
 7    1  0.4230786E-006  0.1851592E+03  0.7546771E-02  0.1166676E+00
          1   -1    0    0  501    0  0.00000000000E+00  0.00000000000E+00  0.31262665639E+02  0.31262665639E+02  0.00000000000E+00 0. -1.
         -1   -1    0    0    0  501 -0.00000000000E+00 -0.00000000000E+00 -0.11883638875E+04  0.11883638875E+04  0.00000000000E+00 0.  1.
         23    2    1    2    0    0 -0.87167877413E+02 -0.10517361003E+03 -0.83790181006E+03  0.85811617025E+03  0.12499676492E+03 0.  0.
          5    1    3    3  502    0 -0.53497874063E+02 -0.10121781867E+03 -0.33505506510E+03  0.35410599542E+03  0.47000000000E+01 0. -1.
         -5    1    3    3    0  502 -0.33670003350E+02 -0.39557913617E+01 -0.50284674497E+03  0.50401017483E+03  0.47000000000E+01 0. -1.
        -11    1    1    2    0    0  0.72769117274E+02  0.60540946444E+02 -0.10139325851E+03  0.13871244896E+03  0.00000000000E+00 0. -1.
         11    1    1    2    0    0  0.14398760140E+02  0.44632663587E+02 -0.21780615328E+03  0.22279793392E+03  0.00000000000E+00 0.  1.
<mgrwt>
<rscale>  0 0.18116980E+03</rscale>
<asrwt>0</asrwt>
<pdfrwt beam="1">  1        1 0.48096417E-02 0.18515917E+03</pdfrwt>
<pdfrwt beam="2">  1       -1 0.18282518E+00 0.18515917E+03</pdfrwt>
<totfact> 0.38413396E+02</totfact>
</mgrwt>
</event>
<event>
 7    1  0.4230786E-006  0.1517080E+03  0.7546771E-02  0.1207123E+00
         -1   -1    0    0    0  501 -0.00000000000E+00  0.00000000000E+00  0.75773275213E+02  0.75773275213E+02  0.00000000000E+00 0.  1.
          1   -1    0    0  501    0  0.00000000000E+00 -0.00000000000E+00 -0.26989119354E+03  0.26989119354E+03  0.00000000000E+00 0. -1.
         23    2    1    2    0    0  0.31357601408E+02 -0.80036254350E+02 -0.63531873033E+02  0.16447378761E+03  0.12500490688E+03 0.  0.
          5    1    3    3  502    0 -0.40118850381E+02 -0.16566413207E+02 -0.52276639360E+02  0.68109509067E+02  0.47000000000E+01 0. -1.
         -5    1    3    3    0  502  0.71476451789E+02 -0.63469841143E+02 -0.11255233673E+02  0.96364278548E+02  0.47000000000E+01 0. -1.
        -11    1    1    2    0    0 -0.59513754735E+02  0.42412009310E+02 -0.10427277763E+03  0.12733215498E+03  0.00000000000E+00 0. -1.
         11    1    1    2    0    0  0.28156153328E+02  0.37624245039E+02 -0.26313267661E+02  0.53858526159E+02  0.00000000000E+00 0.  1.
<mgrwt>
<rscale>  0 0.14471405E+03</rscale>
<asrwt>0</asrwt>
<pdfrwt beam="2">  1        1 0.41521722E-01 0.15170804E+03</pdfrwt>
<pdfrwt beam="1">  1       -1 0.11657427E-01 0.15170804E+03</pdfrwt>
<totfact> 0.46399542E+03</totfact>
</mgrwt>
</event>
<event>
 7    1  0.4230786E-006  0.1275379E+03  0.7546771E-02  0.1246000E+00
         -2   -1    0    0    0  501 -0.00000000000E+00  0.00000000000E+00  0.31952269970E+02  0.31952269970E+02  0.00000000000E+00 0.  1.
          2   -1    0    0  501    0  0.00000000000E+00 -0.00000000000E+00 -0.41283147241E+03  0.41283147241E+03  0.00000000000E+00 0. -1.
         23    2    1    2    0    0 -0.17155912257E+02  0.18561717423E+02 -0.15989113513E+03  0.20452648024E+03  0.12500817312E+03 0.  0.
          5    1    3    3  502    0  0.35569310673E+02  0.52086349175E+02 -0.96622773411E+02  0.11548252670E+03  0.47000000000E+01 0. -1.
         -5    1    3    3    0  502 -0.52725222931E+02 -0.33524631752E+02 -0.63268361719E+02  0.89043953539E+02  0.47000000000E+01 0. -1.
        -11    1    1    2    0    0 -0.59309006413E+01 -0.44577414908E+02 -0.56911216186E+02  0.72534185251E+02  0.00000000000E+00 0.  1.
         11    1    1    2    0    0  0.23086812899E+02  0.26015697486E+02 -0.16407685112E+03  0.16772307689E+03  0.00000000000E+00 0. -1.
<mgrwt>
<rscale>  0 0.11825753E+03</rscale>
<asrwt>0</asrwt>
<pdfrwt beam="2">  1        2 0.63512532E-01 0.12753786E+03</pdfrwt>
<pdfrwt beam="1">  1       -2 0.49157340E-02 0.12753786E+03</pdfrwt>
<totfact> 0.14541849E+04</totfact>
</mgrwt>
</event>
<event>
 7    1  0.4230786E-006  0.1424104E+03  0.7546771E-02  0.1220406E+00
          1   -1    0    0  501    0  0.00000000000E+00  0.00000000000E+00  0.88641649468E+02  0.88641649468E+02  0.00000000000E+00 0. -1.
         -1   -1    0    0    0  501 -0.00000000000E+00 -0.00000000000E+00 -0.18644773833E+03  0.18644773833E+03  0.00000000000E+00 0.  1.
         23    2    1    2    0    0 -0.64513173309E+02 -0.22246309628E+02 -0.58876292054E+02  0.15410110501E+03  0.12499553983E+03 0.  0.
          5    1    3    3  502    0 -0.17772101030E+02 -0.61260195169E+02 -0.66849399231E+02  0.92518059127E+02  0.47000000000E+01 0. -1.
         -5    1    3    3    0  502 -0.46741072279E+02  0.39013885541E+02  0.79731071768E+01  0.61583045888E+02  0.47000000000E+01 0. -1.
        -11    1    1    2    0    0  0.55236641258E+02 -0.18561507385E+01 -0.64298328463E+02  0.84786831974E+02  0.00000000000E+00 0.  1.
         11    1    1    2    0    0  0.92765320507E+01  0.24102460366E+02  0.25368531653E+02  0.36201450811E+02  0.00000000000E+00 0. -1.
<mgrwt>
<rscale>  0 0.13486803E+03</rscale>
<asrwt>0</asrwt>
<pdfrwt beam="1">  1        1 0.13637177E-01 0.14241044E+03</pdfrwt>
<pdfrwt beam="2">  1       -1 0.28684267E-01 0.14241044E+03</pdfrwt>
<totfact> 0.44758602E+03</totfact>
</mgrwt>
</event>
<event>
 6    1  0.4230786E-006  0.1357472E+03  0.7546771E-02  0.1237602E+00
         -2   -1    0    0    0  501 -0.00000000000E+00  0.00000000000E+00  0.35285283536E+02  0.35285283536E+02  0.00000000000E+00 0.  1.
          2   -1    0    0  501    0  0.00000000000E+00 -0.00000000000E+00 -0.49893562594E+03  0.49893562594E+03  0.00000000000E+00 0. -1.
          5    1    1    2  502    0 -0.31413308386E+02  0.40773170331E+02 -0.77455370374E+02  0.93116441955E+02  0.47000000000E+01 0. -1.
         -5    1    1    2    0  502  0.53383385789E+02 -0.57994149089E+02 -0.52608870836E+02  0.94883562841E+02  0.47000000000E+01 0.  1.
        -11    1    1    2    0    0 -0.30010715832E+02  0.46974643844E+02 -0.14912781016E+03  0.15920541446E+03  0.00000000000E+00 0. -1.
         11    1    1    2    0    0  0.80406384299E+01 -0.29753665086E+02 -0.18445829103E+03  0.18701549022E+03  0.00000000000E+00 0.  1.
<mgrwt>
<rscale>  0 0.12339352E+03</rscale>
<asrwt>0</asrwt>
<pdfrwt beam="2">  1        2 0.76759327E-01 0.13574717E+03</pdfrwt>
<pdfrwt beam="1">  1       -2 0.54285052E-02 0.13574717E+03</pdfrwt>
<totfact> 0.10253932E+04</totfact>
</mgrwt>
</event>
<event>
 7    1  0.4230786E-006  0.1261879E+03  0.7546771E-02  0.1254813E+00
          2   -1    0    0  501    0  0.00000000000E+00  0.00000000000E+00  0.43024391161E+02  0.43024391161E+02  0.00000000000E+00 0. -1.
         -2   -1    0    0    0  501 -0.00000000000E+00 -0.00000000000E+00 -0.26801474982E+03  0.26801474982E+03  0.00000000000E+00 0.  1.
         23    2    1    2    0    0 -0.17018709435E+02 -0.31116854127E+01 -0.17346717629E+03  0.21450934067E+03  0.12499630765E+03 0.  0.
          5    1    3    3  502    0 -0.41969126850E+02  0.34126951852E+02 -0.15765949652E+03  0.16674730371E+03  0.47000000000E+01 0.  1.
         -5    1    3    3    0  502  0.24950417415E+02 -0.37238637265E+02 -0.15807679771E+02  0.47762036957E+02  0.47000000000E+01 0.  1.
        -11    1    1    2    0    0  0.55546250483E+01 -0.28571041161E+02 -0.55433964637E+02  0.62610563708E+02  0.00000000000E+00 0.  1.
         11    1    1    2    0    0  0.11464084387E+02  0.31682726573E+02  0.39107822709E+01  0.33919236606E+02  0.00000000000E+00 0. -1.
<mgrwt>
<rscale>  0 0.11316837E+03</rscale>
<asrwt>0</asrwt>
<pdfrwt beam="1">  1        2 0.66191372E-02 0.12618794E+03</pdfrwt>
<pdfrwt beam="2">  1       -2 0.41233038E-01 0.12618794E+03</pdfrwt>
<totfact> 0.57469567E+03</totfact>
</mgrwt>
</event>
<event>
 7    1  0.4230786E-006  0.1580849E+03  0.7546771E-02  0.1198183E+00
          1   -1    0    0  501    0  0.00000000000E+00  0.00000000000E+00  0.13876414099E+03  0.13876414099E+03  0.00000000000E+00 0. -1.
         -1   -1    0    0    0  501 -0.00000000000E+00 -0.00000000000E+00 -0.16080631789E+03  0.16080631789E+03  0.00000000000E+00 0.  1.
         23    2    1    2    0    0  0.33360743313E+01 -0.96795285778E+02 -0.41615737232E+02  0.16347082942E+03  0.12494152931E+03 0.  0.
          5    1    3    3  502    0  0.61477197039E+02 -0.67185993355E+02 -0.13159453867E+02  0.92133949687E+02  0.47000000000E+01 0. -1.
         -5    1    3    3    0  502 -0.58141122708E+02 -0.29609292424E+02 -0.28456283366E+02  0.71336879737E+02  0.47000000000E+01 0. -1.
        -11    1    1    2    0    0 -0.39029493349E+00 -0.11457059026E+02 -0.18113925010E+02  0.21436669772E+02  0.00000000000E+00 0.  1.
         11    1    1    2    0    0 -0.29457793978E+01  0.10825234480E+03  0.37687485339E+02  0.11466295968E+03  0.00000000000E+00 0. -1.
<mgrwt>
<rscale>  0 0.15187890E+03</rscale>
<asrwt>0</asrwt>
<pdfrwt beam="1">  1        1 0.21348330E-01 0.15808492E+03</pdfrwt>
<pdfrwt beam="2">  1       -1 0.24739433E-01 0.15808492E+03</pdfrwt>
<totfact> 0.32309710E+03</totfact>
</mgrwt>
</event>
<event>
 7    1  0.4230786E-006  0.1299018E+03  0.7546771E-02  0.1239893E+00
          3   -1    0    0  501    0  0.00000000000E+00  0.00000000000E+00  0.12396016089E+03  0.12396016089E+03  0.00000000000E+00 0.  1.
         -3   -1    0    0    0  501 -0.00000000000E+00 -0.00000000000E+00 -0.14990449832E+03  0.14990449832E+03  0.00000000000E+00 0. -1.
         23    2    1    2    0    0  0.28984241809E+01 -0.35224988301E+02 -0.86580260119E+02  0.15611094565E+03  0.12500114098E+03 0.  0.
          5    1    3    3  502    0  0.54372303639E+02 -0.45824217051E+02 -0.72150092450E+02  0.10140972395E+03  0.47000000000E+01 0.  1.
         -5    1    3    3    0  502 -0.51473879458E+02  0.10599228749E+02 -0.14430167669E+02  0.54701221700E+02  0.47000000000E+01 0.  1.
        -11    1    1    2    0    0 -0.46771712040E+02  0.39067768030E+01  0.30873963534E+02  0.56178800063E+02  0.00000000000E+00 0.  1.
         11    1    1    2    0    0  0.43873287859E+02  0.31318211498E+02  0.29761959152E+02  0.61574913492E+02  0.00000000000E+00 0. -1.
<mgrwt>
<rscale>  0 0.12196328E+03</rscale>
<asrwt>0</asrwt>
<pdfrwt beam="1">  1        3 0.19070794E-01 0.12990183E+03</pdfrwt>
<pdfrwt beam="2">  1       -3 0.23062231E-01 0.12990183E+03</pdfrwt>
<totfact> 0.97241583E+02</totfact>
</mgrwt>
</event>
<event>
 7    1  0.4230786E-006  0.1288266E+03  0.7546771E-02  0.1243579E+00
          1   -1    0    0  501    0  0.00000000000E+00  0.00000000000E+00  0.43952604894E+02  0.43952604894E+02  0.00000000000E+00 0. -1.
         -1   -1    0    0    0  501 -0.00000000000E+00 -0.00000000000E+00 -0.31096177629E+03  0.31096177629E+03  0.00000000000E+00 0.  1.
         23    2    1    2    0    0 -0.28275301198E+02 -0.13144681289E+02 -0.19963417149E+03  0.23759226811E+03  0.12499603248E+03 0.  0.
          5    1    3    3  502    0 -0.63855643491E+02 -0.27275588745E+02 -0.18262614996E+03  0.19543771795E+03  0.47000000000E+01 0. -1.
         -5    1    3    3    0  502  0.35580342294E+02  0.14130907456E+02 -0.17008021534E+02  0.42154550167E+02  0.47000000000E+01 0. -1.
        -11    1    1    2    0    0 -0.10518840858E+02 -0.33490213399E+02 -0.29084911400E+02  0.45586977062E+02  0.00000000000E+00 0. -1.
         11    1    1    2    0    0  0.38794142056E+02  0.46634894688E+02 -0.38290088498E+02  0.71735136005E+02  0.00000000000E+00 0.  1.
<mgrwt>
<rscale>  0 0.11970861E+03</rscale>
<asrwt>0</asrwt>
<pdfrwt beam="1">  1        1 0.67619392E-02 0.12882656E+03</pdfrwt>
<pdfrwt beam="2">  1       -1 0.47840273E-01 0.12882656E+03</pdfrwt>
<totfact> 0.46501579E+03</totfact>
</mgrwt>
</event>
<event>
 7    1  0.4230786E-006  0.1315532E+03  0.7546771E-02  0.1239313E+00
         -1   -1    0    0    0  501 -0.00000000000E+00  0.00000000000E+00  0.31372905615E+03  0.31372905615E+03  0.00000000000E+00 0.  1.
          1   -1    0    0  501    0  0.00000000000E+00 -0.00000000000E+00 -0.42197953917E+02  0.42197953917E+02  0.00000000000E+00 0. -1.
         23    2    1    2    0    0  0.31271489089E+02 -0.26548690617E+02  0.16313244266E+03  0.20956726774E+03  0.12499402729E+03 0.  0.
          5    1    3    3  502    0  0.56568831502E+02  0.18354852140E+02  0.30096219605E+02  0.66819201800E+02  0.47000000000E+01 0. -1.
         -5    1    3    3    0  502 -0.25297342414E+02 -0.44903542757E+02  0.13303622306E+03  0.14274806594E+03  0.47000000000E+01 0. -1.
        -11    1    1    2    0    0 -0.32398208292E+02  0.16407039162E+02  0.12316688141E+03  0.12840917222E+03  0.00000000000E+00 0.  1.
         11    1    1    2    0    0  0.11267192030E+01  0.10141651455E+02 -0.14768221843E+02  0.17950570097E+02  0.00000000000E+00 0. -1.
<mgrwt>
<rscale>  0 0.12232338E+03</rscale>
<asrwt>0</asrwt>
<pdfrwt beam="2">  1        1 0.64919931E-02 0.13155321E+03</pdfrwt>
<pdfrwt beam="1">  1       -1 0.48266007E-01 0.13155321E+03</pdfrwt>
<totfact> 0.48420891E+03</totfact>
</mgrwt>
</event>
<event>
 7    1  0.4230786E-006  0.1262178E+03  0.7546771E-02  0.1247551E+00
         -3   -1    0    0    0  501 -0.00000000000E+00  0.00000000000E+00  0.15449399050E+03  0.15449399050E+03  0.00000000000E+00 0.  1.
          3   -1    0    0  501    0  0.00000000000E+00 -0.00000000000E+00 -0.79381793071E+02  0.79381793071E+02  0.00000000000E+00 0. -1.
         23    2    1    2    0    0  0.12101075067E+02 -0.11436186885E+02  0.53864936053E+02  0.13723103257E+03  0.12511475763E+03 0.  0.
          5    1    3    3  502    0 -0.26268349473E+02  0.42199804321E+02 -0.30090716578E+01  0.50019937835E+02  0.47000000000E+01 0.  1.
         -5    1    3    3    0  502  0.38369424540E+02 -0.53635991206E+02  0.56874007711E+02  0.87211094737E+02  0.47000000000E+01 0.  1.
        -11    1    1    2    0    0 -0.13945341107E+02 -0.26228895454E+02 -0.23679813779E+02  0.37988959922E+02  0.00000000000E+00 0. -1.
         11    1    1    2    0    0  0.18442660401E+01  0.37665082340E+02  0.44927075153E+02  0.58655791075E+02  0.00000000000E+00 0.  1.
<mgrwt>
<rscale>  0 0.11733985E+03</rscale>
<asrwt>0</asrwt>
<pdfrwt beam="2">  1        3 0.12212584E-01 0.12621777E+03</pdfrwt>
<pdfrwt beam="1">  1       -3 0.23768306E-01 0.12621777E+03</pdfrwt>
<totfact> 0.19657562E+03</totfact>
</mgrwt>
</event>
<event>
 7    1  0.4230786E-006  0.1513377E+03  0.7546771E-02  0.1207598E+00
         -2   -1    0    0    0  501 -0.00000000000E+00  0.00000000000E+00  0.27960835338E+02  0.27960835338E+02  0.00000000000E+00 0.  1.
          2   -1    0    0  501    0  0.00000000000E+00 -0.00000000000E+00 -0.69554484623E+03  0.69554484623E+03  0.00000000000E+00 0. -1.
         23    2    1    2    0    0 -0.42534082265E+02 -0.73951851595E+02 -0.31834021857E+03  0.35248204907E+03  0.12500030260E+03 0.  0.
          5    1    3    3  502    0 -0.25111066909E+02 -0.90041619987E+02 -0.11763930489E+03  0.15033015355E+03  0.47000000000E+01 0. -1.
         -5    1    3    3    0  502 -0.17423015356E+02  0.16089768392E+02 -0.20070091368E+03  0.20215189552E+03  0.47000000000E+01 0. -1.
        -11    1    1    2    0    0 -0.21511418793E+02  0.13585637989E+02 -0.27519706963E+02  0.37478593482E+02  0.00000000000E+00 0.  1.
         11    1    1    2    0    0  0.64045501058E+02  0.60366213606E+02 -0.32172408536E+03  0.33354503901E+03  0.00000000000E+00 0. -1.
<mgrwt>
<rscale>  0 0.14434572E+03</rscale>
<asrwt>0</asrwt>
<pdfrwt beam="2">  1        2 0.10700688E+00 0.15133770E+03</pdfrwt>
<pdfrwt beam="1">  1       -2 0.43016677E-02 0.15133770E+03</pdfrwt>
<totfact> 0.10032496E+04</totfact>
</mgrwt>
</event>
<event>
 7    1  0.4230786E-006  0.1777905E+03  0.7546771E-02  0.1175675E+00
          2   -1    0    0  501    0  0.00000000000E+00  0.00000000000E+00  0.28817502748E+03  0.28817502748E+03  0.00000000000E+00 0. -1.
         -2   -1    0    0    0  501 -0.00000000000E+00 -0.00000000000E+00 -0.10159743461E+03  0.10159743461E+03  0.00000000000E+00 0.  1.
         23    2    1    2    0    0 -0.77066747621E+01 -0.12618594974E+03  0.56418069353E+02  0.18652736004E+03  0.12500868268E+03 0.  0.
          5    1    3    3  502    0  0.24424417005E+02 -0.13208365692E+03  0.69152490510E+02  0.15115158456E+03  0.47000000000E+01 0.  1.
         -5    1    3    3    0  502 -0.32131091767E+02  0.58977071828E+01 -0.12734421156E+02  0.35375775474E+02  0.47000000000E+01 0.  1.
        -11    1    1    2    0    0 -0.41649769078E+02  0.68057217612E+02  0.63903532815E+02  0.10222597341E+03  0.00000000000E+00 0.  1.
         11    1    1    2    0    0  0.49356443840E+02  0.58128732129E+02  0.66255990705E+02  0.10101912864E+03  0.00000000000E+00 0. -1.
<mgrwt>
<rscale>  0 0.17210037E+03</rscale>
<asrwt>0</asrwt>
<pdfrwt beam="1">  1        2 0.44334619E-01 0.17779049E+03</pdfrwt>
<pdfrwt beam="2">  1       -2 0.15630375E-01 0.17779049E+03</pdfrwt>
<totfact> 0.35686447E+03</totfact>
</mgrwt>
</event>
<event>
 7    1  0.4230786E-006  0.3514868E+03  0.7546771E-02  0.1062006E+00
          3   -1    0    0  501    0  0.00000000000E+00  0.00000000000E+00  0.28375133376E+03  0.28375133376E+03  0.00000000000E+00 0. -1.
         -3   -1    0    0    0  501 -0.00000000000E+00 -0.00000000000E+00 -0.10884794552E+03  0.10884794552E+03  0.00000000000E+00 0.  1.
         23    2    1    2    0    0 -0.19321472794E+02 -0.13647920463E+02  0.53612461470E+02  0.13805372944E+03  0.12499980457E+03 0.  0.
          5    1    3    3  502    0  0.37183936468E+02  0.35674518532E+02  0.26725283196E+02  0.58237849940E+02  0.47000000000E+01 0. -1.
         -5    1    3    3    0  502 -0.56505409262E+02 -0.49322438994E+02  0.26887178274E+02  0.79815879496E+02  0.47000000000E+01 0. -1.
        -11    1    1    2    0    0  0.94730242783E+02  0.77735510759E+02  0.48932039117E+02  0.13195064601E+03  0.00000000000E+00 0.  1.
         11    1    1    2    0    0 -0.75408769988E+02 -0.64087590296E+02  0.72358887653E+02  0.12259490382E+03  0.00000000000E+00 0. -1.
<mgrwt>
<rscale>  0 0.35148684E+03</rscale>
<asrwt>0</asrwt>
<pdfrwt beam="1">  1        3 0.43654051E-01 0.35148684E+03</pdfrwt>
<pdfrwt beam="2">  1       -3 0.16745838E-01 0.35148684E+03</pdfrwt>
<totfact> 0.41606926E+02</totfact>
</mgrwt>
</event>
<event>
 7    1  0.4230786E-006  0.1735293E+03  0.7546771E-02  0.1180966E+00
          3   -1    0    0  501    0  0.00000000000E+00  0.00000000000E+00  0.24917796742E+03  0.24917796742E+03  0.00000000000E+00 0. -1.
         -3   -1    0    0    0  501 -0.00000000000E+00 -0.00000000000E+00 -0.10603825831E+03  0.10603825831E+03  0.00000000000E+00 0.  1.
         23    2    1    2    0    0 -0.11731408141E+03 -0.26906190402E+02  0.99123809905E+02  0.19984477664E+03  0.12500347308E+03 0.  0.
          5    1    3    3  502    0 -0.24524568515E+02  0.23944626497E+02  0.86523638468E+02  0.93183848454E+02  0.47000000000E+01 0. -1.
         -5    1    3    3    0  502 -0.92789512891E+02 -0.50850816898E+02  0.12600171437E+02  0.10666092819E+03  0.47000000000E+01 0. -1.
        -11    1    1    2    0    0  0.59854297113E+02  0.15748132742E+02 -0.23331048800E+02  0.66142863605E+02  0.00000000000E+00 0.  1.
         11    1    1    2    0    0  0.57459784292E+02  0.11158057659E+02  0.67346948007E+02  0.89228585484E+02  0.00000000000E+00 0. -1.
<mgrwt>
<rscale>  0 0.16704394E+03</rscale>
<asrwt>0</asrwt>
<pdfrwt beam="1">  1        3 0.38335072E-01 0.17352926E+03</pdfrwt>
<pdfrwt beam="2">  1       -3 0.16313578E-01 0.17352926E+03</pdfrwt>
<totfact> 0.51918687E+02</totfact>
</mgrwt>
</event>
<event>
 7    1  0.4230786E-006  0.1723725E+03  0.7546771E-02  0.1181671E+00
         -1   -1    0    0    0  501 -0.00000000000E+00  0.00000000000E+00  0.65408952875E+02  0.65408952875E+02  0.00000000000E+00 0.  1.
          1   -1    0    0  501    0  0.00000000000E+00 -0.00000000000E+00 -0.39915681988E+03  0.39915681988E+03  0.00000000000E+00 0. -1.
         23    2    1    2    0    0  0.54685818986E+02 -0.10534852724E+03 -0.15907181999E+03  0.23455514886E+03  0.12499369166E+03 0.  0.
          5    1    3    3  502    0 -0.23854437247E+02  0.25628383010E+01  0.29073110119E+01  0.24620007592E+02  0.47000000000E+01 0. -1.
         -5    1    3    3    0  502  0.78540256232E+02 -0.10791136554E+03 -0.16197913100E+03  0.20993514127E+03  0.47000000000E+01 0. -1.
        -11    1    1    2    0    0 -0.34504343984E+02  0.31812004371E+01 -0.11642730512E+02  0.36554383646E+02  0.00000000000E+00 0.  1.
         11    1    1    2    0    0 -0.20181475002E+02  0.10216732680E+03 -0.16303331650E+03  0.19345624024E+03  0.00000000000E+00 0. -1.
<mgrwt>
<rscale>  0 0.16638547E+03</rscale>
<asrwt>0</asrwt>
<pdfrwt beam="2">  1        1 0.61408742E-01 0.17237249E+03</pdfrwt>
<pdfrwt beam="1">  1       -1 0.10062916E-01 0.17237249E+03</pdfrwt>
<totfact> 0.35880434E+03</totfact>
</mgrwt>
</event>
<event>
 7    1  0.4230786E-006  0.1342270E+03  0.7546771E-02  0.1234182E+00
         -2   -1    0    0    0  501 -0.00000000000E+00  0.00000000000E+00  0.64405301876E+02  0.64405301876E+02  0.00000000000E+00 0. -1.
          2   -1    0    0  501    0  0.00000000000E+00 -0.00000000000E+00 -0.23742364292E+03  0.23742364292E+03  0.00000000000E+00 0.  1.
         23    2    1    2    0    0  0.36322616407E+02  0.32773532762E+02 -0.54324677521E+02  0.14480355533E+03  0.12499384840E+03 0.  0.
          5    1    3    3  502    0  0.62231000368E+01  0.70790344020E+02 -0.63279848755E+02  0.95270294630E+02  0.47000000000E+01 0. -1.
         -5    1    3    3    0  502  0.30099516370E+02 -0.38016811258E+02  0.89551712342E+01  0.49533260701E+02  0.47000000000E+01 0. -1.
        -11    1    1    2    0    0 -0.43177327006E+02 -0.58521861233E+02 -0.67073493529E+02  0.98934035316E+02  0.00000000000E+00 0. -1.
         11    1    1    2    0    0  0.68547105998E+01  0.25748328471E+02 -0.51620169991E+02  0.58091354145E+02  0.00000000000E+00 0.  1.
<mgrwt>
<rscale>  0 0.12556921E+03</rscale>
<asrwt>0</asrwt>
<pdfrwt beam="2">  1        2 0.36526716E-01 0.13422704E+03</pdfrwt>
<pdfrwt beam="1">  1       -2 0.99085076E-02 0.13422704E+03</pdfrwt>
<totfact> 0.89855431E+03</totfact>
</mgrwt>
</event>
<event>
 7    1  0.4230786E-006  0.1444060E+03  0.7546771E-02  0.1218122E+00
          4   -1    0    0  501    0  0.00000000000E+00  0.00000000000E+00  0.80946458063E+02  0.80946458063E+02  0.00000000000E+00 0.  1.
         -4   -1    0    0    0  501 -0.00000000000E+00 -0.00000000000E+00 -0.21758445105E+03  0.21758445105E+03  0.00000000000E+00 0. -1.
         23    2    1    2    0    0  0.54393825794E+02  0.47609482456E+02 -0.10635582843E+03  0.17934509936E+03  0.12501100479E+03 0.  0.
          5    1    3    3  502    0  0.12883330561E+02  0.55927061170E+02 -0.12124297182E+03  0.13422281697E+03  0.47000000000E+01 0.  1.
         -5    1    3    3    0  502  0.41510495233E+02 -0.83175787145E+01  0.14887143393E+02  0.45122282396E+02  0.47000000000E+01 0.  1.
        -11    1    1    2    0    0 -0.21657331178E+02 -0.23642797411E+02  0.31711582099E+02  0.45095967695E+02  0.00000000000E+00 0.  1.
         11    1    1    2    0    0 -0.32736494617E+02 -0.23966685045E+02 -0.61993746655E+02  0.74089842058E+02  0.00000000000E+00 0. -1.
<mgrwt>
<rscale>  0 0.13649680E+03</rscale>
<asrwt>0</asrwt>
<pdfrwt beam="1">  1        4 0.12453301E-01 0.14440603E+03</pdfrwt>
<pdfrwt beam="2">  1       -4 0.33474531E-01 0.14440603E+03</pdfrwt>
<totfact> 0.75239907E+02</totfact>
</mgrwt>
</event>
<event>
 7    1  0.4230786E-006  0.1700640E+03  0.7546771E-02  0.1184848E+00
         -1   -1    0    0    0  501 -0.00000000000E+00  0.00000000000E+00  0.67759162809E+03  0.67759162809E+03  0.00000000000E+00 0.  1.
          1   -1    0    0  501    0  0.00000000000E+00 -0.00000000000E+00 -0.11640755495E+03  0.11640755495E+03  0.00000000000E+00 0. -1.
         23    2    1    2    0    0 -0.79079446665E+02  0.82169820248E+02  0.61585637663E+03  0.63890596149E+03  0.12615986976E+03 0.  0.
          5    1    3    3  502    0 -0.82552226815E+02  0.11158608902E+03  0.53269302476E+03  0.55050002183E+03  0.47000000000E+01 0.  1.
         -5    1    3    3    0  502  0.34727801493E+01 -0.29416268773E+02  0.83163351877E+02  0.88405939653E+02  0.47000000000E+01 0. -1.
        -11    1    1    2    0    0  0.51410460453E+02 -0.85183914486E+02 -0.68119323503E+01  0.99728316709E+02  0.00000000000E+00 0.  1.
         11    1    1    2    0    0  0.27668986212E+02  0.30140942386E+01 -0.47860371141E+02  0.55364904839E+02  0.00000000000E+00 0. -1.
<mgrwt>
<rscale>  0 0.16345718E+03</rscale>
<asrwt>0</asrwt>
<pdfrwt beam="2">  1        1 0.17908855E-01 0.17006396E+03</pdfrwt>
<pdfrwt beam="1">  1       -1 0.10424486E+00 0.17006396E+03</pdfrwt>
<totfact> 0.27348048E+02</totfact>
</mgrwt>
</event>
<event>
 7    1  0.4230786E-006  0.1318100E+03  0.7546771E-02  0.1238188E+00
          1   -1    0    0  501    0  0.00000000000E+00  0.00000000000E+00  0.41353205354E+02  0.41353205354E+02  0.00000000000E+00 0. -1.
         -1   -1    0    0    0  501 -0.00000000000E+00 -0.00000000000E+00 -0.34612659293E+03  0.34612659293E+03  0.00000000000E+00 0.  1.
         23    2    1    2    0    0  0.33652992519E+02 -0.24809342521E+02 -0.21950074263E+03  0.25603602797E+03  0.12500337684E+03 0.  0.
          5    1    3    3  502    0 -0.16251470627E+02 -0.62443289992E+02 -0.78445957508E+02  0.10168152739E+03  0.47000000000E+01 0. -1.
         -5    1    3    3    0  502  0.49904463146E+02  0.37633947472E+02 -0.14105478513E+03  0.15435450059E+03  0.47000000000E+01 0. -1.
        -11    1    1    2    0    0 -0.30620566527E+02  0.39186218225E+02 -0.99345897631E+02  0.11109809255E+03  0.00000000000E+00 0.  1.
         11    1    1    2    0    0 -0.30324259915E+01 -0.14376875704E+02  0.14073252685E+02  0.20345677760E+02  0.00000000000E+00 0. -1.
<mgrwt>
<rscale>  0 0.12302518E+03</rscale>
<asrwt>0</asrwt>
<pdfrwt beam="1">  1        1 0.63620315E-02 0.13180998E+03</pdfrwt>
<pdfrwt beam="2">  1       -1 0.53250246E-01 0.13180998E+03</pdfrwt>
<totfact> 0.41581892E+03</totfact>
</mgrwt>
</event>
<event>
 7    1  0.4230786E-006  0.1680074E+03  0.7546771E-02  0.1186705E+00
         -1   -1    0    0    0  501 -0.00000000000E+00  0.00000000000E+00  0.29255764375E+02  0.29255764375E+02  0.00000000000E+00 0.  1.
          1   -1    0    0  501    0  0.00000000000E+00 -0.00000000000E+00 -0.87069645469E+03  0.87069645469E+03  0.00000000000E+00 0. -1.
         23    2    1    2    0    0  0.11160675509E+03 -0.12024920774E+02 -0.54298420091E+03  0.56838220650E+03  0.12500329485E+03 0.  0.
          5    1    3    3  502    0  0.65678103418E+02 -0.12592673270E+02 -0.50256915081E+03  0.50702073925E+03  0.47000000000E+01 0.  1.
         -5    1    3    3    0  502  0.45928651677E+02  0.56775249600E+00 -0.40415050105E+02  0.61361467247E+02  0.47000000000E+01 0.  1.
        -11    1    1    2    0    0 -0.68099153009E+00 -0.24585348053E+02 -0.81962486037E+02  0.85573081081E+02  0.00000000000E+00 0. -1.
         11    1    1    2    0    0 -0.11092576356E+03  0.36610268827E+02 -0.21649400337E+03  0.24599693148E+03  0.00000000000E+00 0.  1.
<mgrwt>
<rscale>  0 0.16177703E+03</rscale>
<asrwt>0</asrwt>
<pdfrwt beam="2">  1        1 0.13395331E+00 0.16800741E+03</pdfrwt>
<pdfrwt beam="1">  1       -1 0.45008866E-02 0.16800741E+03</pdfrwt>
<totfact> 0.40888958E+03</totfact>
</mgrwt>
</event>
<event>
 7    1  0.4230786E-006  0.1854092E+03  0.7546771E-02  0.1167772E+00
          2   -1    0    0  501    0  0.00000000000E+00  0.00000000000E+00  0.55148388204E+03  0.55148388204E+03  0.00000000000E+00 0.  1.
         -2   -1    0    0    0  501 -0.00000000000E+00 -0.00000000000E+00 -0.96801186223E+02  0.96801186223E+02  0.00000000000E+00 0. -1.
         23    2    1    2    0    0  0.73457443567E+02 -0.11555528414E+03  0.23768601873E+02  0.18692651179E+03  0.12501021825E+03 0.  0.
          5    1    3    3  502    0  0.44030308749E+02  0.76253101629E+01  0.38719606202E+02  0.59313669150E+02  0.47000000000E+01 0. -1.
         -5    1    3    3    0  502  0.29427134818E+02 -0.12318059431E+03 -0.14951004329E+02  0.12761284264E+03  0.47000000000E+01 0. -1.
        -11    1    1    2    0    0 -0.55024326723E+02  0.18489172444E+02  0.23341885985E+03  0.24052835626E+03  0.00000000000E+00 0. -1.
         11    1    1    2    0    0 -0.18433116844E+02  0.97066111700E+02  0.19749523410E+03  0.22083020022E+03  0.00000000000E+00 0.  1.
<mgrwt>
<rscale>  0 0.18003179E+03</rscale>
<asrwt>0</asrwt>
<pdfrwt beam="1">  1        2 0.84843672E-01 0.18540921E+03</pdfrwt>
<pdfrwt beam="2">  1       -2 0.14892491E-01 0.18540921E+03</pdfrwt>
<totfact> 0.19117061E+03</totfact>
</mgrwt>
</event>
<event>
 7    1  0.4230786E-006  0.1252933E+03  0.7546771E-02  0.1249813E+00
          2   -1    0    0  501    0  0.00000000000E+00  0.00000000000E+00  0.10662304286E+03  0.10662304286E+03  0.00000000000E+00 0. -1.
         -2   -1    0    0    0  501 -0.00000000000E+00 -0.00000000000E+00 -0.11146601700E+03  0.11146601700E+03  0.00000000000E+00 0.  1.
         23    2    1    2    0    0  0.83203124890E+01  0.14118132712E+01 -0.10954402869E+02  0.12577129735E+03  0.12500879761E+03 0.  0.
          5    1    3    3  502    0 -0.47139840714E+02  0.31015131445E+02  0.13402443329E+02  0.58187786074E+02  0.47000000000E+01 0. -1.
         -5    1    3    3    0  502  0.55460153203E+02 -0.29603318173E+02 -0.24356846198E+02  0.67583511280E+02  0.47000000000E+01 0. -1.
        -11    1    1    2    0    0 -0.17451074713E+02  0.30487795142E+02  0.34063725809E+02  0.48932433796E+02  0.00000000000E+00 0. -1.
         11    1    1    2    0    0  0.91307622240E+01 -0.31899608413E+02 -0.27952297082E+02  0.43385328716E+02  0.00000000000E+00 0.  1.
<mgrwt>
<rscale>  0 0.11601893E+03</rscale>
<asrwt>0</asrwt>
<pdfrwt beam="1">  1        2 0.16403545E-01 0.12529334E+03</pdfrwt>
<pdfrwt beam="2">  1       -2 0.17148618E-01 0.12529334E+03</pdfrwt>
<totfact> 0.89615011E+03</totfact>
</mgrwt>
</event>
<event>
 7    1  0.4230786E-006  0.1295537E+03  0.7546771E-02  0.1242975E+00
          2   -1    0    0  501    0  0.00000000000E+00  0.00000000000E+00  0.54027552612E+03  0.54027552612E+03  0.00000000000E+00 0. -1.
         -2   -1    0    0    0  501 -0.00000000000E+00 -0.00000000000E+00 -0.23867324227E+02  0.23867324227E+02  0.00000000000E+00 0.  1.
         23    2    1    2    0    0 -0.32228286487E+02 -0.10984985693E+02  0.25991316093E+03  0.29041180676E+03  0.12499933568E+03 0.  0.
          5    1    3    3  502    0  0.13929382588E+02  0.13546571482E+02 -0.47895162625E+01  0.20556428781E+02  0.47000000000E+01 0. -1.
         -5    1    3    3    0  502 -0.46157669075E+02 -0.24531557175E+02  0.26470267719E+03  0.26985537798E+03  0.47000000000E+01 0. -1.
        -11    1    1    2    0    0  0.61528340962E+02 -0.50987202508E+01  0.15361034116E+03  0.16555322589E+03  0.00000000000E+00 0.  1.
         11    1    1    2    0    0 -0.29300054475E+02  0.16083705944E+02  0.10288469980E+03  0.10817781770E+03  0.00000000000E+00 0. -1.
<mgrwt>
<rscale>  0 0.12007418E+03</rscale>
<asrwt>0</asrwt>
<pdfrwt beam="1">  1        2 0.83119302E-01 0.12955372E+03</pdfrwt>
<pdfrwt beam="2">  1       -2 0.36718965E-02 0.12955372E+03</pdfrwt>
<totfact> 0.16773952E+04</totfact>
</mgrwt>
</event>
<event>
 6    1  0.4230786E-006  0.2793426E+03  0.7546771E-02  0.1096049E+00
         -1   -1    0    0    0  501 -0.00000000000E+00  0.00000000000E+00  0.14357503538E+04  0.14357503538E+04  0.00000000000E+00 0.  1.
          1   -1    0    0  501    0  0.00000000000E+00 -0.00000000000E+00 -0.13587371776E+02  0.13587371776E+02  0.00000000000E+00 0. -1.
          5    1    1    2  502    0  0.56257362010E+02 -0.47166216332E+02  0.22782573029E+03  0.23940801183E+03  0.47000000000E+01 0. -1.
         -5    1    1    2    0  502  0.13023532377E+02  0.13543097648E+02  0.71006640278E+03  0.71033049649E+03  0.47000000000E+01 0.  1.
        -11    1    1    2    0    0 -0.35519015494E+02  0.65056289053E+02  0.34553400214E+03  0.35339449322E+03  0.00000000000E+00 0. -1.
         11    1    1    2    0    0 -0.33761878893E+02 -0.31433170368E+02  0.13873684680E+03  0.14620472402E+03  0.00000000000E+00 0.  1.
<mgrwt>
<rscale>  0 0.27934261E+03</rscale>
<asrwt>0</asrwt>
<pdfrwt beam="2">  1        1 0.20903660E-02 0.27934261E+03</pdfrwt>
<pdfrwt beam="1">  1       -1 0.22088455E+00 0.27934261E+03</pdfrwt>
<totfact> 0.69155365E+02</totfact>
</mgrwt>
</event>
<event>
 7    1  0.4230786E-006  0.1505237E+03  0.7546771E-02  0.1209082E+00
         -1   -1    0    0    0  501 -0.00000000000E+00  0.00000000000E+00  0.79732527016E+02  0.79732527016E+02  0.00000000000E+00 0.  1.
          1   -1    0    0  501    0  0.00000000000E+00 -0.00000000000E+00 -0.23526284933E+03  0.23526284933E+03  0.00000000000E+00 0. -1.
         23    2    1    2    0    0  0.83031082820E+02  0.11596926794E+02 -0.81593421915E+02  0.17121582032E+03  0.12501488393E+03 0.  0.
          5    1    3    3  502    0  0.13958802895E+01 -0.44874513845E+02 -0.43494571608E+01  0.45350614684E+02  0.47000000000E+01 0.  1.
         -5    1    3    3    0  502  0.81635202531E+02  0.56471440639E+02 -0.77243964754E+02  0.12586520564E+03  0.47000000000E+01 0.  1.
        -11    1    1    2    0    0 -0.39222279690E+02 -0.50684434585E+02 -0.32032800625E+02  0.71647745597E+02  0.00000000000E+00 0.  1.
         11    1    1    2    0    0 -0.43808803130E+02  0.39087507790E+02 -0.41904099771E+02  0.72131810421E+02  0.00000000000E+00 0. -1.
<mgrwt>
<rscale>  0 0.14320397E+03</rscale>
<asrwt>0</asrwt>
<pdfrwt beam="2">  1        1 0.36194284E-01 0.15052365E+03</pdfrwt>
<pdfrwt beam="1">  1       -1 0.12266543E-01 0.15052365E+03</pdfrwt>
<totfact> 0.50826191E+03</totfact>
</mgrwt>
</event>
<event>
 7    1  0.4230786E-006  0.1609283E+03  0.7546771E-02  0.1192296E+00
          3   -1    0    0  501    0  0.00000000000E+00  0.00000000000E+00  0.27894196359E+03  0.27894196359E+03  0.00000000000E+00 0. -1.
         -3   -1    0    0    0  501 -0.00000000000E+00 -0.00000000000E+00 -0.18043378739E+03  0.18043378739E+03  0.00000000000E+00 0.  1.
         23    2    1    2    0    0 -0.88577971996E+02 -0.49243109561E+02 -0.11737491924E+03  0.19918527742E+03  0.12500784819E+03 0.  0.
          5    1    3    3  502    0 -0.66361717103E+02 -0.18100612081E+01 -0.12915488508E+03  0.14529359297E+03  0.47000000000E+01 0.  1.
         -5    1    3    3    0  502 -0.22216254893E+02 -0.47433048353E+02  0.11779965834E+02  0.53891684447E+02  0.47000000000E+01 0.  1.
        -11    1    1    2    0    0  0.62245532687E+02 -0.22465592065E+02  0.75719940072E+02  0.10056201316E+03  0.00000000000E+00 0.  1.
         11    1    1    2    0    0  0.26332439310E+02  0.71708701626E+02  0.14016315537E+03  0.15962846041E+03  0.00000000000E+00 0. -1.
<mgrwt>
<rscale>  0 0.15685306E+03</rscale>
<asrwt>0</asrwt>
<pdfrwt beam="1">  1        3 0.42914148E-01 0.16092825E+03</pdfrwt>
<pdfrwt beam="2">  1       -3 0.27759044E-01 0.16092825E+03</pdfrwt>
<totfact> 0.16033371E+02</totfact>
</mgrwt>
</event>
<event>
 7    1  0.4230786E-006  0.1616919E+03  0.7546771E-02  0.1194210E+00
         -2   -1    0    0    0  501 -0.00000000000E+00  0.00000000000E+00  0.71475917774E+02  0.71475917774E+02  0.00000000000E+00 0.  1.
          2   -1    0    0  501    0  0.00000000000E+00 -0.00000000000E+00 -0.36314783098E+03  0.36314783098E+03  0.00000000000E+00 0. -1.
         23    2    1    2    0    0  0.95861158282E+02 -0.36474833556E+02 -0.75287891735E+02  0.17836069897E+03  0.12499798856E+03 0.  0.
          5    1    3    3  502    0 -0.22078004229E+02 -0.35040089847E+02 -0.32313336973E+02  0.52739813362E+02  0.47000000000E+01 0. -1.
         -5    1    3    3    0  502  0.11793916251E+03 -0.14347437095E+01 -0.42974554763E+02  0.12562088561E+03  0.47000000000E+01 0. -1.
        -11    1    1    2    0    0 -0.14153213382E+02 -0.27753989005E+02 -0.71159734459E+02  0.77680790180E+02  0.00000000000E+00 0. -1.
         11    1    1    2    0    0 -0.81707944901E+02  0.64228822562E+02 -0.14522428701E+03  0.17858225960E+03  0.00000000000E+00 0.  1.
<mgrwt>
<rscale>  0 0.15521240E+03</rscale>
<asrwt>0</asrwt>
<pdfrwt beam="2">  1        2 0.55868897E-01 0.16169191E+03</pdfrwt>
<pdfrwt beam="1">  1       -2 0.10996295E-01 0.16169191E+03</pdfrwt>
<totfact> 0.49049388E+03</totfact>
</mgrwt>
</event>
<event>
 7    1  0.4230786E-006  0.2393168E+03  0.7546771E-02  0.1122975E+00
         -2   -1    0    0    0  501 -0.00000000000E+00  0.00000000000E+00  0.22381064226E+03  0.22381064226E+03  0.00000000000E+00 0. -1.
          2   -1    0    0  501    0  0.00000000000E+00 -0.00000000000E+00 -0.24400433864E+03  0.24400433864E+03  0.00000000000E+00 0.  1.
         23    2    1    2    0    0  0.65071173648E+02 -0.19342869621E+03  0.21831274154E+02  0.24031045598E+03  0.12499437014E+03 0.  0.
          5    1    3    3  502    0  0.39135861564E+02 -0.10246162210E+02 -0.27053923881E+02  0.48893806333E+02  0.47000000000E+01 0. -1.
         -5    1    3    3    0  502  0.25935312084E+02 -0.18318253400E+03  0.48885198035E+02  0.19141664965E+03  0.47000000000E+01 0. -1.
        -11    1    1    2    0    0 -0.49106137628E+02  0.74049223377E+02 -0.57852905709E+02  0.10602668973E+03  0.00000000000E+00 0.  1.
         11    1    1    2    0    0 -0.15965036020E+02  0.11937947284E+03  0.15827935182E+02  0.12147783519E+03  0.00000000000E+00 0. -1.
<mgrwt>
<rscale>  0 0.23528413E+03</rscale>
<asrwt>0</asrwt>
<pdfrwt beam="2">  1        2 0.37539129E-01 0.23931676E+03</pdfrwt>
<pdfrwt beam="1">  1       -2 0.34432406E-01 0.23931676E+03</pdfrwt>
<totfact> 0.10834415E+03</totfact>
</mgrwt>
</event>
<event>
 6    1  0.4230786E-006  0.2974575E+03  0.7546771E-02  0.1106221E+00
          2   -1    0    0  501    0  0.00000000000E+00  0.00000000000E+00  0.14762203854E+04  0.14762203854E+04  0.00000000000E+00 0. -1.
         -2   -1    0    0    0  501 -0.00000000000E+00 -0.00000000000E+00 -0.38811327668E+02  0.38811327668E+02  0.00000000000E+00 0.  1.
          5    1    1    2  502    0  0.59509721231E+02  0.16212766072E+03  0.86522204914E+03  0.88230270861E+03  0.47000000000E+01 0. -1.
         -5    1    1    2    0  502 -0.83874078990E+02 -0.10756388882E+02  0.12022904640E+03  0.14706350542E+03  0.47000000000E+01 0.  1.
        -11    1    1    2    0    0  0.31505408866E+02 -0.13699490080E+02  0.14755053048E+03  0.15149728004E+03  0.00000000000E+00 0. -1.
         11    1    1    2    0    0 -0.71410511074E+01 -0.13767178176E+03  0.30440743169E+03  0.33416821897E+03  0.00000000000E+00 0.  1.
<mgrwt>
<rscale>  0 0.26153998E+03</rscale>
<asrwt>0</asrwt>
<pdfrwt beam="1">  1        2 0.22711079E+00 0.29745746E+03</pdfrwt>
<pdfrwt beam="2">  1       -2 0.59709746E-02 0.29745746E+03</pdfrwt>
<totfact> 0.20945201E+03</totfact>
</mgrwt>
</event>
<event>
 7    1  0.4230786E-006  0.2288859E+03  0.7546771E-02  0.1130146E+00
          1   -1    0    0  501    0  0.00000000000E+00  0.00000000000E+00  0.81371641544E+03  0.81371641544E+03  0.00000000000E+00 0. -1.
         -1   -1    0    0    0  501 -0.00000000000E+00 -0.00000000000E+00 -0.12472461571E+03  0.12472461571E+03  0.00000000000E+00 0.  1.
         23    2    1    2    0    0 -0.89854604956E+02 -0.16939400451E+03  0.12878155679E+02  0.22924785643E+03  0.12498221470E+03 0.  0.
          5    1    3    3  502    0 -0.60907393327E+02 -0.14244237210E+03  0.61193025199E+02  0.16663197852E+03  0.47000000000E+01 0.  1.
         -5    1    3    3    0  502 -0.28947211630E+02 -0.26951632406E+02 -0.48314869520E+02  0.62615877916E+02  0.47000000000E+01 0.  1.
        -11    1    1    2    0    0  0.84711552438E+02  0.62477950193E+02  0.28977325301E+03  0.30829868559E+03  0.00000000000E+00 0.  1.
         11    1    1    2    0    0  0.51430525177E+01  0.10691605431E+03  0.38634039104E+03  0.40089448912E+03  0.00000000000E+00 0. -1.
<mgrwt>
<rscale>  0 0.22508802E+03</rscale>
<asrwt>0</asrwt>
<pdfrwt beam="1">  1        1 0.12518714E+00 0.22888585E+03</pdfrwt>
<pdfrwt beam="2">  1       -1 0.19188403E-01 0.22888585E+03</pdfrwt>
<totfact> 0.48858627E+02</totfact>
</mgrwt>
</event>
<event>
 7    1  0.4230786E-006  0.1788353E+03  0.7546771E-02  0.1174710E+00
          1   -1    0    0  501    0  0.00000000000E+00  0.00000000000E+00  0.12253823150E+03  0.12253823150E+03  0.00000000000E+00 0. -1.
         -1   -1    0    0    0  501 -0.00000000000E+00 -0.00000000000E+00 -0.23028813192E+03  0.23028813192E+03  0.00000000000E+00 0.  1.
         23    2    1    2    0    0  0.10922112437E+03 -0.66590806379E+02 -0.65612025009E+02  0.19049149846E+03  0.12497393191E+03 0.  0.
          5    1    3    3  502    0 -0.98476141006E+01  0.10557450584E+02 -0.44444908213E+02  0.46966744963E+02  0.47000000000E+01 0.  1.
         -5    1    3    3    0  502  0.11906873847E+03 -0.77148256964E+02 -0.21167116796E+02  0.14352475350E+03  0.47000000000E+01 0.  1.
        -11    1    1    2    0    0  0.84252942412E+01  0.10800856789E+02 -0.28244824630E+02  0.31391307854E+02  0.00000000000E+00 0.  1.
         11    1    1    2    0    0 -0.11764641861E+03  0.55789949590E+02 -0.13893050782E+02  0.13094355710E+03  0.00000000000E+00 0. -1.
<mgrwt>
<rscale>  0 0.17304382E+03</rscale>
<asrwt>0</asrwt>
<pdfrwt beam="1">  1        1 0.18852036E-01 0.17883532E+03</pdfrwt>
<pdfrwt beam="2">  1       -1 0.35428943E-01 0.17883532E+03</pdfrwt>
<totfact> 0.20772698E+03</totfact>
</mgrwt>
</event>
<event>
 7    1  0.4230786E-006  0.1415750E+03  0.7546771E-02  0.1221049E+00
         -2   -1    0    0    0  501 -0.00000000000E+00  0.00000000000E+00  0.90920545559E+02  0.90920545559E+02  0.00000000000E+00 0.  1.
          2   -1    0    0  501    0  0.00000000000E+00 -0.00000000000E+00 -0.28067547022E+03  0.28067547022E+03  0.00000000000E+00 0. -1.
         23    2    1    2    0    0  0.31404032933E+02  0.58417530449E+02  0.90995943854E+01  0.14186712857E+03  0.12507860889E+03 0.  0.
          5    1    3    3  502    0 -0.38294990128E+02  0.26109570096E+02 -0.30128739791E+02  0.55480148530E+02  0.47000000000E+01 0. -1.
         -5    1    3    3    0  502  0.69699023060E+02  0.32307960353E+02  0.39228334176E+02  0.86386980037E+02  0.47000000000E+01 0. -1.
        -11    1    1    2    0    0  0.19475616041E+02 -0.54060248679E+02 -0.66624563056E+02  0.87980921283E+02  0.00000000000E+00 0.  1.
         11    1    1    2    0    0 -0.50879648973E+02 -0.43572817703E+01 -0.13222995599E+03  0.14174796593E+03  0.00000000000E+00 0. -1.
<mgrwt>
<rscale>  0 0.13441387E+03</rscale>
<asrwt>0</asrwt>
<pdfrwt beam="2">  1        2 0.43180842E-01 0.14157500E+03</pdfrwt>
<pdfrwt beam="1">  1       -2 0.13987776E-01 0.14157500E+03</pdfrwt>
<totfact> 0.43530938E+03</totfact>
</mgrwt>
</event>
<event>
 7    1  0.4230786E-006  0.1290031E+03  0.7546771E-02  0.1242599E+00
          2   -1    0    0  501    0  0.00000000000E+00  0.00000000000E+00  0.75422342984E+02  0.75422342984E+02  0.00000000000E+00 0. -1.
         -2   -1    0    0    0  501 -0.00000000000E+00 -0.00000000000E+00 -0.17112253670E+03  0.17112253670E+03  0.00000000000E+00 0.  1.
         23    2    1    2    0    0 -0.25987808377E+02  0.18427594763E+02 -0.63643077531E+02  0.14384799016E+03  0.12500744186E+03 0.  0.
          5    1    3    3  502    0 -0.45126032492E+02 -0.43037127391E+02 -0.43698195176E+02  0.76290074086E+02  0.47000000000E+01 0. -1.
         -5    1    3    3    0  502  0.19138224114E+02  0.61464722153E+02 -0.19944882355E+02  0.67557916071E+02  0.47000000000E+01 0. -1.
        -11    1    1    2    0    0  0.25056851881E+02  0.20293123432E+02 -0.50407470611E+02  0.59837862413E+02  0.00000000000E+00 0.  1.
         11    1    1    2    0    0  0.93095649631E+00 -0.38720718194E+02  0.18350354426E+02  0.42859027113E+02  0.00000000000E+00 0. -1.
<mgrwt>
<rscale>  0 0.12030232E+03</rscale>
<asrwt>0</asrwt>
<pdfrwt beam="1">  1        2 0.11603437E-01 0.12900311E+03</pdfrwt>
<pdfrwt beam="2">  1       -2 0.26326544E-01 0.12900311E+03</pdfrwt>
<totfact> 0.65086797E+03</totfact>
</mgrwt>
</event>
<event>
 7    1  0.4230786E-006  0.1790429E+03  0.7546771E-02  0.1173767E+00
          2   -1    0    0  501    0  0.00000000000E+00  0.00000000000E+00  0.93535246892E+02  0.93535246892E+02  0.00000000000E+00 0. -1.
         -2   -1    0    0    0  501 -0.00000000000E+00 -0.00000000000E+00 -0.40982723223E+03  0.40982723223E+03  0.00000000000E+00 0.  1.
         23    2    1    2    0    0 -0.10959325222E+03 -0.66481918493E+02 -0.29113399135E+03  0.34178261794E+03  0.12500332231E+03 0.  0.
          5    1    3    3  502    0 -0.88617185360E+02 -0.82797028284E+02 -0.29044916525E+03  0.31478748550E+03  0.47000000000E+01 0. -1.
         -5    1    3    3    0  502 -0.20976066861E+02  0.16315109791E+02 -0.68482609501E+00  0.26995132435E+02  0.47000000000E+01 0. -1.
        -11    1    1    2    0    0  0.51041350084E+02 -0.11782416701E+01 -0.47087927447E+02  0.69454161740E+02  0.00000000000E+00 0.  1.
         11    1    1    2    0    0  0.58551902137E+02  0.67660160163E+02  0.21929933452E+02  0.92125699446E+02  0.00000000000E+00 0. -1.
<mgrwt>
<rscale>  0 0.17397320E+03</rscale>
<asrwt>0</asrwt>
<pdfrwt beam="1">  1        2 0.14390038E-01 0.17904289E+03</pdfrwt>
<pdfrwt beam="2">  1       -2 0.63050343E-01 0.17904289E+03</pdfrwt>
<totfact> 0.96553847E+02</totfact>
</mgrwt>
</event>
<event>
 7    1  0.4230786E-006  0.1268977E+03  0.7546771E-02  0.1275856E+00
         -1   -1    0    0    0  501 -0.00000000000E+00  0.00000000000E+00  0.67076936004E+02  0.67076936004E+02  0.00000000000E+00 0.  1.
          1   -1    0    0  501    0  0.00000000000E+00 -0.00000000000E+00 -0.17182967848E+03  0.17182967848E+03  0.00000000000E+00 0. -1.
         23    2    1    2    0    0  0.99495464189E+01 -0.19473016036E+02 -0.64031354143E+01  0.12705913679E+03  0.12499932909E+03 0.  0.
          5    1    3    3  502    0 -0.17759204719E+02 -0.67600064648E+02 -0.11904522801E+02  0.71056074728E+02  0.47000000000E+01 0.  1.
         -5    1    3    3    0  502  0.27708751137E+02  0.48127048612E+02  0.55013873870E+01  0.56003062067E+02  0.47000000000E+01 0.  1.
        -11    1    1    2    0    0  0.18837642052E+02  0.60738796567E+01 -0.52226780682E+02  0.55851458285E+02  0.00000000000E+00 0. -1.
         11    1    1    2    0    0 -0.28787188471E+02  0.13399136379E+02 -0.46122826379E+02  0.55996019403E+02  0.00000000000E+00 0.  1.
<mgrwt>
<rscale>  0 0.10214139E+03</rscale>
<asrwt>0</asrwt>
<pdfrwt beam="2">  1        1 0.26435335E-01 0.12689769E+03</pdfrwt>
<pdfrwt beam="1">  1       -1 0.10319529E-01 0.12689769E+03</pdfrwt>
<totfact> 0.96858549E+03</totfact>
</mgrwt>
</event>
<event>
 7    1  0.4230786E-006  0.2308671E+03  0.7546771E-02  0.1128718E+00
          2   -1    0    0  501    0  0.00000000000E+00  0.00000000000E+00  0.11794356250E+03  0.11794356250E+03  0.00000000000E+00 0. -1.
         -2   -1    0    0    0  501 -0.00000000000E+00 -0.00000000000E+00 -0.47988776919E+03  0.47988776919E+03  0.00000000000E+00 0.  1.
         23    2    1    2    0    0 -0.19073795862E+03 -0.37710883803E+02 -0.28878348266E+03  0.36972354680E+03  0.12448502556E+03 0.  0.
          5    1    3    3  502    0  0.17297514533E+01  0.90318847737E+00 -0.90578857281E+02  0.90721701791E+02  0.47000000000E+01 0. -1.
         -5    1    3    3    0  502 -0.19246771008E+03 -0.38614072281E+02 -0.19820462538E+03  0.27900184501E+03  0.47000000000E+01 0. -1.
        -11    1    1    2    0    0  0.91380256246E+02  0.61707482245E+02 -0.17262578744E+02  0.11160717370E+03  0.00000000000E+00 0. -1.
         11    1    1    2    0    0  0.99357702376E+02 -0.23996598442E+02 -0.55898145292E+02  0.11650061118E+03  0.00000000000E+00 0.  1.
<mgrwt>
<rscale>  0 0.22707202E+03</rscale>
<asrwt>0</asrwt>
<pdfrwt beam="1">  1        2 0.18145164E-01 0.23086706E+03</pdfrwt>
<pdfrwt beam="2">  1       -2 0.73828887E-01 0.23086706E+03</pdfrwt>
<totfact> 0.52854785E+02</totfact>
</mgrwt>
</event>
<event>
 7    1  0.4230786E-006  0.2926709E+03  0.7546771E-02  0.1090547E+00
         -2   -1    0    0    0  501 -0.00000000000E+00  0.00000000000E+00  0.85113233618E+03  0.85113233618E+03  0.00000000000E+00 0.  1.
          2   -1    0    0  501    0  0.00000000000E+00 -0.00000000000E+00 -0.10564780715E+03  0.10564780715E+03  0.00000000000E+00 0. -1.
         23    2    1    2    0    0 -0.23509425654E+03  0.12149925236E+03  0.52021510391E+03  0.59689195304E+03  0.12499948594E+03 0.  0.
          5    1    3    3  502    0 -0.11625160872E+03 -0.40211751864E+01  0.16637825762E+03  0.20306260362E+03  0.47000000000E+01 0.  1.
         -5    1    3    3    0  502 -0.11884264781E+03  0.12552042755E+03  0.35383684629E+03  0.39382934942E+03  0.47000000000E+01 0.  1.
        -11    1    1    2    0    0  0.14749677674E+03 -0.59433379891E+02  0.18802594731E+03  0.24625471093E+03  0.00000000000E+00 0.  1.
         11    1    1    2    0    0  0.87597479800E+02 -0.62065872473E+02  0.37243477801E+02  0.11363347936E+03  0.00000000000E+00 0. -1.
<mgrwt>
<rscale>  0 0.28962227E+03</rscale>
<asrwt>0</asrwt>
<pdfrwt beam="2">  1        2 0.16253509E-01 0.29267089E+03</pdfrwt>
<pdfrwt beam="1">  1       -2 0.13094343E+00 0.29267089E+03</pdfrwt>
<totfact> 0.15896323E+02</totfact>
</mgrwt>
</event>
<event>
 7    1  0.4230786E-006  0.1279813E+03  0.7546771E-02  0.1245122E+00
         -2   -1    0    0    0  501 -0.00000000000E+00  0.00000000000E+00  0.10995750908E+03  0.10995750908E+03  0.00000000000E+00 0.  1.
          2   -1    0    0  501    0  0.00000000000E+00 -0.00000000000E+00 -0.11336646823E+03  0.11336646823E+03  0.00000000000E+00 0. -1.
         23    2    1    2    0    0  0.42027359301E+01 -0.27034654389E+02  0.42788013187E+01  0.12805279894E+03  0.12502270054E+03 0.  0.
          5    1    3    3  502    0  0.11475156535E+02 -0.74852159882E+02  0.17140445873E+02  0.77784381088E+02  0.47000000000E+01 0. -1.
         -5    1    3    3    0  502 -0.72724206054E+01  0.47817505493E+02 -0.12861644555E+02  0.50268417856E+02  0.47000000000E+01 0. -1.
        -11    1    1    2    0    0  0.20589881813E+02  0.48037941582E+02 -0.25567814460E+02  0.58183332671E+02  0.00000000000E+00 0.  1.
         11    1    1    2    0    0 -0.24792617743E+02 -0.21003287193E+02  0.17880053997E+02  0.37087845696E+02  0.00000000000E+00 0. -1.
<mgrwt>
<rscale>  0 0.11878063E+03</rscale>
<asrwt>0</asrwt>
<pdfrwt beam="2">  1        2 0.17440995E-01 0.12798129E+03</pdfrwt>
<pdfrwt beam="1">  1       -2 0.16916540E-01 0.12798129E+03</pdfrwt>
<totfact> 0.85556617E+03</totfact>
</mgrwt>
</event>
<event>
 7    1  0.4230786E-006  0.1273535E+03  0.7546771E-02  0.1246453E+00
          1   -1    0    0  501    0  0.00000000000E+00  0.00000000000E+00  0.15934918550E+03  0.15934918550E+03  0.00000000000E+00 0. -1.
         -1   -1    0    0    0  501 -0.00000000000E+00 -0.00000000000E+00 -0.11144905826E+03  0.11144905826E+03  0.00000000000E+00 0.  1.
         23    2    1    2    0    0  0.23983453991E+02 -0.42028288044E+01 -0.48500139370E+02  0.13627610178E+03  0.12500417018E+03 0.  0.
          5    1    3    3  502    0 -0.31123051912E+02  0.20623592267E+02 -0.63510988503E+02  0.73822168614E+02  0.47000000000E+01 0.  1.
         -5    1    3    3    0  502  0.55106505903E+02 -0.24826421072E+02  0.15010849132E+02  0.62453933165E+02  0.47000000000E+01 0.  1.
        -11    1    1    2    0    0 -0.32324520072E+01 -0.25496140025E+02 -0.55785478491E+01  0.26298709061E+02  0.00000000000E+00 0.  1.
         11    1    1    2    0    0 -0.20751001983E+02  0.29698968830E+02  0.10197881446E+03  0.10822343291E+03  0.00000000000E+00 0. -1.
<mgrwt>
<rscale>  0 0.11798810E+03</rscale>
<asrwt>0</asrwt>
<pdfrwt beam="1">  1        1 0.24515259E-01 0.12735349E+03</pdfrwt>
<pdfrwt beam="2">  1       -1 0.17146009E-01 0.12735349E+03</pdfrwt>
<totfact> 0.48424395E+03</totfact>
</mgrwt>
</event>
<event>
 7    1  0.4230786E-006  0.1339021E+03  0.7546771E-02  0.1234322E+00
         -1   -1    0    0    0  501 -0.00000000000E+00  0.00000000000E+00  0.32156377750E+03  0.32156377750E+03  0.00000000000E+00 0.  1.
          1   -1    0    0  501    0  0.00000000000E+00 -0.00000000000E+00 -0.86961975582E+02  0.86961975582E+02  0.00000000000E+00 0. -1.
         23    2    1    2    0    0 -0.20489385144E+02 -0.43273126855E+02  0.26834036479E+03  0.29989384995E+03  0.12504955598E+03 0.  0.
          5    1    3    3  502    0  0.50259288361E+02  0.17642858520E+00  0.92350212058E+02  0.10524580211E+03  0.47000000000E+01 0.  1.
         -5    1    3    3    0  502 -0.70748673505E+02 -0.43449555440E+02  0.17599015273E+03  0.19464804784E+03  0.47000000000E+01 0.  1.
        -11    1    1    2    0    0  0.46417303858E+02  0.54179814337E+02 -0.10433362979E+02  0.72103213813E+02  0.00000000000E+00 0.  1.
         11    1    1    2    0    0 -0.25927918715E+02 -0.10906687482E+02 -0.23305199899E+02  0.36528689315E+02  0.00000000000E+00 0. -1.
<mgrwt>
<rscale>  0 0.12547968E+03</rscale>
<asrwt>0</asrwt>
<pdfrwt beam="2">  1        1 0.13378766E-01 0.13390209E+03</pdfrwt>
<pdfrwt beam="1">  1       -1 0.49471350E-01 0.13390209E+03</pdfrwt>
<totfact> 0.17724534E+03</totfact>
</mgrwt>
</event>
<event>
 7    1  0.4230786E-006  0.1450684E+03  0.7546771E-02  0.1216327E+00
         -1   -1    0    0    0  501 -0.00000000000E+00  0.00000000000E+00  0.12452486032E+04  0.12452486032E+04  0.00000000000E+00 0.  1.
          1   -1    0    0  501    0  0.00000000000E+00 -0.00000000000E+00 -0.16706402368E+02  0.16706402368E+02  0.00000000000E+00 0. -1.
         23    2    1    2    0    0 -0.72444119595E+02 -0.13003921484E+02  0.92400099797E+03  0.93531955884E+03  0.12501032143E+03 0.  0.
          5    1    3    3  502    0 -0.45017743745E+02 -0.27458347607E+02  0.87830931818E+03  0.87990335066E+03  0.47000000000E+01 0.  1.
         -5    1    3    3    0  502 -0.27426375851E+02  0.14454426123E+02  0.45691679788E+02  0.55416208177E+02  0.47000000000E+01 0.  1.
        -11    1    1    2    0    0 -0.64947421011E+00  0.32900677282E+02  0.16102886032E+03  0.16435683812E+03  0.00000000000E+00 0.  1.
         11    1    1    2    0    0  0.73093593806E+02 -0.19896755798E+02  0.14351234251E+03  0.16227860857E+03  0.00000000000E+00 0. -1.
<mgrwt>
<rscale>  0 0.13779495E+03</rscale>
<asrwt>0</asrwt>
<pdfrwt beam="2">  1        1 0.25702167E-02 0.14506837E+03</pdfrwt>
<pdfrwt beam="1">  1       -1 0.19157664E+00 0.14506837E+03</pdfrwt>
<totfact> 0.79642107E+02</totfact>
</mgrwt>
</event>
<event>
 7    1  0.4230786E-006  0.1796890E+03  0.7546771E-02  0.1173794E+00
          2   -1    0    0  501    0  0.00000000000E+00  0.00000000000E+00  0.41444520762E+03  0.41444520762E+03  0.00000000000E+00 0. -1.
         -2   -1    0    0    0  501 -0.00000000000E+00 -0.00000000000E+00 -0.69678285294E+02  0.69678285294E+02  0.00000000000E+00 0.  1.
         23    2    1    2    0    0 -0.83726003568E+02 -0.98225067615E+02  0.15483843079E+03  0.23719839584E+03  0.12501972547E+03 0.  0.
          5    1    3    3  502    0 -0.57255764969E+02 -0.92098863553E+01  0.12770478451E+03  0.14033405366E+03  0.47000000000E+01 0.  1.
         -5    1    3    3    0  502 -0.26470238600E+02 -0.89015181260E+02  0.27133646285E+02  0.96864342185E+02  0.47000000000E+01 0.  1.
        -11    1    1    2    0    0  0.26269732482E+02  0.93351804244E+02  0.14194072005E+03  0.17190644609E+03  0.00000000000E+00 0. -1.
         11    1    1    2    0    0  0.57456271086E+02  0.48732633711E+01  0.47987771479E+02  0.75018650978E+02  0.00000000000E+00 0.  1.
<mgrwt>
<rscale>  0 0.17394592E+03</rscale>
<asrwt>0</asrwt>
<pdfrwt beam="1">  1        2 0.63760800E-01 0.17968901E+03</pdfrwt>
<pdfrwt beam="2">  1       -2 0.10719736E-01 0.17968901E+03</pdfrwt>
<totfact> 0.44536401E+03</totfact>
</mgrwt>
</event>
<event>
 7    1  0.4230786E-006  0.1852424E+03  0.7546771E-02  0.1171967E+00
          1   -1    0    0  501    0  0.00000000000E+00  0.00000000000E+00  0.17533893573E+02  0.17533893573E+02  0.00000000000E+00 0. -1.
         -1   -1    0    0    0  501 -0.00000000000E+00 -0.00000000000E+00 -0.18140659013E+04  0.18140659013E+04  0.00000000000E+00 0.  1.
         23    2    1    2    0    0 -0.82495945878E+02 -0.10576212182E+02 -0.11254454574E+04  0.11354159724E+04  0.12499806154E+03 0.  0.
          5    1    3    3  502    0 -0.28227981005E+00 -0.37791602090E+02 -0.70967632651E+03  0.71069744848E+03  0.47000000000E+01 0.  1.
         -5    1    3    3    0  502 -0.82213666068E+02  0.27215389908E+02 -0.41576913093E+03  0.42471852393E+03  0.47000000000E+01 0.  1.
        -11    1    1    2    0    0 -0.23353865036E+02  0.44599839392E+02 -0.78496517934E+02  0.93253697051E+02  0.00000000000E+00 0. -1.
         11    1    1    2    0    0  0.10584981091E+03 -0.34023627210E+02 -0.59259003231E+03  0.60293012537E+03  0.00000000000E+00 0.  1.
<mgrwt>
<rscale>  0 0.17576374E+03</rscale>
<asrwt>0</asrwt>
<pdfrwt beam="1">  1        1 0.26975232E-02 0.18524243E+03</pdfrwt>
<pdfrwt beam="2">  1       -1 0.27908694E+00 0.18524243E+03</pdfrwt>
<totfact> 0.20761925E+02</totfact>
</mgrwt>
</event>
<event>
 7    1  0.4230786E-006  0.1355272E+03  0.7546771E-02  0.1231278E+00
         -2   -1    0    0    0  501 -0.00000000000E+00  0.00000000000E+00  0.10581483954E+03  0.10581483954E+03  0.00000000000E+00 0.  1.
          2   -1    0    0  501    0  0.00000000000E+00 -0.00000000000E+00 -0.19115365792E+03  0.19115365792E+03  0.00000000000E+00 0. -1.
         23    2    1    2    0    0  0.46747757355E+02  0.23598562423E+02  0.31561735944E+02  0.13915373829E+03  0.12500149895E+03 0.  0.
          5    1    3    3  502    0 -0.15538964216E+02  0.16640792051E+02  0.64239026529E+02  0.68316307704E+02  0.47000000000E+01 0.  1.
         -5    1    3    3    0  502  0.62286721572E+02  0.69577703728E+01 -0.32677290585E+02  0.70837430590E+02  0.47000000000E+01 0.  1.
        -11    1    1    2    0    0 -0.70654705631E+02  0.23796389994E+01 -0.79345691967E+02  0.10627082828E+03  0.00000000000E+00 0. -1.
         11    1    1    2    0    0  0.23906948276E+02 -0.25978201423E+02 -0.37554862351E+02  0.51543930886E+02  0.00000000000E+00 0.  1.
<mgrwt>
<rscale>  0 0.12745722E+03</rscale>
<asrwt>0</asrwt>
<pdfrwt beam="2">  1        2 0.29408255E-01 0.13552719E+03</pdfrwt>
<pdfrwt beam="1">  1       -2 0.16279206E-01 0.13552719E+03</pdfrwt>
<totfact> 0.51128254E+03</totfact>
</mgrwt>
</event>
<event>
 7    1  0.4230786E-006  0.3074913E+03  0.7546771E-02  0.1081555E+00
         -1   -1    0    0    0  501 -0.00000000000E+00  0.00000000000E+00  0.13800731820E+03  0.13800731820E+03  0.00000000000E+00 0.  1.
          1   -1    0    0  501    0  0.00000000000E+00 -0.00000000000E+00 -0.17127880723E+03  0.17127880723E+03  0.00000000000E+00 0. -1.
         23    2    1    2    0    0 -0.51463481414E+02  0.46924849224E+01  0.44622853619E+02  0.14243093875E+03  0.12499945565E+03 0.  0.
          5    1    3    3  502    0 -0.73050353440E+01  0.54758349831E+02 -0.96382845758E+01  0.56274567498E+02  0.47000000000E+01 0.  1.
         -5    1    3    3    0  502 -0.44158446070E+02 -0.50065864908E+02  0.54261138195E+02  0.86156371248E+02  0.47000000000E+01 0.  1.
        -11    1    1    2    0    0  0.27428098464E+02 -0.61139457280E+02  0.87100520097E+00  0.67015613642E+02  0.00000000000E+00 0.  1.
         11    1    1    2    0    0  0.24035382950E+02  0.56446972357E+02 -0.78765347858E+02  0.99839573041E+02  0.00000000000E+00 0. -1.
<mgrwt>
<rscale>  0 0.30749133E+03</rscale>
<asrwt>0</asrwt>
<pdfrwt beam="2">  1        1 0.26350586E-01 0.30749133E+03</pdfrwt>
<pdfrwt beam="1">  1       -1 0.21231895E-01 0.30749133E+03</pdfrwt>
<totfact> 0.32648248E+03</totfact>
</mgrwt>
</event>
<event>
 7    1  0.4230786E-006  0.1381638E+03  0.7546771E-02  0.1227698E+00
         -1   -1    0    0    0  501 -0.00000000000E+00  0.00000000000E+00  0.20557364728E+03  0.20557364728E+03  0.00000000000E+00 0.  1.
          1   -1    0    0  501    0  0.00000000000E+00 -0.00000000000E+00 -0.73952712584E+02  0.73952712584E+02  0.00000000000E+00 0. -1.
         23    2    1    2    0    0 -0.39641681718E+02 -0.43519803567E+02  0.84254867534E+02  0.16182739508E+03  0.12499514736E+03 0.  0.
          5    1    3    3  502    0 -0.37620899373E+01 -0.26562283002E+02  0.11063826592E+03  0.11394131860E+03  0.47000000000E+01 0. -1.
         -5    1    3    3    0  502 -0.35879591780E+02 -0.16957520565E+02 -0.26383398388E+02  0.47886076479E+02  0.47000000000E+01 0. -1.
        -11    1    1    2    0    0  0.57204061760E+02  0.35167345258E+02  0.63508433651E+02  0.92424931696E+02  0.00000000000E+00 0.  1.
         11    1    1    2    0    0 -0.17562380042E+02  0.83524583092E+01 -0.16142366488E+02  0.25274033085E+02  0.00000000000E+00 0. -1.
<mgrwt>
<rscale>  0 0.12983665E+03</rscale>
<asrwt>0</asrwt>
<pdfrwt beam="2">  1        1 0.11377340E-01 0.13816375E+03</pdfrwt>
<pdfrwt beam="1">  1       -1 0.31626715E-01 0.13816375E+03</pdfrwt>
<totfact> 0.48066049E+03</totfact>
</mgrwt>
</event>
<event>
 7    1  0.4230786E-006  0.1450853E+03  0.7546771E-02  0.1219328E+00
          4   -1    0    0  501    0  0.00000000000E+00  0.00000000000E+00  0.92876281111E+02  0.92876281111E+02  0.00000000000E+00 0.  1.
         -4   -1    0    0    0  501 -0.00000000000E+00 -0.00000000000E+00 -0.30640240901E+03  0.30640240901E+03  0.00000000000E+00 0. -1.
         23    2    1    2    0    0  0.59233412276E+02  0.43703115640E+02 -0.24442083400E+03  0.28423806966E+03  0.12502470438E+03 0.  0.
          5    1    3    3  502    0  0.26013925361E+02 -0.43875645730E+02 -0.81975921901E+02  0.96664049017E+02  0.47000000000E+01 0. -1.
         -5    1    3    3    0  502  0.33219486915E+02  0.87578761370E+02 -0.16244491210E+03  0.18757402064E+03  0.47000000000E+01 0. -1.
        -11    1    1    2    0    0 -0.11452274659E+02 -0.47127828949E+02  0.43884777583E+02  0.65406884651E+02  0.00000000000E+00 0. -1.
         11    1    1    2    0    0 -0.47781137616E+02  0.34247133091E+01 -0.12990071481E+02  0.49633735808E+02  0.00000000000E+00 0.  1.
<mgrwt>
<rscale>  0 0.13563341E+03</rscale>
<asrwt>0</asrwt>
<pdfrwt beam="1">  1        4 0.14288658E-01 0.14508527E+03</pdfrwt>
<pdfrwt beam="2">  1       -4 0.47138833E-01 0.14508527E+03</pdfrwt>
<totfact> 0.30258232E+02</totfact>
</mgrwt>
</event>
<event>
 7    1  0.4230786E-006  0.1273917E+03  0.7546771E-02  0.1245782E+00
          1   -1    0    0  501    0  0.00000000000E+00  0.00000000000E+00  0.12912667165E+03  0.12912667165E+03  0.00000000000E+00 0. -1.
         -1   -1    0    0    0  501 -0.00000000000E+00 -0.00000000000E+00 -0.12173049541E+03  0.12173049541E+03  0.00000000000E+00 0.  1.
         23    2    1    2    0    0 -0.22100658346E+01  0.24489329287E+02 -0.53318899448E+02  0.13809978884E+03  0.12499613994E+03 0.  0.
          5    1    3    3  502    0  0.37633217735E+02  0.45069829067E+02  0.10627637150E+02  0.59854701073E+02  0.47000000000E+01 0.  1.
         -5    1    3    3    0  502 -0.39843283569E+02 -0.20580499780E+02 -0.63946536598E+02  0.78245087767E+02  0.47000000000E+01 0.  1.
        -11    1    1    2    0    0  0.40897858146E+02 -0.31785387205E+02  0.18420848245E+02  0.54975206146E+02  0.00000000000E+00 0.  1.
         11    1    1    2    0    0 -0.38687792311E+02  0.72960579181E+01  0.42294227440E+02  0.57782172076E+02  0.00000000000E+00 0. -1.
<mgrwt>
<rscale>  0 0.11838706E+03</rscale>
<asrwt>0</asrwt>
<pdfrwt beam="1">  1        1 0.19865642E-01 0.12739171E+03</pdfrwt>
<pdfrwt beam="2">  1       -1 0.18727769E-01 0.12739171E+03</pdfrwt>
<totfact> 0.54886282E+03</totfact>
</mgrwt>
</event>
<event>
 7    1  0.4230786E-006  0.1602310E+03  0.7546771E-02  0.1192905E+00
         -1   -1    0    0    0  501 -0.00000000000E+00  0.00000000000E+00  0.81845955907E+02  0.81845955907E+02  0.00000000000E+00 0.  1.
          1   -1    0    0  501    0  0.00000000000E+00 -0.00000000000E+00 -0.34295841422E+03  0.34295841422E+03  0.00000000000E+00 0. -1.
         23    2    1    2    0    0 -0.95240007313E+02  0.60016842316E+02 -0.48609072398E+02  0.16744197920E+03  0.11402321748E+03 0.  0.
          5    1    3    3  502    0 -0.77774406032E+02 -0.83680793181E+01 -0.56005085934E+02  0.96320001223E+02  0.47000000000E+01 0. -1.
         -5    1    3    3    0  502 -0.17465601282E+02  0.68384921635E+02  0.73960135358E+01  0.71121977977E+02  0.47000000000E+01 0.  1.
        -11    1    1    2    0    0  0.61793549499E+02 -0.83786969962E+02 -0.14968622823E+03  0.18233119870E+03  0.00000000000E+00 0. -1.
         11    1    1    2    0    0  0.33446457814E+02  0.23770127646E+02 -0.62817157686E+02  0.75031192236E+02  0.00000000000E+00 0.  1.
<mgrwt>
<rscale>  0 0.15632839E+03</rscale>
<asrwt>0</asrwt>
<pdfrwt beam="2">  1        1 0.52762834E-01 0.16023100E+03</pdfrwt>
<pdfrwt beam="1">  1       -1 0.12591685E-01 0.16023100E+03</pdfrwt>
<totfact> 0.30639460E+03</totfact>
</mgrwt>
</event>
<event>
 7    1  0.4230786E-006  0.1399546E+03  0.7546771E-02  0.1225035E+00
         -1   -1    0    0    0  501 -0.00000000000E+00  0.00000000000E+00  0.95436641626E+03  0.95436641626E+03  0.00000000000E+00 0.  1.
          1   -1    0    0  501    0  0.00000000000E+00 -0.00000000000E+00 -0.28234494582E+02  0.28234494582E+02  0.00000000000E+00 0. -1.
         23    2    1    2    0    0  0.60519905265E+02 -0.17335674850E+02  0.81357502036E+03  0.82552504135E+03  0.12499638229E+03 0.  0.
          5    1    3    3  502    0  0.18804534349E+02 -0.50015506859E+02  0.67438144591E+03  0.67651133474E+03  0.47000000000E+01 0.  1.
         -5    1    3    3    0  502  0.41715370916E+02  0.32679832009E+02  0.13919357445E+03  0.14901370662E+03  0.47000000000E+01 0.  1.
        -11    1    1    2    0    0 -0.78808595931E+02 -0.37325979171E+01  0.66293002270E+02  0.10305090601E+03  0.00000000000E+00 0. -1.
         11    1    1    2    0    0  0.18288690667E+02  0.21068272767E+02  0.46263899040E+02  0.54024963472E+02  0.00000000000E+00 0.  1.
<mgrwt>
<rscale>  0 0.13164520E+03</rscale>
<asrwt>0</asrwt>
<pdfrwt beam="2">  1        1 0.43437691E-02 0.13995456E+03</pdfrwt>
<pdfrwt beam="1">  1       -1 0.14682558E+00 0.13995456E+03</pdfrwt>
<totfact> 0.79952074E+02</totfact>
</mgrwt>
</event>
<event>
 7    1  0.4230786E-006  0.1935217E+03  0.7546771E-02  0.1160064E+00
         -2   -1    0    0    0  501 -0.00000000000E+00  0.00000000000E+00  0.78087414658E+02  0.78087414658E+02  0.00000000000E+00 0.  1.
          2   -1    0    0  501    0  0.00000000000E+00 -0.00000000000E+00 -0.47973713484E+03  0.47973713484E+03  0.00000000000E+00 0. -1.
         23    2    1    2    0    0 -0.38444878476E+02 -0.14071293068E+03 -0.12166976735E+03  0.22859176331E+03  0.12717124055E+03 0.  0.
          5    1    3    3  502    0  0.78039174091E+01 -0.35673134765E+02 -0.10655273470E+03  0.11273441774E+03  0.47000000000E+01 0. -1.
         -5    1    3    3    0  502 -0.46248795885E+02 -0.10503979591E+03 -0.15117032656E+02  0.11585734557E+03  0.47000000000E+01 0.  1.
        -11    1    1    2    0    0  0.16189233172E+02  0.14637039631E+03 -0.25993305264E+03  0.29875002266E+03  0.00000000000E+00 0. -1.
         11    1    1    2    0    0  0.22255645304E+02 -0.56574656362E+01 -0.20046900193E+02  0.30482763534E+02  0.00000000000E+00 0.  1.
<mgrwt>
<rscale>  0 0.18823368E+03</rscale>
<asrwt>0</asrwt>
<pdfrwt beam="2">  1        2 0.73805714E-01 0.19352174E+03</pdfrwt>
<pdfrwt beam="1">  1       -2 0.12013448E-01 0.19352174E+03</pdfrwt>
<totfact> 0.31722755E+03</totfact>
</mgrwt>
</event>
<event>
 7    1  0.4230786E-006  0.1259010E+03  0.7546771E-02  0.1248978E+00
         -4   -1    0    0    0  501 -0.00000000000E+00  0.00000000000E+00  0.12021921471E+03  0.12021921471E+03  0.00000000000E+00 0.  1.
          4   -1    0    0  501    0  0.00000000000E+00 -0.00000000000E+00 -0.10570585468E+03  0.10570585468E+03  0.00000000000E+00 0. -1.
         23    2    1    2    0    0 -0.14798490935E+02 -0.20594547432E+01  0.36383150857E+02  0.13105261400E+03  0.12501126862E+03 0.  0.
          5    1    3    3  502    0  0.26987221553E+01 -0.54340125603E+02 -0.13830271957E+02  0.56333815548E+02  0.47000000000E+01 0.  1.
         -5    1    3    3    0  502 -0.17497213090E+02  0.52280670859E+02  0.50213422814E+02  0.74718798452E+02  0.47000000000E+01 0.  1.
        -11    1    1    2    0    0 -0.20615989918E+01  0.29334143429E+02  0.24650643408E+02  0.38371817543E+02  0.00000000000E+00 0.  1.
         11    1    1    2    0    0  0.16860089927E+02 -0.27274688686E+02 -0.46520434240E+02  0.56500637847E+02  0.00000000000E+00 0. -1.
<mgrwt>
<rscale>  0 0.11650449E+03</rscale>
<asrwt>0</asrwt>
<pdfrwt beam="2">  1        4 0.16262439E-01 0.12590097E+03</pdfrwt>
<pdfrwt beam="1">  1       -4 0.18495264E-01 0.12590097E+03</pdfrwt>
<totfact> 0.13754195E+03</totfact>
</mgrwt>
</event>
<event>
 7    1  0.4230786E-006  0.2349522E+03  0.7546771E-02  0.1126111E+00
          2   -1    0    0  501    0  0.00000000000E+00  0.00000000000E+00  0.11367870585E+04  0.11367870585E+04  0.00000000000E+00 0. -1.
         -2   -1    0    0    0  501 -0.00000000000E+00 -0.00000000000E+00 -0.55416702128E+02  0.55416702128E+02  0.00000000000E+00 0.  1.
         23    2    1    2    0    0  0.18236319993E+03  0.79506725932E+02  0.30127752348E+03  0.38206107124E+03  0.12499943937E+03 0.  0.
          5    1    3    3  502    0  0.90852382971E+02  0.57278187267E+02  0.25560611914E+03  0.27729321010E+03  0.47000000000E+01 0. -1.
         -5    1    3    3    0  502  0.91510816959E+02  0.22228538666E+02  0.45671404342E+02  0.10476786113E+03  0.47000000000E+01 0. -1.
        -11    1    1    2    0    0 -0.12122139260E+03 -0.44867628684E+01  0.46136248926E+03  0.47704308355E+03  0.00000000000E+00 0.  1.
         11    1    1    2    0    0 -0.61141807329E+02 -0.75019963064E+02  0.31873034362E+03  0.33309960584E+03  0.00000000000E+00 0. -1.
<mgrwt>
<rscale>  0 0.23075311E+03</rscale>
<asrwt>0</asrwt>
<pdfrwt beam="1">  1        2 0.17489030E+00 0.23495216E+03</pdfrwt>
<pdfrwt beam="2">  1       -2 0.85256473E-02 0.23495216E+03</pdfrwt>
<totfact> 0.18583394E+03</totfact>
</mgrwt>
</event>
<event>
 7    1  0.4230786E-006  0.1286868E+03  0.7546771E-02  0.1238734E+00
          1   -1    0    0  501    0  0.00000000000E+00  0.00000000000E+00  0.38589654058E+02  0.38589654058E+02  0.00000000000E+00 0. -1.
         -1   -1    0    0    0  501 -0.00000000000E+00 -0.00000000000E+00 -0.44453927189E+03  0.44453927189E+03  0.00000000000E+00 0.  1.
         23    2    1    2    0    0 -0.51356647000E+02 -0.21581678562E+02 -0.32488483373E+03  0.34944303896E+03  0.11600434584E+03 0.  0.
          5    1    3    3  502    0 -0.46418662202E+02 -0.56182733683E+02 -0.11233032549E+03  0.13398277423E+03  0.47000000000E+01 0. -1.
         -5    1    3    3    0  502 -0.49379847983E+01  0.34601055121E+02 -0.21255450824E+03  0.21546026474E+03  0.47000000000E+01 0.  1.
        -11    1    1    2    0    0  0.22412248863E+02  0.54814513395E+02 -0.61786547028E+02  0.85583393083E+02  0.00000000000E+00 0.  1.
         11    1    1    2    0    0  0.28944398138E+02 -0.33232834833E+02 -0.19278237075E+02  0.48102493899E+02  0.00000000000E+00 0. -1.
<mgrwt>
<rscale>  0 0.12268380E+03</rscale>
<asrwt>0</asrwt>
<pdfrwt beam="1">  1        1 0.59368694E-02 0.12868676E+03</pdfrwt>
<pdfrwt beam="2">  1       -1 0.68390662E-01 0.12868676E+03</pdfrwt>
<totfact> 0.28338523E+03</totfact>
</mgrwt>
</event>
<event>
 7    1  0.6088077E-006  0.1744324E+03  0.7546771E-02  0.1179518E+00
          3   -1    0    0  501    0  0.00000000000E+00  0.00000000000E+00  0.11507311752E+03  0.11507311752E+03  0.00000000000E+00 0.  1.
         -3   -1    0    0    0  501 -0.00000000000E+00 -0.00000000000E+00 -0.23094395474E+03  0.23094395474E+03  0.00000000000E+00 0. -1.
         23    2    1    2    0    0 -0.76113823617E+01 -0.12142319760E+03 -0.58954362381E+02  0.18412569303E+03  0.12500051172E+03 0.  0.
          5    1    3    3  502    0 -0.57432579570E+02 -0.10755150920E+03 -0.34993444223E+02  0.12693486308E+03  0.47000000000E+01 0.  1.
         -5    1    3    3    0  502  0.49821197208E+02 -0.13871688404E+02 -0.23960918159E+02  0.57190829942E+02  0.47000000000E+01 0.  1.
        -11    1    1    2    0    0 -0.27598279835E+02  0.60231634311E+02  0.70458013776E+01  0.66627007577E+02  0.00000000000E+00 0.  1.
         11    1    1    2    0    0  0.35209662196E+02  0.61191563293E+02 -0.63962276217E+02  0.95264371667E+02  0.00000000000E+00 0. -1.
<mgrwt>
<rscale>  0 0.16840845E+03</rscale>
<asrwt>0</asrwt>
<pdfrwt beam="1">  1        3 0.17703557E-01 0.17443238E+03</pdfrwt>
<pdfrwt beam="2">  1       -3 0.35529839E-01 0.17443238E+03</pdfrwt>
<totfact> 0.52101324E+02</totfact>
</mgrwt>
</event>
<event>
 7    1  0.4230786E-006  0.1364405E+03  0.7546771E-02  0.1230290E+00
         -2   -1    0    0    0  501 -0.00000000000E+00  0.00000000000E+00  0.40529025626E+03  0.40529025626E+03  0.00000000000E+00 0.  1.
          2   -1    0    0  501    0  0.00000000000E+00 -0.00000000000E+00 -0.36282245962E+02  0.36282245962E+02  0.00000000000E+00 0. -1.
         23    2    1    2    0    0 -0.46494170478E+02  0.28772962716E+02  0.21180877536E+03  0.25195034154E+03  0.12500570391E+03 0.  0.
          5    1    3    3  502    0 -0.47321993479E+02 -0.17909561738E+02  0.19592749138E+03  0.20240996850E+03  0.47000000000E+01 0. -1.
         -5    1    3    3    0  502  0.82782300161E+00  0.46682524455E+02  0.15881283983E+02  0.49540373044E+02  0.47000000000E+01 0. -1.
        -11    1    1    2    0    0  0.26971704353E+02 -0.45079222298E+02  0.15549455106E+03  0.16412850005E+03  0.00000000000E+00 0.  1.
         11    1    1    2    0    0  0.19522466125E+02  0.16306259582E+02  0.17046838714E+01  0.25493660629E+02  0.00000000000E+00 0. -1.
<mgrwt>
<rscale>  0 0.12810831E+03</rscale>
<asrwt>0</asrwt>
<pdfrwt beam="2">  1        2 0.55818843E-02 0.13644053E+03</pdfrwt>
<pdfrwt beam="1">  1       -2 0.62352344E-01 0.13644053E+03</pdfrwt>
<totfact> 0.31686325E+03</totfact>
</mgrwt>
</event>
<event>
 6    1  0.4230786E-006  0.3773758E+03  0.7546771E-02  0.1051908E+00
         -1   -1    0    0    0  501 -0.00000000000E+00  0.00000000000E+00  0.96638987479E+02  0.96638987479E+02  0.00000000000E+00 0.  1.
          1   -1    0    0  501    0  0.00000000000E+00 -0.00000000000E+00 -0.36841366759E+03  0.36841366759E+03  0.00000000000E+00 0. -1.
          5    1    1    2  502    0  0.39925836795E+02  0.16848056608E+03 -0.14250703118E+03  0.22429916970E+03  0.47000000000E+01 0. -1.
         -5    1    1    2    0  502 -0.18834437784E+02 -0.17252943025E+02 -0.17545221512E+02  0.31342062593E+02  0.47000000000E+01 0.  1.
        -11    1    1    2    0    0 -0.46001226027E+02 -0.10683845159E+03 -0.43270044250E+02  0.12410827637E+03  0.00000000000E+00 0.  1.
         11    1    1    2    0    0  0.24909827016E+02 -0.44389171474E+02 -0.68452383170E+02  0.85303146412E+02  0.00000000000E+00 0. -1.
<mgrwt>
<rscale>  0 0.37737580E+03</rscale>
<asrwt>0</asrwt>
<pdfrwt beam="2">  1        1 0.56679026E-01 0.37737580E+03</pdfrwt>
<pdfrwt beam="1">  1       -1 0.14867537E-01 0.37737580E+03</pdfrwt>
<totfact> 0.22057566E+03</totfact>
</mgrwt>
</event>
<event>
 7    1  0.4230786E-006  0.2315387E+03  0.7546771E-02  0.1128612E+00
          3   -1    0    0  501    0  0.00000000000E+00  0.00000000000E+00  0.12416586062E+03  0.12416586062E+03  0.00000000000E+00 0. -1.
         -3   -1    0    0    0  501 -0.00000000000E+00 -0.00000000000E+00 -0.41144926958E+03  0.41144926958E+03  0.00000000000E+00 0.  1.
         23    2    1    2    0    0 -0.63828245253E+02 -0.18414906600E+03 -0.19153978482E+03  0.30049572166E+03  0.12500106467E+03 0.  0.
          5    1    3    3  502    0 -0.47385389508E+01 -0.11454103893E+03 -0.36312483259E+02  0.12034446307E+03  0.47000000000E+01 0.  1.
         -5    1    3    3    0  502 -0.59089706302E+02 -0.69608027065E+02 -0.15522730156E+03  0.18015125859E+03  0.47000000000E+01 0.  1.
        -11    1    1    2    0    0  0.50157854410E+02  0.54432907233E+02 -0.12071724145E+01  0.74028433822E+02  0.00000000000E+00 0.  1.
         11    1    1    2    0    0  0.13670390843E+02  0.12971615876E+03 -0.94536451725E+02  0.16109097472E+03  0.00000000000E+00 0. -1.
<mgrwt>
<rscale>  0 0.22722034E+03</rscale>
<asrwt>0</asrwt>
<pdfrwt beam="1">  1        3 0.19102440E-01 0.23153874E+03</pdfrwt>
<pdfrwt beam="2">  1       -3 0.63299888E-01 0.23153874E+03</pdfrwt>
<totfact> 0.14837874E+02</totfact>
</mgrwt>
</event>
<event>
 7    1  0.4230786E-006  0.1517694E+03  0.7546771E-02  0.1207576E+00
          2   -1    0    0  501    0  0.00000000000E+00  0.00000000000E+00  0.60483601635E+03  0.60483601635E+03  0.00000000000E+00 0. -1.
         -2   -1    0    0    0  501 -0.00000000000E+00 -0.00000000000E+00 -0.34142687162E+02  0.34142687162E+02  0.00000000000E+00 0.  1.
         23    2    1    2    0    0 -0.64894051180E+02  0.56545721650E+02  0.22293268297E+03  0.26969041767E+03  0.12500113493E+03 0.  0.
          5    1    3    3  502    0 -0.80216242196E+02 -0.21750364263E+01  0.17372002977E+03  0.19141607832E+03  0.47000000000E+01 0.  1.
         -5    1    3    3    0  502  0.15322191016E+02  0.58720758076E+02  0.49212653196E+02  0.78274339353E+02  0.47000000000E+01 0.  1.
        -11    1    1    2    0    0  0.64916076762E+02 -0.27331540579E+02  0.32418349024E+03  0.33174696001E+03  0.00000000000E+00 0. -1.
         11    1    1    2    0    0 -0.22025581467E-01 -0.29214181071E+02  0.23577155980E+02  0.37541325828E+02  0.00000000000E+00 0.  1.
<mgrwt>
<rscale>  0 0.14436311E+03</rscale>
<asrwt>0</asrwt>
<pdfrwt beam="1">  1        2 0.93051686E-01 0.15176937E+03</pdfrwt>
<pdfrwt beam="2">  1       -2 0.52527216E-02 0.15176937E+03</pdfrwt>
<totfact> 0.87495983E+03</totfact>
</mgrwt>
</event>
<event>
 7    1  0.4230786E-006  0.1401447E+03  0.7546771E-02  0.1224702E+00
          2   -1    0    0  501    0  0.00000000000E+00  0.00000000000E+00  0.48420368238E+02  0.48420368238E+02  0.00000000000E+00 0. -1.
         -2   -1    0    0    0  501 -0.00000000000E+00 -0.00000000000E+00 -0.35784128851E+03  0.35784128851E+03  0.00000000000E+00 0.  1.
         23    2    1    2    0    0  0.21209044121E+02  0.59728713769E+02 -0.23479295119E+03  0.27343785192E+03  0.12499274432E+03 0.  0.
          5    1    3    3  502    0 -0.94738162726E+01 -0.29325498949E+02 -0.15689720156E+02  0.34899790858E+02  0.47000000000E+01 0. -1.
         -5    1    3    3    0  502  0.30682860394E+02  0.89054212718E+02 -0.21910323104E+03  0.23853806106E+03  0.47000000000E+01 0. -1.
        -11    1    1    2    0    0  0.10505955952E+02 -0.72104076169E+02 -0.35801288221E+02  0.81185621565E+02  0.00000000000E+00 0.  1.
         11    1    1    2    0    0 -0.31715000073E+02  0.12375362400E+02 -0.38826680865E+02  0.51638183267E+02  0.00000000000E+00 0. -1.
<mgrwt>
<rscale>  0 0.13187382E+03</rscale>
<asrwt>0</asrwt>
<pdfrwt beam="1">  1        2 0.74492874E-02 0.14014467E+03</pdfrwt>
<pdfrwt beam="2">  1       -2 0.55052506E-01 0.14014467E+03</pdfrwt>
<totfact> 0.28293059E+03</totfact>
</mgrwt>
</event>
<event>
 7    1  0.4230786E-006  0.1799439E+03  0.7546771E-02  0.1172936E+00
         -1   -1    0    0    0  501 -0.00000000000E+00  0.00000000000E+00  0.30639502859E+02  0.30639502859E+02  0.00000000000E+00 0.  1.
          1   -1    0    0  501    0  0.00000000000E+00 -0.00000000000E+00 -0.94670592266E+03  0.94670592266E+03  0.00000000000E+00 0. -1.
         23    2    1    2    0    0  0.12112688871E+03  0.45714052147E+02 -0.45919506789E+03  0.49319359363E+03  0.12497324790E+03 0.  0.
          5    1    3    3  502    0  0.11012614026E+03  0.84763759529E+02 -0.35990509450E+03  0.38583212508E+03  0.47000000000E+01 0.  1.
         -5    1    3    3    0  502  0.11000748448E+02 -0.39049707382E+02 -0.99289973385E+02  0.10736146854E+03  0.47000000000E+01 0.  1.
        -11    1    1    2    0    0 -0.17304823683E+02 -0.32219626554E+02 -0.39422500843E+02  0.53774481222E+02  0.00000000000E+00 0. -1.
         11    1    1    2    0    0 -0.10382206503E+03 -0.13494425593E+02 -0.41744885107E+03  0.43037735067E+03  0.00000000000E+00 0.  1.
<mgrwt>
<rscale>  0 0.17479717E+03</rscale>
<asrwt>0</asrwt>
<pdfrwt beam="2">  1        1 0.14564707E+00 0.17994391E+03</pdfrwt>
<pdfrwt beam="1">  1       -1 0.47137696E-02 0.17994391E+03</pdfrwt>
<totfact> 0.33418205E+03</totfact>
</mgrwt>
</event>
<event>
 7    1  0.4230786E-006  0.1425529E+03  0.7546771E-02  0.1220992E+00
          2   -1    0    0  501    0  0.00000000000E+00  0.00000000000E+00  0.17779464819E+03  0.17779464819E+03  0.00000000000E+00 0. -1.
         -2   -1    0    0    0  501 -0.00000000000E+00 -0.00000000000E+00 -0.17394883533E+03  0.17394883533E+03  0.00000000000E+00 0.  1.
         23    2    1    2    0    0  0.65818223034E+02 -0.19089043804E+02 -0.11846177396E+03  0.18534972852E+03  0.12499959959E+03 0.  0.
          5    1    3    3  502    0  0.37092995387E+02  0.46624843380E+02 -0.19147287666E+02  0.62757270113E+02  0.47000000000E+01 0. -1.
         -5    1    3    3    0  502  0.28725227647E+02 -0.65713887184E+02 -0.99314486289E+02  0.12259245841E+03  0.47000000000E+01 0. -1.
        -11    1    1    2    0    0 -0.76363187302E+02 -0.12736068898E+02  0.98457125937E+02  0.12524914959E+03  0.00000000000E+00 0. -1.
         11    1    1    2    0    0  0.10544964268E+02  0.31825112702E+02  0.23850460880E+02  0.41144605407E+02  0.00000000000E+00 0.  1.
<mgrwt>
<rscale>  0 0.13445469E+03</rscale>
<asrwt>0</asrwt>
<pdfrwt beam="1">  1        2 0.27353023E-01 0.14255290E+03</pdfrwt>
<pdfrwt beam="2">  1       -2 0.26761359E-01 0.14255290E+03</pdfrwt>
<totfact> 0.23776822E+03</totfact>
</mgrwt>
</event>
<event>
 7    1  0.4230786E-006  0.1294587E+03  0.7546771E-02  0.1243639E+00
         -2   -1    0    0    0  501 -0.00000000000E+00  0.00000000000E+00  0.22699757911E+02  0.22699757911E+02  0.00000000000E+00 0.  1.
          2   -1    0    0  501    0  0.00000000000E+00 -0.00000000000E+00 -0.61551526013E+03  0.61551526013E+03  0.00000000000E+00 0. -1.
         23    2    1    2    0    0 -0.33239124373E+02 -0.53131640812E+01 -0.23696450841E+03  0.27002171203E+03  0.12500591034E+03 0.  0.
          5    1    3    3  502    0 -0.32949068363E+02 -0.57476195468E+02 -0.18362315989E+03  0.19526573944E+03  0.47000000000E+01 0. -1.
         -5    1    3    3    0  502 -0.29005601019E+00  0.52163031387E+02 -0.53341348520E+02  0.74755972590E+02  0.47000000000E+01 0. -1.
        -11    1    1    2    0    0  0.28796332233E+02 -0.37274340641E+02 -0.24233500140E+03  0.24687012400E+03  0.00000000000E+00 0. -1.
         11    1    1    2    0    0  0.44427921401E+01  0.42587504723E+02 -0.11351599241E+03  0.12132318202E+03  0.00000000000E+00 0.  1.
<mgrwt>
<rscale>  0 0.11967228E+03</rscale>
<asrwt>0</asrwt>
<pdfrwt beam="2">  1        2 0.94694667E-01 0.12945867E+03</pdfrwt>
<pdfrwt beam="1">  1       -2 0.34922700E-02 0.12945867E+03</pdfrwt>
<totfact> 0.15597314E+04</totfact>
</mgrwt>
</event>
<event>
 7    1  0.4230786E-006  0.1875806E+03  0.7546771E-02  0.1165912E+00
         -2   -1    0    0    0  501 -0.00000000000E+00  0.00000000000E+00  0.39505163952E+02  0.39505163952E+02  0.00000000000E+00 0.  1.
          2   -1    0    0  501    0  0.00000000000E+00 -0.00000000000E+00 -0.80319191006E+03  0.80319191006E+03  0.00000000000E+00 0. -1.
         23    2    1    2    0    0 -0.39613399653E+02  0.13412615810E+03 -0.35432511112E+03  0.40091492061E+03  0.12500976554E+03 0.  0.
          5    1    3    3  502    0 -0.54609046940E+02  0.10024354911E+03 -0.12818089362E+03  0.17170715954E+03  0.47000000000E+01 0. -1.
         -5    1    3    3    0  502  0.14995647288E+02  0.33882608986E+02 -0.22614421749E+03  0.22920776107E+03  0.47000000000E+01 0. -1.
        -11    1    1    2    0    0  0.16757266229E+02  0.10445695263E+02 -0.49403643605E+02  0.53203745380E+02  0.00000000000E+00 0.  1.
         11    1    1    2    0    0  0.22856133424E+02 -0.14457185336E+03 -0.35995799139E+03  0.38857840802E+03  0.00000000000E+00 0. -1.
<mgrwt>
<rscale>  0 0.18196750E+03</rscale>
<asrwt>0</asrwt>
<pdfrwt beam="2">  1        2 0.12356799E+00 0.18758062E+03</pdfrwt>
<pdfrwt beam="1">  1       -2 0.60777174E-02 0.18758062E+03</pdfrwt>
<totfact> 0.50411875E+03</totfact>
</mgrwt>
</event>
<event>
 7    1  0.4230786E-006  0.1321261E+03  0.7546771E-02  0.1250267E+00
          2   -1    0    0  501    0  0.00000000000E+00  0.00000000000E+00  0.47114476732E+03  0.47114476732E+03  0.00000000000E+00 0. -1.
         -2   -1    0    0    0  501 -0.00000000000E+00 -0.00000000000E+00 -0.23928147285E+02  0.23928147285E+02  0.00000000000E+00 0.  1.
         23    2    1    2    0    0  0.14194907330E+02  0.68556053755E+02  0.24434212538E+03  0.27777757640E+03  0.11205302232E+03 0.  0.
          5    1    3    3  502    0 -0.29497199728E+01 -0.12141223504E+01  0.18329019878E+03  0.18337819366E+03  0.47000000000E+01 0. -1.
         -5    1    3    3    0  502  0.17144627303E+02  0.69770176105E+02  0.61051926602E+02  0.94399382736E+02  0.47000000000E+01 0.  1.
        -11    1    1    2    0    0 -0.20445026416E+02 -0.59460016986E+02  0.19100351111E+03  0.20108663303E+03  0.00000000000E+00 0. -1.
         11    1    1    2    0    0  0.62501190852E+01 -0.90960367691E+01  0.11870983543E+02  0.16208705184E+02  0.00000000000E+00 0.  1.
<mgrwt>
<rscale>  0 0.11575597E+03</rscale>
<asrwt>0</asrwt>
<pdfrwt beam="1">  1        2 0.72483804E-01 0.13212611E+03</pdfrwt>
<pdfrwt beam="2">  1       -2 0.36812538E-02 0.13212611E+03</pdfrwt>
<totfact> 0.19455988E+04</totfact>
</mgrwt>
</event>
<event>
 7    1  0.4230786E-006  0.1391893E+03  0.7546771E-02  0.1223554E+00
         -2   -1    0    0    0  501 -0.00000000000E+00  0.00000000000E+00  0.26717572588E+02  0.26717572588E+02  0.00000000000E+00 0.  1.
          2   -1    0    0  501    0  0.00000000000E+00 -0.00000000000E+00 -0.65508153572E+03  0.65508153572E+03  0.00000000000E+00 0. -1.
         23    2    1    2    0    0  0.61201275261E+02 -0.20662293913E+01 -0.24709024120E+03  0.28359696293E+03  0.12499513866E+03 0.  0.
          5    1    3    3  502    0  0.71307180782E+02 -0.50499238897E+02 -0.17959478787E+03  0.19977803931E+03  0.47000000000E+01 0. -1.
         -5    1    3    3    0  502 -0.10105905521E+02  0.48433009506E+02 -0.67495453336E+02  0.83818923622E+02  0.47000000000E+01 0. -1.
        -11    1    1    2    0    0 -0.24027713647E+02  0.37603142201E+02 -0.72187009052E+02  0.84866316065E+02  0.00000000000E+00 0.  1.
         11    1    1    2    0    0 -0.37173561614E+02 -0.35536912810E+02 -0.30908671288E+03  0.31333582932E+03  0.00000000000E+00 0. -1.
<mgrwt>
<rscale>  0 0.13266510E+03</rscale>
<asrwt>0</asrwt>
<pdfrwt beam="2">  1        2 0.10078178E+00 0.13918926E+03</pdfrwt>
<pdfrwt beam="1">  1       -2 0.41103957E-02 0.13918926E+03</pdfrwt>
<totfact> 0.11460449E+04</totfact>
</mgrwt>
</event>
<event>
 7    1  0.4230786E-006  0.3564912E+03  0.7546771E-02  0.1061140E+00
          2   -1    0    0  501    0  0.00000000000E+00  0.00000000000E+00  0.40562749318E+03  0.40562749318E+03  0.00000000000E+00 0. -1.
         -2   -1    0    0    0  501 -0.00000000000E+00 -0.00000000000E+00 -0.30796489586E+03  0.30796489586E+03  0.00000000000E+00 0.  1.
         23    2    1    2    0    0 -0.10657168055E+03 -0.31639172152E+03  0.61981269025E+01  0.35654503785E+03  0.12499881078E+03 0.  0.
          5    1    3    3  502    0 -0.71051398485E+02 -0.14189684593E+03 -0.55263583070E+02  0.16810463921E+03  0.47000000000E+01 0.  1.
         -5    1    3    3    0  502 -0.35520282066E+02 -0.17449487559E+03  0.61461709973E+02  0.18844039864E+03  0.47000000000E+01 0.  1.
        -11    1    1    2    0    0  0.96359120612E+02  0.16109943123E+03  0.31895122820E+02  0.19040852326E+03  0.00000000000E+00 0. -1.
         11    1    1    2    0    0  0.10212559939E+02  0.15529229029E+03  0.59569347596E+02  0.16663882794E+03  0.00000000000E+00 0.  1.
<mgrwt>
<rscale>  0 0.35361715E+03</rscale>
<asrwt>0</asrwt>
<pdfrwt beam="1">  1        2 0.62404230E-01 0.35649116E+03</pdfrwt>
<pdfrwt beam="2">  1       -2 0.47379214E-01 0.35649116E+03</pdfrwt>
<totfact> 0.33726323E+02</totfact>
</mgrwt>
</event>
<event>
 7    1  0.7095786E-006  0.1843197E+03  0.7546771E-02  0.1168890E+00
         -1   -1    0    0    0  501 -0.00000000000E+00  0.00000000000E+00  0.36430953248E+02  0.36430953248E+02  0.00000000000E+00 0.  1.
          1   -1    0    0  501    0  0.00000000000E+00 -0.00000000000E+00 -0.91114951338E+03  0.91114951338E+03  0.00000000000E+00 0. -1.
         23    2    1    2    0    0 -0.76802956028E+01 -0.13523790494E+03 -0.32025021500E+03  0.36950500496E+03  0.12500188241E+03 0.  0.
          5    1    3    3  502    0 -0.37452764897E+02 -0.21075349023E+02 -0.21530543635E+02  0.48296317086E+02  0.47000000000E+01 0.  1.
         -5    1    3    3    0  502  0.29772469294E+02 -0.11416255592E+03 -0.29871967137E+03  0.32120868787E+03  0.47000000000E+01 0.  1.
        -11    1    1    2    0    0  0.14767314291E+02  0.19233397494E+02 -0.20950372231E+02  0.32045518363E+02  0.00000000000E+00 0.  1.
         11    1    1    2    0    0 -0.70870186887E+01  0.11600450745E+03 -0.53351797290E+03  0.54602994331E+03  0.00000000000E+00 0. -1.
<mgrwt>
<rscale>  0 0.17888175E+03</rscale>
<asrwt>0</asrwt>
<pdfrwt beam="2">  1        1 0.14017685E+00 0.18431969E+03</pdfrwt>
<pdfrwt beam="1">  1       -1 0.56047618E-02 0.18431969E+03</pdfrwt>
<totfact> 0.27496177E+03</totfact>
</mgrwt>
</event>
<event>
 7    1  0.4230786E-006  0.1328628E+03  0.7546771E-02  0.1238115E+00
         -3   -1    0    0    0  501 -0.00000000000E+00  0.00000000000E+00  0.77960514839E+02  0.77960514839E+02  0.00000000000E+00 0.  1.
          3   -1    0    0  501    0  0.00000000000E+00 -0.00000000000E+00 -0.19195575506E+03  0.19195575506E+03  0.00000000000E+00 0. -1.
         23    2    1    2    0    0 -0.68701177336E+01 -0.44525060115E+02 -0.20187913804E+02  0.13438779516E+03  0.12499139222E+03 0.  0.
          5    1    3    3  502    0  0.32690174926E+02 -0.22498496176E+02  0.41571823541E+02  0.57663995521E+02  0.47000000000E+01 0.  1.
         -5    1    3    3    0  502 -0.39560292660E+02 -0.22026563940E+02 -0.61759737345E+02  0.76723799640E+02  0.47000000000E+01 0.  1.
        -11    1    1    2    0    0  0.16082075287E+02  0.50806981854E+02 -0.10622268183E+03  0.11884124152E+03  0.00000000000E+00 0. -1.
         11    1    1    2    0    0 -0.92119575538E+01 -0.62819217390E+01  0.12415355409E+02  0.16687233223E+02  0.00000000000E+00 0.  1.
<mgrwt>
<rscale>  0 0.12307111E+03</rscale>
<asrwt>0</asrwt>
<pdfrwt beam="2">  1        3 0.29531655E-01 0.13286282E+03</pdfrwt>
<pdfrwt beam="1">  1       -3 0.11993925E-01 0.13286282E+03</pdfrwt>
<totfact> 0.13778928E+03</totfact>
</mgrwt>
</event>
<event>
 7    1  0.4230786E-006  0.1320214E+03  0.7546771E-02  0.1237830E+00
          1   -1    0    0  501    0  0.00000000000E+00  0.00000000000E+00  0.18191094975E+03  0.18191094975E+03  0.00000000000E+00 0.  1.
         -1   -1    0    0    0  501 -0.00000000000E+00 -0.00000000000E+00 -0.82217421973E+02  0.82217421973E+02  0.00000000000E+00 0. -1.
         23    2    1    2    0    0  0.38235821746E+02  0.18709369325E+02  0.15003945819E+02  0.13287128210E+03  0.12497055914E+03 0.  0.
          5    1    3    3  502    0 -0.20168392566E+02 -0.55331343283E+01  0.54227551705E+02  0.58310350694E+02  0.47000000000E+01 0. -1.
         -5    1    3    3    0  502  0.58404214313E+02  0.24242503653E+02 -0.39223605886E+02  0.74560931402E+02  0.47000000000E+01 0. -1.
        -11    1    1    2    0    0  0.41305999531E+01 -0.25230027658E+02  0.84613728665E+02  0.88391737341E+02  0.00000000000E+00 0.  1.
         11    1    1    2    0    0 -0.42366421699E+02  0.65206583336E+01  0.75853291899E-01  0.42865352284E+02  0.00000000000E+00 0. -1.
<mgrwt>
<rscale>  0 0.12325003E+03</rscale>
<asrwt>0</asrwt>
<pdfrwt beam="1">  1        1 0.27986300E-01 0.13202143E+03</pdfrwt>
<pdfrwt beam="2">  1       -1 0.12648834E-01 0.13202143E+03</pdfrwt>
<totfact> 0.66183435E+03</totfact>
</mgrwt>
</event>
<event>
 7    1  0.4230786E-006  0.1310378E+03  0.7546771E-02  0.1239712E+00
          2   -1    0    0  501    0  0.00000000000E+00  0.00000000000E+00  0.20346752689E+03  0.20346752689E+03  0.00000000000E+00 0.  1.
         -2   -1    0    0    0  501 -0.00000000000E+00 -0.00000000000E+00 -0.72130702201E+02  0.72130702201E+02  0.00000000000E+00 0. -1.
         23    2    1    2    0    0 -0.19793425683E+02 -0.33962128299E+02  0.30593880811E+02  0.13456184410E+03  0.12500279391E+03 0.  0.
          5    1    3    3  502    0 -0.37054875168E+02  0.10973256561E+02 -0.35483562665E+02  0.52674940462E+02  0.47000000000E+01 0. -1.
         -5    1    3    3    0  502  0.17261449485E+02 -0.44935384860E+02  0.66077443476E+02  0.81886903637E+02  0.47000000000E+01 0. -1.
        -11    1    1    2    0    0 -0.28648174640E+02 -0.84661291327E+01  0.53123533872E+02  0.60946723487E+02  0.00000000000E+00 0.  1.
         11    1    1    2    0    0  0.48441600323E+02  0.42428257432E+02  0.47619410003E+02  0.80089661502E+02  0.00000000000E+00 0. -1.
<mgrwt>
<rscale>  0 0.12207567E+03</rscale>
<asrwt>0</asrwt>
<pdfrwt beam="1">  1        2 0.31302696E-01 0.13103780E+03</pdfrwt>
<pdfrwt beam="2">  1       -2 0.11097031E-01 0.13103780E+03</pdfrwt>
<totfact> 0.88532823E+03</totfact>
</mgrwt>
</event>
<event>
 7    1  0.4230786E-006  0.2030496E+03  0.7546771E-02  0.1151315E+00
         -1   -1    0    0    0  501 -0.00000000000E+00  0.00000000000E+00  0.35506827129E+03  0.35506827129E+03  0.00000000000E+00 0.  1.
          1   -1    0    0  501    0  0.00000000000E+00 -0.00000000000E+00 -0.12521926147E+03  0.12521926147E+03  0.00000000000E+00 0. -1.
         23    2    1    2    0    0 -0.17658660054E+02  0.15904249997E+03  0.21475250859E+03  0.29554656807E+03  0.12499115522E+03 0.  0.
          5    1    3    3  502    0 -0.70786950628E+02  0.81972116522E+02  0.10112466133E+03  0.14825150048E+03  0.47000000000E+01 0.  1.
         -5    1    3    3    0  502  0.53128290574E+02  0.77070383452E+02  0.11362784725E+03  0.14729506759E+03  0.47000000000E+01 0.  1.
        -11    1    1    2    0    0 -0.78676469580E+01 -0.11033808338E+03  0.48083946163E+02  0.12061699048E+03  0.00000000000E+00 0.  1.
         11    1    1    2    0    0  0.25526307012E+02 -0.48704416592E+02 -0.32987444930E+02  0.64123974208E+02  0.00000000000E+00 0. -1.
<mgrwt>
<rscale>  0 0.19814296E+03</rscale>
<asrwt>0</asrwt>
<pdfrwt beam="2">  1        1 0.19264502E-01 0.20304958E+03</pdfrwt>
<pdfrwt beam="1">  1       -1 0.54625888E-01 0.20304958E+03</pdfrwt>
<totfact> 0.92996896E+02</totfact>
</mgrwt>
</event>
<event>
 7    1  0.4230786E-006  0.1922227E+03  0.7546771E-02  0.1161601E+00
          1   -1    0    0  501    0  0.00000000000E+00  0.00000000000E+00  0.20667014671E+03  0.20667014671E+03  0.00000000000E+00 0. -1.
         -1   -1    0    0    0  501 -0.00000000000E+00 -0.00000000000E+00 -0.19201969479E+03  0.19201969479E+03  0.00000000000E+00 0.  1.
         23    2    1    2    0    0  0.13084569398E+03  0.64846350147E+02 -0.74605777339E+02  0.20619312350E+03  0.12499574956E+03 0.  0.
          5    1    3    3  502    0  0.64964619396E+02  0.37995934035E+02 -0.10451337174E+03  0.12887679252E+03  0.47000000000E+01 0. -1.
         -5    1    3    3    0  502  0.65881074586E+02  0.26850416112E+02  0.29907594406E+02  0.77316330986E+02  0.47000000000E+01 0. -1.
        -11    1    1    2    0    0 -0.99843626843E+02 -0.18272477684E+02  0.91283670305E+02  0.13651132453E+03  0.00000000000E+00 0.  1.
         11    1    1    2    0    0 -0.31002067140E+02 -0.46573872463E+02 -0.20274410451E+01  0.55985393455E+02  0.00000000000E+00 0. -1.
<mgrwt>
<rscale>  0 0.18655994E+03</rscale>
<asrwt>0</asrwt>
<pdfrwt beam="1">  1        1 0.31795407E-01 0.19222274E+03</pdfrwt>
<pdfrwt beam="2">  1       -1 0.29541491E-01 0.19222274E+03</pdfrwt>
<totfact> 0.14638290E+03</totfact>
</mgrwt>
</event>
<event>
 7    1  0.4230786E-006  0.2305087E+03  0.7546771E-02  0.1129648E+00
         -1   -1    0    0    0  501 -0.00000000000E+00  0.00000000000E+00  0.12076113919E+03  0.12076113919E+03  0.00000000000E+00 0.  1.
          1   -1    0    0  501    0  0.00000000000E+00 -0.00000000000E+00 -0.56270791547E+03  0.56270791547E+03  0.00000000000E+00 0. -1.
         23    2    1    2    0    0  0.17054687367E+03  0.91773631310E+02 -0.47154978388E+02  0.23528247803E+03  0.12500246782E+03 0.  0.
          5    1    3    3  502    0  0.94910903980E+02  0.11677101754E+03 -0.26647405219E+02  0.15289121766E+03  0.47000000000E+01 0. -1.
         -5    1    3    3    0  502  0.75635969686E+02 -0.24997386232E+02 -0.20507573169E+02  0.82391260374E+02  0.47000000000E+01 0. -1.
        -11    1    1    2    0    0 -0.10090538772E+03 -0.93278595118E+02 -0.21271414945E+03  0.25323922081E+03  0.00000000000E+00 0.  1.
         11    1    1    2    0    0 -0.69641485944E+02  0.15049638088E+01 -0.18207764844E+03  0.19494735582E+03  0.00000000000E+00 0. -1.
<mgrwt>
<rscale>  0 0.22577709E+03</rscale>
<asrwt>0</asrwt>
<pdfrwt beam="2">  1        1 0.86570451E-01 0.23050868E+03</pdfrwt>
<pdfrwt beam="1">  1       -1 0.18578636E-01 0.23050868E+03</pdfrwt>
<totfact> 0.87715831E+02</totfact>
</mgrwt>
</event>
<event>
 7    1  0.4230786E-006  0.5049502E+03  0.7546771E-02  0.1012987E+00
         -1   -1    0    0    0  501 -0.00000000000E+00  0.00000000000E+00  0.26777264901E+03  0.26777264901E+03  0.00000000000E+00 0.  1.
          1   -1    0    0  501    0  0.00000000000E+00 -0.00000000000E+00 -0.22058348464E+04  0.22058348464E+04  0.00000000000E+00 0. -1.
         23    2    1    2    0    0  0.14140508801E+03 -0.46835654261E+03 -0.34486248296E+02  0.50612648772E+03  0.12498588049E+03 0.  0.
          5    1    3    3  502    0  0.49102261989E+02 -0.34121599463E+02  0.62334915390E+01  0.60301427007E+02  0.47000000000E+01 0.  1.
         -5    1    3    3    0  502  0.92302826017E+02 -0.43423494315E+03 -0.40719739835E+02  0.44582506071E+03  0.47000000000E+01 0.  1.
        -11    1    1    2    0    0  0.73750924203E+01  0.47922832775E+02 -0.13176565459E+03  0.14040362396E+03  0.00000000000E+00 0.  1.
         11    1    1    2    0    0 -0.14878018043E+03  0.42043370984E+03 -0.17718102945E+04  0.18270773837E+04  0.00000000000E+00 0. -1.
<mgrwt>
<rscale>  0 0.50304521E+03</rscale>
<asrwt>0</asrwt>
<pdfrwt beam="2">  1        1 0.33935922E+00 0.50495022E+03</pdfrwt>
<pdfrwt beam="1">  1       -1 0.41195791E-01 0.50495022E+03</pdfrwt>
<totfact> 0.13655318E+01</totfact>
</mgrwt>
</event>
<event>
 7    1  0.4230786E-006  0.1338485E+03  0.7546771E-02  0.1235307E+00
          1   -1    0    0  501    0  0.00000000000E+00  0.00000000000E+00  0.25131437576E+03  0.25131437576E+03  0.00000000000E+00 0. -1.
         -1   -1    0    0    0  501 -0.00000000000E+00 -0.00000000000E+00 -0.59923782699E+02  0.59923782699E+02  0.00000000000E+00 0.  1.
         23    2    1    2    0    0 -0.40239134918E+02  0.25887443182E+02  0.63697453814E+02  0.14823221640E+03  0.12500430657E+03 0.  0.
          5    1    3    3  502    0 -0.51283017236E+02  0.49712643048E+02 -0.77217423367E+01  0.71993124952E+02  0.47000000000E+01 0. -1.
         -5    1    3    3    0  502  0.11043882318E+02 -0.23825199866E+02  0.71419196150E+02  0.76239091443E+02  0.47000000000E+01 0. -1.
        -11    1    1    2    0    0  0.54444106764E+02 -0.30498048464E+02  0.13319592572E+03  0.14708992606E+03  0.00000000000E+00 0. -1.
         11    1    1    2    0    0 -0.14204971846E+02  0.46106052819E+01 -0.55027864748E+01  0.15916015997E+02  0.00000000000E+00 0.  1.
<mgrwt>
<rscale>  0 0.12484816E+03</rscale>
<asrwt>0</asrwt>
<pdfrwt beam="1">  1        1 0.38663750E-01 0.13384851E+03</pdfrwt>
<pdfrwt beam="2">  1       -1 0.92190436E-02 0.13384851E+03</pdfrwt>
<totfact> 0.72046201E+03</totfact>
</mgrwt>
</event>
<event>
 6    1  0.4230786E-006  0.3281049E+03  0.7546771E-02  0.1110684E+00
         -2   -1    0    0    0  501 -0.00000000000E+00  0.00000000000E+00  0.86787879201E+02  0.86787879201E+02  0.00000000000E+00 0.  1.
          2   -1    0    0  501    0  0.00000000000E+00 -0.00000000000E+00 -0.80006415758E+03  0.80006415758E+03  0.00000000000E+00 0. -1.
          5    1    1    2  502    0  0.89138065221E+02 -0.11601582940E+02 -0.32217809737E+03  0.33451608007E+03  0.47000000000E+01 0. -1.
         -5    1    1    2    0  502 -0.24152173065E+02  0.52394079507E+02  0.61560361600E+02  0.84499912138E+02  0.47000000000E+01 0.  1.
        -11    1    1    2    0    0 -0.61080108325E+02 -0.60618320226E+02 -0.42475322416E+03  0.43338281209E+03  0.00000000000E+00 0. -1.
         11    1    1    2    0    0 -0.39057838313E+01  0.19825823659E+02 -0.27905318445E+02  0.34453232484E+02  0.00000000000E+00 0.  1.
<mgrwt>
<rscale>  0 0.25419218E+03</rscale>
<asrwt>0</asrwt>
<pdfrwt beam="2">  1        2 0.12308679E+00 0.32810486E+03</pdfrwt>
<pdfrwt beam="1">  1       -2 0.13351981E-01 0.32810486E+03</pdfrwt>
<totfact> 0.14734627E+03</totfact>
</mgrwt>
</event>
<event>
 7    1  0.4230786E-006  0.1360995E+03  0.7546771E-02  0.1233043E+00
          1   -1    0    0  501    0  0.00000000000E+00  0.00000000000E+00  0.25251572063E+03  0.25251572063E+03  0.00000000000E+00 0. -1.
         -1   -1    0    0    0  501 -0.00000000000E+00 -0.00000000000E+00 -0.59636900290E+02  0.59636900290E+02  0.00000000000E+00 0.  1.
         23    2    1    2    0    0  0.45479546962E+02  0.28798709143E+02  0.69757482325E+02  0.15293521997E+03  0.12500128130E+03 0.  0.
          5    1    3    3  502    0  0.43917626028E+02 -0.36586908240E+02  0.21659139559E+00  0.57354133611E+02  0.47000000000E+01 0. -1.
         -5    1    3    3    0  502  0.15619209335E+01  0.65385617382E+02  0.69540890929E+02  0.95581086354E+02  0.47000000000E+01 0. -1.
        -11    1    1    2    0    0  0.67277775035E+01 -0.31851155690E+02  0.91420520785E+01  0.33813255169E+02  0.00000000000E+00 0.  1.
         11    1    1    2    0    0 -0.52207324465E+02  0.30524465472E+01  0.11397928593E+03  0.12540414578E+03  0.00000000000E+00 0. -1.
<mgrwt>
<rscale>  0 0.12630519E+03</rscale>
<asrwt>0</asrwt>
<pdfrwt beam="1">  1        1 0.38848572E-01 0.13609950E+03</pdfrwt>
<pdfrwt beam="2">  1       -1 0.91749079E-02 0.13609950E+03</pdfrwt>
<totfact> 0.72227094E+03</totfact>
</mgrwt>
</event>
<event>
 7    1  0.4230786E-006  0.1450587E+03  0.7546771E-02  0.1215983E+00
          2   -1    0    0  501    0  0.00000000000E+00  0.00000000000E+00  0.39095015652E+03  0.39095015652E+03  0.00000000000E+00 0.  1.
         -2   -1    0    0    0  501 -0.00000000000E+00 -0.00000000000E+00 -0.45306116378E+02  0.45306116378E+02  0.00000000000E+00 0. -1.
         23    2    1    2    0    0  0.19367077654E+02 -0.71019803920E+02  0.16213913429E+03  0.21755720742E+03  0.12499257332E+03 0.  0.
          5    1    3    3  502    0  0.26965313206E+02 -0.41420677838E+02  0.17658439118E+03  0.18343101667E+03  0.47000000000E+01 0. -1.
         -5    1    3    3    0  502 -0.75982355514E+01 -0.29599126082E+02 -0.14445256889E+02  0.34126190747E+02  0.47000000000E+01 0. -1.
        -11    1    1    2    0    0 -0.46786141470E+02  0.30460675443E+02  0.14812199544E+03  0.15829378167E+03  0.00000000000E+00 0.  1.
         11    1    1    2    0    0  0.27419063815E+02  0.40559128477E+02  0.35382910415E+02  0.60405283815E+02  0.00000000000E+00 0. -1.
<mgrwt>
<rscale>  0 0.13804560E+03</rscale>
<asrwt>0</asrwt>
<pdfrwt beam="1">  1        2 0.60146176E-01 0.14505875E+03</pdfrwt>
<pdfrwt beam="2">  1       -2 0.69701720E-02 0.14505875E+03</pdfrwt>
<totfact> 0.91710699E+03</totfact>
</mgrwt>
</event>
<event>
 7    1  0.4230786E-006  0.1484978E+03  0.7546771E-02  0.1211832E+00
         -4   -1    0    0    0  501 -0.00000000000E+00  0.00000000000E+00  0.20714349947E+03  0.20714349947E+03  0.00000000000E+00 0. -1.
          4   -1    0    0  501    0  0.00000000000E+00 -0.00000000000E+00 -0.87825285429E+02  0.87825285429E+02  0.00000000000E+00 0.  1.
         23    2    1    2    0    0  0.48028684936E+02  0.64192553682E+02  0.70636017501E+02  0.16444161221E+03  0.12499663328E+03 0.  0.
          5    1    3    3  502    0  0.93072542450E+01  0.43206174569E+01 -0.35074331555E+02  0.36845507879E+02  0.47000000000E+01 0. -1.
         -5    1    3    3    0  502  0.38721430691E+02  0.59871936225E+02  0.10571034906E+03  0.12759610433E+03  0.47000000000E+01 0. -1.
        -11    1    1    2    0    0 -0.38253610228E+02 -0.40077862751E+02 -0.18556896683E+02  0.58428864379E+02  0.00000000000E+00 0.  1.
         11    1    1    2    0    0 -0.97750747085E+01 -0.24114690930E+02  0.67239093223E+02  0.72098308313E+02  0.00000000000E+00 0. -1.
<mgrwt>
<rscale>  0 0.14111855E+03</rscale>
<asrwt>0</asrwt>
<pdfrwt beam="2">  1        4 0.13511582E-01 0.14849780E+03</pdfrwt>
<pdfrwt beam="1">  1       -4 0.31868231E-01 0.14849780E+03</pdfrwt>
<totfact> 0.72214068E+02</totfact>
</mgrwt>
</event>
<event>
 6    1  0.4230786E-006  0.2338514E+03  0.7546771E-02  0.1161133E+00
          1   -1    0    0  501    0  0.00000000000E+00  0.00000000000E+00  0.96791896579E+03  0.96791896579E+03  0.00000000000E+00 0. -1.
         -1   -1    0    0    0  501 -0.00000000000E+00 -0.00000000000E+00 -0.28849899854E+02  0.28849899854E+02  0.00000000000E+00 0.  1.
          5    1    1    2  502    0 -0.73495029174E+02  0.11754041254E+03  0.35313119903E+03  0.37939557407E+03  0.47000000000E+01 0. -1.
         -5    1    1    2    0  502  0.88221589437E+02 -0.35215882424E+02  0.23267230489E+03  0.25135969979E+03  0.47000000000E+01 0.  1.
        -11    1    1    2    0    0  0.56876715097E+01 -0.89095126479E+01  0.10569828594E+02  0.14948254056E+02  0.00000000000E+00 0. -1.
         11    1    1    2    0    0 -0.20414231773E+02 -0.73415017464E+02  0.34269573342E+03  0.35106533773E+03  0.00000000000E+00 0.  1.
<mgrwt>
<rscale>  0 0.18706715E+03</rscale>
<asrwt>0</asrwt>
<pdfrwt beam="1">  1        1 0.14891059E+00 0.23385139E+03</pdfrwt>
<pdfrwt beam="2">  1       -1 0.44384469E-02 0.23385139E+03</pdfrwt>
<totfact> 0.35445745E+03</totfact>
</mgrwt>
</event>
<event>
 7    1  0.4230786E-006  0.1260273E+03  0.7546771E-02  0.1248583E+00
         -3   -1    0    0    0  501 -0.00000000000E+00  0.00000000000E+00  0.76126842944E+02  0.76126842944E+02  0.00000000000E+00 0.  1.
          3   -1    0    0  501    0  0.00000000000E+00 -0.00000000000E+00 -0.23642767824E+03  0.23642767824E+03  0.00000000000E+00 0. -1.
         23    2    1    2    0    0 -0.14431640825E+02  0.70439617905E+01  0.15105837523E+01  0.12603635792E+03  0.12499996800E+03 0.  0.
          5    1    3    3  502    0 -0.53439074400E+02  0.32427714534E+01  0.42956394567E+02  0.68801105178E+02  0.47000000000E+01 0. -1.
         -5    1    3    3    0  502  0.39007433576E+02  0.38011903371E+01 -0.41445810815E+02  0.57235252740E+02  0.47000000000E+01 0. -1.
        -11    1    1    2    0    0 -0.27808034421E+02  0.21577408131E+02 -0.34166423803E+02  0.49053193938E+02  0.00000000000E+00 0.  1.
         11    1    1    2    0    0  0.42239675246E+02 -0.28621369921E+02 -0.12764499525E+03  0.13746496933E+03  0.00000000000E+00 0. -1.
<mgrwt>
<rscale>  0 0.11673450E+03</rscale>
<asrwt>0</asrwt>
<pdfrwt beam="2">  1        3 0.36373489E-01 0.12602731E+03</pdfrwt>
<pdfrwt beam="1">  1       -3 0.11711822E-01 0.12602731E+03</pdfrwt>
<totfact> 0.96273853E+02</totfact>
</mgrwt>
</event>
<event>
 7    1  0.4230786E-006  0.1367911E+03  0.7546771E-02  0.1228345E+00
         -1   -1    0    0    0  501 -0.00000000000E+00  0.00000000000E+00  0.31233521986E+03  0.31233521986E+03  0.00000000000E+00 0.  1.
          1   -1    0    0  501    0  0.00000000000E+00 -0.00000000000E+00 -0.48584962715E+02  0.48584962715E+02  0.00000000000E+00 0. -1.
         23    2    1    2    0    0 -0.54464916830E+02  0.11013564470E+02  0.14942997976E+03  0.20258611719E+03  0.12499636099E+03 0.  0.
          5    1    3    3  502    0 -0.75038323133E+02 -0.20082616297E+02  0.14523648606E+03  0.16477192813E+03  0.47000000000E+01 0. -1.
         -5    1    3    3    0  502  0.20573406304E+02  0.31096180767E+02  0.41934936954E+01  0.37814189064E+02  0.47000000000E+01 0. -1.
        -11    1    1    2    0    0 -0.54070696817E+01  0.21899476955E+02  0.77512032212E+02  0.80727558065E+02  0.00000000000E+00 0.  1.
         11    1    1    2    0    0  0.59871986511E+02 -0.32913041425E+02  0.36808245173E+02  0.77606507313E+02  0.00000000000E+00 0. -1.
<mgrwt>
<rscale>  0 0.12940278E+03</rscale>
<asrwt>0</asrwt>
<pdfrwt beam="2">  1        1 0.74746098E-02 0.13679114E+03</pdfrwt>
<pdfrwt beam="1">  1       -1 0.48051571E-01 0.13679114E+03</pdfrwt>
<totfact> 0.40461647E+03</totfact>
</mgrwt>
</event>
<event>
 7    1  0.4230786E-006  0.1323148E+03  0.7546771E-02  0.1237659E+00
         -2   -1    0    0    0  501 -0.00000000000E+00  0.00000000000E+00  0.42617837229E+02  0.42617837229E+02  0.00000000000E+00 0.  1.
          2   -1    0    0  501    0  0.00000000000E+00 -0.00000000000E+00 -0.31649297855E+03  0.31649297855E+03  0.00000000000E+00 0. -1.
         23    2    1    2    0    0  0.12259850831E+02  0.41621294740E+02 -0.15569909314E+03  0.20432671911E+03  0.12499825767E+03 0.  0.
          5    1    3    3  502    0  0.35468963498E+02  0.77691975716E+02 -0.79586614476E+02  0.11683411174E+03  0.47000000000E+01 0. -1.
         -5    1    3    3    0  502 -0.23209112667E+02 -0.36070680976E+02 -0.76112478664E+02  0.87492607374E+02  0.47000000000E+01 0. -1.
        -11    1    1    2    0    0  0.34028278975E+02 -0.26345862443E+02 -0.25371202249E+02  0.49957243134E+02  0.00000000000E+00 0.  1.
         11    1    1    2    0    0 -0.46288129806E+02 -0.15275432296E+02 -0.92804845933E+02  0.10482685353E+03  0.00000000000E+00 0. -1.
<mgrwt>
<rscale>  0 0.12335755E+03</rscale>
<asrwt>0</asrwt>
<pdfrwt beam="2">  1        2 0.48691229E-01 0.13231478E+03</pdfrwt>
<pdfrwt beam="1">  1       -2 0.65565902E-02 0.13231478E+03</pdfrwt>
<totfact> 0.12521745E+04</totfact>
</mgrwt>
</event>
<event>
 7    1  0.4230786E-006  0.1743245E+03  0.7546771E-02  0.1179266E+00
          1   -1    0    0  501    0  0.00000000000E+00  0.00000000000E+00  0.21513636848E+03  0.21513636848E+03  0.00000000000E+00 0. -1.
         -1   -1    0    0    0  501 -0.00000000000E+00 -0.00000000000E+00 -0.42506662075E+03  0.42506662075E+03  0.00000000000E+00 0.  1.
         23    2    1    2    0    0 -0.63698070870E+01 -0.12133913740E+03 -0.37609441004E+03  0.41453109596E+03  0.12500105421E+03 0.  0.
          5    1    3    3  502    0  0.24893524027E+02 -0.26384302731E+02 -0.14506843594E+02  0.39349173818E+02  0.47000000000E+01 0.  1.
         -5    1    3    3    0  502 -0.31263331114E+02 -0.94954834671E+02 -0.36158756644E+03  0.37518192215E+03  0.47000000000E+01 0.  1.
        -11    1    1    2    0    0 -0.31467861287E+02  0.10517097273E+03  0.13531276428E+03  0.17424323222E+03  0.00000000000E+00 0. -1.
         11    1    1    2    0    0  0.37837668374E+02  0.16168164670E+02  0.30851393493E+02  0.51428661048E+02  0.00000000000E+00 0.  1.
<mgrwt>
<rscale>  0 0.16864696E+03</rscale>
<asrwt>0</asrwt>
<pdfrwt beam="1">  1        1 0.33097903E-01 0.17432448E+03</pdfrwt>
<pdfrwt beam="2">  1       -1 0.65394864E-01 0.17432448E+03</pdfrwt>
<totfact> 0.33194861E+02</totfact>
</mgrwt>
</event>
<event>
 7    1  0.4230786E-006  0.1373585E+03  0.7546771E-02  0.1228608E+00
          3   -1    0    0  501    0  0.00000000000E+00  0.00000000000E+00  0.40900656642E+02  0.40900656642E+02  0.00000000000E+00 0. -1.
         -3   -1    0    0    0  501 -0.00000000000E+00 -0.00000000000E+00 -0.38605020443E+03  0.38605020443E+03  0.00000000000E+00 0.  1.
         23    2    1    2    0    0 -0.53154563868E+01 -0.56410045531E+02 -0.23983448600E+03  0.27638369748E+03  0.12512801542E+03 0.  0.
          5    1    3    3  502    0 -0.36507747694E+02 -0.66370917763E+01 -0.20403402363E+03  0.20743393992E+03  0.47000000000E+01 0.  1.
         -5    1    3    3    0  502  0.31192291307E+02 -0.49772953755E+02 -0.35800462370E+02  0.68949757565E+02  0.47000000000E+01 0.  1.
        -11    1    1    2    0    0  0.36123355205E+02  0.64185280310E+02 -0.58845187126E+02  0.94273023966E+02  0.00000000000E+00 0.  1.
         11    1    1    2    0    0 -0.30807898819E+02 -0.77752347786E+01 -0.46469874661E+02  0.56294139628E+02  0.00000000000E+00 0. -1.
<mgrwt>
<rscale>  0 0.12922651E+03</rscale>
<asrwt>0</asrwt>
<pdfrwt beam="1">  1        3 0.62924086E-02 0.13735854E+03</pdfrwt>
<pdfrwt beam="2">  1       -3 0.59392340E-01 0.13735854E+03</pdfrwt>
<totfact> 0.10240571E+03</totfact>
</mgrwt>
</event>
<event>
 7    1  0.4230786E-006  0.1678639E+03  0.7546771E-02  0.1187127E+00
         -2   -1    0    0    0  501 -0.00000000000E+00  0.00000000000E+00  0.29592714985E+02  0.29592714985E+02  0.00000000000E+00 0.  1.
          2   -1    0    0  501    0  0.00000000000E+00 -0.00000000000E+00 -0.83335983130E+03  0.83335983130E+03  0.00000000000E+00 0. -1.
         23    2    1    2    0    0 -0.10025427247E+02  0.11160942057E+03 -0.37595947883E+03  0.41173268267E+03  0.12498440024E+03 0.  0.
          5    1    3    3  502    0 -0.65939673140E+02  0.55518414580E+02 -0.16253154217E+03  0.18403512451E+03  0.47000000000E+01 0.  1.
         -5    1    3    3    0  502  0.55914245893E+02  0.56091005985E+02 -0.21342793666E+03  0.22769755816E+03  0.47000000000E+01 0.  1.
        -11    1    1    2    0    0  0.38428386531E+02 -0.30389837117E+02 -0.23548267331E+03  0.24052520142E+03  0.00000000000E+00 0. -1.
         11    1    1    2    0    0 -0.28402959284E+02 -0.81219583449E+02 -0.19232496418E+03  0.21069466220E+03  0.00000000000E+00 0.  1.
<mgrwt>
<rscale>  0 0.16139814E+03</rscale>
<asrwt>0</asrwt>
<pdfrwt beam="2">  1        2 0.12820921E+00 0.16786385E+03</pdfrwt>
<pdfrwt beam="1">  1       -2 0.45527253E-02 0.16786385E+03</pdfrwt>
<totfact> 0.74187065E+03</totfact>
</mgrwt>
</event>
<event>
 7    1  0.4230786E-006  0.1807625E+03  0.7546771E-02  0.1172671E+00
          2   -1    0    0  501    0  0.00000000000E+00  0.00000000000E+00  0.87760845178E+03  0.87760845178E+03  0.00000000000E+00 0.  1.
         -2   -1    0    0    0  501 -0.00000000000E+00 -0.00000000000E+00 -0.46672423941E+02  0.46672423941E+02  0.00000000000E+00 0. -1.
         23    2    1    2    0    0 -0.33508631762E+01  0.13053253170E+03  0.18340573344E+03  0.25751264366E+03  0.12500051389E+03 0.  0.
          5    1    3    3  502    0  0.31588075130E+02  0.13129831701E+03  0.10362247460E+03  0.17028435566E+03  0.47000000000E+01 0.  1.
         -5    1    3    3    0  502 -0.34938938306E+02 -0.76578531282E+00  0.79783258833E+02  0.87228287998E+02  0.47000000000E+01 0.  1.
        -11    1    1    2    0    0  0.43227058035E+02 -0.66000101394E+02  0.25318279759E+03  0.26519072556E+03  0.00000000000E+00 0. -1.
         11    1    1    2    0    0 -0.39876194858E+02 -0.64532430307E+02  0.39434749681E+03  0.40157750649E+03  0.00000000000E+00 0.  1.
<mgrwt>
<rscale>  0 0.17506040E+03</rscale>
<asrwt>0</asrwt>
<pdfrwt beam="1">  1        2 0.13501667E+00 0.18076255E+03</pdfrwt>
<pdfrwt beam="2">  1       -2 0.71803736E-02 0.18076255E+03</pdfrwt>
<totfact> 0.34780156E+03</totfact>
</mgrwt>
</event>
<event>
 7    1  0.4230786E-006  0.2643783E+03  0.7546771E-02  0.1106758E+00
          2   -1    0    0  501    0  0.00000000000E+00  0.00000000000E+00  0.25192878517E+03  0.25192878517E+03  0.00000000000E+00 0. -1.
         -2   -1    0    0    0  501 -0.00000000000E+00 -0.00000000000E+00 -0.27289883514E+03  0.27289883514E+03  0.00000000000E+00 0.  1.
         23    2    1    2    0    0  0.23047448951E+03 -0.33939026380E+02 -0.62468666311E+02  0.27165826160E+03  0.12500211598E+03 0.  0.
          5    1    3    3  502    0  0.13735704531E+03 -0.53737530787E+01  0.26017634897E+02  0.13998157895E+03  0.47000000000E+01 0. -1.
         -5    1    3    3    0  502  0.93117444192E+02 -0.28565273301E+02 -0.88486301208E+02  0.13167668265E+03  0.47000000000E+01 0. -1.
        -11    1    1    2    0    0 -0.36472368518E+02  0.19020372149E+02  0.41728733281E+02  0.58594329105E+02  0.00000000000E+00 0. -1.
         11    1    1    2    0    0 -0.19400212099E+03  0.14918654231E+02 -0.23011694402E+00  0.19457502960E+03  0.00000000000E+00 0.  1.
<mgrwt>
<rscale>  0 0.26064149E+03</rscale>
<asrwt>0</asrwt>
<pdfrwt beam="1">  1        2 0.38758274E-01 0.26437828E+03</pdfrwt>
<pdfrwt beam="2">  1       -2 0.41984436E-01 0.26437828E+03</pdfrwt>
<totfact> 0.71918883E+02</totfact>
</mgrwt>
</event>
<event>
 7    1  0.4230786E-006  0.1668631E+03  0.7546771E-02  0.1188871E+00
          1   -1    0    0  501    0  0.00000000000E+00  0.00000000000E+00  0.11380013146E+04  0.11380013146E+04  0.00000000000E+00 0. -1.
         -1   -1    0    0    0  501 -0.00000000000E+00 -0.00000000000E+00 -0.20846770443E+02  0.20846770443E+02  0.00000000000E+00 0.  1.
         23    2    1    2    0    0 -0.10181862447E+03  0.43577858804E+02  0.56816848686E+03  0.59216443533E+03  0.12480876146E+03 0.  0.
          5    1    3    3  502    0 -0.84838661695E+02  0.28738272997E+02  0.56087508721E+03  0.56800214816E+03  0.47000000000E+01 0. -1.
         -5    1    3    3    0  502 -0.16979962779E+02  0.14839585806E+02  0.72933996453E+01  0.24162287170E+02  0.47000000000E+01 0. -1.
        -11    1    1    2    0    0 -0.10312972140E+02  0.10803465638E+02  0.41044720840E+02  0.43677698806E+02  0.00000000000E+00 0.  1.
         11    1    1    2    0    0  0.11213159661E+03 -0.54381324442E+02  0.50794133650E+03  0.52300595095E+03  0.00000000000E+00 0. -1.
<mgrwt>
<rscale>  0 0.15984587E+03</rscale>
<asrwt>0</asrwt>
<pdfrwt beam="1">  1        1 0.17507708E+00 0.16686308E+03</pdfrwt>
<pdfrwt beam="2">  1       -1 0.32071963E-02 0.16686308E+03</pdfrwt>
<totfact> 0.42742164E+03</totfact>
</mgrwt>
</event>
<event>
 7    1  0.4230786E-006  0.1889784E+03  0.7546771E-02  0.1164487E+00
         -2   -1    0    0    0  501 -0.00000000000E+00  0.00000000000E+00  0.83749845461E+03  0.83749845461E+03  0.00000000000E+00 0.  1.
          2   -1    0    0  501    0  0.00000000000E+00 -0.00000000000E+00 -0.68924806616E+02  0.68924806616E+02  0.00000000000E+00 0. -1.
         23    2    1    2    0    0  0.35588220030E+02 -0.13719199310E+03  0.70001696568E+03  0.72507694958E+03  0.12499866478E+03 0.  0.
          5    1    3    3  502    0  0.23153013902E+02 -0.18178762441E+02  0.23271678257E+02  0.37817859082E+02  0.47000000000E+01 0. -1.
         -5    1    3    3    0  502  0.12435206128E+02 -0.11901323065E+03  0.67674528742E+03  0.68725909050E+03  0.47000000000E+01 0. -1.
        -11    1    1    2    0    0 -0.61519647966E+02  0.11141438647E+03  0.69016353140E+02  0.14477945158E+03  0.00000000000E+00 0.  1.
         11    1    1    2    0    0  0.25931427935E+02  0.25777606623E+02 -0.45967082513E+00  0.36566860068E+02  0.00000000000E+00 0. -1.
<mgrwt>
<rscale>  0 0.18346963E+03</rscale>
<asrwt>0</asrwt>
<pdfrwt beam="2">  1        2 0.10603817E-01 0.18897839E+03</pdfrwt>
<pdfrwt beam="1">  1       -2 0.12884591E+00 0.18897839E+03</pdfrwt>
<totfact> 0.27717522E+02</totfact>
</mgrwt>
</event>
<event>
 7    1  0.4230786E-006  0.2836049E+03  0.7546771E-02  0.1095464E+00
          2   -1    0    0  501    0  0.00000000000E+00  0.00000000000E+00  0.78465361121E+03  0.78465361121E+03  0.00000000000E+00 0. -1.
         -2   -1    0    0    0  501 -0.00000000000E+00 -0.00000000000E+00 -0.10951671647E+03  0.10951671647E+03  0.00000000000E+00 0.  1.
         23    2    1    2    0    0 -0.87020427834E+02 -0.23923536511E+03  0.19956668168E+03  0.34678324911E+03  0.12500258655E+03 0.  0.
          5    1    3    3  502    0 -0.91391488340E+01 -0.88655819406E+02  0.14193888147E+03  0.16766667656E+03  0.47000000000E+01 0. -1.
         -5    1    3    3    0  502 -0.77881279000E+02 -0.15057954571E+03  0.57627800211E+02  0.17911657255E+03  0.47000000000E+01 0. -1.
        -11    1    1    2    0    0 -0.69553351027E+01  0.73894362849E+02  0.19297905148E+03  0.20675992808E+03  0.00000000000E+00 0. -1.
         11    1    1    2    0    0  0.93975762937E+02  0.16534100226E+03  0.28259116158E+03  0.34062715049E+03  0.00000000000E+00 0.  1.
<mgrwt>
<rscale>  0 0.28041151E+03</rscale>
<asrwt>0</asrwt>
<pdfrwt beam="1">  1        2 0.12071594E+00 0.28360494E+03</pdfrwt>
<pdfrwt beam="2">  1       -2 0.16848726E-01 0.28360494E+03</pdfrwt>
<totfact> 0.10260548E+03</totfact>
</mgrwt>
</event>
<event>
 7    1  0.4230786E-006  0.1604916E+03  0.7546771E-02  0.1197009E+00
          1   -1    0    0  501    0  0.00000000000E+00  0.00000000000E+00  0.87236260530E+03  0.87236260530E+03  0.00000000000E+00 0. -1.
         -1   -1    0    0    0  501 -0.00000000000E+00 -0.00000000000E+00 -0.25543010262E+02  0.25543010262E+02  0.00000000000E+00 0.  1.
         23    2    1    2    0    0  0.12572139471E+02 -0.99868551778E+02  0.55208480419E+03  0.57493928898E+03  0.12500307465E+03 0.  0.
          5    1    3    3  502    0  0.93910889757E+01 -0.11007196298E+03  0.25891424266E+03  0.28153632917E+03  0.47000000000E+01 0.  1.
         -5    1    3    3    0  502  0.31810504956E+01  0.10203411205E+02  0.29317056152E+03  0.29340295981E+03  0.47000000000E+01 0.  1.
        -11    1    1    2    0    0  0.12660091010E+02  0.76859749859E+02  0.10814775909E+03  0.13328029430E+03  0.00000000000E+00 0.  1.
         11    1    1    2    0    0 -0.25232230481E+02  0.23008801919E+02  0.18658703177E+03  0.18968603229E+03  0.00000000000E+00 0. -1.
<mgrwt>
<rscale>  0 0.15285454E+03</rscale>
<asrwt>0</asrwt>
<pdfrwt beam="1">  1        1 0.13420961E+00 0.16049160E+03</pdfrwt>
<pdfrwt beam="2">  1       -1 0.39296945E-02 0.16049160E+03</pdfrwt>
<totfact> 0.49737494E+03</totfact>
</mgrwt>
</event>
<event>
 7    1  0.4230786E-006  0.1286690E+03  0.7546771E-02  0.1270602E+00
         -1   -1    0    0    0  501 -0.00000000000E+00  0.00000000000E+00  0.75164930789E+03  0.75164930789E+03  0.00000000000E+00 0.  1.
          1   -1    0    0  501    0  0.00000000000E+00 -0.00000000000E+00 -0.12416041988E+02  0.12416041988E+02  0.00000000000E+00 0. -1.
         23    2    1    2    0    0  0.13775129039E+02 -0.45806782517E+02  0.60288651531E+03  0.61646399068E+03  0.11944741923E+03 0.  0.
          5    1    3    3  502    0 -0.81045732906E+01  0.12653504198E+02  0.68845339782E+01  0.17183773881E+02  0.47000000000E+01 0. -1.
         -5    1    3    3    0  502  0.21879702329E+02 -0.58460286715E+02  0.59600198133E+03  0.59928021680E+03  0.47000000000E+01 0.  1.
        -11    1    1    2    0    0 -0.17913271909E+00  0.13126332266E+02  0.10320094380E+02  0.16698414155E+02  0.00000000000E+00 0. -1.
         11    1    1    2    0    0 -0.13595996320E+02  0.32680450251E+02  0.12602665621E+03  0.13090294504E+03  0.00000000000E+00 0.  1.
<mgrwt>
<rscale>  0 0.10475542E+03</rscale>
<asrwt>0</asrwt>
<pdfrwt beam="2">  1        1 0.19101609E-02 0.12866896E+03</pdfrwt>
<pdfrwt beam="1">  1       -1 0.11563832E+00 0.12866896E+03</pdfrwt>
<totfact> 0.44422983E+03</totfact>
</mgrwt>
</event>
<event>
 7    1  0.4230786E-006  0.1374413E+03  0.7546771E-02  0.1228254E+00
          2   -1    0    0  501    0  0.00000000000E+00  0.00000000000E+00  0.72823463992E+02  0.72823463992E+02  0.00000000000E+00 0. -1.
         -2   -1    0    0    0  501 -0.00000000000E+00 -0.00000000000E+00 -0.20905866618E+03  0.20905866618E+03  0.00000000000E+00 0.  1.
         23    2    1    2    0    0  0.23781281615E+02 -0.51961821380E+02 -0.89535465565E+02  0.16403268512E+03  0.12499816781E+03 0.  0.
          5    1    3    3  502    0  0.59953844578E+02 -0.36299679470E+02 -0.47383452035E+01  0.70403637154E+02  0.47000000000E+01 0. -1.
         -5    1    3    3    0  502 -0.36172562963E+02 -0.15662141910E+02 -0.84797120361E+02  0.93629047961E+02  0.47000000000E+01 0. -1.
        -11    1    1    2    0    0 -0.16646505104E+02  0.65571952746E+02 -0.65092590367E+02  0.93882013399E+02  0.00000000000E+00 0.  1.
         11    1    1    2    0    0 -0.71347765105E+01 -0.13610131366E+02  0.18392853742E+02  0.23967431661E+02  0.00000000000E+00 0. -1.
<mgrwt>
<rscale>  0 0.12946329E+03</rscale>
<asrwt>0</asrwt>
<pdfrwt beam="1">  1        2 0.11203610E-01 0.13744134E+03</pdfrwt>
<pdfrwt beam="2">  1       -2 0.32162872E-01 0.13744134E+03</pdfrwt>
<totfact> 0.47679419E+03</totfact>
</mgrwt>
</event>
<event>
 7    1  0.4230786E-006  0.1259147E+03  0.7546771E-02  0.1241304E+00
          2   -1    0    0  501    0  0.00000000000E+00  0.00000000000E+00  0.31804649811E+03  0.31804649811E+03  0.00000000000E+00 0. -1.
         -2   -1    0    0    0  501 -0.00000000000E+00 -0.00000000000E+00 -0.50724510332E+02  0.50724510332E+02  0.00000000000E+00 0.  1.
         23    2    1    2    0    0 -0.10591561833E+02 -0.57082652828E+02  0.70251371111E+02  0.14418659430E+03  0.11173141186E+03 0.  0.
          5    1    3    3  502    0  0.45893503355E+02 -0.43742495153E+02  0.18312583064E+02  0.66159354825E+02  0.47000000000E+01 0. -1.
         -5    1    3    3    0  502 -0.56485065188E+02 -0.13340157674E+02  0.51938788047E+02  0.78027239473E+02  0.47000000000E+01 0.  1.
        -11    1    1    2    0    0 -0.31362252211E+02 -0.26803344085E+01  0.36544749864E+02  0.48231668009E+02  0.00000000000E+00 0.  1.
         11    1    1    2    0    0  0.41953814044E+02  0.59762987236E+02  0.16052586680E+03  0.17635274613E+03  0.00000000000E+00 0. -1.
<mgrwt>
<rscale>  0 0.12109351E+03</rscale>
<asrwt>0</asrwt>
<pdfrwt beam="1">  1        2 0.48930229E-01 0.12591473E+03</pdfrwt>
<pdfrwt beam="2">  1       -2 0.78037710E-02 0.12591473E+03</pdfrwt>
<totfact> 0.95048273E+03</totfact>
</mgrwt>
</event>
<event>
 7    1  0.4230786E-006  0.1774660E+03  0.7546771E-02  0.1176944E+00
         -1   -1    0    0    0  501 -0.00000000000E+00  0.00000000000E+00  0.53164301518E+02  0.53164301518E+02  0.00000000000E+00 0.  1.
          1   -1    0    0  501    0  0.00000000000E+00 -0.00000000000E+00 -0.76886583549E+03  0.76886583549E+03  0.00000000000E+00 0. -1.
         23    2    1    2    0    0  0.41477617932E+02 -0.11613823454E+03 -0.13877138563E+03  0.22528134098E+03  0.12761544897E+03 0.  0.
          5    1    3    3  502    0  0.30930446693E+02  0.18980113118E+02 -0.54414624737E+02  0.65574222160E+02  0.47000000000E+01 0. -1.
         -5    1    3    3    0  502  0.10547171239E+02 -0.13511834766E+03 -0.84356760890E+02  0.15970711882E+03  0.47000000000E+01 0.  1.
        -11    1    1    2    0    0 -0.20243153813E+02 -0.11275862430E+02 -0.98374873000E+02  0.10106703710E+03  0.00000000000E+00 0.  1.
         11    1    1    2    0    0 -0.21234464119E+02  0.12741409697E+03 -0.47855527534E+03  0.49568175893E+03  0.00000000000E+00 0. -1.
<mgrwt>
<rscale>  0 0.17086941E+03</rscale>
<asrwt>0</asrwt>
<pdfrwt beam="2">  1        1 0.11828705E+00 0.17746601E+03</pdfrwt>
<pdfrwt beam="1">  1       -1 0.81791237E-02 0.17746601E+03</pdfrwt>
<totfact> 0.20235391E+03</totfact>
</mgrwt>
</event>
<event>
 7    1  0.4230786E-006  0.1537187E+03  0.7546771E-02  0.1204331E+00
          2   -1    0    0  501    0  0.00000000000E+00  0.00000000000E+00  0.38733345661E+03  0.38733345661E+03  0.00000000000E+00 0. -1.
         -2   -1    0    0    0  501 -0.00000000000E+00 -0.00000000000E+00 -0.53330513746E+02  0.53330513746E+02  0.00000000000E+00 0.  1.
         23    2    1    2    0    0  0.54252992399E+02  0.71143849605E+02  0.22431314544E+03  0.27192980847E+03  0.12499839596E+03 0.  0.
          5    1    3    3  502    0  0.62864407726E+02 -0.10782916474E+02  0.14022087609E+03  0.15411745241E+03  0.47000000000E+01 0. -1.
         -5    1    3    3    0  502 -0.86114153265E+01  0.81926766079E+02  0.84092269359E+02  0.11781235606E+03  0.47000000000E+01 0. -1.
        -11    1    1    2    0    0 -0.76296972234E+02 -0.62631912621E+02  0.10595290734E+03  0.14481023108E+03  0.00000000000E+00 0. -1.
         11    1    1    2    0    0  0.22043979835E+02 -0.85119369841E+01  0.37368900820E+01  0.23923930816E+02  0.00000000000E+00 0.  1.
<mgrwt>
<rscale>  0 0.14690299E+03</rscale>
<asrwt>0</asrwt>
<pdfrwt beam="1">  1        2 0.59589761E-01 0.15371868E+03</pdfrwt>
<pdfrwt beam="2">  1       -2 0.82046947E-02 0.15371868E+03</pdfrwt>
<totfact> 0.72305385E+03</totfact>
</mgrwt>
</event>
<event>
 7    1  0.4230786E-006  0.1397064E+03  0.7546771E-02  0.1225257E+00
          2   -1    0    0  501    0  0.00000000000E+00  0.00000000000E+00  0.63313718005E+03  0.63313718005E+03  0.00000000000E+00 0. -1.
         -2   -1    0    0    0  501 -0.00000000000E+00 -0.00000000000E+00 -0.26591463279E+02  0.26591463279E+02  0.00000000000E+00 0.  1.
         23    2    1    2    0    0 -0.61438711039E+02  0.10858429604E+02  0.24623980255E+03  0.28311115007E+03  0.12500104890E+03 0.  0.
          5    1    3    3  502    0 -0.78341625514E+02 -0.92287170090E+01  0.72200083868E+02  0.10703981323E+03  0.47000000000E+01 0.  1.
         -5    1    3    3    0  502  0.16902914475E+02  0.20087146613E+02  0.17403971868E+03  0.17607133684E+03  0.47000000000E+01 0.  1.
        -11    1    1    2    0    0 -0.18155955009E+02 -0.71160326094E+01  0.23614251163E+02  0.30625307841E+02  0.00000000000E+00 0.  1.
         11    1    1    2    0    0  0.79594666048E+02 -0.37423969946E+01  0.33669166306E+03  0.34599218542E+03  0.00000000000E+00 0. -1.
<mgrwt>
<rscale>  0 0.13149283E+03</rscale>
<asrwt>0</asrwt>
<pdfrwt beam="1">  1        2 0.97405709E-01 0.13970642E+03</pdfrwt>
<pdfrwt beam="2">  1       -2 0.40909948E-02 0.13970642E+03</pdfrwt>
<totfact> 0.12009761E+04</totfact>
</mgrwt>
</event>
<event>
 7    1  0.4230786E-006  0.1512383E+03  0.7546771E-02  0.1208100E+00
          2   -1    0    0  501    0  0.00000000000E+00  0.00000000000E+00  0.12512406608E+03  0.12512406608E+03  0.00000000000E+00 0. -1.
         -2   -1    0    0    0  501 -0.00000000000E+00 -0.00000000000E+00 -0.15167454524E+03  0.15167454524E+03  0.00000000000E+00 0.  1.
         23    2    1    2    0    0  0.51140355171E+01 -0.84988109667E+02 -0.18798242247E+02  0.15240206956E+03  0.12499553892E+03 0.  0.
          5    1    3    3  502    0  0.22195381986E+02  0.62089145920E+01 -0.49297735849E+02  0.54621812142E+02  0.47000000000E+01 0. -1.
         -5    1    3    3    0  502 -0.17081346469E+02 -0.91197024259E+02  0.30499493601E+02  0.97780257418E+02  0.47000000000E+01 0. -1.
        -11    1    1    2    0    0  0.24368134356E+02  0.56954850023E+02  0.30058639527E+02  0.68856246800E+02  0.00000000000E+00 0. -1.
         11    1    1    2    0    0 -0.29482169873E+02  0.28033259643E+02 -0.37810876437E+02  0.55540294954E+02  0.00000000000E+00 0.  1.
<mgrwt>
<rscale>  0 0.14395844E+03</rscale>
<asrwt>0</asrwt>
<pdfrwt beam="1">  1        2 0.19249856E-01 0.15123828E+03</pdfrwt>
<pdfrwt beam="2">  1       -2 0.23334545E-01 0.15123828E+03</pdfrwt>
<totfact> 0.44862805E+03</totfact>
</mgrwt>
</event>
<event>
 7    1  0.4230786E-006  0.1419256E+03  0.7546771E-02  0.1221183E+00
         -3   -1    0    0    0  501 -0.00000000000E+00  0.00000000000E+00  0.56286755902E+03  0.56286755902E+03  0.00000000000E+00 0.  1.
          3   -1    0    0  501    0  0.00000000000E+00 -0.00000000000E+00 -0.49048623954E+02  0.49048623954E+02  0.00000000000E+00 0. -1.
         23    2    1    2    0    0 -0.17499218885E+01 -0.67191459684E+02  0.46823049326E+03  0.48926749210E+03  0.12500051808E+03 0.  0.
          5    1    3    3  502    0  0.36912005187E+02  0.22274299898E+02  0.11875366798E+03  0.12642453964E+03  0.47000000000E+01 0. -1.
         -5    1    3    3    0  502 -0.38661927076E+02 -0.89465759582E+02  0.34947682528E+03  0.36284295246E+03  0.47000000000E+01 0. -1.
        -11    1    1    2    0    0  0.19040974902E+02  0.32731904740E+02 -0.22756505107E+02  0.44179122194E+02  0.00000000000E+00 0. -1.
         11    1    1    2    0    0 -0.17291053014E+02  0.34459554944E+02  0.68344946912E+02  0.78469568686E+02  0.00000000000E+00 0.  1.
<mgrwt>
<rscale>  0 0.13431968E+03</rscale>
<asrwt>0</asrwt>
<pdfrwt beam="2">  1        3 0.75459425E-02 0.14192563E+03</pdfrwt>
<pdfrwt beam="1">  1       -3 0.86595005E-01 0.14192563E+03</pdfrwt>
<totfact> 0.34397666E+02</totfact>
</mgrwt>
</event>
<event>
 7    1  0.4230786E-006  0.2563042E+03  0.7546771E-02  0.1111691E+00
         -1   -1    0    0    0  501 -0.00000000000E+00  0.00000000000E+00  0.18412645616E+03  0.18412645616E+03  0.00000000000E+00 0.  1.
          1   -1    0    0  501    0  0.00000000000E+00 -0.00000000000E+00 -0.55693604892E+03  0.55693604892E+03  0.00000000000E+00 0. -1.
         23    2    1    2    0    0 -0.20598132700E+03 -0.87406821836E+02  0.43219426297E+02  0.25992260738E+03  0.12499433364E+03 0.  0.
          5    1    3    3  502    0 -0.21903715285E+03 -0.73772818107E+02  0.23735981745E+02  0.23239016728E+03  0.47000000000E+01 0.  1.
         -5    1    3    3    0  502  0.13055825851E+02 -0.13634003729E+02  0.19483444552E+02  0.27532440101E+02  0.47000000000E+01 0.  1.
        -11    1    1    2    0    0  0.98257602219E+02  0.88376384472E+02 -0.19964560374E+03  0.23942286612E+03  0.00000000000E+00 0.  1.
         11    1    1    2    0    0  0.10772372478E+03 -0.96956263586E+00 -0.21638341532E+03  0.24171703158E+03  0.00000000000E+00 0. -1.
<mgrwt>
<rscale>  0 0.25257058E+03</rscale>
<asrwt>0</asrwt>
<pdfrwt beam="2">  1        1 0.85682467E-01 0.25630420E+03</pdfrwt>
<pdfrwt beam="1">  1       -1 0.28327148E-01 0.25630420E+03</pdfrwt>
<totfact> 0.44277479E+02</totfact>
</mgrwt>
</event>
<event>
 7    1  0.4230786E-006  0.1586359E+03  0.7546771E-02  0.1197977E+00
          2   -1    0    0  501    0  0.00000000000E+00  0.00000000000E+00  0.54733482834E+02  0.54733482834E+02  0.00000000000E+00 0. -1.
         -2   -1    0    0    0  501 -0.00000000000E+00 -0.00000000000E+00 -0.40552250119E+03  0.40552250119E+03  0.00000000000E+00 0.  1.
         23    2    1    2    0    0  0.44637730709E+02 -0.86753007473E+02 -0.23333398989E+03  0.28215260755E+03  0.12508689700E+03 0.  0.
          5    1    3    3  502    0  0.45969617524E+02  0.62864788865E+01 -0.15024703889E+03  0.15731811163E+03  0.47000000000E+01 0. -1.
         -5    1    3    3    0  502 -0.13318868143E+01 -0.93039486360E+02 -0.83086950998E+02  0.12483449592E+03  0.47000000000E+01 0. -1.
        -11    1    1    2    0    0 -0.53609150104E+02  0.10741939875E+02 -0.31865884771E+02  0.63283211513E+02  0.00000000000E+00 0.  1.
         11    1    1    2    0    0  0.89714193949E+01  0.76011067598E+02 -0.85589143696E+02  0.11482016496E+03  0.00000000000E+00 0. -1.
<mgrwt>
<rscale>  0 0.15204910E+03</rscale>
<asrwt>0</asrwt>
<pdfrwt beam="1">  1        2 0.84205356E-02 0.15863588E+03</pdfrwt>
<pdfrwt beam="2">  1       -2 0.62388079E-01 0.15863588E+03</pdfrwt>
<totfact> 0.18898234E+03</totfact>
</mgrwt>
</event>
<event>
 7    1  0.4230786E-006  0.1767971E+03  0.7546771E-02  0.1176768E+00
         -2   -1    0    0    0  501 -0.00000000000E+00  0.00000000000E+00  0.64647046248E+03  0.64647046248E+03  0.00000000000E+00 0. -1.
          2   -1    0    0  501    0  0.00000000000E+00 -0.00000000000E+00 -0.44846404669E+02  0.44846404669E+02  0.00000000000E+00 0.  1.
         23    2    1    2    0    0  0.33167719589E+02  0.12053632679E+03  0.39791811806E+03  0.43542627248E+03  0.12501242490E+03 0.  0.
          5    1    3    3  502    0  0.47960628117E+02  0.76111198032E+02  0.10325256379E+03  0.13702670632E+03  0.47000000000E+01 0.  1.
         -5    1    3    3    0  502 -0.14792908527E+02  0.44425128762E+02  0.29466555427E+03  0.29839956616E+03  0.47000000000E+01 0.  1.
        -11    1    1    2    0    0  0.25440814019E+02 -0.62656061413E+02  0.12415275877E+03  0.14137512002E+03  0.00000000000E+00 0. -1.
         11    1    1    2    0    0 -0.58608533608E+02 -0.57880265381E+02  0.79553180983E+02  0.11451547466E+03  0.00000000000E+00 0.  1.
<mgrwt>
<rscale>  0 0.17103944E+03</rscale>
<asrwt>0</asrwt>
<pdfrwt beam="2">  1        2 0.68994473E-02 0.17679709E+03</pdfrwt>
<pdfrwt beam="1">  1       -2 0.99456988E-01 0.17679709E+03</pdfrwt>
<totfact> 0.88065233E+02</totfact>
</mgrwt>
</event>
<event>
 7    1  0.4230786E-006  0.1304139E+03  0.7546771E-02  0.1236352E+00
          2   -1    0    0  501    0  0.00000000000E+00  0.00000000000E+00  0.29653398897E+03  0.29653398897E+03  0.00000000000E+00 0. -1.
         -2   -1    0    0    0  501 -0.00000000000E+00 -0.00000000000E+00 -0.73129474950E+02  0.73129474950E+02  0.00000000000E+00 0.  1.
         23    2    1    2    0    0 -0.41517558205E+02 -0.38583670054E+02  0.99488047016E+01  0.13079287794E+03  0.11745378228E+03 0.  0.
          5    1    3    3  502    0 -0.16872120432E+02 -0.34841816731E+02  0.61796631564E+02  0.73072117210E+02  0.47000000000E+01 0. -1.
         -5    1    3    3    0  502 -0.24645437773E+02 -0.37418533233E+01 -0.51847826862E+02  0.57720760733E+02  0.47000000000E+01 0.  1.
        -11    1    1    2    0    0  0.24498565483E+02 -0.24592094948E+02  0.11905861545E+03  0.12401574399E+03  0.00000000000E+00 0.  1.
         11    1    1    2    0    0  0.17018992722E+02  0.63175765002E+02  0.94397093877E+02  0.11485484199E+03  0.00000000000E+00 0. -1.
<mgrwt>
<rscale>  0 0.12418253E+03</rscale>
<asrwt>0</asrwt>
<pdfrwt beam="1">  1        2 0.45620613E-01 0.13041395E+03</pdfrwt>
<pdfrwt beam="2">  1       -2 0.11250689E-01 0.13041395E+03</pdfrwt>
<totfact> 0.57961422E+03</totfact>
</mgrwt>
</event>
<event>
 7    1  0.4230786E-006  0.1408490E+03  0.7546771E-02  0.1222554E+00
         -1   -1    0    0    0  501 -0.00000000000E+00  0.00000000000E+00  0.20687431195E+03  0.20687431195E+03  0.00000000000E+00 0.  1.
          1   -1    0    0  501    0  0.00000000000E+00 -0.00000000000E+00 -0.91831480179E+02  0.91831480179E+02  0.00000000000E+00 0. -1.
         23    2    1    2    0    0 -0.27415726321E+02 -0.58834486044E+02  0.12052376201E+03  0.18537645379E+03  0.12500133444E+03 0.  0.
          5    1    3    3  502    0 -0.75734639296E+02 -0.51596047586E+02  0.77777710136E+02  0.12028861089E+03  0.47000000000E+01 0. -1.
         -5    1    3    3    0  502  0.48318912975E+02 -0.72384384581E+01  0.42746051870E+02  0.65087842896E+02  0.47000000000E+01 0. -1.
        -11    1    1    2    0    0  0.10029698397E+01  0.55210026412E+02  0.34620356266E+02  0.65174550500E+02  0.00000000000E+00 0.  1.
         11    1    1    2    0    0  0.26412756482E+02  0.36244596319E+01 -0.40101286504E+02  0.48154787839E+02  0.00000000000E+00 0. -1.
<mgrwt>
<rscale>  0 0.13335948E+03</rscale>
<asrwt>0</asrwt>
<pdfrwt beam="2">  1        1 0.14127920E-01 0.14084904E+03</pdfrwt>
<pdfrwt beam="1">  1       -1 0.31826817E-01 0.14084904E+03</pdfrwt>
<totfact> 0.35860166E+03</totfact>
</mgrwt>
</event>
<event>
 7    1  0.4230786E-006  0.1896240E+03  0.7546771E-02  0.1163770E+00
         -1   -1    0    0    0  501 -0.00000000000E+00  0.00000000000E+00  0.49795217203E+02  0.49795217203E+02  0.00000000000E+00 0.  1.
          1   -1    0    0  501    0  0.00000000000E+00 -0.00000000000E+00 -0.66463073453E+03  0.66463073453E+03  0.00000000000E+00 0. -1.
         23    2    1    2    0    0 -0.11766529931E+03 -0.80543680700E+02 -0.38506534612E+03  0.42922323254E+03  0.12499942163E+03 0.  0.
          5    1    3    3  502    0 -0.12098444129E+03 -0.10739201818E+03 -0.31987486228E+03  0.35848611985E+03  0.47000000000E+01 0. -1.
         -5    1    3    3    0  502  0.33191419829E+01  0.26848337483E+02 -0.65190483836E+02  0.70737112691E+02  0.47000000000E+01 0. -1.
        -11    1    1    2    0    0  0.58386638747E+02 -0.11450559736E+02 -0.78915397699E+02  0.98831952811E+02  0.00000000000E+00 0. -1.
         11    1    1    2    0    0  0.59278660562E+02  0.91994240436E+02 -0.15085477351E+03  0.18637076638E+03  0.00000000000E+00 0.  1.
<mgrwt>
<rscale>  0 0.18423139E+03</rscale>
<asrwt>0</asrwt>
<pdfrwt beam="2">  1        1 0.10225089E+00 0.18962400E+03</pdfrwt>
<pdfrwt beam="1">  1       -1 0.76608023E-02 0.18962400E+03</pdfrwt>
<totfact> 0.27678531E+03</totfact>
</mgrwt>
</event>
<event>
 7    1  0.4230786E-006  0.1452083E+03  0.7546771E-02  0.1216333E+00
         -2   -1    0    0    0  501 -0.00000000000E+00  0.00000000000E+00  0.75131191791E+02  0.75131191791E+02  0.00000000000E+00 0.  1.
          2   -1    0    0  501    0  0.00000000000E+00 -0.00000000000E+00 -0.31050741367E+03  0.31050741367E+03  0.00000000000E+00 0. -1.
         23    2    1    2    0    0  0.50501114086E+02  0.53940569426E+02 -0.29051403204E+02  0.14808586962E+03  0.12500197278E+03 0.  0.
          5    1    3    3  502    0  0.76018856786E+02  0.72306433099E+02  0.24887525402E-02  0.10501988793E+03  0.47000000000E+01 0.  1.
         -5    1    3    3    0  502 -0.25517742700E+02 -0.18365863673E+02 -0.29053891957E+02  0.43065981689E+02  0.47000000000E+01 0.  1.
        -11    1    1    2    0    0 -0.31114509594E+02 -0.15580067452E+02 -0.94735801885E+01  0.36063831337E+02  0.00000000000E+00 0.  1.
         11    1    1    2    0    0 -0.19386604491E+02 -0.38360501974E+02 -0.19685123848E+03  0.20148890450E+03  0.00000000000E+00 0. -1.
<mgrwt>
<rscale>  0 0.13779050E+03</rscale>
<asrwt>0</asrwt>
<pdfrwt beam="2">  1        2 0.47770371E-01 0.14520827E+03</pdfrwt>
<pdfrwt beam="1">  1       -2 0.11558645E-01 0.14520827E+03</pdfrwt>
<totfact> 0.53218315E+03</totfact>
</mgrwt>
</event>
<event>
 7    1  0.4230786E-006  0.1455670E+03  0.7546771E-02  0.1216604E+00
         -2   -1    0    0    0  501 -0.00000000000E+00  0.00000000000E+00  0.23772497713E+02  0.23772497713E+02  0.00000000000E+00 0.  1.
          2   -1    0    0  501    0  0.00000000000E+00 -0.00000000000E+00 -0.79206368357E+03  0.79206368357E+03  0.00000000000E+00 0. -1.
         23    2    1    2    0    0  0.66589758787E+02 -0.33597768311E+02 -0.30153241924E+03  0.33483064244E+03  0.12500701280E+03 0.  0.
          5    1    3    3  502    0 -0.29658723566E+02 -0.27186946879E+02 -0.14805109001E+03  0.15349262268E+03  0.47000000000E+01 0.  1.
         -5    1    3    3    0  502  0.96248482353E+02 -0.64108214314E+01 -0.15348132924E+03  0.18133801976E+03  0.47000000000E+01 0. -1.
        -11    1    1    2    0    0 -0.68192042512E+02  0.59006841858E+02 -0.34307844136E+03  0.35473198189E+03  0.00000000000E+00 0. -1.
         11    1    1    2    0    0  0.16022837249E+01 -0.25409073548E+02 -0.12368032525E+03  0.12627355696E+03  0.00000000000E+00 0.  1.
<mgrwt>
<rscale>  0 0.13759396E+03</rscale>
<asrwt>0</asrwt>
<pdfrwt beam="2">  1        2 0.12185593E+00 0.14556703E+03</pdfrwt>
<pdfrwt beam="1">  1       -2 0.36573079E-02 0.14556703E+03</pdfrwt>
<totfact> 0.10882311E+04</totfact>
</mgrwt>
</event>
<event>
 7    1  0.4230786E-006  0.1667615E+03  0.7546771E-02  0.1187833E+00
         -2   -1    0    0    0  501 -0.00000000000E+00  0.00000000000E+00  0.12544022960E+03  0.12544022960E+03  0.00000000000E+00 0.  1.
          2   -1    0    0  501    0  0.00000000000E+00 -0.00000000000E+00 -0.19352865080E+03  0.19352865080E+03  0.00000000000E+00 0. -1.
         23    2    1    2    0    0 -0.37047917788E+02  0.10378773732E+03 -0.47967259468E+02  0.17352305137E+03  0.12515969297E+03 0.  0.
          5    1    3    3  502    0 -0.16921379847E+02 -0.16403157896E+00 -0.63968335227E+02  0.66335495129E+02  0.47000000000E+01 0.  1.
         -5    1    3    3    0  502 -0.20126537941E+02  0.10395176890E+03  0.16001075760E+02  0.10718755624E+03  0.47000000000E+01 0.  1.
        -11    1    1    2    0    0 -0.18646420574E+02 -0.48931218123E+02  0.21824573777E+02  0.56729755224E+02  0.00000000000E+00 0.  1.
         11    1    1    2    0    0  0.55694338362E+02 -0.54856519198E+02 -0.41945735517E+02  0.88716073809E+02  0.00000000000E+00 0. -1.
<mgrwt>
<rscale>  0 0.16076744E+03</rscale>
<asrwt>0</asrwt>
<pdfrwt beam="2">  1        2 0.29773639E-01 0.16676148E+03</pdfrwt>
<pdfrwt beam="1">  1       -2 0.19298497E-01 0.16676148E+03</pdfrwt>
<totfact> 0.38414631E+03</totfact>
</mgrwt>
</event>
<event>
 7    1  0.4230786E-006  0.1394367E+03  0.7546771E-02  0.1225161E+00
         -2   -1    0    0    0  501 -0.00000000000E+00  0.00000000000E+00  0.16237051900E+03  0.16237051900E+03  0.00000000000E+00 0.  1.
          2   -1    0    0  501    0  0.00000000000E+00 -0.00000000000E+00 -0.13826278490E+03  0.13826278490E+03  0.00000000000E+00 0. -1.
         23    2    1    2    0    0 -0.33774146091E+02 -0.51738703878E+02  0.95567772329E+02  0.16904372824E+03  0.12499998611E+03 0.  0.
          5    1    3    3  502    0 -0.27695474707E+01 -0.49943943732E+02  0.11944980777E+03  0.12958554891E+03  0.47000000000E+01 0. -1.
         -5    1    3    3    0  502 -0.31004598620E+02 -0.17947601453E+01 -0.23882035442E+02  0.39458179335E+02  0.47000000000E+01 0. -1.
        -11    1    1    2    0    0  0.43564782307E+02  0.28131039773E+01  0.93517713648E+00  0.43665528369E+02  0.00000000000E+00 0.  1.
         11    1    1    2    0    0 -0.97906362167E+01  0.48925599900E+02 -0.72395215365E+02  0.87924047284E+02  0.00000000000E+00 0. -1.
<mgrwt>
<rscale>  0 0.13155852E+03</rscale>
<asrwt>0</asrwt>
<pdfrwt beam="2">  1        2 0.21271198E-01 0.13943666E+03</pdfrwt>
<pdfrwt beam="1">  1       -2 0.24980080E-01 0.13943666E+03</pdfrwt>
<totfact> 0.35425352E+03</totfact>
</mgrwt>
</event>
<event>
 7    1  0.4230786E-006  0.1440810E+03  0.7546771E-02  0.1217948E+00
          2   -1    0    0  501    0  0.00000000000E+00  0.00000000000E+00  0.30798037403E+03  0.30798037403E+03  0.00000000000E+00 0. -1.
         -2   -1    0    0    0  501 -0.00000000000E+00 -0.00000000000E+00 -0.56500895800E+02  0.56500895800E+02  0.00000000000E+00 0.  1.
         23    2    1    2    0    0 -0.70778533671E+02  0.11167604599E+02  0.11031542223E+03  0.18146300209E+03  0.12500005009E+03 0.  0.
          5    1    3    3  502    0  0.28982396742E+02  0.26972967016E+01  0.65180722546E+02  0.71539299145E+02  0.47000000000E+01 0.  1.
         -5    1    3    3    0  502 -0.99760930413E+02  0.84703078979E+01  0.45134699687E+02  0.10992370294E+03  0.47000000000E+01 0.  1.
        -11    1    1    2    0    0  0.44506048948E+02  0.33393982026E+02  0.10822790523E+03  0.12169316291E+03  0.00000000000E+00 0. -1.
         11    1    1    2    0    0  0.26272484723E+02 -0.44561586625E+02  0.32936150775E+02  0.61325104843E+02  0.00000000000E+00 0.  1.
<mgrwt>
<rscale>  0 0.13662213E+03</rscale>
<asrwt>0</asrwt>
<pdfrwt beam="1">  1        2 0.47381595E-01 0.14408098E+03</pdfrwt>
<pdfrwt beam="2">  1       -2 0.86924457E-02 0.14408098E+03</pdfrwt>
<totfact> 0.84034484E+03</totfact>
</mgrwt>
</event>
<event>
 6    1  0.4230786E-006  0.2767785E+03  0.7546771E-02  0.1107695E+00
          2   -1    0    0  501    0  0.00000000000E+00  0.00000000000E+00  0.44988796182E+03  0.44988796182E+03  0.00000000000E+00 0. -1.
         -2   -1    0    0    0  501 -0.00000000000E+00 -0.00000000000E+00 -0.14462437673E+03  0.14462437673E+03  0.00000000000E+00 0.  1.
          5    1    1    2  502    0 -0.84781278487E+02  0.10467400693E+03  0.14560420957E+03  0.19841166486E+03  0.47000000000E+01 0. -1.
         -5    1    1    2    0  502 -0.71098904497E+02  0.48593988582E+00 -0.58024618680E+02  0.91892528158E+02  0.47000000000E+01 0.  1.
        -11    1    1    2    0    0  0.11623774914E+03 -0.12251876788E+03  0.16615000587E+03  0.23691324838E+03  0.00000000000E+00 0. -1.
         11    1    1    2    0    0  0.39642433841E+02  0.17358821070E+02  0.51533988327E+02  0.67294897152E+02  0.00000000000E+00 0.  1.
<mgrwt>
<rscale>  0 0.25908307E+03</rscale>
<asrwt>0</asrwt>
<pdfrwt beam="1">  1        2 0.69213532E-01 0.27677850E+03</pdfrwt>
<pdfrwt beam="2">  1       -2 0.22249904E-01 0.27677850E+03</pdfrwt>
<totfact> 0.12249692E+03</totfact>
</mgrwt>
</event>
<event>
 6    1  0.4230786E-006  0.1714211E+03  0.7546771E-02  0.1183733E+00
          2   -1    0    0  501    0  0.00000000000E+00  0.00000000000E+00  0.26329865067E+03  0.26329865067E+03  0.00000000000E+00 0. -1.
         -2   -1    0    0    0  501 -0.00000000000E+00 -0.00000000000E+00 -0.95567631805E+02  0.95567631805E+02  0.00000000000E+00 0.  1.
          5    1    1    2  502    0 -0.34797242200E+02  0.31129033837E+02  0.96106580405E+02  0.10695059425E+03  0.47000000000E+01 0. -1.
         -5    1    1    2    0  502  0.94442518019E+01  0.80098271117E+02 -0.15846267433E+02  0.82329345434E+02  0.47000000000E+01 0.  1.
        -11    1    1    2    0    0 -0.18814013169E+02  0.49232859072E+01  0.21147636352E+02  0.28730269037E+02  0.00000000000E+00 0. -1.
         11    1    1    2    0    0  0.44167003567E+02 -0.11615059086E+03  0.66323069543E+02  0.14085607376E+03  0.00000000000E+00 0.  1.
<mgrwt>
<rscale>  0 0.16447695E+03</rscale>
<asrwt>0</asrwt>
<pdfrwt beam="1">  1        2 0.40507485E-01 0.17142105E+03</pdfrwt>
<pdfrwt beam="2">  1       -2 0.14702713E-01 0.17142105E+03</pdfrwt>
<totfact> 0.43389834E+03</totfact>
</mgrwt>
</event>
<event>
 7    1  0.4230786E-006  0.1378295E+03  0.7546771E-02  0.1228446E+00
         -1   -1    0    0    0  501 -0.00000000000E+00  0.00000000000E+00  0.33373170222E+02  0.33373170222E+02  0.00000000000E+00 0.  1.
          1   -1    0    0  501    0  0.00000000000E+00 -0.00000000000E+00 -0.45499449724E+03  0.45499449724E+03  0.00000000000E+00 0. -1.
         23    2    1    2    0    0 -0.12689476427E+01 -0.58064870277E+02 -0.26597409096E+03  0.29956500552E+03  0.12499534425E+03 0.  0.
          5    1    3    3  502    0 -0.41088486267E+02  0.18992177531E+02 -0.54860990717E+02  0.71279624112E+02  0.47000000000E+01 0. -1.
         -5    1    3    3    0  502  0.39819538624E+02 -0.77057047807E+02 -0.21111310024E+03  0.22828538141E+03  0.47000000000E+01 0. -1.
        -11    1    1    2    0    0  0.86007274793E+01  0.77668537156E+02 -0.86560489306E+02  0.11661514690E+03  0.00000000000E+00 0.  1.
         11    1    1    2    0    0 -0.73317798366E+01 -0.19603666879E+02 -0.69086746756E+02  0.72187515043E+02  0.00000000000E+00 0. -1.
<mgrwt>
<rscale>  0 0.12933521E+03</rscale>
<asrwt>0</asrwt>
<pdfrwt beam="2">  1        1 0.69999161E-01 0.13782952E+03</pdfrwt>
<pdfrwt beam="1">  1       -1 0.51343333E-02 0.13782952E+03</pdfrwt>
<totfact> 0.82687509E+03</totfact>
</mgrwt>
</event>
<event>
 7    1  0.4230786E-006  0.1765273E+03  0.7546771E-02  0.1177057E+00
          1   -1    0    0  501    0  0.00000000000E+00  0.00000000000E+00  0.29044925520E+03  0.29044925520E+03  0.00000000000E+00 0. -1.
         -1   -1    0    0    0  501 -0.00000000000E+00 -0.00000000000E+00 -0.10646937507E+03  0.10646937507E+03  0.00000000000E+00 0.  1.
         23    2    1    2    0    0 -0.68957090366E+02 -0.10382090722E+03  0.30587210572E+02  0.17915761067E+03  0.12501204311E+03 0.  0.
          5    1    3    3  502    0  0.81992436462E+01 -0.83243217224E+02  0.49025975223E+02  0.97068517330E+02  0.47000000000E+01 0.  1.
         -5    1    3    3    0  502 -0.77156334012E+02 -0.20577690000E+02 -0.18438764651E+02  0.82089093342E+02  0.47000000000E+01 0.  1.
        -11    1    1    2    0    0  0.29113064584E+02  0.10739390944E+03  0.13113926584E+03  0.17198409624E+03  0.00000000000E+00 0. -1.
         11    1    1    2    0    0  0.39844025781E+02 -0.35730022179E+01  0.22253403711E+02  0.45776923357E+02  0.00000000000E+00 0.  1.
<mgrwt>
<rscale>  0 0.17076037E+03</rscale>
<asrwt>0</asrwt>
<pdfrwt beam="1">  1        1 0.44684501E-01 0.17652726E+03</pdfrwt>
<pdfrwt beam="2">  1       -1 0.16379904E-01 0.17652726E+03</pdfrwt>
<totfact> 0.25036207E+03</totfact>
</mgrwt>
</event>
<event>
 6    1  0.4230786E-006  0.4483722E+03  0.7546771E-02  0.1049463E+00
          2   -1    0    0  501    0  0.00000000000E+00  0.00000000000E+00  0.11805697810E+04  0.11805697810E+04  0.00000000000E+00 0. -1.
         -2   -1    0    0    0  501 -0.00000000000E+00 -0.00000000000E+00 -0.12706767012E+03  0.12706767012E+03  0.00000000000E+00 0.  1.
          5    1    1    2  502    0 -0.27893668168E+03  0.12384909621E+03  0.28184042738E+03  0.41545202794E+03  0.47000000000E+01 0. -1.
         -5    1    1    2    0  502  0.55457141605E+02 -0.12832087678E+03  0.83345107271E+02  0.16281965139E+03  0.47000000000E+01 0.  1.
        -11    1    1    2    0    0  0.19918550235E+02  0.28468295553E+02  0.73868955732E+02  0.81632194115E+02  0.00000000000E+00 0. -1.
         11    1    1    2    0    0  0.20356098984E+03 -0.23996514981E+02  0.61444762052E+03  0.64773357770E+03  0.00000000000E+00 0.  1.
<mgrwt>
<rscale>  0 0.38400730E+03</rscale>
<asrwt>0</asrwt>
<pdfrwt beam="1">  1        2 0.18162611E+00 0.44837223E+03</pdfrwt>
<pdfrwt beam="2">  1       -2 0.19548873E-01 0.44837223E+03</pdfrwt>
<totfact> 0.44344474E+02</totfact>
</mgrwt>
</event>
<event>
 7    1  0.4230786E-006  0.1288950E+03  0.7546771E-02  0.1233615E+00
         -2   -1    0    0    0  501 -0.00000000000E+00  0.00000000000E+00  0.86833840655E+02  0.86833840655E+02  0.00000000000E+00 0.  1.
          2   -1    0    0  501    0  0.00000000000E+00 -0.00000000000E+00 -0.17473019702E+03  0.17473019702E+03  0.00000000000E+00 0. -1.
         23    2    1    2    0    0 -0.31000544409E+02  0.56259456085E+01 -0.45553956283E+02  0.13670805242E+03  0.12498497368E+03 0.  0.
          5    1    3    3  502    0 -0.70231174642E+02  0.64183020036E+01 -0.61888481247E+02  0.93946189935E+02  0.47000000000E+01 0. -1.
         -5    1    3    3    0  502  0.39230630233E+02 -0.79235639502E+00  0.16334524964E+02  0.42761862482E+02  0.47000000000E+01 0. -1.
        -11    1    1    2    0    0  0.37176660337E+02 -0.50570764513E+02  0.49185012637E-01  0.62765505785E+02  0.00000000000E+00 0.  1.
         11    1    1    2    0    0 -0.61761159279E+01  0.44944818905E+02 -0.42391585091E+02  0.62090479470E+02  0.00000000000E+00 0. -1.
<mgrwt>
<rscale>  0 0.12593511E+03</rscale>
<asrwt>0</asrwt>
<pdfrwt beam="2">  1        2 0.26881569E-01 0.12889503E+03</pdfrwt>
<pdfrwt beam="1">  1       -2 0.13359052E-01 0.12889503E+03</pdfrwt>
<totfact> 0.77553245E+03</totfact>
</mgrwt>
</event>
<event>
 7    1  0.4230786E-006  0.1489524E+03  0.7546771E-02  0.1212243E+00
         -3   -1    0    0    0  501 -0.00000000000E+00  0.00000000000E+00  0.71238241391E+03  0.71238241391E+03  0.00000000000E+00 0.  1.
          3   -1    0    0  501    0  0.00000000000E+00 -0.00000000000E+00 -0.25886754347E+02  0.25886754347E+02  0.00000000000E+00 0. -1.
         23    2    1    2    0    0 -0.33102976109E+02 -0.73936981632E+02  0.44088588707E+03  0.46536778200E+03  0.12499729125E+03 0.  0.
          5    1    3    3  502    0  0.35837098432E+02  0.77615730247E+01  0.67593166290E+02  0.77041974072E+02  0.47000000000E+01 0.  1.
         -5    1    3    3    0  502 -0.68940074541E+02 -0.81698554656E+02  0.37329272078E+03  0.38832580792E+03  0.47000000000E+01 0.  1.
        -11    1    1    2    0    0  0.28453669563E+02  0.25644083045E+02  0.22175473097E+02  0.44260387639E+02  0.00000000000E+00 0. -1.
         11    1    1    2    0    0  0.46493065461E+01  0.48292898586E+02  0.22343429939E+03  0.22864099862E+03  0.00000000000E+00 0.  1.
<mgrwt>
<rscale>  0 0.14081015E+03</rscale>
<asrwt>0</asrwt>
<pdfrwt beam="2">  1        3 0.39825781E-02 0.14895237E+03</pdfrwt>
<pdfrwt beam="1">  1       -3 0.10959728E+00 0.14895237E+03</pdfrwt>
<totfact> 0.56246493E+02</totfact>
</mgrwt>
</event>
<event>
 7    1  0.4230786E-006  0.1285462E+03  0.7546771E-02  0.1245082E+00
          2   -1    0    0  501    0  0.00000000000E+00  0.00000000000E+00  0.25684002825E+03  0.25684002825E+03  0.00000000000E+00 0. -1.
         -2   -1    0    0    0  501 -0.00000000000E+00 -0.00000000000E+00 -0.48388961269E+02  0.48388961269E+02  0.00000000000E+00 0.  1.
         23    2    1    2    0    0  0.63503006402E+01  0.29344385504E+02  0.10912285234E+03  0.16861767712E+03  0.12499081908E+03 0.  0.
          5    1    3    3  502    0  0.16817543489E+02  0.68936395456E+02  0.25787621946E+02  0.75644879754E+02  0.47000000000E+01 0. -1.
         -5    1    3    3    0  502 -0.10467242848E+02 -0.39592009952E+02  0.83335230395E+02  0.92972797365E+02  0.47000000000E+01 0. -1.
        -11    1    1    2    0    0  0.20568832173E+02 -0.37772279999E+02  0.99505878991E+02  0.10840314547E+03  0.00000000000E+00 0. -1.
         11    1    1    2    0    0 -0.26919132813E+02  0.84278944950E+01 -0.17766435348E+00  0.28208166932E+02  0.00000000000E+00 0.  1.
<mgrwt>
<rscale>  0 0.11880467E+03</rscale>
<asrwt>0</asrwt>
<pdfrwt beam="1">  1        2 0.39513850E-01 0.12854619E+03</pdfrwt>
<pdfrwt beam="2">  1       -2 0.74444557E-02 0.12854619E+03</pdfrwt>
<totfact> 0.12832995E+04</totfact>
</mgrwt>
</event>
<event>
 7    1  0.4230786E-006  0.1540399E+03  0.7546771E-02  0.1204597E+00
         -1   -1    0    0    0  501 -0.00000000000E+00  0.00000000000E+00  0.31016341647E+02  0.31016341647E+02  0.00000000000E+00 0.  1.
          1   -1    0    0  501    0  0.00000000000E+00 -0.00000000000E+00 -0.63864942436E+03  0.63864942436E+03  0.00000000000E+00 0. -1.
         23    2    1    2    0    0  0.65144000077E+02 -0.62112794438E+02 -0.30881092669E+03  0.34509776488E+03  0.12500615547E+03 0.  0.
          5    1    3    3  502    0  0.18110771279E+02  0.17911929925E+02 -0.20139673638E+03  0.20305559016E+03  0.47000000000E+01 0. -1.
         -5    1    3    3    0  502  0.47033228798E+02 -0.80024724362E+02 -0.10741419031E+03  0.14204217473E+03  0.47000000000E+01 0. -1.
        -11    1    1    2    0    0 -0.87187249539E+02  0.56655637333E+02 -0.24559727623E+03  0.26670114326E+03  0.00000000000E+00 0.  1.
         11    1    1    2    0    0  0.22043249462E+02  0.54571571053E+01 -0.53224879798E+02  0.57866857873E+02  0.00000000000E+00 0. -1.
<mgrwt>
<rscale>  0 0.14669261E+03</rscale>
<asrwt>0</asrwt>
<pdfrwt beam="2">  1        1 0.98253758E-01 0.15403986E+03</pdfrwt>
<pdfrwt beam="1">  1       -1 0.47717449E-02 0.15403986E+03</pdfrwt>
<totfact> 0.59057844E+03</totfact>
</mgrwt>
</event>
<event>
 7    1  0.4230786E-006  0.1838767E+03  0.7546771E-02  0.1170260E+00
         -1   -1    0    0    0  501 -0.00000000000E+00  0.00000000000E+00  0.22240088181E+03  0.22240088181E+03  0.00000000000E+00 0.  1.
          1   -1    0    0  501    0  0.00000000000E+00 -0.00000000000E+00 -0.13262764312E+03  0.13262764312E+03  0.00000000000E+00 0. -1.
         23    2    1    2    0    0 -0.13109450109E+03  0.31629599504E+02  0.48975589859E+02  0.19028723525E+03  0.12499769485E+03 0.  0.
          5    1    3    3  502    0 -0.10859833346E+03  0.51421768693E+02  0.81924331603E+02  0.14550423511E+03  0.47000000000E+01 0. -1.
         -5    1    3    3    0  502 -0.22496167627E+02 -0.19792169189E+02 -0.32948741744E+02  0.44783000141E+02  0.47000000000E+01 0. -1.
        -11    1    1    2    0    0  0.65919522081E+02  0.27361982715E+02  0.13031114454E+02  0.72552542570E+02  0.00000000000E+00 0. -1.
         11    1    1    2    0    0  0.65174979010E+02 -0.58991582220E+02  0.27766534373E+02  0.92188747105E+02  0.00000000000E+00 0.  1.
<mgrwt>
<rscale>  0 0.17748422E+03</rscale>
<asrwt>0</asrwt>
<pdfrwt beam="2">  1        1 0.20404253E-01 0.18387665E+03</pdfrwt>
<pdfrwt beam="1">  1       -1 0.34215520E-01 0.18387665E+03</pdfrwt>
<totfact> 0.19950861E+03</totfact>
</mgrwt>
</event>
<event>
 7    1  0.4230786E-006  0.1259482E+03  0.7546771E-02  0.1248160E+00
          2   -1    0    0  501    0  0.00000000000E+00  0.00000000000E+00  0.22804403871E+03  0.22804403871E+03  0.00000000000E+00 0. -1.
         -2   -1    0    0    0  501 -0.00000000000E+00 -0.00000000000E+00 -0.52962882140E+02  0.52962882140E+02  0.00000000000E+00 0.  1.
         23    2    1    2    0    0  0.12062787941E+02 -0.96274496976E+01  0.95883632402E+02  0.15829283283E+03  0.12499900528E+03 0.  0.
          5    1    3    3  502    0  0.47507515735E+02  0.40571337349E+02  0.35490752676E+02  0.72004728950E+02  0.47000000000E+01 0. -1.
         -5    1    3    3    0  502 -0.35444727794E+02 -0.50198787047E+02  0.60392879726E+02  0.86288103879E+02  0.47000000000E+01 0. -1.
        -11    1    1    2    0    0  0.79474047142E+01 -0.38589865896E+02  0.21422576153E+02  0.44847137708E+02  0.00000000000E+00 0.  1.
         11    1    1    2    0    0 -0.20010192655E+02  0.48217315594E+02  0.57774948019E+02  0.77866950317E+02  0.00000000000E+00 0. -1.
<mgrwt>
<rscale>  0 0.11698252E+03</rscale>
<asrwt>0</asrwt>
<pdfrwt beam="1">  1        2 0.35083698E-01 0.12594820E+03</pdfrwt>
<pdfrwt beam="2">  1       -2 0.81481358E-02 0.12594820E+03</pdfrwt>
<totfact> 0.12653977E+04</totfact>
</mgrwt>
</event>
<event>
 7    1  0.4230786E-006  0.1611904E+03  0.7546771E-02  0.1194893E+00
          2   -1    0    0  501    0  0.00000000000E+00  0.00000000000E+00  0.48021423716E+03  0.48021423716E+03  0.00000000000E+00 0. -1.
         -2   -1    0    0    0  501 -0.00000000000E+00 -0.00000000000E+00 -0.50757106383E+02  0.50757106383E+02  0.00000000000E+00 0.  1.
         23    2    1    2    0    0  0.72367762244E+02  0.71549079651E+02  0.15109290487E+03  0.22093305180E+03  0.12500393458E+03 0.  0.
          5    1    3    3  502    0  0.65132046306E+02 -0.19467084240E+02  0.80225597348E+02  0.10525866850E+03  0.47000000000E+01 0. -1.
         -5    1    3    3    0  502  0.72357159381E+01  0.91016163891E+02  0.70867307525E+02  0.11567438329E+03  0.47000000000E+01 0. -1.
        -11    1    1    2    0    0 -0.46303175208E+02 -0.26291973541E+02  0.23840470051E+03  0.24427863831E+03  0.00000000000E+00 0. -1.
         11    1    1    2    0    0 -0.26064587036E+02 -0.45257106110E+02  0.39959525390E+02  0.65759653437E+02  0.00000000000E+00 0.  1.
<mgrwt>
<rscale>  0 0.15463282E+03</rscale>
<asrwt>0</asrwt>
<pdfrwt beam="1">  1        2 0.73879110E-01 0.16119041E+03</pdfrwt>
<pdfrwt beam="2">  1       -2 0.78087859E-02 0.16119041E+03</pdfrwt>
<totfact> 0.62024603E+03</totfact>
</mgrwt>
</event>
<event>
 7    1  0.4230786E-006  0.1407593E+03  0.7546771E-02  0.1223087E+00
          1   -1    0    0  501    0  0.00000000000E+00  0.00000000000E+00  0.11255578535E+03  0.11255578535E+03  0.00000000000E+00 0. -1.
         -1   -1    0    0    0  501 -0.00000000000E+00 -0.00000000000E+00 -0.14273787203E+03  0.14273787203E+03  0.00000000000E+00 0.  1.
         23    2    1    2    0    0 -0.34633546377E+02 -0.54665601042E+02 -0.25407994417E+02  0.14303404321E+03  0.12500144345E+03 0.  0.
          5    1    3    3  502    0 -0.73119453971E+02 -0.23105459837E+01 -0.56279611186E+00  0.73308934730E+02  0.47000000000E+01 0. -1.
         -5    1    3    3    0  502  0.38485907594E+02 -0.52355055059E+02 -0.24845198305E+02  0.69725108478E+02  0.47000000000E+01 0. -1.
        -11    1    1    2    0    0 -0.23275596909E+01  0.54527297227E+02 -0.34724181344E+02  0.64687034612E+02  0.00000000000E+00 0.  1.
         11    1    1    2    0    0  0.36961106068E+02  0.13830381573E+00  0.29950089076E+02  0.47572579554E+02  0.00000000000E+00 0. -1.
<mgrwt>
<rscale>  0 0.13298889E+03</rscale>
<asrwt>0</asrwt>
<pdfrwt beam="1">  1        1 0.17316275E-01 0.14075927E+03</pdfrwt>
<pdfrwt beam="2">  1       -1 0.21959672E-01 0.14075927E+03</pdfrwt>
<totfact> 0.50966182E+03</totfact>
</mgrwt>
</event>
<event>
 7    1  0.4230786E-006  0.1780595E+03  0.7546771E-02  0.1175608E+00
         -1   -1    0    0    0  501 -0.00000000000E+00  0.00000000000E+00  0.46612845632E+03  0.46612845632E+03  0.00000000000E+00 0.  1.
          1   -1    0    0  501    0  0.00000000000E+00 -0.00000000000E+00 -0.59731261651E+02  0.59731261651E+02  0.00000000000E+00 0. -1.
         23    2    1    2    0    0 -0.85734777493E+02  0.93434394795E+02  0.22059493068E+03  0.28349125966E+03  0.12499893065E+03 0.  0.
          5    1    3    3  502    0  0.31323860243E+02  0.34707880419E+02  0.56230447191E+02  0.73278744360E+02  0.47000000000E+01 0.  1.
         -5    1    3    3    0  502 -0.11705863774E+03  0.58726514376E+02  0.16436448348E+03  0.21021251530E+03  0.47000000000E+01 0.  1.
        -11    1    1    2    0    0  0.92131923632E+02 -0.64062604975E+02  0.96026202244E+02  0.14769339940E+03  0.00000000000E+00 0. -1.
         11    1    1    2    0    0 -0.63971461389E+01 -0.29371789819E+02  0.89776061745E+02  0.94675058904E+02  0.00000000000E+00 0.  1.
<mgrwt>
<rscale>  0 0.17216526E+03</rscale>
<asrwt>0</asrwt>
<pdfrwt beam="2">  1        1 0.91894252E-02 0.17805946E+03</pdfrwt>
<pdfrwt beam="1">  1       -1 0.71712068E-01 0.17805946E+03</pdfrwt>
<totfact> 0.14504699E+03</totfact>
</mgrwt>
</event>
<event>
 7    1  0.4230786E-006  0.1678772E+03  0.7546771E-02  0.1187175E+00
         -2   -1    0    0    0  501 -0.00000000000E+00  0.00000000000E+00  0.45280243032E+03  0.45280243032E+03  0.00000000000E+00 0.  1.
          2   -1    0    0  501    0  0.00000000000E+00 -0.00000000000E+00 -0.65933990750E+02  0.65933990750E+02  0.00000000000E+00 0. -1.
         23    2    1    2    0    0 -0.25440337861E+01 -0.11203548511E+03  0.31839563764E+03  0.35994242740E+03  0.12499738776E+03 0.  0.
          5    1    3    3  502    0  0.29790666211E+02 -0.19993135342E+02  0.21377998520E+03  0.21682062016E+03  0.47000000000E+01 0. -1.
         -5    1    3    3    0  502 -0.32334699997E+02 -0.92042349764E+02  0.10461565244E+03  0.14312180724E+03  0.47000000000E+01 0. -1.
        -11    1    1    2    0    0  0.27717190971E+02  0.88915956898E+01  0.38892304449E+02  0.48578951148E+02  0.00000000000E+00 0.  1.
         11    1    1    2    0    0 -0.25173157185E+02  0.10314388942E+03  0.29580497487E+02  0.11021504252E+03  0.00000000000E+00 0. -1.
<mgrwt>
<rscale>  0 0.16135580E+03</rscale>
<asrwt>0</asrwt>
<pdfrwt beam="2">  1        2 0.10143691E-01 0.16787724E+03</pdfrwt>
<pdfrwt beam="1">  1       -2 0.69661910E-01 0.16787724E+03</pdfrwt>
<totfact> 0.11918212E+03</totfact>
</mgrwt>
</event>
<event>
 6    1  0.4230786E-006  0.4235115E+03  0.7546771E-02  0.1061308E+00
          1   -1    0    0  501    0  0.00000000000E+00  0.00000000000E+00  0.94600016851E+02  0.94600016851E+02  0.00000000000E+00 0. -1.
         -1   -1    0    0    0  501 -0.00000000000E+00 -0.00000000000E+00 -0.13742457504E+04  0.13742457504E+04  0.00000000000E+00 0.  1.
          5    1    1    2  502    0  0.70381170016E+02 -0.13546661313E+03 -0.13747115658E+03  0.20548752093E+03  0.47000000000E+01 0. -1.
         -5    1    1    2    0  502  0.10098907353E+03  0.68984681195E+02 -0.10147030317E+04  0.10220577341E+04  0.47000000000E+01 0.  1.
        -11    1    1    2    0    0 -0.13446698070E+03  0.82501590889E+02 -0.73647404725E+02  0.17410290526E+03  0.00000000000E+00 0. -1.
         11    1    1    2    0    0 -0.36903262845E+02 -0.16019658954E+02 -0.53824140558E+02  0.67197607014E+02  0.00000000000E+00 0.  1.
<mgrwt>
<rscale>  0 0.35320371E+03</rscale>
<asrwt>0</asrwt>
<pdfrwt beam="1">  1        1 0.14553849E-01 0.42351150E+03</pdfrwt>
<pdfrwt beam="2">  1       -1 0.21142242E+00 0.42351150E+03</pdfrwt>
<totfact> 0.53360354E+01</totfact>
</mgrwt>
</event>
<event>
 7    1  0.4230786E-006  0.2346086E+03  0.7546771E-02  0.1126294E+00
          1   -1    0    0  501    0  0.00000000000E+00  0.00000000000E+00  0.15589067580E+03  0.15589067580E+03  0.00000000000E+00 0. -1.
         -1   -1    0    0    0  501 -0.00000000000E+00 -0.00000000000E+00 -0.34886330335E+03  0.34886330335E+03  0.00000000000E+00 0.  1.
         23    2    1    2    0    0  0.14638074487E+03 -0.13412620665E+03 -0.40060797346E+02  0.23800429895E+03  0.12499606815E+03 0.  0.
          5    1    3    3  502    0  0.53647417963E+02 -0.12664192048E+03 -0.44814519767E+02  0.14472958460E+03  0.47000000000E+01 0. -1.
         -5    1    3    3    0  502  0.92733326909E+02 -0.74842861740E+01  0.47537224210E+01  0.93274714344E+02  0.47000000000E+01 0. -1.
        -11    1    1    2    0    0 -0.72414893213E+02  0.14019783634E+02 -0.76746444995E+02  0.10644476460E+03  0.00000000000E+00 0.  1.
         11    1    1    2    0    0 -0.73965851659E+02  0.12010642302E+03 -0.76165385202E+02  0.16030491560E+03  0.00000000000E+00 0. -1.
<mgrwt>
<rscale>  0 0.23049214E+03</rscale>
<asrwt>0</asrwt>
<pdfrwt beam="1">  1        1 0.23983181E-01 0.23460857E+03</pdfrwt>
<pdfrwt beam="2">  1       -1 0.53671277E-01 0.23460857E+03</pdfrwt>
<totfact> 0.72680473E+02</totfact>
</mgrwt>
</event>
<event>
 7    1  0.4230786E-006  0.1580631E+03  0.7546771E-02  0.1198827E+00
          2   -1    0    0  501    0  0.00000000000E+00  0.00000000000E+00  0.81056043810E+03  0.81056043810E+03  0.00000000000E+00 0. -1.
         -2   -1    0    0    0  501 -0.00000000000E+00 -0.00000000000E+00 -0.35298123138E+02  0.35298123138E+02  0.00000000000E+00 0.  1.
         23    2    1    2    0    0 -0.96739538705E+02  0.21439840803E+00  0.19722533721E+03  0.25274843671E+03  0.12500141723E+03 0.  0.
          5    1    3    3  502    0 -0.13197233356E+02 -0.55366341998E+02  0.81315344488E+02  0.99367369109E+02  0.47000000000E+01 0. -1.
         -5    1    3    3    0  502 -0.83542305349E+02  0.55580740406E+02  0.11590999272E+03  0.15338106761E+03  0.47000000000E+01 0. -1.
        -11    1    1    2    0    0  0.11472416972E+02 -0.35166196192E+02  0.10898115527E+03  0.11508766184E+03  0.00000000000E+00 0. -1.
         11    1    1    2    0    0  0.85267121733E+02  0.34951797784E+02  0.46905582249E+03  0.47802246268E+03  0.00000000000E+00 0.  1.
<mgrwt>
<rscale>  0 0.15134733E+03</rscale>
<asrwt>0</asrwt>
<pdfrwt beam="1">  1        2 0.12470159E+00 0.15806308E+03</pdfrwt>
<pdfrwt beam="2">  1       -2 0.54304811E-02 0.15806308E+03</pdfrwt>
<totfact> 0.58742479E+03</totfact>
</mgrwt>
</event>
<event>
 7    1  0.4230786E-006  0.1807254E+03  0.7546771E-02  0.1172604E+00
         -1   -1    0    0    0  501 -0.00000000000E+00  0.00000000000E+00  0.26154158263E+03  0.26154158263E+03  0.00000000000E+00 0.  1.
          1   -1    0    0  501    0  0.00000000000E+00 -0.00000000000E+00 -0.13354905577E+03  0.13354905577E+03  0.00000000000E+00 0. -1.
         23    2    1    2    0    0  0.79402261448E+02 -0.10358150763E+03  0.14917015640E+03  0.23433605975E+03  0.12501122147E+03 0.  0.
          5    1    3    3  502    0 -0.31189296045E+02 -0.13702575817E+02  0.49877924193E+02  0.60584074587E+02  0.47000000000E+01 0. -1.
         -5    1    3    3    0  502  0.11059155749E+03 -0.89878931811E+02  0.99292232207E+02  0.17375198516E+03  0.47000000000E+01 0. -1.
        -11    1    1    2    0    0 -0.49900463932E+02  0.80396653484E+02  0.28201375689E+02  0.98737003109E+02  0.00000000000E+00 0.  1.
         11    1    1    2    0    0 -0.29501797515E+02  0.23184854144E+02 -0.49379005226E+02  0.62017575536E+02  0.00000000000E+00 0. -1.
<mgrwt>
<rscale>  0 0.17512765E+03</rscale>
<asrwt>0</asrwt>
<pdfrwt beam="2">  1        1 0.20546009E-01 0.18072535E+03</pdfrwt>
<pdfrwt beam="1">  1       -1 0.40237166E-01 0.18072535E+03</pdfrwt>
<totfact> 0.14896585E+03</totfact>
</mgrwt>
</event>
<event>
 7    1  0.4230786E-006  0.1519441E+03  0.7546771E-02  0.1207414E+00
          1   -1    0    0  501    0  0.00000000000E+00  0.00000000000E+00  0.36151287313E+03  0.36151287313E+03  0.00000000000E+00 0. -1.
         -1   -1    0    0    0  501 -0.00000000000E+00 -0.00000000000E+00 -0.72555266408E+02  0.72555266408E+02  0.00000000000E+00 0.  1.
         23    2    1    2    0    0 -0.94078512640E+01  0.85873778778E+02  0.42039074984E+02  0.15765246401E+03  0.12499680810E+03 0.  0.
          5    1    3    3  502    0 -0.63375442515E+02  0.55238679782E+02  0.44759897856E+02  0.95358779953E+02  0.47000000000E+01 0. -1.
         -5    1    3    3    0  502  0.53967591251E+02  0.30635098996E+02 -0.27208228724E+01  0.62293684054E+02  0.47000000000E+01 0. -1.
        -11    1    1    2    0    0  0.33546827170E+02 -0.33476638162E+02  0.18829183823E+03  0.19416459837E+03  0.00000000000E+00 0. -1.
         11    1    1    2    0    0 -0.24138975906E+02 -0.52397140616E+02  0.58626693507E+02  0.82251077160E+02  0.00000000000E+00 0.  1.
<mgrwt>
<rscale>  0 0.14448834E+03</rscale>
<asrwt>0</asrwt>
<pdfrwt beam="1">  1        1 0.55617364E-01 0.15194412E+03</pdfrwt>
<pdfrwt beam="2">  1       -1 0.11162349E-01 0.15194412E+03</pdfrwt>
<totfact> 0.34479277E+03</totfact>
</mgrwt>
</event>
<event>
 7    1  0.4230786E-006  0.1319671E+03  0.7546771E-02  0.1244389E+00
          1   -1    0    0  501    0  0.00000000000E+00  0.00000000000E+00  0.54235642392E+03  0.54235642392E+03  0.00000000000E+00 0. -1.
         -1   -1    0    0    0  501 -0.00000000000E+00 -0.00000000000E+00 -0.22284488384E+02  0.22284488384E+02  0.00000000000E+00 0.  1.
         23    2    1    2    0    0 -0.11988734723E+02  0.40570163192E+02  0.31056281657E+03  0.33743824165E+03  0.12500254393E+03 0.  0.
          5    1    3    3  502    0  0.31520612360E+02 -0.26564357811E+02  0.17596320314E+03  0.18078814388E+03  0.47000000000E+01 0.  1.
         -5    1    3    3    0  502 -0.43509347083E+02  0.67134521003E+02  0.13459961343E+03  0.15665009777E+03  0.47000000000E+01 0.  1.
        -11    1    1    2    0    0  0.31837540077E+02  0.76036440445E+01  0.53459111624E+02  0.62684296092E+02  0.00000000000E+00 0.  1.
         11    1    1    2    0    0 -0.19848805355E+02 -0.48173807236E+02  0.15605000734E+03  0.16451837456E+03  0.00000000000E+00 0. -1.
<mgrwt>
<rscale>  0 0.11922035E+03</rscale>
<asrwt>0</asrwt>
<pdfrwt beam="1">  1        1 0.83439440E-01 0.13196706E+03</pdfrwt>
<pdfrwt beam="2">  1       -1 0.34283832E-02 0.13196706E+03</pdfrwt>
<totfact> 0.11875769E+04</totfact>
</mgrwt>
</event>
<event>
 7    1  0.4230786E-006  0.1256721E+03  0.7546771E-02  0.1248956E+00
          2   -1    0    0  501    0  0.00000000000E+00  0.00000000000E+00  0.23074323380E+03  0.23074323380E+03  0.00000000000E+00 0.  1.
         -2   -1    0    0    0  501 -0.00000000000E+00 -0.00000000000E+00 -0.51832796462E+02  0.51832796462E+02  0.00000000000E+00 0. -1.
         23    2    1    2    0    0  0.12941203889E+02  0.99405338445E+00  0.10868125354E+03  0.16614778898E+03  0.12500004004E+03 0.  0.
          5    1    3    3  502    0 -0.53521806560E+02 -0.16781122106E+02  0.42085512937E+02  0.70281364783E+02  0.47000000000E+01 0. -1.
         -5    1    3    3    0  502  0.66463010449E+02  0.17775175490E+02  0.66595740604E+02  0.95866424196E+02  0.47000000000E+01 0. -1.
        -11    1    1    2    0    0  0.18080773927E+02 -0.34239949194E+00  0.81449589327E+02  0.83433010402E+02  0.00000000000E+00 0.  1.
         11    1    1    2    0    0 -0.31021977816E+02 -0.65165389251E+00 -0.11220405533E+02  0.32995230879E+02  0.00000000000E+00 0. -1.
<mgrwt>
<rscale>  0 0.11651690E+03</rscale>
<asrwt>0</asrwt>
<pdfrwt beam="1">  1        2 0.35498958E-01 0.12567208E+03</pdfrwt>
<pdfrwt beam="2">  1       -2 0.79742765E-02 0.12567208E+03</pdfrwt>
<totfact> 0.12916132E+04</totfact>
</mgrwt>
</event>
<event>
 7    1  0.4230786E-006  0.1538156E+03  0.7546771E-02  0.1202869E+00
          1   -1    0    0  501    0  0.00000000000E+00  0.00000000000E+00  0.14033740211E+02  0.14033740211E+02  0.00000000000E+00 0. -1.
         -1   -1    0    0    0  501 -0.00000000000E+00 -0.00000000000E+00 -0.15142856974E+04  0.15142856974E+04  0.00000000000E+00 0.  1.
         23    2    1    2    0    0  0.89209629012E+02  0.86923728786E+01 -0.95441217586E+03  0.96672739405E+03  0.12500135095E+03 0.  0.
          5    1    3    3  502    0  0.62628096444E+02 -0.55480992470E+02 -0.55558696490E+03  0.56187132385E+03  0.47000000000E+01 0.  1.
         -5    1    3    3    0  502  0.26581532568E+02  0.64173365349E+02 -0.39882521095E+03  0.40485607021E+03  0.47000000000E+01 0.  1.
        -11    1    1    2    0    0 -0.56899843468E+01 -0.33772228552E+02 -0.71210029630E+02  0.79017768022E+02  0.00000000000E+00 0. -1.
         11    1    1    2    0    0 -0.83519644666E+02  0.25079855673E+02 -0.47462975173E+03  0.48257427556E+03  0.00000000000E+00 0.  1.
<mgrwt>
<rscale>  0 0.14806686E+03</rscale>
<asrwt>0</asrwt>
<pdfrwt beam="1">  1        1 0.21590367E-02 0.15381565E+03</pdfrwt>
<pdfrwt beam="2">  1       -1 0.23296706E+00 0.15381565E+03</pdfrwt>
<totfact> 0.54863333E+02</totfact>
</mgrwt>
</event>
<event>
 7    1  0.4230786E-006  0.2125530E+03  0.7546771E-02  0.1146720E+00
         -2   -1    0    0    0  501 -0.00000000000E+00  0.00000000000E+00  0.87214507787E+02  0.87214507787E+02  0.00000000000E+00 0.  1.
          2   -1    0    0  501    0  0.00000000000E+00 -0.00000000000E+00 -0.50296772760E+03  0.50296772760E+03  0.00000000000E+00 0. -1.
         23    2    1    2    0    0  0.16376711701E+03 -0.52290211265E+02 -0.11894635293E+03  0.24357134815E+03  0.12499932782E+03 0.  0.
          5    1    3    3  502    0  0.45391081745E+02 -0.19969012670E+02 -0.10963430809E+03  0.12041961335E+03  0.47000000000E+01 0. -1.
         -5    1    3    3    0  502  0.11837603527E+03 -0.32321198596E+02 -0.93120448341E+01  0.12315173479E+03  0.47000000000E+01 0. -1.
        -11    1    1    2    0    0 -0.97986523548E+02  0.54283662369E+02 -0.20566331064E+03  0.23419110175E+03  0.00000000000E+00 0. -1.
         11    1    1    2    0    0 -0.65780593464E+02 -0.19934511035E+01 -0.91143556247E+02  0.11241978549E+03  0.00000000000E+00 0.  1.
<mgrwt>
<rscale>  0 0.20361983E+03</rscale>
<asrwt>0</asrwt>
<pdfrwt beam="2">  1        2 0.77379652E-01 0.21255297E+03</pdfrwt>
<pdfrwt beam="1">  1       -2 0.13417616E-01 0.21255297E+03</pdfrwt>
<totfact> 0.25233622E+03</totfact>
</mgrwt>
</event>
<event>
 6    1  0.4230786E-006  0.1790246E+03  0.7546771E-02  0.1176666E+00
          1   -1    0    0  501    0  0.00000000000E+00  0.00000000000E+00  0.56214251374E+03  0.56214251374E+03  0.00000000000E+00 0. -1.
         -1   -1    0    0    0  501 -0.00000000000E+00 -0.00000000000E+00 -0.75874214128E+02  0.75874214128E+02  0.00000000000E+00 0.  1.
          5    1    1    2  502    0  0.84370627864E+01  0.26778206595E+02  0.88173538694E+02  0.92654839607E+02  0.47000000000E+01 0. -1.
         -5    1    1    2    0  502 -0.25942319870E+02  0.90723992682E+02 -0.24079262596E+02  0.97497424046E+02  0.47000000000E+01 0.  1.
        -11    1    1    2    0    0 -0.18939940939E+02 -0.99300207233E+02  0.35672999523E+03  0.37077694375E+03  0.00000000000E+00 0.  1.
         11    1    1    2    0    0  0.36445198022E+02 -0.18201992043E+02  0.65444028278E+02  0.77087520458E+02  0.00000000000E+00 0. -1.
<mgrwt>
<rscale>  0 0.17113872E+03</rscale>
<asrwt>0</asrwt>
<pdfrwt beam="1">  1        1 0.86483461E-01 0.17902460E+03</pdfrwt>
<pdfrwt beam="2">  1       -1 0.11672956E-01 0.17902460E+03</pdfrwt>
<totfact> 0.18270858E+03</totfact>
</mgrwt>
</event>
<event>
 7    1  0.4230786E-006  0.1395911E+03  0.7546771E-02  0.1223327E+00
          1   -1    0    0  501    0  0.00000000000E+00  0.00000000000E+00  0.10765208751E+04  0.10765208751E+04  0.00000000000E+00 0. -1.
         -1   -1    0    0    0  501 -0.00000000000E+00 -0.00000000000E+00 -0.15009745157E+02  0.15009745157E+02  0.00000000000E+00 0.  1.
         23    2    1    2    0    0 -0.62171683964E+02  0.14329618919E+01  0.60575921443E+03  0.62163486522E+03  0.12497322962E+03 0.  0.
          5    1    3    3  502    0  0.10949935065E+02 -0.45392271223E+02  0.13532975878E+03  0.14323614410E+03  0.47000000000E+01 0. -1.
         -5    1    3    3    0  502 -0.73121619029E+02  0.46825233115E+02  0.47042945566E+03  0.47839872113E+03  0.47000000000E+01 0. -1.
        -11    1    1    2    0    0  0.24094447869E+02 -0.46549432392E+02  0.26811281584E+03  0.27318834911E+03  0.00000000000E+00 0.  1.
         11    1    1    2    0    0  0.38077236095E+02  0.45116470500E+02  0.18763909965E+03  0.19670740590E+03  0.00000000000E+00 0. -1.
<mgrwt>
<rscale>  0 0.13282198E+03</rscale>
<asrwt>0</asrwt>
<pdfrwt beam="1">  1        1 0.16561854E+00 0.13959112E+03</pdfrwt>
<pdfrwt beam="2">  1       -1 0.23091924E-02 0.13959112E+03</pdfrwt>
<totfact> 0.75710665E+03</totfact>
</mgrwt>
</event>
<event>
 7    1  0.4230786E-006  0.1259273E+03  0.7546771E-02  0.1248426E+00
          1   -1    0    0  501    0  0.00000000000E+00  0.00000000000E+00  0.23007313055E+02  0.23007313055E+02  0.00000000000E+00 0. -1.
         -1   -1    0    0    0  501 -0.00000000000E+00 -0.00000000000E+00 -0.53084538203E+03  0.53084538203E+03  0.00000000000E+00 0.  1.
         23    2    1    2    0    0  0.19277026905E+01  0.15147243823E+02 -0.32615808013E+03  0.34962375293E+03  0.12499808136E+03 0.  0.
          5    1    3    3  502    0  0.55222108872E+02  0.20711747525E+02 -0.24652936063E+03  0.25352963031E+03  0.47000000000E+01 0.  1.
         -5    1    3    3    0  502 -0.53294406182E+02 -0.55645037019E+01 -0.79628719507E+02  0.96094122619E+02  0.47000000000E+01 0.  1.
        -11    1    1    2    0    0 -0.36114274388E+02 -0.35428271990E+02 -0.12634021604E+03  0.13609281193E+03  0.00000000000E+00 0.  1.
         11    1    1    2    0    0  0.34186571697E+02  0.20281028167E+02 -0.55339772798E+02  0.68136130219E+02  0.00000000000E+00 0. -1.
<mgrwt>
<rscale>  0 0.11682646E+03</rscale>
<asrwt>0</asrwt>
<pdfrwt beam="1">  1        1 0.35395867E-02 0.12592726E+03</pdfrwt>
<pdfrwt beam="2">  1       -1 0.81668520E-01 0.12592726E+03</pdfrwt>
<totfact> 0.40221463E+03</totfact>
</mgrwt>
</event>
<event>
 7    1  0.4230786E-006  0.1539335E+03  0.7546771E-02  0.1204371E+00
          1   -1    0    0  501    0  0.00000000000E+00  0.00000000000E+00  0.19767984554E+03  0.19767984554E+03  0.00000000000E+00 0. -1.
         -1   -1    0    0    0  501 -0.00000000000E+00 -0.00000000000E+00 -0.10480332836E+03  0.10480332836E+03  0.00000000000E+00 0.  1.
         23    2    1    2    0    0 -0.31100942777E+02 -0.84283320085E+02  0.19095397571E+02  0.15511332640E+03  0.12499825251E+03 0.  0.
          5    1    3    3  502    0 -0.21998347904E+02  0.28526042481E+02  0.20732202031E+02  0.41827940557E+02  0.47000000000E+01 0. -1.
         -5    1    3    3    0  502 -0.91025948724E+01 -0.11280936257E+03 -0.16368044602E+01  0.11328538584E+03  0.47000000000E+01 0. -1.
        -11    1    1    2    0    0  0.57299699602E+02  0.37687996272E+02  0.62386999062E+02  0.92713420223E+02  0.00000000000E+00 0.  1.
         11    1    1    2    0    0 -0.26198756825E+02  0.46595323813E+02  0.11394120545E+02  0.54656427284E+02  0.00000000000E+00 0. -1.
<mgrwt>
<rscale>  0 0.14687142E+03</rscale>
<asrwt>0</asrwt>
<pdfrwt beam="1">  1        1 0.30412284E-01 0.15393346E+03</pdfrwt>
<pdfrwt beam="2">  1       -1 0.16123589E-01 0.15393346E+03</pdfrwt>
<totfact> 0.41202991E+03</totfact>
</mgrwt>
</event>
<event>
 7    1  0.4230786E-006  0.1476573E+03  0.7546771E-02  0.1212853E+00
         -2   -1    0    0    0  501 -0.00000000000E+00  0.00000000000E+00  0.43851426201E+02  0.43851426201E+02  0.00000000000E+00 0.  1.
          2   -1    0    0  501    0  0.00000000000E+00 -0.00000000000E+00 -0.52683020549E+03  0.52683020549E+03  0.00000000000E+00 0. -1.
         23    2    1    2    0    0  0.48896322115E+02  0.61532820338E+02 -0.12670579710E+03  0.19456887886E+03  0.12500220521E+03 0.  0.
          5    1    3    3  502    0  0.57519855648E+00  0.74088069955E+02 -0.12378127052E+03  0.14433733369E+03  0.47000000000E+01 0.  1.
         -5    1    3    3    0  502  0.48321123558E+02 -0.12555249617E+02 -0.29245265785E+01  0.50231545174E+02  0.47000000000E+01 0.  1.
        -11    1    1    2    0    0 -0.70761244703E+02 -0.66760160304E+02 -0.30468724903E+03  0.31984119884E+03  0.00000000000E+00 0.  1.
         11    1    1    2    0    0  0.21864922588E+02  0.52273399662E+01 -0.51585733154E+02  0.56271553985E+02  0.00000000000E+00 0. -1.
<mgrwt>
<rscale>  0 0.14035434E+03</rscale>
<asrwt>0</asrwt>
<pdfrwt beam="2">  1        2 0.81050809E-01 0.14765734E+03</pdfrwt>
<pdfrwt beam="1">  1       -2 0.67463726E-02 0.14765734E+03</pdfrwt>
<totfact> 0.69781174E+03</totfact>
</mgrwt>
</event>
<event>
 7    1  0.4230786E-006  0.1471441E+03  0.7546771E-02  0.1217795E+00
         -1   -1    0    0    0  501 -0.00000000000E+00  0.00000000000E+00  0.24572186143E+03  0.24572186143E+03  0.00000000000E+00 0.  1.
          1   -1    0    0  501    0  0.00000000000E+00 -0.00000000000E+00 -0.67307355179E+02  0.67307355179E+02  0.00000000000E+00 0. -1.
         23    2    1    2    0    0  0.55112755720E+02 -0.54670813077E+02  0.11025625942E+03  0.18386909346E+03  0.12500034857E+03 0.  0.
          5    1    3    3  502    0 -0.11972745547E+02 -0.30465629390E+02  0.10735927657E+03  0.11233701739E+03  0.47000000000E+01 0.  1.
         -5    1    3    3    0  502  0.67085501267E+02 -0.24205183687E+02  0.28969828492E+01  0.71532076072E+02  0.47000000000E+01 0.  1.
        -11    1    1    2    0    0 -0.89764883457E+01 -0.17031862109E+02 -0.11411989934E+01  0.19286368374E+02  0.00000000000E+00 0. -1.
         11    1    1    2    0    0 -0.46136267375E+02  0.71702675186E+02  0.69299445820E+02  0.10987375477E+03  0.00000000000E+00 0.  1.
<mgrwt>
<rscale>  0 0.13673229E+03</rscale>
<asrwt>0</asrwt>
<pdfrwt beam="2">  1        1 0.10354978E-01 0.14714415E+03</pdfrwt>
<pdfrwt beam="1">  1       -1 0.37803363E-01 0.14714415E+03</pdfrwt>
<totfact> 0.40238082E+03</totfact>
</mgrwt>
</event>
<event>
 7    1  0.4230786E-006  0.1416913E+03  0.7546771E-02  0.1218524E+00
          1   -1    0    0  501    0  0.00000000000E+00  0.00000000000E+00  0.62903206364E+02  0.62903206364E+02  0.00000000000E+00 0. -1.
         -1   -1    0    0    0  501 -0.00000000000E+00 -0.00000000000E+00 -0.28239584650E+03  0.28239584650E+03  0.00000000000E+00 0.  1.
         23    2    1    2    0    0 -0.66065453546E+02 -0.92911271795E+01 -0.14736188952E+03  0.20443078393E+03  0.12500179894E+03 0.  0.
          5    1    3    3  502    0  0.24832991795E+01  0.46799207147E+02 -0.80839268634E+02  0.93559659671E+02  0.47000000000E+01 0. -1.
         -5    1    3    3    0  502 -0.68548752726E+02 -0.56090334327E+02 -0.66522620891E+02  0.11087112426E+03  0.47000000000E+01 0. -1.
        -11    1    1    2    0    0  0.30489007884E+02 -0.24747621767E+02  0.13973107836E+02  0.41680596534E+02  0.00000000000E+00 0. -1.
         11    1    1    2    0    0  0.35576445662E+02  0.34038748946E+02 -0.86103858447E+02  0.99187672396E+02  0.00000000000E+00 0.  1.
<mgrwt>
<rscale>  0 0.13620836E+03</rscale>
<asrwt>0</asrwt>
<pdfrwt beam="1">  1        1 0.96774164E-02 0.14169128E+03</pdfrwt>
<pdfrwt beam="2">  1       -1 0.43445515E-01 0.14169128E+03</pdfrwt>
<totfact> 0.34390153E+03</totfact>
</mgrwt>
</event>
<event>
 7    1  0.4230786E-006  0.1417908E+03  0.7546771E-02  0.1221655E+00
         -2   -1    0    0    0  501 -0.00000000000E+00  0.00000000000E+00  0.73452895056E+03  0.73452895056E+03  0.00000000000E+00 0.  1.
          2   -1    0    0  501    0  0.00000000000E+00 -0.00000000000E+00 -0.23924104216E+02  0.23924104216E+02  0.00000000000E+00 0. -1.
         23    2    1    2    0    0  0.17769683367E+02  0.64547885310E+02  0.49622681756E+03  0.51608690102E+03  0.12498977477E+03 0.  0.
          5    1    3    3  502    0  0.22354813172E+02 -0.34124321370E+02  0.18602768714E+03  0.19050616096E+03  0.47000000000E+01 0. -1.
         -5    1    3    3    0  502 -0.45851298053E+01  0.98672206680E+02  0.31019913042E+03  0.32558074006E+03  0.47000000000E+01 0. -1.
        -11    1    1    2    0    0  0.53184240873E+01 -0.83199945106E+02  0.15970129837E+03  0.18015277184E+03  0.00000000000E+00 0. -1.
         11    1    1    2    0    0 -0.23088107454E+02  0.18652059795E+02  0.54676730420E+02  0.62213381919E+02  0.00000000000E+00 0.  1.
<mgrwt>
<rscale>  0 0.13398831E+03</rscale>
<asrwt>0</asrwt>
<pdfrwt beam="2">  1        2 0.36806320E-02 0.14179081E+03</pdfrwt>
<pdfrwt beam="1">  1       -2 0.11300444E+00 0.14179081E+03</pdfrwt>
<totfact> 0.14711460E+03</totfact>
</mgrwt>
</event>
<event>
 7    1  0.4230786E-006  0.1491343E+03  0.7546771E-02  0.1210301E+00
          1   -1    0    0  501    0  0.00000000000E+00  0.00000000000E+00  0.71844686502E+03  0.71844686502E+03  0.00000000000E+00 0. -1.
         -1   -1    0    0    0  501 -0.00000000000E+00 -0.00000000000E+00 -0.25879472447E+02  0.25879472447E+02  0.00000000000E+00 0.  1.
         23    2    1    2    0    0  0.79811882117E+02  0.15666295587E+02  0.37183595723E+03  0.40062829673E+03  0.12500273481E+03 0.  0.
          5    1    3    3  502    0  0.65797646198E+02 -0.40157021130E+02  0.29236121485E+03  0.30238896563E+03  0.47000000000E+01 0. -1.
         -5    1    3    3    0  502  0.14014235919E+02  0.55823316717E+02  0.79474742386E+02  0.98239331101E+02  0.47000000000E+01 0. -1.
        -11    1    1    2    0    0 -0.92298177689E+02 -0.44613612677E+01  0.31070175422E+03  0.32415187401E+03  0.00000000000E+00 0. -1.
         11    1    1    2    0    0  0.12486295572E+02 -0.11204934319E+02  0.10029681126E+02  0.19546166726E+02  0.00000000000E+00 0.  1.
<mgrwt>
<rscale>  0 0.14227430E+03</rscale>
<asrwt>0</asrwt>
<pdfrwt beam="1">  1        1 0.11053027E+00 0.14913435E+03</pdfrwt>
<pdfrwt beam="2">  1       -1 0.39814578E-02 0.14913435E+03</pdfrwt>
<totfact> 0.65175811E+03</totfact>
</mgrwt>
</event>
<event>
 7    1  0.4230786E-006  0.1658369E+03  0.7546771E-02  0.1189267E+00
          2   -1    0    0  501    0  0.00000000000E+00  0.00000000000E+00  0.87095499260E+03  0.87095499260E+03  0.00000000000E+00 0. -1.
         -2   -1    0    0    0  501 -0.00000000000E+00 -0.00000000000E+00 -0.29994599512E+02  0.29994599512E+02  0.00000000000E+00 0.  1.
         23    2    1    2    0    0  0.68404520239E+02  0.84839392307E+02  0.31255808016E+03  0.35382822843E+03  0.12499984354E+03 0.  0.
          5    1    3    3  502    0 -0.32136546614E+02  0.47519402822E+02  0.12748623538E+03  0.13987738017E+03  0.47000000000E+01 0.  1.
         -5    1    3    3    0  502  0.10054106685E+03  0.37319989486E+02  0.18507184478E+03  0.21395084826E+03  0.47000000000E+01 0.  1.
        -11    1    1    2    0    0 -0.58559156577E+02 -0.22362262633E+01  0.20832193026E+03  0.21640749098E+03  0.00000000000E+00 0. -1.
         11    1    1    2    0    0 -0.98453636618E+01 -0.82603166044E+02  0.32008038266E+03  0.33071387270E+03  0.00000000000E+00 0.  1.
<mgrwt>
<rscale>  0 0.15949562E+03</rscale>
<asrwt>0</asrwt>
<pdfrwt beam="1">  1        2 0.13399306E+00 0.16583685E+03</pdfrwt>
<pdfrwt beam="2">  1       -2 0.46145544E-02 0.16583685E+03</pdfrwt>
<totfact> 0.68646894E+03</totfact>
</mgrwt>
</event>
<event>
 7    1  0.4230786E-006  0.1334962E+03  0.7546771E-02  0.1235436E+00
          2   -1    0    0  501    0  0.00000000000E+00  0.00000000000E+00  0.28164027110E+03  0.28164027110E+03  0.00000000000E+00 0. -1.
         -2   -1    0    0    0  501 -0.00000000000E+00 -0.00000000000E+00 -0.56409228329E+02  0.56409228329E+02  0.00000000000E+00 0.  1.
         23    2    1    2    0    0  0.42558442754E+02  0.19623247280E+02  0.65728072095E+02  0.14879988416E+03  0.12499973272E+03 0.  0.
          5    1    3    3  502    0  0.57399458117E+02  0.64186517094E+01 -0.19515578767E+02  0.61146093060E+02  0.47000000000E+01 0. -1.
         -5    1    3    3    0  502 -0.14841015363E+02  0.13204595571E+02  0.85243650862E+02  0.87653791096E+02  0.47000000000E+01 0. -1.
        -11    1    1    2    0    0  0.50226352041E+00  0.30089670861E+02  0.83408738760E+02  0.88671631668E+02  0.00000000000E+00 0.  1.
         11    1    1    2    0    0 -0.43060706274E+02 -0.49712918142E+02  0.76094231911E+02  0.10057798360E+03  0.00000000000E+00 0. -1.
<mgrwt>
<rscale>  0 0.12476593E+03</rscale>
<asrwt>0</asrwt>
<pdfrwt beam="1">  1        2 0.43329272E-01 0.13349616E+03</pdfrwt>
<pdfrwt beam="2">  1       -2 0.86783430E-02 0.13349616E+03</pdfrwt>
<totfact> 0.92129795E+03</totfact>
</mgrwt>
</event>
<event>
 7    1  0.4230786E-006  0.1779666E+03  0.7546771E-02  0.1175971E+00
         -1   -1    0    0    0  501 -0.00000000000E+00  0.00000000000E+00  0.31575289550E+02  0.31575289550E+02  0.00000000000E+00 0.  1.
          1   -1    0    0  501    0  0.00000000000E+00 -0.00000000000E+00 -0.11091636005E+04  0.11091636005E+04  0.00000000000E+00 0. -1.
         23    2    1    2    0    0 -0.84453941357E+02  0.94413989240E+02 -0.30750301319E+03  0.35528894073E+03  0.12500263480E+03 0.  0.
          5    1    3    3  502    0  0.19217489803E+02  0.56127193454E+02 -0.16149450970E+03  0.17211083761E+03  0.47000000000E+01 0. -1.
         -5    1    3    3    0  502 -0.10367143116E+03  0.38286795787E+02 -0.14600850349E+03  0.18317810312E+03  0.47000000000E+01 0. -1.
        -11    1    1    2    0    0  0.18545687701E+02  0.14628898895E+02 -0.70368635559E+02  0.74227300137E+02  0.00000000000E+00 0.  1.
         11    1    1    2    0    0  0.65908253656E+02 -0.10904288814E+03 -0.69971666223E+03  0.71122264921E+03  0.00000000000E+00 0. -1.
<mgrwt>
<rscale>  0 0.17181231E+03</rscale>
<asrwt>0</asrwt>
<pdfrwt beam="2">  1        1 0.17064052E+00 0.17796665E+03</pdfrwt>
<pdfrwt beam="1">  1       -1 0.48577377E-02 0.17796665E+03</pdfrwt>
<totfact> 0.24295858E+03</totfact>
</mgrwt>
</event>
<event>
 7    1  0.4230786E-006  0.1281992E+03  0.7546771E-02  0.1242775E+00
         -2   -1    0    0    0  501 -0.00000000000E+00  0.00000000000E+00  0.61999614140E+02  0.61999614140E+02  0.00000000000E+00 0. -1.
          2   -1    0    0  501    0  0.00000000000E+00 -0.00000000000E+00 -0.22178315280E+03  0.22178315280E+03  0.00000000000E+00 0.  1.
         23    2    1    2    0    0  0.15922105473E+02 -0.23603575762E+02 -0.54737928294E+02  0.13939608432E+03  0.12499754117E+03 0.  0.
          5    1    3    3  502    0 -0.26355260349E+02  0.38400453236E+02 -0.72911529247E+00  0.46816836350E+02  0.47000000000E+01 0. -1.
         -5    1    3    3    0  502  0.42277365822E+02 -0.62004028997E+02 -0.54008813002E+02  0.92579247970E+02  0.47000000000E+01 0. -1.
        -11    1    1    2    0    0 -0.28605154463E+02  0.52332130758E+01 -0.11595105257E+03  0.11954199251E+03  0.00000000000E+00 0.  1.
         11    1    1    2    0    0  0.12683048990E+02  0.18370362686E+02  0.10905442206E+02  0.24844690109E+02  0.00000000000E+00 0. -1.
<mgrwt>
<rscale>  0 0.12019566E+03</rscale>
<asrwt>0</asrwt>
<pdfrwt beam="2">  1        2 0.34120485E-01 0.12819917E+03</pdfrwt>
<pdfrwt beam="1">  1       -2 0.95384022E-02 0.12819917E+03</pdfrwt>
<totfact> 0.10222302E+04</totfact>
</mgrwt>
</event>
<event>
 7    1  0.4230786E-006  0.1785764E+03  0.7546771E-02  0.1174858E+00
         -2   -1    0    0    0  501 -0.00000000000E+00  0.00000000000E+00  0.13523082187E+03  0.13523082187E+03  0.00000000000E+00 0.  1.
          2   -1    0    0  501    0  0.00000000000E+00 -0.00000000000E+00 -0.32937040842E+03  0.32937040842E+03  0.00000000000E+00 0. -1.
         23    2    1    2    0    0 -0.45290586262E+02  0.11921508796E+03  0.39748398844E+02  0.18294662301E+03  0.12500422897E+03 0.  0.
          5    1    3    3  502    0 -0.78162251353E+02  0.55032985714E+02  0.53112903344E+02  0.10945792596E+03  0.47000000000E+01 0. -1.
         -5    1    3    3    0  502  0.32871665091E+02  0.64182102244E+02 -0.13364504500E+02  0.73488697055E+02  0.47000000000E+01 0. -1.
        -11    1    1    2    0    0 -0.77446339349E+01 -0.10022732258E+03 -0.15384142837E+03  0.18377344919E+03  0.00000000000E+00 0. -1.
         11    1    1    2    0    0  0.53035220197E+02 -0.18987765376E+02 -0.80046557026E+02  0.97881158080E+02  0.00000000000E+00 0.  1.
<mgrwt>
<rscale>  0 0.17289868E+03</rscale>
<asrwt>0</asrwt>
<pdfrwt beam="2">  1        2 0.50672371E-01 0.17857640E+03</pdfrwt>
<pdfrwt beam="1">  1       -2 0.20804742E-01 0.17857640E+03</pdfrwt>
<totfact> 0.19136094E+03</totfact>
</mgrwt>
</event>
<event>
 7    1  0.4230786E-006  0.1488085E+03  0.7546771E-02  0.1212497E+00
         -2   -1    0    0    0  501 -0.00000000000E+00  0.00000000000E+00  0.26929585975E+03  0.26929585975E+03  0.00000000000E+00 0.  1.
          2   -1    0    0  501    0  0.00000000000E+00 -0.00000000000E+00 -0.66418398457E+02  0.66418398457E+02  0.00000000000E+00 0. -1.
         23    2    1    2    0    0  0.26445905810E+02  0.76300084959E+02  0.11146604223E+03  0.18592642582E+03  0.12499147311E+03 0.  0.
          5    1    3    3  502    0  0.67396040281E+00 -0.13222253251E+02 -0.20177436633E+02  0.24586605148E+02  0.47000000000E+01 0.  1.
         -5    1    3    3    0  502  0.25771945408E+02  0.89522338209E+02  0.13164347886E+03  0.16133982068E+03  0.47000000000E+01 0.  1.
        -11    1    1    2    0    0 -0.64086766215E+01 -0.56348801446E+02  0.28076425366E+01  0.56781523553E+02  0.00000000000E+00 0. -1.
         11    1    1    2    0    0 -0.20037229189E+02 -0.19951283513E+02  0.88603776522E+02  0.93006308825E+02  0.00000000000E+00 0.  1.
<mgrwt>
<rscale>  0 0.14062009E+03</rscale>
<asrwt>0</asrwt>
<pdfrwt beam="2">  1        2 0.10218215E-01 0.14880846E+03</pdfrwt>
<pdfrwt beam="1">  1       -2 0.41430132E-01 0.14880846E+03</pdfrwt>
<totfact> 0.33451918E+03</totfact>
</mgrwt>
</event>
<event>
 7    1  0.4230786E-006  0.1285219E+03  0.7546771E-02  0.1244599E+00
          2   -1    0    0  501    0  0.00000000000E+00  0.00000000000E+00  0.89856260633E+02  0.89856260633E+02  0.00000000000E+00 0. -1.
         -2   -1    0    0    0  501 -0.00000000000E+00 -0.00000000000E+00 -0.13871161520E+03  0.13871161520E+03  0.00000000000E+00 0.  1.
         23    2    1    2    0    0 -0.22362540564E+02  0.19794429559E+02 -0.27636806694E+02  0.13145974350E+03  0.12500387360E+03 0.  0.
          5    1    3    3  502    0 -0.49838891770E+02  0.54482862289E+02 -0.41520963503E+02  0.84843254453E+02  0.47000000000E+01 0. -1.
         -5    1    3    3    0  502  0.27476351206E+02 -0.34688432730E+02  0.13884156810E+02  0.46616489048E+02  0.47000000000E+01 0. -1.
        -11    1    1    2    0    0  0.26265194256E+02  0.28037647167E+02 -0.29461488382E+02  0.48414351030E+02  0.00000000000E+00 0.  1.
         11    1    1    2    0    0 -0.39026536925E+01 -0.47832076726E+02  0.82429405045E+01  0.48693781306E+02  0.00000000000E+00 0. -1.
<mgrwt>
<rscale>  0 0.11909427E+03</rscale>
<asrwt>0</asrwt>
<pdfrwt beam="1">  1        2 0.13824040E-01 0.12852187E+03</pdfrwt>
<pdfrwt beam="2">  1       -2 0.21340248E-01 0.12852187E+03</pdfrwt>
<totfact> 0.75946397E+03</totfact>
</mgrwt>
</event>
<event>
 7    1  0.4230786E-006  0.1471823E+03  0.7546771E-02  0.1211757E+00
          1   -1    0    0  501    0  0.00000000000E+00  0.00000000000E+00  0.82521215425E+03  0.82521215425E+03  0.00000000000E+00 0. -1.
         -1   -1    0    0    0  501 -0.00000000000E+00 -0.00000000000E+00 -0.23046439305E+02  0.23046439305E+02  0.00000000000E+00 0.  1.
         23    2    1    2    0    0  0.35906393500E+02 -0.68907560707E+02  0.36131325030E+03  0.39014085522E+03  0.12500040420E+03 0.  0.
          5    1    3    3  502    0  0.41607285973E+02 -0.85918518738E+02  0.35893522152E+03  0.37144278342E+03  0.47000000000E+01 0.  1.
         -5    1    3    3    0  502 -0.57008924729E+01  0.17010958030E+02  0.23780287823E+01  0.18698071798E+02  0.47000000000E+01 0.  1.
        -11    1    1    2    0    0  0.11696545941E+02  0.75354228254E+02  0.28542891113E+03  0.29543989611E+03  0.00000000000E+00 0.  1.
         11    1    1    2    0    0 -0.47602939441E+02 -0.64466675464E+01  0.15542355351E+03  0.16267784223E+03  0.00000000000E+00 0. -1.
<mgrwt>
<rscale>  0 0.14117457E+03</rscale>
<asrwt>0</asrwt>
<pdfrwt beam="1">  1        1 0.12695569E+00 0.14718227E+03</pdfrwt>
<pdfrwt beam="2">  1       -1 0.35456067E-02 0.14718227E+03</pdfrwt>
<totfact> 0.62835767E+03</totfact>
</mgrwt>
</event>
<event>
 7    1  0.4230786E-006  0.1781366E+03  0.7546771E-02  0.1175427E+00
         -2   -1    0    0    0  501 -0.00000000000E+00  0.00000000000E+00  0.38021357744E+02  0.38021357744E+02  0.00000000000E+00 0.  1.
          2   -1    0    0  501    0  0.00000000000E+00 -0.00000000000E+00 -0.78319622931E+03  0.78319622931E+03  0.00000000000E+00 0. -1.
         23    2    1    2    0    0 -0.10976908848E+03  0.63702693539E+02 -0.29337839500E+03  0.34322516652E+03  0.12500138531E+03 0.  0.
          5    1    3    3  502    0 -0.94047132741E+02  0.69800535031E+02 -0.30182652468E+03  0.32378745940E+03  0.47000000000E+01 0.  1.
         -5    1    3    3    0  502 -0.15721955739E+02 -0.60978414914E+01  0.84481296739E+01  0.19437707121E+02  0.47000000000E+01 0.  1.
        -11    1    1    2    0    0  0.11757342775E+03 -0.75624622150E+02 -0.42804564377E+03  0.45029508940E+03  0.00000000000E+00 0. -1.
         11    1    1    2    0    0 -0.78043392727E+01  0.11921928611E+02 -0.23750832790E+02  0.27697331126E+02  0.00000000000E+00 0.  1.
<mgrwt>
<rscale>  0 0.17234238E+03</rscale>
<asrwt>0</asrwt>
<pdfrwt beam="2">  1        2 0.12049173E+00 0.17813656E+03</pdfrwt>
<pdfrwt beam="1">  1       -2 0.58494397E-02 0.17813656E+03</pdfrwt>
<totfact> 0.55053106E+03</totfact>
</mgrwt>
</event>
<event>
 7    1  0.4230786E-006  0.1361183E+03  0.7546771E-02  0.1227785E+00
         -1   -1    0    0    0  501 -0.00000000000E+00  0.00000000000E+00  0.12370467630E+03  0.12370467630E+03  0.00000000000E+00 0.  1.
          1   -1    0    0  501    0  0.00000000000E+00 -0.00000000000E+00 -0.13869280812E+03  0.13869280812E+03  0.00000000000E+00 0. -1.
         23    2    1    2    0    0  0.61383401264E-01  0.53890347172E+02  0.33081340413E+02  0.14008061473E+03  0.12499612095E+03 0.  0.
          5    1    3    3  502    0 -0.45800598987E+02  0.26328562498E+02 -0.26979634051E+02  0.59505283163E+02  0.47000000000E+01 0. -1.
         -5    1    3    3    0  502  0.45861982388E+02  0.27561784674E+02  0.60060974464E+02  0.80575331563E+02  0.47000000000E+01 0. -1.
        -11    1    1    2    0    0  0.29702720276E+02  0.11558144393E+02 -0.38190274906E+02  0.49742732042E+02  0.00000000000E+00 0. -1.
         11    1    1    2    0    0 -0.29764103677E+02 -0.65448491565E+02 -0.98791973322E+01  0.72574137651E+02  0.00000000000E+00 0.  1.
<mgrwt>
<rscale>  0 0.12977827E+03</rscale>
<asrwt>0</asrwt>
<pdfrwt beam="2">  1        1 0.21337355E-01 0.13611834E+03</pdfrwt>
<pdfrwt beam="1">  1       -1 0.19031489E-01 0.13611834E+03</pdfrwt>
<totfact> 0.49070463E+03</totfact>
</mgrwt>
</event>
<event>
 7    1  0.4230786E-006  0.1459903E+03  0.7546771E-02  0.1215530E+00
         -2   -1    0    0    0  501 -0.00000000000E+00  0.00000000000E+00  0.18288152772E+03  0.18288152772E+03  0.00000000000E+00 0. -1.
          2   -1    0    0  501    0  0.00000000000E+00 -0.00000000000E+00 -0.10244499265E+03  0.10244499265E+03  0.00000000000E+00 0.  1.
         23    2    1    2    0    0  0.32685921788E+02 -0.67946657285E+02  0.82074333945E+02  0.16747943381E+03  0.12501218636E+03 0.  0.
          5    1    3    3  502    0 -0.21883331231E+02 -0.48257126468E+02  0.94055445371E+02  0.10805622261E+03  0.47000000000E+01 0. -1.
         -5    1    3    3    0  502  0.54569253018E+02 -0.19689530817E+02 -0.11981111426E+02  0.59423211204E+02  0.47000000000E+01 0. -1.
        -11    1    1    2    0    0 -0.47001625847E+02  0.40764680817E+02 -0.35897936452E+02  0.71830173854E+02  0.00000000000E+00 0.  1.
         11    1    1    2    0    0  0.14315704060E+02  0.27181976468E+02  0.34260137585E+02  0.46016912704E+02  0.00000000000E+00 0. -1.
<mgrwt>
<rscale>  0 0.13837646E+03</rscale>
<asrwt>0</asrwt>
<pdfrwt beam="2">  1        2 0.15760768E-01 0.14599029E+03</pdfrwt>
<pdfrwt beam="1">  1       -2 0.28135620E-01 0.14599029E+03</pdfrwt>
<totfact> 0.40583904E+03</totfact>
</mgrwt>
</event>
<event>
 7    1  0.4230786E-006  0.1397043E+03  0.7546771E-02  0.1221854E+00
         -1   -1    0    0    0  501 -0.00000000000E+00  0.00000000000E+00  0.28533171988E+02  0.28533171988E+02  0.00000000000E+00 0.  1.
          1   -1    0    0  501    0  0.00000000000E+00 -0.00000000000E+00 -0.58293912919E+03  0.58293912919E+03  0.00000000000E+00 0. -1.
         23    2    1    2    0    0 -0.48977603556E+02  0.38642136121E+02 -0.32014673208E+03  0.34930105267E+03  0.12500109999E+03 0.  0.
          5    1    3    3  502    0  0.91450100178E+01 -0.24693049436E+02 -0.19837467097E+03  0.20016987281E+03  0.47000000000E+01 0.  1.
         -5    1    3    3    0  502 -0.58122613573E+02  0.63335185557E+02 -0.12177206110E+03  0.14913117985E+03  0.47000000000E+01 0.  1.
        -11    1    1    2    0    0  0.25910833272E+02 -0.50897874226E+02 -0.22835876381E+03  0.23539262921E+03  0.00000000000E+00 0. -1.
         11    1    1    2    0    0  0.23066770284E+02  0.12255738105E+02 -0.59004613201E+01  0.26778619300E+02  0.00000000000E+00 0.  1.
<mgrwt>
<rscale>  0 0.13384852E+03</rscale>
<asrwt>0</asrwt>
<pdfrwt beam="2">  1        1 0.89682940E-01 0.13970431E+03</pdfrwt>
<pdfrwt beam="1">  1       -1 0.43897189E-02 0.13970431E+03</pdfrwt>
<totfact> 0.75315487E+03</totfact>
</mgrwt>
</event>
<event>
 7    1  0.4230786E-006  0.1415832E+03  0.7546771E-02  0.1221327E+00
          1   -1    0    0  501    0  0.00000000000E+00  0.00000000000E+00  0.37032051776E+02  0.37032051776E+02  0.00000000000E+00 0. -1.
         -1   -1    0    0    0  501 -0.00000000000E+00 -0.00000000000E+00 -0.13435482344E+04  0.13435482344E+04  0.00000000000E+00 0.  1.
         23    2    1    2    0    0 -0.52643381408E+02 -0.41584965156E+02 -0.12404844082E+04  0.12485380933E+04  0.12468026468E+03 0.  0.
          5    1    3    3  502    0  0.22234981072E+02 -0.46960400092E+02 -0.26059000134E+03  0.26576100609E+03  0.47000000000E+01 0. -1.
         -5    1    3    3    0  502 -0.74878362480E+02  0.53754349360E+01 -0.97989440690E+03  0.98277708721E+03  0.47000000000E+01 0.  1.
        -11    1    1    2    0    0  0.69340612729E+02  0.58388374526E+02 -0.52966842876E+02  0.10498956757E+03  0.00000000000E+00 0. -1.
         11    1    1    2    0    0 -0.16697231321E+02 -0.16803409371E+02 -0.13064931486E+02  0.27052625289E+02  0.00000000000E+00 0.  1.
<mgrwt>
<rscale>  0 0.13421893E+03</rscale>
<asrwt>0</asrwt>
<pdfrwt beam="1">  1        1 0.56972385E-02 0.14158320E+03</pdfrwt>
<pdfrwt beam="2">  1       -1 0.20669974E+00 0.14158320E+03</pdfrwt>
<totfact> 0.21112641E+02</totfact>
</mgrwt>
</event>
<event>
 7    1  0.7943359E-006  0.1886079E+03  0.7546771E-02  0.1164514E+00
          1   -1    0    0  501    0  0.00000000000E+00  0.00000000000E+00  0.86706068163E+03  0.86706068163E+03  0.00000000000E+00 0. -1.
         -1   -1    0    0    0  501 -0.00000000000E+00 -0.00000000000E+00 -0.37075396582E+02  0.37075396582E+02  0.00000000000E+00 0.  1.
         23    2    1    2    0    0 -0.75338897261E+00  0.14123517981E+03  0.40086500702E+03  0.44301882238E+03  0.12499991809E+03 0.  0.
          5    1    3    3  502    0  0.48732449576E+02  0.12646538008E+03  0.31069009361E+03  0.33899670834E+03  0.47000000000E+01 0. -1.
         -5    1    3    3    0  502 -0.49485838549E+02  0.14769799729E+02  0.90174913410E+02  0.10402211404E+03  0.47000000000E+01 0. -1.
        -11    1    1    2    0    0  0.32863486238E+02 -0.57299877046E+02  0.99229213543E+02  0.11920453623E+03  0.00000000000E+00 0.  1.
         11    1    1    2    0    0 -0.32110097266E+02 -0.83935302763E+02  0.32989106449E+03  0.34191271960E+03  0.00000000000E+00 0. -1.
<mgrwt>
<rscale>  0 0.18344112E+03</rscale>
<asrwt>0</asrwt>
<pdfrwt beam="1">  1        1 0.13339394E+00 0.18860786E+03</pdfrwt>
<pdfrwt beam="2">  1       -1 0.57039078E-02 0.18860786E+03</pdfrwt>
<totfact> 0.29012827E+03</totfact>
</mgrwt>
</event>
<event>
 7    1  0.4230786E-006  0.1548181E+03  0.7546771E-02  0.1205579E+00
          1   -1    0    0  501    0  0.00000000000E+00  0.00000000000E+00  0.64441068432E+03  0.64441068432E+03  0.00000000000E+00 0. -1.
         -1   -1    0    0    0  501 -0.00000000000E+00 -0.00000000000E+00 -0.43443555192E+02  0.43443555192E+02  0.00000000000E+00 0.  1.
         23    2    1    2    0    0  0.22389482864E+02 -0.88562464183E+02  0.13268665556E+03  0.20389802641E+03  0.12499623036E+03 0.  0.
          5    1    3    3  502    0 -0.46414660881E+02 -0.55730889890E+02  0.37279655788E+02  0.81683018849E+02  0.47000000000E+01 0.  1.
         -5    1    3    3    0  502  0.68804143746E+02 -0.32831574294E+02  0.95406999776E+02  0.12221500756E+03  0.47000000000E+01 0.  1.
        -11    1    1    2    0    0  0.26727287887E+02  0.57506869833E+02  0.26916437150E+03  0.27653362703E+03  0.00000000000E+00 0. -1.
         11    1    1    2    0    0 -0.49116770751E+02  0.31055594351E+02  0.19911610206E+03  0.20742258607E+03  0.00000000000E+00 0.  1.
<mgrwt>
<rscale>  0 0.14591939E+03</rscale>
<asrwt>0</asrwt>
<pdfrwt beam="1">  1        1 0.99140099E-01 0.15481814E+03</pdfrwt>
<pdfrwt beam="2">  1       -1 0.66836243E-02 0.15481814E+03</pdfrwt>
<totfact> 0.35296620E+03</totfact>
</mgrwt>
</event>
<event>
 7    1  0.4230786E-006  0.1397541E+03  0.7546771E-02  0.1225090E+00
          3   -1    0    0  501    0  0.00000000000E+00  0.00000000000E+00  0.67503245786E+02  0.67503245786E+02  0.00000000000E+00 0. -1.
         -3   -1    0    0    0  501 -0.00000000000E+00 -0.00000000000E+00 -0.23330388928E+03  0.23330388928E+03  0.00000000000E+00 0.  1.
         23    2    1    2    0    0 -0.50872497956E+02  0.36312021325E+02 -0.10804448291E+03  0.17664888904E+03  0.12499858307E+03 0.  0.
          5    1    3    3  502    0 -0.67114130451E+02  0.72774274047E+02 -0.70272735544E+02  0.12149382219E+03  0.47000000000E+01 0. -1.
         -5    1    3    3    0  502  0.16241632495E+02 -0.36462252721E+02 -0.37771747370E+02  0.55155066848E+02  0.47000000000E+01 0. -1.
        -11    1    1    2    0    0  0.32130891182E+02 -0.59972290342E+02 -0.11615142569E+02  0.69021600343E+02  0.00000000000E+00 0. -1.
         11    1    1    2    0    0  0.18741606774E+02  0.23660269017E+02 -0.46141018007E+02  0.55136645683E+02  0.00000000000E+00 0.  1.
<mgrwt>
<rscale>  0 0.13160719E+03</rscale>
<asrwt>0</asrwt>
<pdfrwt beam="1">  1        3 0.10385115E-01 0.13975414E+03</pdfrwt>
<pdfrwt beam="2">  1       -3 0.35892906E-01 0.13975414E+03</pdfrwt>
<totfact> 0.12260073E+03</totfact>
</mgrwt>
</event>
<event>
 7    1  0.4230786E-006  0.1555734E+03  0.7546771E-02  0.1202169E+00
          2   -1    0    0  501    0  0.00000000000E+00  0.00000000000E+00  0.49318785853E+02  0.49318785853E+02  0.00000000000E+00 0. -1.
         -2   -1    0    0    0  501 -0.00000000000E+00 -0.00000000000E+00 -0.48977173981E+03  0.48977173981E+03  0.00000000000E+00 0.  1.
         23    2    1    2    0    0 -0.28441889957E+02 -0.88139274819E+02 -0.34398744306E+03  0.37753203624E+03  0.12500241813E+03 0.  0.
          5    1    3    3  502    0  0.34564316690E+01  0.29266293340E+02 -0.10720548812E+03  0.11128148781E+03  0.47000000000E+01 0. -1.
         -5    1    3    3    0  502 -0.31898321626E+02 -0.11740556816E+03 -0.23678195493E+03  0.26625054843E+03  0.47000000000E+01 0. -1.
        -11    1    1    2    0    0  0.79871383306E+01  0.41593347678E+02 -0.10197322191E+03  0.11041892472E+03  0.00000000000E+00 0.  1.
         11    1    1    2    0    0  0.20454751626E+02  0.46545927140E+02  0.55077110081E+01  0.51139564703E+02  0.00000000000E+00 0. -1.
<mgrwt>
<rscale>  0 0.14862804E+03</rscale>
<asrwt>0</asrwt>
<pdfrwt beam="1">  1        2 0.75875056E-02 0.15557338E+03</pdfrwt>
<pdfrwt beam="2">  1       -2 0.75349497E-01 0.15557338E+03</pdfrwt>
<totfact> 0.14428938E+03</totfact>
</mgrwt>
</event>
<event>
 7    1  0.4230786E-006  0.1263336E+03  0.7546771E-02  0.1248785E+00
          2   -1    0    0  501    0  0.00000000000E+00  0.00000000000E+00  0.13651625495E+03  0.13651625495E+03  0.00000000000E+00 0. -1.
         -2   -1    0    0    0  501 -0.00000000000E+00 -0.00000000000E+00 -0.10550808519E+03  0.10550808519E+03  0.00000000000E+00 0.  1.
         23    2    1    2    0    0 -0.93453750258E+01  0.15835001095E+02 -0.32514658884E+02  0.13045069510E+03  0.12498838953E+03 0.  0.
          5    1    3    3  502    0  0.24197047067E+02  0.38737480998E+02 -0.64055852492E+02  0.78812002635E+02  0.47000000000E+01 0. -1.
         -5    1    3    3    0  502 -0.33542422093E+02 -0.22902479903E+02  0.31541193608E+02  0.51638692468E+02  0.47000000000E+01 0. -1.
        -11    1    1    2    0    0 -0.18093584362E+01  0.18202753919E+02  0.72396639474E+02  0.74671865085E+02  0.00000000000E+00 0. -1.
         11    1    1    2    0    0  0.11154733462E+02 -0.34037755015E+02 -0.88738108237E+01  0.36901779951E+02  0.00000000000E+00 0.  1.
<mgrwt>
<rscale>  0 0.11661689E+03</rscale>
<asrwt>0</asrwt>
<pdfrwt beam="1">  1        2 0.21002501E-01 0.12633361E+03</pdfrwt>
<pdfrwt beam="2">  1       -2 0.16232013E-01 0.12633361E+03</pdfrwt>
<totfact> 0.74105999E+03</totfact>
</mgrwt>
</event>
<event>
 7    1  0.4230786E-006  0.1743670E+03  0.7546771E-02  0.1179566E+00
         -2   -1    0    0    0  501 -0.00000000000E+00  0.00000000000E+00  0.16356128446E+03  0.16356128446E+03  0.00000000000E+00 0.  1.
          2   -1    0    0  501    0  0.00000000000E+00 -0.00000000000E+00 -0.17506970784E+03  0.17506970784E+03  0.00000000000E+00 0. -1.
         23    2    1    2    0    0  0.79667295471E+02 -0.91829368624E+02  0.39371795184E+02  0.17875678245E+03  0.12499735239E+03 0.  0.
          5    1    3    3  502    0  0.37516041738E+02 -0.75593585508E+02  0.81060299308E+02  0.11710980182E+03  0.47000000000E+01 0. -1.
         -5    1    3    3    0  502  0.42151253733E+02 -0.16235783117E+02 -0.41688504124E+02  0.61646980630E+02  0.47000000000E+01 0. -1.
        -11    1    1    2    0    0 -0.60888742951E+02  0.62924046881E+02  0.11789156064E+02  0.88350771897E+02  0.00000000000E+00 0.  1.
         11    1    1    2    0    0 -0.18778552520E+02  0.28905321744E+02 -0.62669374636E+02  0.71523437956E+02  0.00000000000E+00 0. -1.
<mgrwt>
<rscale>  0 0.16836260E+03</rscale>
<asrwt>0</asrwt>
<pdfrwt beam="2">  1        2 0.26933801E-01 0.17436700E+03</pdfrwt>
<pdfrwt beam="1">  1       -2 0.25163275E-01 0.17436700E+03</pdfrwt>
<totfact> 0.27192754E+03</totfact>
</mgrwt>
</event>
<event>
 7    1  0.4230786E-006  0.1312793E+03  0.7546771E-02  0.1238695E+00
          2   -1    0    0  501    0  0.00000000000E+00  0.00000000000E+00  0.11208289764E+03  0.11208289764E+03  0.00000000000E+00 0. -1.
         -2   -1    0    0    0  501 -0.00000000000E+00 -0.00000000000E+00 -0.11952741155E+03  0.11952741155E+03  0.00000000000E+00 0.  1.
         23    2    1    2    0    0  0.60197721747E+01  0.39659298784E+02 -0.37866614622E+01  0.13133386347E+03  0.12500058901E+03 0.  0.
          5    1    3    3  502    0 -0.37146177810E+02 -0.16761878236E+02  0.31644253538E+02  0.51809727561E+02  0.47000000000E+01 0.  1.
         -5    1    3    3    0  502  0.43165949985E+02  0.56421177020E+02 -0.35430915001E+02  0.79524135910E+02  0.47000000000E+01 0.  1.
        -11    1    1    2    0    0 -0.26448318900E+02  0.13542260464E+02 -0.25588751643E+02  0.39213398243E+02  0.00000000000E+00 0.  1.
         11    1    1    2    0    0  0.20428546725E+02 -0.53201559248E+02  0.21930899198E+02  0.61063047479E+02  0.00000000000E+00 0. -1.
<mgrwt>
<rscale>  0 0.12270847E+03</rscale>
<asrwt>0</asrwt>
<pdfrwt beam="1">  1        2 0.17243523E-01 0.13127926E+03</pdfrwt>
<pdfrwt beam="2">  1       -2 0.18388833E-01 0.13127926E+03</pdfrwt>
<totfact> 0.75603576E+03</totfact>
</mgrwt>
</event>
<event>
 6    1  0.4230786E-006  0.2108241E+03  0.7546771E-02  0.1165597E+00
          1   -1    0    0  501    0  0.00000000000E+00  0.00000000000E+00  0.38336187783E+03  0.38336187783E+03  0.00000000000E+00 0. -1.
         -1   -1    0    0    0  501 -0.00000000000E+00 -0.00000000000E+00 -0.80010080294E+02  0.80010080294E+02  0.00000000000E+00 0.  1.
          5    1    1    2  502    0  0.49676985488E+02 -0.13352053969E+03  0.64647484096E+02  0.15651493413E+03  0.47000000000E+01 0. -1.
         -5    1    1    2    0  502 -0.34599210124E+02  0.57385752588E+02  0.47596400339E+02  0.82327014197E+02  0.47000000000E+01 0.  1.
        -11    1    1    2    0    0 -0.52018733895E+02  0.52977580670E+02  0.12219799642E+03  0.14298574425E+03  0.00000000000E+00 0.  1.
         11    1    1    2    0    0  0.36940958531E+02  0.23157206428E+02  0.68909916676E+02  0.81544265543E+02  0.00000000000E+00 0. -1.
<mgrwt>
<rscale>  0 0.18229877E+03</rscale>
<asrwt>0</asrwt>
<pdfrwt beam="1">  1        1 0.58978749E-01 0.21082407E+03</pdfrwt>
<pdfrwt beam="2">  1       -1 0.12309243E-01 0.21082407E+03</pdfrwt>
<totfact> 0.27851075E+03</totfact>
</mgrwt>
</event>
<event>
 7    1  0.4230786E-006  0.1304516E+03  0.7546771E-02  0.1241979E+00
         -1   -1    0    0    0  501 -0.00000000000E+00  0.00000000000E+00  0.33293372684E+02  0.33293372684E+02  0.00000000000E+00 0.  1.
          1   -1    0    0  501    0  0.00000000000E+00 -0.00000000000E+00 -0.38364439795E+03  0.38364439795E+03  0.00000000000E+00 0. -1.
         23    2    1    2    0    0  0.33835326018E+02 -0.15721067329E+02 -0.20611383379E+03  0.24392728705E+03  0.12500251054E+03 0.  0.
          5    1    3    3  502    0 -0.11239559087E+01 -0.53317841152E+02 -0.32066228155E+02  0.62405035455E+02  0.47000000000E+01 0. -1.
         -5    1    3    3    0  502  0.34959281927E+02  0.37596773823E+02 -0.17404760564E+03  0.18152225159E+03  0.47000000000E+01 0. -1.
        -11    1    1    2    0    0  0.30073429711E+02  0.82117416120E+01 -0.48704591464E+02  0.57827165801E+02  0.00000000000E+00 0. -1.
         11    1    1    2    0    0 -0.63908755729E+02  0.75093257168E+01 -0.95532600005E+02  0.11518331778E+03  0.00000000000E+00 0.  1.
<mgrwt>
<rscale>  0 0.12068004E+03</rscale>
<asrwt>0</asrwt>
<pdfrwt beam="2">  1        1 0.59022219E-01 0.13045156E+03</pdfrwt>
<pdfrwt beam="1">  1       -1 0.51220570E-02 0.13045156E+03</pdfrwt>
<totfact> 0.10260826E+04</totfact>
</mgrwt>
</event>
<event>
 7    1  0.4230786E-006  0.1879240E+03  0.7546771E-02  0.1165962E+00
         -3   -1    0    0    0  501 -0.00000000000E+00  0.00000000000E+00  0.19227678164E+03  0.19227678164E+03  0.00000000000E+00 0.  1.
          3   -1    0    0  501    0  0.00000000000E+00 -0.00000000000E+00 -0.16262984725E+03  0.16262984725E+03  0.00000000000E+00 0. -1.
         23    2    1    2    0    0 -0.95038410178E+02 -0.10323939486E+03  0.27090883555E+02  0.18986661537E+03  0.12499897440E+03 0.  0.
          5    1    3    3  502    0 -0.74395169347E+02 -0.94249644385E+02  0.71518613450E+02  0.13983790173E+03  0.47000000000E+01 0.  1.
         -5    1    3    3    0  502 -0.20643240831E+02 -0.89897504759E+01 -0.44427729895E+02  0.50028713648E+02  0.47000000000E+01 0.  1.
        -11    1    1    2    0    0  0.11018780105E+03  0.93236678290E+02 -0.70266820371E+01  0.14451229684E+03  0.00000000000E+00 0. -1.
         11    1    1    2    0    0 -0.15149390868E+02  0.10002716571E+02  0.95827328682E+01  0.20527716671E+02  0.00000000000E+00 0.  1.
<mgrwt>
<rscale>  0 0.18191601E+03</rscale>
<asrwt>0</asrwt>
<pdfrwt beam="2">  1        3 0.25019976E-01 0.18792396E+03</pdfrwt>
<pdfrwt beam="1">  1       -3 0.29581043E-01 0.18792396E+03</pdfrwt>
<totfact> 0.40072604E+02</totfact>
</mgrwt>
</event>
<event>
 7    1  0.4230786E-006  0.2149864E+03  0.7546771E-02  0.1141733E+00
         -1   -1    0    0    0  501 -0.00000000000E+00  0.00000000000E+00  0.39501980320E+03  0.39501980320E+03  0.00000000000E+00 0.  1.
          1   -1    0    0  501    0  0.00000000000E+00 -0.00000000000E+00 -0.15193080237E+03  0.15193080237E+03  0.00000000000E+00 0. -1.
         23    2    1    2    0    0  0.96772870397E+02 -0.14570318743E+03  0.27537231017E+03  0.34935522556E+03  0.12499902859E+03 0.  0.
          5    1    3    3  502    0  0.10711511771E+03 -0.80837013115E+02  0.23896730715E+03  0.27410898383E+03  0.47000000000E+01 0. -1.
         -5    1    3    3    0  502 -0.10342247311E+02 -0.64866174317E+02  0.36405003023E+02  0.75246241734E+02  0.47000000000E+01 0. -1.
        -11    1    1    2    0    0  0.10408647616E+02 -0.11467888506E+01  0.56164438818E+01  0.11882740077E+02  0.00000000000E+00 0.  1.
         11    1    1    2    0    0 -0.10718151801E+03  0.14684997628E+03 -0.37899753220E+02  0.18571263994E+03  0.00000000000E+00 0. -1.
<mgrwt>
<rscale>  0 0.20978947E+03</rscale>
<asrwt>0</asrwt>
<pdfrwt beam="2">  1        1 0.23373970E-01 0.21498643E+03</pdfrwt>
<pdfrwt beam="1">  1       -1 0.60772277E-01 0.21498643E+03</pdfrwt>
<totfact> 0.59286575E+02</totfact>
</mgrwt>
</event>
<event>
 7    1  0.4230786E-006  0.1641114E+03  0.7546771E-02  0.1192290E+00
         -1   -1    0    0    0  501 -0.00000000000E+00  0.00000000000E+00  0.27709717359E+03  0.27709717359E+03  0.00000000000E+00 0.  1.
          1   -1    0    0  501    0  0.00000000000E+00 -0.00000000000E+00 -0.83585186535E+02  0.83585186535E+02  0.00000000000E+00 0. -1.
         23    2    1    2    0    0  0.95035697895E+02 -0.47662703952E+02  0.13166473999E+03  0.21040001428E+03  0.12501617907E+03 0.  0.
          5    1    3    3  502    0  0.86684006511E+01 -0.54471522981E+02  0.32888377811E+01  0.55454435708E+02  0.47000000000E+01 0. -1.
         -5    1    3    3    0  502  0.86367297244E+02  0.68088190291E+01  0.12837590221E+03  0.15494557857E+03  0.47000000000E+01 0. -1.
        -11    1    1    2    0    0 -0.93481327659E+02  0.93100304968E+01  0.60764741721E+02  0.11188292598E+03  0.00000000000E+00 0.  1.
         11    1    1    2    0    0 -0.15543702359E+01  0.38352673455E+02  0.10825053338E+01  0.38399419863E+02  0.00000000000E+00 0. -1.
<mgrwt>
<rscale>  0 0.15685825E+03</rscale>
<asrwt>0</asrwt>
<pdfrwt beam="2">  1        1 0.12859260E-01 0.16411143E+03</pdfrwt>
<pdfrwt beam="1">  1       -1 0.42630334E-01 0.16411143E+03</pdfrwt>
<totfact> 0.24604288E+03</totfact>
</mgrwt>
</event>
<event>
 6    1  0.4230786E-006  0.1394755E+03  0.7546771E-02  0.1249171E+00
          1   -1    0    0  501    0  0.00000000000E+00  0.00000000000E+00  0.23526826877E+03  0.23526826877E+03  0.00000000000E+00 0. -1.
         -1   -1    0    0    0  501 -0.00000000000E+00 -0.00000000000E+00 -0.48372508173E+02  0.48372508173E+02  0.00000000000E+00 0.  1.
          5    1    1    2  502    0  0.46113951715E+02 -0.17697513798E+02 -0.42000565664E+01  0.49793865210E+02  0.47000000000E+01 0. -1.
         -5    1    1    2    0  502 -0.52416045673E+02  0.41694991253E+02  0.96117441905E+02  0.11724575377E+03  0.47000000000E+01 0.  1.
        -11    1    1    2    0    0 -0.99297747686E+01 -0.37087327551E+02  0.85441796885E+02  0.93671612278E+02  0.00000000000E+00 0. -1.
         11    1    1    2    0    0  0.16231868727E+02  0.13089850097E+02  0.95365783692E+01  0.22929545676E+02  0.00000000000E+00 0.  1.
<mgrwt>
<rscale>  0 0.11639162E+03</rscale>
<asrwt>0</asrwt>
<pdfrwt beam="1">  1        1 0.36195118E-01 0.13947555E+03</pdfrwt>
<pdfrwt beam="2">  1       -1 0.74419245E-02 0.13947555E+03</pdfrwt>
<totfact> 0.10837356E+04</totfact>
</mgrwt>
</event>
<event>
 7    1  0.4230786E-006  0.1317802E+03  0.7546771E-02  0.1238240E+00
         -1   -1    0    0    0  501 -0.00000000000E+00  0.00000000000E+00  0.11339110412E+03  0.11339110412E+03  0.00000000000E+00 0.  1.
          1   -1    0    0  501    0  0.00000000000E+00 -0.00000000000E+00 -0.12451262684E+03  0.12451262684E+03  0.00000000000E+00 0. -1.
         23    2    1    2    0    0  0.28745554287E+02  0.30213485445E+02  0.19754614446E+02  0.13325264785E+03  0.12500744687E+03 0.  0.
          5    1    3    3  502    0  0.74729593507E+01  0.11240106036E+02  0.72079195899E+02  0.73482552941E+02  0.47000000000E+01 0.  1.
         -5    1    3    3    0  502  0.21272594936E+02  0.18973379410E+02 -0.52324581453E+02  0.59770094912E+02  0.47000000000E+01 0.  1.
        -11    1    1    2    0    0  0.23362211289E+02 -0.21883011885E+02 -0.39860159186E+02  0.51122318177E+02  0.00000000000E+00 0. -1.
         11    1    1    2    0    0 -0.52107765576E+02 -0.83304735606E+01  0.89840220226E+01  0.53528764928E+02  0.00000000000E+00 0.  1.
<mgrwt>
<rscale>  0 0.12299277E+03</rscale>
<asrwt>0</asrwt>
<pdfrwt beam="2">  1        1 0.19155789E-01 0.13178021E+03</pdfrwt>
<pdfrwt beam="1">  1       -1 0.17444785E-01 0.13178021E+03</pdfrwt>
<totfact> 0.64497984E+03</totfact>
</mgrwt>
</event>
<event>
 7    1  0.4230786E-006  0.1423084E+03  0.7546771E-02  0.1220534E+00
          2   -1    0    0  501    0  0.00000000000E+00  0.00000000000E+00  0.14256328563E+03  0.14256328563E+03  0.00000000000E+00 0. -1.
         -2   -1    0    0    0  501 -0.00000000000E+00 -0.00000000000E+00 -0.24646051250E+03  0.24646051250E+03  0.00000000000E+00 0.  1.
         23    2    1    2    0    0  0.61038570830E+02 -0.30028557027E+02 -0.19590832904E+03  0.24213996319E+03  0.12499706805E+03 0.  0.
          5    1    3    3  502    0  0.97992847635E+02 -0.34240408266E+02 -0.13129014865E+03  0.16743415684E+03  0.47000000000E+01 0.  1.
         -5    1    3    3    0  502 -0.36954276805E+02  0.42118512391E+01 -0.64618180391E+02  0.74705806348E+02  0.47000000000E+01 0.  1.
        -11    1    1    2    0    0 -0.28121137755E+02  0.59634885815E+02  0.34831176343E+02  0.74567612542E+02  0.00000000000E+00 0. -1.
         11    1    1    2    0    0 -0.32917433075E+02 -0.29606328788E+02  0.57179925826E+02  0.72316222399E+02  0.00000000000E+00 0.  1.
<mgrwt>
<rscale>  0 0.13477781E+03</rscale>
<asrwt>0</asrwt>
<pdfrwt beam="1">  1        2 0.21932813E-01 0.14230843E+03</pdfrwt>
<pdfrwt beam="2">  1       -2 0.37917002E-01 0.14230843E+03</pdfrwt>
<totfact> 0.16107586E+03</totfact>
</mgrwt>
</event>
<event>
 7    1  0.4230786E-006  0.1733002E+03  0.7546771E-02  0.1180847E+00
         -1   -1    0    0    0  501 -0.00000000000E+00  0.00000000000E+00  0.22205701208E+03  0.22205701208E+03  0.00000000000E+00 0.  1.
          1   -1    0    0  501    0  0.00000000000E+00 -0.00000000000E+00 -0.15183577908E+03  0.15183577908E+03  0.00000000000E+00 0. -1.
         23    2    1    2    0    0 -0.90742130604E+01 -0.11968877338E+03  0.12556781967E+03  0.21400990422E+03  0.12500087179E+03 0.  0.
          5    1    3    3  502    0 -0.16447826829E+02 -0.93161177977E+00  0.87253026608E+02  0.88918949388E+02  0.47000000000E+01 0.  1.
         -5    1    3    3    0  502  0.73736137686E+01 -0.11875716160E+03  0.38314793065E+02  0.12509095483E+03  0.47000000000E+01 0.  1.
        -11    1    1    2    0    0  0.65286208224E+01  0.10581152891E+03 -0.34137773941E+01  0.10606769733E+03  0.00000000000E+00 0.  1.
         11    1    1    2    0    0  0.25455922380E+01  0.13877244470E+02 -0.51932809278E+02  0.53815189617E+02  0.00000000000E+00 0. -1.
<mgrwt>
<rscale>  0 0.16715540E+03</rscale>
<asrwt>0</asrwt>
<pdfrwt beam="2">  1        1 0.23359351E-01 0.17330021E+03</pdfrwt>
<pdfrwt beam="1">  1       -1 0.34162617E-01 0.17330021E+03</pdfrwt>
<totfact> 0.16804989E+03</totfact>
</mgrwt>
</event>
<event>
 7    1  0.4230786E-006  0.1415710E+03  0.7546771E-02  0.1221811E+00
         -2   -1    0    0    0  501 -0.00000000000E+00  0.00000000000E+00  0.77847032583E+03  0.77847032583E+03  0.00000000000E+00 0.  1.
          2   -1    0    0  501    0  0.00000000000E+00 -0.00000000000E+00 -0.21736353927E+02  0.21736353927E+02  0.00000000000E+00 0. -1.
         23    2    1    2    0    0 -0.39420927267E+02 -0.53383763569E+02  0.49913391927E+03  0.51882271531E+03  0.12505400767E+03 0.  0.
          5    1    3    3  502    0 -0.71953903484E+02 -0.21982333172E+02  0.42668344013E+03  0.43329139765E+03  0.47000000000E+01 0. -1.
         -5    1    3    3    0  502  0.32532976217E+02 -0.31401430396E+02  0.72450479141E+02  0.85531317657E+02  0.47000000000E+01 0. -1.
        -11    1    1    2    0    0  0.17631961457E+02  0.49388095447E+02  0.25348500732E+03  0.25885269745E+03  0.00000000000E+00 0.  1.
         11    1    1    2    0    0  0.21788965810E+02  0.39956681215E+01  0.41150453086E+01  0.22531267001E+02  0.00000000000E+00 0. -1.
<mgrwt>
<rscale>  0 0.13387919E+03</rscale>
<asrwt>0</asrwt>
<pdfrwt beam="2">  1        2 0.33440551E-02 0.14157097E+03</pdfrwt>
<pdfrwt beam="1">  1       -2 0.11976464E+00 0.14157097E+03</pdfrwt>
<totfact> 0.14559028E+03</totfact>
</mgrwt>
</event>
<event>
 7    1  0.4230786E-006  0.1723868E+03  0.7546771E-02  0.1181298E+00
         -2   -1    0    0    0  501 -0.00000000000E+00  0.00000000000E+00  0.43372878521E+02  0.43372878521E+02  0.00000000000E+00 0.  1.
          2   -1    0    0  501    0  0.00000000000E+00 -0.00000000000E+00 -0.71596832351E+03  0.71596832351E+03  0.00000000000E+00 0. -1.
         23    2    1    2    0    0  0.97436009488E+02 -0.67800751305E+02 -0.20411878242E+03  0.26717351937E+03  0.12500597703E+03 0.  0.
          5    1    3    3  502    0  0.52243115243E+02 -0.10254837903E+03 -0.13589379343E+03  0.17814243241E+03  0.47000000000E+01 0.  1.
         -5    1    3    3    0  502  0.45192894245E+02  0.34747627726E+02 -0.68224988994E+02  0.89031086964E+02  0.47000000000E+01 0.  1.
        -11    1    1    2    0    0 -0.52088733761E+02  0.57116325345E+02 -0.41087462812E+03  0.41808309083E+03  0.00000000000E+00 0. -1.
         11    1    1    2    0    0 -0.45347275727E+02  0.10684425960E+02 -0.57602034450E+02  0.74084591831E+02  0.00000000000E+00 0.  1.
<mgrwt>
<rscale>  0 0.16673291E+03</rscale>
<asrwt>0</asrwt>
<pdfrwt beam="2">  1        2 0.11014898E+00 0.17238681E+03</pdfrwt>
<pdfrwt beam="1">  1       -2 0.66727503E-02 0.17238681E+03</pdfrwt>
<totfact> 0.50183435E+03</totfact>
</mgrwt>
</event>
<event>
 7    1  0.4230786E-006  0.1336185E+03  0.7546771E-02  0.1234520E+00
         -2   -1    0    0    0  501 -0.00000000000E+00  0.00000000000E+00  0.54635115915E+02  0.54635115915E+02  0.00000000000E+00 0.  1.
          2   -1    0    0  501    0  0.00000000000E+00 -0.00000000000E+00 -0.26466091492E+03  0.26466091492E+03  0.00000000000E+00 0. -1.
         23    2    1    2    0    0 -0.42292184739E+02  0.20830913756E+02 -0.14444866016E+03  0.19677227599E+03  0.12502542669E+03 0.  0.
          5    1    3    3  502    0 -0.29005155443E+02 -0.51305450920E+02 -0.52600454685E+02  0.79135618842E+02  0.47000000000E+01 0.  1.
         -5    1    3    3    0  502 -0.13287029296E+02  0.72136364676E+02 -0.91848205479E+02  0.11763665715E+03  0.47000000000E+01 0.  1.
        -11    1    1    2    0    0  0.60133228026E+02 -0.26941048364E+01 -0.74305349882E+02  0.95627131792E+02  0.00000000000E+00 0. -1.
         11    1    1    2    0    0 -0.17841043288E+02 -0.18136808919E+02  0.87282110432E+01  0.26896623048E+02  0.00000000000E+00 0.  1.
<mgrwt>
<rscale>  0 0.12535232E+03</rscale>
<asrwt>0</asrwt>
<pdfrwt beam="2">  1        2 0.40717063E-01 0.13361854E+03</pdfrwt>
<pdfrwt beam="1">  1       -2 0.84054025E-02 0.13361854E+03</pdfrwt>
<totfact> 0.10341460E+04</totfact>
</mgrwt>
</event>
<event>
 7    1  0.4230786E-006  0.1579596E+03  0.7546771E-02  0.1198603E+00
          2   -1    0    0  501    0  0.00000000000E+00  0.00000000000E+00  0.54628429913E+02  0.54628429913E+02  0.00000000000E+00 0. -1.
         -2   -1    0    0    0  501 -0.00000000000E+00 -0.00000000000E+00 -0.40741002979E+03  0.40741002979E+03  0.00000000000E+00 0.  1.
         23    2    1    2    0    0  0.67544708454E+02 -0.68996339326E+02 -0.23864882875E+03  0.28618959270E+03  0.12501374734E+03 0.  0.
          5    1    3    3  502    0  0.70642899901E+01  0.35733560720E+02 -0.49601863089E+02  0.61718930457E+02  0.47000000000E+01 0.  1.
         -5    1    3    3    0  502  0.60480418464E+02 -0.10472990005E+03 -0.18904696566E+03  0.22447066224E+03  0.47000000000E+01 0.  1.
        -11    1    1    2    0    0 -0.64663804533E+02  0.11154526374E+02 -0.93791512679E+02  0.11446693377E+03  0.00000000000E+00 0.  1.
         11    1    1    2    0    0 -0.28809039208E+01  0.57841812952E+02 -0.20341258449E+02  0.61381933239E+02  0.00000000000E+00 0. -1.
<mgrwt>
<rscale>  0 0.15153241E+03</rscale>
<asrwt>0</asrwt>
<pdfrwt beam="1">  1        2 0.84043738E-02 0.15795955E+03</pdfrwt>
<pdfrwt beam="2">  1       -2 0.62678466E-01 0.15795955E+03</pdfrwt>
<totfact> 0.18757836E+03</totfact>
</mgrwt>
</event>
<event>
 7    1  0.4230786E-006  0.1693928E+03  0.7546771E-02  0.1183630E+00
         -3   -1    0    0    0  501 -0.00000000000E+00  0.00000000000E+00  0.14971678493E+03  0.14971678493E+03  0.00000000000E+00 0.  1.
          3   -1    0    0  501    0  0.00000000000E+00 -0.00000000000E+00 -0.19949288586E+03  0.19949288586E+03  0.00000000000E+00 0. -1.
         23    2    1    2    0    0 -0.57857353020E+02  0.98608973026E+02  0.39401344476E+02  0.17391488449E+03  0.12499087263E+03 0.  0.
          5    1    3    3  502    0  0.28049814327E+02  0.27566501411E+02  0.47735785534E+02  0.62028213776E+02  0.47000000000E+01 0.  1.
         -5    1    3    3    0  502 -0.85907167347E+02  0.71042471616E+02 -0.83344410576E+01  0.11188667071E+03  0.47000000000E+01 0.  1.
        -11    1    1    2    0    0  0.56715279434E+02 -0.70304550922E+02 -0.10836879945E+03  0.14107852245E+03  0.00000000000E+00 0. -1.
         11    1    1    2    0    0  0.11420735862E+01 -0.28304422104E+02  0.19191354035E+02  0.34216263858E+02  0.00000000000E+00 0.  1.
<mgrwt>
<rscale>  0 0.16457166E+03</rscale>
<asrwt>0</asrwt>
<pdfrwt beam="2">  1        3 0.30691213E-01 0.16939280E+03</pdfrwt>
<pdfrwt beam="1">  1       -3 0.23033352E-01 0.16939280E+03</pdfrwt>
<totfact> 0.42901941E+02</totfact>
</mgrwt>
</event>
<event>
 7    1  0.4230786E-006  0.1285472E+03  0.7546771E-02  0.1243171E+00
         -1   -1    0    0    0  501 -0.00000000000E+00  0.00000000000E+00  0.32687769273E+02  0.32687769273E+02  0.00000000000E+00 0.  1.
          1   -1    0    0  501    0  0.00000000000E+00 -0.00000000000E+00 -0.45976997034E+03  0.45976997034E+03  0.00000000000E+00 0. -1.
         23    2    1    2    0    0  0.18381826546E+02  0.23695683593E+02 -0.14382814397E+03  0.19290128403E+03  0.12499997365E+03 0.  0.
          5    1    3    3  502    0 -0.12503212792E+02  0.36229088520E+01 -0.15382450859E+03  0.15444586508E+03  0.47000000000E+01 0.  1.
         -5    1    3    3    0  502  0.30885039337E+02  0.20072774741E+02  0.99963646138E+01  0.38455418944E+02  0.47000000000E+01 0.  1.
        -11    1    1    2    0    0  0.31157508220E+02 -0.11316649847E+01 -0.18148077814E+03  0.18413946839E+03  0.00000000000E+00 0.  1.
         11    1    1    2    0    0 -0.49539334765E+02 -0.22564018609E+02 -0.10177327895E+03  0.11541698719E+03  0.00000000000E+00 0. -1.
<mgrwt>
<rscale>  0 0.11995523E+03</rscale>
<asrwt>0</asrwt>
<pdfrwt beam="2">  1        1 0.70733842E-01 0.12854715E+03</pdfrwt>
<pdfrwt beam="1">  1       -1 0.50288876E-02 0.12854715E+03</pdfrwt>
<totfact> 0.83740429E+03</totfact>
</mgrwt>
</event>
<event>
 7    1  0.4230786E-006  0.1251034E+03  0.7546771E-02  0.1250937E+00
          2   -1    0    0  501    0  0.00000000000E+00  0.00000000000E+00  0.41033388882E+03  0.41033388882E+03  0.00000000000E+00 0. -1.
         -2   -1    0    0    0  501 -0.00000000000E+00 -0.00000000000E+00 -0.29613662790E+02  0.29613662790E+02  0.00000000000E+00 0.  1.
         23    2    1    2    0    0 -0.49272497281E+01 -0.78894877920E+00  0.17412197945E+03  0.21440457356E+03  0.12500382876E+03 0.  0.
          5    1    3    3  502    0  0.57184442014E+02 -0.12720946848E+02  0.10687516634E+03  0.12196833227E+03  0.47000000000E+01 0. -1.
         -5    1    3    3    0  502 -0.62111691742E+02  0.11931998069E+02  0.67246813114E+02  0.92436241285E+02  0.47000000000E+01 0. -1.
        -11    1    1    2    0    0  0.41896851634E+02 -0.15627254113E+02  0.14591909673E+03  0.15261697165E+03  0.00000000000E+00 0.  1.
         11    1    1    2    0    0 -0.36969601906E+02  0.16416202892E+02  0.60679149846E+02  0.72926006393E+02  0.00000000000E+00 0. -1.
<mgrwt>
<rscale>  0 0.11536952E+03</rscale>
<asrwt>0</asrwt>
<pdfrwt beam="1">  1        2 0.63128287E-01 0.12510339E+03</pdfrwt>
<pdfrwt beam="2">  1       -2 0.45559484E-02 0.12510339E+03</pdfrwt>
<totfact> 0.16370555E+04</totfact>
</mgrwt>
</event>
<event>
 7    1  0.4230786E-006  0.1324614E+03  0.7546771E-02  0.1236778E+00
         -1   -1    0    0    0  501 -0.00000000000E+00  0.00000000000E+00  0.96844606393E+02  0.96844606393E+02  0.00000000000E+00 0.  1.
          1   -1    0    0  501    0  0.00000000000E+00 -0.00000000000E+00 -0.14249405319E+03  0.14249405319E+03  0.00000000000E+00 0. -1.
         23    2    1    2    0    0 -0.99329567584E+01 -0.42686443825E+02 -0.37011106416E+02  0.13753486431E+03  0.12500088314E+03 0.  0.
          5    1    3    3  502    0 -0.56330038819E+02 -0.55689736167E+02 -0.50255818178E+01  0.79509536914E+02  0.47000000000E+01 0.  1.
         -5    1    3    3    0  502  0.46397082061E+02  0.13003292342E+02 -0.31985524598E+02  0.58025327395E+02  0.47000000000E+01 0.  1.
        -11    1    1    2    0    0 -0.23018278819E+02  0.59938589027E+02 -0.41660452746E+01  0.64341522732E+02  0.00000000000E+00 0.  1.
         11    1    1    2    0    0  0.32951235577E+02 -0.17252145201E+02 -0.44722951016E+01  0.37462272537E+02  0.00000000000E+00 0. -1.
<mgrwt>
<rscale>  0 0.12391266E+03</rscale>
<asrwt>0</asrwt>
<pdfrwt beam="2">  1        1 0.21922162E-01 0.13246138E+03</pdfrwt>
<pdfrwt beam="1">  1       -1 0.14899170E-01 0.13246138E+03</pdfrwt>
<totfact> 0.69709387E+03</totfact>
</mgrwt>
</event>
<event>
 7    1  0.4230786E-006  0.1286157E+03  0.7546771E-02  0.1241869E+00
          1   -1    0    0  501    0  0.00000000000E+00  0.00000000000E+00  0.66415232411E+03  0.66415232411E+03  0.00000000000E+00 0. -1.
         -1   -1    0    0    0  501 -0.00000000000E+00 -0.00000000000E+00 -0.20509409825E+02  0.20509409825E+02  0.00000000000E+00 0.  1.
         23    2    1    2    0    0 -0.25546992186E+02 -0.16232664453E+02  0.29137852849E+03  0.31850187109E+03  0.12500338722E+03 0.  0.
          5    1    3    3  502    0  0.30868823842E+02 -0.27020252124E+02  0.30504228440E+02  0.51337863833E+02  0.47000000000E+01 0.  1.
         -5    1    3    3    0  502 -0.56415816028E+02  0.10787587671E+02  0.26087430005E+03  0.26716400726E+03  0.47000000000E+01 0.  1.
        -11    1    1    2    0    0 -0.23774336346E+02 -0.15966856413E+02  0.45285108195E+02  0.53580785704E+02  0.00000000000E+00 0. -1.
         11    1    1    2    0    0  0.49321328532E+02  0.32199520865E+02  0.30697927760E+03  0.31257907714E+03  0.00000000000E+00 0.  1.
<mgrwt>
<rscale>  0 0.12074725E+03</rscale>
<asrwt>0</asrwt>
<pdfrwt beam="1">  1        1 0.10217726E+00 0.12861569E+03</pdfrwt>
<pdfrwt beam="2">  1       -1 0.31552943E-02 0.12861569E+03</pdfrwt>
<totfact> 0.10155952E+04</totfact>
</mgrwt>
</event>
<event>
 7    1  0.4230786E-006  0.1277567E+03  0.7546771E-02  0.1261422E+00
         -3   -1    0    0    0  501 -0.00000000000E+00  0.00000000000E+00  0.66674755416E+02  0.66674755416E+02  0.00000000000E+00 0.  1.
          3   -1    0    0  501    0  0.00000000000E+00 -0.00000000000E+00 -0.14524226315E+03  0.14524226315E+03  0.00000000000E+00 0. -1.
         23    2    1    2    0    0 -0.25578388716E+02 -0.64323330201E+01 -0.51953951029E+02  0.13791658704E+03  0.12500457222E+03 0.  0.
          5    1    3    3  502    0  0.48885328502E+01  0.20666370931E+02  0.35315905498E+02  0.41476497225E+02  0.47000000000E+01 0. -1.
         -5    1    3    3    0  502 -0.30466921566E+02 -0.27098703951E+02 -0.87269856527E+02  0.96440089816E+02  0.47000000000E+01 0. -1.
        -11    1    1    2    0    0  0.45233583958E+02  0.11064540938E+02 -0.94906727631E+01  0.47524457423E+02  0.00000000000E+00 0.  1.
         11    1    1    2    0    0 -0.19655195243E+02 -0.46322079183E+01 -0.17122883942E+02  0.26475974103E+02  0.00000000000E+00 0. -1.
<mgrwt>
<rscale>  0 0.10954115E+03</rscale>
<asrwt>0</asrwt>
<pdfrwt beam="2">  1        3 0.22344964E-01 0.12775669E+03</pdfrwt>
<pdfrwt beam="1">  1       -3 0.10257655E-01 0.12775669E+03</pdfrwt>
<totfact> 0.29413606E+03</totfact>
</mgrwt>
</event>
<event>
 7    1  0.4230786E-006  0.3556661E+03  0.7546771E-02  0.1061378E+00
         -2   -1    0    0    0  501 -0.00000000000E+00  0.00000000000E+00  0.52744429370E+02  0.52744429370E+02  0.00000000000E+00 0.  1.
          2   -1    0    0  501    0  0.00000000000E+00 -0.00000000000E+00 -0.23468123277E+04  0.23468123277E+04  0.00000000000E+00 0. -1.
         23    2    1    2    0    0  0.26582649924E+03 -0.20070648032E+03 -0.12697635646E+04  0.13186348669E+04  0.12470598732E+03 0.  0.
          5    1    3    3  502    0  0.21211656970E+03 -0.15809799877E+03 -0.11545710765E+04  0.11845019532E+04  0.47000000000E+01 0.  1.
         -5    1    3    3    0  502  0.53709929539E+02 -0.42608481552E+02 -0.11519248806E+03  0.13413291369E+03  0.47000000000E+01 0.  1.
        -11    1    1    2    0    0 -0.47592259740E+02  0.56612030126E+02 -0.13461271744E+03  0.15359208586E+03  0.00000000000E+00 0.  1.
         11    1    1    2    0    0 -0.21823423950E+03  0.14409445020E+03 -0.88969161636E+03  0.92732980438E+03  0.00000000000E+00 0. -1.
<mgrwt>
<rscale>  0 0.35303123E+03</rscale>
<asrwt>0</asrwt>
<pdfrwt beam="2">  1        2 0.36104809E+00 0.35566614E+03</pdfrwt>
<pdfrwt beam="1">  1       -2 0.81145268E-02 0.35566614E+03</pdfrwt>
<totfact> 0.44277995E+02</totfact>
</mgrwt>
</event>
<event>
 7    1  0.4230786E-006  0.1452287E+03  0.7546771E-02  0.1215347E+00
         -2   -1    0    0    0  501 -0.00000000000E+00  0.00000000000E+00  0.63639933851E+02  0.63639933851E+02  0.00000000000E+00 0.  1.
          2   -1    0    0  501    0  0.00000000000E+00 -0.00000000000E+00 -0.33268206331E+03  0.33268206331E+03  0.00000000000E+00 0. -1.
         23    2    1    2    0    0 -0.48986596137E+02  0.55377422510E+02 -0.64092575254E+02  0.15874263887E+03  0.12500008667E+03 0.  0.
          5    1    3    3  502    0  0.33789995642E+02  0.50927342763E+02 -0.18550773193E+02  0.64043572921E+02  0.47000000000E+01 0.  1.
         -5    1    3    3    0  502 -0.82776591778E+02  0.44500797463E+01 -0.45541802061E+02  0.94699065946E+02  0.47000000000E+01 0.  1.
        -11    1    1    2    0    0  0.37330975755E+02 -0.50020678383E+02 -0.21331915390E+03  0.22226275314E+03  0.00000000000E+00 0. -1.
         11    1    1    2    0    0  0.11655620382E+02 -0.53567441262E+01  0.83695996950E+01  0.15316605145E+02  0.00000000000E+00 0.  1.
<mgrwt>
<rscale>  0 0.13851085E+03</rscale>
<asrwt>0</asrwt>
<pdfrwt beam="2">  1        2 0.51181857E-01 0.14522867E+03</pdfrwt>
<pdfrwt beam="1">  1       -2 0.97907589E-02 0.14522867E+03</pdfrwt>
<totfact> 0.64312868E+03</totfact>
</mgrwt>
</event>
<event>
 6    1  0.4230786E-006  0.1403606E+03  0.7546771E-02  0.1232309E+00
         -4   -1    0    0    0  501 -0.00000000000E+00  0.00000000000E+00  0.86387694270E+02  0.86387694270E+02  0.00000000000E+00 0.  1.
          4   -1    0    0  501    0  0.00000000000E+00 -0.00000000000E+00 -0.16031650672E+03  0.16031650672E+03  0.00000000000E+00 0. -1.
          5    1    1    2  502    0 -0.50667849509E+02  0.17859274576E+02  0.16734249405E+02  0.56465119901E+02  0.47000000000E+01 0. -1.
         -5    1    1    2    0  502  0.56051710183E+02 -0.47041255375E+02 -0.47076750432E+02  0.87137732085E+02  0.47000000000E+01 0.  1.
        -11    1    1    2    0    0 -0.45583647669E+02  0.23108724979E+02 -0.14537626838E+02  0.53134025812E+02  0.00000000000E+00 0. -1.
         11    1    1    2    0    0  0.40199786995E+02  0.60732558204E+01 -0.29048684583E+02  0.49967323189E+02  0.00000000000E+00 0.  1.
<mgrwt>
<rscale>  0 0.12678316E+03</rscale>
<asrwt>0</asrwt>
<pdfrwt beam="2">  1        4 0.24664078E-01 0.14036065E+03</pdfrwt>
<pdfrwt beam="1">  1       -4 0.13290415E-01 0.14036065E+03</pdfrwt>
<totfact> 0.11880781E+03</totfact>
</mgrwt>
</event>
<event>
 7    1  0.4230786E-006  0.1395276E+03  0.7546771E-02  0.1224909E+00
          2   -1    0    0  501    0  0.00000000000E+00  0.00000000000E+00  0.10147710540E+03  0.10147710540E+03  0.00000000000E+00 0.  1.
         -2   -1    0    0    0  501 -0.00000000000E+00 -0.00000000000E+00 -0.16848647259E+03  0.16848647259E+03  0.00000000000E+00 0. -1.
         23    2    1    2    0    0  0.15262267886E+01 -0.61968817789E+02 -0.75740328960E+02  0.15875938279E+03  0.12500192177E+03 0.  0.
          5    1    3    3  502    0  0.47429408233E+02 -0.38110364330E+02 -0.86353394829E+02  0.10573999921E+03  0.47000000000E+01 0. -1.
         -5    1    3    3    0  502 -0.45903181445E+02 -0.23858453459E+02  0.10613065869E+02  0.53019383581E+02  0.47000000000E+01 0. -1.
        -11    1    1    2    0    0 -0.70251585920E+01 -0.22354770879E+02 -0.85662677667E+01  0.24949340226E+02  0.00000000000E+00 0.  1.
         11    1    1    2    0    0  0.54989318034E+01  0.84323588668E+02  0.17297229543E+02  0.86254854974E+02  0.00000000000E+00 0. -1.
<mgrwt>
<rscale>  0 0.13173150E+03</rscale>
<asrwt>0</asrwt>
<pdfrwt beam="1">  1        2 0.15611862E-01 0.13952758E+03</pdfrwt>
<pdfrwt beam="2">  1       -2 0.25920996E-01 0.13952758E+03</pdfrwt>
<totfact> 0.47309178E+03</totfact>
</mgrwt>
</event>
<event>
 7    1  0.4230786E-006  0.3564664E+03  0.7546771E-02  0.1061065E+00
          2   -1    0    0  501    0  0.00000000000E+00  0.00000000000E+00  0.65631721614E+03  0.65631721614E+03  0.00000000000E+00 0. -1.
         -2   -1    0    0    0  501 -0.00000000000E+00 -0.00000000000E+00 -0.25191847326E+03  0.25191847326E+03  0.00000000000E+00 0.  1.
         23    2    1    2    0    0  0.33380695158E+03  0.38046009786E+01 -0.24389496687E+02  0.35729976265E+03  0.12500686751E+03 0.  0.
          5    1    3    3  502    0  0.22796368993E+03  0.42465296405E+02 -0.59015021822E+02  0.23932322939E+03  0.47000000000E+01 0. -1.
         -5    1    3    3    0  502  0.10584326165E+03 -0.38660695427E+02  0.34625525135E+02  0.11797653326E+03  0.47000000000E+01 0. -1.
        -11    1    1    2    0    0 -0.14534206520E+03 -0.32399587834E+02  0.13664887391E+03  0.20210631843E+03  0.00000000000E+00 0. -1.
         11    1    1    2    0    0 -0.18846488638E+03  0.28594986856E+02  0.29213936566E+03  0.34882960832E+03  0.00000000000E+00 0.  1.
<mgrwt>
<rscale>  0 0.35380385E+03</rscale>
<asrwt>0</asrwt>
<pdfrwt beam="1">  1        2 0.10097188E+00 0.35646637E+03</pdfrwt>
<pdfrwt beam="2">  1       -2 0.38756688E-01 0.35646637E+03</pdfrwt>
<totfact> 0.28752282E+02</totfact>
</mgrwt>
</event>
<event>
 7    1  0.4230786E-006  0.1357622E+03  0.7546771E-02  0.1231278E+00
         -2   -1    0    0    0  501 -0.00000000000E+00  0.00000000000E+00  0.12517351533E+03  0.12517351533E+03  0.00000000000E+00 0.  1.
          2   -1    0    0  501    0  0.00000000000E+00 -0.00000000000E+00 -0.12734855503E+03  0.12734855503E+03  0.00000000000E+00 0. -1.
         23    2    1    2    0    0 -0.52917060534E+02 -0.25157434337E+01  0.35836568058E+02  0.14041239112E+03  0.12499934284E+03 0.  0.
          5    1    3    3  502    0 -0.75773126645E+02  0.22071874178E+02  0.59604259964E+02  0.99012585852E+02  0.47000000000E+01 0. -1.
         -5    1    3    3    0  502  0.22856066111E+02 -0.24587617612E+02 -0.23767691906E+02  0.41399805270E+02  0.47000000000E+01 0. -1.
        -11    1    1    2    0    0  0.31463067999E+02 -0.43910744442E+02 -0.23786798916E+02  0.59024485835E+02  0.00000000000E+00 0. -1.
         11    1    1    2    0    0  0.21453992535E+02  0.46426487876E+02 -0.14224808847E+02  0.53085193405E+02  0.00000000000E+00 0.  1.
<mgrwt>
<rscale>  0 0.12745748E+03</rscale>
<asrwt>0</asrwt>
<pdfrwt beam="2">  1        2 0.19592085E-01 0.13576222E+03</pdfrwt>
<pdfrwt beam="1">  1       -2 0.19257464E-01 0.13576222E+03</pdfrwt>
<totfact> 0.60622542E+03</totfact>
</mgrwt>
</event>
<event>
 6    1  0.4230786E-006  0.1348080E+03  0.7546771E-02  0.1239575E+00
         -1   -1    0    0    0  501 -0.00000000000E+00  0.00000000000E+00  0.52866541196E+02  0.52866541196E+02  0.00000000000E+00 0.  1.
          1   -1    0    0  501    0  0.00000000000E+00 -0.00000000000E+00 -0.24162069607E+03  0.24162069607E+03  0.00000000000E+00 0. -1.
          5    1    1    2  502    0 -0.52458851923E+02 -0.40145974337E+02 -0.84587295793E+02  0.10742779440E+03  0.47000000000E+01 0. -1.
         -5    1    1    2    0  502  0.53205790261E+02  0.27410217806E+02 -0.20289672926E+02  0.63371420884E+02  0.47000000000E+01 0.  1.
        -11    1    1    2    0    0  0.33386224512E+02  0.47890948307E+01 -0.10418309234E+01  0.33744048781E+02  0.00000000000E+00 0.  1.
         11    1    1    2    0    0 -0.34133162850E+02  0.79466617003E+01 -0.82835355227E+02  0.89943973194E+02  0.00000000000E+00 0. -1.
<mgrwt>
<rscale>  0 0.12216061E+03</rscale>
<asrwt>0</asrwt>
<pdfrwt beam="2">  1        1 0.37172415E-01 0.13480799E+03</pdfrwt>
<pdfrwt beam="1">  1       -1 0.81333140E-02 0.13480799E+03</pdfrwt>
<totfact> 0.91484276E+03</totfact>
</mgrwt>
</event>
<event>
 7    1  0.4230786E-006  0.1403355E+03  0.7546771E-02  0.1224235E+00
         -2   -1    0    0    0  501 -0.00000000000E+00  0.00000000000E+00  0.15565464450E+03  0.15565464450E+03  0.00000000000E+00 0.  1.
          2   -1    0    0  501    0  0.00000000000E+00 -0.00000000000E+00 -0.15689235791E+03  0.15689235791E+03  0.00000000000E+00 0. -1.
         23    2    1    2    0    0 -0.60951640514E+02  0.18794146329E+02  0.92137373750E+02  0.16787897402E+03  0.12500292740E+03 0.  0.
          5    1    3    3  502    0 -0.51743563521E+02  0.40437529599E+02  0.11642020060E+03  0.13374731128E+03  0.47000000000E+01 0. -1.
         -5    1    3    3    0  502 -0.92080769932E+01 -0.21643383270E+02 -0.24282826852E+02  0.34131662737E+02  0.47000000000E+01 0. -1.
        -11    1    1    2    0    0 -0.15243611025E+02 -0.25214466156E+02 -0.46280269844E+02  0.54863470155E+02  0.00000000000E+00 0. -1.
         11    1    1    2    0    0  0.76195251540E+02  0.64203198266E+01 -0.47094817317E+02  0.89804558247E+02  0.00000000000E+00 0.  1.
<mgrwt>
<rscale>  0 0.13219494E+03</rscale>
<asrwt>0</asrwt>
<pdfrwt beam="2">  1        2 0.24137286E-01 0.14033551E+03</pdfrwt>
<pdfrwt beam="1">  1       -2 0.23946868E-01 0.14033551E+03</pdfrwt>
<totfact> 0.33125586E+03</totfact>
</mgrwt>
</event>
<event>
 7    1  0.4230786E-006  0.1259225E+03  0.7546771E-02  0.1248756E+00
          3   -1    0    0  501    0  0.00000000000E+00  0.00000000000E+00  0.55756642783E+02  0.55756642783E+02  0.00000000000E+00 0. -1.
         -3   -1    0    0    0  501 -0.00000000000E+00 -0.00000000000E+00 -0.24030990223E+03  0.24030990223E+03  0.00000000000E+00 0.  1.
         23    2    1    2    0    0 -0.45357547965E+01  0.14487981426E+02 -0.15301513806E+03  0.19816685799E+03  0.12500398576E+03 0.  0.
          5    1    3    3  502    0 -0.61210488954E+02  0.22206069307E+02 -0.10349592965E+03  0.12236556266E+03  0.47000000000E+01 0.  1.
         -5    1    3    3    0  502  0.56674734157E+02 -0.77180878802E+01 -0.49519208410E+02  0.75801295331E+02  0.47000000000E+01 0.  1.
        -11    1    1    2    0    0 -0.30845068260E+02 -0.30429056751E+02 -0.39101527436E+02  0.58363303355E+02  0.00000000000E+00 0.  1.
         11    1    1    2    0    0  0.35380823057E+02  0.15941075325E+02  0.75634060416E+01  0.39536383669E+02  0.00000000000E+00 0. -1.
<mgrwt>
<rscale>  0 0.11663387E+03</rscale>
<asrwt>0</asrwt>
<pdfrwt beam="1">  1        3 0.85779451E-02 0.12592248E+03</pdfrwt>
<pdfrwt beam="2">  1       -3 0.36970754E-01 0.12592248E+03</pdfrwt>
<totfact> 0.15599604E+03</totfact>
</mgrwt>
</event>
<event>
 7    1  0.4230786E-006  0.1856499E+03  0.7546771E-02  0.1167876E+00
          1   -1    0    0  501    0  0.00000000000E+00  0.00000000000E+00  0.71406131317E+03  0.71406131317E+03  0.00000000000E+00 0. -1.
         -1   -1    0    0    0  501 -0.00000000000E+00 -0.00000000000E+00 -0.43107472172E+02  0.43107472172E+02  0.00000000000E+00 0.  1.
         23    2    1    2    0    0 -0.68538644323E+02  0.11893322549E+03  0.32192518135E+03  0.37162035682E+03  0.12499283711E+03 0.  0.
          5    1    3    3  502    0 -0.90246571833E+02  0.51150045284E+02  0.24815403329E+03  0.26900424736E+03  0.47000000000E+01 0.  1.
         -5    1    3    3    0  502  0.21707927510E+02  0.67783180202E+02  0.73771148060E+02  0.10261610946E+03  0.47000000000E+01 0.  1.
        -11    1    1    2    0    0  0.39596332283E+02 -0.11876371580E+03  0.32378125629E+03  0.34714116962E+03  0.00000000000E+00 0. -1.
         11    1    1    2    0    0  0.28942312040E+02 -0.16950968358E+00  0.25247403359E+02  0.38407258899E+02  0.00000000000E+00 0.  1.
<mgrwt>
<rscale>  0 0.17992505E+03</rscale>
<asrwt>0</asrwt>
<pdfrwt beam="1">  1        1 0.10985558E+00 0.18564985E+03</pdfrwt>
<pdfrwt beam="2">  1       -1 0.66319193E-02 0.18564985E+03</pdfrwt>
<totfact> 0.31032072E+03</totfact>
</mgrwt>
</event>
<event>
 7    1  0.4230786E-006  0.1809672E+03  0.7546771E-02  0.1172503E+00
          2   -1    0    0  501    0  0.00000000000E+00  0.00000000000E+00  0.36180782814E+03  0.36180782814E+03  0.00000000000E+00 0. -1.
         -2   -1    0    0    0  501 -0.00000000000E+00 -0.00000000000E+00 -0.96534600847E+02  0.96534600847E+02  0.00000000000E+00 0.  1.
         23    2    1    2    0    0  0.10528799871E+03 -0.77685387436E+02  0.44731225255E+02  0.18641357997E+03  0.12501423195E+03 0.  0.
          5    1    3    3  502    0 -0.23402905658E+02 -0.39581217280E+02  0.17243470260E+02  0.49333518233E+02  0.47000000000E+01 0. -1.
         -5    1    3    3    0  502  0.12869090437E+03 -0.38104170156E+02  0.27487754995E+02  0.13708006173E+03  0.47000000000E+01 0. -1.
        -11    1    1    2    0    0 -0.77691940365E+02  0.29648976015E+02  0.61253283856E+02  0.10328148024E+03  0.00000000000E+00 0.  1.
         11    1    1    2    0    0 -0.27596058344E+02  0.48036411422E+02  0.15928871818E+03  0.16864736879E+03  0.00000000000E+00 0. -1.
<mgrwt>
<rscale>  0 0.17522821E+03</rscale>
<asrwt>0</asrwt>
<pdfrwt beam="1">  1        2 0.55662742E-01 0.18096724E+03</pdfrwt>
<pdfrwt beam="2">  1       -2 0.14851477E-01 0.18096724E+03</pdfrwt>
<totfact> 0.30452084E+03</totfact>
</mgrwt>
</event>
<event>
 7    1  0.4230786E-006  0.1416646E+03  0.7546771E-02  0.1221802E+00
         -2   -1    0    0    0  501 -0.00000000000E+00  0.00000000000E+00  0.31119226401E+02  0.31119226401E+02  0.00000000000E+00 0.  1.
          2   -1    0    0  501    0  0.00000000000E+00 -0.00000000000E+00 -0.52145668137E+03  0.52145668137E+03  0.00000000000E+00 0. -1.
         23    2    1    2    0    0 -0.35896624325E+02  0.56152467213E+02 -0.26544162990E+03  0.30087889814E+03  0.12500874069E+03 0.  0.
          5    1    3    3  502    0  0.19918043558E+02 -0.26950147668E+01 -0.18636816651E+03  0.18750779998E+03  0.47000000000E+01 0. -1.
         -5    1    3    3    0  502 -0.55814667882E+02  0.58847481980E+02 -0.79073463387E+02  0.11337109816E+03  0.47000000000E+01 0. -1.
        -11    1    1    2    0    0 -0.15488229815E+02  0.71513143642E+01 -0.59578455549E+01  0.18069933138E+02  0.00000000000E+00 0.  1.
         11    1    1    2    0    0  0.51384854140E+02 -0.63303781577E+02 -0.21893797952E+03  0.23362707650E+03  0.00000000000E+00 0. -1.
<mgrwt>
<rscale>  0 0.13388553E+03</rscale>
<asrwt>0</asrwt>
<pdfrwt beam="2">  1        2 0.80224102E-01 0.14166458E+03</pdfrwt>
<pdfrwt beam="1">  1       -2 0.47875735E-02 0.14166458E+03</pdfrwt>
<totfact> 0.11832939E+04</totfact>
</mgrwt>
</event>
<event>
 7    1  0.4230786E-006  0.1261462E+03  0.7546771E-02  0.1248423E+00
         -2   -1    0    0    0  501 -0.00000000000E+00  0.00000000000E+00  0.37270564314E+02  0.37270564314E+02  0.00000000000E+00 0.  1.
          2   -1    0    0  501    0  0.00000000000E+00 -0.00000000000E+00 -0.35887194896E+03  0.35887194896E+03  0.00000000000E+00 0. -1.
         23    2    1    2    0    0  0.15578445517E+02 -0.67318642573E+01 -0.11954465805E+03  0.17379240951E+03  0.12499948149E+03 0.  0.
          5    1    3    3  502    0  0.13160255242E+02  0.42316924378E+02 -0.11607721165E+03  0.12433794059E+03  0.47000000000E+01 0. -1.
         -5    1    3    3    0  502  0.24181902755E+01 -0.49048788636E+02 -0.34674463965E+01  0.49454468912E+02  0.47000000000E+01 0. -1.
        -11    1    1    2    0    0 -0.17788666725E+01 -0.34609254205E+02 -0.15235129072E+03  0.15624301786E+03  0.00000000000E+00 0. -1.
         11    1    1    2    0    0 -0.13799578845E+02  0.41341118463E+02 -0.49705435871E+02  0.66107085907E+02  0.00000000000E+00 0.  1.
<mgrwt>
<rscale>  0 0.11682824E+03</rscale>
<asrwt>0</asrwt>
<pdfrwt beam="2">  1        2 0.55211070E-01 0.12614625E+03</pdfrwt>
<pdfrwt beam="1">  1       -2 0.57339328E-02 0.12614625E+03</pdfrwt>
<totfact> 0.13378774E+04</totfact>
</mgrwt>
</event>
<event>
 7    1  0.4230786E-006  0.1365608E+03  0.7546771E-02  0.1230029E+00
          1   -1    0    0  501    0  0.00000000000E+00  0.00000000000E+00  0.18006799811E+03  0.18006799811E+03  0.00000000000E+00 0. -1.
         -1   -1    0    0    0  501 -0.00000000000E+00 -0.00000000000E+00 -0.81913042886E+02  0.81913042886E+02  0.00000000000E+00 0.  1.
         23    2    1    2    0    0 -0.54112571842E+02  0.96100505000E+01  0.55821016493E+02  0.14752907368E+03  0.12501327209E+03 0.  0.
          5    1    3    3  502    0  0.31065378627E+02 -0.10633879021E+02  0.49551381726E+02  0.59628571703E+02  0.47000000000E+01 0.  1.
         -5    1    3    3    0  502 -0.85177950469E+02  0.20243929521E+02  0.62696347664E+01  0.87900501982E+02  0.47000000000E+01 0.  1.
        -11    1    1    2    0    0  0.37754163897E+02 -0.17530896210E+02 -0.22361533590E+02  0.47251956552E+02  0.00000000000E+00 0.  1.
         11    1    1    2    0    0  0.16358407945E+02  0.79208457104E+01  0.64695472326E+02  0.67200010764E+02  0.00000000000E+00 0. -1.
<mgrwt>
<rscale>  0 0.12828129E+03</rscale>
<asrwt>0</asrwt>
<pdfrwt beam="1">  1        1 0.27702769E-01 0.13656076E+03</pdfrwt>
<pdfrwt beam="2">  1       -1 0.12602007E-01 0.13656076E+03</pdfrwt>
<totfact> 0.67568797E+03</totfact>
</mgrwt>
</event>
<event>
 7    1  0.4230786E-006  0.1216741E+03  0.7546771E-02  0.1253907E+00
          2   -1    0    0  501    0  0.00000000000E+00  0.00000000000E+00  0.14718638063E+03  0.14718638063E+03  0.00000000000E+00 0. -1.
         -2   -1    0    0    0  501 -0.00000000000E+00 -0.00000000000E+00 -0.80784571813E+02  0.80784571813E+02  0.00000000000E+00 0.  1.
         23    2    1    2    0    0  0.60224057915E+01  0.15047928208E+02  0.16798576542E+02  0.12282826912E+03  0.12058972596E+03 0.  0.
          5    1    3    3  502    0  0.57405938170E+02 -0.17382495784E+02  0.24239056829E+01  0.60212608444E+02  0.47000000000E+01 0. -1.
         -5    1    3    3    0  502 -0.51383532379E+02  0.32430423991E+02  0.14374670859E+02  0.62615660679E+02  0.47000000000E+01 0.  1.
        -11    1    1    2    0    0 -0.23139426154E+02 -0.35887712134E+02 -0.62152770075E+01  0.43150789022E+02  0.00000000000E+00 0.  1.
         11    1    1    2    0    0  0.17117020363E+02  0.20839783926E+02  0.55818509285E+02  0.61991894300E+02  0.00000000000E+00 0. -1.
<mgrwt>
<rscale>  0 0.11367796E+03</rscale>
<asrwt>0</asrwt>
<pdfrwt beam="1">  1        2 0.22644059E-01 0.12167412E+03</pdfrwt>
<pdfrwt beam="2">  1       -2 0.12428396E-01 0.12167412E+03</pdfrwt>
<totfact> 0.10472203E+04</totfact>
</mgrwt>
</event>
<event>
 7    1  0.4230786E-006  0.3541429E+03  0.7546771E-02  0.1060927E+00
         -2   -1    0    0    0  501 -0.00000000000E+00  0.00000000000E+00  0.34202361261E+02  0.34202361261E+02  0.00000000000E+00 0.  1.
          2   -1    0    0  501    0  0.00000000000E+00 -0.00000000000E+00 -0.91672903646E+03  0.91672903646E+03  0.00000000000E+00 0. -1.
         23    2    1    2    0    0 -0.97105000471E+01 -0.65827726494E+01 -0.24988631416E+03  0.28010992570E+03  0.12601894208E+03 0.  0.
          5    1    3    3  502    0 -0.41927486881E+02 -0.21732883101E+01 -0.18022216244E+02  0.45929594126E+02  0.47000000000E+01 0. -1.
         -5    1    3    3    0  502  0.32216986834E+02 -0.44094843392E+01 -0.23186409792E+03  0.23418033157E+03  0.47000000000E+01 0.  1.
        -11    1    1    2    0    0  0.55861970417E+02 -0.78063824828E+02 -0.14604819121E+03  0.17477011942E+03  0.00000000000E+00 0.  1.
         11    1    1    2    0    0 -0.46151470370E+02  0.84646597477E+02 -0.48659216983E+03  0.49605135260E+03  0.00000000000E+00 0. -1.
<mgrwt>
<rscale>  0 0.35414290E+03</rscale>
<asrwt>0</asrwt>
<pdfrwt beam="2">  1        2 0.14103522E+00 0.35414290E+03</pdfrwt>
<pdfrwt beam="1">  1       -2 0.52619022E-02 0.35414290E+03</pdfrwt>
<totfact> 0.53890482E+03</totfact>
</mgrwt>
</event>
<event>
 7    1  0.4230786E-006  0.1349926E+03  0.7546771E-02  0.1231951E+00
         -2   -1    0    0    0  501 -0.00000000000E+00  0.00000000000E+00  0.23647412427E+03  0.23647412427E+03  0.00000000000E+00 0. -1.
          2   -1    0    0  501    0  0.00000000000E+00 -0.00000000000E+00 -0.75137323306E+02  0.75137323306E+02  0.00000000000E+00 0.  1.
         23    2    1    2    0    0  0.50970295575E+02 -0.64995997762E+00  0.15510427552E+03  0.20562181439E+03  0.12499840314E+03 0.  0.
          5    1    3    3  502    0  0.74994509692E+02  0.36681413553E+02  0.12952676794E+03  0.15417190469E+03  0.47000000000E+01 0. -1.
         -5    1    3    3    0  502 -0.24024214117E+02 -0.37331373530E+02  0.25577507583E+02  0.51449909696E+02  0.47000000000E+01 0. -1.
        -11    1    1    2    0    0 -0.44941662491E+02  0.33139559803E+02 -0.24394357565E+02  0.60934950007E+02  0.00000000000E+00 0.  1.
         11    1    1    2    0    0 -0.60286330838E+01 -0.32489599826E+02  0.30626883007E+02  0.45054683180E+02  0.00000000000E+00 0. -1.
<mgrwt>
<rscale>  0 0.12701652E+03</rscale>
<asrwt>0</asrwt>
<pdfrwt beam="2">  1        2 0.11559588E-01 0.13499257E+03</pdfrwt>
<pdfrwt beam="1">  1       -2 0.36380634E-01 0.13499257E+03</pdfrwt>
<totfact> 0.36557627E+03</totfact>
</mgrwt>
</event>
<event>
 7    1  0.4230786E-006  0.1328228E+03  0.7546771E-02  0.1236956E+00
         -3   -1    0    0    0  501 -0.00000000000E+00  0.00000000000E+00  0.10040461640E+03  0.10040461640E+03  0.00000000000E+00 0.  1.
          3   -1    0    0  501    0  0.00000000000E+00 -0.00000000000E+00 -0.15908328534E+03  0.15908328534E+03  0.00000000000E+00 0. -1.
         23    2    1    2    0    0 -0.36306244944E+02  0.26448446988E+02  0.16966659053E+02  0.13390205097E+03  0.12499691182E+03 0.  0.
          5    1    3    3  502    0  0.18395226642E+02 -0.32919705131E+02  0.34310361598E+02  0.51199436150E+02  0.47000000000E+01 0. -1.
         -5    1    3    3    0  502 -0.54701471586E+02  0.59368152120E+02 -0.17343702544E+02  0.82702614818E+02  0.47000000000E+01 0. -1.
        -11    1    1    2    0    0  0.65486808198E+02 -0.26395620116E+02 -0.58856254052E+02  0.91920125383E+02  0.00000000000E+00 0. -1.
         11    1    1    2    0    0 -0.29180563254E+02 -0.52826872337E-01 -0.16789073933E+02  0.33665725390E+02  0.00000000000E+00 0.  1.
<mgrwt>
<rscale>  0 0.12380066E+03</rscale>
<asrwt>0</asrwt>
<pdfrwt beam="2">  1        3 0.24474351E-01 0.13282278E+03</pdfrwt>
<pdfrwt beam="1">  1       -3 0.15446864E-01 0.13282278E+03</pdfrwt>
<totfact> 0.12636968E+03</totfact>
</mgrwt>
</event>
<event>
 7    1  0.4230786E-006  0.1311116E+03  0.7546771E-02  0.1238731E+00
         -1   -1    0    0    0  501 -0.00000000000E+00  0.00000000000E+00  0.25607225023E+03  0.25607225023E+03  0.00000000000E+00 0.  1.
          1   -1    0    0  501    0  0.00000000000E+00 -0.00000000000E+00 -0.53284501881E+02  0.53284501881E+02  0.00000000000E+00 0. -1.
         23    2    1    2    0    0  0.14491628702E+01  0.39532006082E+02  0.94593036081E+02  0.16167278753E+03  0.12500147269E+03 0.  0.
          5    1    3    3  502    0  0.82754679661E+01 -0.28421654931E+02 -0.14174361072E+02  0.33155336688E+02  0.47000000000E+01 0.  1.
         -5    1    3    3    0  502 -0.68263050958E+01  0.67953661013E+02  0.10876739715E+03  0.12851745084E+03  0.47000000000E+01 0.  1.
        -11    1    1    2    0    0  0.51278073286E+01  0.28340421564E+02  0.51488989604E+02  0.58996524922E+02  0.00000000000E+00 0. -1.
         11    1    1    2    0    0 -0.65769701988E+01 -0.67872427646E+02  0.56705722665E+02  0.88687439666E+02  0.00000000000E+00 0.  1.
<mgrwt>
<rscale>  0 0.12268598E+03</rscale>
<asrwt>0</asrwt>
<pdfrwt beam="2">  1        1 0.81976158E-02 0.13111159E+03</pdfrwt>
<pdfrwt beam="1">  1       -1 0.39395730E-01 0.13111159E+03</pdfrwt>
<totfact> 0.50752912E+03</totfact>
</mgrwt>
</event>
<event>
 7    1  0.4230786E-006  0.1371981E+03  0.7546771E-02  0.1218471E+00
         -1   -1    0    0    0  501 -0.00000000000E+00  0.00000000000E+00  0.24931937616E+02  0.24931937616E+02  0.00000000000E+00 0.  1.
          1   -1    0    0  501    0  0.00000000000E+00 -0.00000000000E+00 -0.77950372769E+03  0.77950372769E+03  0.00000000000E+00 0. -1.
         23    2    1    2    0    0 -0.69434890904E+02 -0.41657811158E+02 -0.28549385919E+03  0.31674922284E+03  0.11075535757E+03 0.  0.
          5    1    3    3  502    0  0.24708347579E+02  0.10704321036E+02 -0.38228709141E+02  0.46995841641E+02  0.47000000000E+01 0. -1.
         -5    1    3    3    0  502 -0.94143238483E+02 -0.52362132195E+02 -0.24726515005E+03  0.26975338120E+03  0.47000000000E+01 0.  1.
        -11    1    1    2    0    0  0.93719064589E+01 -0.33684302091E+02 -0.16672917879E+03  0.17035575687E+03  0.00000000000E+00 0.  1.
         11    1    1    2    0    0  0.60062984445E+02  0.75342113249E+02 -0.30234875210E+03  0.31733068560E+03  0.00000000000E+00 0. -1.
<mgrwt>
<rscale>  0 0.13624661E+03</rscale>
<asrwt>0</asrwt>
<pdfrwt beam="2">  1        1 0.11992364E+00 0.13719813E+03</pdfrwt>
<pdfrwt beam="1">  1       -1 0.38356829E-02 0.13719813E+03</pdfrwt>
<totfact> 0.60820719E+03</totfact>
</mgrwt>
</event>
<event>
 6    1  0.4230786E-006  0.1665741E+03  0.7546771E-02  0.1190434E+00
         -2   -1    0    0    0  501 -0.00000000000E+00  0.00000000000E+00  0.44057744875E+02  0.44057744875E+02  0.00000000000E+00 0.  1.
          2   -1    0    0  501    0  0.00000000000E+00 -0.00000000000E+00 -0.64433349422E+03  0.64433349422E+03  0.00000000000E+00 0. -1.
          5    1    1    2  502    0  0.51371149941E+02  0.25642040489E+02 -0.14994716550E+03  0.16063234957E+03  0.47000000000E+01 0. -1.
         -5    1    1    2    0  502  0.39983085609E+02 -0.65276066182E+02 -0.24357599692E+02  0.80467351229E+02  0.47000000000E+01 0.  1.
        -11    1    1    2    0    0 -0.51898286619E+02 -0.26133283537E+02 -0.21865063426E+03  0.22623987387E+03  0.00000000000E+00 0.  1.
         11    1    1    2    0    0 -0.39455948932E+02  0.65767309230E+02 -0.20732034989E+03  0.22105166443E+03  0.00000000000E+00 0. -1.
<mgrwt>
<rscale>  0 0.15847050E+03</rscale>
<asrwt>0</asrwt>
<pdfrwt beam="2">  1        2 0.99128227E-01 0.16657405E+03</pdfrwt>
<pdfrwt beam="1">  1       -2 0.67781148E-02 0.16657405E+03</pdfrwt>
<totfact> 0.55441921E+03</totfact>
</mgrwt>
</event>
<event>
 7    1  0.4230786E-006  0.1370474E+03  0.7546771E-02  0.1229099E+00
          3   -1    0    0  501    0  0.00000000000E+00  0.00000000000E+00  0.60853598658E+02  0.60853598658E+02  0.00000000000E+00 0. -1.
         -3   -1    0    0    0  501 -0.00000000000E+00 -0.00000000000E+00 -0.30668376025E+03  0.30668376025E+03  0.00000000000E+00 0.  1.
         23    2    1    2    0    0  0.40089778981E+02 -0.39498913900E+02 -0.21670784028E+03  0.25640645087E+03  0.12495849482E+03 0.  0.
          5    1    3    3  502    0  0.59350723498E+02 -0.36572409779E+02 -0.22433400116E+03  0.23496357933E+03  0.47000000000E+01 0. -1.
         -5    1    3    3    0  502 -0.19260944517E+02 -0.29265041203E+01  0.76261608748E+01  0.21442871537E+02  0.47000000000E+01 0. -1.
        -11    1    1    2    0    0 -0.62135234283E+02  0.36820911934E+02 -0.43839459224E+02  0.84489437683E+02  0.00000000000E+00 0.  1.
         11    1    1    2    0    0  0.22045455302E+02  0.26780019662E+01  0.14717137919E+02  0.26641470352E+02  0.00000000000E+00 0. -1.
<mgrwt>
<rscale>  0 0.12889900E+03</rscale>
<asrwt>0</asrwt>
<pdfrwt beam="1">  1        3 0.93620922E-02 0.13704736E+03</pdfrwt>
<pdfrwt beam="2">  1       -3 0.47182117E-01 0.13704736E+03</pdfrwt>
<totfact> 0.85431371E+02</totfact>
</mgrwt>
</event>
<event>
 7    1  0.4230786E-006  0.1264706E+03  0.7546771E-02  0.1256129E+00
          3   -1    0    0  501    0  0.00000000000E+00  0.00000000000E+00  0.84635955893E+02  0.84635955893E+02  0.00000000000E+00 0. -1.
         -3   -1    0    0    0  501 -0.00000000000E+00 -0.00000000000E+00 -0.13514954814E+03  0.13514954814E+03  0.00000000000E+00 0.  1.
         23    2    1    2    0    0  0.10606532670E+01 -0.19218839644E+02 -0.60434667656E+02  0.14016835429E+03  0.12499731880E+03 0.  0.
          5    1    3    3  502    0 -0.22119352129E+02 -0.22391531171E+02 -0.93854568698E+02  0.99103059853E+02  0.47000000000E+01 0. -1.
         -5    1    3    3    0  502  0.23180005396E+02  0.31726915269E+01  0.33419901041E+02  0.41065294438E+02  0.47000000000E+01 0. -1.
        -11    1    1    2    0    0 -0.56517541580E+01  0.29414151326E+02  0.38587050747E+02  0.48847672500E+02  0.00000000000E+00 0. -1.
         11    1    1    2    0    0  0.45911008910E+01 -0.10195311682E+02 -0.28665975340E+02  0.30769477244E+02  0.00000000000E+00 0.  1.
<mgrwt>
<rscale>  0 0.11243314E+03</rscale>
<asrwt>0</asrwt>
<pdfrwt beam="1">  1        3 0.13020916E-01 0.12647062E+03</pdfrwt>
<pdfrwt beam="2">  1       -3 0.20792238E-01 0.12647062E+03</pdfrwt>
<totfact> 0.22400535E+03</totfact>
</mgrwt>
</event>
<event>
 7    1  0.4230786E-006  0.1275394E+03  0.7546771E-02  0.1246319E+00
         -1   -1    0    0    0  501 -0.00000000000E+00  0.00000000000E+00  0.33499149710E+03  0.33499149710E+03  0.00000000000E+00 0.  1.
          1   -1    0    0  501    0  0.00000000000E+00 -0.00000000000E+00 -0.81618511078E+02  0.81618511078E+02  0.00000000000E+00 0. -1.
         23    2    1    2    0    0  0.21042011299E+02 -0.14108478118E+02  0.28939591221E+03  0.31625350839E+03  0.12499788865E+03 0.  0.
          5    1    3    3  502    0 -0.20218166437E+02  0.39223411665E+02  0.19602030650E+03  0.20098084694E+03  0.47000000000E+01 0.  1.
         -5    1    3    3    0  502  0.41260177736E+02 -0.53331889783E+02  0.93375605706E+02  0.11527266144E+03  0.47000000000E+01 0.  1.
        -11    1    1    2    0    0 -0.13092383266E+02 -0.40809822939E+01  0.29156860995E+02  0.32220916485E+02  0.00000000000E+00 0.  1.
         11    1    1    2    0    0 -0.79496280325E+01  0.18189460412E+02 -0.65179787181E+02  0.68135583309E+02  0.00000000000E+00 0. -1.
<mgrwt>
<rscale>  0 0.11806780E+03</rscale>
<asrwt>0</asrwt>
<pdfrwt beam="2">  1        1 0.12556694E-01 0.12753936E+03</pdfrwt>
<pdfrwt beam="1">  1       -1 0.51537152E-01 0.12753936E+03</pdfrwt>
<totfact> 0.17831970E+03</totfact>
</mgrwt>
</event>
<event>
 7    1  0.4230786E-006  0.1321566E+03  0.7546771E-02  0.1231940E+00
         -1   -1    0    0    0  501 -0.00000000000E+00  0.00000000000E+00  0.25634377656E+03  0.25634377656E+03  0.00000000000E+00 0.  1.
          1   -1    0    0  501    0  0.00000000000E+00 -0.00000000000E+00 -0.10045460637E+03  0.10045460637E+03  0.00000000000E+00 0. -1.
         23    2    1    2    0    0 -0.43366409808E+02 -0.47877506286E+02  0.19659529473E+03  0.23688620264E+03  0.11529293987E+03 0.  0.
          5    1    3    3  502    0 -0.29946799637E+02 -0.27633875553E+02  0.23649500743E+01  0.41086796851E+02  0.47000000000E+01 0. -1.
         -5    1    3    3    0  502 -0.13419610171E+02 -0.20243630733E+02  0.19423034466E+03  0.19579940579E+03  0.47000000000E+01 0.  1.
        -11    1    1    2    0    0  0.70986024461E+02  0.37159862229E+02 -0.41585269975E+02  0.90272951146E+02  0.00000000000E+00 0.  1.
         11    1    1    2    0    0 -0.27619614653E+02  0.10717644057E+02  0.87914543782E+00  0.29639229146E+02  0.00000000000E+00 0. -1.
<mgrwt>
<rscale>  0 0.12702400E+03</rscale>
<asrwt>0</asrwt>
<pdfrwt beam="2">  1        1 0.15454555E-01 0.13215659E+03</pdfrwt>
<pdfrwt beam="1">  1       -1 0.39437504E-01 0.13215659E+03</pdfrwt>
<totfact> 0.22011013E+03</totfact>
</mgrwt>
</event>
<event>
 7    1  0.4230786E-006  0.1539773E+03  0.7546771E-02  0.1204046E+00
          2   -1    0    0  501    0  0.00000000000E+00  0.00000000000E+00  0.22440501879E+03  0.22440501879E+03  0.00000000000E+00 0. -1.
         -2   -1    0    0    0  501 -0.00000000000E+00 -0.00000000000E+00 -0.95395915575E+02  0.95395915575E+02  0.00000000000E+00 0.  1.
         23    2    1    2    0    0 -0.20208530945E+02  0.87556742322E+02  0.28085633808E+02  0.15651778719E+03  0.12503778242E+03 0.  0.
          5    1    3    3  502    0 -0.40846605025E+02 -0.18546288385E+02  0.15007405779E+02  0.47536535245E+02  0.47000000000E+01 0. -1.
         -5    1    3    3    0  502  0.20638074080E+02  0.10610303071E+03  0.13078228029E+02  0.10898125194E+03  0.47000000000E+01 0. -1.
        -11    1    1    2    0    0  0.30447594221E+02 -0.68786889858E+02  0.17593996012E+02  0.77254390852E+02  0.00000000000E+00 0.  1.
         11    1    1    2    0    0 -0.10239063276E+02 -0.18769852463E+02  0.83329473400E+02  0.86028756328E+02  0.00000000000E+00 0. -1.
<mgrwt>
<rscale>  0 0.14712908E+03</rscale>
<asrwt>0</asrwt>
<pdfrwt beam="1">  1        2 0.34523849E-01 0.15397732E+03</pdfrwt>
<pdfrwt beam="2">  1       -2 0.14676295E-01 0.15397732E+03</pdfrwt>
<totfact> 0.51362418E+03</totfact>
</mgrwt>
</event>
<event>
 7    1  0.4230786E-006  0.1492743E+03  0.7546771E-02  0.1210569E+00
         -1   -1    0    0    0  501 -0.00000000000E+00  0.00000000000E+00  0.24173275051E+02  0.24173275051E+02  0.00000000000E+00 0.  1.
          1   -1    0    0  501    0  0.00000000000E+00 -0.00000000000E+00 -0.87596310321E+03  0.87596310321E+03  0.00000000000E+00 0. -1.
         23    2    1    2    0    0 -0.80576196493E+02  0.12755181473E+02 -0.30211552562E+03  0.33698161919E+03  0.12501041058E+03 0.  0.
          5    1    3    3  502    0 -0.67575027018E+02  0.63678890440E+02 -0.15566311610E+03  0.18131321264E+03  0.47000000000E+01 0. -1.
         -5    1    3    3    0  502 -0.13001169475E+02 -0.50923708967E+02 -0.14645240952E+03  0.15566840655E+03  0.47000000000E+01 0. -1.
        -11    1    1    2    0    0  0.90268449873E+02 -0.27078789500E+02 -0.52258940787E+03  0.53101915511E+03  0.00000000000E+00 0. -1.
         11    1    1    2    0    0 -0.96922533795E+01  0.14323608027E+02 -0.27084894669E+02  0.32135603957E+02  0.00000000000E+00 0.  1.
<mgrwt>
<rscale>  0 0.14207100E+03</rscale>
<asrwt>0</asrwt>
<pdfrwt beam="2">  1        1 0.13476355E+00 0.14927431E+03</pdfrwt>
<pdfrwt beam="1">  1       -1 0.37189656E-02 0.14927431E+03</pdfrwt>
<totfact> 0.53429886E+03</totfact>
</mgrwt>
</event>
<event>
 7    1  0.4230786E-006  0.1351310E+03  0.7546771E-02  0.1222018E+00
         -1   -1    0    0    0  501 -0.00000000000E+00  0.00000000000E+00  0.90590397506E+02  0.90590397506E+02  0.00000000000E+00 0.  1.
          1   -1    0    0  501    0  0.00000000000E+00 -0.00000000000E+00 -0.19766333485E+03  0.19766333485E+03  0.00000000000E+00 0. -1.
         23    2    1    2    0    0 -0.75400497580E+01 -0.48159328485E+02 -0.31407592344E+02  0.13338074188E+03  0.12011582817E+03 0.  0.
          5    1    3    3  502    0  0.50574712125E+02 -0.14514572533E+02 -0.38965788973E+02  0.65642189426E+02  0.47000000000E+01 0. -1.
         -5    1    3    3    0  502 -0.58114761883E+02 -0.33644755952E+02  0.75581966284E+01  0.67738552451E+02  0.47000000000E+01 0.  1.
        -11    1    1    2    0    0 -0.49462776688E+02 -0.12007527475E+01 -0.60158272199E+02  0.77891115018E+02  0.00000000000E+00 0.  1.
         11    1    1    2    0    0  0.57002826446E+02  0.49360081233E+02 -0.15507072798E+02  0.76981875457E+02  0.00000000000E+00 0. -1.
<mgrwt>
<rscale>  0 0.13373432E+03</rscale>
<asrwt>0</asrwt>
<pdfrwt beam="2">  1        1 0.30409744E-01 0.13513104E+03</pdfrwt>
<pdfrwt beam="1">  1       -1 0.13936984E-01 0.13513104E+03</pdfrwt>
<totfact> 0.51417124E+03</totfact>
</mgrwt>
</event>
<event>
 7    1  0.4230786E-006  0.1449273E+03  0.7546771E-02  0.1217998E+00
         -1   -1    0    0    0  501 -0.00000000000E+00  0.00000000000E+00  0.54506776692E+02  0.54506776692E+02  0.00000000000E+00 0.  1.
          1   -1    0    0  501    0  0.00000000000E+00 -0.00000000000E+00 -0.31934028865E+03  0.31934028865E+03  0.00000000000E+00 0. -1.
         23    2    1    2    0    0 -0.38498463537E+02  0.62421751017E+02 -0.11297254601E+03  0.18375719961E+03  0.12500122224E+03 0.  0.
          5    1    3    3  502    0 -0.67116975565E+02  0.82297840454E+02 -0.66143865730E+02  0.12519873772E+03  0.47000000000E+01 0.  1.
         -5    1    3    3    0  502  0.28618512028E+02 -0.19876089436E+02 -0.46828680279E+02  0.58558461888E+02  0.47000000000E+01 0.  1.
        -11    1    1    2    0    0 -0.11764156580E+01 -0.59764235788E+02 -0.41461245783E+02  0.72747389884E+02  0.00000000000E+00 0.  1.
         11    1    1    2    0    0  0.39674879195E+02 -0.26575152294E+01 -0.11039972016E+03  0.11734247585E+03  0.00000000000E+00 0. -1.
<mgrwt>
<rscale>  0 0.13658626E+03</rscale>
<asrwt>0</asrwt>
<pdfrwt beam="2">  1        1 0.49129275E-01 0.14492727E+03</pdfrwt>
<pdfrwt beam="1">  1       -1 0.83856579E-02 0.14492727E+03</pdfrwt>
<totfact> 0.62149830E+03</totfact>
</mgrwt>
</event>
<event>
 7    1  0.4230786E-006  0.1474610E+03  0.7546771E-02  0.1213358E+00
          1   -1    0    0  501    0  0.00000000000E+00  0.00000000000E+00  0.55045113499E+03  0.55045113499E+03  0.00000000000E+00 0. -1.
         -1   -1    0    0    0  501 -0.00000000000E+00 -0.00000000000E+00 -0.33049597895E+02  0.33049597895E+02  0.00000000000E+00 0.  1.
         23    2    1    2    0    0  0.13031238564E+02 -0.77153630716E+02  0.32495791931E+03  0.35685064971E+03  0.12498896339E+03 0.  0.
          5    1    3    3  502    0 -0.45745613289E+02  0.34832765116E+01  0.12702555764E+03  0.13513836111E+03  0.47000000000E+01 0.  1.
         -5    1    3    3    0  502  0.58776851853E+02 -0.80636907228E+02  0.19793236167E+03  0.22171228860E+03  0.47000000000E+01 0.  1.
        -11    1    1    2    0    0 -0.34147200908E+02  0.89093785282E+02  0.15626989485E+03  0.18309564151E+03  0.00000000000E+00 0.  1.
         11    1    1    2    0    0  0.21115962344E+02 -0.11940154566E+02  0.36173722941E+02  0.43554441658E+02  0.00000000000E+00 0. -1.
<mgrwt>
<rscale>  0 0.13997814E+03</rscale>
<asrwt>0</asrwt>
<pdfrwt beam="1">  1        1 0.84684783E-01 0.14746097E+03</pdfrwt>
<pdfrwt beam="2">  1       -1 0.50845539E-02 0.14746097E+03</pdfrwt>
<totfact> 0.65666284E+03</totfact>
</mgrwt>
</event>
<event>
 7    1  0.4230786E-006  0.2639895E+03  0.7546771E-02  0.1106920E+00
          2   -1    0    0  501    0  0.00000000000E+00  0.00000000000E+00  0.13463960480E+04  0.13463960480E+04  0.00000000000E+00 0. -1.
         -2   -1    0    0    0  501 -0.00000000000E+00 -0.00000000000E+00 -0.49019328625E+02  0.49019328625E+02  0.00000000000E+00 0.  1.
         23    2    1    2    0    0  0.11653482619E+03  0.20120564929E+03  0.66391338358E+03  0.71447285485E+03  0.12500560149E+03 0.  0.
          5    1    3    3  502    0  0.97052414202E+02  0.70726323493E+02  0.21224661895E+03  0.24391002684E+03  0.47000000000E+01 0.  1.
         -5    1    3    3    0  502  0.19482411984E+02  0.13047932580E+03  0.45166676462E+03  0.47056282801E+03  0.47000000000E+01 0.  1.
        -11    1    1    2    0    0 -0.12038179065E+03 -0.16059506385E+03  0.44580119374E+03  0.48889799999E+03  0.00000000000E+00 0. -1.
         11    1    1    2    0    0  0.38469644600E+01 -0.40610585443E+02  0.18766214204E+03  0.19204452177E+03  0.00000000000E+00 0.  1.
<mgrwt>
<rscale>  0 0.26037192E+03</rscale>
<asrwt>0</asrwt>
<pdfrwt beam="1">  1        2 0.20713782E+00 0.26398954E+03</pdfrwt>
<pdfrwt beam="2">  1       -2 0.75414362E-02 0.26398954E+03</pdfrwt>
<totfact> 0.17163792E+03</totfact>
</mgrwt>
</event>
<event>
 7    1  0.4230786E-006  0.1778899E+03  0.7546771E-02  0.1175567E+00
          4   -1    0    0  501    0  0.00000000000E+00  0.00000000000E+00  0.48141335957E+03  0.48141335957E+03  0.00000000000E+00 0. -1.
         -4   -1    0    0    0  501 -0.00000000000E+00 -0.00000000000E+00 -0.57976391172E+02  0.57976391172E+02  0.00000000000E+00 0.  1.
         23    2    1    2    0    0 -0.93294043672E+02  0.85534381552E+02  0.22261288050E+03  0.28495841299E+03  0.12499957422E+03 0.  0.
          5    1    3    3  502    0  0.46653967307E+00  0.16457079234E+02  0.14250462635E+03  0.14352948007E+03  0.47000000000E+01 0. -1.
         -5    1    3    3    0  502 -0.93760583345E+02  0.69077302319E+02  0.80108254147E+02  0.14142893292E+03  0.47000000000E+01 0. -1.
        -11    1    1    2    0    0  0.49026676863E+02 -0.67947685611E+02  0.18687287414E+03  0.20479739772E+03  0.00000000000E+00 0. -1.
         11    1    1    2    0    0  0.44267366808E+02 -0.17586695941E+02  0.13951213764E+02  0.49633940038E+02  0.00000000000E+00 0.  1.
<mgrwt>
<rscale>  0 0.17220598E+03</rscale>
<asrwt>0</asrwt>
<pdfrwt beam="1">  1        4 0.74063592E-01 0.17788986E+03</pdfrwt>
<pdfrwt beam="2">  1       -4 0.89194451E-02 0.17788986E+03</pdfrwt>
<totfact> 0.27091787E+02</totfact>
</mgrwt>
</event>
<event>
 7    1  0.4230786E-006  0.1441840E+03  0.7546771E-02  0.1218252E+00
          3   -1    0    0  501    0  0.00000000000E+00  0.00000000000E+00  0.29086134327E+02  0.29086134327E+02  0.00000000000E+00 0. -1.
         -3   -1    0    0    0  501 -0.00000000000E+00 -0.00000000000E+00 -0.61706877186E+03  0.61706877186E+03  0.00000000000E+00 0.  1.
         23    2    1    2    0    0 -0.68940283433E+02 -0.20297196299E+02 -0.40366866319E+03  0.42864602876E+03  0.12499715786E+03 0.  0.
          5    1    3    3  502    0 -0.94475579567E+02 -0.38146820905E+02 -0.36381649665E+03  0.37784302073E+03  0.47000000000E+01 0. -1.
         -5    1    3    3    0  502  0.25535296134E+02  0.17849624605E+02 -0.39852166544E+02  0.50803008035E+02  0.47000000000E+01 0. -1.
        -11    1    1    2    0    0  0.58504257252E+02 -0.12674490346E+02 -0.47574840212E+02  0.76464084663E+02  0.00000000000E+00 0. -1.
         11    1    1    2    0    0  0.10436026181E+02  0.32971686646E+02 -0.13673913413E+03  0.14104479276E+03  0.00000000000E+00 0.  1.
<mgrwt>
<rscale>  0 0.13640368E+03</rscale>
<asrwt>0</asrwt>
<pdfrwt beam="1">  1        3 0.44747904E-02 0.14418401E+03</pdfrwt>
<pdfrwt beam="2">  1       -3 0.94933647E-01 0.14418401E+03</pdfrwt>
<totfact> 0.64729587E+02</totfact>
</mgrwt>
</event>
<event>
 7    1  0.4230786E-006  0.1260891E+03  0.7546771E-02  0.1258465E+00
          2   -1    0    0  501    0  0.00000000000E+00  0.00000000000E+00  0.12847045078E+03  0.12847045078E+03  0.00000000000E+00 0. -1.
         -2   -1    0    0    0  501 -0.00000000000E+00 -0.00000000000E+00 -0.80083592032E+02  0.80083592032E+02  0.00000000000E+00 0.  1.
         23    2    1    2    0    0 -0.58704189067E+01 -0.15346081860E+02  0.22049823627E+02  0.12800261087E+03  0.12501403769E+03 0.  0.
          5    1    3    3  502    0 -0.14902635887E+02 -0.34958549924E+02 -0.44014775627E+02  0.58340202628E+02  0.47000000000E+01 0.  1.
         -5    1    3    3    0  502  0.90322169803E+01  0.19612468064E+02  0.66064599255E+02  0.69662408240E+02  0.47000000000E+01 0.  1.
        -11    1    1    2    0    0 -0.99430780403E+01  0.29203674691E+02 -0.14902677184E+02  0.34260899049E+02  0.00000000000E+00 0.  1.
         11    1    1    2    0    0  0.15813496947E+02 -0.13857592831E+02  0.41239712305E+02  0.46290532895E+02  0.00000000000E+00 0. -1.
<mgrwt>
<rscale>  0 0.11114475E+03</rscale>
<asrwt>0</asrwt>
<pdfrwt beam="1">  1        2 0.19764685E-01 0.12608915E+03</pdfrwt>
<pdfrwt beam="2">  1       -2 0.12320553E-01 0.12608915E+03</pdfrwt>
<totfact> 0.12404790E+04</totfact>
</mgrwt>
</event>
<event>
 7    1  0.4230786E-006  0.2185274E+03  0.7546771E-02  0.1138563E+00
         -1   -1    0    0    0  501 -0.00000000000E+00  0.00000000000E+00  0.18480123455E+03  0.18480123455E+03  0.00000000000E+00 0.  1.
          1   -1    0    0  501    0  0.00000000000E+00 -0.00000000000E+00 -0.32912787640E+03  0.32912787640E+03  0.00000000000E+00 0. -1.
         23    2    1    2    0    0 -0.14132892369E+03  0.11024799489E+03  0.61165331784E+02  0.22692600871E+03  0.12500292224E+03 0.  0.
          5    1    3    3  502    0 -0.13697014945E+03  0.32954983970E+02  0.38327027081E+02  0.14607499380E+03  0.47000000000E+01 0.  1.
         -5    1    3    3    0  502 -0.43587742390E+01  0.77293010923E+02  0.22838304703E+02  0.80851014911E+02  0.47000000000E+01 0.  1.
        -11    1    1    2    0    0  0.13251791104E+03 -0.11675535425E+03 -0.21065230507E+03  0.27489489468E+03  0.00000000000E+00 0. -1.
         11    1    1    2    0    0  0.88110126488E+01  0.65073593588E+01  0.51603314256E+01  0.12108207553E+02  0.00000000000E+00 0.  1.
<mgrwt>
<rscale>  0 0.21383645E+03</rscale>
<asrwt>0</asrwt>
<pdfrwt beam="2">  1        1 0.50635057E-01 0.21852738E+03</pdfrwt>
<pdfrwt beam="1">  1       -1 0.28430960E-01 0.21852738E+03</pdfrwt>
<totfact> 0.87312117E+02</totfact>
</mgrwt>
</event>
<event>
 6    1  0.4230786E-006  0.1890911E+03  0.7546771E-02  0.1178781E+00
         -2   -1    0    0    0  501 -0.00000000000E+00  0.00000000000E+00  0.39599148873E+02  0.39599148873E+02  0.00000000000E+00 0.  1.
          2   -1    0    0  501    0  0.00000000000E+00 -0.00000000000E+00 -0.62706584641E+03  0.62706584641E+03  0.00000000000E+00 0. -1.
          5    1    1    2  502    0 -0.12723664865E+03 -0.28697018228E+02 -0.26751152416E+03  0.29765279970E+03  0.47000000000E+01 0. -1.
         -5    1    1    2    0  502  0.12752407705E+02  0.44007226948E+02 -0.30344973754E+02  0.55155846091E+02  0.47000000000E+01 0.  1.
        -11    1    1    2    0    0  0.77114712068E+02 -0.27134063293E+02 -0.19327486043E+03  0.20985258608E+03  0.00000000000E+00 0.  1.
         11    1    1    2    0    0  0.37369528881E+02  0.11823854573E+02 -0.96335339192E+02  0.10400376341E+03  0.00000000000E+00 0. -1.
<mgrwt>
<rscale>  0 0.16910846E+03</rscale>
<asrwt>0</asrwt>
<pdfrwt beam="2">  1        2 0.96471667E-01 0.18909111E+03</pdfrwt>
<pdfrwt beam="1">  1       -2 0.60921769E-02 0.18909111E+03</pdfrwt>
<totfact> 0.67797108E+03</totfact>
</mgrwt>
</event>
<event>
 7    1  0.4230786E-006  0.1320715E+03  0.7546771E-02  0.1238609E+00
         -2   -1    0    0    0  501 -0.00000000000E+00  0.00000000000E+00  0.20747516069E+03  0.20747516069E+03  0.00000000000E+00 0. -1.
          2   -1    0    0  501    0  0.00000000000E+00 -0.00000000000E+00 -0.83863942890E+02  0.83863942890E+02  0.00000000000E+00 0.  1.
         23    2    1    2    0    0  0.37652351540E+02  0.19974275857E+02  0.13879233802E+03  0.19158857886E+03  0.12500479665E+03 0.  0.
          5    1    3    3  502    0  0.67840955277E+02  0.17223896428E+02  0.14427582836E+03  0.16042650177E+03  0.47000000000E+01 0.  1.
         -5    1    3    3    0  502 -0.30188603737E+02  0.27503794288E+01 -0.54834903355E+01  0.31162077095E+02  0.47000000000E+01 0.  1.
        -11    1    1    2    0    0 -0.39010185760E+02 -0.52797452708E+02 -0.80867946767E+01  0.66141982535E+02  0.00000000000E+00 0. -1.
         11    1    1    2    0    0  0.13578342208E+01  0.32823176852E+02 -0.70943255488E+01  0.33608542179E+02  0.00000000000E+00 0.  1.
<mgrwt>
<rscale>  0 0.12276183E+03</rscale>
<asrwt>0</asrwt>
<pdfrwt beam="2">  1        2 0.12902145E-01 0.13207146E+03</pdfrwt>
<pdfrwt beam="1">  1       -2 0.31919255E-01 0.13207146E+03</pdfrwt>
<totfact> 0.40695871E+03</totfact>
</mgrwt>
</event>
<event>
 7    1  0.4230786E-006  0.1385176E+03  0.7546771E-02  0.1226984E+00
          2   -1    0    0  501    0  0.00000000000E+00  0.00000000000E+00  0.12315706593E+03  0.12315706593E+03  0.00000000000E+00 0. -1.
         -2   -1    0    0    0  501 -0.00000000000E+00 -0.00000000000E+00 -0.12397903491E+03  0.12397903491E+03  0.00000000000E+00 0.  1.
         23    2    1    2    0    0  0.48958982535E+02 -0.34159510239E+02 -0.38922680696E+01  0.13857223517E+03  0.12499304180E+03 0.  0.
          5    1    3    3  502    0  0.56236119165E+02 -0.63790607364E+02 -0.37392781906E+02  0.93016411591E+02  0.47000000000E+01 0.  1.
         -5    1    3    3    0  502 -0.72771366293E+01  0.29631097125E+02  0.33500513836E+02  0.45555823576E+02  0.47000000000E+01 0.  1.
        -11    1    1    2    0    0 -0.59441725933E+02  0.50543160281E+02 -0.17805717856E+02  0.80031077847E+02  0.00000000000E+00 0.  1.
         11    1    1    2    0    0  0.10482743398E+02 -0.16383650042E+02  0.20876016941E+02  0.28532787826E+02  0.00000000000E+00 0. -1.
<mgrwt>
<rscale>  0 0.13031863E+03</rscale>
<asrwt>0</asrwt>
<pdfrwt beam="1">  1        2 0.18947241E-01 0.13851756E+03</pdfrwt>
<pdfrwt beam="2">  1       -2 0.19073698E-01 0.13851756E+03</pdfrwt>
<totfact> 0.64083481E+03</totfact>
</mgrwt>
</event>
<event>
 7    1  0.4230786E-006  0.1536584E+03  0.7546771E-02  0.1204591E+00
         -1   -1    0    0    0  501 -0.00000000000E+00  0.00000000000E+00  0.14013001507E+03  0.14013001507E+03  0.00000000000E+00 0.  1.
          1   -1    0    0  501    0  0.00000000000E+00 -0.00000000000E+00 -0.16115831882E+03  0.16115831882E+03  0.00000000000E+00 0. -1.
         23    2    1    2    0    0 -0.11285928311E+02  0.88787154569E+02  0.41474124364E+02  0.15915722465E+03  0.12490151389E+03 0.  0.
          5    1    3    3  502    0 -0.40877419939E+00  0.39273444547E+02  0.83983016453E+02  0.92832147425E+02  0.47000000000E+01 0. -1.
         -5    1    3    3    0  502 -0.10877154111E+02  0.49513710021E+02 -0.42508892089E+02  0.66325077221E+02  0.47000000000E+01 0. -1.
        -11    1    1    2    0    0  0.35393562912E+02 -0.11820284063E+01 -0.27195277725E+02  0.44650695597E+02  0.00000000000E+00 0. -1.
         11    1    1    2    0    0 -0.24107634602E+02 -0.87605126162E+02 -0.35307150395E+02  0.97480413648E+02  0.00000000000E+00 0.  1.
<mgrwt>
<rscale>  0 0.14669764E+03</rscale>
<asrwt>0</asrwt>
<pdfrwt beam="2">  1        1 0.24793588E-01 0.15365845E+03</pdfrwt>
<pdfrwt beam="1">  1       -1 0.21558464E-01 0.15365845E+03</pdfrwt>
<totfact> 0.33432296E+03</totfact>
</mgrwt>
</event>
<event>
 7    1  0.4230786E-006  0.1280432E+03  0.7546771E-02  0.1245128E+00
          1   -1    0    0  501    0  0.00000000000E+00  0.00000000000E+00  0.20329151619E+03  0.20329151619E+03  0.00000000000E+00 0. -1.
         -1   -1    0    0    0  501 -0.00000000000E+00 -0.00000000000E+00 -0.65633701283E+02  0.65633701283E+02  0.00000000000E+00 0.  1.
         23    2    1    2    0    0  0.19924941234E+02  0.19144155976E+02  0.43312422108E+02  0.13517036146E+03  0.12502623212E+03 0.  0.
          5    1    3    3  502    0 -0.50163041796E+02  0.17817534480E+02  0.36213633385E+02  0.64554725157E+02  0.47000000000E+01 0. -1.
         -5    1    3    3    0  502  0.70087983030E+02  0.13266214962E+01  0.70987887230E+01  0.70615636307E+02  0.47000000000E+01 0. -1.
        -11    1    1    2    0    0 -0.44487158604E+02 -0.20119689539E+02  0.15592332625E+02  0.51254561012E+02  0.00000000000E+00 0.  1.
         11    1    1    2    0    0  0.24562217370E+02  0.97553356230E+00  0.78753060171E+02  0.82500294994E+02  0.00000000000E+00 0. -1.
<mgrwt>
<rscale>  0 0.11877722E+03</rscale>
<asrwt>0</asrwt>
<pdfrwt beam="1">  1        1 0.31275618E-01 0.12804320E+03</pdfrwt>
<pdfrwt beam="2">  1       -1 0.10097493E-01 0.12804320E+03</pdfrwt>
<totfact> 0.81288788E+03</totfact>
</mgrwt>
</event>
<event>
 7    1  0.4230786E-006  0.1445212E+03  0.7546771E-02  0.1217550E+00
         -1   -1    0    0    0  501 -0.00000000000E+00  0.00000000000E+00  0.23355397252E+03  0.23355397252E+03  0.00000000000E+00 0.  1.
          1   -1    0    0  501    0  0.00000000000E+00 -0.00000000000E+00 -0.10944129401E+03  0.10944129401E+03  0.00000000000E+00 0. -1.
         23    2    1    2    0    0  0.51498887085E+01  0.72352476508E+02  0.16526406701E+03  0.21954178184E+03  0.12499991967E+03 0.  0.
          5    1    3    3  502    0  0.72232587427E+01 -0.34824677501E+02  0.55167378262E+02  0.65806255434E+02  0.47000000000E+01 0. -1.
         -5    1    3    3    0  502 -0.20733700343E+01  0.10717715401E+03  0.11009668875E+03  0.15373552640E+03  0.47000000000E+01 0. -1.
        -11    1    1    2    0    0  0.65678300018E+00 -0.40624203770E+02 -0.69504228350E+02  0.80508353941E+02  0.00000000000E+00 0. -1.
         11    1    1    2    0    0 -0.58066717087E+01 -0.31728272738E+02  0.28352839858E+02  0.42945130752E+02  0.00000000000E+00 0.  1.
<mgrwt>
<rscale>  0 0.13690850E+03</rscale>
<asrwt>0</asrwt>
<pdfrwt beam="2">  1        1 0.16837122E-01 0.14452122E+03</pdfrwt>
<pdfrwt beam="1">  1       -1 0.35931380E-01 0.14452122E+03</pdfrwt>
<totfact> 0.23253942E+03</totfact>
</mgrwt>
</event>
<event>
 7    1  0.4230786E-006  0.1458358E+03  0.7546771E-02  0.1215512E+00
          1   -1    0    0  501    0  0.00000000000E+00  0.00000000000E+00  0.40417155681E+03  0.40417155681E+03  0.00000000000E+00 0. -1.
         -1   -1    0    0    0  501 -0.00000000000E+00 -0.00000000000E+00 -0.78684323806E+02  0.78684323806E+02  0.00000000000E+00 0.  1.
         23    2    1    2    0    0 -0.13726596742E+02 -0.73827228585E+02  0.10282090864E+02  0.14619784907E+03  0.12501684103E+03 0.  0.
          5    1    3    3  502    0 -0.22163801511E+02 -0.58500763261E+02 -0.51906450686E+02  0.81424462064E+02  0.47000000000E+01 0. -1.
         -5    1    3    3    0  502  0.84372047687E+01 -0.15326465323E+02  0.62188541551E+02  0.64773387003E+02  0.47000000000E+01 0. -1.
        -11    1    1    2    0    0  0.41571961407E+02  0.73729585888E+02  0.18405769693E+03  0.20258705686E+03  0.00000000000E+00 0. -1.
         11    1    1    2    0    0 -0.27845364664E+02  0.97642697211E-01  0.13114744522E+03  0.13407097469E+03  0.00000000000E+00 0.  1.
<mgrwt>
<rscale>  0 0.13838960E+03</rscale>
<asrwt>0</asrwt>
<pdfrwt beam="1">  1        1 0.62180238E-01 0.14583583E+03</pdfrwt>
<pdfrwt beam="2">  1       -1 0.12105281E-01 0.14583583E+03</pdfrwt>
<totfact> 0.26391857E+03</totfact>
</mgrwt>
</event>
<event>
 7    1  0.4230786E-006  0.1434993E+03  0.7546771E-02  0.1219005E+00
          2   -1    0    0  501    0  0.00000000000E+00  0.00000000000E+00  0.48326051132E+03  0.48326051132E+03  0.00000000000E+00 0. -1.
         -2   -1    0    0    0  501 -0.00000000000E+00 -0.00000000000E+00 -0.38265348796E+02  0.38265348796E+02  0.00000000000E+00 0.  1.
         23    2    1    2    0    0  0.47690360901E+02  0.51895985581E+02  0.16473662481E+03  0.21847244708E+03  0.12499796293E+03 0.  0.
          5    1    3    3  502    0  0.17488711816E+02  0.89364198166E+02  0.13060991758E+03  0.15928859195E+03  0.47000000000E+01 0. -1.
         -5    1    3    3    0  502  0.30201649085E+02 -0.37468212585E+02  0.34126707233E+02  0.59183855133E+02  0.47000000000E+01 0. -1.
        -11    1    1    2    0    0  0.16465883810E+02  0.10928163627E+02  0.21717991237E+02  0.29363603888E+02  0.00000000000E+00 0.  1.
         11    1    1    2    0    0 -0.64156244712E+02 -0.62824149208E+02  0.25854054648E+03  0.27368980915E+03  0.00000000000E+00 0. -1.
<mgrwt>
<rscale>  0 0.13586408E+03</rscale>
<asrwt>0</asrwt>
<pdfrwt beam="1">  1        2 0.74347767E-01 0.14349932E+03</pdfrwt>
<pdfrwt beam="2">  1       -2 0.58869771E-02 0.14349932E+03</pdfrwt>
<totfact> 0.94289342E+03</totfact>
</mgrwt>
</event>
<event>
 7    1  0.4230786E-006  0.1348706E+03  0.7546771E-02  0.1233170E+00
         -1   -1    0    0    0  501 -0.00000000000E+00  0.00000000000E+00  0.27686373052E+03  0.27686373052E+03  0.00000000000E+00 0.  1.
          1   -1    0    0  501    0  0.00000000000E+00 -0.00000000000E+00 -0.51499805126E+02  0.51499805126E+02  0.00000000000E+00 0. -1.
         23    2    1    2    0    0 -0.38045812986E+02 -0.33476127212E+02  0.13778184796E+03  0.19280536311E+03  0.12498774116E+03 0.  0.
          5    1    3    3  502    0 -0.11845346913E+02 -0.14695196079E+01 -0.23209590549E+02  0.26518801345E+02  0.47000000000E+01 0.  1.
         -5    1    3    3    0  502 -0.26200466073E+02 -0.32006607604E+02  0.16099143850E+03  0.16628656177E+03  0.47000000000E+01 0.  1.
        -11    1    1    2    0    0  0.19010650201E+02  0.32812924149E+02 -0.74407235166E+01  0.38645273692E+02  0.00000000000E+00 0. -1.
         11    1    1    2    0    0  0.19035162785E+02  0.66320306320E+00  0.95022800955E+02  0.96912898842E+02  0.00000000000E+00 0.  1.
<mgrwt>
<rscale>  0 0.12622293E+03</rscale>
<asrwt>0</asrwt>
<pdfrwt beam="2">  1        1 0.79230471E-02 0.13487057E+03</pdfrwt>
<pdfrwt beam="1">  1       -1 0.42594419E-01 0.13487057E+03</pdfrwt>
<totfact> 0.46392672E+03</totfact>
</mgrwt>
</event>
<event>
 7    1  0.4230786E-006  0.1540360E+03  0.7546771E-02  0.1203699E+00
         -1   -1    0    0    0  501 -0.00000000000E+00  0.00000000000E+00  0.24716957837E+02  0.24716957837E+02  0.00000000000E+00 0.  1.
          1   -1    0    0  501    0  0.00000000000E+00 -0.00000000000E+00 -0.82186788687E+03  0.82186788687E+03  0.00000000000E+00 0. -1.
         23    2    1    2    0    0  0.10382468360E+01  0.90003080915E+02 -0.48098956015E+03  0.50505250541E+03  0.12500177486E+03 0.  0.
          5    1    3    3  502    0 -0.82470790939E+00  0.61606503928E+02 -0.71302387001E+02  0.94351268467E+02  0.47000000000E+01 0.  1.
         -5    1    3    3    0  502  0.18629547454E+01  0.28396576987E+02 -0.40968717315E+03  0.41070123695E+03  0.47000000000E+01 0.  1.
        -11    1    1    2    0    0 -0.27286365663E+02  0.73386992498E+01 -0.63765470145E+02  0.69745519144E+02  0.00000000000E+00 0.  1.
         11    1    1    2    0    0  0.26248118827E+02 -0.97341780165E+02 -0.25239589874E+03  0.27178682015E+03  0.00000000000E+00 0. -1.
<mgrwt>
<rscale>  0 0.14740482E+03</rscale>
<asrwt>0</asrwt>
<pdfrwt beam="2">  1        1 0.12644119E+00 0.15403596E+03</pdfrwt>
<pdfrwt beam="1">  1       -1 0.38026097E-02 0.15403596E+03</pdfrwt>
<totfact> 0.57174844E+03</totfact>
</mgrwt>
</event>
<event>
 7    1  0.4230786E-006  0.1289795E+03  0.7546771E-02  0.1243299E+00
          1   -1    0    0  501    0  0.00000000000E+00  0.00000000000E+00  0.41761473434E+02  0.41761473434E+02  0.00000000000E+00 0. -1.
         -1   -1    0    0    0  501 -0.00000000000E+00 -0.00000000000E+00 -0.30503991522E+03  0.30503991522E+03  0.00000000000E+00 0.  1.
         23    2    1    2    0    0 -0.21639167029E+02 -0.23308815597E+02 -0.16217052143E+03  0.20720761342E+03  0.12499665036E+03 0.  0.
          5    1    3    3  502    0 -0.10689977003E+02  0.51662844655E+02 -0.62642154110E+02  0.82033252999E+02  0.47000000000E+01 0.  1.
         -5    1    3    3    0  502 -0.10949190026E+02 -0.74971660252E+02 -0.99528367324E+02  0.12517436042E+03  0.47000000000E+01 0.  1.
        -11    1    1    2    0    0  0.27610304953E+02 -0.22185133951E+02 -0.83044098847E+02  0.90281955347E+02  0.00000000000E+00 0.  1.
         11    1    1    2    0    0 -0.59711379238E+01  0.45493949549E+02 -0.18063821504E+02  0.49311819891E+02  0.00000000000E+00 0. -1.
<mgrwt>
<rscale>  0 0.11987762E+03</rscale>
<asrwt>0</asrwt>
<pdfrwt beam="1">  1        1 0.64248422E-02 0.12897952E+03</pdfrwt>
<pdfrwt beam="2">  1       -1 0.46929217E-01 0.12897952E+03</pdfrwt>
<totfact> 0.51590086E+03</totfact>
</mgrwt>
</event>
<event>
 7    1  0.4230786E-006  0.1688158E+03  0.7546771E-02  0.1186098E+00
          2   -1    0    0  501    0  0.00000000000E+00  0.00000000000E+00  0.20838383707E+03  0.20838383707E+03  0.00000000000E+00 0. -1.
         -2   -1    0    0    0  501 -0.00000000000E+00 -0.00000000000E+00 -0.11855562584E+03  0.11855562584E+03  0.00000000000E+00 0.  1.
         23    2    1    2    0    0 -0.67846170582E+02 -0.90939053096E+02  0.33972161075E+02  0.17220014459E+03  0.12500307127E+03 0.  0.
          5    1    3    3  502    0 -0.30726376912E+02 -0.60094683879E+02 -0.43765221239E+02  0.80578941783E+02  0.47000000000E+01 0.  1.
         -5    1    3    3    0  502 -0.37119793670E+02 -0.30844369217E+02  0.77737382314E+02  0.91621202805E+02  0.47000000000E+01 0.  1.
        -11    1    1    2    0    0  0.80436291150E+00  0.71720911768E+02  0.43574540498E+02  0.83924232282E+02  0.00000000000E+00 0. -1.
         11    1    1    2    0    0  0.67041807671E+02  0.19218141328E+02  0.12281509650E+02  0.70815086042E+02  0.00000000000E+00 0.  1.
<mgrwt>
<rscale>  0 0.16232347E+03</rscale>
<asrwt>0</asrwt>
<pdfrwt beam="1">  1        2 0.32059052E-01 0.16881582E+03</pdfrwt>
<pdfrwt beam="2">  1       -2 0.18239327E-01 0.16881582E+03</pdfrwt>
<totfact> 0.39009140E+03</totfact>
</mgrwt>
</event>
<event>
 7    1  0.4230786E-006  0.1254993E+03  0.7546771E-02  0.1240934E+00
         -1   -1    0    0    0  501 -0.00000000000E+00  0.00000000000E+00  0.64025779107E+03  0.64025779107E+03  0.00000000000E+00 0.  1.
          1   -1    0    0  501    0  0.00000000000E+00 -0.00000000000E+00 -0.21889909829E+02  0.21889909829E+02  0.00000000000E+00 0. -1.
         23    2    1    2    0    0  0.10760420741E+02 -0.30765613799E+01  0.36895764955E+03  0.38971762257E+03  0.12499930517E+03 0.  0.
          5    1    3    3  502    0 -0.93048470146E+01  0.73640266179E+01  0.36623299178E+03  0.36645532243E+03  0.47000000000E+01 0.  1.
         -5    1    3    3    0  502  0.20065267756E+02 -0.10440587998E+02  0.27246577681E+01  0.23262300140E+02  0.47000000000E+01 0.  1.
        -11    1    1    2    0    0  0.38715265437E+02  0.21169758646E+02  0.52428912451E+02  0.68526063070E+02  0.00000000000E+00 0. -1.
         11    1    1    2    0    0 -0.49475686178E+02 -0.18093197266E+02  0.19698131924E+03  0.20390401526E+03  0.00000000000E+00 0.  1.
<mgrwt>
<rscale>  0 0.12132101E+03</rscale>
<asrwt>0</asrwt>
<pdfrwt beam="2">  1        1 0.33676789E-02 0.12549932E+03</pdfrwt>
<pdfrwt beam="1">  1       -1 0.98501184E-01 0.12549932E+03</pdfrwt>
<totfact> 0.28968423E+03</totfact>
</mgrwt>
</event>
<event>
 7    1  0.5119468E-006  0.1680170E+03  0.7546771E-02  0.1185326E+00
         -1   -1    0    0    0  501 -0.00000000000E+00  0.00000000000E+00  0.36336459058E+02  0.36336459058E+02  0.00000000000E+00 0.  1.
          1   -1    0    0  501    0  0.00000000000E+00 -0.00000000000E+00 -0.70099314586E+03  0.70099314586E+03  0.00000000000E+00 0. -1.
         23    2    1    2    0    0  0.95084476166E+02  0.59700509551E+02 -0.30828569292E+03  0.35109795280E+03  0.12499798221E+03 0.  0.
          5    1    3    3  502    0 -0.30236052251E+02  0.77886373637E+01 -0.71680233274E+02  0.78326416808E+02  0.47000000000E+01 0.  1.
         -5    1    3    3    0  502  0.12532052842E+03  0.51911872187E+02 -0.23660545964E+03  0.27277153599E+03  0.47000000000E+01 0.  1.
        -11    1    1    2    0    0 -0.26096829682E+02  0.22777985599E+02 -0.14502996662E+03  0.14910926317E+03  0.00000000000E+00 0. -1.
         11    1    1    2    0    0 -0.68987646483E+02 -0.82478495150E+02 -0.21134102727E+03  0.23712238894E+03  0.00000000000E+00 0.  1.
<mgrwt>
<rscale>  0 0.16302224E+03</rscale>
<asrwt>0</asrwt>
<pdfrwt beam="2">  1        1 0.10784509E+00 0.16801698E+03</pdfrwt>
<pdfrwt beam="1">  1       -1 0.55902249E-02 0.16801698E+03</pdfrwt>
<totfact> 0.41053101E+03</totfact>
</mgrwt>
</event>
<event>
 7    1  0.4230786E-006  0.1456841E+03  0.7546771E-02  0.1219461E+00
         -2   -1    0    0    0  501 -0.00000000000E+00  0.00000000000E+00  0.29651065066E+02  0.29651065066E+02  0.00000000000E+00 0.  1.
          2   -1    0    0  501    0  0.00000000000E+00 -0.00000000000E+00 -0.61941710610E+03  0.61941710610E+03  0.00000000000E+00 0. -1.
         23    2    1    2    0    0  0.74264877396E+02  0.91584915328E+01 -0.44180380302E+03  0.46520368296E+03  0.12499886517E+03 0.  0.
          5    1    3    3  502    0  0.33574555275E+02  0.58020221334E+02 -0.12371218084E+03  0.14078490876E+03  0.47000000000E+01 0.  1.
         -5    1    3    3    0  502  0.40690322121E+02 -0.48861729802E+02 -0.31809162217E+03  0.32441877420E+03  0.47000000000E+01 0.  1.
        -11    1    1    2    0    0 -0.37913357338E+02 -0.13877870880E+02 -0.10665415565E+02  0.41758460867E+02  0.00000000000E+00 0.  1.
         11    1    1    2    0    0 -0.36351520057E+02  0.47193793476E+01 -0.13729682245E+03  0.14210602734E+03  0.00000000000E+00 0. -1.
<mgrwt>
<rscale>  0 0.13553870E+03</rscale>
<asrwt>0</asrwt>
<pdfrwt beam="2">  1        2 0.95294936E-01 0.14568413E+03</pdfrwt>
<pdfrwt beam="1">  1       -2 0.45617025E-02 0.14568413E+03</pdfrwt>
<totfact> 0.10497742E+04</totfact>
</mgrwt>
</event>
<event>
 7    1  0.4230786E-006  0.1671239E+03  0.7546771E-02  0.1187829E+00
         -1   -1    0    0    0  501 -0.00000000000E+00  0.00000000000E+00  0.24983221681E+02  0.24983221681E+02  0.00000000000E+00 0.  1.
          1   -1    0    0  501    0  0.00000000000E+00 -0.00000000000E+00 -0.11879748954E+04  0.11879748954E+04  0.00000000000E+00 0. -1.
         23    2    1    2    0    0 -0.10262529686E+03 -0.42174623729E+02 -0.35479064524E+03  0.39218211159E+03  0.12497902329E+03 0.  0.
          5    1    3    3  502    0  0.57607305311E+00 -0.38387282532E+02 -0.23779062888E+02  0.45403184384E+02  0.47000000000E+01 0. -1.
         -5    1    3    3    0  502 -0.10320136992E+03 -0.37873411968E+01 -0.33101158235E+03  0.34677892721E+03  0.47000000000E+01 0. -1.
        -11    1    1    2    0    0 -0.16885061763E+02  0.28646092408E+01 -0.83967946544E+02  0.85696717228E+02  0.00000000000E+00 0.  1.
         11    1    1    2    0    0  0.11951035863E+03  0.39310014488E+02 -0.72423308193E+03  0.73507928826E+03  0.00000000000E+00 0. -1.
<mgrwt>
<rscale>  0 0.16077064E+03</rscale>
<asrwt>0</asrwt>
<pdfrwt beam="2">  1        1 0.18276533E+00 0.16712393E+03</pdfrwt>
<pdfrwt beam="1">  1       -1 0.38435734E-02 0.16712393E+03</pdfrwt>
<totfact> 0.30233805E+03</totfact>
</mgrwt>
</event>
<event>
 7    1  0.4230786E-006  0.1265812E+03  0.7546771E-02  0.1247399E+00
          1   -1    0    0  501    0  0.00000000000E+00  0.00000000000E+00  0.20645064872E+02  0.20645064872E+02  0.00000000000E+00 0. -1.
         -1   -1    0    0    0  501 -0.00000000000E+00 -0.00000000000E+00 -0.65291632537E+03  0.65291632537E+03  0.00000000000E+00 0.  1.
         23    2    1    2    0    0 -0.19812300310E+02  0.20021827100E+01 -0.46375100283E+03  0.48071591109E+03  0.12500503418E+03 0.  0.
          5    1    3    3  502    0  0.53054083414E+02  0.34430723322E+00 -0.17990759641E+03  0.18762645752E+03  0.47000000000E+01 0.  1.
         -5    1    3    3    0  502 -0.72866383724E+02  0.16578754768E+01 -0.28384340642E+03  0.29308945357E+03  0.47000000000E+01 0.  1.
        -11    1    1    2    0    0  0.52102007449E+02  0.15606222737E+02 -0.77548467794E+02  0.94720315802E+02  0.00000000000E+00 0. -1.
         11    1    1    2    0    0 -0.32289707139E+02 -0.17608405447E+02 -0.90971789871E+02  0.98125163347E+02  0.00000000000E+00 0.  1.
<mgrwt>
<rscale>  0 0.11742953E+03</rscale>
<asrwt>0</asrwt>
<pdfrwt beam="1">  1        1 0.31761641E-02 0.12658118E+03</pdfrwt>
<pdfrwt beam="2">  1       -1 0.10044866E+00 0.12658118E+03</pdfrwt>
<totfact> 0.30103633E+03</totfact>
</mgrwt>
</event>
<event>
 7    1  0.4230786E-006  0.1324940E+03  0.7546771E-02  0.1236856E+00
         -1   -1    0    0    0  501 -0.00000000000E+00  0.00000000000E+00  0.19329465283E+03  0.19329465283E+03  0.00000000000E+00 0.  1.
          1   -1    0    0  501    0  0.00000000000E+00 -0.00000000000E+00 -0.83814944345E+02  0.83814944345E+02  0.00000000000E+00 0. -1.
         23    2    1    2    0    0  0.14674354893E+02  0.41410195541E+02  0.11544410855E+03  0.17573272907E+03  0.12499803551E+03 0.  0.
          5    1    3    3  502    0  0.58490827958E+02 -0.15256231235E+02  0.49842759986E+02  0.78487707762E+02  0.47000000000E+01 0.  1.
         -5    1    3    3    0  502 -0.43816473065E+02  0.56666426776E+02  0.65601348568E+02  0.97245021309E+02  0.47000000000E+01 0.  1.
        -11    1    1    2    0    0  0.12573604328E+02 -0.60089035128E+02  0.13742543644E+02  0.62909817788E+02  0.00000000000E+00 0.  1.
         11    1    1    2    0    0 -0.27247959221E+02  0.18678839586E+02 -0.19706943709E+02  0.38467050320E+02  0.00000000000E+00 0. -1.
<mgrwt>
<rscale>  0 0.12386356E+03</rscale>
<asrwt>0</asrwt>
<pdfrwt beam="2">  1        1 0.12894607E-01 0.13249396E+03</pdfrwt>
<pdfrwt beam="1">  1       -1 0.29737639E-01 0.13249396E+03</pdfrwt>
<totfact> 0.45131678E+03</totfact>
</mgrwt>
</event>
<event>
 7    1  0.4230786E-006  0.1464575E+03  0.7546771E-02  0.1226824E+00
          1   -1    0    0  501    0  0.00000000000E+00  0.00000000000E+00  0.53020734967E+02  0.53020734967E+02  0.00000000000E+00 0. -1.
         -1   -1    0    0    0  501 -0.00000000000E+00 -0.00000000000E+00 -0.28119402946E+03  0.28119402946E+03  0.00000000000E+00 0.  1.
         23    2    1    2    0    0 -0.71058722573E+02 -0.27858547350E+02 -0.17368150726E+03  0.22718948981E+03  0.12499743038E+03 0.  0.
          5    1    3    3  502    0 -0.77564734205E+02 -0.17808305994E+02 -0.19021309388E+03  0.20624387225E+03  0.47000000000E+01 0. -1.
         -5    1    3    3    0  502  0.65060116315E+01 -0.10050241355E+02  0.16531586625E+02  0.20945617561E+02  0.47000000000E+01 0. -1.
        -11    1    1    2    0    0  0.38195645773E+02 -0.60512897328E+01 -0.56393570514E+01  0.39081041586E+02  0.00000000000E+00 0. -1.
         11    1    1    2    0    0  0.32863076800E+02  0.33909837082E+02 -0.48852430181E+02  0.67944233032E+02  0.00000000000E+00 0.  1.
<mgrwt>
<rscale>  0 0.13042641E+03</rscale>
<asrwt>0</asrwt>
<pdfrwt beam="1">  1        1 0.81570363E-02 0.14645750E+03</pdfrwt>
<pdfrwt beam="2">  1       -1 0.43260619E-01 0.14645750E+03</pdfrwt>
<totfact> 0.43627060E+03</totfact>
</mgrwt>
</event>
<event>
 7    1  0.4230786E-006  0.1207487E+03  0.7546771E-02  0.1250695E+00
         -1   -1    0    0    0  501 -0.00000000000E+00  0.00000000000E+00  0.19549904367E+03  0.19549904367E+03  0.00000000000E+00 0.  1.
          1   -1    0    0  501    0  0.00000000000E+00 -0.00000000000E+00 -0.15054577102E+03  0.15054577102E+03  0.00000000000E+00 0. -1.
         23    2    1    2    0    0 -0.44719722779E+02  0.60070509257E+01  0.15507491293E+03  0.19654128895E+03  0.11200139006E+03 0.  0.
          5    1    3    3  502    0  0.36317073264E+02  0.10172530463E+02  0.64321425509E+02  0.74711083288E+02  0.47000000000E+01 0. -1.
         -5    1    3    3    0  502 -0.81036796043E+02 -0.41654795372E+01  0.90753487418E+02  0.12183020566E+03  0.47000000000E+01 0.  1.
        -11    1    1    2    0    0  0.62161572055E+02  0.75648753369E+01 -0.36160050815E+02  0.72310702211E+02  0.00000000000E+00 0. -1.
         11    1    1    2    0    0 -0.17441849276E+02 -0.13571926263E+02 -0.73961589465E+02  0.77192823532E+02  0.00000000000E+00 0.  1.
<mgrwt>
<rscale>  0 0.11550938E+03</rscale>
<asrwt>0</asrwt>
<pdfrwt beam="2">  1        1 0.23160888E-01 0.12074870E+03</pdfrwt>
<pdfrwt beam="1">  1       -1 0.30076776E-01 0.12074870E+03</pdfrwt>
<totfact> 0.20818095E+03</totfact>
</mgrwt>
</event>
<event>
 7    1  0.4230786E-006  0.1284174E+03  0.7546771E-02  0.1246520E+00
         -2   -1    0    0    0  501 -0.00000000000E+00  0.00000000000E+00  0.37919247812E+02  0.37919247812E+02  0.00000000000E+00 0.  1.
          2   -1    0    0  501    0  0.00000000000E+00 -0.00000000000E+00 -0.35322911943E+03  0.35322911943E+03  0.00000000000E+00 0. -1.
         23    2    1    2    0    0  0.77869772309E+01 -0.28286546435E+02 -0.12110703977E+03  0.17651611388E+03  0.12502102884E+03 0.  0.
          5    1    3    3  502    0 -0.40438812511E+02 -0.51423280349E+02 -0.98314468088E+02  0.11818407657E+03  0.47000000000E+01 0. -1.
         -5    1    3    3    0  502  0.48225789742E+02  0.23136733914E+02 -0.22792571685E+02  0.58332037307E+02  0.47000000000E+01 0. -1.
        -11    1    1    2    0    0 -0.41001100270E+02  0.38308346572E+02 -0.10792808199E+03  0.12164329214E+03  0.00000000000E+00 0. -1.
         11    1    1    2    0    0  0.33214123039E+02 -0.10021800137E+02 -0.86274749850E+02  0.92988961221E+02  0.00000000000E+00 0.  1.
<mgrwt>
<rscale>  0 0.11794876E+03</rscale>
<asrwt>0</asrwt>
<pdfrwt beam="2">  1        2 0.54342940E-01 0.12841738E+03</pdfrwt>
<pdfrwt beam="1">  1       -2 0.58337306E-02 0.12841738E+03</pdfrwt>
<totfact> 0.13275228E+04</totfact>
</mgrwt>
</event>
<event>
 7    1  0.4230786E-006  0.2002184E+03  0.7546771E-02  0.1153860E+00
          1   -1    0    0  501    0  0.00000000000E+00  0.00000000000E+00  0.66666704709E+03  0.66666704709E+03  0.00000000000E+00 0. -1.
         -1   -1    0    0    0  501 -0.00000000000E+00 -0.00000000000E+00 -0.69891085612E+02  0.69891085612E+02  0.00000000000E+00 0.  1.
         23    2    1    2    0    0 -0.11701090869E+03 -0.10382231088E+03  0.13731189948E+03  0.24277966559E+03  0.12496712887E+03 0.  0.
          5    1    3    3  502    0 -0.12359875290E+03 -0.91630304866E+02  0.61817704404E+02  0.16588032755E+03  0.47000000000E+01 0.  1.
         -5    1    3    3    0  502  0.65878442134E+01 -0.12192006011E+02  0.75494195075E+02  0.76899338047E+02  0.47000000000E+01 0.  1.
        -11    1    1    2    0    0 -0.91646270901E+01  0.66281121762E+01  0.52877136033E+01  0.12485278366E+02  0.00000000000E+00 0.  1.
         11    1    1    2    0    0  0.12617553578E+03  0.97194198701E+02  0.45417634840E+03  0.48129318875E+03  0.00000000000E+00 0. -1.
<mgrwt>
<rscale>  0 0.19519243E+03</rscale>
<asrwt>0</asrwt>
<pdfrwt beam="1">  1        1 0.10256416E+00 0.20021840E+03</pdfrwt>
<pdfrwt beam="2">  1       -1 0.10752475E-01 0.20021840E+03</pdfrwt>
<totfact> 0.16410913E+03</totfact>
</mgrwt>
</event>
<event>
 7    1  0.4230786E-006  0.1421546E+03  0.7546771E-02  0.1221014E+00
          1   -1    0    0  501    0  0.00000000000E+00  0.00000000000E+00  0.25541345651E+03  0.25541345651E+03  0.00000000000E+00 0. -1.
         -1   -1    0    0    0  501 -0.00000000000E+00 -0.00000000000E+00 -0.10974238421E+03  0.10974238421E+03  0.00000000000E+00 0.  1.
         23    2    1    2    0    0 -0.61019856042E+02  0.29357096640E+02 -0.39781590217E+02  0.14761606935E+03  0.12499066788E+03 0.  0.
          5    1    3    3  502    0 -0.34845127592E+02  0.78627462069E+02 -0.25696884750E+02  0.89882593388E+02  0.47000000000E+01 0. -1.
         -5    1    3    3    0  502 -0.26174728449E+02 -0.49270365428E+02 -0.14084705467E+02  0.57733475964E+02  0.47000000000E+01 0. -1.
        -11    1    1    2    0    0  0.49003525431E+02 -0.67068247605E+00  0.26779907662E+02  0.55847638930E+02  0.00000000000E+00 0.  1.
         11    1    1    2    0    0  0.12016330610E+02 -0.28686414164E+02  0.15867275486E+03  0.16169213244E+03  0.00000000000E+00 0. -1.
<mgrwt>
<rscale>  0 0.13443864E+03</rscale>
<asrwt>0</asrwt>
<pdfrwt beam="1">  1        1 0.39294378E-01 0.14215460E+03</pdfrwt>
<pdfrwt beam="2">  1       -1 0.16883444E-01 0.14215460E+03</pdfrwt>
<totfact> 0.27757740E+03</totfact>
</mgrwt>
</event>
<event>
 7    1  0.4230786E-006  0.1480927E+03  0.7546771E-02  0.1211781E+00
         -2   -1    0    0    0  501 -0.00000000000E+00  0.00000000000E+00  0.73919311890E+02  0.73919311890E+02  0.00000000000E+00 0.  1.
          2   -1    0    0  501    0  0.00000000000E+00 -0.00000000000E+00 -0.24875683684E+03  0.24875683684E+03  0.00000000000E+00 0. -1.
         23    2    1    2    0    0 -0.77348647262E+02 -0.17913277533E+02 -0.82839297650E+02  0.16968732889E+03  0.12501096594E+03 0.  0.
          5    1    3    3  502    0 -0.11125624449E+03 -0.53474675969E+01 -0.59160099412E+02  0.12620837813E+03  0.47000000000E+01 0. -1.
         -5    1    3    3    0  502  0.33907597233E+02 -0.12565809936E+02 -0.23679198238E+02  0.43478950754E+02  0.47000000000E+01 0. -1.
        -11    1    1    2    0    0  0.26041890865E+01 -0.32013190460E+02 -0.28460442089E+02  0.42914134363E+02  0.00000000000E+00 0.  1.
         11    1    1    2    0    0  0.74744458175E+02  0.49926467993E+02 -0.63537785213E+02  0.11007468548E+03  0.00000000000E+00 0. -1.
<mgrwt>
<rscale>  0 0.14115652E+03</rscale>
<asrwt>0</asrwt>
<pdfrwt beam="2">  1        2 0.38270283E-01 0.14809267E+03</pdfrwt>
<pdfrwt beam="1">  1       -2 0.11372202E-01 0.14809267E+03</pdfrwt>
<totfact> 0.69224759E+03</totfact>
</mgrwt>
</event>
<event>
 7    1  0.4230786E-006  0.1400559E+03  0.7546771E-02  0.1230232E+00
          3   -1    0    0  501    0  0.00000000000E+00  0.00000000000E+00  0.54244071967E+02  0.54244071967E+02  0.00000000000E+00 0. -1.
         -3   -1    0    0    0  501 -0.00000000000E+00 -0.00000000000E+00 -0.49851855228E+03  0.49851855228E+03  0.00000000000E+00 0.  1.
         23    2    1    2    0    0 -0.62909581925E+02 -0.54697989348E+01 -0.43164105320E+03  0.45379472349E+03  0.12501247163E+03 0.  0.
          5    1    3    3  502    0  0.32624420858E+00  0.87349682772E+01 -0.34672875500E+03  0.34687076218E+03  0.47000000000E+01 0. -1.
         -5    1    3    3    0  502 -0.63235826134E+02 -0.14204767212E+02 -0.84912298190E+02  0.10692396131E+03  0.47000000000E+01 0. -1.
        -11    1    1    2    0    0  0.39042785619E+02 -0.58049557134E+01  0.29480181995E+02  0.49265786812E+02  0.00000000000E+00 0. -1.
         11    1    1    2    0    0  0.23866796307E+02  0.11274754648E+02 -0.42113609116E+02  0.49702113950E+02  0.00000000000E+00 0.  1.
<mgrwt>
<rscale>  0 0.12814679E+03</rscale>
<asrwt>0</asrwt>
<pdfrwt beam="1">  1        3 0.83452416E-02 0.14005589E+03</pdfrwt>
<pdfrwt beam="2">  1       -3 0.76695164E-01 0.14005589E+03</pdfrwt>
<totfact> 0.37981491E+02</totfact>
</mgrwt>
</event>
<event>
 7    1  0.4230786E-006  0.1403195E+03  0.7546771E-02  0.1223353E+00
          1   -1    0    0  501    0  0.00000000000E+00  0.00000000000E+00  0.81267915721E+03  0.81267915721E+03  0.00000000000E+00 0. -1.
         -1   -1    0    0    0  501 -0.00000000000E+00 -0.00000000000E+00 -0.20089125194E+02  0.20089125194E+02  0.00000000000E+00 0.  1.
         23    2    1    2    0    0 -0.58310646565E+02  0.25602418526E+02  0.37951778924E+03  0.40462736542E+03  0.12503574353E+03 0.  0.
          5    1    3    3  502    0 -0.65800570897E+02  0.21709206542E+01  0.78463289608E+02  0.10253295003E+03  0.47000000000E+01 0.  1.
         -5    1    3    3    0  502  0.74899243312E+01  0.23431497872E+02  0.30105449963E+03  0.30209441539E+03  0.47000000000E+01 0.  1.
        -11    1    1    2    0    0  0.14580177583E+02  0.29827774079E+02  0.65089738264E+02  0.73068130619E+02  0.00000000000E+00 0.  1.
         11    1    1    2    0    0  0.43730468982E+02 -0.55430192605E+02  0.34798250451E+03  0.35507278636E+03  0.00000000000E+00 0. -1.
<mgrwt>
<rscale>  0 0.13280398E+03</rscale>
<asrwt>0</asrwt>
<pdfrwt beam="1">  1        1 0.12502754E+00 0.14031947E+03</pdfrwt>
<pdfrwt beam="2">  1       -1 0.30906353E-02 0.14031947E+03</pdfrwt>
<totfact> 0.78432913E+03</totfact>
</mgrwt>
</event>
<event>
 7    1  0.4230786E-006  0.1593434E+03  0.7546771E-02  0.1197456E+00
         -1   -1    0    0    0  501 -0.00000000000E+00  0.00000000000E+00  0.17110101128E+03  0.17110101128E+03  0.00000000000E+00 0.  1.
          1   -1    0    0  501    0  0.00000000000E+00 -0.00000000000E+00 -0.13281455369E+03  0.13281455369E+03  0.00000000000E+00 0. -1.
         23    2    1    2    0    0  0.11575920248E+02  0.98131570452E+02 -0.15032255178E+02  0.16005085377E+03  0.12500600005E+03 0.  0.
          5    1    3    3  502    0  0.55832763656E+02  0.80389027688E+01  0.74164810845E+01  0.57087788947E+02  0.47000000000E+01 0. -1.
         -5    1    3    3    0  502 -0.44256843408E+02  0.90092667683E+02 -0.22448736262E+02  0.10296306483E+03  0.47000000000E+01 0. -1.
        -11    1    1    2    0    0 -0.30378805901E+02 -0.10808549066E+03  0.43089923262E+02  0.12025841603E+03  0.00000000000E+00 0.  1.
         11    1    1    2    0    0  0.18802885653E+02  0.99539202104E+01  0.10228789506E+02  0.23606295160E+02  0.00000000000E+00 0. -1.
<mgrwt>
<rscale>  0 0.15248178E+03</rscale>
<asrwt>0</asrwt>
<pdfrwt beam="2">  1        1 0.20433008E-01 0.15934336E+03</pdfrwt>
<pdfrwt beam="1">  1       -1 0.26323233E-01 0.15934336E+03</pdfrwt>
<totfact> 0.30845454E+03</totfact>
</mgrwt>
</event>
<event>
 7    1  0.4230786E-006  0.1358621E+03  0.7546771E-02  0.1231822E+00
         -2   -1    0    0    0  501 -0.00000000000E+00  0.00000000000E+00  0.17824031482E+03  0.17824031482E+03  0.00000000000E+00 0.  1.
          2   -1    0    0  501    0  0.00000000000E+00 -0.00000000000E+00 -0.81835566018E+02  0.81835566018E+02  0.00000000000E+00 0. -1.
         23    2    1    2    0    0  0.19640656140E+02 -0.49541257534E+02  0.69425533530E+02  0.15257269023E+03  0.12497371534E+03 0.  0.
          5    1    3    3  502    0 -0.24164466189E+02 -0.20346139926E+02 -0.27518681896E+02  0.42157498614E+02  0.47000000000E+01 0.  1.
         -5    1    3    3    0  502  0.43805122328E+02 -0.29195117608E+02  0.96944215426E+02  0.11041519161E+03  0.47000000000E+01 0.  1.
        -11    1    1    2    0    0  0.13913818302E+02  0.44781566781E+01  0.45937841153E+02  0.48207193205E+02  0.00000000000E+00 0.  1.
         11    1    1    2    0    0 -0.33554474442E+02  0.45063100856E+02 -0.18958625876E+02  0.59295997411E+02  0.00000000000E+00 0. -1.
<mgrwt>
<rscale>  0 0.12710062E+03</rscale>
<asrwt>0</asrwt>
<pdfrwt beam="2">  1        2 0.12590087E-01 0.13586214E+03</pdfrwt>
<pdfrwt beam="1">  1       -2 0.27421587E-01 0.13586214E+03</pdfrwt>
<totfact> 0.55126920E+03</totfact>
</mgrwt>
</event>
<event>
 7    1  0.4230786E-006  0.1309008E+03  0.7546771E-02  0.1239543E+00
         -2   -1    0    0    0  501 -0.00000000000E+00  0.00000000000E+00  0.42311632520E+02  0.42311632520E+02  0.00000000000E+00 0.  1.
          2   -1    0    0  501    0  0.00000000000E+00 -0.00000000000E+00 -0.31328979459E+03  0.31328979459E+03  0.00000000000E+00 0. -1.
         23    2    1    2    0    0 -0.14845624703E+02  0.35922763570E+02 -0.15609468918E+03  0.20371690699E+03  0.12499675472E+03 0.  0.
          5    1    3    3  502    0  0.71317098217E+01  0.36405371465E+02 -0.17210389517E+03  0.17611942849E+03  0.47000000000E+01 0. -1.
         -5    1    3    3    0  502 -0.21977334525E+02 -0.48260789594E+00  0.16009205997E+02  0.27597478505E+02  0.47000000000E+01 0. -1.
        -11    1    1    2    0    0 -0.25166666903E+02  0.16976925792E+02 -0.53492815894E+02  0.61506572695E+02  0.00000000000E+00 0.  1.
         11    1    1    2    0    0  0.40012291606E+02 -0.52899689362E+02 -0.61390657005E+02  0.90377947430E+02  0.00000000000E+00 0. -1.
<mgrwt>
<rscale>  0 0.12218004E+03</rscale>
<asrwt>0</asrwt>
<pdfrwt beam="2">  1        2 0.48198428E-01 0.13090083E+03</pdfrwt>
<pdfrwt beam="1">  1       -2 0.65094821E-02 0.13090083E+03</pdfrwt>
<totfact> 0.12785709E+04</totfact>
</mgrwt>
</event>
<event>
 7    1  0.4230786E-006  0.1274506E+03  0.7546771E-02  0.1245731E+00
         -2   -1    0    0    0  501 -0.00000000000E+00  0.00000000000E+00  0.88757819535E+02  0.88757819535E+02  0.00000000000E+00 0.  1.
          2   -1    0    0  501    0  0.00000000000E+00 -0.00000000000E+00 -0.15497316361E+03  0.15497316361E+03  0.00000000000E+00 0. -1.
         23    2    1    2    0    0  0.24022464112E+02  0.64191846818E+01  0.85881547626E+00  0.12745354241E+03  0.12500153277E+03 0.  0.
          5    1    3    3  502    0  0.10458998155E+02  0.35333921401E+02 -0.52963534022E+02  0.64692368793E+02  0.47000000000E+01 0.  1.
         -5    1    3    3    0  502  0.13563465956E+02 -0.28914736719E+02  0.53822349498E+02  0.62761173617E+02  0.47000000000E+01 0.  1.
        -11    1    1    2    0    0  0.60508256295E+01 -0.31564591914E+02  0.66123665845E+01  0.32812487643E+02  0.00000000000E+00 0.  1.
         11    1    1    2    0    0 -0.30073289741E+02  0.25145407232E+02 -0.73686526135E+02  0.83464953091E+02  0.00000000000E+00 0. -1.
<mgrwt>
<rscale>  0 0.11841764E+03</rscale>
<asrwt>0</asrwt>
<pdfrwt beam="2">  1        2 0.23842025E-01 0.12745065E+03</pdfrwt>
<pdfrwt beam="1">  1       -2 0.13655049E-01 0.12745065E+03</pdfrwt>
<totfact> 0.85345776E+03</totfact>
</mgrwt>
</event>
<event>
 7    1  0.4230786E-006  0.1829857E+03  0.7546771E-02  0.1170307E+00
          3   -1    0    0  501    0  0.00000000000E+00  0.00000000000E+00  0.26467894193E+02  0.26467894193E+02  0.00000000000E+00 0. -1.
         -3   -1    0    0    0  501 -0.00000000000E+00 -0.00000000000E+00 -0.11606651974E+04  0.11606651974E+04  0.00000000000E+00 0.  1.
         23    2    1    2    0    0 -0.13042916531E+03  0.29163514098E+02 -0.70797481195E+03  0.73124010028E+03  0.12498588795E+03 0.  0.
          5    1    3    3  502    0  0.13837040175E+02 -0.50031071810E+01 -0.23601091003E+03  0.23651582276E+03  0.47000000000E+01 0.  1.
         -5    1    3    3    0  502 -0.14426620548E+03  0.34166621279E+02 -0.47196390192E+03  0.49472427752E+03  0.47000000000E+01 0.  1.
        -11    1    1    2    0    0  0.10773243592E+03 -0.58981513636E+02 -0.29832691740E+03  0.32262059194E+03  0.00000000000E+00 0.  1.
         11    1    1    2    0    0  0.22696729393E+02  0.29817999538E+02 -0.12789557384E+03  0.13327239936E+03  0.00000000000E+00 0. -1.
<mgrwt>
<rscale>  0 0.17743695E+03</rscale>
<asrwt>0</asrwt>
<pdfrwt beam="1">  1        3 0.40719846E-02 0.18298565E+03</pdfrwt>
<pdfrwt beam="2">  1       -3 0.17856384E+00 0.18298565E+03</pdfrwt>
<totfact> 0.16687108E+02</totfact>
</mgrwt>
</event>
<event>
 7    1  0.4230786E-006  0.1302570E+03  0.7546771E-02  0.1240790E+00
         -1   -1    0    0    0  501 -0.00000000000E+00  0.00000000000E+00  0.24476617840E+03  0.24476617840E+03  0.00000000000E+00 0.  1.
          1   -1    0    0  501    0  0.00000000000E+00 -0.00000000000E+00 -0.53477591880E+02  0.53477591880E+02  0.00000000000E+00 0. -1.
         23    2    1    2    0    0 -0.34225091582E+02 -0.13093079438E+02  0.10207710532E+03  0.16548900705E+03  0.12499636155E+03 0.  0.
          5    1    3    3  502    0 -0.10830118692E+01  0.18508701831E+02 -0.24337200885E+02  0.30953744605E+02  0.47000000000E+01 0. -1.
         -5    1    3    3    0  502 -0.33142079712E+02 -0.31601781269E+02  0.12641430620E+03  0.13453526244E+03  0.47000000000E+01 0. -1.
        -11    1    1    2    0    0  0.20709552148E+02  0.37375346671E+01  0.10669906694E+03  0.10875451991E+03  0.00000000000E+00 0.  1.
         11    1    1    2    0    0  0.13515539434E+02  0.93555447711E+01 -0.17487585743E+02  0.24000243317E+02  0.00000000000E+00 0. -1.
<mgrwt>
<rscale>  0 0.12140923E+03</rscale>
<asrwt>0</asrwt>
<pdfrwt beam="2">  1        1 0.82273220E-02 0.13025696E+03</pdfrwt>
<pdfrwt beam="1">  1       -1 0.37656334E-01 0.13025696E+03</pdfrwt>
<totfact> 0.54610379E+03</totfact>
</mgrwt>
</event>
<event>
 7    1  0.4230786E-006  0.1385669E+03  0.7546771E-02  0.1226565E+00
         -2   -1    0    0    0  501 -0.00000000000E+00  0.00000000000E+00  0.97498887004E+02  0.97498887004E+02  0.00000000000E+00 0.  1.
          2   -1    0    0  501    0  0.00000000000E+00 -0.00000000000E+00 -0.27764830648E+03  0.27764830648E+03  0.00000000000E+00 0. -1.
         23    2    1    2    0    0  0.34937426137E+02 -0.48547188613E+02  0.26752273556E+02  0.14112568618E+03  0.12499328739E+03 0.  0.
          5    1    3    3  502    0 -0.10727408265E+02  0.34814126866E+02 -0.11604762030E+02  0.38520919243E+02  0.47000000000E+01 0. -1.
         -5    1    3    3    0  502  0.45664834403E+02 -0.83361315479E+02  0.38357035586E+02  0.10260476694E+03  0.47000000000E+01 0. -1.
        -11    1    1    2    0    0  0.23697175891E+02  0.44458041118E+02 -0.10248830763E+03  0.11420125554E+03  0.00000000000E+00 0. -1.
         11    1    1    2    0    0 -0.58634602029E+02  0.40891474949E+01 -0.10441338540E+03  0.11982025176E+03  0.00000000000E+00 0.  1.
<mgrwt>
<rscale>  0 0.13060228E+03</rscale>
<asrwt>0</asrwt>
<pdfrwt beam="2">  1        2 0.42715123E-01 0.13856686E+03</pdfrwt>
<pdfrwt beam="1">  1       -2 0.14999829E-01 0.13856686E+03</pdfrwt>
<totfact> 0.39254456E+03</totfact>
</mgrwt>
</event>
<event>
 7    1  0.4230786E-006  0.3800635E+03  0.7546771E-02  0.1051890E+00
         -4   -1    0    0    0  501 -0.00000000000E+00  0.00000000000E+00  0.21442350353E+03  0.21442350353E+03  0.00000000000E+00 0.  1.
          4   -1    0    0  501    0  0.00000000000E+00 -0.00000000000E+00 -0.68474657732E+03  0.68474657732E+03  0.00000000000E+00 0. -1.
         23    2    1    2    0    0 -0.28585934321E+03 -0.21704487136E+03 -0.14502070753E+03  0.40679140055E+03  0.12499679062E+03 0.  0.
          5    1    3    3  502    0 -0.18975522643E+03 -0.69002338619E+02 -0.59125506701E+02  0.21044306649E+03  0.47000000000E+01 0.  1.
         -5    1    3    3    0  502 -0.96104116789E+02 -0.14804253274E+03 -0.85895200827E+02  0.19634833406E+03  0.47000000000E+01 0.  1.
        -11    1    1    2    0    0  0.32982237772E+02  0.54321883106E+02 -0.27772195880E+02  0.69354090410E+02  0.00000000000E+00 0.  1.
         11    1    1    2    0    0  0.25287710544E+03  0.16272298826E+03 -0.29753017037E+03  0.42302458988E+03  0.00000000000E+00 0. -1.
<mgrwt>
<rscale>  0 0.37742394E+03</rscale>
<asrwt>0</asrwt>
<pdfrwt beam="2">  1        4 0.10534563E+00 0.38006347E+03</pdfrwt>
<pdfrwt beam="1">  1       -4 0.32988232E-01 0.38006347E+03</pdfrwt>
<totfact> 0.12495359E+01</totfact>
</mgrwt>
</event>
<event>
 7    1  0.4230786E-006  0.1404189E+03  0.7546771E-02  0.1224208E+00
          1   -1    0    0  501    0  0.00000000000E+00  0.00000000000E+00  0.16787344732E+03  0.16787344732E+03  0.00000000000E+00 0. -1.
         -1   -1    0    0    0  501 -0.00000000000E+00 -0.00000000000E+00 -0.12882092334E+03  0.12882092334E+03  0.00000000000E+00 0.  1.
         23    2    1    2    0    0  0.60547838575E+02 -0.20649541094E+02 -0.55870559934E+02  0.15112575565E+03  0.12500012100E+03 0.  0.
          5    1    3    3  502    0  0.39304498688E+00 -0.44370142440E+02 -0.71642673103E+02  0.84401579569E+02  0.47000000000E+01 0. -1.
         -5    1    3    3    0  502  0.60154793588E+02  0.23720601346E+02  0.15772113168E+02  0.66724176081E+02  0.47000000000E+01 0. -1.
        -11    1    1    2    0    0 -0.25480932466E+02  0.41920276687E+02  0.92231679494E+02  0.10446659858E+03  0.00000000000E+00 0. -1.
         11    1    1    2    0    0 -0.35066906109E+02 -0.21270735593E+02  0.26914044256E+01  0.41102016429E+02  0.00000000000E+00 0.  1.
<mgrwt>
<rscale>  0 0.13221307E+03</rscale>
<asrwt>0</asrwt>
<pdfrwt beam="1">  1        1 0.25826684E-01 0.14041893E+03</pdfrwt>
<pdfrwt beam="2">  1       -1 0.19818604E-01 0.14041893E+03</pdfrwt>
<totfact> 0.36214282E+03</totfact>
</mgrwt>
</event>
<event>
 7    1  0.4230786E-006  0.1250288E+03  0.7546771E-02  0.1243339E+00
         -2   -1    0    0    0  501 -0.00000000000E+00  0.00000000000E+00  0.97501958514E+02  0.97501958514E+02  0.00000000000E+00 0. -1.
          2   -1    0    0  501    0  0.00000000000E+00 -0.00000000000E+00 -0.16293127388E+03  0.16293127388E+03  0.00000000000E+00 0.  1.
         23    2    1    2    0    0  0.26732190283E+01  0.42080089872E+00  0.17409581534E+02  0.12623505873E+03  0.12499949340E+03 0.  0.
          5    1    3    3  502    0  0.73047574103E+01 -0.28249547638E+02 -0.46945575220E+02  0.55474079130E+02  0.47000000000E+01 0. -1.
         -5    1    3    3    0  502 -0.46315383820E+01  0.28670348537E+02  0.64355156754E+02  0.70760979599E+02  0.47000000000E+01 0. -1.
        -11    1    1    2    0    0  0.47593694850E+02  0.15646909763E+02 -0.25307197335E+02  0.56128778818E+02  0.00000000000E+00 0. -1.
         11    1    1    2    0    0 -0.50266913879E+02 -0.16067710662E+02 -0.57531699560E+02  0.78069394843E+02  0.00000000000E+00 0.  1.
<mgrwt>
<rscale>  0 0.11985374E+03</rscale>
<asrwt>0</asrwt>
<pdfrwt beam="2">  1        2 0.25066349E-01 0.12502878E+03</pdfrwt>
<pdfrwt beam="1">  1       -2 0.15000302E-01 0.12502878E+03</pdfrwt>
<totfact> 0.69236007E+03</totfact>
</mgrwt>
</event>
<event>
 7    1  0.4230786E-006  0.1903399E+03  0.7546771E-02  0.1161839E+00
          2   -1    0    0  501    0  0.00000000000E+00  0.00000000000E+00  0.77070250788E+03  0.77070250788E+03  0.00000000000E+00 0. -1.
         -2   -1    0    0    0  501 -0.00000000000E+00 -0.00000000000E+00 -0.69960534907E+02  0.69960534907E+02  0.00000000000E+00 0.  1.
         23    2    1    2    0    0  0.14246024872E+03 -0.18043927150E+02  0.99949162033E+02  0.21498629544E+03  0.12493504899E+03 0.  0.
          5    1    3    3  502    0  0.67654274224E+02 -0.57418609094E+02  0.95140179364E+02  0.13018349058E+03  0.47000000000E+01 0.  1.
         -5    1    3    3    0  502  0.74805974492E+02  0.39374681944E+02  0.48089826695E+01  0.84802804861E+02  0.47000000000E+01 0.  1.
        -11    1    1    2    0    0 -0.24023891741E+02  0.43735589873E+02  0.12259815435E+03  0.13236410633E+03  0.00000000000E+00 0.  1.
         11    1    1    2    0    0 -0.11843635698E+03 -0.25691662723E+02  0.47819465659E+03  0.49331264101E+03  0.00000000000E+00 0. -1.
<mgrwt>
<rscale>  0 0.18630278E+03</rscale>
<asrwt>0</asrwt>
<pdfrwt beam="1">  1        2 0.11856961E+00 0.19033989E+03</pdfrwt>
<pdfrwt beam="2">  1       -2 0.10763160E-01 0.19033989E+03</pdfrwt>
<totfact> 0.21787183E+03</totfact>
</mgrwt>
</event>
<event>
 7    1  0.4230786E-006  0.1254939E+03  0.7546771E-02  0.1249244E+00
          2   -1    0    0  501    0  0.00000000000E+00  0.00000000000E+00  0.25882357240E+03  0.25882357240E+03  0.00000000000E+00 0. -1.
         -2   -1    0    0    0  501 -0.00000000000E+00 -0.00000000000E+00 -0.50725606177E+02  0.50725606177E+02  0.00000000000E+00 0.  1.
         23    2    1    2    0    0 -0.54591336751E+01  0.95586403905E+01  0.71440090600E+02  0.14440358426E+03  0.12501015501E+03 0.  0.
          5    1    3    3  502    0 -0.40198573392E+02 -0.44857476287E+02  0.39853765126E+02  0.72377697369E+02  0.47000000000E+01 0.  1.
         -5    1    3    3    0  502  0.34739439717E+02  0.54416116678E+02  0.31586325474E+02  0.72025886895E+02  0.47000000000E+01 0.  1.
        -11    1    1    2    0    0  0.26509859076E+02  0.20061959477E+02  0.12073676416E+02  0.35369881375E+02  0.00000000000E+00 0.  1.
         11    1    1    2    0    0 -0.21050725401E+02 -0.29620599867E+02  0.12458419921E+03  0.12977571294E+03  0.00000000000E+00 0. -1.
<mgrwt>
<rscale>  0 0.11634952E+03</rscale>
<asrwt>0</asrwt>
<pdfrwt beam="1">  1        2 0.39819011E-01 0.12549386E+03</pdfrwt>
<pdfrwt beam="2">  1       -2 0.78039395E-02 0.12549386E+03</pdfrwt>
<totfact> 0.11815150E+04</totfact>
</mgrwt>
</event>
<event>
 7    1  0.4230786E-006  0.1279638E+03  0.7546771E-02  0.1245625E+00
          3   -1    0    0  501    0  0.00000000000E+00  0.00000000000E+00  0.13693990800E+03  0.13693990800E+03  0.00000000000E+00 0. -1.
         -3   -1    0    0    0  501 -0.00000000000E+00 -0.00000000000E+00 -0.95725668774E+02  0.95725668774E+02  0.00000000000E+00 0.  1.
         23    2    1    2    0    0  0.25402121444E+01 -0.27275485670E+02 -0.46217472352E+01  0.12804725595E+03  0.12499733762E+03 0.  0.
          5    1    3    3  502    0  0.51515770500E+02 -0.20602147957E+02 -0.38714996679E+02  0.67817874329E+02  0.47000000000E+01 0.  1.
         -5    1    3    3    0  502 -0.48975558356E+02 -0.66733377126E+01  0.34093249443E+02  0.60229381618E+02  0.47000000000E+01 0.  1.
        -11    1    1    2    0    0  0.16201759495E+02  0.50464144913E+02  0.51913104900E+02  0.74189604346E+02  0.00000000000E+00 0. -1.
         11    1    1    2    0    0 -0.18741971639E+02 -0.23188659244E+02 -0.60771184363E+01  0.30428716485E+02  0.00000000000E+00 0.  1.
<mgrwt>
<rscale>  0 0.11848049E+03</rscale>
<asrwt>0</asrwt>
<pdfrwt beam="1">  1        3 0.21067678E-01 0.12796382E+03</pdfrwt>
<pdfrwt beam="2">  1       -3 0.14727026E-01 0.12796382E+03</pdfrwt>
<totfact> 0.17800652E+03</totfact>
</mgrwt>
</event>
<event>
 7    1  0.4230786E-006  0.1851588E+03  0.7546771E-02  0.1168149E+00
          2   -1    0    0  501    0  0.00000000000E+00  0.00000000000E+00  0.27707661140E+03  0.27707661140E+03  0.00000000000E+00 0.  1.
         -2   -1    0    0    0  501 -0.00000000000E+00 -0.00000000000E+00 -0.11021042214E+03  0.11021042214E+03  0.00000000000E+00 0. -1.
         23    2    1    2    0    0  0.68023382886E+02 -0.11845286142E+03  0.80782643928E+02  0.20201391862E+03  0.12500210701E+03 0.  0.
          5    1    3    3  502    0  0.97768295166E+02 -0.49153476754E+02  0.50515941608E+02  0.12061780206E+03  0.47000000000E+01 0.  1.
         -5    1    3    3    0  502 -0.29744912280E+02 -0.69299384671E+02  0.30266702320E+02  0.81396116563E+02  0.47000000000E+01 0.  1.
        -11    1    1    2    0    0 -0.34266543652E+02  0.11977949154E+03  0.86185364027E+02  0.15149006429E+03  0.00000000000E+00 0. -1.
         11    1    1    2    0    0 -0.33756839233E+02 -0.13266301108E+01 -0.10181870077E+00  0.33783050625E+02  0.00000000000E+00 0.  1.
<mgrwt>
<rscale>  0 0.17964251E+03</rscale>
<asrwt>0</asrwt>
<pdfrwt beam="1">  1        2 0.42627171E-01 0.18515882E+03</pdfrwt>
<pdfrwt beam="2">  1       -2 0.16955450E-01 0.18515882E+03</pdfrwt>
<totfact> 0.32573113E+03</totfact>
</mgrwt>
</event>
<event>
 7    1  0.4230786E-006  0.1959706E+03  0.7546771E-02  0.1157685E+00
          2   -1    0    0  501    0  0.00000000000E+00  0.00000000000E+00  0.40714652780E+02  0.40714652780E+02  0.00000000000E+00 0. -1.
         -2   -1    0    0    0  501 -0.00000000000E+00 -0.00000000000E+00 -0.92633802215E+03  0.92633802215E+03  0.00000000000E+00 0.  1.
         23    2    1    2    0    0  0.14700253937E+03  0.34206458743E+02 -0.60192428911E+03  0.63302236292E+03  0.12499853490E+03 0.  0.
          5    1    3    3  502    0  0.54333255605E+02 -0.23475478279E+02 -0.79101260693E+02  0.98905511415E+02  0.47000000000E+01 0. -1.
         -5    1    3    3    0  502  0.92669283762E+02  0.57681937022E+02 -0.52282302842E+03  0.53411685150E+03  0.47000000000E+01 0. -1.
        -11    1    1    2    0    0 -0.43861940839E+02 -0.55756071935E+02 -0.11649519072E+03  0.13639552365E+03  0.00000000000E+00 0.  1.
         11    1    1    2    0    0 -0.10314059853E+03  0.21549613192E+02 -0.16720388953E+03  0.19763478836E+03  0.00000000000E+00 0. -1.
<mgrwt>
<rscale>  0 0.19086338E+03</rscale>
<asrwt>0</asrwt>
<pdfrwt beam="1">  1        2 0.62637932E-02 0.19597056E+03</pdfrwt>
<pdfrwt beam="2">  1       -2 0.14251353E+00 0.19597056E+03</pdfrwt>
<totfact> 0.41953702E+02</totfact>
</mgrwt>
</event>
<event>
 7    1  0.4230786E-006  0.1613627E+03  0.7546771E-02  0.1194478E+00
          2   -1    0    0  501    0  0.00000000000E+00  0.00000000000E+00  0.57973522039E+03  0.57973522039E+03  0.00000000000E+00 0.  1.
         -2   -1    0    0    0  501 -0.00000000000E+00 -0.00000000000E+00 -0.41447704803E+02  0.41447704803E+02  0.00000000000E+00 0. -1.
         23    2    1    2    0    0 -0.75629458296E+02 -0.68472748208E+02  0.20627690348E+03  0.26189326648E+03  0.12501835829E+03 0.  0.
          5    1    3    3  502    0 -0.84101610629E+02 -0.88684746888E+02  0.11492919388E+03  0.16783585686E+03  0.47000000000E+01 0. -1.
         -5    1    3    3    0  502  0.84721523331E+01  0.20211998681E+02  0.91347709598E+02  0.94057409621E+02  0.47000000000E+01 0. -1.
        -11    1    1    2    0    0  0.85528198180E+02  0.27508602119E+02  0.26793857852E+03  0.28260020830E+03  0.00000000000E+00 0.  1.
         11    1    1    2    0    0 -0.98987398838E+01  0.40964146089E+02  0.64072033589E+02  0.76689450411E+02  0.00000000000E+00 0. -1.
<mgrwt>
<rscale>  0 0.15498489E+03</rscale>
<asrwt>0</asrwt>
<pdfrwt beam="1">  1        2 0.89190028E-01 0.16136270E+03</pdfrwt>
<pdfrwt beam="2">  1       -2 0.63765704E-02 0.16136270E+03</pdfrwt>
<totfact> 0.68650515E+03</totfact>
</mgrwt>
</event>
<event>
 7    1  0.4230786E-006  0.1489980E+03  0.7546771E-02  0.1209769E+00
          1   -1    0    0  501    0  0.00000000000E+00  0.00000000000E+00  0.76087047239E+03  0.76087047239E+03  0.00000000000E+00 0. -1.
         -1   -1    0    0    0  501 -0.00000000000E+00 -0.00000000000E+00 -0.28513176215E+02  0.28513176215E+02  0.00000000000E+00 0.  1.
         23    2    1    2    0    0  0.80659711491E+02  0.83140054675E+01  0.25010981186E+03  0.29112767680E+03  0.12500117785E+03 0.  0.
          5    1    3    3  502    0 -0.18671837181E+02  0.38319969247E+02  0.51688083845E+02  0.67162530911E+02  0.47000000000E+01 0. -1.
         -5    1    3    3    0  502  0.99331548672E+02 -0.30005963780E+02  0.19842172801E+03  0.22396514589E+03  0.47000000000E+01 0. -1.
        -11    1    1    2    0    0  0.10954996189E+02 -0.30836938871E+00  0.46838896674E+01  0.11918299191E+02  0.00000000000E+00 0.  1.
         11    1    1    2    0    0 -0.91614707680E+02 -0.80056360788E+01  0.47756359464E+03  0.48633767261E+03  0.00000000000E+00 0. -1.
<mgrwt>
<rscale>  0 0.14267907E+03</rscale>
<asrwt>0</asrwt>
<pdfrwt beam="1">  1        1 0.11705698E+00 0.14899801E+03</pdfrwt>
<pdfrwt beam="2">  1       -1 0.43866431E-02 0.14899801E+03</pdfrwt>
<totfact> 0.51948229E+03</totfact>
</mgrwt>
</event>
<event>
 7    1  0.4230786E-006  0.1273988E+03  0.7546771E-02  0.1248799E+00
         -1   -1    0    0    0  501 -0.00000000000E+00  0.00000000000E+00  0.63842534810E+03  0.63842534810E+03  0.00000000000E+00 0.  1.
          1   -1    0    0  501    0  0.00000000000E+00 -0.00000000000E+00 -0.19041274374E+02  0.19041274374E+02  0.00000000000E+00 0. -1.
         23    2    1    2    0    0  0.12059295983E+01  0.24583884949E+02  0.42117230789E+03  0.44001883075E+03  0.12499854727E+03 0.  0.
          5    1    3    3  502    0  0.49454423908E+02  0.38399520748E+02  0.12829544715E+03  0.14283583233E+03  0.47000000000E+01 0. -1.
         -5    1    3    3    0  502 -0.48248494310E+02 -0.13815635800E+02  0.29287686074E+03  0.29718299842E+03  0.47000000000E+01 0. -1.
        -11    1    1    2    0    0 -0.82726843206E+00 -0.52668710391E+02  0.16858723271E+03  0.17662483534E+03  0.00000000000E+00 0. -1.
         11    1    1    2    0    0 -0.37866116628E+00  0.28084825442E+02  0.29624533126E+02  0.40822956377E+02  0.00000000000E+00 0.  1.
<mgrwt>
<rscale>  0 0.11660863E+03</rscale>
<asrwt>0</asrwt>
<pdfrwt beam="2">  1        1 0.29294273E-02 0.12739882E+03</pdfrwt>
<pdfrwt beam="1">  1       -1 0.98219268E-01 0.12739882E+03</pdfrwt>
<totfact> 0.35374117E+03</totfact>
</mgrwt>
</event>
<event>
 7    1  0.4230786E-006  0.1592215E+03  0.7546771E-02  0.1197946E+00
          2   -1    0    0  501    0  0.00000000000E+00  0.00000000000E+00  0.49599540851E+03  0.49599540851E+03  0.00000000000E+00 0. -1.
         -2   -1    0    0    0  501 -0.00000000000E+00 -0.00000000000E+00 -0.44498476864E+02  0.44498476864E+02  0.00000000000E+00 0.  1.
         23    2    1    2    0    0  0.96813236600E+02 -0.18853075485E+02  0.19459248477E+03  0.25143132127E+03  0.12499293159E+03 0.  0.
          5    1    3    3  502    0  0.12547411533E+03 -0.29959595616E+01  0.14527010458E+03  0.19203703465E+03  0.47000000000E+01 0.  1.
         -5    1    3    3    0  502 -0.28660878731E+02 -0.15857115923E+02  0.49322380194E+02  0.59394286619E+02  0.47000000000E+01 0.  1.
        -11    1    1    2    0    0 -0.72914292989E+02  0.39430368883E+02  0.23862114015E+03  0.25260897973E+03  0.00000000000E+00 0. -1.
         11    1    1    2    0    0 -0.23898943611E+02 -0.20577293398E+02  0.18283306721E+02  0.36453584378E+02  0.00000000000E+00 0.  1.
<mgrwt>
<rscale>  0 0.15207518E+03</rscale>
<asrwt>0</asrwt>
<pdfrwt beam="1">  1        2 0.76306982E-01 0.15922146E+03</pdfrwt>
<pdfrwt beam="2">  1       -2 0.68459199E-02 0.15922146E+03</pdfrwt>
<totfact> 0.73264555E+03</totfact>
</mgrwt>
</event>
<event>
 7    1  0.4230786E-006  0.1258205E+03  0.7546771E-02  0.1251732E+00
         -1   -1    0    0    0  501 -0.00000000000E+00  0.00000000000E+00  0.31925737273E+02  0.31925737273E+02  0.00000000000E+00 0.  1.
          1   -1    0    0  501    0  0.00000000000E+00 -0.00000000000E+00 -0.44138725429E+03  0.44138725429E+03  0.00000000000E+00 0. -1.
         23    2    1    2    0    0  0.13894046331E+02  0.35624031831E+01 -0.13196182240E+03  0.18233134141E+03  0.12500024100E+03 0.  0.
          5    1    3    3  502    0  0.25176630868E+02 -0.53986126715E+02 -0.96904307929E+02  0.11384594641E+03  0.47000000000E+01 0.  1.
         -5    1    3    3    0  502 -0.11282584537E+02  0.57548529898E+02 -0.35057514472E+02  0.68485394999E+02  0.47000000000E+01 0.  1.
        -11    1    1    2    0    0  0.14397016476E+01  0.37316735871E+02 -0.18452388956E+03  0.18826491265E+03  0.00000000000E+00 0. -1.
         11    1    1    2    0    0 -0.15333747979E+02 -0.40879139054E+02 -0.92975805059E+02  0.10271673750E+03  0.00000000000E+00 0.  1.
<mgrwt>
<rscale>  0 0.11491379E+03</rscale>
<asrwt>0</asrwt>
<pdfrwt beam="2">  1        1 0.67905728E-01 0.12582049E+03</pdfrwt>
<pdfrwt beam="1">  1       -1 0.49116521E-02 0.12582049E+03</pdfrwt>
<totfact> 0.91210936E+03</totfact>
</mgrwt>
</event>
<event>
 7    1  0.4230786E-006  0.1866500E+03  0.7546771E-02  0.1168507E+00
         -2   -1    0    0    0  501 -0.00000000000E+00  0.00000000000E+00  0.13220570191E+03  0.13220570191E+03  0.00000000000E+00 0.  1.
          2   -1    0    0  501    0  0.00000000000E+00 -0.00000000000E+00 -0.22580458346E+03  0.22580458346E+03  0.00000000000E+00 0. -1.
         23    2    1    2    0    0 -0.95462253692E+02  0.22052395866E+02 -0.46273974486E+02  0.16545411678E+03  0.12503773031E+03 0.  0.
          5    1    3    3  502    0 -0.57082848111E+02 -0.10476960774E+02  0.36322991248E+02  0.68627020544E+02  0.47000000000E+01 0.  1.
         -5    1    3    3    0  502 -0.38379405581E+02  0.32529356640E+02 -0.82596965734E+02  0.96827096232E+02  0.47000000000E+01 0.  1.
        -11    1    1    2    0    0 -0.37793486653E+02  0.24973912724E+02 -0.97765958310E+01  0.46342483492E+02  0.00000000000E+00 0. -1.
         11    1    1    2    0    0  0.13325574035E+03 -0.47026308590E+02 -0.37548311227E+02  0.14621368510E+03  0.00000000000E+00 0.  1.
<mgrwt>
<rscale>  0 0.17927463E+03</rscale>
<asrwt>0</asrwt>
<pdfrwt beam="2">  1        2 0.34739167E-01 0.18665002E+03</pdfrwt>
<pdfrwt beam="1">  1       -2 0.20339339E-01 0.18665002E+03</pdfrwt>
<totfact> 0.29870193E+03</totfact>
</mgrwt>
</event>
<event>
 7    1  0.4230786E-006  0.1342610E+03  0.7546771E-02  0.1230073E+00
         -1   -1    0    0    0  501 -0.00000000000E+00  0.00000000000E+00  0.84989972555E+02  0.84989972555E+02  0.00000000000E+00 0.  1.
          1   -1    0    0  501    0  0.00000000000E+00 -0.00000000000E+00 -0.31066335338E+03  0.31066335338E+03  0.00000000000E+00 0. -1.
         23    2    1    2    0    0 -0.68123661363E+02  0.32330093570E+01  0.10181141091E+02  0.13464644608E+03  0.11564914276E+03 0.  0.
          5    1    3    3  502    0 -0.19916259911E+02  0.18621752455E+02 -0.49224791663E+02  0.56467664974E+02  0.47000000000E+01 0. -1.
         -5    1    3    3    0  502 -0.48207401452E+02 -0.15388743098E+02  0.59405932754E+02  0.78178781106E+02  0.47000000000E+01 0.  1.
        -11    1    1    2    0    0  0.13708161560E+02  0.13476275488E+02 -0.88795693811E+00  0.19243496613E+02  0.00000000000E+00 0.  1.
         11    1    1    2    0    0  0.54415499803E+02 -0.16709284845E+02 -0.23496656497E+03  0.24176338324E+03  0.00000000000E+00 0. -1.
<mgrwt>
<rscale>  0 0.12825199E+03</rscale>
<asrwt>0</asrwt>
<pdfrwt beam="2">  1        1 0.47794362E-01 0.13426098E+03</pdfrwt>
<pdfrwt beam="1">  1       -1 0.13075380E-01 0.13426098E+03</pdfrwt>
<totfact> 0.32436004E+03</totfact>
</mgrwt>
</event>
<event>
 7    1  0.4230786E-006  0.1732169E+03  0.7546771E-02  0.1180495E+00
         -1   -1    0    0    0  501 -0.00000000000E+00  0.00000000000E+00  0.32746904343E+02  0.32746904343E+02  0.00000000000E+00 0.  1.
          1   -1    0    0  501    0  0.00000000000E+00 -0.00000000000E+00 -0.81943414849E+03  0.81943414849E+03  0.00000000000E+00 0. -1.
         23    2    1    2    0    0  0.21639155657E+02  0.11794631239E+03 -0.36191849589E+03  0.40123444914E+03  0.12499799937E+03 0.  0.
          5    1    3    3  502    0 -0.16556909610E+01  0.11424229751E+03 -0.35928020711E+03  0.37703899145E+03  0.47000000000E+01 0.  1.
         -5    1    3    3    0  502  0.23294846618E+02  0.37040148806E+01 -0.26382887786E+01  0.24195457691E+02  0.47000000000E+01 0.  1.
        -11    1    1    2    0    0 -0.36539910046E+02 -0.12813450578E+03 -0.36815861213E+03  0.39152826243E+03  0.00000000000E+00 0.  1.
         11    1    1    2    0    0  0.14900754389E+02  0.10188193388E+02 -0.56610136130E+02  0.59418341264E+02  0.00000000000E+00 0. -1.
<mgrwt>
<rscale>  0 0.16748649E+03</rscale>
<asrwt>0</asrwt>
<pdfrwt beam="2">  1        1 0.12606677E+00 0.17321687E+03</pdfrwt>
<pdfrwt beam="1">  1       -1 0.50379860E-02 0.17321687E+03</pdfrwt>
<totfact> 0.38050611E+03</totfact>
</mgrwt>
</event>
<event>
 7    1  0.4230786E-006  0.3243394E+03  0.7546771E-02  0.1074985E+00
          1   -1    0    0  501    0  0.00000000000E+00  0.00000000000E+00  0.67720981924E+03  0.67720981924E+03  0.00000000000E+00 0. -1.
         -1   -1    0    0    0  501 -0.00000000000E+00 -0.00000000000E+00 -0.17369909925E+03  0.17369909925E+03  0.00000000000E+00 0.  1.
         23    2    1    2    0    0  0.70538809383E+01 -0.29919871209E+03  0.98252356282E+02  0.33889463712E+03  0.12500569186E+03 0.  0.
          5    1    3    3  502    0 -0.13461987211E+02 -0.30258667919E+03  0.89692927081E+02  0.31592219721E+03  0.47000000000E+01 0. -1.
         -5    1    3    3    0  502  0.20515868149E+02  0.33879670960E+01  0.85594292008E+01  0.22972439905E+02  0.47000000000E+01 0. -1.
        -11    1    1    2    0    0  0.20563042201E+02  0.83075652190E+02  0.62924293293E+02  0.10622555897E+03  0.00000000000E+00 0.  1.
         11    1    1    2    0    0 -0.27616923139E+02  0.21612305990E+03  0.34233407041E+03  0.40578872240E+03  0.00000000000E+00 0. -1.
<mgrwt>
<rscale>  0 0.32144827E+03</rscale>
<asrwt>0</asrwt>
<pdfrwt beam="1">  1        1 0.10418612E+00 0.32433940E+03</pdfrwt>
<pdfrwt beam="2">  1       -1 0.26722939E-01 0.32433940E+03</pdfrwt>
<totfact> 0.36918416E+02</totfact>
</mgrwt>
</event>
<event>
 7    1  0.4230786E-006  0.2709491E+03  0.7546771E-02  0.1103197E+00
         -1   -1    0    0    0  501 -0.00000000000E+00  0.00000000000E+00  0.32798655893E+03  0.32798655893E+03  0.00000000000E+00 0.  1.
          1   -1    0    0  501    0  0.00000000000E+00 -0.00000000000E+00 -0.23717505778E+03  0.23717505778E+03  0.00000000000E+00 0. -1.
         23    2    1    2    0    0 -0.84322425487E+02  0.22511995743E+03  0.14184634120E+03  0.30583297824E+03  0.12499663753E+03 0.  0.
          5    1    3    3  502    0 -0.98682468981E+02  0.10718076644E+03  0.11036017037E+03  0.18283162632E+03  0.47000000000E+01 0. -1.
         -5    1    3    3    0  502  0.14360043494E+02  0.11793919099E+03  0.31486170828E+02  0.12300135191E+03  0.47000000000E+01 0. -1.
        -11    1    1    2    0    0  0.50577870140E+02 -0.14506719488E+03 -0.72444229610E+02  0.16985516884E+03  0.00000000000E+00 0. -1.
         11    1    1    2    0    0  0.33744555347E+02 -0.80052762547E+02  0.21409389556E+02  0.89473469633E+02  0.00000000000E+00 0.  1.
<mgrwt>
<rscale>  0 0.26667615E+03</rscale>
<asrwt>0</asrwt>
<pdfrwt beam="2">  1        1 0.36488470E-01 0.27094912E+03</pdfrwt>
<pdfrwt beam="1">  1       -1 0.50459471E-01 0.27094912E+03</pdfrwt>
<totfact> 0.47898409E+02</totfact>
</mgrwt>
</event>
<event>
 7    1  0.4230786E-006  0.1496805E+03  0.7546771E-02  0.1215872E+00
          2   -1    0    0  501    0  0.00000000000E+00  0.00000000000E+00  0.22836980175E+03  0.22836980175E+03  0.00000000000E+00 0.  1.
         -2   -1    0    0    0  501 -0.00000000000E+00 -0.00000000000E+00 -0.73022999263E+02  0.73022999263E+02  0.00000000000E+00 0. -1.
         23    2    1    2    0    0 -0.68412265208E+00  0.82341441087E+02  0.92837431949E+02  0.17613361104E+03  0.12499471677E+03 0.  0.
          5    1    3    3  502    0  0.14657560694E+01  0.26802389346E+02 -0.30420920157E+02  0.40841631929E+02  0.47000000000E+01 0. -1.
         -5    1    3    3    0  502 -0.21498787215E+01  0.55539051741E+02  0.12325835211E+03  0.13529197911E+03  0.47000000000E+01 0. -1.
        -11    1    1    2    0    0  0.28619161773E+02 -0.13478042866E+02  0.31786012597E+02  0.44844895550E+02  0.00000000000E+00 0.  1.
         11    1    1    2    0    0 -0.27935039121E+02 -0.68863398221E+02  0.30723357943E+02  0.80414294429E+02  0.00000000000E+00 0. -1.
<mgrwt>
<rscale>  0 0.13812694E+03</rscale>
<asrwt>0</asrwt>
<pdfrwt beam="1">  1        2 0.35133815E-01 0.14968053E+03</pdfrwt>
<pdfrwt beam="2">  1       -2 0.11234308E-01 0.14968053E+03</pdfrwt>
<totfact> 0.77409382E+03</totfact>
</mgrwt>
</event>
<event>
 7    1  0.4230786E-006  0.1901889E+03  0.7546771E-02  0.1163210E+00
          3   -1    0    0  501    0  0.00000000000E+00  0.00000000000E+00  0.24092483986E+02  0.24092483986E+02  0.00000000000E+00 0. -1.
         -3   -1    0    0    0  501 -0.00000000000E+00 -0.00000000000E+00 -0.14996183364E+04  0.14996183364E+04  0.00000000000E+00 0.  1.
         23    2    1    2    0    0 -0.13803286565E+03 -0.38710988945E+02 -0.10209622531E+04  0.10385257449E+04  0.12498075046E+03 0.  0.
          5    1    3    3  502    0 -0.39312223874E+02 -0.67534339140E+02 -0.60352324787E+03  0.60857927883E+03  0.47000000000E+01 0. -1.
         -5    1    3    3    0  502 -0.98720641777E+02  0.28823350195E+02 -0.41743900522E+03  0.42994646610E+03  0.47000000000E+01 0. -1.
        -11    1    1    2    0    0  0.86859705570E+02  0.96832791303E+01 -0.13906664705E+03  0.16424952562E+03  0.00000000000E+00 0. -1.
         11    1    1    2    0    0  0.51173160081E+02  0.29027709815E+02 -0.31549695223E+03  0.32093554979E+03  0.00000000000E+00 0.  1.
<mgrwt>
<rscale>  0 0.18482833E+03</rscale>
<asrwt>0</asrwt>
<pdfrwt beam="1">  1        3 0.37065350E-02 0.19018886E+03</pdfrwt>
<pdfrwt beam="2">  1       -3 0.23071057E+00 0.19018886E+03</pdfrwt>
<totfact> 0.94386131E+01</totfact>
</mgrwt>
</event>
<event>
 6    1  0.4230786E-006  0.1436799E+03  0.7546771E-02  0.1232087E+00
          3   -1    0    0  501    0  0.00000000000E+00  0.00000000000E+00  0.41379707542E+02  0.41379707542E+02  0.00000000000E+00 0. -1.
         -3   -1    0    0    0  501 -0.00000000000E+00 -0.00000000000E+00 -0.41710263686E+03  0.41710263686E+03  0.00000000000E+00 0.  1.
          5    1    1    2  502    0 -0.21031113930E+02 -0.22422685481E+02 -0.71393958611E+01  0.31908393105E+02  0.47000000000E+01 0. -1.
         -5    1    1    2    0  502  0.54247450342E+02  0.20146807636E+02 -0.32248160948E+03  0.32766622984E+03  0.47000000000E+01 0.  1.
        -11    1    1    2    0    0 -0.58944910357E+02  0.99682609657E+01 -0.25191650794E+02  0.64872859914E+02  0.00000000000E+00 0. -1.
         11    1    1    2    0    0  0.25728573946E+02 -0.76923831214E+01 -0.20910273181E+02  0.34034861537E+02  0.00000000000E+00 0.  1.
<mgrwt>
<rscale>  0 0.12692779E+03</rscale>
<asrwt>0</asrwt>
<pdfrwt beam="1">  1        3 0.63661088E-02 0.14367986E+03</pdfrwt>
<pdfrwt beam="2">  1       -3 0.64169637E-01 0.14367986E+03</pdfrwt>
<totfact> 0.86223495E+02</totfact>
</mgrwt>
</event>
<event>
 7    1  0.4230786E-006  0.1527681E+03  0.7546771E-02  0.1204978E+00
          1   -1    0    0  501    0  0.00000000000E+00  0.00000000000E+00  0.43591338668E+02  0.43591338668E+02  0.00000000000E+00 0. -1.
         -1   -1    0    0    0  501 -0.00000000000E+00 -0.00000000000E+00 -0.53843242494E+03  0.53843242494E+03  0.00000000000E+00 0.  1.
         23    2    1    2    0    0 -0.74338958336E+02 -0.46779467388E+02 -0.37958153141E+03  0.40917017455E+03  0.12499397368E+03 0.  0.
          5    1    3    3  502    0  0.35764171733E+00  0.67510234860E+01  0.75996029648E+01  0.11204828911E+02  0.47000000000E+01 0. -1.
         -5    1    3    3    0  502 -0.74696600053E+02 -0.53530490874E+02 -0.38718113438E+03  0.39796534564E+03  0.47000000000E+01 0. -1.
        -11    1    1    2    0    0  0.20449987856E+02  0.61730778627E+02 -0.31798425123E+02  0.72388057534E+02  0.00000000000E+00 0. -1.
         11    1    1    2    0    0  0.53888970480E+02 -0.14951311239E+02 -0.83461129737E+02  0.10046553152E+03  0.00000000000E+00 0.  1.
<mgrwt>
<rscale>  0 0.14639191E+03</rscale>
<asrwt>0</asrwt>
<pdfrwt beam="1">  1        1 0.67063603E-02 0.15276810E+03</pdfrwt>
<pdfrwt beam="2">  1       -1 0.82835752E-01 0.15276810E+03</pdfrwt>
<totfact> 0.16459868E+03</totfact>
</mgrwt>
</event>
<event>
 7    1  0.4230786E-006  0.1254339E+03  0.7546771E-02  0.1246997E+00
          4   -1    0    0  501    0  0.00000000000E+00  0.00000000000E+00  0.12780057907E+03  0.12780057907E+03  0.00000000000E+00 0. -1.
         -4   -1    0    0    0  501 -0.00000000000E+00 -0.00000000000E+00 -0.11061553286E+03  0.11061553286E+03  0.00000000000E+00 0.  1.
         23    2    1    2    0    0  0.97464078840E+01  0.34130516907E+01 -0.32126319758E+02  0.12948272296E+03  0.12500813468E+03 0.  0.
          5    1    3    3  502    0  0.57576709341E+02  0.22875786588E+02 -0.44191738617E+02  0.76245516803E+02  0.47000000000E+01 0.  1.
         -5    1    3    3    0  502 -0.47830301457E+02 -0.19462734897E+02  0.12065418859E+02  0.53237206157E+02  0.47000000000E+01 0.  1.
        -11    1    1    2    0    0 -0.85612675591E+01 -0.14851972749E+02  0.77034892383E+02  0.78919269138E+02  0.00000000000E+00 0. -1.
         11    1    1    2    0    0 -0.11851403249E+01  0.11438921058E+02 -0.27723526411E+02  0.30014119831E+02  0.00000000000E+00 0.  1.
<mgrwt>
<rscale>  0 0.11766663E+03</rscale>
<asrwt>0</asrwt>
<pdfrwt beam="1">  1        4 0.19661628E-01 0.12543395E+03</pdfrwt>
<pdfrwt beam="2">  1       -4 0.17017774E-01 0.12543395E+03</pdfrwt>
<totfact> 0.11373680E+03</totfact>
</mgrwt>
</event>
<event>
 7    1  0.4230786E-006  0.1588304E+03  0.7546771E-02  0.1191782E+00
         -1   -1    0    0    0  501 -0.00000000000E+00  0.00000000000E+00  0.16249899995E+03  0.16249899995E+03  0.00000000000E+00 0.  1.
          1   -1    0    0  501    0  0.00000000000E+00 -0.00000000000E+00 -0.18956853766E+03  0.18956853766E+03  0.00000000000E+00 0. -1.
         23    2    1    2    0    0 -0.15025395124E+02 -0.96831974581E+02  0.67283486103E+02  0.17249390850E+03  0.12499954866E+03 0.  0.
          5    1    3    3  502    0 -0.52246803255E+02 -0.87591998959E+02  0.89041016324E+01  0.10248638816E+03  0.47000000000E+01 0.  1.
         -5    1    3    3    0  502  0.37221408130E+02 -0.92399756220E+01  0.58379384470E+02  0.70007520338E+02  0.47000000000E+01 0.  1.
        -11    1    1    2    0    0  0.37472948603E+02  0.11207096919E+03 -0.51614052364E+02  0.12895012375E+03  0.00000000000E+00 0.  1.
         11    1    1    2    0    0 -0.22447553479E+02 -0.15238994614E+02 -0.42738971452E+02  0.50623505358E+02  0.00000000000E+00 0. -1.
<mgrwt>
<rscale>  0 0.15729774E+03</rscale>
<asrwt>0</asrwt>
<pdfrwt beam="2">  1        1 0.29164390E-01 0.15883035E+03</pdfrwt>
<pdfrwt beam="1">  1       -1 0.24999846E-01 0.15883035E+03</pdfrwt>
<totfact> 0.21432296E+03</totfact>
</mgrwt>
</event>
<event>
 7    1  0.4230786E-006  0.1270379E+03  0.7546771E-02  0.1245288E+00
         -2   -1    0    0    0  501 -0.00000000000E+00  0.00000000000E+00  0.16287665462E+02  0.16287665462E+02  0.00000000000E+00 0.  1.
          2   -1    0    0  501    0  0.00000000000E+00 -0.00000000000E+00 -0.77440954300E+03  0.77440954300E+03  0.00000000000E+00 0. -1.
         23    2    1    2    0    0 -0.22627097599E+02 -0.52869696997E+00 -0.39667935822E+03  0.41652506553E+03  0.12500540751E+03 0.  0.
          5    1    3    3  502    0  0.54789765659E+01 -0.26527205770E+02 -0.36654797174E+03  0.36757749851E+03  0.47000000000E+01 0. -1.
         -5    1    3    3    0  502 -0.28106074165E+02  0.25998508800E+02 -0.30131386486E+02  0.48947567012E+02  0.47000000000E+01 0. -1.
        -11    1    1    2    0    0  0.13220499374E+02 -0.46677627686E+02 -0.17210979665E+03  0.17881656699E+03  0.00000000000E+00 0.  1.
         11    1    1    2    0    0  0.94065982254E+01  0.47206324656E+02 -0.18933272267E+03  0.19535557594E+03  0.00000000000E+00 0. -1.
<mgrwt>
<rscale>  0 0.11868152E+03</rscale>
<asrwt>0</asrwt>
<pdfrwt beam="2">  1        2 0.11913992E+00 0.12703786E+03</pdfrwt>
<pdfrwt beam="1">  1       -2 0.25057950E-02 0.12703786E+03</pdfrwt>
<totfact> 0.19324728E+04</totfact>
</mgrwt>
</event>
<event>
 7    1  0.4230786E-006  0.1881392E+03  0.7546771E-02  0.1165436E+00
         -2   -1    0    0    0  501 -0.00000000000E+00  0.00000000000E+00  0.85701279740E+02  0.85701279740E+02  0.00000000000E+00 0.  1.
          2   -1    0    0  501    0  0.00000000000E+00 -0.00000000000E+00 -0.49717105123E+03  0.49717105123E+03  0.00000000000E+00 0. -1.
         23    2    1    2    0    0 -0.13087755077E+03  0.51388253328E+02 -0.65978753648E+02  0.19937289265E+03  0.12500667389E+03 0.  0.
          5    1    3    3  502    0 -0.44874336817E+02  0.84556860413E+02 -0.33588611517E+02  0.10155714436E+03  0.47000000000E+01 0. -1.
         -5    1    3    3    0  502 -0.86003213953E+02 -0.33168607086E+02 -0.32390142131E+02  0.97815748290E+02  0.47000000000E+01 0. -1.
        -11    1    1    2    0    0  0.31804140191E+02  0.23158683068E+02 -0.54700234570E+02  0.67379103562E+02  0.00000000000E+00 0.  1.
         11    1    1    2    0    0  0.99073410579E+02 -0.74546936395E+02 -0.29079078328E+03  0.31612033476E+03  0.00000000000E+00 0. -1.
<mgrwt>
<rscale>  0 0.18246714E+03</rscale>
<asrwt>0</asrwt>
<pdfrwt beam="2">  1        2 0.76487853E-01 0.18813919E+03</pdfrwt>
<pdfrwt beam="1">  1       -2 0.13184812E-01 0.18813919E+03</pdfrwt>
<totfact> 0.26209524E+03</totfact>
</mgrwt>
</event>
<event>
 7    1  0.4230786E-006  0.1289290E+03  0.7546771E-02  0.1242994E+00
          2   -1    0    0  501    0  0.00000000000E+00  0.00000000000E+00  0.17899680687E+03  0.17899680687E+03  0.00000000000E+00 0. -1.
         -2   -1    0    0    0  501 -0.00000000000E+00 -0.00000000000E+00 -0.72008260144E+02  0.72008260144E+02  0.00000000000E+00 0.  1.
         23    2    1    2    0    0 -0.22176634658E+01  0.31500872043E+02  0.48359082574E+02  0.13770001070E+03  0.12500187642E+03 0.  0.
          5    1    3    3  502    0 -0.41880237663E+02  0.13913409683E+02  0.74581250037E+02  0.86787038968E+02  0.47000000000E+01 0.  1.
         -5    1    3    3    0  502  0.39662574197E+02  0.17587462360E+02 -0.26222167464E+02  0.50912971733E+02  0.47000000000E+01 0.  1.
        -11    1    1    2    0    0 -0.33261166114E+02  0.16580339274E+02  0.24030886181E+02  0.44257161142E+02  0.00000000000E+00 0.  1.
         11    1    1    2    0    0  0.35478829580E+02 -0.48081211317E+02  0.34598577971E+02  0.69047895172E+02  0.00000000000E+00 0. -1.
<mgrwt>
<rscale>  0 0.12006256E+03</rscale>
<asrwt>0</asrwt>
<pdfrwt beam="1">  1        2 0.27537970E-01 0.12892902E+03</pdfrwt>
<pdfrwt beam="2">  1       -2 0.11078194E-01 0.12892902E+03</pdfrwt>
<totfact> 0.10186355E+04</totfact>
</mgrwt>
</event>
<event>
 7    1  0.4230786E-006  0.1595555E+03  0.7546771E-02  0.1196719E+00
          1   -1    0    0  501    0  0.00000000000E+00  0.00000000000E+00  0.28816025292E+03  0.28816025292E+03  0.00000000000E+00 0. -1.
         -1   -1    0    0    0  501 -0.00000000000E+00 -0.00000000000E+00 -0.91362829630E+02  0.91362829630E+02  0.00000000000E+00 0.  1.
         23    2    1    2    0    0  0.81923883449E+02  0.55863573971E+02  0.25996073114E+02  0.16165938363E+03  0.12500279565E+03 0.  0.
          5    1    3    3  502    0  0.27527887981E+02  0.14189363713E+02  0.72319843357E+02  0.78812260483E+02  0.47000000000E+01 0.  1.
         -5    1    3    3    0  502  0.54395995468E+02  0.41674210258E+02 -0.46323770243E+02  0.82847123143E+02  0.47000000000E+01 0.  1.
        -11    1    1    2    0    0 -0.26369915462E+02  0.20011171501E+02  0.82387509208E+02  0.88789194725E+02  0.00000000000E+00 0. -1.
         11    1    1    2    0    0 -0.55553967986E+02 -0.75874745472E+02  0.88413840970E+02  0.12907450420E+03  0.00000000000E+00 0.  1.
<mgrwt>
<rscale>  0 0.15309640E+03</rscale>
<asrwt>0</asrwt>
<pdfrwt beam="1">  1        1 0.44332346E-01 0.15955551E+03</pdfrwt>
<pdfrwt beam="2">  1       -1 0.14055820E-01 0.15955551E+03</pdfrwt>
<totfact> 0.32059087E+03</totfact>
</mgrwt>
</event>
<event>
 7    1  0.4230786E-006  0.1311598E+03  0.7546771E-02  0.1239209E+00
          2   -1    0    0  501    0  0.00000000000E+00  0.00000000000E+00  0.22769315532E+03  0.22769315532E+03  0.00000000000E+00 0. -1.
         -2   -1    0    0    0  501 -0.00000000000E+00 -0.00000000000E+00 -0.61091756506E+02  0.61091756506E+02  0.00000000000E+00 0.  1.
         23    2    1    2    0    0  0.33172041263E+02  0.21851450295E+02  0.64135504774E+02  0.14600084349E+03  0.12500005250E+03 0.  0.
          5    1    3    3  502    0  0.55186347930E+02  0.56311702797E+02  0.12501422171E+02  0.79968221351E+02  0.47000000000E+01 0.  1.
         -5    1    3    3    0  502 -0.22014306666E+02 -0.34460252502E+02  0.51634082603E+02  0.66032622141E+02  0.47000000000E+01 0.  1.
        -11    1    1    2    0    0 -0.38581000461E+02  0.22434560595E+02  0.82726619233E+02  0.93997322491E+02  0.00000000000E+00 0. -1.
         11    1    1    2    0    0  0.54089591978E+01 -0.44286010890E+02  0.19739274807E+02  0.48786745844E+02  0.00000000000E+00 0.  1.
<mgrwt>
<rscale>  0 0.12238810E+03</rscale>
<asrwt>0</asrwt>
<pdfrwt beam="1">  1        2 0.35029716E-01 0.13115976E+03</pdfrwt>
<pdfrwt beam="2">  1       -2 0.93987319E-02 0.13115976E+03</pdfrwt>
<totfact> 0.10188919E+04</totfact>
</mgrwt>
</event>
<event>
 7    1  0.4230786E-006  0.1338050E+03  0.7546771E-02  0.1236052E+00
          1   -1    0    0  501    0  0.00000000000E+00  0.00000000000E+00  0.22649752215E+03  0.22649752215E+03  0.00000000000E+00 0. -1.
         -1   -1    0    0    0  501 -0.00000000000E+00 -0.00000000000E+00 -0.61237667648E+02  0.61237667648E+02  0.00000000000E+00 0.  1.
         23    2    1    2    0    0  0.45545010775E+02  0.14331180890E+02  0.76602697724E+02  0.15418091185E+03  0.12499619805E+03 0.  0.
          5    1    3    3  502    0  0.18542611619E+02 -0.55386828112E+02  0.38726766501E+02  0.70238035405E+02  0.47000000000E+01 0.  1.
         -5    1    3    3    0  502  0.27002399156E+02  0.69718009002E+02  0.37875931223E+02  0.83942876442E+02  0.47000000000E+01 0.  1.
        -11    1    1    2    0    0 -0.50130167397E+02  0.24275082887E+02  0.30226400550E+02  0.63371512706E+02  0.00000000000E+00 0.  1.
         11    1    1    2    0    0  0.45851566221E+01 -0.38606263777E+02  0.58430756228E+02  0.70182765245E+02  0.00000000000E+00 0. -1.
<mgrwt>
<rscale>  0 0.12437337E+03</rscale>
<asrwt>0</asrwt>
<pdfrwt beam="1">  1        1 0.34845772E-01 0.13380501E+03</pdfrwt>
<pdfrwt beam="2">  1       -1 0.94211797E-02 0.13380501E+03</pdfrwt>
<totfact> 0.79275482E+03</totfact>
</mgrwt>
</event>
<event>
 7    1  0.4230786E-006  0.1610813E+03  0.7546771E-02  0.1195107E+00
         -2   -1    0    0    0  501 -0.00000000000E+00  0.00000000000E+00  0.25934022186E+03  0.25934022186E+03  0.00000000000E+00 0.  1.
          2   -1    0    0  501    0  0.00000000000E+00 -0.00000000000E+00 -0.10697927283E+03  0.10697927283E+03  0.00000000000E+00 0. -1.
         23    2    1    2    0    0 -0.46450784042E+02 -0.90364546486E+02  0.16373884151E+03  0.22969023409E+03  0.12499507517E+03 0.  0.
          5    1    3    3  502    0 -0.20581721657E+02  0.30572109159E+02  0.33494639526E+02  0.50022414994E+02  0.47000000000E+01 0.  1.
         -5    1    3    3    0  502 -0.25869062385E+02 -0.12093665565E+03  0.13024420199E+03  0.17966781910E+03  0.47000000000E+01 0.  1.
        -11    1    1    2    0    0 -0.17636604877E+02  0.59998032915E+02  0.81671106232E+01  0.63067546973E+02  0.00000000000E+00 0. -1.
         11    1    1    2    0    0  0.64087388919E+02  0.30366513572E+02 -0.19545003105E+02  0.73561713624E+02  0.00000000000E+00 0.  1.
<mgrwt>
<rscale>  0 0.15445147E+03</rscale>
<asrwt>0</asrwt>
<pdfrwt beam="2">  1        2 0.16458350E-01 0.16108133E+03</pdfrwt>
<pdfrwt beam="1">  1       -2 0.39898496E-01 0.16108133E+03</pdfrwt>
<totfact> 0.20410925E+03</totfact>
</mgrwt>
</event>
<event>
 7    1  0.4230786E-006  0.1320764E+03  0.7546771E-02  0.1237259E+00
          2   -1    0    0  501    0  0.00000000000E+00  0.00000000000E+00  0.40222375066E+03  0.40222375066E+03  0.00000000000E+00 0. -1.
         -2   -1    0    0    0  501 -0.00000000000E+00 -0.00000000000E+00 -0.35640024134E+02  0.35640024134E+02  0.00000000000E+00 0.  1.
         23    2    1    2    0    0 -0.39897815006E+02  0.15139765116E+02  0.15770985404E+03  0.20570991263E+03  0.12499248762E+03 0.  0.
          5    1    3    3  502    0 -0.27869184737E+01 -0.50462032693E+02  0.35105876040E+02  0.61714635141E+02  0.47000000000E+01 0.  1.
         -5    1    3    3    0  502 -0.37110896533E+02  0.65601797809E+02  0.12260397800E+03  0.14399527749E+03  0.47000000000E+01 0.  1.
        -11    1    1    2    0    0 -0.19644616796E+02  0.52915588011E+01  0.83683245139E+01  0.21998645839E+02  0.00000000000E+00 0.  1.
         11    1    1    2    0    0  0.59542431802E+02 -0.20431323918E+02  0.20050554797E+03  0.21015521632E+03  0.00000000000E+00 0. -1.
<mgrwt>
<rscale>  0 0.12360896E+03</rscale>
<asrwt>0</asrwt>
<pdfrwt beam="1">  1        2 0.61880574E-01 0.13207638E+03</pdfrwt>
<pdfrwt beam="2">  1       -2 0.54830809E-02 0.13207638E+03</pdfrwt>
<totfact> 0.12725198E+04</totfact>
</mgrwt>
</event>
<event>
 7    1  0.4230786E-006  0.1838186E+03  0.7546771E-02  0.1169650E+00
         -1   -1    0    0    0  501 -0.00000000000E+00  0.00000000000E+00  0.96433892494E+03  0.96433892494E+03  0.00000000000E+00 0.  1.
          1   -1    0    0  501    0  0.00000000000E+00 -0.00000000000E+00 -0.38989600273E+02  0.38989600273E+02  0.00000000000E+00 0. -1.
         23    2    1    2    0    0  0.13437485675E+03  0.10471775716E+02  0.71254550147E+03  0.73587387833E+03  0.12499205143E+03 0.  0.
          5    1    3    3  502    0  0.31426488143E+01 -0.40180230773E+02  0.11409459059E+03  0.12109497425E+03  0.47000000000E+01 0. -1.
         -5    1    3    3    0  502  0.13123220793E+03  0.50652006489E+02  0.59845091089E+03  0.61477890408E+03  0.47000000000E+01 0. -1.
        -11    1    1    2    0    0 -0.10232079877E+03 -0.41995101361E+02  0.18194553701E+03  0.21292560400E+03  0.00000000000E+00 0.  1.
         11    1    1    2    0    0 -0.32054057973E+02  0.31523325645E+02  0.30858286186E+02  0.54529042891E+02  0.00000000000E+00 0. -1.
<mgrwt>
<rscale>  0 0.17810497E+03</rscale>
<asrwt>0</asrwt>
<pdfrwt beam="2">  1        1 0.59984008E-02 0.18381859E+03</pdfrwt>
<pdfrwt beam="1">  1       -1 0.14835982E+00 0.18381859E+03</pdfrwt>
<totfact> 0.50207439E+02</totfact>
</mgrwt>
</event>
<event>
 7    1  0.4230786E-006  0.1356467E+03  0.7546771E-02  0.1231488E+00
          1   -1    0    0  501    0  0.00000000000E+00  0.00000000000E+00  0.24800504132E+03  0.24800504132E+03  0.00000000000E+00 0. -1.
         -1   -1    0    0    0  501 -0.00000000000E+00 -0.00000000000E+00 -0.67409204530E+02  0.67409204530E+02  0.00000000000E+00 0.  1.
         23    2    1    2    0    0  0.50429976078E+02 -0.15261322448E+02  0.43282920182E+02  0.14238487121E+03  0.12499579961E+03 0.  0.
          5    1    3    3  502    0  0.80880795786E+02 -0.31061281979E+02 -0.24035557529E+00  0.86767817398E+02  0.47000000000E+01 0. -1.
         -5    1    3    3    0  502 -0.30450819708E+02  0.15799959532E+02  0.43523275757E+02  0.55617053812E+02  0.47000000000E+01 0. -1.
        -11    1    1    2    0    0  0.21145223314E+01  0.13671638068E+02 -0.97029175166E+01  0.16897677369E+02  0.00000000000E+00 0.  1.
         11    1    1    2    0    0 -0.52544498409E+02  0.15896843801E+01  0.14701583413E+03  0.15613169727E+03  0.00000000000E+00 0. -1.
<mgrwt>
<rscale>  0 0.12731973E+03</rscale>
<asrwt>0</asrwt>
<pdfrwt beam="1">  1        1 0.38154622E-01 0.13564675E+03</pdfrwt>
<pdfrwt beam="2">  1       -1 0.10370647E-01 0.13564675E+03</pdfrwt>
<totfact> 0.61262575E+03</totfact>
</mgrwt>
</event>
<event>
 7    1  0.4230786E-006  0.2015275E+03  0.7546771E-02  0.1153010E+00
         -2   -1    0    0    0  501 -0.00000000000E+00  0.00000000000E+00  0.22923418425E+02  0.22923418425E+02  0.00000000000E+00 0.  1.
          2   -1    0    0  501    0  0.00000000000E+00 -0.00000000000E+00 -0.15981731224E+04  0.15981731224E+04  0.00000000000E+00 0. -1.
         23    2    1    2    0    0  0.15029467621E+03 -0.48987089388E+02 -0.86401983954E+03  0.88721114969E+03  0.12500046557E+03 0.  0.
          5    1    3    3  502    0  0.10051960309E+03 -0.29395271920E+02 -0.25332994663E+03  0.27416495851E+03  0.47000000000E+01 0. -1.
         -5    1    3    3    0  502  0.49775073124E+02 -0.19591817467E+02 -0.61068989291E+03  0.61304619118E+03  0.47000000000E+01 0. -1.
        -11    1    1    2    0    0  0.26007928566E+00  0.16934102128E+02 -0.22488110819E+02  0.28152203899E+02  0.00000000000E+00 0.  1.
         11    1    1    2    0    0 -0.15055475550E+03  0.32052987260E+02 -0.68874175362E+03  0.70573318724E+03  0.00000000000E+00 0. -1.
<mgrwt>
<rscale>  0 0.19617125E+03</rscale>
<asrwt>0</asrwt>
<pdfrwt beam="2">  1        2 0.24587288E+00 0.20152752E+03</pdfrwt>
<pdfrwt beam="1">  1       -2 0.35266784E-02 0.20152752E+03</pdfrwt>
<totfact> 0.40066894E+03</totfact>
</mgrwt>
</event>
<event>
 7    1  0.4230786E-006  0.1439093E+03  0.7546771E-02  0.1218122E+00
         -2   -1    0    0    0  501 -0.00000000000E+00  0.00000000000E+00  0.13757066833E+02  0.13757066833E+02  0.00000000000E+00 0.  1.
          2   -1    0    0  501    0  0.00000000000E+00 -0.00000000000E+00 -0.12324543862E+04  0.12324543862E+04  0.00000000000E+00 0. -1.
         23    2    1    2    0    0  0.58822691276E+01  0.71065365911E+02 -0.68431330082E+03  0.69928147264E+03  0.12499998792E+03 0.  0.
          5    1    3    3  502    0  0.45847271661E+02 -0.87088305144E+01 -0.13908257621E+03  0.14677829898E+03  0.47000000000E+01 0.  1.
         -5    1    3    3    0  502 -0.39965002534E+02  0.79774196425E+02 -0.54523072461E+03  0.55250317366E+03  0.47000000000E+01 0.  1.
        -11    1    1    2    0    0 -0.15782256876E+02  0.18466390009E+02 -0.76300324309E+02  0.80073882644E+02  0.00000000000E+00 0.  1.
         11    1    1    2    0    0  0.98999877484E+01 -0.89531755920E+02 -0.45808369423E+03  0.46685609774E+03  0.00000000000E+00 0. -1.
<mgrwt>
<rscale>  0 0.13649716E+03</rscale>
<asrwt>0</asrwt>
<pdfrwt beam="2">  1        2 0.18960830E+00 0.14390929E+03</pdfrwt>
<pdfrwt beam="1">  1       -2 0.21164726E-02 0.14390929E+03</pdfrwt>
<totfact> 0.13188505E+04</totfact>
</mgrwt>
</event>
<event>
 7    1  0.4230786E-006  0.2769801E+03  0.7546771E-02  0.1098709E+00
         -1   -1    0    0    0  501 -0.00000000000E+00  0.00000000000E+00  0.10773713638E+03  0.10773713638E+03  0.00000000000E+00 0. -1.
          1   -1    0    0  501    0  0.00000000000E+00 -0.00000000000E+00 -0.71012630766E+03  0.71012630766E+03  0.00000000000E+00 0.  1.
         23    2    1    2    0    0  0.13230301394E+03  0.20877507577E+03 -0.37928036720E+03  0.46965049978E+03  0.12500750073E+03 0.  0.
          5    1    3    3  502    0  0.10617321110E+03  0.17818541885E+03 -0.37545590694E+03  0.42896622513E+03  0.47000000000E+01 0.  1.
         -5    1    3    3    0  502  0.26129802842E+02  0.30589656920E+02 -0.38244602534E+01  0.40684274644E+02  0.47000000000E+01 0.  1.
        -11    1    1    2    0    0 -0.41801331607E+02 -0.12718749812E+03 -0.65639748409E+02  0.14910596089E+03  0.00000000000E+00 0. -1.
         11    1    1    2    0    0 -0.90501682331E+02 -0.81587577659E+02 -0.15746905567E+03  0.19910698337E+03  0.00000000000E+00 0.  1.
<mgrwt>
<rscale>  0 0.27453993E+03</rscale>
<asrwt>0</asrwt>
<pdfrwt beam="2">  1        1 0.10925020E+00 0.27698013E+03</pdfrwt>
<pdfrwt beam="1">  1       -1 0.16574944E-01 0.27698013E+03</pdfrwt>
<totfact> 0.75773790E+02</totfact>
</mgrwt>
</event>
<event>
 7    1  0.4230786E-006  0.1333773E+03  0.7546771E-02  0.1233449E+00
         -1   -1    0    0    0  501 -0.00000000000E+00  0.00000000000E+00  0.79329165587E+02  0.79329165587E+02  0.00000000000E+00 0.  1.
          1   -1    0    0  501    0  0.00000000000E+00 -0.00000000000E+00 -0.22013949313E+03  0.22013949313E+03  0.00000000000E+00 0. -1.
         23    2    1    2    0    0  0.45682458787E+02 -0.87790070082E+01 -0.14239129132E+02  0.13413522357E+03  0.12500218958E+03 0.  0.
          5    1    3    3  502    0  0.23537616782E+02  0.51684510246E+02 -0.34319093795E+02  0.66522163240E+02  0.47000000000E+01 0. -1.
         -5    1    3    3    0  502  0.22144842005E+02 -0.60463517254E+02  0.20079964663E+02  0.67613060329E+02  0.47000000000E+01 0. -1.
        -11    1    1    2    0    0 -0.73592504870E+02 -0.74326286177E+01 -0.91786006330E+02  0.11788032787E+03  0.00000000000E+00 0. -1.
         11    1    1    2    0    0  0.27910046083E+02  0.16211635626E+02 -0.34785192078E+02  0.47453107273E+02  0.00000000000E+00 0.  1.
<mgrwt>
<rscale>  0 0.12604269E+03</rscale>
<asrwt>0</asrwt>
<pdfrwt beam="2">  1        1 0.33867614E-01 0.13337730E+03</pdfrwt>
<pdfrwt beam="1">  1       -1 0.12204487E-01 0.13337730E+03</pdfrwt>
<totfact> 0.55227566E+03</totfact>
</mgrwt>
</event>
<event>
 7    1  0.4230786E-006  0.1349053E+03  0.7546771E-02  0.1233528E+00
          1   -1    0    0  501    0  0.00000000000E+00  0.00000000000E+00  0.28316890995E+03  0.28316890995E+03  0.00000000000E+00 0. -1.
         -1   -1    0    0    0  501 -0.00000000000E+00 -0.00000000000E+00 -0.57208022349E+02  0.57208022349E+02  0.00000000000E+00 0.  1.
         23    2    1    2    0    0  0.45940304707E+02  0.21628313948E+02  0.65657993700E+02  0.15003467921E+03  0.12498454812E+03 0.  0.
          5    1    3    3  502    0  0.78320879291E+02 -0.19533720166E+01  0.69306227700E+01  0.78791492733E+02  0.47000000000E+01 0.  1.
         -5    1    3    3    0  502 -0.32380574584E+02  0.23581685965E+02  0.58727370930E+02  0.71243186479E+02  0.47000000000E+01 0.  1.
        -11    1    1    2    0    0  0.15331752974E+02  0.50451321345E+01 -0.56076677869E+00  0.16150246651E+02  0.00000000000E+00 0.  1.
         11    1    1    2    0    0 -0.61272057681E+02 -0.26673446083E+02  0.16086366068E+03  0.17419200643E+03  0.00000000000E+00 0. -1.
<mgrwt>
<rscale>  0 0.12599158E+03</rscale>
<asrwt>0</asrwt>
<pdfrwt beam="1">  1        1 0.43564447E-01 0.13490527E+03</pdfrwt>
<pdfrwt beam="2">  1       -1 0.88012344E-02 0.13490527E+03</pdfrwt>
<totfact> 0.66738183E+03</totfact>
</mgrwt>
</event>
<event>
 7    1  0.4230786E-006  0.1364702E+03  0.7546771E-02  0.1230049E+00
          2   -1    0    0  501    0  0.00000000000E+00  0.00000000000E+00  0.10791401071E+03  0.10791401071E+03  0.00000000000E+00 0. -1.
         -2   -1    0    0    0  501 -0.00000000000E+00 -0.00000000000E+00 -0.14064238163E+03  0.14064238163E+03  0.00000000000E+00 0.  1.
         23    2    1    2    0    0  0.35232670481E+02  0.41930291191E+02 -0.38808852981E+02  0.14188104312E+03  0.12499845174E+03 0.  0.
          5    1    3    3  502    0 -0.21893312275E+02  0.59440469397E+02 -0.50092781599E+02  0.80894148694E+02  0.47000000000E+01 0.  1.
         -5    1    3    3    0  502  0.57125982755E+02 -0.17510178206E+02  0.11283928618E+02  0.60986894425E+02  0.47000000000E+01 0.  1.
        -11    1    1    2    0    0 -0.46174690174E+02 -0.45895565216E+01 -0.28637326933E+02  0.54527630937E+02  0.00000000000E+00 0.  1.
         11    1    1    2    0    0  0.10942019693E+02 -0.37340734670E+02  0.34717808994E+02  0.52147718282E+02  0.00000000000E+00 0. -1.
<mgrwt>
<rscale>  0 0.12826779E+03</rscale>
<asrwt>0</asrwt>
<pdfrwt beam="1">  1        2 0.16602155E-01 0.13647016E+03</pdfrwt>
<pdfrwt beam="2">  1       -2 0.21637290E-01 0.13647016E+03</pdfrwt>
<totfact> 0.60153260E+03</totfact>
</mgrwt>
</event>
<event>
 7    1  0.4230786E-006  0.1412523E+03  0.7546771E-02  0.1221028E+00
         -1   -1    0    0    0  501 -0.00000000000E+00  0.00000000000E+00  0.37037627985E+02  0.37037627985E+02  0.00000000000E+00 0.  1.
          1   -1    0    0  501    0  0.00000000000E+00 -0.00000000000E+00 -0.47000453251E+03  0.47000453251E+03  0.00000000000E+00 0. -1.
         23    2    1    2    0    0  0.64671494310E+02 -0.11979763216E+02 -0.18005583476E+03  0.22884995900E+03  0.12500513269E+03 0.  0.
          5    1    3    3  502    0 -0.25124666142E+00 -0.13124860389E+02 -0.16017299418E+03  0.16077873974E+03  0.47000000000E+01 0. -1.
         -5    1    3    3    0  502  0.64922740972E+02  0.11450971731E+01 -0.19882840578E+02  0.68071219265E+02  0.47000000000E+01 0. -1.
        -11    1    1    2    0    0 -0.12734333077E+02  0.26358860724E+02 -0.12527138691E+02  0.31841513490E+02  0.00000000000E+00 0.  1.
         11    1    1    2    0    0 -0.51937161234E+02 -0.14379097508E+02 -0.24038393108E+03  0.24635068801E+03  0.00000000000E+00 0. -1.
<mgrwt>
<rscale>  0 0.13442916E+03</rscale>
<asrwt>0</asrwt>
<pdfrwt beam="2">  1        1 0.72308386E-01 0.14125226E+03</pdfrwt>
<pdfrwt beam="1">  1       -1 0.56980969E-02 0.14125226E+03</pdfrwt>
<totfact> 0.68043400E+03</totfact>
</mgrwt>
</event>
<event>
 6    1  0.4230786E-006  0.4062787E+03  0.7546771E-02  0.1057109E+00
          2   -1    0    0  501    0  0.00000000000E+00  0.00000000000E+00  0.10578619325E+03  0.10578619325E+03  0.00000000000E+00 0. -1.
         -2   -1    0    0    0  501 -0.00000000000E+00 -0.00000000000E+00 -0.10647571722E+04  0.10647571722E+04  0.00000000000E+00 0.  1.
          5    1    1    2  502    0 -0.46484094047E+01 -0.22353274488E+03 -0.27131466722E+03  0.35159953696E+03  0.47000000000E+01 0. -1.
         -5    1    1    2    0  502 -0.16349374271E+03  0.48205562257E+02 -0.37273916380E+03  0.40989090545E+03  0.47000000000E+01 0.  1.
        -11    1    1    2    0    0  0.29464586123E+02 -0.47461553197E+01 -0.17034108194E+02  0.34363478690E+02  0.00000000000E+00 0.  1.
         11    1    1    2    0    0  0.13867756599E+03  0.18007333794E+03 -0.29788303969E+03  0.37468944432E+03  0.00000000000E+00 0. -1.
<mgrwt>
<rscale>  0 0.36374952E+03</rscale>
<asrwt>0</asrwt>
<pdfrwt beam="1">  1        2 0.16274798E-01 0.40627867E+03</pdfrwt>
<pdfrwt beam="2">  1       -2 0.16380880E+00 0.40627867E+03</pdfrwt>
<totfact> 0.88357136E+01</totfact>
</mgrwt>
</event>
<event>
 7    1  0.4230786E-006  0.1772992E+03  0.7546771E-02  0.1175977E+00
          4   -1    0    0  501    0  0.00000000000E+00  0.00000000000E+00  0.33859321944E+02  0.33859321944E+02  0.00000000000E+00 0.  1.
         -4   -1    0    0    0  501 -0.00000000000E+00 -0.00000000000E+00 -0.84624302660E+03  0.84624302660E+03  0.00000000000E+00 0. -1.
         23    2    1    2    0    0 -0.94076903377E+02 -0.83390187014E+02 -0.35640502199E+03  0.39806976911E+03  0.12502245536E+03 0.  0.
          5    1    3    3  502    0 -0.59091492970E+02 -0.11303642807E+03 -0.29377336513E+03  0.32030285461E+03  0.47000000000E+01 0. -1.
         -5    1    3    3    0  502 -0.34985410406E+02  0.29646241060E+02 -0.62631656856E+02  0.77766914500E+02  0.47000000000E+01 0. -1.
        -11    1    1    2    0    0  0.43666782285E+02  0.93167581749E+02 -0.26510376979E+03  0.28437122731E+03  0.00000000000E+00 0.  1.
         11    1    1    2    0    0  0.50410121092E+02 -0.97773947356E+01 -0.19087491288E+03  0.19766135212E+03  0.00000000000E+00 0. -1.
<mgrwt>
<rscale>  0 0.17180672E+03</rscale>
<asrwt>0</asrwt>
<pdfrwt beam="1">  1        4 0.52091260E-02 0.17729919E+03</pdfrwt>
<pdfrwt beam="2">  1       -4 0.13019125E+00 0.17729919E+03</pdfrwt>
<totfact> 0.17745147E+02</totfact>
</mgrwt>
</event>
<event>
 7    1  0.4230786E-006  0.1278187E+03  0.7546771E-02  0.1280238E+00
         -2   -1    0    0    0  501 -0.00000000000E+00  0.00000000000E+00  0.15660900890E+03  0.15660900890E+03  0.00000000000E+00 0.  1.
          2   -1    0    0  501    0  0.00000000000E+00 -0.00000000000E+00 -0.50372124384E+02  0.50372124384E+02  0.00000000000E+00 0. -1.
         23    2    1    2    0    0 -0.26668127872E+02  0.11161221333E+01  0.90158247642E+02  0.15641652251E+03  0.12500073649E+03 0.  0.
          5    1    3    3  502    0 -0.52146200605E+01 -0.25539930784E+02 -0.24859010240E+02  0.36325483024E+02  0.47000000000E+01 0. -1.
         -5    1    3    3    0  502 -0.21453507811E+02  0.26656052918E+02  0.11501725788E+03  0.12009103949E+03  0.47000000000E+01 0. -1.
        -11    1    1    2    0    0  0.37872893493E+01 -0.95615644456E+01 -0.10357589073E+02  0.14596120261E+02  0.00000000000E+00 0. -1.
         11    1    1    2    0    0  0.22880838523E+02  0.84454423122E+01  0.26436225944E+02  0.35968490509E+02  0.00000000000E+00 0.  1.
<mgrwt>
<rscale>  0 0.10002778E+03</rscale>
<asrwt>0</asrwt>
<pdfrwt beam="2">  1        2 0.77495577E-02 0.12781870E+03</pdfrwt>
<pdfrwt beam="1">  1       -2 0.24093693E-01 0.12781870E+03</pdfrwt>
<totfact> 0.12480789E+04</totfact>
</mgrwt>
</event>
<event>
 7    1  0.4230786E-006  0.1364254E+03  0.7546771E-02  0.1231031E+00
          4   -1    0    0  501    0  0.00000000000E+00  0.00000000000E+00  0.67867277179E+03  0.67867277179E+03  0.00000000000E+00 0. -1.
         -4   -1    0    0    0  501 -0.00000000000E+00 -0.00000000000E+00 -0.22071931655E+02  0.22071931655E+02  0.00000000000E+00 0.  1.
         23    2    1    2    0    0 -0.54150882902E+02 -0.34132019080E+01  0.30880978678E+03  0.33760239849E+03  0.12517159018E+03 0.  0.
          5    1    3    3  502    0 -0.94543831655E+02  0.91821137305E+00  0.19743378102E+03  0.21895562816E+03  0.47000000000E+01 0.  1.
         -5    1    3    3    0  502  0.40392948753E+02 -0.43314132811E+01  0.11137600576E+03  0.11864677033E+03  0.47000000000E+01 0.  1.
        -11    1    1    2    0    0  0.40776886181E+01  0.38369741037E+02  0.84985400874E+02  0.93334789513E+02  0.00000000000E+00 0.  1.
         11    1    1    2    0    0  0.50073194284E+02 -0.34956539129E+02  0.26280565248E+03  0.26980751544E+03  0.00000000000E+00 0. -1.
<mgrwt>
<rscale>  0 0.12761980E+03</rscale>
<asrwt>0</asrwt>
<pdfrwt beam="1">  1        4 0.10441118E+00 0.13642542E+03</pdfrwt>
<pdfrwt beam="2">  1       -4 0.33956823E-02 0.13642542E+03</pdfrwt>
<totfact> 0.57035824E+02</totfact>
</mgrwt>
</event>
<event>
 7    1  0.4230786E-006  0.2631479E+03  0.7546771E-02  0.1107444E+00
          1   -1    0    0  501    0  0.00000000000E+00  0.00000000000E+00  0.32820996384E+03  0.32820996384E+03  0.00000000000E+00 0. -1.
         -1   -1    0    0    0  501 -0.00000000000E+00 -0.00000000000E+00 -0.23006919280E+03  0.23006919280E+03  0.00000000000E+00 0.  1.
         23    2    1    2    0    0 -0.83761165174E+02  0.21588431163E+03 -0.51153871738E+02  0.26807377339E+03  0.12499944234E+03 0.  0.
          5    1    3    3  502    0 -0.51857280402E+02  0.11326131501E+03  0.35863994814E+02  0.12971360427E+03  0.47000000000E+01 0. -1.
         -5    1    3    3    0  502 -0.31903884772E+02  0.10262299662E+03 -0.87017866552E+02  0.13836016911E+03  0.47000000000E+01 0. -1.
        -11    1    1    2    0    0  0.16543248077E+02 -0.21421186116E+02  0.60174221966E+02  0.65980931039E+02  0.00000000000E+00 0. -1.
         11    1    1    2    0    0  0.67217917097E+02 -0.19446312551E+03  0.89120420809E+02  0.22422445221E+03  0.00000000000E+00 0.  1.
<mgrwt>
<rscale>  0 0.25950028E+03</rscale>
<asrwt>0</asrwt>
<pdfrwt beam="1">  1        1 0.50493841E-01 0.26314792E+03</pdfrwt>
<pdfrwt beam="2">  1       -1 0.35395260E-01 0.26314792E+03</pdfrwt>
<totfact> 0.60167706E+02</totfact>
</mgrwt>
</event>
<event>
 7    1  0.4230786E-006  0.1337628E+03  0.7546771E-02  0.1234544E+00
         -2   -1    0    0    0  501 -0.00000000000E+00  0.00000000000E+00  0.58146396115E+02  0.58146396115E+02  0.00000000000E+00 0.  1.
          2   -1    0    0  501    0  0.00000000000E+00 -0.00000000000E+00 -0.25510191662E+03  0.25510191662E+03  0.00000000000E+00 0. -1.
         23    2    1    2    0    0  0.47005895303E+02  0.77161509417E+01 -0.74309749396E+02  0.15301771491E+03  0.12499355600E+03 0.  0.
          5    1    3    3  502    0  0.81802774505E+02  0.19691613620E+02 -0.18947289076E+02  0.86374436768E+02  0.47000000000E+01 0. -1.
         -5    1    3    3    0  502 -0.34796879202E+02 -0.11975462678E+02 -0.55362460320E+02  0.66643278139E+02  0.47000000000E+01 0. -1.
        -11    1    1    2    0    0  0.22872674866E+02 -0.21658491811E+02 -0.31631520555E+02  0.44640817820E+02  0.00000000000E+00 0.  1.
         11    1    1    2    0    0 -0.69878570169E+02  0.13942340869E+02 -0.91014250551E+02  0.11558978000E+03  0.00000000000E+00 0. -1.
<mgrwt>
<rscale>  0 0.12533652E+03</rscale>
<asrwt>0</asrwt>
<pdfrwt beam="2">  1        2 0.39246449E-01 0.13376278E+03</pdfrwt>
<pdfrwt beam="1">  1       -2 0.89455993E-02 0.13376278E+03</pdfrwt>
<totfact> 0.97629453E+03</totfact>
</mgrwt>
</event>
<event>
 7    1  0.4230786E-006  0.1272507E+03  0.7546771E-02  0.1249703E+00
          2   -1    0    0  501    0  0.00000000000E+00  0.00000000000E+00  0.16744793838E+03  0.16744793838E+03  0.00000000000E+00 0.  1.
         -2   -1    0    0    0  501 -0.00000000000E+00 -0.00000000000E+00 -0.94041793908E+02  0.94041793908E+02  0.00000000000E+00 0. -1.
         23    2    1    2    0    0  0.13347825476E+02 -0.19738761787E+02 -0.24690589537E+02  0.12962390960E+03  0.12499979827E+03 0.  0.
          5    1    3    3  502    0  0.83268137709E+01  0.11866690212E+01  0.50429186975E+02  0.51341376198E+02  0.47000000000E+01 0.  1.
         -5    1    3    3    0  502  0.50210117050E+01 -0.20925430808E+02 -0.75119776512E+02  0.78282533405E+02  0.47000000000E+01 0.  1.
        -11    1    1    2    0    0  0.26286214844E+02  0.35111230340E+02  0.36707233815E+02  0.57194270702E+02  0.00000000000E+00 0.  1.
         11    1    1    2    0    0 -0.39634040320E+02 -0.15372468553E+02  0.61389500191E+02  0.74671551980E+02  0.00000000000E+00 0. -1.
<mgrwt>
<rscale>  0 0.11608260E+03</rscale>
<asrwt>0</asrwt>
<pdfrwt beam="1">  1        2 0.25761221E-01 0.12725067E+03</pdfrwt>
<pdfrwt beam="2">  1       -2 0.14467968E-01 0.12725067E+03</pdfrwt>
<totfact> 0.71349077E+03</totfact>
</mgrwt>
</event>
<event>
 7    1  0.4230786E-006  0.1266948E+03  0.7546771E-02  0.1247934E+00
         -2   -1    0    0    0  501 -0.00000000000E+00  0.00000000000E+00  0.54692394641E+03  0.54692394641E+03  0.00000000000E+00 0.  1.
          2   -1    0    0  501    0  0.00000000000E+00 -0.00000000000E+00 -0.23613766326E+02  0.23613766326E+02  0.00000000000E+00 0. -1.
         23    2    1    2    0    0  0.19094023169E+02 -0.76701845197E+01  0.37417412907E+03  0.39504158538E+03  0.12501264682E+03 0.  0.
          5    1    3    3  502    0  0.22495476815E+02 -0.63954583363E+02  0.23971998264E+03  0.24916660147E+03  0.47000000000E+01 0.  1.
         -5    1    3    3    0  502 -0.34014536461E+01  0.56284398843E+02  0.13445414643E+03  0.14587498391E+03  0.47000000000E+01 0.  1.
        -11    1    1    2    0    0 -0.39107016080E+02  0.35442327782E+02  0.11782001922E+03  0.12910102337E+03  0.00000000000E+00 0. -1.
         11    1    1    2    0    0  0.20012992912E+02 -0.27772143262E+02  0.31316031795E+02  0.46395103988E+02  0.00000000000E+00 0.  1.
<mgrwt>
<rscale>  0 0.11711470E+03</rscale>
<asrwt>0</asrwt>
<pdfrwt beam="2">  1        2 0.36328876E-02 0.12669481E+03</pdfrwt>
<pdfrwt beam="1">  1       -2 0.84142136E-01 0.12669481E+03</pdfrwt>
<totfact> 0.29174349E+03</totfact>
</mgrwt>
</event>
<event>
 7    1  0.4230786E-006  0.1262436E+03  0.7546771E-02  0.1247874E+00
          2   -1    0    0  501    0  0.00000000000E+00  0.00000000000E+00  0.40630129578E+03  0.40630129578E+03  0.00000000000E+00 0. -1.
         -2   -1    0    0    0  501 -0.00000000000E+00 -0.00000000000E+00 -0.30307341665E+02  0.30307341665E+02  0.00000000000E+00 0.  1.
         23    2    1    2    0    0  0.17401264590E+02  0.33314147571E+01  0.24485284328E+03  0.27548206574E+03  0.12499420525E+03 0.  0.
          5    1    3    3  502    0  0.56888382552E+00  0.62762203730E+02  0.10324546648E+03  0.12091788203E+03  0.47000000000E+01 0.  1.
         -5    1    3    3    0  502  0.16832380765E+02 -0.59430788973E+02  0.14160737680E+03  0.15456418371E+03  0.47000000000E+01 0.  1.
        -11    1    1    2    0    0  0.60631293298E+01 -0.34650805281E+02  0.14417179411E+02  0.38017034420E+02  0.00000000000E+00 0.  1.
         11    1    1    2    0    0 -0.23464393920E+02  0.31319390524E+02  0.11672393142E+03  0.12310953728E+03  0.00000000000E+00 0. -1.
<mgrwt>
<rscale>  0 0.11715034E+03</rscale>
<asrwt>0</asrwt>
<pdfrwt beam="1">  1        2 0.62507888E-01 0.12624363E+03</pdfrwt>
<pdfrwt beam="2">  1       -2 0.46626682E-02 0.12624363E+03</pdfrwt>
<totfact> 0.15994622E+04</totfact>
</mgrwt>
</event>
<event>
 7    1  0.4230786E-006  0.1462101E+03  0.7546771E-02  0.1210759E+00
         -2   -1    0    0    0  501 -0.00000000000E+00  0.00000000000E+00  0.20504190492E+03  0.20504190492E+03  0.00000000000E+00 0.  1.
          2   -1    0    0  501    0  0.00000000000E+00 -0.00000000000E+00 -0.11723327787E+03  0.11723327787E+03  0.00000000000E+00 0. -1.
         23    2    1    2    0    0  0.15667603429E+02  0.74196789161E+02  0.11928584214E+03  0.18869685901E+03  0.12500702039E+03 0.  0.
          5    1    3    3  502    0 -0.16822297697E+02  0.51267722807E+02 -0.84636385538E+01  0.54818721977E+02  0.47000000000E+01 0.  1.
         -5    1    3    3    0  502  0.32489901125E+02  0.22929066354E+02  0.12774948069E+03  0.13387813704E+03  0.47000000000E+01 0.  1.
        -11    1    1    2    0    0 -0.47686408306E+02 -0.51502584789E+02 -0.53792766432E+02  0.88431733543E+02  0.00000000000E+00 0. -1.
         11    1    1    2    0    0  0.32018804877E+02 -0.22694204372E+02  0.22315551340E+02  0.45146590231E+02  0.00000000000E+00 0.  1.
<mgrwt>
<rscale>  0 0.14192719E+03</rscale>
<asrwt>0</asrwt>
<pdfrwt beam="2">  1        2 0.18035889E-01 0.14621010E+03</pdfrwt>
<pdfrwt beam="1">  1       -2 0.31544908E-01 0.14621010E+03</pdfrwt>
<totfact> 0.28267087E+03</totfact>
</mgrwt>
</event>
<event>
 7    1  0.4230786E-006  0.1396038E+03  0.7546771E-02  0.1224831E+00
         -2   -1    0    0    0  501 -0.00000000000E+00  0.00000000000E+00  0.87160150478E+02  0.87160150478E+02  0.00000000000E+00 0.  1.
          2   -1    0    0  501    0  0.00000000000E+00 -0.00000000000E+00 -0.30533390606E+03  0.30533390606E+03  0.00000000000E+00 0. -1.
         23    2    1    2    0    0  0.29206744048E+02 -0.54867129628E+02  0.88139014976E+01  0.13988172535E+03  0.12500310562E+03 0.  0.
          5    1    3    3  502    0  0.40759078173E+02  0.28914500326E+02 -0.14091517937E+02  0.52134553421E+02  0.47000000000E+01 0. -1.
         -5    1    3    3    0  502 -0.11552334125E+02 -0.83781629954E+02  0.22905419435E+02  0.87747171926E+02  0.47000000000E+01 0. -1.
        -11    1    1    2    0    0 -0.34894291509E+02 -0.11615372894E+02 -0.12842943435E+03  0.13359134730E+03  0.00000000000E+00 0.  1.
         11    1    1    2    0    0  0.56875474607E+01  0.66482502522E+02 -0.98558222731E+02  0.11902098389E+03  0.00000000000E+00 0. -1.
<mgrwt>
<rscale>  0 0.13178472E+03</rscale>
<asrwt>0</asrwt>
<pdfrwt beam="2">  1        2 0.46974447E-01 0.13960377E+03</pdfrwt>
<pdfrwt beam="1">  1       -2 0.13409254E-01 0.13960377E+03</pdfrwt>
<totfact> 0.42598488E+03</totfact>
</mgrwt>
</event>
<event>
 7    1  0.4230786E-006  0.1336354E+03  0.7546771E-02  0.1237077E+00
         -2   -1    0    0    0  501 -0.00000000000E+00  0.00000000000E+00  0.23250269194E+02  0.23250269194E+02  0.00000000000E+00 0.  1.
          2   -1    0    0  501    0  0.00000000000E+00 -0.00000000000E+00 -0.67008838872E+03  0.67008838872E+03  0.00000000000E+00 0. -1.
         23    2    1    2    0    0  0.46186620041E+02  0.10012791595E+02 -0.23875584609E+03  0.27361062067E+03  0.12499983133E+03 0.  0.
          5    1    3    3  502    0  0.12468752112E+02 -0.12950327633E+01  0.13384635844E+02  0.18931068796E+02  0.47000000000E+01 0. -1.
         -5    1    3    3    0  502  0.33717867929E+02  0.11307824358E+02 -0.25214048194E+03  0.25467955187E+03  0.47000000000E+01 0. -1.
        -11    1    1    2    0    0 -0.17425709268E+02 -0.47522950861E+02 -0.22740675398E+03  0.23297192526E+03  0.00000000000E+00 0.  1.
         11    1    1    2    0    0 -0.28760910772E+02  0.37510159266E+02 -0.18067551945E+03  0.18675611199E+03  0.00000000000E+00 0. -1.
<mgrwt>
<rscale>  0 0.12372386E+03</rscale>
<asrwt>0</asrwt>
<pdfrwt beam="2">  1        2 0.10309051E+00 0.13363539E+03</pdfrwt>
<pdfrwt beam="1">  1       -2 0.35769650E-02 0.13363539E+03</pdfrwt>
<totfact> 0.13678958E+04</totfact>
</mgrwt>
</event>
<event>
 7    1  0.4230786E-006  0.1397364E+03  0.7546771E-02  0.1224476E+00
          1   -1    0    0  501    0  0.00000000000E+00  0.00000000000E+00  0.30695345913E+02  0.30695345913E+02  0.00000000000E+00 0. -1.
         -1   -1    0    0    0  501 -0.00000000000E+00 -0.00000000000E+00 -0.51824763045E+03  0.51824763045E+03  0.00000000000E+00 0.  1.
         23    2    1    2    0    0 -0.64192879339E+01  0.62134219926E+02 -0.24503482038E+03  0.28207859955E+03  0.12499761830E+03 0.  0.
          5    1    3    3  502    0 -0.20713053295E+02  0.30747425979E+02 -0.29303279344E+01  0.37484818299E+02  0.47000000000E+01 0. -1.
         -5    1    3    3    0  502  0.14293765361E+02  0.31386793948E+02 -0.24210449245E+03  0.24459378125E+03  0.47000000000E+01 0. -1.
        -11    1    1    2    0    0  0.10554479702E+02 -0.86202013471E+02 -0.18454830279E+03  0.20396141849E+03  0.00000000000E+00 0. -1.
         11    1    1    2    0    0 -0.41351917684E+01  0.24067793545E+02 -0.57969161367E+02  0.62902958330E+02  0.00000000000E+00 0.  1.
<mgrwt>
<rscale>  0 0.13202865E+03</rscale>
<asrwt>0</asrwt>
<pdfrwt beam="1">  1        1 0.47223613E-02 0.13973644E+03</pdfrwt>
<pdfrwt beam="2">  1       -1 0.79730399E-01 0.13973644E+03</pdfrwt>
<totfact> 0.28612275E+03</totfact>
</mgrwt>
</event>
<event>
 7    1  0.4230786E-006  0.1332598E+03  0.7546771E-02  0.1231866E+00
          1   -1    0    0  501    0  0.00000000000E+00  0.00000000000E+00  0.56565231220E+02  0.56565231220E+02  0.00000000000E+00 0. -1.
         -1   -1    0    0    0  501 -0.00000000000E+00 -0.00000000000E+00 -0.54035345718E+03  0.54035345718E+03  0.00000000000E+00 0.  1.
         23    2    1    2    0    0 -0.14386796478E+02  0.61464181127E+02 -0.46678517369E+03  0.48543442449E+03  0.11735994471E+03 0.  0.
          5    1    3    3  502    0 -0.19881753226E+02  0.14426185822E+02 -0.11255973057E+02  0.27426007333E+02  0.47000000000E+01 0. -1.
         -5    1    3    3    0  502  0.54949567479E+01  0.47037995305E+02 -0.45552920064E+03  0.45800841715E+03  0.47000000000E+01 0.  1.
        -11    1    1    2    0    0  0.47274475823E+01  0.23845268250E+02 -0.29632013544E+01  0.24489306663E+02  0.00000000000E+00 0.  1.
         11    1    1    2    0    0  0.96593488960E+01 -0.85309449377E+02 -0.14039850917E+02  0.86994957256E+02  0.00000000000E+00 0. -1.
<mgrwt>
<rscale>  0 0.12707208E+03</rscale>
<asrwt>0</asrwt>
<pdfrwt beam="1">  1        1 0.87023434E-02 0.13325983E+03</pdfrwt>
<pdfrwt beam="2">  1       -1 0.83131300E-01 0.13325983E+03</pdfrwt>
<totfact> 0.11454070E+03</totfact>
</mgrwt>
</event>
<event>
 7    1  0.4230786E-006  0.1159428E+03  0.7546771E-02  0.1262489E+00
          1   -1    0    0  501    0  0.00000000000E+00  0.00000000000E+00  0.48121589956E+02  0.48121589956E+02  0.00000000000E+00 0. -1.
         -1   -1    0    0    0  501 -0.00000000000E+00 -0.00000000000E+00 -0.81899755644E+03  0.81899755644E+03  0.00000000000E+00 0.  1.
         23    2    1    2    0    0 -0.37013404890E+01 -0.18383047069E+02 -0.76789733566E+03  0.77660096448E+03  0.11441636058E+03 0.  0.
          5    1    3    3  502    0  0.44671872827E+02  0.10967053637E+02 -0.17548898858E+03  0.18147817390E+03  0.47000000000E+01 0. -1.
         -5    1    3    3    0  502 -0.48373213316E+02 -0.29350100706E+02 -0.59240834708E+03  0.59512279058E+03  0.47000000000E+01 0.  1.
        -11    1    1    2    0    0  0.21465080996E+02 -0.56598693726E+01 -0.38285723874E+02  0.44255852449E+02  0.00000000000E+00 0.  1.
         11    1    1    2    0    0 -0.17763740507E+02  0.24042916442E+02  0.35307093054E+02  0.46262329468E+02  0.00000000000E+00 0. -1.
<mgrwt>
<rscale>  0 0.10897028E+03</rscale>
<asrwt>0</asrwt>
<pdfrwt beam="1">  1        1 0.74033219E-02 0.11594283E+03</pdfrwt>
<pdfrwt beam="2">  1       -1 0.12599962E+00 0.11594283E+03</pdfrwt>
<totfact> 0.56369007E+02</totfact>
</mgrwt>
</event>
<event>
 7    1  0.4230786E-006  0.1828167E+03  0.7546771E-02  0.1170396E+00
          1   -1    0    0  501    0  0.00000000000E+00  0.00000000000E+00  0.52273265294E+03  0.52273265294E+03  0.00000000000E+00 0. -1.
         -1   -1    0    0    0  501 -0.00000000000E+00 -0.00000000000E+00 -0.13279311928E+03  0.13279311928E+03  0.00000000000E+00 0.  1.
         23    2    1    2    0    0  0.12406198390E+03  0.49028261572E+02 -0.47668681031E+02  0.18892917060E+03  0.12500712809E+03 0.  0.
          5    1    3    3  502    0  0.81455035432E+02 -0.29420381746E+02  0.18146046560E+01  0.86751740325E+02  0.47000000000E+01 0.  1.
         -5    1    3    3    0  502  0.42606948466E+02  0.78448643318E+02 -0.49483285687E+02  0.10217743028E+03  0.47000000000E+01 0.  1.
        -11    1    1    2    0    0 -0.88957801032E+02  0.89581608909E+00  0.16727994746E+03  0.18946470297E+03  0.00000000000E+00 0.  1.
         11    1    1    2    0    0 -0.35104182866E+02 -0.49924077661E+02  0.27032826723E+03  0.27713189865E+03  0.00000000000E+00 0. -1.
<mgrwt>
<rscale>  0 0.17734672E+03</rscale>
<asrwt>0</asrwt>
<pdfrwt beam="1">  1        1 0.80420407E-01 0.18281665E+03</pdfrwt>
<pdfrwt beam="2">  1       -1 0.20429711E-01 0.18281665E+03</pdfrwt>
<totfact> 0.83053678E+02</totfact>
</mgrwt>
</event>
<event>
 7    1  0.4230786E-006  0.1289627E+03  0.7546771E-02  0.1244239E+00
          1   -1    0    0  501    0  0.00000000000E+00  0.00000000000E+00  0.63809291122E+03  0.63809291122E+03  0.00000000000E+00 0.  1.
         -1   -1    0    0    0  501 -0.00000000000E+00 -0.00000000000E+00 -0.20477428399E+02  0.20477428399E+02  0.00000000000E+00 0. -1.
         23    2    1    2    0    0  0.28639179774E+02 -0.14107038833E+02  0.28543892514E+03  0.31321997473E+03  0.12494863512E+03 0.  0.
          5    1    3    3  502    0  0.29515311530E+02 -0.59941387539E+02  0.23733180977E+03  0.24660211167E+03  0.47000000000E+01 0.  1.
         -5    1    3    3    0  502 -0.87613175645E+00  0.45834348706E+02  0.48107115379E+02  0.66617863057E+02  0.47000000000E+01 0.  1.
        -11    1    1    2    0    0 -0.47068636687E+02 -0.19629114723E+02  0.24211543075E+03  0.24742805118E+03  0.00000000000E+00 0.  1.
         11    1    1    2    0    0  0.18429456913E+02  0.33736153555E+02  0.90061126934E+02  0.97922313716E+02  0.00000000000E+00 0. -1.
<mgrwt>
<rscale>  0 0.11931025E+03</rscale>
<asrwt>0</asrwt>
<pdfrwt beam="1">  1        1 0.98168125E-01 0.12896268E+03</pdfrwt>
<pdfrwt beam="2">  1       -1 0.31503741E-02 0.12896268E+03</pdfrwt>
<totfact> 0.10764386E+04</totfact>
</mgrwt>
</event>
<event>
 7    1  0.4230786E-006  0.1484933E+03  0.7546771E-02  0.1210879E+00
         -2   -1    0    0    0  501 -0.00000000000E+00  0.00000000000E+00  0.24388889845E+02  0.24388889845E+02  0.00000000000E+00 0. -1.
          2   -1    0    0  501    0  0.00000000000E+00 -0.00000000000E+00 -0.76392325718E+03  0.76392325718E+03  0.00000000000E+00 0.  1.
         23    2    1    2    0    0  0.36122494932E+02  0.71548376998E+02 -0.37159651594E+03  0.40016773747E+03  0.12500497014E+03 0.  0.
          5    1    3    3  502    0  0.32435905814E+02 -0.25556273861E+02 -0.18634651473E+03  0.19092491894E+03  0.47000000000E+01 0. -1.
         -5    1    3    3    0  502  0.36865891176E+01  0.97104650859E+02 -0.18525000120E+03  0.20924281852E+03  0.47000000000E+01 0. -1.
        -11    1    1    2    0    0 -0.20568167365E+02 -0.91820785236E+02 -0.32325126983E+03  0.33666821881E+03  0.00000000000E+00 0.  1.
         11    1    1    2    0    0 -0.15554327567E+02  0.20272408239E+02 -0.44686581563E+02  0.51476190745E+02  0.00000000000E+00 0. -1.
<mgrwt>
<rscale>  0 0.14183641E+03</rscale>
<asrwt>0</asrwt>
<pdfrwt beam="2">  1        2 0.11752666E+00 0.14849326E+03</pdfrwt>
<pdfrwt beam="1">  1       -2 0.37521367E-02 0.14849326E+03</pdfrwt>
<totfact> 0.10968591E+04</totfact>
</mgrwt>
</event>
<event>
 7    1  0.4230786E-006  0.1222919E+03  0.7546771E-02  0.1248017E+00
         -2   -1    0    0    0  501 -0.00000000000E+00  0.00000000000E+00  0.86367944791E+02  0.86367944791E+02  0.00000000000E+00 0.  1.
          2   -1    0    0  501    0  0.00000000000E+00 -0.00000000000E+00 -0.21024114494E+03  0.21024114494E+03  0.00000000000E+00 0. -1.
         23    2    1    2    0    0 -0.13484568547E+02  0.29864698587E+02  0.15735983505E+02  0.12330017443E+03  0.11782010875E+03 0.  0.
          5    1    3    3  502    0  0.18024836477E+02  0.10838455636E+02 -0.46267852500E+02  0.51040876027E+02  0.47000000000E+01 0. -1.
         -5    1    3    3    0  502 -0.31509405023E+02  0.19026242951E+02  0.62003836005E+02  0.72259298399E+02  0.47000000000E+01 0.  1.
        -11    1    1    2    0    0 -0.93137904765E+01 -0.51549560947E+02 -0.13039403665E+03  0.14052298289E+03  0.00000000000E+00 0. -1.
         11    1    1    2    0    0  0.22798359023E+02  0.21684862360E+02 -0.92151470004E+01  0.32785932410E+02  0.00000000000E+00 0.  1.
<mgrwt>
<rscale>  0 0.11706591E+03</rscale>
<asrwt>0</asrwt>
<pdfrwt beam="2">  1        2 0.32344791E-01 0.12229191E+03</pdfrwt>
<pdfrwt beam="1">  1       -2 0.13287376E-01 0.12229191E+03</pdfrwt>
<totfact> 0.63789628E+03</totfact>
</mgrwt>
</event>
<event>
 7    1  0.4230786E-006  0.1330867E+03  0.7546771E-02  0.1235856E+00
          1   -1    0    0  501    0  0.00000000000E+00  0.00000000000E+00  0.10141000670E+03  0.10141000670E+03  0.00000000000E+00 0. -1.
         -1   -1    0    0    0  501 -0.00000000000E+00 -0.00000000000E+00 -0.13642391797E+03  0.13642391797E+03  0.00000000000E+00 0.  1.
         23    2    1    2    0    0 -0.11838413032E+02 -0.44124018445E+02 -0.14511109317E+02  0.13387547416E+03  0.12499997304E+03 0.  0.
          5    1    3    3  502    0 -0.59441302185E+02 -0.61045948720E+01 -0.35023728879E+02  0.69421077985E+02  0.47000000000E+01 0. -1.
         -5    1    3    3    0  502  0.47602889153E+02 -0.38019423573E+02  0.20512619562E+02  0.64454396171E+02  0.47000000000E+01 0. -1.
        -11    1    1    2    0    0 -0.34982252660E+02  0.65780032177E+01 -0.25422275385E+02  0.43741515900E+02  0.00000000000E+00 0.  1.
         11    1    1    2    0    0  0.46820665693E+02  0.37546015227E+02  0.49194734249E+01  0.60216934612E+02  0.00000000000E+00 0. -1.
<mgrwt>
<rscale>  0 0.12449796E+03</rscale>
<asrwt>0</asrwt>
<pdfrwt beam="1">  1        1 0.15601540E-01 0.13308670E+03</pdfrwt>
<pdfrwt beam="2">  1       -1 0.20988295E-01 0.13308670E+03</pdfrwt>
<totfact> 0.62484170E+03</totfact>
</mgrwt>
</event>
<event>
 7    1  0.4230786E-006  0.1212064E+03  0.7546771E-02  0.1255097E+00
         -2   -1    0    0    0  501 -0.00000000000E+00  0.00000000000E+00  0.41502253693E+02  0.41502253693E+02  0.00000000000E+00 0.  1.
          2   -1    0    0  501    0  0.00000000000E+00 -0.00000000000E+00 -0.45770051631E+03  0.45770051631E+03  0.00000000000E+00 0. -1.
         23    2    1    2    0    0 -0.11282978888E+01 -0.14437543416E+01 -0.67624165980E+02  0.13879492448E+03  0.12119259777E+03 0.  0.
          5    1    3    3  502    0 -0.39005122128E+02  0.23642442842E+01 -0.87244359517E+02  0.95711323628E+02  0.47000000000E+01 0. -1.
         -5    1    3    3    0  502  0.37876824239E+02 -0.38079986258E+01  0.19620193536E+02  0.43083600852E+02  0.47000000000E+01 0.  1.
        -11    1    1    2    0    0  0.33103345309E+02 -0.26041777930E+02 -0.10365039798E+03  0.11188123466E+03  0.00000000000E+00 0.  1.
         11    1    1    2    0    0 -0.31975047420E+02  0.27485532272E+02 -0.24492369865E+03  0.24852661086E+03  0.00000000000E+00 0. -1.
<mgrwt>
<rscale>  0 0.11300925E+03</rscale>
<asrwt>0</asrwt>
<pdfrwt beam="2">  1        2 0.70415468E-01 0.12120645E+03</pdfrwt>
<pdfrwt beam="1">  1       -2 0.63849618E-02 0.12120645E+03</pdfrwt>
<totfact> 0.87423657E+03</totfact>
</mgrwt>
</event>
<event>
 7    1  0.4230786E-006  0.1512582E+03  0.7546771E-02  0.1207595E+00
          1   -1    0    0  501    0  0.00000000000E+00  0.00000000000E+00  0.67486835827E+02  0.67486835827E+02  0.00000000000E+00 0. -1.
         -1   -1    0    0    0  501 -0.00000000000E+00 -0.00000000000E+00 -0.31780294060E+03  0.31780294060E+03  0.00000000000E+00 0.  1.
         23    2    1    2    0    0 -0.60213733836E+02 -0.60246116746E+02 -0.19848559429E+03  0.24955077369E+03  0.12499507663E+03 0.  0.
          5    1    3    3  502    0  0.26347485345E+01  0.18818029445E+02  0.67953534325E+01  0.20720206570E+02  0.47000000000E+01 0.  1.
         -5    1    3    3    0  502 -0.62848482371E+02 -0.79064146191E+02 -0.20528094772E+03  0.22883056712E+03  0.47000000000E+01 0.  1.
        -11    1    1    2    0    0  0.25554676433E+01  0.45167316819E+02 -0.60468835871E+02  0.75518852183E+02  0.00000000000E+00 0.  1.
         11    1    1    2    0    0  0.57658266193E+02  0.15078799927E+02  0.86383253882E+01  0.60220150557E+02  0.00000000000E+00 0. -1.
<mgrwt>
<rscale>  0 0.14434785E+03</rscale>
<asrwt>0</asrwt>
<pdfrwt beam="1">  1        1 0.10382590E-01 0.15125825E+03</pdfrwt>
<pdfrwt beam="2">  1       -1 0.48892759E-01 0.15125825E+03</pdfrwt>
<totfact> 0.25405071E+03</totfact>
</mgrwt>
</event>
<event>
 6    1  0.4230786E-006  0.2090838E+03  0.7546771E-02  0.1158279E+00
         -2   -1    0    0    0  501 -0.00000000000E+00  0.00000000000E+00  0.31667321851E+02  0.31667321851E+02  0.00000000000E+00 0.  1.
          2   -1    0    0  501    0  0.00000000000E+00 -0.00000000000E+00 -0.11130328892E+04  0.11130328892E+04  0.00000000000E+00 0. -1.
          5    1    1    2  502    0  0.95215641949E+02  0.10847201140E+03 -0.35099591488E+03  0.37954237970E+03  0.47000000000E+01 0. -1.
         -5    1    1    2    0  502  0.25791254422E+01 -0.59477349965E+02 -0.83664889216E+02  0.10279158883E+03  0.47000000000E+01 0.  1.
        -11    1    1    2    0    0 -0.66200526206E+02 -0.76267295620E+02 -0.48080200939E+03  0.49129398764E+03  0.00000000000E+00 0.  1.
         11    1    1    2    0    0 -0.31594241185E+02  0.27272634188E+02 -0.16590275388E+03  0.17107225490E+03  0.00000000000E+00 0. -1.
<mgrwt>
<rscale>  0 0.19020188E+03</rscale>
<asrwt>0</asrwt>
<pdfrwt beam="2">  1        2 0.17123581E+00 0.20908382E+03</pdfrwt>
<pdfrwt beam="1">  1       -2 0.48718962E-02 0.20908382E+03</pdfrwt>
<totfact> 0.45378492E+03</totfact>
</mgrwt>
</event>
<event>
 6    1  0.4230786E-006  0.1907141E+03  0.7546771E-02  0.1177341E+00
         -1   -1    0    0    0  501 -0.00000000000E+00  0.00000000000E+00  0.85043429150E+03  0.85043429150E+03  0.00000000000E+00 0.  1.
          1   -1    0    0  501    0  0.00000000000E+00 -0.00000000000E+00 -0.30882545341E+02  0.30882545341E+02  0.00000000000E+00 0. -1.
          5    1    1    2  502    0 -0.40307378556E+02 -0.36630276120E+02  0.37618119967E+02  0.66360190209E+02  0.47000000000E+01 0. -1.
         -5    1    1    2    0  502 -0.19402870853E+02 -0.11564220080E+02  0.57040310536E+03  0.57086950802E+03  0.47000000000E+01 0.  1.
        -11    1    1    2    0    0 -0.18227372698E+02  0.15975831679E+02  0.11143219736E+02  0.26676500134E+02  0.00000000000E+00 0.  1.
         11    1    1    2    0    0  0.77937622106E+02  0.32218664520E+02  0.20038730110E+03  0.21741063848E+03  0.00000000000E+00 0. -1.
<mgrwt>
<rscale>  0 0.17048734E+03</rscale>
<asrwt>0</asrwt>
<pdfrwt beam="2">  1        1 0.47511615E-02 0.19071413E+03</pdfrwt>
<pdfrwt beam="1">  1       -1 0.13083603E+00 0.19071413E+03</pdfrwt>
<totfact> 0.95054322E+02</totfact>
</mgrwt>
</event>
<event>
 7    1  0.4230786E-006  0.1499318E+03  0.7546771E-02  0.1209287E+00
          1   -1    0    0  501    0  0.00000000000E+00  0.00000000000E+00  0.83438733124E+02  0.83438733124E+02  0.00000000000E+00 0. -1.
         -1   -1    0    0    0  501 -0.00000000000E+00 -0.00000000000E+00 -0.26814421505E+03  0.26814421505E+03  0.00000000000E+00 0.  1.
         23    2    1    2    0    0 -0.33214624465E+01  0.82731937892E+02 -0.16970392928E+03  0.22644857625E+03  0.12499571358E+03 0.  0.
          5    1    3    3  502    0 -0.32535846529E+02  0.16525591165E+02 -0.14537430384E+03  0.14995817647E+03  0.47000000000E+01 0.  1.
         -5    1    3    3    0  502  0.29214384083E+02  0.66206346727E+02 -0.24329625432E+02  0.76490399776E+02  0.47000000000E+01 0.  1.
        -11    1    1    2    0    0 -0.32689195784E+02 -0.63787944643E+02  0.16648910581E+02  0.73584452341E+02  0.00000000000E+00 0. -1.
         11    1    1    2    0    0  0.36010658231E+02 -0.18943993249E+02 -0.31650463231E+02  0.51549919585E+02  0.00000000000E+00 0.  1.
<mgrwt>
<rscale>  0 0.14304692E+03</rscale>
<asrwt>0</asrwt>
<pdfrwt beam="1">  1        1 0.12836728E-01 0.14993176E+03</pdfrwt>
<pdfrwt beam="2">  1       -1 0.41252956E-01 0.14993176E+03</pdfrwt>
<totfact> 0.26034811E+03</totfact>
</mgrwt>
</event>
<event>
 7    1  0.4230786E-006  0.1493123E+03  0.7546771E-02  0.1210595E+00
          1   -1    0    0  501    0  0.00000000000E+00  0.00000000000E+00  0.33899082292E+03  0.33899082292E+03  0.00000000000E+00 0. -1.
         -1   -1    0    0    0  501 -0.00000000000E+00 -0.00000000000E+00 -0.62280457388E+02  0.62280457388E+02  0.00000000000E+00 0.  1.
         23    2    1    2    0    0  0.32155627076E+02 -0.75070443557E+02  0.79371742225E+02  0.16909773166E+03  0.12499845415E+03 0.  0.
          5    1    3    3  502    0  0.68262067467E+02 -0.26072312669E+02  0.79458511971E+02  0.10805193412E+03  0.47000000000E+01 0. -1.
         -5    1    3    3    0  502 -0.36106440391E+02 -0.48998130889E+02 -0.86769746599E-01  0.61045797540E+02  0.47000000000E+01 0. -1.
        -11    1    1    2    0    0  0.18179175301E+02  0.52355840986E+02  0.14830865078E+03  0.15832584248E+03  0.00000000000E+00 0. -1.
         11    1    1    2    0    0 -0.50334802377E+02  0.22714602571E+02  0.49029972526E+02  0.73847706167E+02  0.00000000000E+00 0.  1.
<mgrwt>
<rscale>  0 0.14205140E+03</rscale>
<asrwt>0</asrwt>
<pdfrwt beam="1">  1        1 0.52152433E-01 0.14931232E+03</pdfrwt>
<pdfrwt beam="2">  1       -1 0.95816090E-02 0.14931232E+03</pdfrwt>
<totfact> 0.47188394E+03</totfact>
</mgrwt>
</event>
<event>
 7    1  0.4230786E-006  0.1293972E+03  0.7546771E-02  0.1242470E+00
         -1   -1    0    0    0  501 -0.00000000000E+00  0.00000000000E+00  0.35191036551E+02  0.35191036551E+02  0.00000000000E+00 0.  1.
          1   -1    0    0  501    0  0.00000000000E+00 -0.00000000000E+00 -0.37817712617E+03  0.37817712617E+03  0.00000000000E+00 0. -1.
         23    2    1    2    0    0  0.24275512189E+02 -0.22956665843E+02 -0.15540413460E+03  0.20222286362E+03  0.12500932974E+03 0.  0.
          5    1    3    3  502    0  0.15505684801E+02  0.39183954438E+02 -0.96830075543E+01  0.43493208456E+02  0.47000000000E+01 0.  1.
         -5    1    3    3    0  502  0.87698273881E+01 -0.62140620281E+02 -0.14572112705E+03  0.15872965517E+03  0.47000000000E+01 0.  1.
        -11    1    1    2    0    0  0.15629418810E+02  0.37484288273E+02 -0.14662667996E+03  0.15214707975E+03  0.00000000000E+00 0. -1.
         11    1    1    2    0    0 -0.39904930999E+02 -0.14527622431E+02 -0.40955275059E+02  0.58998219351E+02  0.00000000000E+00 0.  1.
<mgrwt>
<rscale>  0 0.12038097E+03</rscale>
<asrwt>0</asrwt>
<pdfrwt beam="2">  1        1 0.58181098E-01 0.12939722E+03</pdfrwt>
<pdfrwt beam="1">  1       -1 0.54140055E-02 0.12939722E+03</pdfrwt>
<totfact> 0.96180031E+03</totfact>
</mgrwt>
</event>
<event>
 6    1  0.4230786E-006  0.2395810E+03  0.7546771E-02  0.1137252E+00
         -1   -1    0    0    0  501 -0.00000000000E+00  0.00000000000E+00  0.12695542420E+03  0.12695542420E+03  0.00000000000E+00 0.  1.
          1   -1    0    0  501    0  0.00000000000E+00 -0.00000000000E+00 -0.45676880471E+03  0.45676880471E+03  0.00000000000E+00 0. -1.
          5    1    1    2  502    0  0.66927436800E+02  0.33739356172E+02 -0.44780431452E+02  0.87435707766E+02  0.47000000000E+01 0. -1.
         -5    1    1    2    0  502 -0.16283901195E+02 -0.15122048887E+03  0.19774413040E+02  0.15344679568E+03  0.47000000000E+01 0.  1.
        -11    1    1    2    0    0  0.26492332318E+02  0.24097964871E+02 -0.67601184727E+02  0.76501475535E+02  0.00000000000E+00 0.  1.
         11    1    1    2    0    0 -0.77135867924E+02  0.93383167827E+02 -0.23720617737E+03  0.26634024994E+03  0.00000000000E+00 0. -1.
<mgrwt>
<rscale>  0 0.21554048E+03</rscale>
<asrwt>0</asrwt>
<pdfrwt beam="2">  1        1 0.70272124E-01 0.23958105E+03</pdfrwt>
<pdfrwt beam="1">  1       -1 0.19531604E-01 0.23958105E+03</pdfrwt>
<totfact> 0.10684109E+03</totfact>
</mgrwt>
</event>
<event>
 7    1  0.4381824E-006  0.3182360E+03  0.7546771E-02  0.1077941E+00
         -1   -1    0    0    0  501 -0.00000000000E+00  0.00000000000E+00  0.23223823366E+03  0.23223823366E+03  0.00000000000E+00 0.  1.
          1   -1    0    0  501    0  0.00000000000E+00 -0.00000000000E+00 -0.44736180050E+03  0.44736180050E+03  0.00000000000E+00 0. -1.
         23    2    1    2    0    0  0.12039211290E+03  0.26674807156E+03 -0.24253419500E+02  0.31915889041E+03  0.12500149777E+03 0.  0.
          5    1    3    3  502    0 -0.22062848745E+02  0.52676836231E+02  0.14410800258E+02  0.59087896681E+02  0.47000000000E+01 0.  1.
         -5    1    3    3    0  502  0.14245496165E+03  0.21407123533E+03 -0.38664219758E+02  0.26007099373E+03  0.47000000000E+01 0.  1.
        -11    1    1    2    0    0 -0.77925334066E+02 -0.20694109008E+03 -0.97402541472E+02  0.24162828381E+03  0.00000000000E+00 0.  1.
         11    1    1    2    0    0 -0.42466778837E+02 -0.59806981475E+02 -0.93467605869E+02  0.11881285993E+03  0.00000000000E+00 0. -1.
<mgrwt>
<rscale>  0 0.31506892E+03</rscale>
<asrwt>0</asrwt>
<pdfrwt beam="2">  1        1 0.68824891E-01 0.31823603E+03</pdfrwt>
<pdfrwt beam="1">  1       -1 0.35728960E-01 0.31823603E+03</pdfrwt>
<totfact> 0.39631669E+02</totfact>
</mgrwt>
</event>
<event>
 7    1  0.8949305E-006  0.2612265E+03  0.7546771E-02  0.1108446E+00
         -1   -1    0    0    0  501 -0.00000000000E+00  0.00000000000E+00  0.63714382602E+03  0.63714382602E+03  0.00000000000E+00 0.  1.
          1   -1    0    0  501    0  0.00000000000E+00 -0.00000000000E+00 -0.10787051090E+03  0.10787051090E+03  0.00000000000E+00 0. -1.
         23    2    1    2    0    0 -0.17575823761E+03 -0.14738691836E+03  0.35998735933E+03  0.44478105145E+03  0.12500169220E+03 0.  0.
          5    1    3    3  502    0 -0.13664993377E+03 -0.35080704301E+02  0.21507308259E+03  0.25725936536E+03  0.47000000000E+01 0.  1.
         -5    1    3    3    0  502 -0.39108303841E+02 -0.11230621406E+03  0.14491427675E+03  0.18752168608E+03  0.47000000000E+01 0.  1.
        -11    1    1    2    0    0  0.58780566152E+02  0.10825850168E+03  0.68540927687E+02  0.14097133365E+03  0.00000000000E+00 0. -1.
         11    1    1    2    0    0  0.11697767146E+03  0.39128416681E+02  0.10074502810E+03  0.15926195183E+03  0.00000000000E+00 0.  1.
<mgrwt>
<rscale>  0 0.25784379E+03</rscale>
<asrwt>0</asrwt>
<pdfrwt beam="2">  1        1 0.16595464E-01 0.26122650E+03</pdfrwt>
<pdfrwt beam="1">  1       -1 0.98022125E-01 0.26122650E+03</pdfrwt>
<totfact> 0.34473252E+02</totfact>
</mgrwt>
</event>
<event>
 6    1  0.4230786E-006  0.2450360E+03  0.7546771E-02  0.1128224E+00
          2   -1    0    0  501    0  0.00000000000E+00  0.00000000000E+00  0.10237742743E+04  0.10237742743E+04  0.00000000000E+00 0. -1.
         -2   -1    0    0    0  501 -0.00000000000E+00 -0.00000000000E+00 -0.58851669382E+02  0.58851669382E+02  0.00000000000E+00 0.  1.
          5    1    1    2  502    0 -0.11510170618E+02 -0.31258780569E+02  0.12661508581E+03  0.13100788276E+03  0.47000000000E+01 0. -1.
         -5    1    1    2    0  502 -0.37653121116E+02  0.18089712073E+03  0.14596167736E+03  0.23551736045E+03  0.47000000000E+01 0.  1.
        -11    1    1    2    0    0  0.33364949112E+02 -0.51324985948E+02  0.11546386091E+03  0.13068809122E+03  0.00000000000E+00 0. -1.
         11    1    1    2    0    0  0.15798342622E+02 -0.98313354210E+02  0.57688198086E+03  0.58541260927E+03  0.00000000000E+00 0.  1.
<mgrwt>
<rscale>  0 0.22776347E+03</rscale>
<asrwt>0</asrwt>
<pdfrwt beam="1">  1        2 0.15750372E+00 0.24503604E+03</pdfrwt>
<pdfrwt beam="2">  1       -2 0.90541038E-02 0.24503604E+03</pdfrwt>
<totfact> 0.19717594E+03</totfact>
</mgrwt>
</event>
<event>
 7    1  0.4230786E-006  0.1256343E+03  0.7546771E-02  0.1248983E+00
         -2   -1    0    0    0  501 -0.00000000000E+00  0.00000000000E+00  0.43565134531E+02  0.43565134531E+02  0.00000000000E+00 0.  1.
          2   -1    0    0  501    0  0.00000000000E+00 -0.00000000000E+00 -0.28528259221E+03  0.28528259221E+03  0.00000000000E+00 0. -1.
         23    2    1    2    0    0  0.17750936420E+01 -0.12843365014E+02 -0.10597471793E+03  0.16436124223E+03  0.12496349116E+03 0.  0.
          5    1    3    3  502    0 -0.52585639386E+02  0.21238931482E+02 -0.28459061464E+02  0.63626644258E+02  0.47000000000E+01 0.  1.
         -5    1    3    3    0  502  0.54360733028E+02 -0.34082296496E+02 -0.77515656471E+02  0.10073459797E+03  0.47000000000E+01 0.  1.
        -11    1    1    2    0    0 -0.36280795202E+02  0.52523868216E+01 -0.16648993602E+02  0.40262546563E+02  0.00000000000E+00 0.  1.
         11    1    1    2    0    0  0.34505701560E+02  0.75909781925E+01 -0.11909374614E+03  0.12422393795E+03  0.00000000000E+00 0. -1.
<mgrwt>
<rscale>  0 0.11650128E+03</rscale>
<asrwt>0</asrwt>
<pdfrwt beam="2">  1        2 0.43889630E-01 0.12563430E+03</pdfrwt>
<pdfrwt beam="1">  1       -2 0.67023283E-02 0.12563430E+03</pdfrwt>
<totfact> 0.13456164E+04</totfact>
</mgrwt>
</event>
<event>
 7    1  0.4230786E-006  0.1338287E+03  0.7546771E-02  0.1234583E+00
          1   -1    0    0  501    0  0.00000000000E+00  0.00000000000E+00  0.14858005741E+03  0.14858005741E+03  0.00000000000E+00 0. -1.
         -1   -1    0    0    0  501 -0.00000000000E+00 -0.00000000000E+00 -0.13664715954E+03  0.13664715954E+03  0.00000000000E+00 0.  1.
         23    2    1    2    0    0  0.38261960749E+02  0.28655232220E+02 -0.72439664044E+02  0.15217634060E+03  0.12500013495E+03 0.  0.
          5    1    3    3  502    0  0.52982011615E+02 -0.25770462235E+02 -0.75062453484E+02  0.95538851791E+02  0.47000000000E+01 0. -1.
         -5    1    3    3    0  502 -0.14720050866E+02  0.54425694455E+02  0.26227894399E+01  0.56637488811E+02  0.47000000000E+01 0. -1.
        -11    1    1    2    0    0  0.10201986223E+00  0.29979453492E+02  0.11932564624E+02  0.32267075142E+02  0.00000000000E+00 0.  1.
         11    1    1    2    0    0 -0.38363980612E+02 -0.58634685712E+02  0.72439997289E+02  0.10078380120E+03  0.00000000000E+00 0. -1.
<mgrwt>
<rscale>  0 0.12531189E+03</rscale>
<asrwt>0</asrwt>
<pdfrwt beam="1">  1        1 0.22858470E-01 0.13382875E+03</pdfrwt>
<pdfrwt beam="2">  1       -1 0.21022640E-01 0.13382875E+03</pdfrwt>
<totfact> 0.38303284E+03</totfact>
</mgrwt>
</event>
<event>
 7    1  0.4230786E-006  0.1277972E+03  0.7546771E-02  0.1246119E+00
         -3   -1    0    0    0  501 -0.00000000000E+00  0.00000000000E+00  0.16327581357E+03  0.16327581357E+03  0.00000000000E+00 0.  1.
          3   -1    0    0  501    0  0.00000000000E+00 -0.00000000000E+00 -0.11458171294E+03  0.11458171294E+03  0.00000000000E+00 0. -1.
         23    2    1    2    0    0 -0.20497439159E+02 -0.16921756639E+02  0.10785886173E+03  0.16722936655E+03  0.12500254447E+03 0.  0.
          5    1    3    3  502    0  0.17736701538E+02  0.69609466970E+01 -0.22122285480E+02  0.29572468197E+02  0.47000000000E+01 0.  1.
         -5    1    3    3    0  502 -0.38234140697E+02 -0.23882703336E+02  0.12998114722E+03  0.13765689836E+03  0.47000000000E+01 0.  1.
        -11    1    1    2    0    0 -0.31169624609E+02 -0.68908423405E+01 -0.38704403081E+02  0.50170310188E+02  0.00000000000E+00 0. -1.
         11    1    1    2    0    0  0.51667063768E+02  0.23812598979E+02 -0.20460358021E+02  0.60457849771E+02  0.00000000000E+00 0.  1.
<mgrwt>
<rscale>  0 0.11818661E+03</rscale>
<asrwt>0</asrwt>
<pdfrwt beam="2">  1        3 0.17627956E-01 0.12779721E+03</pdfrwt>
<pdfrwt beam="1">  1       -3 0.25119356E-01 0.12779721E+03</pdfrwt>
<totfact> 0.95403886E+02</totfact>
</mgrwt>
</event>
<event>
 7    1  0.4230786E-006  0.1305145E+03  0.7546771E-02  0.1241047E+00
         -2   -1    0    0    0  501 -0.00000000000E+00  0.00000000000E+00  0.18193494739E+02  0.18193494739E+02  0.00000000000E+00 0.  1.
          2   -1    0    0  501    0  0.00000000000E+00 -0.00000000000E+00 -0.73299061761E+03  0.73299061761E+03  0.00000000000E+00 0. -1.
         23    2    1    2    0    0 -0.36475720668E+02  0.90252942204E+01 -0.34632360782E+03  0.37010008368E+03  0.12498838536E+03 0.  0.
          5    1    3    3  502    0 -0.71468053560E+02 -0.59723054340E+01 -0.11495585935E+03  0.13557393079E+03  0.47000000000E+01 0.  1.
         -5    1    3    3    0  502  0.34992332893E+02  0.14997599654E+02 -0.23136774847E+03  0.23452615289E+03  0.47000000000E+01 0.  1.
        -11    1    1    2    0    0  0.74904780747E+01 -0.46450471360E+02 -0.22939144303E+03  0.23416700811E+03  0.00000000000E+00 0. -1.
         11    1    1    2    0    0  0.28985242593E+02  0.37425177140E+02 -0.13908207202E+03  0.14691702056E+03  0.00000000000E+00 0.  1.
<mgrwt>
<rscale>  0 0.12125126E+03</rscale>
<asrwt>0</asrwt>
<pdfrwt beam="2">  1        2 0.11276779E+00 0.13051448E+03</pdfrwt>
<pdfrwt beam="1">  1       -2 0.27989991E-02 0.13051448E+03</pdfrwt>
<totfact> 0.17610963E+04</totfact>
</mgrwt>
</event>
<event>
 7    1  0.4230786E-006  0.1308469E+03  0.7546771E-02  0.1238915E+00
         -2   -1    0    0    0  501 -0.00000000000E+00  0.00000000000E+00  0.56849763689E+02  0.56849763689E+02  0.00000000000E+00 0.  1.
          2   -1    0    0  501    0  0.00000000000E+00 -0.00000000000E+00 -0.27956344463E+03  0.27956344463E+03  0.00000000000E+00 0. -1.
         23    2    1    2    0    0 -0.25365520696E+02  0.29251977368E+02 -0.57550026231E+02  0.14294379949E+03  0.12498734525E+03 0.  0.
          5    1    3    3  502    0  0.15512570634E+02 -0.39821892179E+00 -0.84133726293E+02  0.85681808605E+02  0.47000000000E+01 0.  1.
         -5    1    3    3    0  502 -0.40878091329E+02  0.29650196290E+02  0.26583700062E+02  0.57261990882E+02  0.47000000000E+01 0.  1.
        -11    1    1    2    0    0  0.44815662995E+02  0.31462518681E+01 -0.32288190266E+02  0.55325127936E+02  0.00000000000E+00 0.  1.
         11    1    1    2    0    0 -0.19450142299E+02 -0.32398229236E+02 -0.13287546444E+03  0.13814428090E+03  0.00000000000E+00 0. -1.
<mgrwt>
<rscale>  0 0.12257117E+03</rscale>
<asrwt>0</asrwt>
<pdfrwt beam="2">  1        2 0.43009761E-01 0.13084695E+03</pdfrwt>
<pdfrwt beam="1">  1       -2 0.87461174E-02 0.13084695E+03</pdfrwt>
<totfact> 0.91603465E+03</totfact>
</mgrwt>
</event>
<event>
 7    1  0.4230786E-006  0.1382699E+03  0.7546771E-02  0.1227006E+00
         -2   -1    0    0    0  501 -0.00000000000E+00  0.00000000000E+00  0.38238226652E+03  0.38238226652E+03  0.00000000000E+00 0. -1.
          2   -1    0    0  501    0  0.00000000000E+00 -0.00000000000E+00 -0.69552302225E+02  0.69552302225E+02  0.00000000000E+00 0.  1.
         23    2    1    2    0    0  0.24226227648E+02 -0.53972466103E+02  0.31376104694E+03  0.34287687038E+03  0.12497446322E+03 0.  0.
          5    1    3    3  502    0  0.37983628047E+01 -0.55995392151E+01  0.28033039166E+03  0.28045142340E+03  0.47000000000E+01 0.  1.
         -5    1    3    3    0  502  0.20427864843E+02 -0.48372926888E+02  0.33430655286E+02  0.62425446980E+02  0.47000000000E+01 0.  1.
        -11    1    1    2    0    0 -0.65805289887E+01  0.72272466288E+02 -0.22222566357E+02  0.75897662682E+02  0.00000000000E+00 0.  1.
         11    1    1    2    0    0 -0.17645698659E+02 -0.18300000185E+02  0.21291483704E+02  0.33160035680E+02  0.00000000000E+00 0. -1.
<mgrwt>
<rscale>  0 0.13030340E+03</rscale>
<asrwt>0</asrwt>
<pdfrwt beam="2">  1        2 0.10700354E-01 0.13826986E+03</pdfrwt>
<pdfrwt beam="1">  1       -2 0.58828040E-01 0.13826986E+03</pdfrwt>
<totfact> 0.15756239E+03</totfact>
</mgrwt>
</event>
<event>
 7    1  0.4230786E-006  0.1977420E+03  0.7546771E-02  0.1155985E+00
         -1   -1    0    0    0  501 -0.00000000000E+00  0.00000000000E+00  0.38502199722E+03  0.38502199722E+03  0.00000000000E+00 0.  1.
          1   -1    0    0  501    0  0.00000000000E+00 -0.00000000000E+00 -0.10987517822E+03  0.10987517822E+03  0.00000000000E+00 0. -1.
         23    2    1    2    0    0  0.26465715908E+01  0.15320505799E+03  0.24323246084E+03  0.31347080525E+03  0.12499248617E+03 0.  0.
          5    1    3    3  502    0 -0.36251463912E+02  0.97400791102E+01  0.14236323675E+02  0.40420300452E+02  0.47000000000E+01 0. -1.
         -5    1    3    3    0  502  0.38898035503E+02  0.14346497888E+03  0.22899613717E+03  0.27305050480E+03  0.47000000000E+01 0. -1.
        -11    1    1    2    0    0  0.17656730089E+02 -0.53843893279E+02 -0.28450329162E+02  0.63406199936E+02  0.00000000000E+00 0. -1.
         11    1    1    2    0    0 -0.20303301680E+02 -0.99361164714E+02  0.60364687320E+02  0.11802017026E+03  0.00000000000E+00 0.  1.
<mgrwt>
<rscale>  0 0.19277158E+03</rscale>
<asrwt>0</asrwt>
<pdfrwt beam="2">  1        1 0.16903874E-01 0.19774204E+03</pdfrwt>
<pdfrwt beam="1">  1       -1 0.59234153E-01 0.19774204E+03</pdfrwt>
<totfact> 0.94435223E+02</totfact>
</mgrwt>
</event>
<event>
 7    1  0.4230786E-006  0.1461027E+03  0.7546771E-02  0.1215838E+00
         -2   -1    0    0    0  501 -0.00000000000E+00  0.00000000000E+00  0.70824482033E+02  0.70824482033E+02  0.00000000000E+00 0.  1.
          2   -1    0    0  501    0  0.00000000000E+00 -0.00000000000E+00 -0.26168770419E+03  0.26168770419E+03  0.00000000000E+00 0. -1.
         23    2    1    2    0    0  0.75628847929E+02 -0.10572295764E+01 -0.62350083766E+02  0.15885065307E+03  0.12500062665E+03 0.  0.
          5    1    3    3  502    0  0.10729115081E+03  0.17904052383E+02 -0.45246877000E+02  0.11790384222E+03  0.47000000000E+01 0.  1.
         -5    1    3    3    0  502 -0.31662302877E+02 -0.18961281959E+02 -0.17103206766E+02  0.40946810849E+02  0.47000000000E+01 0.  1.
        -11    1    1    2    0    0 -0.61201973803E+02 -0.48822493016E+01 -0.14092921285E+03  0.15372235033E+03  0.00000000000E+00 0. -1.
         11    1    1    2    0    0 -0.14426874126E+02  0.59394788780E+01  0.12416074463E+02  0.19939182819E+02  0.00000000000E+00 0.  1.
<mgrwt>
<rscale>  0 0.13815169E+03</rscale>
<asrwt>0</asrwt>
<pdfrwt beam="2">  1        2 0.40259647E-01 0.14610269E+03</pdfrwt>
<pdfrwt beam="1">  1       -2 0.10896074E-01 0.14610269E+03</pdfrwt>
<totfact> 0.70130785E+03</totfact>
</mgrwt>
</event>
<event>
 7    1  0.4230786E-006  0.1283084E+03  0.7546771E-02  0.1233591E+00
          4   -1    0    0  501    0  0.00000000000E+00  0.00000000000E+00  0.81808020668E+02  0.81808020668E+02  0.00000000000E+00 0. -1.
         -4   -1    0    0    0  501 -0.00000000000E+00 -0.00000000000E+00 -0.18754437456E+03  0.18754437456E+03  0.00000000000E+00 0.  1.
         23    2    1    2    0    0  0.25364026847E+02 -0.13944100808E+02 -0.61313271089E+02  0.14220533262E+03  0.12500107043E+03 0.  0.
          5    1    3    3  502    0  0.40455255039E+02  0.99601320903E+01  0.26657537544E+02  0.49684466380E+02  0.47000000000E+01 0. -1.
         -5    1    3    3    0  502 -0.15091228192E+02 -0.23904232898E+02 -0.87970808633E+02  0.92520866243E+02  0.47000000000E+01 0. -1.
        -11    1    1    2    0    0 -0.37430268849E+02 -0.23337131871E+02 -0.68267007934E+02  0.81277494563E+02  0.00000000000E+00 0.  1.
         11    1    1    2    0    0  0.12066242002E+02  0.37281232679E+02  0.23843925136E+02  0.45869568038E+02  0.00000000000E+00 0. -1.
<mgrwt>
<rscale>  0 0.12595065E+03</rscale>
<asrwt>0</asrwt>
<pdfrwt beam="1">  1        4 0.12585850E-01 0.12830838E+03</pdfrwt>
<pdfrwt beam="2">  1       -4 0.28852980E-01 0.12830838E+03</pdfrwt>
<totfact> 0.95624295E+02</totfact>
</mgrwt>
</event>
<event>
 7    1  0.4230786E-006  0.1428991E+03  0.7546771E-02  0.1218924E+00
         -3   -1    0    0    0  501 -0.00000000000E+00  0.00000000000E+00  0.35172227590E+02  0.35172227590E+02  0.00000000000E+00 0.  1.
          3   -1    0    0  501    0  0.00000000000E+00 -0.00000000000E+00 -0.48166172031E+03  0.48166172031E+03  0.00000000000E+00 0. -1.
         23    2    1    2    0    0  0.17768117198E+02  0.67159111333E+02 -0.23035633267E+03  0.27107968996E+03  0.12487636319E+03 0.  0.
          5    1    3    3  502    0  0.16465887662E+02  0.68793242447E+02 -0.24526693125E+03  0.25530686091E+03  0.47000000000E+01 0. -1.
         -5    1    3    3    0  502  0.13022295361E+01 -0.16341311138E+01  0.14910598580E+02  0.15772829051E+02  0.47000000000E+01 0. -1.
        -11    1    1    2    0    0 -0.32919720580E+02 -0.83388513134E+02 -0.19701806032E+03  0.21645661972E+03  0.00000000000E+00 0. -1.
         11    1    1    2    0    0  0.15151603381E+02  0.16229401800E+02 -0.19115099726E+02  0.29297638221E+02  0.00000000000E+00 0.  1.
<mgrwt>
<rscale>  0 0.13592186E+03</rscale>
<asrwt>0</asrwt>
<pdfrwt beam="2">  1        3 0.74101804E-01 0.14289912E+03</pdfrwt>
<pdfrwt beam="1">  1       -3 0.54111119E-02 0.14289912E+03</pdfrwt>
<totfact> 0.82495523E+02</totfact>
</mgrwt>
</event>
<event>
 6    1  0.4230786E-006  0.1455264E+03  0.7546771E-02  0.1222379E+00
         -2   -1    0    0    0  501 -0.00000000000E+00  0.00000000000E+00  0.50090015904E+02  0.50090015904E+02  0.00000000000E+00 0.  1.
          2   -1    0    0  501    0  0.00000000000E+00 -0.00000000000E+00 -0.33086745315E+03  0.33086745315E+03  0.00000000000E+00 0. -1.
          5    1    1    2  502    0  0.10443611004E+02 -0.39655060104E+02 -0.96256399829E+02  0.10473288553E+03  0.47000000000E+01 0. -1.
         -5    1    1    2    0  502  0.17519632447E+02  0.75876878818E+02 -0.17436265529E+02  0.79939674855E+02  0.47000000000E+01 0.  1.
        -11    1    1    2    0    0 -0.52121920144E+02  0.69977766624E+01 -0.98983801377E+02  0.11208682515E+03  0.00000000000E+00 0.  1.
         11    1    1    2    0    0  0.24158676692E+02 -0.43219595376E+02 -0.68100970513E+02  0.84198083522E+02  0.00000000000E+00 0. -1.
<mgrwt>
<rscale>  0 0.13348210E+03</rscale>
<asrwt>0</asrwt>
<pdfrwt beam="2">  1        2 0.50902686E-01 0.14552640E+03</pdfrwt>
<pdfrwt beam="1">  1       -2 0.77061561E-02 0.14552640E+03</pdfrwt>
<totfact> 0.93912827E+03</totfact>
</mgrwt>
</event>
<event>
 7    1  0.4230786E-006  0.1811332E+03  0.7546771E-02  0.1172225E+00
          1   -1    0    0  501    0  0.00000000000E+00  0.00000000000E+00  0.36212323574E+03  0.36212323574E+03  0.00000000000E+00 0. -1.
         -1   -1    0    0    0  501 -0.00000000000E+00 -0.00000000000E+00 -0.90654145049E+02  0.90654145049E+02  0.00000000000E+00 0.  1.
         23    2    1    2    0    0 -0.12994826795E+03  0.17682970585E+02  0.66470515692E+02  0.19294445286E+03  0.12493995615E+03 0.  0.
          5    1    3    3  502    0 -0.28453810510E+02 -0.10865614353E+02 -0.34933997436E+02  0.46584923362E+02  0.47000000000E+01 0.  1.
         -5    1    3    3    0  502 -0.10149445744E+03  0.28548584938E+02  0.10140451313E+03  0.14635952950E+03  0.47000000000E+01 0.  1.
        -11    1    1    2    0    0  0.40746194790E+02  0.24253794474E+02  0.22653050569E+02  0.52551495092E+02  0.00000000000E+00 0.  1.
         11    1    1    2    0    0  0.89202073157E+02 -0.41936765059E+02  0.18234552443E+03  0.20728143283E+03  0.00000000000E+00 0. -1.
<mgrwt>
<rscale>  0 0.17550604E+03</rscale>
<asrwt>0</asrwt>
<pdfrwt beam="1">  1        1 0.55711266E-01 0.18113319E+03</pdfrwt>
<pdfrwt beam="2">  1       -1 0.13946792E-01 0.18113319E+03</pdfrwt>
<totfact> 0.24499456E+03</totfact>
</mgrwt>
</event>
<event>
 7    1  0.4230786E-006  0.1362970E+03  0.7546771E-02  0.1231493E+00
          1   -1    0    0  501    0  0.00000000000E+00  0.00000000000E+00  0.29780805929E+02  0.29780805929E+02  0.00000000000E+00 0. -1.
         -1   -1    0    0    0  501 -0.00000000000E+00 -0.00000000000E+00 -0.50906507997E+03  0.50906507997E+03  0.00000000000E+00 0.  1.
         23    2    1    2    0    0  0.54323134022E+02  0.38882695467E+00 -0.32998335175E+03  0.35702365533E+03  0.12500289579E+03 0.  0.
          5    1    3    3  502    0 -0.32656520484E+02  0.29611745799E+02 -0.10151532951E+03  0.11077344422E+03  0.47000000000E+01 0. -1.
         -5    1    3    3    0  502  0.86979654506E+02 -0.29222918844E+02 -0.22846802224E+03  0.24625021111E+03  0.47000000000E+01 0. -1.
        -11    1    1    2    0    0  0.24806822563E+01 -0.18795308203E+02 -0.10694811258E+03  0.10861545092E+03  0.00000000000E+00 0.  1.
         11    1    1    2    0    0 -0.56803816278E+02  0.18406481248E+02 -0.42352809711E+02  0.73206779646E+02  0.00000000000E+00 0. -1.
<mgrwt>
<rscale>  0 0.12731643E+03</rscale>
<asrwt>0</asrwt>
<pdfrwt beam="1">  1        1 0.45816625E-02 0.13629702E+03</pdfrwt>
<pdfrwt beam="2">  1       -1 0.78317704E-01 0.13629702E+03</pdfrwt>
<totfact> 0.30888526E+03</totfact>
</mgrwt>
</event>
<event>
 7    1  0.4230786E-006  0.1325865E+03  0.7546771E-02  0.1237937E+00
         -2   -1    0    0    0  501 -0.00000000000E+00  0.00000000000E+00  0.64880109579E+03  0.64880109579E+03  0.00000000000E+00 0. -1.
          2   -1    0    0  501    0  0.00000000000E+00 -0.00000000000E+00 -0.20853913872E+02  0.20853913872E+02  0.00000000000E+00 0.  1.
         23    2    1    2    0    0  0.90646086937E+00  0.44192603385E+02  0.39381093018E+03  0.41553126752E+03  0.12500151076E+03 0.  0.
          5    1    3    3  502    0 -0.45742470954E+02 -0.18814507432E+02  0.20707451681E+03  0.21295141430E+03  0.47000000000E+01 0. -1.
         -5    1    3    3    0  502  0.46648931823E+02  0.63007110818E+02  0.18673641337E+03  0.20257985322E+03  0.47000000000E+01 0. -1.
        -11    1    1    2    0    0 -0.43140459997E+02 -0.10470239386E+02  0.95037256831E+02  0.10489425812E+03  0.00000000000E+00 0. -1.
         11    1    1    2    0    0  0.42233999128E+02 -0.33722363999E+02  0.13909899492E+03  0.14922948403E+03  0.00000000000E+00 0.  1.
<mgrwt>
<rscale>  0 0.12318298E+03</rscale>
<asrwt>0</asrwt>
<pdfrwt beam="2">  1        2 0.32082949E-02 0.13258652E+03</pdfrwt>
<pdfrwt beam="1">  1       -2 0.99815538E-01 0.13258652E+03</pdfrwt>
<totfact> 0.23517535E+03</totfact>
</mgrwt>
</event>
<event>
 7    1  0.4230786E-006  0.1683786E+03  0.7546771E-02  0.1186291E+00
         -1   -1    0    0    0  501 -0.00000000000E+00  0.00000000000E+00  0.92510522920E+02  0.92510522920E+02  0.00000000000E+00 0.  1.
          1   -1    0    0  501    0  0.00000000000E+00 -0.00000000000E+00 -0.60234426523E+03  0.60234426523E+03  0.00000000000E+00 0. -1.
         23    2    1    2    0    0 -0.17149034153E+02 -0.11145905957E+03 -0.37072568787E+01  0.16841940207E+03  0.12503655429E+03 0.  0.
          5    1    3    3  502    0  0.39808223356E+02  0.28880960288E+01  0.37831559656E+01  0.40366298003E+02  0.47000000000E+01 0.  1.
         -5    1    3    3    0  502 -0.56957257509E+02 -0.11434715560E+03 -0.74904128443E+01  0.12805310407E+03  0.47000000000E+01 0.  1.
        -11    1    1    2    0    0  0.44538437087E+01  0.11422290998E+03 -0.49835314757E+03  0.51129499272E+03  0.00000000000E+00 0. -1.
         11    1    1    2    0    0  0.12695190445E+02 -0.27638504048E+01 -0.77733378604E+01  0.15140393356E+02  0.00000000000E+00 0.  1.
<mgrwt>
<rscale>  0 0.16214945E+03</rscale>
<asrwt>0</asrwt>
<pdfrwt beam="2">  1        1 0.92668347E-01 0.16837859E+03</pdfrwt>
<pdfrwt beam="1">  1       -1 0.14232388E-01 0.16837859E+03</pdfrwt>
<totfact> 0.12195294E+03</totfact>
</mgrwt>
</event>
<event>
 7    1  0.4230786E-006  0.1314317E+03  0.7546771E-02  0.1236777E+00
         -1   -1    0    0    0  501 -0.00000000000E+00  0.00000000000E+00  0.83746699553E+02  0.83746699553E+02  0.00000000000E+00 0.  1.
          1   -1    0    0  501    0  0.00000000000E+00 -0.00000000000E+00 -0.28929798798E+03  0.28929798798E+03  0.00000000000E+00 0. -1.
         23    2    1    2    0    0  0.29057635957E+02  0.28370372246E+02  0.12002651922E+02  0.13197859225E+03  0.12500024372E+03 0.  0.
          5    1    3    3  502    0 -0.26599099888E+02  0.40314057436E+02  0.44859540195E+02  0.66084821921E+02  0.47000000000E+01 0.  1.
         -5    1    3    3    0  502  0.55656735845E+02 -0.11943685191E+02 -0.32856888273E+02  0.65893770326E+02  0.47000000000E+01 0.  1.
        -11    1    1    2    0    0 -0.53647172227E+01  0.35346508168E+02 -0.80355777196E+02  0.87950024215E+02  0.00000000000E+00 0.  1.
         11    1    1    2    0    0 -0.23692918734E+02 -0.63716880414E+02 -0.13719816315E+03  0.15311607107E+03  0.00000000000E+00 0. -1.
<mgrwt>
<rscale>  0 0.12391338E+03</rscale>
<asrwt>0</asrwt>
<pdfrwt beam="2">  1        1 0.44507382E-01 0.13143167E+03</pdfrwt>
<pdfrwt beam="1">  1       -1 0.12884108E-01 0.13143167E+03</pdfrwt>
<totfact> 0.36206266E+03</totfact>
</mgrwt>
</event>
<event>
 7    1  0.4230786E-006  0.1590014E+03  0.7546771E-02  0.1197516E+00
         -3   -1    0    0    0  501 -0.00000000000E+00  0.00000000000E+00  0.83473622024E+03  0.83473622024E+03  0.00000000000E+00 0.  1.
          3   -1    0    0  501    0  0.00000000000E+00 -0.00000000000E+00 -0.26792874870E+02  0.26792874870E+02  0.00000000000E+00 0. -1.
         23    2    1    2    0    0 -0.59929839870E+02  0.77879752839E+02  0.52072559552E+03  0.54445989702E+03  0.12499836809E+03 0.  0.
          5    1    3    3  502    0 -0.83079274509E+02  0.18618124388E+02  0.19947189467E+03  0.21693300157E+03  0.47000000000E+01 0. -1.
         -5    1    3    3    0  502  0.23149434640E+02  0.59261628450E+02  0.32125370085E+03  0.32752689545E+03  0.47000000000E+01 0. -1.
        -11    1    1    2    0    0  0.24839615683E+02 -0.53867287515E+02  0.54679410568E+02  0.80675455446E+02  0.00000000000E+00 0. -1.
         11    1    1    2    0    0  0.35090224186E+02 -0.24012465324E+02  0.23253833928E+03  0.23639374264E+03  0.00000000000E+00 0.  1.
<mgrwt>
<rscale>  0 0.15243220E+03</rscale>
<asrwt>0</asrwt>
<pdfrwt beam="2">  1        3 0.41219814E-02 0.15900136E+03</pdfrwt>
<pdfrwt beam="1">  1       -3 0.12842094E+00 0.15900136E+03</pdfrwt>
<totfact> 0.36987398E+02</totfact>
</mgrwt>
</event>
<event>
 7    1  0.4230786E-006  0.1384638E+03  0.7546771E-02  0.1225836E+00
         -2   -1    0    0    0  501 -0.00000000000E+00  0.00000000000E+00  0.75985995746E+02  0.75985995746E+02  0.00000000000E+00 0. -1.
          2   -1    0    0  501    0  0.00000000000E+00 -0.00000000000E+00 -0.21309710162E+03  0.21309710162E+03  0.00000000000E+00 0.  1.
         23    2    1    2    0    0 -0.46186537187E+02 -0.37595541449E+02 -0.48058906202E+02  0.14656700783E+03  0.12500243344E+03 0.  0.
          5    1    3    3  502    0 -0.30426109000E+02  0.41893735919E+02  0.47399492554E+00  0.51991805982E+02  0.47000000000E+01 0.  1.
         -5    1    3    3    0  502 -0.15760428187E+02 -0.79489277368E+02 -0.48532901127E+02  0.94575201850E+02  0.47000000000E+01 0.  1.
        -11    1    1    2    0    0 -0.11461735434E+02  0.43601561427E+02 -0.66460424072E+02  0.80308502077E+02  0.00000000000E+00 0.  1.
         11    1    1    2    0    0  0.57648272621E+02 -0.60060199778E+01 -0.22591775595E+02  0.62207587453E+02  0.00000000000E+00 0. -1.
<mgrwt>
<rscale>  0 0.13109758E+03</rscale>
<asrwt>0</asrwt>
<pdfrwt beam="2">  1        2 0.32784169E-01 0.13846382E+03</pdfrwt>
<pdfrwt beam="1">  1       -2 0.11690153E-01 0.13846382E+03</pdfrwt>
<totfact> 0.77852976E+03</totfact>
</mgrwt>
</event>
<event>
 7    1  0.4230786E-006  0.1308857E+03  0.7546771E-02  0.1242725E+00
         -1   -1    0    0    0  501 -0.00000000000E+00  0.00000000000E+00  0.32035412404E+03  0.32035412404E+03  0.00000000000E+00 0.  1.
          1   -1    0    0  501    0  0.00000000000E+00 -0.00000000000E+00 -0.43351496750E+02  0.43351496750E+02  0.00000000000E+00 0. -1.
         23    2    1    2    0    0  0.12826205809E+02  0.36644915756E+02  0.21525600784E+03  0.25192500087E+03  0.12499478289E+03 0.  0.
          5    1    3    3  502    0  0.53991084827E+02 -0.22396073407E+02  0.10184226316E+03  0.11751833010E+03  0.47000000000E+01 0.  1.
         -5    1    3    3    0  502 -0.41164879018E+02  0.59040989163E+02  0.11341374468E+03  0.13440667077E+03  0.47000000000E+01 0.  1.
        -11    1    1    2    0    0  0.31109197799E+02 -0.12656556704E+02  0.50216199991E+02  0.60412228538E+02  0.00000000000E+00 0.  1.
         11    1    1    2    0    0 -0.43935403608E+02 -0.23988359052E+02  0.11530419467E+02  0.51368391383E+02  0.00000000000E+00 0. -1.
<mgrwt>
<rscale>  0 0.12022594E+03</rscale>
<asrwt>0</asrwt>
<pdfrwt beam="2">  1        1 0.66694613E-02 0.13088566E+03</pdfrwt>
<pdfrwt beam="1">  1       -1 0.49285248E-01 0.13088566E+03</pdfrwt>
<totfact> 0.44934497E+03</totfact>
</mgrwt>
</event>
<event>
 7    1  0.4230786E-006  0.1552853E+03  0.7546771E-02  0.1198969E+00
         -2   -1    0    0    0  501 -0.00000000000E+00  0.00000000000E+00  0.61248639552E+02  0.61248639552E+02  0.00000000000E+00 0.  1.
          2   -1    0    0  501    0  0.00000000000E+00 -0.00000000000E+00 -0.41793714191E+03  0.41793714191E+03  0.00000000000E+00 0. -1.
         23    2    1    2    0    0  0.11648694467E+02  0.10664199455E+03 -0.93603279695E+02  0.18131491499E+03  0.11227340443E+03 0.  0.
          5    1    3    3  502    0 -0.26054370095E+02  0.38160313227E+02  0.13744232876E+02  0.48435871458E+02  0.47000000000E+01 0. -1.
         -5    1    3    3    0  502  0.37703064562E+02  0.68481681326E+02 -0.10734751257E+03  0.13287904353E+03  0.47000000000E+01 0.  1.
        -11    1    1    2    0    0  0.35547922086E+02 -0.51359092293E+02 -0.84666546171E+02  0.10521328417E+03  0.00000000000E+00 0.  1.
         11    1    1    2    0    0 -0.47196616553E+02 -0.55282902260E+02 -0.17841867649E+03  0.19265758230E+03  0.00000000000E+00 0. -1.
<mgrwt>
<rscale>  0 0.15123032E+03</rscale>
<asrwt>0</asrwt>
<pdfrwt beam="2">  1        2 0.64298022E-01 0.15528530E+03</pdfrwt>
<pdfrwt beam="1">  1       -2 0.94228677E-02 0.15528530E+03</pdfrwt>
<totfact> 0.53722004E+03</totfact>
</mgrwt>
</event>
<event>
 7    1  0.4230786E-006  0.1251248E+03  0.7546771E-02  0.1250301E+00
         -1   -1    0    0    0  501 -0.00000000000E+00  0.00000000000E+00  0.50153421531E+02  0.50153421531E+02  0.00000000000E+00 0.  1.
          1   -1    0    0  501    0  0.00000000000E+00 -0.00000000000E+00 -0.25006748809E+03  0.25006748809E+03  0.00000000000E+00 0. -1.
         23    2    1    2    0    0 -0.50800908501E+01 -0.22427739813E+01 -0.76945376363E+02  0.14689044155E+03  0.12500149405E+03 0.  0.
          5    1    3    3  502    0  0.40206601489E+02 -0.78016598395E+01  0.15217665922E+02  0.43944329050E+02  0.47000000000E+01 0.  1.
         -5    1    3    3    0  502 -0.45286692339E+02  0.55588858582E+01 -0.92163042285E+02  0.10294611250E+03  0.47000000000E+01 0.  1.
        -11    1    1    2    0    0  0.36590956244E+02  0.20973453187E+02 -0.25713243184E+02  0.49395897527E+02  0.00000000000E+00 0.  1.
         11    1    1    2    0    0 -0.31510865394E+02 -0.18730679206E+02 -0.97255447007E+02  0.10393457054E+03  0.00000000000E+00 0. -1.
<mgrwt>
<rscale>  0 0.11573663E+03</rscale>
<asrwt>0</asrwt>
<pdfrwt beam="2">  1        1 0.38471922E-01 0.12512478E+03</pdfrwt>
<pdfrwt beam="1">  1       -1 0.77159109E-02 0.12512478E+03</pdfrwt>
<totfact> 0.94381467E+03</totfact>
</mgrwt>
</event>
<event>
 7    1  0.4230786E-006  0.1372416E+03  0.7546771E-02  0.1228596E+00
          2   -1    0    0  501    0  0.00000000000E+00  0.00000000000E+00  0.43645794869E+02  0.43645794869E+02  0.00000000000E+00 0.  1.
         -2   -1    0    0    0  501 -0.00000000000E+00 -0.00000000000E+00 -0.34667416347E+03  0.34667416347E+03  0.00000000000E+00 0. -1.
         23    2    1    2    0    0 -0.56148299136E+02  0.75021698671E+01 -0.18573760479E+03  0.23094090376E+03  0.12500531647E+03 0.  0.
          5    1    3    3  502    0  0.39800392498E+02  0.27917909723E+00 -0.66587724394E+02  0.77718493449E+02  0.47000000000E+01 0. -1.
         -5    1    3    3    0  502 -0.95948691635E+02  0.72229907699E+01 -0.11914988040E+03  0.15322241031E+03  0.47000000000E+01 0. -1.
        -11    1    1    2    0    0  0.67300664487E+01 -0.29969037281E+02 -0.64749038962E+00  0.30722243306E+02  0.00000000000E+00 0.  1.
         11    1    1    2    0    0  0.49418232687E+02  0.22466867414E+02 -0.11664327342E+03  0.12865681128E+03  0.00000000000E+00 0. -1.
<mgrwt>
<rscale>  0 0.12923484E+03</rscale>
<asrwt>0</asrwt>
<pdfrwt beam="1">  1        2 0.67147374E-02 0.13724155E+03</pdfrwt>
<pdfrwt beam="2">  1       -2 0.53334489E-01 0.13724155E+03</pdfrwt>
<totfact> 0.34362354E+03</totfact>
</mgrwt>
</event>
<event>
 7    1  0.4230786E-006  0.1252851E+03  0.7546771E-02  0.1249919E+00
          2   -1    0    0  501    0  0.00000000000E+00  0.00000000000E+00  0.11610337823E+03  0.11610337823E+03  0.00000000000E+00 0. -1.
         -2   -1    0    0    0  501 -0.00000000000E+00 -0.00000000000E+00 -0.10160880485E+03  0.10160880485E+03  0.00000000000E+00 0.  1.
         23    2    1    2    0    0  0.22641663323E+01  0.81494901753E+01  0.91006639573E+01  0.12561518869E+03  0.12499925162E+03 0.  0.
          5    1    3    3  502    0  0.47773379727E+02 -0.61621107195E+01  0.44717941910E+02  0.65894246697E+02  0.47000000000E+01 0. -1.
         -5    1    3    3    0  502 -0.45509213395E+02  0.14311600895E+02 -0.35617277952E+02  0.59720941995E+02  0.47000000000E+01 0. -1.
        -11    1    1    2    0    0  0.11496152283E+02 -0.34251379583E+02  0.34996790158E+02  0.50300038191E+02  0.00000000000E+00 0. -1.
         11    1    1    2    0    0 -0.13760318615E+02  0.26101889408E+02 -0.29602880735E+02  0.41796956192E+02  0.00000000000E+00 0.  1.
<mgrwt>
<rscale>  0 0.11595764E+03</rscale>
<asrwt>0</asrwt>
<pdfrwt beam="1">  1        2 0.17862058E-01 0.12528509E+03</pdfrwt>
<pdfrwt beam="2">  1       -2 0.15632124E-01 0.12528509E+03</pdfrwt>
<totfact> 0.94640331E+03</totfact>
</mgrwt>
</event>
<event>
 7    1  0.4230786E-006  0.1377962E+03  0.7546771E-02  0.1225383E+00
          2   -1    0    0  501    0  0.00000000000E+00  0.00000000000E+00  0.42170939864E+02  0.42170939864E+02  0.00000000000E+00 0. -1.
         -2   -1    0    0    0  501 -0.00000000000E+00 -0.00000000000E+00 -0.37576706502E+03  0.37576706502E+03  0.00000000000E+00 0.  1.
         23    2    1    2    0    0  0.22717282532E+02 -0.53489285315E+02 -0.18409046588E+03  0.22995017479E+03  0.12494240548E+03 0.  0.
          5    1    3    3  502    0  0.24284429508E+02  0.70790823877E-01 -0.17334215974E+03  0.17509806644E+03  0.47000000000E+01 0.  1.
         -5    1    3    3    0  502 -0.15671469758E+01 -0.53560076139E+02 -0.10748306144E+02  0.54852108351E+02  0.47000000000E+01 0.  1.
        -11    1    1    2    0    0 -0.54367764786E+02  0.26397307057E+02 -0.12697257272E+03  0.14062256536E+03  0.00000000000E+00 0.  1.
         11    1    1    2    0    0  0.31650482254E+02  0.27091978258E+02 -0.22533086555E+02  0.47365264725E+02  0.00000000000E+00 0. -1.
<mgrwt>
<rscale>  0 0.13140699E+03</rscale>
<asrwt>0</asrwt>
<pdfrwt beam="1">  1        2 0.64878369E-02 0.13779617E+03</pdfrwt>
<pdfrwt beam="2">  1       -2 0.57810318E-01 0.13779617E+03</pdfrwt>
<totfact> 0.30515873E+03</totfact>
</mgrwt>
</event>
<event>
 7    1  0.4230786E-006  0.1324112E+03  0.7546771E-02  0.1239073E+00
         -2   -1    0    0    0  501 -0.00000000000E+00  0.00000000000E+00  0.97310728115E+02  0.97310728115E+02  0.00000000000E+00 0.  1.
          2   -1    0    0  501    0  0.00000000000E+00 -0.00000000000E+00 -0.14616890831E+03  0.14616890831E+03  0.00000000000E+00 0. -1.
         23    2    1    2    0    0 -0.46822990881E+01  0.43417436881E+02  0.51942540219E+01  0.13251301252E+03  0.12500288182E+03 0.  0.
          5    1    3    3  502    0 -0.92191015602E+01 -0.36800554684E+02 -0.25961084850E+02  0.46209745566E+02  0.47000000000E+01 0. -1.
         -5    1    3    3    0  502  0.45368024722E+01  0.80217991565E+02  0.31155338872E+02  0.86303266958E+02  0.47000000000E+01 0. -1.
        -11    1    1    2    0    0  0.12056395484E+02 -0.32487898439E+02  0.17072370823E+02  0.38630118594E+02  0.00000000000E+00 0.  1.
         11    1    1    2    0    0 -0.73740963957E+01 -0.10929538442E+02 -0.71124805041E+02  0.72336505309E+02  0.00000000000E+00 0. -1.
<mgrwt>
<rscale>  0 0.12247228E+03</rscale>
<asrwt>0</asrwt>
<pdfrwt beam="2">  1        2 0.22487524E-01 0.13241117E+03</pdfrwt>
<pdfrwt beam="1">  1       -2 0.14970881E-01 0.13241117E+03</pdfrwt>
<totfact> 0.78668600E+03</totfact>
</mgrwt>
</event>
<event>
 7    1  0.4230786E-006  0.1293919E+03  0.7546771E-02  0.1238373E+00
          1   -1    0    0  501    0  0.00000000000E+00  0.00000000000E+00  0.20154971609E+03  0.20154971609E+03  0.00000000000E+00 0. -1.
         -1   -1    0    0    0  501 -0.00000000000E+00 -0.00000000000E+00 -0.68398901883E+02  0.68398901883E+02  0.00000000000E+00 0.  1.
         23    2    1    2    0    0  0.26483942843E+02 -0.20286543985E+02  0.69748518071E+02  0.14699358634E+03  0.12501726104E+03 0.  0.
          5    1    3    3  502    0  0.13971510664E+02  0.37385231908E+02 -0.15612764568E+02  0.43112725412E+02  0.47000000000E+01 0. -1.
         -5    1    3    3    0  502  0.12512432179E+02 -0.57671775892E+02  0.85361282640E+02  0.10388086093E+03  0.47000000000E+01 0. -1.
        -11    1    1    2    0    0  0.15421865193E+02  0.44456629997E+02  0.53051802379E+01  0.47353677936E+02  0.00000000000E+00 0.  1.
         11    1    1    2    0    0 -0.41905808036E+02 -0.24170086012E+02  0.58097115902E+02  0.75601353698E+02  0.00000000000E+00 0. -1.
<mgrwt>
<rscale>  0 0.12290974E+03</rscale>
<asrwt>0</asrwt>
<pdfrwt beam="1">  1        1 0.31007648E-01 0.12939188E+03</pdfrwt>
<pdfrwt beam="2">  1       -1 0.10522908E-01 0.12939188E+03</pdfrwt>
<totfact> 0.77204567E+03</totfact>
</mgrwt>
</event>
<event>
 7    1  0.4230786E-006  0.1363896E+03  0.7546771E-02  0.1231580E+00
         -1   -1    0    0    0  501 -0.00000000000E+00  0.00000000000E+00  0.33621585876E+02  0.33621585876E+02  0.00000000000E+00 0.  1.
          1   -1    0    0  501    0  0.00000000000E+00 -0.00000000000E+00 -0.43585610069E+03  0.43585610069E+03  0.00000000000E+00 0. -1.
         23    2    1    2    0    0  0.22818579951E+02  0.49541651621E+02 -0.19599317449E+03  0.23877905680E+03  0.12500820247E+03 0.  0.
          5    1    3    3  502    0  0.21822584978E+02  0.81966916756E+02 -0.18604583884E+03  0.20452370231E+03  0.47000000000E+01 0. -1.
         -5    1    3    3    0  502  0.99599497333E+00 -0.32425265135E+02 -0.99473356542E+01  0.34255354497E+02  0.47000000000E+01 0. -1.
        -11    1    1    2    0    0  0.14427777630E+02 -0.60543425277E+02 -0.14950844272E+03  0.16194579821E+03  0.00000000000E+00 0.  1.
         11    1    1    2    0    0 -0.37246357581E+02  0.11001773656E+02 -0.56732897607E+02  0.68752831560E+02  0.00000000000E+00 0. -1.
<mgrwt>
<rscale>  0 0.12725933E+03</rscale>
<asrwt>0</asrwt>
<pdfrwt beam="2">  1        1 0.67054783E-01 0.13638957E+03</pdfrwt>
<pdfrwt beam="1">  1       -1 0.51725518E-02 0.13638957E+03</pdfrwt>
<totfact> 0.86344687E+03</totfact>
</mgrwt>
</event>
<event>
 7    1  0.4230786E-006  0.1272014E+03  0.7546771E-02  0.1236877E+00
          1   -1    0    0  501    0  0.00000000000E+00  0.00000000000E+00  0.14516557008E+03  0.14516557008E+03  0.00000000000E+00 0. -1.
         -1   -1    0    0    0  501 -0.00000000000E+00 -0.00000000000E+00 -0.13432062838E+03  0.13432062838E+03  0.00000000000E+00 0.  1.
         23    2    1    2    0    0  0.30683940274E+01 -0.23429450015E+02 -0.64452281643E+02  0.14259836304E+03  0.12498736882E+03 0.  0.
          5    1    3    3  502    0  0.52468081483E+02 -0.47880438218E+02 -0.28838334295E+02  0.76806090015E+02  0.47000000000E+01 0.  1.
         -5    1    3    3    0  502 -0.49399687455E+02  0.24450988203E+02 -0.35613947348E+02  0.65792273030E+02  0.47000000000E+01 0.  1.
        -11    1    1    2    0    0  0.39936267144E+02 -0.26250643714E+02  0.23713303719E+02  0.53350937219E+02  0.00000000000E+00 0. -1.
         11    1    1    2    0    0 -0.43004661172E+02  0.49680093730E+02  0.51583919623E+02  0.83536898190E+02  0.00000000000E+00 0.  1.
<mgrwt>
<rscale>  0 0.12385045E+03</rscale>
<asrwt>0</asrwt>
<pdfrwt beam="1">  1        1 0.22333165E-01 0.12720140E+03</pdfrwt>
<pdfrwt beam="2">  1       -1 0.20664712E-01 0.12720140E+03</pdfrwt>
<totfact> 0.40429903E+03</totfact>
</mgrwt>
</event>
<event>
 7    1  0.4230786E-006  0.1373355E+03  0.7546771E-02  0.1226679E+00
          2   -1    0    0  501    0  0.00000000000E+00  0.00000000000E+00  0.61088309739E+02  0.61088309739E+02  0.00000000000E+00 0. -1.
         -2   -1    0    0    0  501 -0.00000000000E+00 -0.00000000000E+00 -0.25453737569E+03  0.25453737569E+03  0.00000000000E+00 0.  1.
         23    2    1    2    0    0 -0.11882701078E+02  0.55615435425E+02 -0.10748937856E+03  0.17439900367E+03  0.12500708274E+03 0.  0.
          5    1    3    3  502    0 -0.45267726503E+02  0.47258164209E+02 -0.12058452923E+03  0.13727789275E+03  0.47000000000E+01 0. -1.
         -5    1    3    3    0  502  0.33385025424E+02  0.83572712159E+01  0.13095150677E+02  0.37121110921E+02  0.47000000000E+01 0. -1.
        -11    1    1    2    0    0 -0.25893057296E+02 -0.65698168107E+02 -0.68588127647E+02  0.98443034101E+02  0.00000000000E+00 0.  1.
         11    1    1    2    0    0  0.37775758374E+02  0.10082732682E+02 -0.17371559750E+02  0.42783647662E+02  0.00000000000E+00 0. -1.
<mgrwt>
<rscale>  0 0.13052484E+03</rscale>
<asrwt>0</asrwt>
<pdfrwt beam="1">  1        2 0.93982016E-02 0.13733552E+03</pdfrwt>
<pdfrwt beam="2">  1       -2 0.39159596E-01 0.13733552E+03</pdfrwt>
<totfact> 0.41058363E+03</totfact>
</mgrwt>
</event>
<event>
 7    1  0.4230786E-006  0.1372402E+03  0.7546771E-02  0.1227833E+00
          3   -1    0    0  501    0  0.00000000000E+00  0.00000000000E+00  0.53071312494E+03  0.53071312494E+03  0.00000000000E+00 0. -1.
         -3   -1    0    0    0  501 -0.00000000000E+00 -0.00000000000E+00 -0.31761259278E+02  0.31761259278E+02  0.00000000000E+00 0.  1.
         23    2    1    2    0    0 -0.13078754952E+02  0.55137889799E+02  0.18800904764E+03  0.23277084527E+03  0.12499449464E+03 0.  0.
          5    1    3    3  502    0 -0.31260207455E+02 -0.38886022356E+01  0.16281569898E+03  0.16590166856E+03  0.47000000000E+01 0. -1.
         -5    1    3    3    0  502  0.18181452503E+02  0.59026492035E+02  0.25193348661E+02  0.66869176709E+02  0.47000000000E+01 0. -1.
        -11    1    1    2    0    0  0.50795343980E+02 -0.28213400617E+02  0.12155376632E+03  0.13472743244E+03  0.00000000000E+00 0.  1.
         11    1    1    2    0    0 -0.37716589029E+02 -0.26924489182E+02  0.18938905170E+03  0.19497610651E+03  0.00000000000E+00 0. -1.
<mgrwt>
<rscale>  0 0.12974613E+03</rscale>
<asrwt>0</asrwt>
<pdfrwt beam="1">  1        3 0.81648167E-01 0.13724017E+03</pdfrwt>
<pdfrwt beam="2">  1       -3 0.48863480E-02 0.13724017E+03</pdfrwt>
<totfact> 0.78182954E+02</totfact>
</mgrwt>
</event>
<event>
 7    1  0.4230786E-006  0.1292005E+03  0.7546771E-02  0.1242714E+00
         -2   -1    0    0    0  501 -0.00000000000E+00  0.00000000000E+00  0.39545193782E+02  0.39545193782E+02  0.00000000000E+00 0.  1.
          2   -1    0    0  501    0  0.00000000000E+00 -0.00000000000E+00 -0.34157906731E+03  0.34157906731E+03  0.00000000000E+00 0. -1.
         23    2    1    2    0    0  0.23153604087E+02 -0.23103666777E+02 -0.12761714973E+03  0.18160092248E+03  0.12499155708E+03 0.  0.
          5    1    3    3  502    0 -0.30279839790E+02  0.11869434112E+02 -0.11055138673E+03  0.11533191784E+03  0.47000000000E+01 0. -1.
         -5    1    3    3    0  502  0.53433443876E+02 -0.34973100889E+02 -0.17065762997E+02  0.66269004647E+02  0.47000000000E+01 0. -1.
        -11    1    1    2    0    0  0.88983383169E+00  0.43959788341E+02 -0.34100886770E+02  0.55642836680E+02  0.00000000000E+00 0.  1.
         11    1    1    2    0    0 -0.24043437918E+02 -0.20856121564E+02 -0.14031583703E+03  0.14388050193E+03  0.00000000000E+00 0. -1.
<mgrwt>
<rscale>  0 0.12023248E+03</rscale>
<asrwt>0</asrwt>
<pdfrwt beam="2">  1        2 0.52550625E-01 0.12920046E+03</pdfrwt>
<pdfrwt beam="1">  1       -2 0.60838761E-02 0.12920046E+03</pdfrwt>
<totfact> 0.12915369E+04</totfact>
</mgrwt>
</event>
<event>
 7    1  0.4230786E-006  0.1286956E+03  0.7546771E-02  0.1243020E+00
         -2   -1    0    0    0  501 -0.00000000000E+00  0.00000000000E+00  0.41027015253E+02  0.41027015253E+02  0.00000000000E+00 0.  1.
          2   -1    0    0  501    0  0.00000000000E+00 -0.00000000000E+00 -0.32422095811E+03  0.32422095811E+03  0.00000000000E+00 0. -1.
         23    2    1    2    0    0  0.21387166673E+02  0.21793461104E+02 -0.12469806311E+03  0.17919868737E+03  0.12502078535E+03 0.  0.
          5    1    3    3  502    0 -0.25573990162E+02 -0.39952373012E+02 -0.67796478372E+02  0.82877461120E+02  0.47000000000E+01 0.  1.
         -5    1    3    3    0  502  0.46961156834E+02  0.61745834116E+02 -0.56901584734E+02  0.96321226254E+02  0.47000000000E+01 0.  1.
        -11    1    1    2    0    0  0.22936745871E+01 -0.55429819581E+02 -0.10273048658E+03  0.11675306726E+03  0.00000000000E+00 0. -1.
         11    1    1    2    0    0 -0.23680841260E+02  0.33636358477E+02 -0.55765393170E+02  0.69296218726E+02  0.00000000000E+00 0.  1.
<mgrwt>
<rscale>  0 0.12004678E+03</rscale>
<asrwt>0</asrwt>
<pdfrwt beam="2">  1        2 0.49880147E-01 0.12869562E+03</pdfrwt>
<pdfrwt beam="1">  1       -2 0.63118485E-02 0.12869562E+03</pdfrwt>
<totfact> 0.12903609E+04</totfact>
</mgrwt>
</event>
<event>
 7    1  0.4230786E-006  0.1742333E+03  0.7546771E-02  0.1179567E+00
         -2   -1    0    0    0  501 -0.00000000000E+00  0.00000000000E+00  0.23854286861E+03  0.23854286861E+03  0.00000000000E+00 0.  1.
          2   -1    0    0  501    0  0.00000000000E+00 -0.00000000000E+00 -0.11356884739E+03  0.11356884739E+03  0.00000000000E+00 0. -1.
         23    2    1    2    0    0 -0.85930073293E+02  0.85722887215E+02  0.90528688309E+02  0.19634839255E+03  0.12499942784E+03 0.  0.
          5    1    3    3  502    0 -0.97310074938E+02  0.42889661620E+02  0.10497164264E+03  0.14949886126E+03  0.47000000000E+01 0.  1.
         -5    1    3    3    0  502  0.11380001645E+02  0.42833225595E+02 -0.14442954333E+02  0.46849531291E+02  0.47000000000E+01 0.  1.
        -11    1    1    2    0    0  0.48520243648E+02 -0.12005101607E+02 -0.23076241758E+02  0.55053151063E+02  0.00000000000E+00 0. -1.
         11    1    1    2    0    0  0.37409829646E+02 -0.73717785608E+02  0.57521574674E+02  0.10071017239E+03  0.00000000000E+00 0.  1.
<mgrwt>
<rscale>  0 0.16836152E+03</rscale>
<asrwt>0</asrwt>
<pdfrwt beam="2">  1        2 0.17472130E-01 0.17423331E+03</pdfrwt>
<pdfrwt beam="1">  1       -2 0.36698903E-01 0.17423331E+03</pdfrwt>
<totfact> 0.22366229E+03</totfact>
</mgrwt>
</event>
<event>
 7    1  0.4230786E-006  0.1746676E+03  0.7546771E-02  0.1179289E+00
          2   -1    0    0  501    0  0.00000000000E+00  0.00000000000E+00  0.91495790201E+03  0.91495790201E+03  0.00000000000E+00 0. -1.
         -2   -1    0    0    0  501 -0.00000000000E+00 -0.00000000000E+00 -0.45904047988E+02  0.45904047988E+02  0.00000000000E+00 0.  1.
         23    2    1    2    0    0  0.75512172821E+02 -0.95822502940E+02  0.16374528719E+03  0.23941861494E+03  0.12499885515E+03 0.  0.
          5    1    3    3  502    0  0.26070625815E+02  0.26374882612E+02  0.14136555424E+02  0.39965537184E+02  0.47000000000E+01 0. -1.
         -5    1    3    3    0  502  0.49441547006E+02 -0.12219738555E+03  0.14960873177E+03  0.19945307776E+03  0.47000000000E+01 0. -1.
        -11    1    1    2    0    0 -0.10805028498E+02 -0.17875591141E+02  0.93607539258E+02  0.95909628325E+02  0.00000000000E+00 0.  1.
         11    1    1    2    0    0 -0.64707144323E+02  0.11369809408E+03  0.61170102757E+03  0.62553370673E+03  0.00000000000E+00 0. -1.
<mgrwt>
<rscale>  0 0.16862543E+03</rscale>
<asrwt>0</asrwt>
<pdfrwt beam="1">  1        2 0.14076274E+00 0.17466755E+03</pdfrwt>
<pdfrwt beam="2">  1       -2 0.70621619E-02 0.17466755E+03</pdfrwt>
<totfact> 0.33742850E+03</totfact>
</mgrwt>
</event>
<event>
 7    1  0.4230786E-006  0.1457284E+03  0.7546771E-02  0.1216232E+00
          2   -1    0    0  501    0  0.00000000000E+00  0.00000000000E+00  0.40569273814E+03  0.40569273814E+03  0.00000000000E+00 0. -1.
         -2   -1    0    0    0  501 -0.00000000000E+00 -0.00000000000E+00 -0.42619357388E+02  0.42619357388E+02  0.00000000000E+00 0.  1.
         23    2    1    2    0    0  0.40108121041E+02  0.63266815393E+02  0.18737546005E+03  0.23737382982E+03  0.12500168299E+03 0.  0.
          5    1    3    3  502    0  0.21043475141E+02  0.78125545581E+02  0.44634126261E+02  0.92524180329E+02  0.47000000000E+01 0. -1.
         -5    1    3    3    0  502  0.19064645900E+02 -0.14858730188E+02  0.14274133379E+03  0.14484964949E+03  0.47000000000E+01 0. -1.
        -11    1    1    2    0    0 -0.29976443842E+02 -0.25868870451E+02  0.16646237424E+03  0.17110671431E+03  0.00000000000E+00 0. -1.
         11    1    1    2    0    0 -0.10131677199E+02 -0.37397944942E+02  0.92355464679E+01  0.39831551405E+02  0.00000000000E+00 0.  1.
<mgrwt>
<rscale>  0 0.13786405E+03</rscale>
<asrwt>0</asrwt>
<pdfrwt beam="1">  1        2 0.62414265E-01 0.14572842E+03</pdfrwt>
<pdfrwt beam="2">  1       -2 0.65568245E-02 0.14572842E+03</pdfrwt>
<totfact> 0.96818121E+03</totfact>
</mgrwt>
</event>
<event>
 7    1  0.4230786E-006  0.1641558E+03  0.7546771E-02  0.1191667E+00
         -1   -1    0    0    0  501 -0.00000000000E+00  0.00000000000E+00  0.22460805063E+03  0.22460805063E+03  0.00000000000E+00 0.  1.
          1   -1    0    0  501    0  0.00000000000E+00 -0.00000000000E+00 -0.10863062194E+03  0.10863062194E+03  0.00000000000E+00 0. -1.
         23    2    1    2    0    0  0.68865638425E+02 -0.81110224848E+02  0.10321584434E+03  0.19390885632E+03  0.12500315718E+03 0.  0.
          5    1    3    3  502    0  0.89189851875E+02 -0.65213141144E+02  0.11967297831E+03  0.16294568172E+03  0.47000000000E+01 0.  1.
         -5    1    3    3    0  502 -0.20324213451E+02 -0.15897083703E+02 -0.16457133966E+02  0.30963174596E+02  0.47000000000E+01 0.  1.
        -11    1    1    2    0    0 -0.13904136182E+02  0.32482354560E+02 -0.36612096695E+02  0.50880978618E+02  0.00000000000E+00 0. -1.
         11    1    1    2    0    0 -0.54961502243E+02  0.48627870287E+02  0.49373681044E+02  0.88448837625E+02  0.00000000000E+00 0.  1.
<mgrwt>
<rscale>  0 0.15739680E+03</rscale>
<asrwt>0</asrwt>
<pdfrwt beam="2">  1        1 0.16712403E-01 0.16415582E+03</pdfrwt>
<pdfrwt beam="1">  1       -1 0.34555085E-01 0.16415582E+03</pdfrwt>
<totfact> 0.25249296E+03</totfact>
</mgrwt>
</event>
<event>
 6    1  0.4230786E-006  0.1368223E+03  0.7546771E-02  0.1236078E+00
         -3   -1    0    0    0  501 -0.00000000000E+00  0.00000000000E+00  0.91262202565E+02  0.91262202565E+02  0.00000000000E+00 0.  1.
          3   -1    0    0  501    0  0.00000000000E+00 -0.00000000000E+00 -0.18215575293E+03  0.18215575293E+03  0.00000000000E+00 0. -1.
          5    1    1    2  502    0 -0.22909823416E+02  0.21635199307E+02 -0.57101612825E+02  0.65388271466E+02  0.47000000000E+01 0. -1.
         -5    1    1    2    0  502 -0.68301398904E+01 -0.27824547996E+02  0.65553018242E+02  0.71694800946E+02  0.47000000000E+01 0.  1.
        -11    1    1    2    0    0 -0.21321281624E+02 -0.13762619641E+02 -0.30919249085E+01  0.25564951576E+02  0.00000000000E+00 0.  1.
         11    1    1    2    0    0  0.51061244930E+02  0.19951968330E+02 -0.96253030874E+02  0.11076993151E+03  0.00000000000E+00 0. -1.
<mgrwt>
<rscale>  0 0.12435648E+03</rscale>
<asrwt>0</asrwt>
<pdfrwt beam="2">  1        3 0.28023962E-01 0.13682230E+03</pdfrwt>
<pdfrwt beam="1">  1       -3 0.14040339E-01 0.13682230E+03</pdfrwt>
<totfact> 0.11685078E+03</totfact>
</mgrwt>
</event>
<event>
 7    1  0.4230786E-006  0.1315755E+03  0.7546771E-02  0.1236622E+00
          2   -1    0    0  501    0  0.00000000000E+00  0.00000000000E+00  0.12300593852E+02  0.12300593852E+02  0.00000000000E+00 0. -1.
         -2   -1    0    0    0  501 -0.00000000000E+00 -0.00000000000E+00 -0.16080664348E+04  0.16080664348E+04  0.00000000000E+00 0.  1.
         23    2    1    2    0    0 -0.41072698796E+02 -0.32775751857E+00 -0.13050489311E+04  0.13116649056E+04  0.12500015195E+03 0.  0.
          5    1    3    3  502    0 -0.44055492156E+02 -0.53651910192E+02 -0.49804840348E+03  0.50288539059E+03  0.47000000000E+01 0. -1.
         -5    1    3    3    0  502  0.29827933601E+01  0.53324152673E+02 -0.80700052762E+03  0.80877951501E+03  0.47000000000E+01 0. -1.
        -11    1    1    2    0    0  0.45075481198E+02 -0.41385010196E+02 -0.19016245420E+03  0.19976555524E+03  0.00000000000E+00 0.  1.
         11    1    1    2    0    0 -0.40027824024E+01  0.41712767715E+02 -0.10055445568E+03  0.10893656785E+03  0.00000000000E+00 0. -1.
<mgrwt>
<rscale>  0 0.12401152E+03</rscale>
<asrwt>0</asrwt>
<pdfrwt beam="1">  1        2 0.18923974E-02 0.13157550E+03</pdfrwt>
<pdfrwt beam="2">  1       -2 0.24739505E+00 0.13157550E+03</pdfrwt>
<totfact> 0.43168314E+02</totfact>
</mgrwt>
</event>
<event>
 7    1  0.4230786E-006  0.1521222E+03  0.7546771E-02  0.1205683E+00
          4   -1    0    0  501    0  0.00000000000E+00  0.00000000000E+00  0.14375377019E+03  0.14375377019E+03  0.00000000000E+00 0. -1.
         -4   -1    0    0    0  501 -0.00000000000E+00 -0.00000000000E+00 -0.15452629510E+03  0.15452629510E+03  0.00000000000E+00 0.  1.
         23    2    1    2    0    0  0.86327448977E+02  0.81395587239E+01 -0.55928660820E+02  0.16207772519E+03  0.12498997175E+03 0.  0.
          5    1    3    3  502    0  0.10251767895E+02  0.13032347974E+02  0.37578372176E+02  0.41342047532E+02  0.47000000000E+01 0.  1.
         -5    1    3    3    0  502  0.76075681082E+02 -0.48927892501E+01 -0.93507032996E+02  0.12073567765E+03  0.47000000000E+01 0.  1.
        -11    1    1    2    0    0 -0.33273157624E+02  0.22081034357E+02 -0.21874277336E+02  0.45531956970E+02  0.00000000000E+00 0.  1.
         11    1    1    2    0    0 -0.53054291353E+02 -0.30220593081E+02  0.67030413251E+02  0.90670383135E+02  0.00000000000E+00 0. -1.
<mgrwt>
<rscale>  0 0.14583759E+03</rscale>
<asrwt>0</asrwt>
<pdfrwt beam="1">  1        4 0.22115965E-01 0.15212223E+03</pdfrwt>
<pdfrwt beam="2">  1       -4 0.23773276E-01 0.15212223E+03</pdfrwt>
<totfact> 0.52360391E+02</totfact>
</mgrwt>
</event>
<event>
 7    1  0.4230786E-006  0.1363230E+03  0.7546771E-02  0.1219942E+00
          2   -1    0    0  501    0  0.00000000000E+00  0.00000000000E+00  0.12276399711E+03  0.12276399711E+03  0.00000000000E+00 0. -1.
         -2   -1    0    0    0  501 -0.00000000000E+00 -0.00000000000E+00 -0.15093511696E+03  0.15093511696E+03  0.00000000000E+00 0.  1.
         23    2    1    2    0    0 -0.19641995135E+02  0.37162315139E+02 -0.37371895888E+02  0.13706597684E+03  0.12499431093E+03 0.  0.
          5    1    3    3  502    0 -0.42361158129E+02  0.31397532972E+02  0.33246151875E+02  0.62511354243E+02  0.47000000000E+01 0. -1.
         -5    1    3    3    0  502  0.22719162994E+02  0.57647821676E+01 -0.70618047764E+02  0.74554622597E+02  0.47000000000E+01 0. -1.
        -11    1    1    2    0    0  0.28432533014E+02 -0.64825363117E+01  0.65622689610E+02  0.71810651037E+02  0.00000000000E+00 0. -1.
         11    1    1    2    0    0 -0.87905378794E+01 -0.30679778828E+02 -0.56421913575E+02  0.64822486196E+02  0.00000000000E+00 0.  1.
<mgrwt>
<rscale>  0 0.13519655E+03</rscale>
<asrwt>0</asrwt>
<pdfrwt beam="1">  1        2 0.18886769E-01 0.13632300E+03</pdfrwt>
<pdfrwt beam="2">  1       -2 0.23220787E-01 0.13632300E+03</pdfrwt>
<totfact> 0.45944272E+03</totfact>
</mgrwt>
</event>
<event>
 7    1  0.4230786E-006  0.1550160E+03  0.7546771E-02  0.1202664E+00
          2   -1    0    0  501    0  0.00000000000E+00  0.00000000000E+00  0.10043200147E+03  0.10043200147E+03  0.00000000000E+00 0. -1.
         -2   -1    0    0    0  501 -0.00000000000E+00 -0.00000000000E+00 -0.29648078768E+03  0.29648078768E+03  0.00000000000E+00 0.  1.
         23    2    1    2    0    0 -0.44616092880E+02  0.80108868196E+02 -0.21590861012E+03  0.26579409547E+03  0.12498778644E+03 0.  0.
          5    1    3    3  502    0  0.28123726303E+02  0.59997084084E+02 -0.48964961789E+02  0.82524248331E+02  0.47000000000E+01 0.  1.
         -5    1    3    3    0  502 -0.72739819182E+02  0.20111784112E+02 -0.16694364833E+03  0.18326984714E+03  0.47000000000E+01 0.  1.
        -11    1    1    2    0    0  0.34160278462E+02 -0.78638981472E+02  0.49951849589E+02  0.99228026832E+02  0.00000000000E+00 0. -1.
         11    1    1    2    0    0  0.10455814418E+02 -0.14698867237E+01 -0.30092025681E+02  0.31890666843E+02  0.00000000000E+00 0.  1.
<mgrwt>
<rscale>  0 0.14823089E+03</rscale>
<asrwt>0</asrwt>
<pdfrwt beam="1">  1        2 0.15451077E-01 0.15501604E+03</pdfrwt>
<pdfrwt beam="2">  1       -2 0.45612429E-01 0.15501604E+03</pdfrwt>
<totfact> 0.16960978E+03</totfact>
</mgrwt>
</event>
<event>
 7    1  0.4230786E-006  0.2442117E+03  0.7546771E-02  0.1119714E+00
          2   -1    0    0  501    0  0.00000000000E+00  0.00000000000E+00  0.11490747595E+04  0.11490747595E+04  0.00000000000E+00 0.  1.
         -2   -1    0    0    0  501 -0.00000000000E+00 -0.00000000000E+00 -0.48864136550E+02  0.48864136550E+02  0.00000000000E+00 0. -1.
         23    2    1    2    0    0  0.20841394264E+03  0.24029809007E+02  0.52168234756E+03  0.57601373797E+03  0.12500220544E+03 0.  0.
          5    1    3    3  502    0  0.10708595428E+03 -0.41683694286E+02  0.18019777535E+03  0.21377151404E+03  0.47000000000E+01 0.  1.
         -5    1    3    3    0  502  0.10132798836E+03  0.65713503293E+02  0.34148457221E+03  0.36224222393E+03  0.47000000000E+01 0.  1.
        -11    1    1    2    0    0 -0.71048878515E+02 -0.47810597718E+02  0.27249687555E+03  0.28563673359E+03  0.00000000000E+00 0.  1.
         11    1    1    2    0    0 -0.13736506413E+03  0.23780788712E+02  0.30603139981E+03  0.33628842446E+03  0.00000000000E+00 0. -1.
<mgrwt>
<rscale>  0 0.24011834E+03</rscale>
<asrwt>0</asrwt>
<pdfrwt beam="1">  1        2 0.17678071E+00 0.24421170E+03</pdfrwt>
<pdfrwt beam="2">  1       -2 0.75175603E-02 0.24421170E+03</pdfrwt>
<totfact> 0.22264598E+03</totfact>
</mgrwt>
</event>
<event>
 6    1  0.4230786E-006  0.1837491E+03  0.7546771E-02  0.1172808E+00
         -2   -1    0    0    0  501 -0.00000000000E+00  0.00000000000E+00  0.72589298617E+02  0.72589298617E+02  0.00000000000E+00 0.  1.
          2   -1    0    0  501    0  0.00000000000E+00 -0.00000000000E+00 -0.41769887464E+03  0.41769887464E+03  0.00000000000E+00 0. -1.
          5    1    1    2  502    0 -0.43737756193E+01  0.20202115402E+02 -0.67397333142E+02  0.70652288671E+02  0.47000000000E+01 0. -1.
         -5    1    1    2    0  502  0.86409604332E+02 -0.10921008201E+03 -0.53267688492E+02  0.14917438912E+03  0.47000000000E+01 0.  1.
        -11    1    1    2    0    0 -0.67983828794E+02  0.10697228851E+03 -0.17570665310E+03  0.21665110070E+03  0.00000000000E+00 0. -1.
         11    1    1    2    0    0 -0.14051999919E+02 -0.17964321909E+02 -0.48737901283E+02  0.53810394766E+02  0.00000000000E+00 0.  1.
<mgrwt>
<rscale>  0 0.17492381E+03</rscale>
<asrwt>0</asrwt>
<pdfrwt beam="2">  1        2 0.64261366E-01 0.18374907E+03</pdfrwt>
<pdfrwt beam="1">  1       -2 0.11167584E-01 0.18374907E+03</pdfrwt>
<totfact> 0.41412523E+03</totfact>
</mgrwt>
</event>
<event>
 7    1  0.4230786E-006  0.1330890E+03  0.7546771E-02  0.1235653E+00
          4   -1    0    0  501    0  0.00000000000E+00  0.00000000000E+00  0.75577770684E+02  0.75577770684E+02  0.00000000000E+00 0. -1.
         -4   -1    0    0    0  501 -0.00000000000E+00 -0.00000000000E+00 -0.19259919893E+03  0.19259919893E+03  0.00000000000E+00 0.  1.
         23    2    1    2    0    0  0.31455119918E+02  0.33122960379E+02 -0.94953559215E+02  0.16348963861E+03  0.12500451373E+03 0.  0.
          5    1    3    3  502    0  0.13324298724E+02  0.25970697076E+02 -0.12440038088E+03  0.12786539331E+03  0.47000000000E+01 0. -1.
         -5    1    3    3    0  502  0.18130821195E+02  0.71522633036E+01  0.29446821663E+02  0.35624245306E+02  0.47000000000E+01 0. -1.
        -11    1    1    2    0    0 -0.30316238509E+02  0.15794343695E+02 -0.39961489970E+02  0.52587605866E+02  0.00000000000E+00 0.  1.
         11    1    1    2    0    0 -0.11388814098E+01 -0.48917304075E+02  0.17893620940E+02  0.52099725135E+02  0.00000000000E+00 0. -1.
<mgrwt>
<rscale>  0 0.12462715E+03</rscale>
<asrwt>0</asrwt>
<pdfrwt beam="1">  1        4 0.11627349E-01 0.13308901E+03</pdfrwt>
<pdfrwt beam="2">  1       -4 0.29630646E-01 0.13308901E+03</pdfrwt>
<totfact> 0.10497799E+03</totfact>
</mgrwt>
</event>
<event>
 6    1  0.4230786E-006  0.2116058E+03  0.7546771E-02  0.1177413E+00
          2   -1    0    0  501    0  0.00000000000E+00  0.00000000000E+00  0.79373495701E+02  0.79373495701E+02  0.00000000000E+00 0. -1.
         -2   -1    0    0    0  501 -0.00000000000E+00 -0.00000000000E+00 -0.28467907944E+03  0.28467907944E+03  0.00000000000E+00 0.  1.
          5    1    1    2  502    0 -0.31103772369E+02 -0.73646772138E+02  0.23351433354E+02  0.83418649843E+02  0.47000000000E+01 0. -1.
         -5    1    1    2    0  502 -0.34248340316E+02  0.16031411940E+02 -0.16955113844E+03  0.17378041757E+03  0.47000000000E+01 0.  1.
        -11    1    1    2    0    0  0.50976373127E+02  0.34189432105E+02 -0.37895239196E+02  0.72135684918E+02  0.00000000000E+00 0. -1.
         11    1    1    2    0    0  0.14375739557E+02  0.23425928092E+02 -0.21210639457E+02  0.34717822814E+02  0.00000000000E+00 0.  1.
<mgrwt>
<rscale>  0 0.17041776E+03</rscale>
<asrwt>0</asrwt>
<pdfrwt beam="1">  1        2 0.12211307E-01 0.21160578E+03</pdfrwt>
<pdfrwt beam="2">  1       -2 0.43796781E-01 0.21160578E+03</pdfrwt>
<totfact> 0.24626730E+03</totfact>
</mgrwt>
</event>
<event>
 6    1  0.4230786E-006  0.9177900E+03  0.7546771E-02  0.9766902E-01
         -2   -1    0    0    0  501 -0.00000000000E+00  0.00000000000E+00  0.63325518158E+03  0.63325518158E+03  0.00000000000E+00 0.  1.
          2   -1    0    0  501    0  0.00000000000E+00 -0.00000000000E+00 -0.58340343764E+03  0.58340343764E+03  0.00000000000E+00 0. -1.
          5    1    1    2  502    0  0.23110044717E+03  0.20041260987E+03 -0.25572140314E+03  0.39873319012E+03  0.47000000000E+01 0. -1.
         -5    1    1    2    0  502 -0.33313645308E+03  0.24631902344E+02  0.41502443769E+03  0.53277950492E+03  0.47000000000E+01 0.  1.
        -11    1    1    2    0    0  0.74161183252E+02 -0.22232229913E+03 -0.10490238513E+03  0.25677148634E+03  0.00000000000E+00 0.  1.
         11    1    1    2    0    0  0.27874822651E+02 -0.27222130833E+01 -0.45489054833E+01  0.28374437844E+02  0.00000000000E+00 0. -1.
<mgrwt>
<rscale>  0 0.67169412E+03</rscale>
<asrwt>0</asrwt>
<pdfrwt beam="2">  1        2 0.89754374E-01 0.91778998E+03</pdfrwt>
<pdfrwt beam="1">  1       -2 0.97423875E-01 0.91778998E+03</pdfrwt>
<totfact> 0.45128744E+01</totfact>
</mgrwt>
</event>
<event>
 7    1  0.4230786E-006  0.1271332E+03  0.7546771E-02  0.1247863E+00
         -2   -1    0    0    0  501 -0.00000000000E+00  0.00000000000E+00  0.31622981140E+02  0.31622981140E+02  0.00000000000E+00 0.  1.
          2   -1    0    0  501    0  0.00000000000E+00 -0.00000000000E+00 -0.48908027764E+03  0.48908027764E+03  0.00000000000E+00 0. -1.
         23    2    1    2    0    0 -0.88250952230E+01 -0.21460348619E+02 -0.13489057705E+03  0.18535997482E+03  0.12499769446E+03 0.  0.
          5    1    3    3  502    0 -0.20833877144E+01 -0.58343107287E+02 -0.16154705857E+02  0.60756260530E+02  0.47000000000E+01 0.  1.
         -5    1    3    3    0  502 -0.67417075086E+01  0.36882758667E+02 -0.11873587119E+03  0.12460371429E+03  0.47000000000E+01 0.  1.
        -11    1    1    2    0    0  0.44950510151E+02 -0.66823509643E+01 -0.17717527423E+03  0.18291057918E+03  0.00000000000E+00 0. -1.
         11    1    1    2    0    0 -0.36125414928E+02  0.28142699584E+02 -0.14539144522E+03  0.15243270478E+03  0.00000000000E+00 0.  1.
<mgrwt>
<rscale>  0 0.11715662E+03</rscale>
<asrwt>0</asrwt>
<pdfrwt beam="2">  1        2 0.75243115E-01 0.12713321E+03</pdfrwt>
<pdfrwt beam="1">  1       -2 0.48650743E-02 0.12713321E+03</pdfrwt>
<totfact> 0.12296741E+04</totfact>
</mgrwt>
</event>
<event>
 7    1  0.4230786E-006  0.1406305E+03  0.7546771E-02  0.1223157E+00
          2   -1    0    0  501    0  0.00000000000E+00  0.00000000000E+00  0.77502500640E+03  0.77502500640E+03  0.00000000000E+00 0. -1.
         -2   -1    0    0    0  501 -0.00000000000E+00 -0.00000000000E+00 -0.27556249199E+02  0.27556249199E+02  0.00000000000E+00 0.  1.
         23    2    1    2    0    0  0.53450852854E+02  0.36025005827E+02  0.20493563272E+03  0.24854689868E+03  0.12498860976E+03 0.  0.
          5    1    3    3  502    0  0.32629722684E+02  0.31401929689E+02  0.21826348521E+03  0.22296147418E+03  0.47000000000E+01 0. -1.
         -5    1    3    3    0  502  0.20821130170E+02  0.46230761377E+01 -0.13327852496E+02  0.25585424497E+02  0.47000000000E+01 0. -1.
        -11    1    1    2    0    0 -0.73993267200E+02 -0.48309255321E+02  0.42716424031E+03  0.43620875271E+03  0.00000000000E+00 0.  1.
         11    1    1    2    0    0  0.20542414346E+02  0.12284249495E+02  0.11536888418E+03  0.11782560422E+03  0.00000000000E+00 0. -1.
<mgrwt>
<rscale>  0 0.13294046E+03</rscale>
<asrwt>0</asrwt>
<pdfrwt beam="1">  1        2 0.11923460E+00 0.14063053E+03</pdfrwt>
<pdfrwt beam="2">  1       -2 0.42394235E-02 0.14063053E+03</pdfrwt>
<totfact> 0.89563549E+03</totfact>
</mgrwt>
</event>
<event>
 7    1  0.4230786E-006  0.1378956E+03  0.7546771E-02  0.1227067E+00
         -3   -1    0    0    0  501 -0.00000000000E+00  0.00000000000E+00  0.10890836344E+03  0.10890836344E+03  0.00000000000E+00 0.  1.
          3   -1    0    0  501    0  0.00000000000E+00 -0.00000000000E+00 -0.18391457198E+03  0.18391457198E+03  0.00000000000E+00 0. -1.
         23    2    1    2    0    0 -0.33937917655E+02 -0.47321531215E+02  0.29744263948E+02  0.14106705837E+03  0.12499633654E+03 0.  0.
          5    1    3    3  502    0  0.14412637543E+02 -0.24504944665E+02 -0.42328993937E+02  0.51205958264E+02  0.47000000000E+01 0.  1.
         -5    1    3    3    0  502 -0.48350555199E+02 -0.22816586550E+02  0.72073257885E+02  0.89861100104E+02  0.47000000000E+01 0.  1.
        -11    1    1    2    0    0  0.23146505941E+02 -0.11280550834E+02  0.55945802087E+01  0.26349779736E+02  0.00000000000E+00 0.  1.
         11    1    1    2    0    0  0.10791411714E+02  0.58602082049E+02 -0.11034505270E+03  0.12540609731E+03  0.00000000000E+00 0. -1.
<mgrwt>
<rscale>  0 0.13026223E+03</rscale>
<asrwt>0</asrwt>
<pdfrwt beam="2">  1        3 0.28294549E-01 0.13789559E+03</pdfrwt>
<pdfrwt beam="1">  1       -3 0.16755133E-01 0.13789559E+03</pdfrwt>
<totfact> 0.84896178E+02</totfact>
</mgrwt>
</event>
<event>
 7    1  0.4230786E-006  0.1761407E+03  0.7546771E-02  0.1179479E+00
          4   -1    0    0  501    0  0.00000000000E+00  0.00000000000E+00  0.87576444744E+03  0.87576444744E+03  0.00000000000E+00 0. -1.
         -4   -1    0    0    0  501 -0.00000000000E+00 -0.00000000000E+00 -0.36153345455E+02  0.36153345455E+02  0.00000000000E+00 0.  1.
         23    2    1    2    0    0 -0.34697169378E+01 -0.12405749764E+03  0.26120222030E+03  0.31504310658E+03  0.12499302964E+03 0.  0.
          5    1    3    3  502    0 -0.38844565763E+02  0.22834994366E+01  0.30742771717E+02  0.49812876566E+02  0.47000000000E+01 0.  1.
         -5    1    3    3    0  502  0.35374848825E+02 -0.12634099708E+03  0.23045944858E+03  0.26523023001E+03  0.47000000000E+01 0.  1.
        -11    1    1    2    0    0  0.26813442489E+02  0.48332400254E+02  0.12616540541E+03  0.13774139223E+03  0.00000000000E+00 0.  1.
         11    1    1    2    0    0 -0.23343725551E+02  0.75725097391E+02  0.45224347627E+03  0.45913329408E+03  0.00000000000E+00 0. -1.
<mgrwt>
<rscale>  0 0.16844523E+03</rscale>
<asrwt>0</asrwt>
<pdfrwt beam="1">  1        4 0.13473298E+00 0.17614074E+03</pdfrwt>
<pdfrwt beam="2">  1       -4 0.55620538E-02 0.17614074E+03</pdfrwt>
<totfact> 0.14641980E+02</totfact>
</mgrwt>
</event>
<event>
 7    1  0.4230786E-006  0.1337759E+03  0.7546771E-02  0.1235136E+00
          1   -1    0    0  501    0  0.00000000000E+00  0.00000000000E+00  0.42564679337E+02  0.42564679337E+02  0.00000000000E+00 0. -1.
         -1   -1    0    0    0  501 -0.00000000000E+00 -0.00000000000E+00 -0.42796465931E+03  0.42796465931E+03  0.00000000000E+00 0.  1.
         23    2    1    2    0    0  0.31359471409E+02 -0.35864247242E+02 -0.32659891874E+03  0.35293462939E+03  0.12500535276E+03 0.  0.
          5    1    3    3  502    0  0.31960149269E+01  0.45584257814E+02 -0.13995745950E+03  0.14730349467E+03  0.47000000000E+01 0. -1.
         -5    1    3    3    0  502  0.28163456482E+02 -0.81448505055E+02 -0.18664145924E+03  0.20563113471E+03  0.47000000000E+01 0. -1.
        -11    1    1    2    0    0 -0.31739240989E+02 -0.24779443119E+02 -0.31323448005E+02  0.51015278249E+02  0.00000000000E+00 0.  1.
         11    1    1    2    0    0  0.37976957958E+00  0.60643690361E+02 -0.27477613225E+02  0.66579431013E+02  0.00000000000E+00 0. -1.
<mgrwt>
<rscale>  0 0.12495706E+03</rscale>
<asrwt>0</asrwt>
<pdfrwt beam="1">  1        1 0.65484124E-02 0.13377593E+03</pdfrwt>
<pdfrwt beam="2">  1       -1 0.65840715E-01 0.13377593E+03</pdfrwt>
<totfact> 0.26779828E+03</totfact>
</mgrwt>
</event>
<event>
 7    1  0.4230786E-006  0.1348275E+03  0.7546771E-02  0.1233465E+00
          1   -1    0    0  501    0  0.00000000000E+00  0.00000000000E+00  0.25642264031E+03  0.25642264031E+03  0.00000000000E+00 0. -1.
         -1   -1    0    0    0  501 -0.00000000000E+00 -0.00000000000E+00 -0.31800941810E+03  0.31800941810E+03  0.00000000000E+00 0.  1.
         23    2    1    2    0    0  0.29310421035E+02  0.41189051823E+02 -0.29224382795E+03  0.32184608295E+03  0.12499122914E+03 0.  0.
          5    1    3    3  502    0  0.91568397737E+01  0.90714702209E+01 -0.28194026659E+03  0.28227387979E+03  0.47000000000E+01 0.  1.
         -5    1    3    3    0  502  0.20153581262E+02  0.32117581602E+02 -0.10303561353E+02  0.39572203151E+02  0.47000000000E+01 0.  1.
        -11    1    1    2    0    0  0.18569168557E+02  0.17540697679E+02  0.79448146471E+02  0.83453568370E+02  0.00000000000E+00 0.  1.
         11    1    1    2    0    0 -0.47879589593E+02 -0.58729749503E+02  0.15120890369E+03  0.16913240710E+03  0.00000000000E+00 0. -1.
<mgrwt>
<rscale>  0 0.12603224E+03</rscale>
<asrwt>0</asrwt>
<pdfrwt beam="1">  1        1 0.39449637E-01 0.13482747E+03</pdfrwt>
<pdfrwt beam="2">  1       -1 0.48924526E-01 0.13482747E+03</pdfrwt>
<totfact> 0.46145438E+02</totfact>
</mgrwt>
</event>
<event>
 6    1  0.4230786E-006  0.3707948E+03  0.7546771E-02  0.1102331E+00
          4   -1    0    0  501    0  0.00000000000E+00  0.00000000000E+00  0.87418367195E+02  0.87418367195E+02  0.00000000000E+00 0. -1.
         -4   -1    0    0    0  501 -0.00000000000E+00 -0.00000000000E+00 -0.65222580665E+03  0.65222580665E+03  0.00000000000E+00 0.  1.
          5    1    1    2  502    0  0.42947246622E+02 -0.39259228207E+02  0.48318559395E+02  0.75779457466E+02  0.47000000000E+01 0. -1.
         -5    1    1    2    0  502 -0.37019439179E+02 -0.54175100027E+01 -0.53368074305E+03  0.53501122772E+03  0.47000000000E+01 0.  1.
        -11    1    1    2    0    0 -0.16973540791E+02  0.70333670642E+02 -0.48176326380E+02  0.86924592242E+02  0.00000000000E+00 0. -1.
         11    1    1    2    0    0  0.11045733348E+02 -0.25656932432E+02 -0.31268929421E+02  0.41928896410E+02  0.00000000000E+00 0.  1.
<mgrwt>
<rscale>  0 0.26817050E+03</rscale>
<asrwt>0</asrwt>
<pdfrwt beam="1">  1        4 0.13448980E-01 0.37079484E+03</pdfrwt>
<pdfrwt beam="2">  1       -4 0.10034243E+00 0.37079484E+03</pdfrwt>
<totfact> 0.73579553E+01</totfact>
</mgrwt>
</event>
<event>
 6    1  0.4230786E-006  0.2471624E+03  0.7546771E-02  0.1152885E+00
         -3   -1    0    0    0  501 -0.00000000000E+00  0.00000000000E+00  0.86193234363E+02  0.86193234363E+02  0.00000000000E+00 0.  1.
          3   -1    0    0  501    0  0.00000000000E+00 -0.00000000000E+00 -0.35324764397E+03  0.35324764397E+03  0.00000000000E+00 0. -1.
          5    1    1    2  502    0 -0.63015154722E+02  0.51740458648E+02  0.24061365703E+02  0.85141200985E+02  0.47000000000E+01 0. -1.
         -5    1    1    2    0  502  0.91221295226E+02 -0.35989978662E+02 -0.18607951319E+03  0.21039077569E+03  0.47000000000E+01 0.  1.
        -11    1    1    2    0    0  0.32301231688E+02  0.19801338465E+01 -0.19985560890E+02  0.38035682493E+02  0.00000000000E+00 0. -1.
         11    1    1    2    0    0 -0.60507372191E+02 -0.17730613832E+02 -0.85050701224E+02  0.10587321916E+03  0.00000000000E+00 0.  1.
<mgrwt>
<rscale>  0 0.19631583E+03</rscale>
<asrwt>0</asrwt>
<pdfrwt beam="2">  1        3 0.54345792E-01 0.24716243E+03</pdfrwt>
<pdfrwt beam="1">  1       -3 0.13260497E-01 0.24716243E+03</pdfrwt>
<totfact> 0.38714175E+02</totfact>
</mgrwt>
</event>
<event>
 7    1  0.4230786E-006  0.1291412E+03  0.7546771E-02  0.1242477E+00
         -1   -1    0    0    0  501 -0.00000000000E+00  0.00000000000E+00  0.11416286746E+03  0.11416286746E+03  0.00000000000E+00 0.  1.
          1   -1    0    0  501    0  0.00000000000E+00 -0.00000000000E+00 -0.13938274604E+03  0.13938274604E+03  0.00000000000E+00 0. -1.
         23    2    1    2    0    0  0.32348822786E+02 -0.19763489554E+01  0.41226910048E+02  0.13556217162E+03  0.12500836761E+03 0.  0.
          5    1    3    3  502    0 -0.26067688019E+02  0.46102839035E+02  0.20400280246E+02  0.56949605441E+02  0.47000000000E+01 0.  1.
         -5    1    3    3    0  502  0.58416510805E+02 -0.48079187991E+02  0.20826629802E+02  0.78612566180E+02  0.47000000000E+01 0.  1.
        -11    1    1    2    0    0 -0.20932235514E+02 -0.78130354676E+01 -0.88507620003E+02  0.91284176096E+02  0.00000000000E+00 0. -1.
         11    1    1    2    0    0 -0.11416587272E+02  0.97893844230E+01  0.22060831378E+02  0.26699265784E+02  0.00000000000E+00 0.  1.
<mgrwt>
<rscale>  0 0.12037661E+03</rscale>
<asrwt>0</asrwt>
<pdfrwt beam="2">  1        1 0.21443499E-01 0.12914118E+03</pdfrwt>
<pdfrwt beam="1">  1       -1 0.17563518E-01 0.12914118E+03</pdfrwt>
<totfact> 0.55222215E+03</totfact>
</mgrwt>
</event>
<event>
 7    1  0.4230786E-006  0.1347952E+03  0.7546771E-02  0.1232452E+00
         -3   -1    0    0    0  501 -0.00000000000E+00  0.00000000000E+00  0.84856231167E+02  0.84856231167E+02  0.00000000000E+00 0.  1.
          3   -1    0    0  501    0  0.00000000000E+00 -0.00000000000E+00 -0.17948608527E+03  0.17948608527E+03  0.00000000000E+00 0. -1.
         23    2    1    2    0    0 -0.36873939316E+02 -0.34433842492E+02 -0.22140921910E+02  0.13660148892E+03  0.12499747775E+03 0.  0.
          5    1    3    3  502    0  0.31628324486E+02  0.27444966056E+02 -0.32891499535E+01  0.42266837817E+02  0.47000000000E+01 0. -1.
         -5    1    3    3    0  502 -0.68502263802E+02 -0.61878808548E+02 -0.18851771957E+02  0.94334651106E+02  0.47000000000E+01 0. -1.
        -11    1    1    2    0    0  0.19964626425E+02  0.53914946787E+02 -0.77009001121E+01  0.58006134657E+02  0.00000000000E+00 0.  1.
         11    1    1    2    0    0  0.16909312891E+02 -0.19481104295E+02 -0.64788032083E+02  0.69734692859E+02  0.00000000000E+00 0. -1.
<mgrwt>
<rscale>  0 0.12668941E+03</rscale>
<asrwt>0</asrwt>
<pdfrwt beam="2">  1        3 0.27613244E-01 0.13479520E+03</pdfrwt>
<pdfrwt beam="1">  1       -3 0.13054805E-01 0.13479520E+03</pdfrwt>
<totfact> 0.13548552E+03</totfact>
</mgrwt>
</event>
<event>
 7    1  0.4230786E-006  0.1290843E+03  0.7546771E-02  0.1241283E+00
          1   -1    0    0  501    0  0.00000000000E+00  0.00000000000E+00  0.41680422408E+02  0.41680422408E+02  0.00000000000E+00 0. -1.
         -1   -1    0    0    0  501 -0.00000000000E+00 -0.00000000000E+00 -0.34365911647E+03  0.34365911647E+03  0.00000000000E+00 0.  1.
         23    2    1    2    0    0  0.12658470683E+02  0.29621285253E+02 -0.22395856559E+03  0.25849600858E+03  0.12500035973E+03 0.  0.
          5    1    3    3  502    0  0.33767085389E+02  0.61769674256E+02 -0.20198724518E+03  0.21395477543E+03  0.47000000000E+01 0.  1.
         -5    1    3    3    0  502 -0.21108614706E+02 -0.32148389003E+02 -0.21971320410E+02  0.44541233154E+02  0.47000000000E+01 0.  1.
        -11    1    1    2    0    0 -0.50706060932E+02 -0.34515978332E+02 -0.52806490453E+02  0.80938141870E+02  0.00000000000E+00 0.  1.
         11    1    1    2    0    0  0.38047590249E+02  0.48946930789E+01 -0.25213638014E+02  0.45905388420E+02  0.00000000000E+00 0. -1.
<mgrwt>
<rscale>  0 0.12110626E+03</rscale>
<asrwt>0</asrwt>
<pdfrwt beam="1">  1        1 0.64123728E-02 0.12908426E+03</pdfrwt>
<pdfrwt beam="2">  1       -1 0.52870632E-01 0.12908426E+03</pdfrwt>
<totfact> 0.41630452E+03</totfact>
</mgrwt>
</event>
<event>
 7    1  0.4230786E-006  0.1475413E+03  0.7546771E-02  0.1221708E+00
         -2   -1    0    0    0  501 -0.00000000000E+00  0.00000000000E+00  0.10244539351E+03  0.10244539351E+03  0.00000000000E+00 0.  1.
          2   -1    0    0  501    0  0.00000000000E+00 -0.00000000000E+00 -0.18888933595E+03  0.18888933595E+03  0.00000000000E+00 0. -1.
         23    2    1    2    0    0 -0.76919051100E+02 -0.15080086728E+02  0.15512616085E+02  0.14835452049E+03  0.12499789220E+03 0.  0.
          5    1    3    3  502    0 -0.77942333673E+02 -0.56978888591E+02  0.33778713368E+02  0.10239478795E+03  0.47000000000E+01 0. -1.
         -5    1    3    3    0  502  0.10232825730E+01  0.41898801863E+02 -0.18266097283E+02  0.45959732535E+02  0.47000000000E+01 0. -1.
        -11    1    1    2    0    0  0.18486469202E+02  0.33256031795E+02 -0.49113970030E+02  0.62128055228E+02  0.00000000000E+00 0.  1.
         11    1    1    2    0    0  0.58432581898E+02 -0.18175945067E+02 -0.52842588498E+02  0.80852153746E+02  0.00000000000E+00 0. -1.
<mgrwt>
<rscale>  0 0.13395106E+03</rscale>
<asrwt>0</asrwt>
<pdfrwt beam="2">  1        2 0.29059897E-01 0.14754126E+03</pdfrwt>
<pdfrwt beam="1">  1       -2 0.15760830E-01 0.14754126E+03</pdfrwt>
<totfact> 0.54915761E+03</totfact>
</mgrwt>
</event>
<event>
 7    1  0.4230786E-006  0.3431117E+03  0.7546771E-02  0.1066590E+00
          1   -1    0    0  501    0  0.00000000000E+00  0.00000000000E+00  0.42164395334E+03  0.42164395334E+03  0.00000000000E+00 0. -1.
         -1   -1    0    0    0  501 -0.00000000000E+00 -0.00000000000E+00 -0.27800084130E+03  0.27800084130E+03  0.00000000000E+00 0.  1.
         23    2    1    2    0    0  0.87942882240E+02  0.30719897854E+03  0.16662744174E+02  0.34351608247E+03  0.12498195440E+03 0.  0.
          5    1    3    3  502    0  0.48360520192E+02  0.10274444073E+03  0.63246642558E+02  0.13006685899E+03  0.47000000000E+01 0. -1.
         -5    1    3    3    0  502  0.39582362048E+02  0.20445453781E+03 -0.46583898384E+02  0.21344922348E+03  0.47000000000E+01 0.  1.
        -11    1    1    2    0    0 -0.78232589619E+01 -0.19246288142E+03  0.68109877973E+02  0.20430888278E+03  0.00000000000E+00 0. -1.
         11    1    1    2    0    0 -0.80119623278E+02 -0.11473609712E+03  0.58870489885E+02  0.15181982939E+03  0.00000000000E+00 0.  1.
<mgrwt>
<rscale>  0 0.34048415E+03</rscale>
<asrwt>0</asrwt>
<pdfrwt beam="1">  1        1 0.64868301E-01 0.34311172E+03</pdfrwt>
<pdfrwt beam="2">  1       -1 0.42769360E-01 0.34311172E+03</pdfrwt>
<totfact> 0.31031387E+02</totfact>
</mgrwt>
</event>
<event>
 7    1  0.4230786E-006  0.2660213E+03  0.7546771E-02  0.1105456E+00
         -2   -1    0    0    0  501 -0.00000000000E+00  0.00000000000E+00  0.62320022889E+02  0.62320022889E+02  0.00000000000E+00 0.  1.
          2   -1    0    0  501    0  0.00000000000E+00 -0.00000000000E+00 -0.13800134146E+04  0.13800134146E+04  0.00000000000E+00 0. -1.
         23    2    1    2    0    0  0.17427622512E+03  0.15738408094E+03 -0.33662794598E+03  0.42905207270E+03  0.12500142199E+03 0.  0.
          5    1    3    3  502    0  0.37062415198E+02  0.36159646954E+02 -0.76857108629E+01  0.52557614477E+02  0.47000000000E+01 0.  1.
         -5    1    3    3    0  502  0.13721380992E+03  0.12122443399E+03 -0.32894223512E+03  0.37649445823E+03  0.47000000000E+01 0.  1.
        -11    1    1    2    0    0 -0.84624510045E+02 -0.19554687411E+02 -0.27832173805E+03  0.29155905640E+03  0.00000000000E+00 0.  1.
         11    1    1    2    0    0 -0.89651715074E+02 -0.13782939353E+03 -0.70274370771E+03  0.72172230841E+03  0.00000000000E+00 0. -1.
<mgrwt>
<rscale>  0 0.26282771E+03</rscale>
<asrwt>0</asrwt>
<pdfrwt beam="2">  1        2 0.21230974E+00 0.26602125E+03</pdfrwt>
<pdfrwt beam="1">  1       -2 0.95876964E-02 0.26602125E+03</pdfrwt>
<totfact> 0.11269131E+03</totfact>
</mgrwt>
</event>
<event>
 7    1  0.4230786E-006  0.1348785E+03  0.7546771E-02  0.1233471E+00
          2   -1    0    0  501    0  0.00000000000E+00  0.00000000000E+00  0.33539440040E+03  0.33539440040E+03  0.00000000000E+00 0. -1.
         -2   -1    0    0    0  501 -0.00000000000E+00 -0.00000000000E+00 -0.55589130548E+02  0.55589130548E+02  0.00000000000E+00 0.  1.
         23    2    1    2    0    0  0.27555160311E+02  0.42514386345E+02  0.58609780986E+02  0.14706229483E+03  0.12500180889E+03 0.  0.
          5    1    3    3  502    0  0.39662339131E+02  0.74307713469E+02  0.71293022806E+02  0.11045144873E+03  0.47000000000E+01 0.  1.
         -5    1    3    3    0  502 -0.12107178820E+02 -0.31793327125E+02 -0.12683241820E+02  0.36610846094E+02  0.47000000000E+01 0.  1.
        -11    1    1    2    0    0 -0.52817393636E+01 -0.56781387921E+02  0.20527443723E+03  0.21304839207E+03  0.00000000000E+00 0. -1.
         11    1    1    2    0    0 -0.22273420947E+02  0.14267001576E+02  0.15921051642E+02  0.30872844055E+02  0.00000000000E+00 0.  1.
<mgrwt>
<rscale>  0 0.12602801E+03</rscale>
<asrwt>0</asrwt>
<pdfrwt beam="1">  1        2 0.51599138E-01 0.13487851E+03</pdfrwt>
<pdfrwt beam="2">  1       -2 0.85521741E-02 0.13487851E+03</pdfrwt>
<totfact> 0.78382257E+03</totfact>
</mgrwt>
</event>
<event>
 7    1  0.4230786E-006  0.2605843E+03  0.7546771E-02  0.1106946E+00
         -2   -1    0    0    0  501 -0.00000000000E+00  0.00000000000E+00  0.71636864600E+02  0.71636864600E+02  0.00000000000E+00 0.  1.
          2   -1    0    0  501    0  0.00000000000E+00 -0.00000000000E+00 -0.10095860793E+04  0.10095860793E+04  0.00000000000E+00 0. -1.
         23    2    1    2    0    0  0.22841242527E+03  0.10334482596E+02 -0.33224438349E+03  0.42224460444E+03  0.12500055226E+03 0.  0.
          5    1    3    3  502    0  0.27250021942E+02  0.10610780997E+02  0.45042740612E+01  0.29958819303E+02  0.47000000000E+01 0.  1.
         -5    1    3    3    0  502  0.20116240333E+03 -0.27629840069E+00 -0.33674865755E+03  0.39228578513E+03  0.47000000000E+01 0.  1.
        -11    1    1    2    0    0 -0.14993392148E+03  0.52265691311E+02 -0.38859104590E+03  0.41977956626E+03  0.00000000000E+00 0. -1.
         11    1    1    2    0    0 -0.78478503796E+02 -0.62600173907E+02 -0.21711378534E+03  0.23919877323E+03  0.00000000000E+00 0.  1.
<mgrwt>
<rscale>  0 0.26032916E+03</rscale>
<asrwt>0</asrwt>
<pdfrwt beam="2">  1        2 0.15532093E+00 0.26058430E+03</pdfrwt>
<pdfrwt beam="1">  1       -2 0.11021056E-01 0.26058430E+03</pdfrwt>
<totfact> 0.14704448E+03</totfact>
</mgrwt>
</event>
<event>
 7    1  0.4230786E-006  0.2403932E+03  0.7546771E-02  0.1122298E+00
         -3   -1    0    0    0  501 -0.00000000000E+00  0.00000000000E+00  0.15803472874E+03  0.15803472874E+03  0.00000000000E+00 0.  1.
          3   -1    0    0  501    0  0.00000000000E+00 -0.00000000000E+00 -0.53303867902E+03  0.53303867902E+03  0.00000000000E+00 0. -1.
         23    2    1    2    0    0 -0.67053145044E+02  0.19408212367E+03  0.15305505481E+02  0.24087999644E+03  0.12499967680E+03 0.  0.
          5    1    3    3  502    0 -0.71761759071E+02  0.19827560494E+03  0.40253646719E+02  0.21472170746E+03  0.47000000000E+01 0.  1.
         -5    1    3    3    0  502  0.47086140262E+01 -0.41934812751E+01 -0.24948141238E+02  0.26158288982E+02  0.47000000000E+01 0.  1.
        -11    1    1    2    0    0  0.31816949915E+02 -0.15787769058E+03 -0.22066604398E+03  0.27318709056E+03  0.00000000000E+00 0.  1.
         11    1    1    2    0    0  0.35236195129E+02 -0.36204433088E+02 -0.16964341178E+03  0.17700632075E+03  0.00000000000E+00 0. -1.
<mgrwt>
<rscale>  0 0.23627780E+03</rscale>
<asrwt>0</asrwt>
<pdfrwt beam="2">  1        3 0.82005949E-01 0.24039325E+03</pdfrwt>
<pdfrwt beam="1">  1       -3 0.24313036E-01 0.24039325E+03</pdfrwt>
<totfact> 0.55323318E+01</totfact>
</mgrwt>
</event>
<event>
 7    1  0.4230786E-006  0.3134037E+03  0.7546771E-02  0.1080172E+00
          2   -1    0    0  501    0  0.00000000000E+00  0.00000000000E+00  0.98510453071E+03  0.98510453071E+03  0.00000000000E+00 0. -1.
         -2   -1    0    0    0  501 -0.00000000000E+00 -0.00000000000E+00 -0.95969209385E+02  0.95969209385E+02  0.00000000000E+00 0.  1.
         23    2    1    2    0    0  0.10994177285E+03  0.26553647888E+03  0.44217590320E+03  0.54197913698E+03  0.12500016207E+03 0.  0.
          5    1    3    3  502    0 -0.33049113923E+01  0.13582149979E+03  0.24473513736E+03  0.27995674613E+03  0.47000000000E+01 0.  1.
         -5    1    3    3    0  502  0.11324668424E+03  0.12971497908E+03  0.19744076585E+03  0.26202239085E+03  0.47000000000E+01 0.  1.
        -11    1    1    2    0    0 -0.36177194325E+02 -0.61896519372E+02  0.18973628143E+03  0.20282954664E+03  0.00000000000E+00 0.  1.
         11    1    1    2    0    0 -0.73764578528E+02 -0.20363995951E+03  0.25722313669E+03  0.33626505647E+03  0.00000000000E+00 0. -1.
<mgrwt>
<rscale>  0 0.31036220E+03</rscale>
<asrwt>0</asrwt>
<pdfrwt beam="1">  1        2 0.15155454E+00 0.31340366E+03</pdfrwt>
<pdfrwt beam="2">  1       -2 0.14764494E-01 0.31340366E+03</pdfrwt>
<totfact> 0.94306529E+02</totfact>
</mgrwt>
</event>
<event>
 7    1  0.4230786E-006  0.1258857E+03  0.7546771E-02  0.1307749E+00
         -2   -1    0    0    0  501 -0.00000000000E+00  0.00000000000E+00  0.49266731283E+02  0.49266731283E+02  0.00000000000E+00 0.  1.
          2   -1    0    0  501    0  0.00000000000E+00 -0.00000000000E+00 -0.12501126853E+03  0.12501126853E+03  0.00000000000E+00 0. -1.
         23    2    1    2    0    0  0.44780643256E+01  0.18682112010E+02 -0.53064585120E+02  0.13661279455E+03  0.12441113724E+03 0.  0.
          5    1    3    3  502    0  0.52327919810E+02 -0.24553245070E+02 -0.98052926323E+01  0.58815871996E+02  0.47000000000E+01 0. -1.
         -5    1    3    3    0  502 -0.47849855484E+02  0.43235357081E+02 -0.43259292488E+02  0.77796922550E+02  0.47000000000E+01 0.  1.
        -11    1    1    2    0    0  0.82349652273E+01 -0.13546811041E+02 -0.15568865018E+02  0.22219817723E+02  0.00000000000E+00 0. -1.
         11    1    1    2    0    0 -0.12713029553E+02 -0.51353009695E+01 -0.71110871047E+01  0.15445387540E+02  0.00000000000E+00 0.  1.
<mgrwt>
<rscale>  0 0.88007680E+02</rscale>
<asrwt>0</asrwt>
<pdfrwt beam="2">  1        2 0.19232503E-01 0.12588568E+03</pdfrwt>
<pdfrwt beam="1">  1       -2 0.75794971E-02 0.12588568E+03</pdfrwt>
<totfact> 0.27358068E+04</totfact>
</mgrwt>
</event>
<event>
 7    1  0.4230786E-006  0.1328590E+03  0.7546771E-02  0.1235374E+00
         -3   -1    0    0    0  501 -0.00000000000E+00  0.00000000000E+00  0.11654268879E+03  0.11654268879E+03  0.00000000000E+00 0.  1.
          3   -1    0    0  501    0  0.00000000000E+00 -0.00000000000E+00 -0.12841911930E+03  0.12841911930E+03  0.00000000000E+00 0. -1.
         23    2    1    2    0    0 -0.17156316412E+02 -0.41582318019E+02  0.24881991981E+02  0.13516890483E+03  0.12501236316E+03 0.  0.
          5    1    3    3  502    0  0.26077275951E+02  0.71717806875E+01  0.56329858289E+02  0.62662602038E+02  0.47000000000E+01 0.  1.
         -5    1    3    3    0  502 -0.43233592363E+02 -0.48754098706E+02 -0.31447866308E+02  0.72506302793E+02  0.47000000000E+01 0.  1.
        -11    1    1    2    0    0 -0.34491687830E+02  0.26581137977E+02  0.18538480572E+01  0.43585205955E+02  0.00000000000E+00 0. -1.
         11    1    1    2    0    0  0.51648004242E+02  0.15001180042E+02 -0.38612270552E+02  0.66207697303E+02  0.00000000000E+00 0.  1.
<mgrwt>
<rscale>  0 0.12480529E+03</rscale>
<asrwt>0</asrwt>
<pdfrwt beam="2">  1        3 0.19756788E-01 0.13285902E+03</pdfrwt>
<pdfrwt beam="1">  1       -3 0.17929644E-01 0.13285902E+03</pdfrwt>
<totfact> 0.14299326E+03</totfact>
</mgrwt>
</event>
<event>
 7    1  0.4230786E-006  0.2435855E+03  0.7546771E-02  0.1120260E+00
         -1   -1    0    0    0  501 -0.00000000000E+00  0.00000000000E+00  0.10293040792E+03  0.10293040792E+03  0.00000000000E+00 0.  1.
          1   -1    0    0  501    0  0.00000000000E+00 -0.00000000000E+00 -0.72237859098E+03  0.72237859098E+03  0.00000000000E+00 0. -1.
         23    2    1    2    0    0 -0.18081491808E+02 -0.20830581301E+03 -0.10930821192E+03  0.26698727556E+03  0.12496266657E+03 0.  0.
          5    1    3    3  502    0  0.38088306299E+02 -0.17629173667E+02 -0.34548921782E+02  0.54563951811E+02  0.47000000000E+01 0. -1.
         -5    1    3    3    0  502 -0.56169798107E+02 -0.19067663934E+03 -0.74759290142E+02  0.21242332375E+03  0.47000000000E+01 0. -1.
        -11    1    1    2    0    0  0.51404432909E+02  0.15623862461E+03 -0.38823110355E+03  0.42163528470E+03  0.00000000000E+00 0. -1.
         11    1    1    2    0    0 -0.33322941101E+02  0.52067188399E+02 -0.12190886758E+03  0.13668643864E+03  0.00000000000E+00 0.  1.
<mgrwt>
<rscale>  0 0.23930063E+03</rscale>
<asrwt>0</asrwt>
<pdfrwt beam="2">  1        1 0.11113517E+00 0.24358555E+03</pdfrwt>
<pdfrwt beam="1">  1       -1 0.15835448E-01 0.24358555E+03</pdfrwt>
<totfact> 0.79571648E+02</totfact>
</mgrwt>
</event>
<event>
 7    1  0.4230786E-006  0.1502571E+03  0.7546771E-02  0.1201342E+00
         -1   -1    0    0    0  501 -0.00000000000E+00  0.00000000000E+00  0.10914666841E+03  0.10914666841E+03  0.00000000000E+00 0.  1.
          1   -1    0    0  501    0  0.00000000000E+00 -0.00000000000E+00 -0.26899532178E+03  0.26899532178E+03  0.00000000000E+00 0. -1.
         23    2    1    2    0    0 -0.77484622912E+02 -0.57945194416E+02  0.13911910019E+02  0.15089977690E+03  0.11495951063E+03 0.  0.
          5    1    3    3  502    0 -0.30036793283E+02  0.15206041717E+02  0.46585015902E+02  0.57668764180E+02  0.47000000000E+01 0. -1.
         -5    1    3    3    0  502 -0.47447829629E+02 -0.73151236134E+02 -0.32673105883E+02  0.93231012718E+02  0.47000000000E+01 0.  1.
        -11    1    1    2    0    0 -0.13735204581E+02  0.19356576955E+02 -0.10253302718E+03  0.10524426150E+03  0.00000000000E+00 0. -1.
         11    1    1    2    0    0  0.91219827493E+02  0.38588617462E+02 -0.71227536205E+02  0.12199795178E+03  0.00000000000E+00 0.  1.
<mgrwt>
<rscale>  0 0.14929502E+03</rscale>
<asrwt>0</asrwt>
<pdfrwt beam="2">  1        1 0.41383896E-01 0.15025712E+03</pdfrwt>
<pdfrwt beam="1">  1       -1 0.16791795E-01 0.15025712E+03</pdfrwt>
<totfact> 0.26318598E+03</totfact>
</mgrwt>
</event>
<event>
 7    1  0.4230786E-006  0.1269006E+03  0.7546771E-02  0.1244694E+00
         -1   -1    0    0    0  501 -0.00000000000E+00  0.00000000000E+00  0.23849748575E+02  0.23849748575E+02  0.00000000000E+00 0.  1.
          1   -1    0    0  501    0  0.00000000000E+00 -0.00000000000E+00 -0.57911764332E+03  0.57911764332E+03  0.00000000000E+00 0. -1.
         23    2    1    2    0    0  0.13217430855E+02  0.17467588560E+02 -0.22414130354E+03  0.25757153338E+03  0.12499581484E+03 0.  0.
          5    1    3    3  502    0 -0.39086042359E+02  0.45106573927E+02 -0.15664924557E+03  0.16770032158E+03  0.47000000000E+01 0. -1.
         -5    1    3    3    0  502  0.52303473214E+02 -0.27638985367E+02 -0.67492057964E+02  0.89871211801E+02  0.47000000000E+01 0. -1.
        -11    1    1    2    0    0 -0.44684621261E+02  0.17303671552E+02 -0.12194144189E+03  0.13101850128E+03  0.00000000000E+00 0. -1.
         11    1    1    2    0    0  0.31467190407E+02 -0.34771260112E+02 -0.20918514932E+03  0.21437735724E+03  0.00000000000E+00 0.  1.
<mgrwt>
<rscale>  0 0.11903737E+03</rscale>
<asrwt>0</asrwt>
<pdfrwt beam="2">  1        1 0.89095013E-01 0.12690063E+03</pdfrwt>
<pdfrwt beam="1">  1       -1 0.36691925E-02 0.12690063E+03</pdfrwt>
<totfact> 0.98248982E+03</totfact>
</mgrwt>
</event>
<event>
 7    1  0.4230786E-006  0.1335206E+03  0.7546771E-02  0.1234997E+00
         -2   -1    0    0    0  501 -0.00000000000E+00  0.00000000000E+00  0.82835865454E+02  0.82835865454E+02  0.00000000000E+00 0.  1.
          2   -1    0    0  501    0  0.00000000000E+00 -0.00000000000E+00 -0.20759234638E+03  0.20759234638E+03  0.00000000000E+00 0. -1.
         23    2    1    2    0    0  0.38209407579E+02 -0.27399841733E+02 -0.63418002555E+01  0.13367115937E+03  0.12496819701E+03 0.  0.
          5    1    3    3  502    0 -0.14723995722E+02  0.33620129788E+02  0.27357545242E+02  0.46017762426E+02  0.47000000000E+01 0. -1.
         -5    1    3    3    0  502  0.52933403302E+02 -0.61019971521E+02 -0.33699345497E+02  0.87653396948E+02  0.47000000000E+01 0. -1.
        -11    1    1    2    0    0  0.17286728085E+02 -0.24447857517E+01  0.50224731557E+01  0.18166815402E+02  0.00000000000E+00 0.  1.
         11    1    1    2    0    0 -0.55496135664E+02  0.29844627484E+02 -0.12343715383E+03  0.13859023706E+03  0.00000000000E+00 0. -1.
<mgrwt>
<rscale>  0 0.12504653E+03</rscale>
<asrwt>0</asrwt>
<pdfrwt beam="2">  1        2 0.31937284E-01 0.13352064E+03</pdfrwt>
<pdfrwt beam="1">  1       -2 0.12743979E-01 0.13352064E+03</pdfrwt>
<totfact> 0.69579977E+03</totfact>
</mgrwt>
</event>
<event>
 7    1  0.4230786E-006  0.1411561E+03  0.7546771E-02  0.1222690E+00
          1   -1    0    0  501    0  0.00000000000E+00  0.00000000000E+00  0.21111805463E+02  0.21111805463E+02  0.00000000000E+00 0. -1.
         -1   -1    0    0    0  501 -0.00000000000E+00 -0.00000000000E+00 -0.87729611021E+03  0.87729611021E+03  0.00000000000E+00 0.  1.
         23    2    1    2    0    0 -0.27482187086E+02  0.59508155847E+02 -0.63404894419E+03  0.64957148893E+03  0.12501425674E+03 0.  0.
          5    1    3    3  502    0  0.29280467048E+02  0.73749528756E+02 -0.42812551345E+03  0.43544217068E+03  0.47000000000E+01 0.  1.
         -5    1    3    3    0  502 -0.56762654135E+02 -0.14241372909E+02 -0.20592343074E+03  0.21412931825E+03  0.47000000000E+01 0.  1.
        -11    1    1    2    0    0 -0.24885225215E+02 -0.37217217420E+02 -0.15231264950E+03  0.15875622477E+03  0.00000000000E+00 0. -1.
         11    1    1    2    0    0  0.52367412301E+02 -0.22290938427E+02 -0.69822711061E+02  0.90080201970E+02  0.00000000000E+00 0.  1.
<mgrwt>
<rscale>  0 0.13326474E+03</rscale>
<asrwt>0</asrwt>
<pdfrwt beam="1">  1        1 0.32479698E-02 0.14115614E+03</pdfrwt>
<pdfrwt beam="2">  1       -1 0.13496864E+00 0.14115614E+03</pdfrwt>
<totfact> 0.14763253E+03</totfact>
</mgrwt>
</event>
<event>
 7    1  0.4230786E-006  0.1473374E+03  0.7546771E-02  0.1213512E+00
         -1   -1    0    0    0  501 -0.00000000000E+00  0.00000000000E+00  0.39365288362E+02  0.39365288362E+02  0.00000000000E+00 0.  1.
          1   -1    0    0  501    0  0.00000000000E+00 -0.00000000000E+00 -0.47438053832E+03  0.47438053832E+03  0.00000000000E+00 0. -1.
         23    2    1    2    0    0  0.11432471290E+02 -0.77149283431E+02 -0.18437448622E+03  0.23601329481E+03  0.12500244328E+03 0.  0.
          5    1    3    3  502    0 -0.18516523485E+02 -0.19311169863E+02  0.11531712347E+02  0.29510223875E+02  0.47000000000E+01 0.  1.
         -5    1    3    3    0  502  0.29948994775E+02 -0.57838113568E+02 -0.19590619857E+03  0.20650307094E+03  0.47000000000E+01 0.  1.
        -11    1    1    2    0    0  0.16652137038E+02  0.64666511393E+02 -0.23281764037E+03  0.24220467591E+03  0.00000000000E+00 0. -1.
         11    1    1    2    0    0 -0.28084608327E+02  0.12482772038E+02 -0.17823123364E+02  0.35527855959E+02  0.00000000000E+00 0.  1.
<mgrwt>
<rscale>  0 0.13986438E+03</rscale>
<asrwt>0</asrwt>
<pdfrwt beam="2">  1        1 0.72981626E-01 0.14733745E+03</pdfrwt>
<pdfrwt beam="1">  1       -1 0.60561978E-02 0.14733745E+03</pdfrwt>
<totfact> 0.61543978E+03</totfact>
</mgrwt>
</event>
<event>
 7    1  0.4230786E-006  0.1689469E+03  0.7546771E-02  0.1186121E+00
         -2   -1    0    0    0  501 -0.00000000000E+00  0.00000000000E+00  0.37997511023E+03  0.37997511023E+03  0.00000000000E+00 0. -1.
          2   -1    0    0  501    0  0.00000000000E+00 -0.00000000000E+00 -0.68275034109E+02  0.68275034109E+02  0.00000000000E+00 0.  1.
         23    2    1    2    0    0  0.91850178641E+02  0.66941791347E+02  0.22089728635E+03  0.27809828190E+03  0.12500153813E+03 0.  0.
          5    1    3    3  502    0  0.68299236048E+02  0.27476933314E+02  0.26653450866E+02  0.78436368811E+02  0.47000000000E+01 0. -1.
         -5    1    3    3    0  502  0.23550942593E+02  0.39464858033E+02  0.19424383548E+03  0.19966191309E+03  0.47000000000E+01 0. -1.
        -11    1    1    2    0    0  0.21101492998E+01 -0.35876079541E+02  0.14054219707E+00  0.35938357856E+02  0.00000000000E+00 0.  1.
         11    1    1    2    0    0 -0.93960327941E+02 -0.31065711806E+02  0.90662247580E+02  0.13421350459E+03  0.00000000000E+00 0. -1.
<mgrwt>
<rscale>  0 0.16230278E+03</rscale>
<asrwt>0</asrwt>
<pdfrwt beam="2">  1        2 0.10503852E-01 0.16894687E+03</pdfrwt>
<pdfrwt beam="1">  1       -2 0.58457708E-01 0.16894687E+03</pdfrwt>
<totfact> 0.16474228E+03</totfact>
</mgrwt>
</event>
<event>
 7    1  0.4230786E-006  0.1423196E+03  0.7546771E-02  0.1220176E+00
         -1   -1    0    0    0  501 -0.00000000000E+00  0.00000000000E+00  0.62446556331E+02  0.62446556331E+02  0.00000000000E+00 0.  1.
          1   -1    0    0  501    0  0.00000000000E+00 -0.00000000000E+00 -0.27210585054E+03  0.27210585054E+03  0.00000000000E+00 0. -1.
         23    2    1    2    0    0 -0.66282988552E+02 -0.20908335127E+02 -0.90147763904E+02  0.16846802705E+03  0.12419445942E+03 0.  0.
          5    1    3    3  502    0  0.27421072359E+02  0.14521576815E+02 -0.52855524778E+02  0.61470219636E+02  0.47000000000E+01 0. -1.
         -5    1    3    3    0  502 -0.93704060911E+02 -0.35429911942E+02 -0.37292239126E+02  0.10699780741E+03  0.47000000000E+01 0.  1.
        -11    1    1    2    0    0  0.55420958834E+02 -0.98890235513E+01 -0.17470153329E+02  0.58944734474E+02  0.00000000000E+00 0.  1.
         11    1    1    2    0    0  0.10862029718E+02  0.30797358678E+02 -0.10204137698E+03  0.10713964536E+03  0.00000000000E+00 0. -1.
<mgrwt>
<rscale>  0 0.13503117E+03</rscale>
<asrwt>0</asrwt>
<pdfrwt beam="2">  1        1 0.41862437E-01 0.14231956E+03</pdfrwt>
<pdfrwt beam="1">  1       -1 0.96071628E-02 0.14231956E+03</pdfrwt>
<totfact> 0.61573991E+03</totfact>
</mgrwt>
</event>
<event>
 6    1  0.4230786E-006  0.3032133E+03  0.7546771E-02  0.1109392E+00
         -2   -1    0    0    0  501 -0.00000000000E+00  0.00000000000E+00  0.36291027261E+03  0.36291027261E+03  0.00000000000E+00 0.  1.
          2   -1    0    0  501    0  0.00000000000E+00 -0.00000000000E+00 -0.17210274938E+03  0.17210274938E+03  0.00000000000E+00 0. -1.
          5    1    1    2  502    0  0.14104860080E+03 -0.13814140180E+03  0.91834859653E+02  0.21779230043E+03  0.47000000000E+01 0. -1.
         -5    1    1    2    0  502 -0.55110600898E+02  0.69558258617E+02  0.13184048707E+03  0.15899538894E+03  0.47000000000E+01 0.  1.
        -11    1    1    2    0    0  0.13371586134E+02  0.32911262212E+02  0.19391220950E+02  0.40471841397E+02  0.00000000000E+00 0.  1.
         11    1    1    2    0    0 -0.99309586040E+02  0.35671880968E+02 -0.52259044443E+02  0.11775349123E+03  0.00000000000E+00 0. -1.
<mgrwt>
<rscale>  0 0.25629233E+03</rscale>
<asrwt>0</asrwt>
<pdfrwt beam="2">  1        2 0.26477346E-01 0.30321329E+03</pdfrwt>
<pdfrwt beam="1">  1       -2 0.55832350E-01 0.30321329E+03</pdfrwt>
<totfact> 0.62086440E+02</totfact>
</mgrwt>
</event>
<event>
 7    1  0.4230786E-006  0.1376474E+03  0.7546771E-02  0.1240091E+00
          2   -1    0    0  501    0  0.00000000000E+00  0.00000000000E+00  0.37626184699E+03  0.37626184699E+03  0.00000000000E+00 0. -1.
         -2   -1    0    0    0  501 -0.00000000000E+00 -0.00000000000E+00 -0.46896399135E+02  0.46896399135E+02  0.00000000000E+00 0.  1.
         23    2    1    2    0    0  0.49133611151E+02 -0.29902172244E+02  0.78533210298E+02  0.15847485536E+03  0.12505424029E+03 0.  0.
          5    1    3    3  502    0  0.77844458201E+02 -0.69419704629E+01  0.78787694374E+01  0.78689997042E+02  0.47000000000E+01 0. -1.
         -5    1    3    3    0  502 -0.28710847051E+02 -0.22960201781E+02  0.70654440861E+02  0.79784858323E+02  0.47000000000E+01 0. -1.
        -11    1    1    2    0    0 -0.62200414581E+02  0.33167126396E+02  0.22055013510E+03  0.23154116683E+03  0.00000000000E+00 0. -1.
         11    1    1    2    0    0  0.13066803430E+02 -0.32649541520E+01  0.30282102457E+02  0.33142223925E+02  0.00000000000E+00 0.  1.
<mgrwt>
<rscale>  0 0.12184061E+03</rscale>
<asrwt>0</asrwt>
<pdfrwt beam="1">  1        2 0.57886436E-01 0.13764743E+03</pdfrwt>
<pdfrwt beam="2">  1       -2 0.72148309E-02 0.13764743E+03</pdfrwt>
<totfact> 0.90289638E+03</totfact>
</mgrwt>
</event>
<event>
 6    1  0.4230786E-006  0.2092498E+03  0.7546771E-02  0.1162423E+00
         -1   -1    0    0    0  501 -0.00000000000E+00  0.00000000000E+00  0.34592056783E+02  0.34592056783E+02  0.00000000000E+00 0.  1.
          1   -1    0    0  501    0  0.00000000000E+00 -0.00000000000E+00 -0.90873997304E+03  0.90873997304E+03  0.00000000000E+00 0. -1.
          5    1    1    2  502    0 -0.90568302362E+00  0.11329503033E+03 -0.14338698017E+03  0.18280727623E+03  0.47000000000E+01 0.  1.
         -5    1    1    2    0  502 -0.64088175062E+02 -0.48275025931E+02 -0.25242939174E+03  0.26491594917E+03  0.47000000000E+01 0. -1.
        -11    1    1    2    0    0  0.74758930753E+02 -0.80979555468E+02 -0.42627887455E+03  0.44029565637E+03  0.00000000000E+00 0. -1.
         11    1    1    2    0    0 -0.97650726680E+01  0.15959551065E+02 -0.52052669793E+02  0.55313148048E+02  0.00000000000E+00 0.  1.
<mgrwt>
<rscale>  0 0.18567341E+03</rscale>
<asrwt>0</asrwt>
<pdfrwt beam="2">  1        1 0.13980614E+00 0.20924982E+03</pdfrwt>
<pdfrwt beam="1">  1       -1 0.53218553E-02 0.20924982E+03</pdfrwt>
<totfact> 0.29922124E+03</totfact>
</mgrwt>
</event>
<event>
 7    1  0.4230786E-006  0.1595812E+03  0.7546771E-02  0.1196362E+00
          2   -1    0    0  501    0  0.00000000000E+00  0.00000000000E+00  0.12076091753E+03  0.12076091753E+03  0.00000000000E+00 0. -1.
         -2   -1    0    0    0  501 -0.00000000000E+00 -0.00000000000E+00 -0.19460099563E+03  0.19460099563E+03  0.00000000000E+00 0.  1.
         23    2    1    2    0    0 -0.52584043578E+02  0.84119315657E+02  0.16852225658E+01  0.15959012529E+03  0.12500010883E+03 0.  0.
          5    1    3    3  502    0 -0.76545291222E+02  0.39466966984E+02 -0.38784384655E+02  0.94568184842E+02  0.47000000000E+01 0. -1.
         -5    1    3    3    0  502  0.23961247644E+02  0.44652348673E+02  0.40469607221E+02  0.65021940445E+02  0.47000000000E+01 0. -1.
        -11    1    1    2    0    0 -0.17400178457E+00  0.15633435820E+02 -0.30503896240E+02  0.34277139291E+02  0.00000000000E+00 0. -1.
         11    1    1    2    0    0  0.52758045363E+02 -0.99752751478E+02 -0.45021404430E+02  0.12149464858E+03  0.00000000000E+00 0.  1.
<mgrwt>
<rscale>  0 0.15339488E+03</rscale>
<asrwt>0</asrwt>
<pdfrwt beam="1">  1        2 0.18578603E-01 0.15958123E+03</pdfrwt>
<pdfrwt beam="2">  1       -2 0.29938614E-01 0.15958123E+03</pdfrwt>
<totfact> 0.30168250E+03</totfact>
</mgrwt>
</event>
<event>
 6    1  0.4230786E-006  0.2001604E+03  0.7546771E-02  0.1166783E+00
          4   -1    0    0  501    0  0.00000000000E+00  0.00000000000E+00  0.19674728728E+03  0.19674728728E+03  0.00000000000E+00 0. -1.
         -4   -1    0    0    0  501 -0.00000000000E+00 -0.00000000000E+00 -0.16191681824E+03  0.16191681824E+03  0.00000000000E+00 0.  1.
          5    1    1    2  502    0  0.43673060723E+02  0.79444587695E+02  0.46470815857E+02  0.10198237825E+03  0.47000000000E+01 0. -1.
         -5    1    1    2    0  502  0.42124691986E+02 -0.30872993908E+02 -0.88003067845E+02  0.10244150222E+03  0.47000000000E+01 0.  1.
        -11    1    1    2    0    0 -0.48465852952E+02  0.13192996770E+01 -0.82275824356E+01  0.49176951580E+02  0.00000000000E+00 0. -1.
         11    1    1    2    0    0 -0.37331899757E+02 -0.49890893464E+02  0.84590303472E+02  0.10506327347E+03  0.00000000000E+00 0.  1.
<mgrwt>
<rscale>  0 0.18105823E+03</rscale>
<asrwt>0</asrwt>
<pdfrwt beam="1">  1        4 0.30268813E-01 0.20016042E+03</pdfrwt>
<pdfrwt beam="2">  1       -4 0.24910280E-01 0.20016042E+03</pdfrwt>
<totfact> 0.28039836E+02</totfact>
</mgrwt>
</event>
<event>
 7    1  0.4230786E-006  0.1253765E+03  0.7546771E-02  0.1249619E+00
         -2   -1    0    0    0  501 -0.00000000000E+00  0.00000000000E+00  0.27587704256E+02  0.27587704256E+02  0.00000000000E+00 0.  1.
          2   -1    0    0  501    0  0.00000000000E+00 -0.00000000000E+00 -0.49918988577E+03  0.49918988577E+03  0.00000000000E+00 0. -1.
         23    2    1    2    0    0  0.96877122780E+01  0.37488692979E+00 -0.16909176383E+03  0.21050247555E+03  0.12500110123E+03 0.  0.
          5    1    3    3  502    0  0.66654528571E+02 -0.41493222282E+01 -0.10476880372E+03  0.12433276031E+03  0.47000000000E+01 0. -1.
         -5    1    3    3    0  502 -0.56966816293E+02  0.45242091580E+01 -0.64322960110E+02  0.86169715239E+02  0.47000000000E+01 0. -1.
        -11    1    1    2    0    0 -0.31970349464E+02  0.36690492960E+02 -0.17435145440E+03  0.18101581469E+03  0.00000000000E+00 0. -1.
         11    1    1    2    0    0  0.22282637186E+02 -0.37065379890E+02 -0.12815896328E+03  0.13525929978E+03  0.00000000000E+00 0.  1.
<mgrwt>
<rscale>  0 0.11613161E+03</rscale>
<asrwt>0</asrwt>
<pdfrwt beam="2">  1        2 0.76798438E-01 0.12537650E+03</pdfrwt>
<pdfrwt beam="1">  1       -2 0.42442625E-02 0.12537650E+03</pdfrwt>
<totfact> 0.14724791E+04</totfact>
</mgrwt>
</event>
<event>
 7    1  0.4230786E-006  0.1651913E+03  0.7546771E-02  0.1189794E+00
          2   -1    0    0  501    0  0.00000000000E+00  0.00000000000E+00  0.39745155581E+02  0.39745155581E+02  0.00000000000E+00 0. -1.
         -2   -1    0    0    0  501 -0.00000000000E+00 -0.00000000000E+00 -0.59966347290E+03  0.59966347290E+03  0.00000000000E+00 0.  1.
         23    2    1    2    0    0 -0.63358640012E+02  0.87482840283E+02 -0.33412487822E+03  0.37272994526E+03  0.12498245174E+03 0.  0.
          5    1    3    3  502    0 -0.29334528197E+02  0.11465574607E+03 -0.20990919422E+03  0.24101953131E+03  0.47000000000E+01 0. -1.
         -5    1    3    3    0  502 -0.34024111815E+02 -0.27172905790E+02 -0.12421568400E+03  0.13171041396E+03  0.47000000000E+01 0. -1.
        -11    1    1    2    0    0  0.86970396061E+02 -0.64105533329E+02 -0.18280056556E+03  0.21234268522E+03  0.00000000000E+00 0. -1.
         11    1    1    2    0    0 -0.23611756049E+02 -0.23377306953E+02 -0.42992873537E+02  0.54335998004E+02  0.00000000000E+00 0.  1.
<mgrwt>
<rscale>  0 0.15903180E+03</rscale>
<asrwt>0</asrwt>
<pdfrwt beam="1">  1        2 0.61146393E-02 0.16519134E+03</pdfrwt>
<pdfrwt beam="2">  1       -2 0.92255919E-01 0.16519134E+03</pdfrwt>
<totfact> 0.12183381E+03</totfact>
</mgrwt>
</event>
<event>
 7    1  0.4230786E-006  0.1963610E+03  0.7546771E-02  0.1157176E+00
         -2   -1    0    0    0  501 -0.00000000000E+00  0.00000000000E+00  0.43345599466E+02  0.43345599466E+02  0.00000000000E+00 0.  1.
          2   -1    0    0  501    0  0.00000000000E+00 -0.00000000000E+00 -0.95242711534E+03  0.95242711534E+03  0.00000000000E+00 0. -1.
         23    2    1    2    0    0 -0.10553634861E+03 -0.10860230825E+03 -0.27880810539E+03  0.34101553434E+03  0.12500101118E+03 0.  0.
          5    1    3    3  502    0 -0.10629905390E+03 -0.10813041165E+03 -0.29086213982E+03  0.32804656554E+03  0.47000000000E+01 0. -1.
         -5    1    3    3    0  502  0.76270528858E+00 -0.47189659801E+00  0.12054034429E+02  0.12968968802E+02  0.47000000000E+01 0. -1.
        -11    1    1    2    0    0  0.10204989938E+03  0.45108230240E+02 -0.44894440048E+03  0.46260135011E+03  0.00000000000E+00 0.  1.
         11    1    1    2    0    0  0.34864492259E+01  0.63494078007E+02 -0.18132901001E+03  0.19215583036E+03  0.00000000000E+00 0. -1.
<mgrwt>
<rscale>  0 0.19143237E+03</rscale>
<asrwt>0</asrwt>
<pdfrwt beam="2">  1        2 0.14652724E+00 0.19636098E+03</pdfrwt>
<pdfrwt beam="1">  1       -2 0.66685543E-02 0.19636098E+03</pdfrwt>
<totfact> 0.35020435E+03</totfact>
</mgrwt>
</event>
<event>
 7    1  0.4230786E-006  0.2417980E+03  0.7546771E-02  0.1121077E+00
          1   -1    0    0  501    0  0.00000000000E+00  0.00000000000E+00  0.14816591322E+03  0.14816591322E+03  0.00000000000E+00 0. -1.
         -1   -1    0    0    0  501 -0.00000000000E+00 -0.00000000000E+00 -0.39146862790E+03  0.39146862790E+03  0.00000000000E+00 0.  1.
         23    2    1    2    0    0 -0.12595672421E+03 -0.16423622244E+03 -0.18651173573E+03  0.30537337089E+03  0.12501053935E+03 0.  0.
          5    1    3    3  502    0 -0.11064227684E+03 -0.16638209363E+03 -0.20115290170E+03  0.28356532645E+03  0.47000000000E+01 0. -1.
         -5    1    3    3    0  502 -0.15314447370E+02  0.21458711882E+01  0.14641165967E+02  0.21808044440E+02  0.47000000000E+01 0. -1.
        -11    1    1    2    0    0 -0.32965902155E+00  0.38907829831E+02  0.15942593289E+02  0.42048711966E+02  0.00000000000E+00 0. -1.
         11    1    1    2    0    0  0.12628638323E+03  0.12532839261E+03 -0.72733572238E+02  0.19221245827E+03  0.00000000000E+00 0.  1.
<mgrwt>
<rscale>  0 0.23808199E+03</rscale>
<asrwt>0</asrwt>
<pdfrwt beam="1">  1        1 0.22794756E-01 0.24179799E+03</pdfrwt>
<pdfrwt beam="2">  1       -1 0.60225943E-01 0.24179799E+03</pdfrwt>
<totfact> 0.62310420E+02</totfact>
</mgrwt>
</event>
<event>
 7    1  0.4230786E-006  0.1337143E+03  0.7546771E-02  0.1235130E+00
          2   -1    0    0  501    0  0.00000000000E+00  0.00000000000E+00  0.23400136756E+03  0.23400136756E+03  0.00000000000E+00 0. -1.
         -2   -1    0    0    0  501 -0.00000000000E+00 -0.00000000000E+00 -0.89375416793E+02  0.89375416793E+02  0.00000000000E+00 0.  1.
         23    2    1    2    0    0  0.47093698960E+02  0.62883754630E+01 -0.14365725636E+02  0.13448380987E+03  0.12498864307E+03 0.  0.
          5    1    3    3  502    0  0.16067207190E+02  0.64833589106E+02 -0.11928312184E+02  0.68014145990E+02  0.47000000000E+01 0.  1.
         -5    1    3    3    0  502  0.31026491770E+02 -0.58545213643E+02 -0.24374134516E+01  0.66469663880E+02  0.47000000000E+01 0.  1.
        -11    1    1    2    0    0 -0.15980172166E+02  0.11617679178E+02 -0.55172643024E+01  0.20512839329E+02  0.00000000000E+00 0.  1.
         11    1    1    2    0    0 -0.31113526794E+02 -0.17906054641E+02  0.16450894070E+03  0.16838013515E+03  0.00000000000E+00 0. -1.
<mgrwt>
<rscale>  0 0.12496089E+03</rscale>
<asrwt>0</asrwt>
<pdfrwt beam="1">  1        2 0.36000210E-01 0.13371433E+03</pdfrwt>
<pdfrwt beam="2">  1       -2 0.13750064E-01 0.13371433E+03</pdfrwt>
<totfact> 0.54142417E+03</totfact>
</mgrwt>
</event>
<event>
 7    1  0.4230786E-006  0.1279178E+03  0.7546771E-02  0.1245510E+00
         -1   -1    0    0    0  501 -0.00000000000E+00  0.00000000000E+00  0.11038781902E+02  0.11038781902E+02  0.00000000000E+00 0.  1.
          1   -1    0    0  501    0  0.00000000000E+00 -0.00000000000E+00 -0.11269508994E+04  0.11269508994E+04  0.00000000000E+00 0. -1.
         23    2    1    2    0    0 -0.27209247666E+02 -0.31978796158E+00 -0.59424918464E+03  0.60786104800E+03  0.12499005882E+03 0.  0.
          5    1    3    3  502    0 -0.64910096620E+02  0.23934379182E+02 -0.48098194538E+03  0.48595462435E+03  0.47000000000E+01 0. -1.
         -5    1    3    3    0  502  0.37700848954E+02 -0.24254167143E+02 -0.11326723926E+03  0.12190642364E+03  0.47000000000E+01 0. -1.
        -11    1    1    2    0    0  0.56771046917E+02  0.18352105024E+02 -0.32009580258E+03  0.32560877500E+03  0.00000000000E+00 0.  1.
         11    1    1    2    0    0 -0.29561799252E+02 -0.18032317062E+02 -0.20156713032E+03  0.20451985835E+03  0.00000000000E+00 0. -1.
<mgrwt>
<rscale>  0 0.11854883E+03</rscale>
<asrwt>0</asrwt>
<pdfrwt beam="2">  1        1 0.17337703E+00 0.12791779E+03</pdfrwt>
<pdfrwt beam="1">  1       -1 0.16982745E-02 0.12791779E+03</pdfrwt>
<totfact> 0.10815318E+04</totfact>
</mgrwt>
</event>
<event>
 7    1  0.4230786E-006  0.1373028E+03  0.7546771E-02  0.1229147E+00
         -1   -1    0    0    0  501 -0.00000000000E+00  0.00000000000E+00  0.21054002722E+02  0.21054002722E+02  0.00000000000E+00 0.  1.
          1   -1    0    0  501    0  0.00000000000E+00 -0.00000000000E+00 -0.72832665804E+03  0.72832665804E+03  0.00000000000E+00 0. -1.
         23    2    1    2    0    0  0.56602529872E+02 -0.48141360834E+01 -0.33185842511E+03  0.35914074683E+03  0.12500015769E+03 0.  0.
          5    1    3    3  502    0  0.57529650387E+02  0.93649807534E+01 -0.33795750615E+03  0.34297919689E+03  0.47000000000E+01 0. -1.
         -5    1    3    3    0  502 -0.92712051512E+00 -0.14179116837E+02  0.60990810427E+01  0.16161549935E+02  0.47000000000E+01 0. -1.
        -11    1    1    2    0    0 -0.78989272515E+02  0.17302450155E+02 -0.28005409481E+03  0.29149438412E+03  0.00000000000E+00 0.  1.
         11    1    1    2    0    0  0.22386742644E+02 -0.12488314072E+02 -0.95360135409E+02  0.98745529822E+02  0.00000000000E+00 0. -1.
<mgrwt>
<rscale>  0 0.12886664E+03</rscale>
<asrwt>0</asrwt>
<pdfrwt beam="2">  1        1 0.11205025E+00 0.13730281E+03</pdfrwt>
<pdfrwt beam="1">  1       -1 0.32390776E-02 0.13730281E+03</pdfrwt>
<totfact> 0.86068394E+03</totfact>
</mgrwt>
</event>
<event>
 6    1  0.4230786E-006  0.1529287E+03  0.7546771E-02  0.1215431E+00
         -4   -1    0    0    0  501 -0.00000000000E+00  0.00000000000E+00  0.40047389998E+02  0.40047389998E+02  0.00000000000E+00 0.  1.
          4   -1    0    0  501    0  0.00000000000E+00 -0.00000000000E+00 -0.54337366146E+03  0.54337366146E+03  0.00000000000E+00 0. -1.
          5    1    1    2  502    0  0.17476725231E+01 -0.51545474346E+02 -0.72582138676E+02  0.89164158380E+02  0.47000000000E+01 0. -1.
         -5    1    1    2    0  502 -0.18589317219E+02  0.95791019405E+02 -0.72718991138E+02  0.12178515421E+03  0.47000000000E+01 0.  1.
        -11    1    1    2    0    0  0.35763825446E+02  0.16066548953E+02 -0.15139154413E+03  0.15638601229E+03  0.00000000000E+00 0.  1.
         11    1    1    2    0    0 -0.18922180751E+02 -0.60312094011E+02 -0.20663359752E+03  0.21608572658E+03  0.00000000000E+00 0. -1.
<mgrwt>
<rscale>  0 0.13844899E+03</rscale>
<asrwt>0</asrwt>
<pdfrwt beam="2">  1        4 0.83595948E-01 0.15292872E+03</pdfrwt>
<pdfrwt beam="1">  1       -4 0.61611369E-02 0.15292872E+03</pdfrwt>
<totfact> 0.37255575E+02</totfact>
</mgrwt>
</event>
<event>
 7    1  0.4230786E-006  0.1400386E+03  0.7546771E-02  0.1224402E+00
          1   -1    0    0  501    0  0.00000000000E+00  0.00000000000E+00  0.35474295878E+02  0.35474295878E+02  0.00000000000E+00 0. -1.
         -1   -1    0    0    0  501 -0.00000000000E+00 -0.00000000000E+00 -0.52671052879E+03  0.52671052879E+03  0.00000000000E+00 0.  1.
         23    2    1    2    0    0  0.41423891321E+02  0.47663716470E+02 -0.38081009410E+03  0.40574269900E+03  0.12499216527E+03 0.  0.
          5    1    3    3  502    0  0.19250776052E+02 -0.42241363265E+02 -0.10946994950E+03  0.11899867643E+03  0.47000000000E+01 0. -1.
         -5    1    3    3    0  502  0.22173115269E+02  0.89905079735E+02 -0.27134014461E+03  0.28674402257E+03  0.47000000000E+01 0. -1.
        -11    1    1    2    0    0  0.16817588740E+01 -0.62247454270E+02 -0.45349832763E+02  0.77033636859E+02  0.00000000000E+00 0. -1.
         11    1    1    2    0    0 -0.43105650195E+02  0.14583737800E+02 -0.65076306040E+02  0.79408488808E+02  0.00000000000E+00 0.  1.
<mgrwt>
<rscale>  0 0.13207984E+03</rscale>
<asrwt>0</asrwt>
<pdfrwt beam="1">  1        1 0.54575842E-02 0.14003860E+03</pdfrwt>
<pdfrwt beam="2">  1       -1 0.81032386E-01 0.14003860E+03</pdfrwt>
<totfact> 0.22711934E+03</totfact>
</mgrwt>
</event>
<event>
 7    1  0.4230786E-006  0.1304049E+03  0.7546771E-02  0.1239715E+00
          2   -1    0    0  501    0  0.00000000000E+00  0.00000000000E+00  0.66835740935E+03  0.66835740935E+03  0.00000000000E+00 0. -1.
         -2   -1    0    0    0  501 -0.00000000000E+00 -0.00000000000E+00 -0.20683018196E+02  0.20683018196E+02  0.00000000000E+00 0.  1.
         23    2    1    2    0    0  0.36641426714E+02 -0.61839831707E+01  0.29742872218E+03  0.32476032777E+03  0.12499835965E+03 0.  0.
          5    1    3    3  502    0  0.74452322702E+02 -0.32593544046E+02  0.21916223547E+03  0.23379406093E+03  0.47000000000E+01 0.  1.
         -5    1    3    3    0  502 -0.37810895988E+02  0.26409560875E+02  0.78266486709E+02  0.90966266840E+02  0.47000000000E+01 0.  1.
        -11    1    1    2    0    0 -0.46958463738E+02  0.37811353044E+02  0.15673251808E+03  0.16792819286E+03  0.00000000000E+00 0.  1.
         11    1    1    2    0    0  0.10317037024E+02 -0.31627369873E+02  0.19351315090E+03  0.19635190691E+03  0.00000000000E+00 0. -1.
<mgrwt>
<rscale>  0 0.12207364E+03</rscale>
<asrwt>0</asrwt>
<pdfrwt beam="1">  1        2 0.10282420E+00 0.13040485E+03</pdfrwt>
<pdfrwt beam="2">  1       -2 0.31820033E-02 0.13040485E+03</pdfrwt>
<totfact> 0.16274725E+04</totfact>
</mgrwt>
</event>
<event>
 7    1  0.4230786E-006  0.1250990E+03  0.7546771E-02  0.1250189E+00
          2   -1    0    0  501    0  0.00000000000E+00  0.00000000000E+00  0.46113913732E+03  0.46113913732E+03  0.00000000000E+00 0. -1.
         -2   -1    0    0    0  501 -0.00000000000E+00 -0.00000000000E+00 -0.26626321287E+02  0.26626321287E+02  0.00000000000E+00 0.  1.
         23    2    1    2    0    0  0.36548248540E+01 -0.33720718842E+01  0.19994695189E+03  0.23585706196E+03  0.12500016597E+03 0.  0.
          5    1    3    3  502    0 -0.59707742818E+02 -0.73606541969E+01  0.81786118511E+02  0.10163785202E+03  0.47000000000E+01 0.  1.
         -5    1    3    3    0  502  0.63362567672E+02  0.39885823127E+01  0.11816083338E+03  0.13421920994E+03  0.47000000000E+01 0.  1.
        -11    1    1    2    0    0  0.38000432894E+02 -0.34601877578E+01  0.51834070037E+02  0.64364404883E+02  0.00000000000E+00 0.  1.
         11    1    1    2    0    0 -0.41655257748E+02  0.68322596420E+01  0.18273179411E+03  0.18754399177E+03  0.00000000000E+00 0. -1.
<mgrwt>
<rscale>  0 0.11580093E+03</rscale>
<asrwt>0</asrwt>
<pdfrwt beam="1">  1        2 0.70944477E-01 0.12509904E+03</pdfrwt>
<pdfrwt beam="2">  1       -2 0.40963574E-02 0.12509904E+03</pdfrwt>
<totfact> 0.16916607E+04</totfact>
</mgrwt>
</event>
<event>
 7    1  0.4230786E-006  0.1853799E+03  0.7546771E-02  0.1168333E+00
         -2   -1    0    0    0  501 -0.00000000000E+00  0.00000000000E+00  0.23853976232E+03  0.23853976232E+03  0.00000000000E+00 0.  1.
          2   -1    0    0  501    0  0.00000000000E+00 -0.00000000000E+00 -0.18242348312E+03  0.18242348312E+03  0.00000000000E+00 0. -1.
         23    2    1    2    0    0  0.11994801244E+03 -0.65978208068E+02  0.14512517778E+03  0.23542941203E+03  0.12500016478E+03 0.  0.
          5    1    3    3  502    0  0.63241054647E+02 -0.99246364150E+02  0.77453005395E+02  0.14096215746E+03  0.47000000000E+01 0.  1.
         -5    1    3    3    0  502  0.56706957795E+02  0.33268156081E+02  0.67672172389E+02  0.94467254577E+02  0.47000000000E+01 0.  1.
        -11    1    1    2    0    0 -0.55830969100E+02  0.87544785026E-02 -0.73406302294E+02  0.92225714439E+02  0.00000000000E+00 0. -1.
         11    1    1    2    0    0 -0.64117043342E+02  0.65969453590E+02 -0.15602596285E+02  0.93308118964E+02  0.00000000000E+00 0.  1.
<mgrwt>
<rscale>  0 0.17945398E+03</rscale>
<asrwt>0</asrwt>
<pdfrwt beam="2">  1        2 0.28065151E-01 0.18537986E+03</pdfrwt>
<pdfrwt beam="1">  1       -2 0.36698425E-01 0.18537986E+03</pdfrwt>
<totfact> 0.13137679E+03</totfact>
</mgrwt>
</event>
<event>
 7    1  0.4230786E-006  0.1363829E+03  0.7546771E-02  0.1229960E+00
          2   -1    0    0  501    0  0.00000000000E+00  0.00000000000E+00  0.10695574961E+03  0.10695574961E+03  0.00000000000E+00 0. -1.
         -2   -1    0    0    0  501 -0.00000000000E+00 -0.00000000000E+00 -0.18414646479E+03  0.18414646479E+03  0.00000000000E+00 0.  1.
         23    2    1    2    0    0 -0.40786465454E+02  0.36224853831E+02 -0.11429615969E+03  0.17794356122E+03  0.12499809223E+03 0.  0.
          5    1    3    3  502    0 -0.85688018022E+01  0.80041613162E+02 -0.79324909317E+02  0.11311328587E+03  0.47000000000E+01 0.  1.
         -5    1    3    3    0  502 -0.32217663652E+02 -0.43816759330E+02 -0.34971250369E+02  0.64830275349E+02  0.47000000000E+01 0.  1.
        -11    1    1    2    0    0  0.60355371330E+02 -0.52004292298E+02  0.18245250226E+02  0.81731918010E+02  0.00000000000E+00 0.  1.
         11    1    1    2    0    0 -0.19568905876E+02  0.15779438467E+02  0.18860194275E+02  0.31426735172E+02  0.00000000000E+00 0. -1.
<mgrwt>
<rscale>  0 0.12832656E+03</rscale>
<asrwt>0</asrwt>
<pdfrwt beam="1">  1        2 0.16454731E-01 0.13638291E+03</pdfrwt>
<pdfrwt beam="2">  1       -2 0.28330225E-01 0.13638291E+03</pdfrwt>
<totfact> 0.37977456E+03</totfact>
</mgrwt>
</event>
<event>
 7    1  0.4230786E-006  0.1366711E+03  0.7546771E-02  0.1228513E+00
          1   -1    0    0  501    0  0.00000000000E+00  0.00000000000E+00  0.13376521413E+03  0.13376521413E+03  0.00000000000E+00 0. -1.
         -1   -1    0    0    0  501 -0.00000000000E+00 -0.00000000000E+00 -0.26763233501E+03  0.26763233501E+03  0.00000000000E+00 0.  1.
         23    2    1    2    0    0  0.25497888671E+02 -0.49027948539E+02 -0.22211840980E+03  0.26079798327E+03  0.12500047216E+03 0.  0.
          5    1    3    3  502    0  0.14754986392E+02 -0.89795365522E+02 -0.17565302650E+03  0.19788125988E+03  0.47000000000E+01 0. -1.
         -5    1    3    3    0  502  0.10742902278E+02  0.40767416983E+02 -0.46465383290E+02  0.62916723382E+02  0.47000000000E+01 0. -1.
        -11    1    1    2    0    0  0.14008531678E+02  0.64857374014E+02  0.60479943365E+02  0.89780518339E+02  0.00000000000E+00 0.  1.
         11    1    1    2    0    0 -0.39506420349E+02 -0.15829425475E+02  0.27771345551E+02  0.50819047545E+02  0.00000000000E+00 0. -1.
<mgrwt>
<rscale>  0 0.12928986E+03</rscale>
<asrwt>0</asrwt>
<pdfrwt beam="1">  1        1 0.20579264E-01 0.13667114E+03</pdfrwt>
<pdfrwt beam="2">  1       -1 0.41174205E-01 0.13667114E+03</pdfrwt>
<totfact> 0.14161745E+03</totfact>
</mgrwt>
</event>
<event>
 7    1  0.4230786E-006  0.1466597E+03  0.7546771E-02  0.1213042E+00
         -1   -1    0    0    0  501 -0.00000000000E+00  0.00000000000E+00  0.65182297476E+02  0.65182297476E+02  0.00000000000E+00 0.  1.
          1   -1    0    0  501    0  0.00000000000E+00 -0.00000000000E+00 -0.29184538115E+03  0.29184538115E+03  0.00000000000E+00 0. -1.
         23    2    1    2    0    0  0.42314092211E+02 -0.63970665235E+02 -0.84159306695E+02  0.16909127005E+03  0.12500536106E+03 0.  0.
          5    1    3    3  502    0  0.80653283404E+02 -0.40568086677E+02 -0.84761419373E+02  0.12392461416E+03  0.47000000000E+01 0.  1.
         -5    1    3    3    0  502 -0.38339191193E+02 -0.23402578557E+02  0.60211267806E+00  0.45166655888E+02  0.47000000000E+01 0.  1.
        -11    1    1    2    0    0 -0.20741942154E+02  0.16006386632E+02  0.88906594071E+01  0.27667244207E+02  0.00000000000E+00 0.  1.
         11    1    1    2    0    0 -0.21572150057E+02  0.47964278603E+02 -0.15139443639E+03  0.16026916437E+03  0.00000000000E+00 0. -1.
<mgrwt>
<rscale>  0 0.14021378E+03</rscale>
<asrwt>0</asrwt>
<pdfrwt beam="2">  1        1 0.44899290E-01 0.14665970E+03</pdfrwt>
<pdfrwt beam="1">  1       -1 0.10028046E-01 0.14665970E+03</pdfrwt>
<totfact> 0.52975163E+03</totfact>
</mgrwt>
</event>
<event>
 7    1  0.4230786E-006  0.1318101E+03  0.7546771E-02  0.1242671E+00
          1   -1    0    0  501    0  0.00000000000E+00  0.00000000000E+00  0.15146209589E+03  0.15146209589E+03  0.00000000000E+00 0. -1.
         -1   -1    0    0    0  501 -0.00000000000E+00 -0.00000000000E+00 -0.12196687747E+03  0.12196687747E+03  0.00000000000E+00 0.  1.
         23    2    1    2    0    0 -0.41505245755E+02 -0.48252710485E+01 -0.60658421614E+02  0.14509774703E+03  0.12501177311E+03 0.  0.
          5    1    3    3  502    0  0.42078947015E+02 -0.50612520723E+01 -0.40889495280E+02  0.59078717646E+02  0.47000000000E+01 0.  1.
         -5    1    3    3    0  502 -0.83584192770E+02  0.23598102378E+00 -0.19768926334E+02  0.86019029385E+02  0.47000000000E+01 0.  1.
        -11    1    1    2    0    0 -0.16276694279E+02 -0.15101309172E+01 -0.47658219589E+01  0.17027164502E+02  0.00000000000E+00 0.  1.
         11    1    1    2    0    0  0.57781940033E+02  0.63354019657E+01  0.94919461998E+02  0.11130406182E+03  0.00000000000E+00 0. -1.
<mgrwt>
<rscale>  0 0.12025838E+03</rscale>
<asrwt>0</asrwt>
<pdfrwt beam="1">  1        1 0.23301861E-01 0.13181014E+03</pdfrwt>
<pdfrwt beam="2">  1       -1 0.18764135E-01 0.13181014E+03</pdfrwt>
<totfact> 0.44823807E+03</totfact>
</mgrwt>
</event>
<event>
 7    1  0.4230786E-006  0.1519264E+03  0.7546771E-02  0.1206836E+00
         -3   -1    0    0    0  501 -0.00000000000E+00  0.00000000000E+00  0.18398469439E+03  0.18398469439E+03  0.00000000000E+00 0.  1.
          3   -1    0    0  501    0  0.00000000000E+00 -0.00000000000E+00 -0.14716638614E+03  0.14716638614E+03  0.00000000000E+00 0. -1.
         23    2    1    2    0    0  0.12119471190E+02 -0.85484814138E+02  0.10815956483E+03  0.18649428316E+03  0.12500836434E+03 0.  0.
          5    1    3    3  502    0 -0.32524239823E+02 -0.79774266548E+02  0.21788058776E+02  0.88986343247E+02  0.47000000000E+01 0. -1.
         -5    1    3    3    0  502  0.44643711013E+02 -0.57105475901E+01  0.86371506056E+02  0.97507939908E+02  0.47000000000E+01 0. -1.
        -11    1    1    2    0    0  0.37866139400E+02  0.18530564772E+02 -0.20855120016E+02  0.47033630252E+02  0.00000000000E+00 0.  1.
         11    1    1    2    0    0 -0.49985610590E+02  0.66954249366E+02 -0.50486136568E+02  0.97623167126E+02  0.00000000000E+00 0. -1.
<mgrwt>
<rscale>  0 0.14493746E+03</rscale>
<asrwt>0</asrwt>
<pdfrwt beam="2">  1        3 0.22640983E-01 0.15192638E+03</pdfrwt>
<pdfrwt beam="1">  1       -3 0.28305338E-01 0.15192638E+03</pdfrwt>
<totfact> 0.50662682E+02</totfact>
</mgrwt>
</event>
<event>
 7    1  0.4230786E-006  0.1523983E+03  0.7546771E-02  0.1205658E+00
         -2   -1    0    0    0  501 -0.00000000000E+00  0.00000000000E+00  0.27435727666E+02  0.27435727666E+02  0.00000000000E+00 0.  1.
          2   -1    0    0  501    0  0.00000000000E+00 -0.00000000000E+00 -0.76769011781E+03  0.76769011781E+03  0.00000000000E+00 0. -1.
         23    2    1    2    0    0  0.81685391801E+02  0.30528225681E+02 -0.29731238350E+03  0.33409562759E+03  0.12498303564E+03 0.  0.
          5    1    3    3  502    0 -0.31582730039E+02  0.19011458073E+02 -0.93103391975E+02  0.10024587758E+03  0.47000000000E+01 0.  1.
         -5    1    3    3    0  502  0.11326812184E+03  0.11516767609E+02 -0.20420899152E+03  0.23384975001E+03  0.47000000000E+01 0.  1.
        -11    1    1    2    0    0 -0.57289301014E+02 -0.63260499831E+02 -0.26241452822E+03  0.27594444997E+03  0.00000000000E+00 0. -1.
         11    1    1    2    0    0 -0.24396090787E+02  0.32732274149E+02 -0.18052747842E+03  0.18508576791E+03  0.00000000000E+00 0.  1.
<mgrwt>
<rscale>  0 0.14585754E+03</rscale>
<asrwt>0</asrwt>
<pdfrwt beam="2">  1        2 0.11810617E+00 0.15239828E+03</pdfrwt>
<pdfrwt beam="1">  1       -2 0.42208814E-02 0.15239828E+03</pdfrwt>
<totfact> 0.91631649E+03</totfact>
</mgrwt>
</event>
<event>
 7    1  0.4230786E-006  0.1562944E+03  0.7546771E-02  0.1201250E+00
          2   -1    0    0  501    0  0.00000000000E+00  0.00000000000E+00  0.12451301076E+03  0.12451301076E+03  0.00000000000E+00 0. -1.
         -2   -1    0    0    0  501 -0.00000000000E+00 -0.00000000000E+00 -0.22407416708E+03  0.22407416708E+03  0.00000000000E+00 0.  1.
         23    2    1    2    0    0  0.64167663188E+02 -0.68446800457E+02 -0.14230848257E+03  0.21137559717E+03  0.12500194149E+03 0.  0.
          5    1    3    3  502    0  0.99423273520E+02 -0.39640153057E+02 -0.11861335384E+03  0.15983599958E+03  0.47000000000E+01 0. -1.
         -5    1    3    3    0  502 -0.35255610333E+02 -0.28806647399E+02 -0.23695128729E+02  0.51539597591E+02  0.47000000000E+01 0. -1.
        -11    1    1    2    0    0 -0.29957457666E+02  0.15998637549E+02  0.62854933186E+02  0.71443322285E+02  0.00000000000E+00 0. -1.
         11    1    1    2    0    0 -0.34210205522E+02  0.52448162907E+02 -0.20107606931E+02  0.65768258383E+02  0.00000000000E+00 0.  1.
<mgrwt>
<rscale>  0 0.14936975E+03</rscale>
<asrwt>0</asrwt>
<pdfrwt beam="1">  1        2 0.19155848E-01 0.15629440E+03</pdfrwt>
<pdfrwt beam="2">  1       -2 0.34472948E-01 0.15629440E+03</pdfrwt>
<totfact> 0.22497947E+03</totfact>
</mgrwt>
</event>
<event>
 7    1  0.4230786E-006  0.1309188E+03  0.7546771E-02  0.1240328E+00
         -1   -1    0    0    0  501 -0.00000000000E+00  0.00000000000E+00  0.40482220542E+03  0.40482220542E+03  0.00000000000E+00 0.  1.
          1   -1    0    0  501    0  0.00000000000E+00 -0.00000000000E+00 -0.33687529463E+02  0.33687529463E+02  0.00000000000E+00 0. -1.
         23    2    1    2    0    0  0.23016709299E+02  0.31366304360E+02  0.25560243207E+03  0.28717996126E+03  0.12500445159E+03 0.  0.
          5    1    3    3  502    0  0.57620561235E+02  0.10757079845E+01  0.22360052554E+03  0.23095577769E+03  0.47000000000E+01 0. -1.
         -5    1    3    3    0  502 -0.34603851937E+02  0.30290596376E+02  0.32001906528E+02  0.56224183579E+02  0.47000000000E+01 0. -1.
        -11    1    1    2    0    0 -0.20321944599E+02 -0.49947064926E+02  0.12040876840E+03  0.13193165744E+03  0.00000000000E+00 0.  1.
         11    1    1    2    0    0 -0.26947646993E+01  0.18580760565E+02 -0.48765245128E+01  0.19398116179E+02  0.00000000000E+00 0. -1.
<mgrwt>
<rscale>  0 0.12169394E+03</rscale>
<asrwt>0</asrwt>
<pdfrwt beam="2">  1        1 0.51826971E-02 0.13091878E+03</pdfrwt>
<pdfrwt beam="1">  1       -1 0.62280336E-01 0.13091878E+03</pdfrwt>
<totfact> 0.40905538E+03</totfact>
</mgrwt>
</event>
<event>
 7    1  0.4230786E-006  0.1288188E+03  0.7546771E-02  0.1242993E+00
         -1   -1    0    0    0  501 -0.00000000000E+00  0.00000000000E+00  0.28949190799E+02  0.28949190799E+02  0.00000000000E+00 0.  1.
          1   -1    0    0  501    0  0.00000000000E+00 -0.00000000000E+00 -0.46011520512E+03  0.46011520512E+03  0.00000000000E+00 0. -1.
         23    2    1    2    0    0  0.27131779598E+02 -0.15310107064E+02 -0.29362561516E+03  0.32064042389E+03  0.12499498674E+03 0.  0.
          5    1    3    3  502    0  0.22361880885E+02  0.41864189311E+02 -0.45471378802E+02  0.65896891835E+02  0.47000000000E+01 0. -1.
         -5    1    3    3    0  502  0.47698987121E+01 -0.57174296375E+02 -0.24815423636E+03  0.25474353205E+03  0.47000000000E+01 0. -1.
        -11    1    1    2    0    0 -0.24481784854E+02  0.36148287039E+02 -0.14057631468E+03  0.14719971704E+03  0.00000000000E+00 0. -1.
         11    1    1    2    0    0 -0.26499947434E+01 -0.20838179974E+02  0.30359155288E+01  0.21224254990E+02  0.00000000000E+00 0.  1.
<mgrwt>
<rscale>  0 0.12006300E+03</rscale>
<asrwt>0</asrwt>
<pdfrwt beam="2">  1        1 0.70786953E-01 0.12881879E+03</pdfrwt>
<pdfrwt beam="1">  1       -1 0.44537217E-02 0.12881879E+03</pdfrwt>
<totfact> 0.10008251E+04</totfact>
</mgrwt>
</event>
<event>
 7    1  0.4230786E-006  0.1271054E+03  0.7546771E-02  0.1246892E+00
          4   -1    0    0  501    0  0.00000000000E+00  0.00000000000E+00  0.42805542331E+02  0.42805542331E+02  0.00000000000E+00 0. -1.
         -4   -1    0    0    0  501 -0.00000000000E+00 -0.00000000000E+00 -0.33072445479E+03  0.33072445479E+03  0.00000000000E+00 0.  1.
         23    2    1    2    0    0 -0.20748157842E+02 -0.43174352290E+01 -0.23201673552E+03  0.26455161721E+03  0.12532623949E+03 0.  0.
          5    1    3    3  502    0 -0.64648318629E+02  0.25082486226E+02 -0.95679047611E+02  0.11825864183E+03  0.47000000000E+01 0.  1.
         -5    1    3    3    0  502  0.43900160786E+02 -0.29399921455E+02 -0.13633768791E+03  0.14629297537E+03  0.47000000000E+01 0.  1.
        -11    1    1    2    0    0  0.44554156691E+02 -0.12916149237E+01  0.35279900488E+01  0.44712278642E+02  0.00000000000E+00 0. -1.
         11    1    1    2    0    0 -0.23805998849E+02  0.56090501527E+01 -0.59430166983E+02  0.64266101270E+02  0.00000000000E+00 0.  1.
<mgrwt>
<rscale>  0 0.11772854E+03</rscale>
<asrwt>0</asrwt>
<pdfrwt beam="1">  1        4 0.65854677E-02 0.12710544E+03</pdfrwt>
<pdfrwt beam="2">  1       -4 0.50880688E-01 0.12710544E+03</pdfrwt>
<totfact> 0.92963510E+02</totfact>
</mgrwt>
</event>
<event>
 7    1  0.4230786E-006  0.1550518E+03  0.7546771E-02  0.1202928E+00
         -3   -1    0    0    0  501 -0.00000000000E+00  0.00000000000E+00  0.48471050047E+02  0.48471050047E+02  0.00000000000E+00 0.  1.
          3   -1    0    0  501    0  0.00000000000E+00 -0.00000000000E+00 -0.41595326592E+03  0.41595326592E+03  0.00000000000E+00 0. -1.
         23    2    1    2    0    0 -0.56472919045E+02  0.72322900537E+02 -0.20831041455E+03  0.25968112844E+03  0.12498506763E+03 0.  0.
          5    1    3    3  502    0  0.20783248442E+02  0.39947655813E+02 -0.15209663037E+03  0.15869226065E+03  0.47000000000E+01 0.  1.
         -5    1    3    3    0  502 -0.77256167486E+02  0.32375244724E+02 -0.56213784176E+02  0.10098886779E+03  0.47000000000E+01 0.  1.
        -11    1    1    2    0    0  0.90173782811E+01 -0.33244854831E+02 -0.13392899949E+03  0.13828778105E+03  0.00000000000E+00 0. -1.
         11    1    1    2    0    0  0.47455540764E+02 -0.39078045706E+02 -0.25242801837E+02  0.66455406476E+02  0.00000000000E+00 0.  1.
<mgrwt>
<rscale>  0 0.14801957E+03</rscale>
<asrwt>0</asrwt>
<pdfrwt beam="2">  1        3 0.63992811E-01 0.15505180E+03</pdfrwt>
<pdfrwt beam="1">  1       -3 0.74570845E-02 0.15505180E+03</pdfrwt>
<totfact> 0.67999801E+02</totfact>
</mgrwt>
</event>
<event>
 7    1  0.4230786E-006  0.1259138E+03  0.7546771E-02  0.1249289E+00
          1   -1    0    0  501    0  0.00000000000E+00  0.00000000000E+00  0.21934251478E+03  0.21934251478E+03  0.00000000000E+00 0. -1.
         -1   -1    0    0    0  501 -0.00000000000E+00 -0.00000000000E+00 -0.54469331144E+02  0.54469331144E+02  0.00000000000E+00 0.  1.
         23    2    1    2    0    0 -0.89140118809E+01 -0.12357683224E+02  0.10805409994E+03  0.16592159844E+03  0.12498846495E+03 0.  0.
          5    1    3    3  502    0 -0.51602583269E+02  0.92410741613E+01  0.58265253220E+01  0.52955287262E+02  0.47000000000E+01 0.  1.
         -5    1    3    3    0  502  0.42688571388E+02 -0.21598757385E+02  0.10222757462E+03  0.11296631118E+03  0.47000000000E+01 0.  1.
        -11    1    1    2    0    0 -0.34775198447E+02  0.16825263444E+02  0.34657205142E+01  0.38786790737E+02  0.00000000000E+00 0.  1.
         11    1    1    2    0    0  0.43689210328E+02 -0.44675802207E+01  0.53353363176E+02  0.69103456747E+02  0.00000000000E+00 0. -1.
<mgrwt>
<rscale>  0 0.11632332E+03</rscale>
<asrwt>0</asrwt>
<pdfrwt beam="1">  1        1 0.33745002E-01 0.12591381E+03</pdfrwt>
<pdfrwt beam="2">  1       -1 0.83798972E-02 0.12591381E+03</pdfrwt>
<totfact> 0.98043964E+03</totfact>
</mgrwt>
</event>
<event>
 7    1  0.4230786E-006  0.3674694E+03  0.7546771E-02  0.1056679E+00
          2   -1    0    0  501    0  0.00000000000E+00  0.00000000000E+00  0.72536139521E+03  0.72536139521E+03  0.00000000000E+00 0. -1.
         -2   -1    0    0    0  501 -0.00000000000E+00 -0.00000000000E+00 -0.18265978195E+03  0.18265978195E+03  0.00000000000E+00 0.  1.
         23    2    1    2    0    0  0.29730905615E+03  0.17611586228E+03  0.31913661665E+03  0.48670519993E+03  0.12499719891E+03 0.  0.
          5    1    3    3  502    0  0.78348015434E+02  0.11652752950E+03  0.12180169756E+03  0.18594305628E+03  0.47000000000E+01 0. -1.
         -5    1    3    3    0  502  0.21896104072E+03  0.59588332788E+02  0.19733491909E+03  0.30076214365E+03  0.47000000000E+01 0. -1.
        -11    1    1    2    0    0 -0.40540629873E+01 -0.26910192802E+02  0.97098459967E+01  0.28894203789E+02  0.00000000000E+00 0.  1.
         11    1    1    2    0    0 -0.29325499317E+03 -0.14920566948E+03  0.21385515061E+03  0.39242177344E+03  0.00000000000E+00 0. -1.
<mgrwt>
<rscale>  0 0.36485111E+03</rscale>
<asrwt>0</asrwt>
<pdfrwt beam="1">  1        2 0.11159406E+00 0.36746942E+03</pdfrwt>
<pdfrwt beam="2">  1       -2 0.28101505E-01 0.36746942E+03</pdfrwt>
<totfact> 0.46260490E+02</totfact>
</mgrwt>
</event>
<event>
 7    1  0.4230786E-006  0.1348025E+03  0.7546771E-02  0.1233219E+00
          2   -1    0    0  501    0  0.00000000000E+00  0.00000000000E+00  0.10235081862E+03  0.10235081862E+03  0.00000000000E+00 0. -1.
         -2   -1    0    0    0  501 -0.00000000000E+00 -0.00000000000E+00 -0.13907294403E+03  0.13907294403E+03  0.00000000000E+00 0.  1.
         23    2    1    2    0    0 -0.22347252436E+02 -0.45249629415E+02 -0.14856182708E+02  0.13561861396E+03  0.12499909454E+03 0.  0.
          5    1    3    3  502    0 -0.32734248097E+02  0.21975864404E+02  0.33562811102E+02  0.51990594379E+02  0.47000000000E+01 0.  1.
         -5    1    3    3    0  502  0.10386995662E+02 -0.67225493819E+02 -0.48418993810E+02  0.83628019585E+02  0.47000000000E+01 0.  1.
        -11    1    1    2    0    0 -0.37610366903E-01 -0.26984470224E+02 -0.12031810700E+02  0.29545346783E+02  0.00000000000E+00 0. -1.
         11    1    1    2    0    0  0.22384862802E+02  0.72234099639E+02 -0.98341320051E+01  0.76259801899E+02  0.00000000000E+00 0.  1.
<mgrwt>
<rscale>  0 0.12619163E+03</rscale>
<asrwt>0</asrwt>
<pdfrwt beam="1">  1        2 0.15746280E-01 0.13480246E+03</pdfrwt>
<pdfrwt beam="2">  1       -2 0.21395837E-01 0.13480246E+03</pdfrwt>
<totfact> 0.65145629E+03</totfact>
</mgrwt>
</event>
<event>
 7    1  0.4230786E-006  0.2440140E+03  0.7546771E-02  0.1120249E+00
         -1   -1    0    0    0  501 -0.00000000000E+00  0.00000000000E+00  0.77915665199E+02  0.77915665199E+02  0.00000000000E+00 0.  1.
          1   -1    0    0  501    0  0.00000000000E+00 -0.00000000000E+00 -0.73982926764E+03  0.73982926764E+03  0.00000000000E+00 0. -1.
         23    2    1    2    0    0  0.87098790611E+02  0.19060630188E+03 -0.25864510431E+03  0.35558417846E+03  0.12500342534E+03 0.  0.
          5    1    3    3  502    0  0.35962451545E+02  0.78668237201E+02 -0.20246893265E+03  0.22022204285E+03  0.47000000000E+01 0.  1.
         -5    1    3    3    0  502  0.51136339066E+02  0.11193806468E+03 -0.56176171659E+02  0.13536213562E+03  0.47000000000E+01 0.  1.
        -11    1    1    2    0    0  0.13983178858E+02 -0.41558062441E+02 -0.10427910450E+03  0.11312264795E+03  0.00000000000E+00 0. -1.
         11    1    1    2    0    0 -0.10108196947E+03 -0.14904823944E+03 -0.29898939363E+03  0.34903810642E+03  0.00000000000E+00 0.  1.
<mgrwt>
<rscale>  0 0.23931628E+03</rscale>
<asrwt>0</asrwt>
<pdfrwt beam="2">  1        1 0.11381988E+00 0.24401397E+03</pdfrwt>
<pdfrwt beam="1">  1       -1 0.11987026E-01 0.24401397E+03</pdfrwt>
<totfact> 0.11923853E+03</totfact>
</mgrwt>
</event>
<event>
 7    1  0.4230786E-006  0.1354679E+03  0.7546771E-02  0.1233458E+00
          1   -1    0    0  501    0  0.00000000000E+00  0.00000000000E+00  0.38600834603E+03  0.38600834603E+03  0.00000000000E+00 0. -1.
         -1   -1    0    0    0  501 -0.00000000000E+00 -0.00000000000E+00 -0.49914232024E+02  0.49914232024E+02  0.00000000000E+00 0.  1.
         23    2    1    2    0    0 -0.52173610806E+02  0.20349155239E+01  0.72907259863E+02  0.15384089739E+03  0.12500130649E+03 0.  0.
          5    1    3    3  502    0 -0.18185226334E+01  0.39115056962E-01  0.97457485671E+02  0.97587704491E+02  0.47000000000E+01 0. -1.
         -5    1    3    3    0  502 -0.50355088173E+02  0.19958004669E+01 -0.24550225808E+02  0.56253192901E+02  0.47000000000E+01 0. -1.
        -11    1    1    2    0    0  0.62101621350E+01  0.38273667734E+02  0.78775154636E+02  0.87800710382E+02  0.00000000000E+00 0.  1.
         11    1    1    2    0    0  0.45963448671E+02 -0.40308583258E+02  0.18441169951E+03  0.19428097028E+03  0.00000000000E+00 0. -1.
<mgrwt>
<rscale>  0 0.12603654E+03</rscale>
<asrwt>0</asrwt>
<pdfrwt beam="1">  1        1 0.59385898E-01 0.13546790E+03</pdfrwt>
<pdfrwt beam="2">  1       -1 0.76791129E-02 0.13546790E+03</pdfrwt>
<totfact> 0.55792321E+03</totfact>
</mgrwt>
</event>
<event>
 7    1  0.4230786E-006  0.1575950E+03  0.7546771E-02  0.1199378E+00
         -1   -1    0    0    0  501 -0.00000000000E+00  0.00000000000E+00  0.10994647115E+03  0.10994647115E+03  0.00000000000E+00 0.  1.
          1   -1    0    0  501    0  0.00000000000E+00 -0.00000000000E+00 -0.22169427766E+03  0.22169427766E+03  0.00000000000E+00 0. -1.
         23    2    1    2    0    0 -0.76631837307E+02 -0.57785705193E+02  0.11502031110E+01  0.15759918180E+03  0.12499821168E+03 0.  0.
          5    1    3    3  502    0  0.18838712435E+01 -0.42329125897E+02 -0.47504319088E+02  0.63828318183E+02  0.47000000000E+01 0.  1.
         -5    1    3    3    0  502 -0.78515708551E+02 -0.15456579295E+02  0.48654522199E+02  0.93770863615E+02  0.47000000000E+01 0.  1.
        -11    1    1    2    0    0 -0.70395497946E+00 -0.18142156024E+02 -0.38554304708E+02  0.42615346876E+02  0.00000000000E+00 0. -1.
         11    1    1    2    0    0  0.77335792287E+02  0.75927861217E+02 -0.74343704915E+02  0.13142622013E+03  0.00000000000E+00 0.  1.
<mgrwt>
<rscale>  0 0.15089486E+03</rscale>
<asrwt>0</asrwt>
<pdfrwt beam="2">  1        1 0.34106812E-01 0.15759498E+03</pdfrwt>
<pdfrwt beam="1">  1       -1 0.16914842E-01 0.15759498E+03</pdfrwt>
<totfact> 0.33146430E+03</totfact>
</mgrwt>
</event>
<event>
 7    1  0.4230786E-006  0.1885245E+03  0.7546771E-02  0.1164618E+00
          2   -1    0    0  501    0  0.00000000000E+00  0.00000000000E+00  0.11368357034E+04  0.11368357034E+04  0.00000000000E+00 0.  1.
         -2   -1    0    0    0  501 -0.00000000000E+00 -0.00000000000E+00 -0.30810794091E+02  0.30810794091E+02  0.00000000000E+00 0. -1.
         23    2    1    2    0    0 -0.12791197536E+03 -0.59624901404E+02  0.40644711542E+03  0.44804100853E+03  0.12499954156E+03 0.  0.
          5    1    3    3  502    0 -0.40720931569E+02 -0.11887502196E+02  0.16768354807E+02  0.45856021407E+02  0.47000000000E+01 0.  1.
         -5    1    3    3    0  502 -0.87191043789E+02 -0.47737399208E+02  0.38967876061E+03  0.40218498713E+03  0.47000000000E+01 0.  1.
        -11    1    1    2    0    0  0.69536690034E+02 -0.11167265807E+02  0.20975849588E+03  0.22126609700E+03  0.00000000000E+00 0.  1.
         11    1    1    2    0    0  0.58375285325E+02  0.70792167212E+02  0.48981929802E+03  0.49833939197E+03  0.00000000000E+00 0. -1.
<mgrwt>
<rscale>  0 0.18333042E+03</rscale>
<asrwt>0</asrwt>
<pdfrwt beam="1">  1        2 0.17489777E+00 0.18852450E+03</pdfrwt>
<pdfrwt beam="2">  1       -2 0.47401231E-02 0.18852450E+03</pdfrwt>
<totfact> 0.45710678E+03</totfact>
</mgrwt>
</event>
<event>
 7    1  0.4230786E-006  0.1451551E+03  0.7546771E-02  0.1216201E+00
          2   -1    0    0  501    0  0.00000000000E+00  0.00000000000E+00  0.43896069946E+03  0.43896069946E+03  0.00000000000E+00 0. -1.
         -2   -1    0    0    0  501 -0.00000000000E+00 -0.00000000000E+00 -0.41756328268E+02  0.41756328268E+02  0.00000000000E+00 0.  1.
         23    2    1    2    0    0 -0.73750526489E+02 -0.23692129820E+01  0.16221506403E+03  0.21767806271E+03  0.12500103463E+03 0.  0.
          5    1    3    3  502    0 -0.74300378844E+02  0.29103871620E+02  0.16733011229E+03  0.18544281630E+03  0.47000000000E+01 0. -1.
         -5    1    3    3    0  502  0.54985235540E+00 -0.31473084602E+02 -0.51150482598E+01  0.32235246403E+02  0.47000000000E+01 0. -1.
        -11    1    1    2    0    0  0.13738369541E+02 -0.40222169461E+02  0.63333115570E+02  0.76273515991E+02  0.00000000000E+00 0.  1.
         11    1    1    2    0    0  0.60012156947E+02  0.42591382443E+02  0.17165619159E+03  0.18676544903E+03  0.00000000000E+00 0. -1.
<mgrwt>
<rscale>  0 0.13788658E+03</rscale>
<asrwt>0</asrwt>
<pdfrwt beam="1">  1        2 0.67532412E-01 0.14515513E+03</pdfrwt>
<pdfrwt beam="2">  1       -2 0.64240508E-02 0.14515513E+03</pdfrwt>
<totfact> 0.91736753E+03</totfact>
</mgrwt>
</event>
<event>
 7    1  0.4230786E-006  0.1257803E+03  0.7546771E-02  0.1248978E+00
          1   -1    0    0  501    0  0.00000000000E+00  0.00000000000E+00  0.11817912204E+03  0.11817912204E+03  0.00000000000E+00 0. -1.
         -1   -1    0    0    0  501 -0.00000000000E+00 -0.00000000000E+00 -0.11535011186E+03  0.11535011186E+03  0.00000000000E+00 0.  1.
         23    2    1    2    0    0 -0.46113501101E+01  0.13109460132E+02 -0.39348859679E+02  0.13179157986E+03  0.12501026066E+03 0.  0.
          5    1    3    3  502    0  0.12035065679E+02 -0.49093362944E+02 -0.43836786346E+02  0.67072758466E+02  0.47000000000E+01 0. -1.
         -5    1    3    3    0  502 -0.16646415789E+02  0.62202823076E+02  0.44879266671E+01  0.64718821397E+02  0.47000000000E+01 0. -1.
        -11    1    1    2    0    0  0.39057221375E+02  0.51041999175E+01  0.48267521250E+02  0.62299863612E+02  0.00000000000E+00 0. -1.
         11    1    1    2    0    0 -0.34445871265E+02 -0.18213660050E+02 -0.60896513983E+01  0.39437790427E+02  0.00000000000E+00 0.  1.
<mgrwt>
<rscale>  0 0.11650434E+03</rscale>
<asrwt>0</asrwt>
<pdfrwt beam="1">  1        1 0.18181403E-01 0.12578032E+03</pdfrwt>
<pdfrwt beam="2">  1       -1 0.17746171E-01 0.12578032E+03</pdfrwt>
<totfact> 0.66863179E+03</totfact>
</mgrwt>
</event>
<event>
 7    1  0.4230786E-006  0.1257375E+03  0.7546771E-02  0.1249177E+00
          1   -1    0    0  501    0  0.00000000000E+00  0.00000000000E+00  0.34867680489E+02  0.34867680489E+02  0.00000000000E+00 0. -1.
         -1   -1    0    0    0  501 -0.00000000000E+00 -0.00000000000E+00 -0.54834831984E+03  0.54834831984E+03  0.00000000000E+00 0.  1.
         23    2    1    2    0    0  0.24642940328E+01 -0.13366635652E+02 -0.45925956209E+03  0.47616097702E+03  0.12500076390E+03 0.  0.
          5    1    3    3  502    0  0.38614465141E+02 -0.56042704443E+02 -0.28662657003E+03  0.29463323351E+03  0.47000000000E+01 0. -1.
         -5    1    3    3    0  502 -0.36150171108E+02  0.42676068791E+02 -0.17263299206E+03  0.18152774351E+03  0.47000000000E+01 0. -1.
        -11    1    1    2    0    0  0.38825813457E+02  0.11447738497E+02 -0.51675770088E+02  0.65642057566E+02  0.00000000000E+00 0. -1.
         11    1    1    2    0    0 -0.41290107490E+02  0.19188971552E+01 -0.25453071732E+01  0.41412965741E+02  0.00000000000E+00 0.  1.
<mgrwt>
<rscale>  0 0.11638825E+03</rscale>
<asrwt>0</asrwt>
<pdfrwt beam="1">  1        1 0.53642590E-02 0.12573755E+03</pdfrwt>
<pdfrwt beam="2">  1       -1 0.84361272E-01 0.12573755E+03</pdfrwt>
<totfact> 0.21284121E+03</totfact>
</mgrwt>
</event>
<event>
 7    1  0.4230786E-006  0.1376166E+03  0.7546771E-02  0.1231655E+00
          2   -1    0    0  501    0  0.00000000000E+00  0.00000000000E+00  0.75706845664E+03  0.75706845664E+03  0.00000000000E+00 0. -1.
         -2   -1    0    0    0  501 -0.00000000000E+00 -0.00000000000E+00 -0.19590966626E+02  0.19590966626E+02  0.00000000000E+00 0.  1.
         23    2    1    2    0    0  0.91413446835E+01  0.56837313659E+02  0.34277992475E+03  0.36937300064E+03  0.12499716951E+03 0.  0.
          5    1    3    3  502    0  0.34422132185E+02  0.47084508017E+02  0.33598814144E+03  0.34104538593E+03  0.47000000000E+01 0. -1.
         -5    1    3    3    0  502 -0.25280787501E+02  0.97528056418E+01  0.67917833144E+01  0.28327614710E+02  0.47000000000E+01 0. -1.
        -11    1    1    2    0    0 -0.15390850775E+02  0.18758786128E+02  0.11117852177E+03  0.11379558009E+03  0.00000000000E+00 0. -1.
         11    1    1    2    0    0  0.62495060914E+01 -0.75596099787E+02  0.28351904349E+03  0.29349084254E+03  0.00000000000E+00 0.  1.
<mgrwt>
<rscale>  0 0.12721027E+03</rscale>
<asrwt>0</asrwt>
<pdfrwt beam="1">  1        2 0.11647205E+00 0.13761663E+03</pdfrwt>
<pdfrwt beam="2">  1       -2 0.30139954E-02 0.13761663E+03</pdfrwt>
<totfact> 0.15252236E+04</totfact>
</mgrwt>
</event>
<event>
 7    1  0.4230786E-006  0.1256363E+03  0.7546771E-02  0.1249469E+00
          2   -1    0    0  501    0  0.00000000000E+00  0.00000000000E+00  0.13855982199E+03  0.13855982199E+03  0.00000000000E+00 0.  1.
         -2   -1    0    0    0  501 -0.00000000000E+00 -0.00000000000E+00 -0.88072511032E+02  0.88072511032E+02  0.00000000000E+00 0. -1.
         23    2    1    2    0    0 -0.12170726379E+02  0.34032112523E+01  0.48339493994E+02  0.13461494006E+03  0.12499906792E+03 0.  0.
          5    1    3    3  502    0 -0.31523537500E+02 -0.96617025197E+01  0.84776543250E+02  0.91083665920E+02  0.47000000000E+01 0.  1.
         -5    1    3    3    0  502  0.19352811120E+02  0.13064913772E+02 -0.36437049257E+02  0.43531274145E+02  0.47000000000E+01 0.  1.
        -11    1    1    2    0    0  0.46035486009E+02  0.17766148341E+02  0.12208728976E+02  0.50832618093E+02  0.00000000000E+00 0.  1.
         11    1    1    2    0    0 -0.33864759629E+02 -0.21169359594E+02 -0.10060912010E+02  0.41184774867E+02  0.00000000000E+00 0. -1.
<mgrwt>
<rscale>  0 0.11621822E+03</rscale>
<asrwt>0</asrwt>
<pdfrwt beam="1">  1        2 0.21316896E-01 0.12563628E+03</pdfrwt>
<pdfrwt beam="2">  1       -2 0.13549617E-01 0.12563628E+03</pdfrwt>
<totfact> 0.97775306E+03</totfact>
</mgrwt>
</event>
<event>
 7    1  0.4230786E-006  0.1233292E+03  0.7546771E-02  0.1248892E+00
          4   -1    0    0  501    0  0.00000000000E+00  0.00000000000E+00  0.18169103674E+02  0.18169103674E+02  0.00000000000E+00 0. -1.
         -4   -1    0    0    0  501 -0.00000000000E+00 -0.00000000000E+00 -0.10408015406E+04  0.10408015406E+04  0.00000000000E+00 0.  1.
         23    2    1    2    0    0  0.26959728649E+02  0.23715802381E+02 -0.86072581541E+03  0.86951654663E+03  0.11798656411E+03 0.  0.
          5    1    3    3  502    0 -0.66128904350E+01  0.60751358048E+02 -0.28027271356E+03  0.28689604701E+03  0.47000000000E+01 0. -1.
         -5    1    3    3    0  502  0.33572619084E+02 -0.37035555667E+02 -0.58045310185E+03  0.58262049962E+03  0.47000000000E+01 0.  1.
        -11    1    1    2    0    0  0.22247791120E+02 -0.40618653204E+02 -0.78958831831E+02  0.91538714880E+02  0.00000000000E+00 0.  1.
         11    1    1    2    0    0 -0.49207519770E+02  0.16902850823E+02 -0.82947789716E+02  0.97915382788E+02  0.00000000000E+00 0. -1.
<mgrwt>
<rscale>  0 0.11655445E+03</rscale>
<asrwt>0</asrwt>
<pdfrwt beam="1">  1        4 0.27952455E-02 0.12332922E+03</pdfrwt>
<pdfrwt beam="2">  1       -4 0.16012338E+00 0.12332922E+03</pdfrwt>
<totfact> 0.26633449E+02</totfact>
</mgrwt>
</event>
<event>
 7    1  0.4230786E-006  0.1423837E+03  0.7546771E-02  0.1221293E+00
         -2   -1    0    0    0  501 -0.00000000000E+00  0.00000000000E+00  0.34766725383E+02  0.34766725383E+02  0.00000000000E+00 0.  1.
          2   -1    0    0  501    0  0.00000000000E+00 -0.00000000000E+00 -0.49266159607E+03  0.49266159607E+03  0.00000000000E+00 0. -1.
         23    2    1    2    0    0  0.91448844044E+01  0.67549239308E+02 -0.19480825853E+03  0.24129519664E+03  0.12500634259E+03 0.  0.
          5    1    3    3  502    0 -0.28805748753E+02  0.90049517679E+02 -0.10664670341E+03  0.14259837357E+03  0.47000000000E+01 0. -1.
         -5    1    3    3    0  502  0.37950633157E+02 -0.22500278370E+02 -0.88161555116E+02  0.98696823071E+02  0.47000000000E+01 0. -1.
        -11    1    1    2    0    0 -0.31339098047E+02  0.76149525319E+01 -0.10229178976E+03  0.10725547455E+03  0.00000000000E+00 0.  1.
         11    1    1    2    0    0  0.22194213642E+02 -0.75164191840E+02 -0.16079482240E+03  0.17887765027E+03  0.00000000000E+00 0. -1.
<mgrwt>
<rscale>  0 0.13424221E+03</rscale>
<asrwt>0</asrwt>
<pdfrwt beam="2">  1        2 0.75794081E-01 0.14238369E+03</pdfrwt>
<pdfrwt beam="1">  1       -2 0.53487277E-02 0.14238369E+03</pdfrwt>
<totfact> 0.10667030E+04</totfact>
</mgrwt>
</event>
<event>
 6    1  0.4230786E-006  0.2069093E+03  0.7546771E-02  0.1157578E+00
         -1   -1    0    0    0  501 -0.00000000000E+00  0.00000000000E+00  0.71342256259E+03  0.71342256259E+03  0.00000000000E+00 0.  1.
          1   -1    0    0  501    0  0.00000000000E+00 -0.00000000000E+00 -0.73559246451E+02  0.73559246451E+02  0.00000000000E+00 0. -1.
          5    1    1    2  502    0  0.26231536162E+02 -0.11076087425E+03  0.34788569431E+03  0.36606367077E+03  0.47000000000E+01 0. -1.
         -5    1    1    2    0  502 -0.91726995303E+02  0.11670078624E+02  0.24754936266E+03  0.26429682056E+03  0.47000000000E+01 0.  1.
        -11    1    1    2    0    0 -0.17160339389E+02  0.81686850676E+00  0.19182166967E+02  0.25750729148E+02  0.00000000000E+00 0.  1.
         11    1    1    2    0    0  0.82655798530E+02  0.98273927117E+02  0.25246092208E+02  0.13087058857E+03  0.00000000000E+00 0. -1.
<mgrwt>
<rscale>  0 0.19098251E+03</rscale>
<asrwt>0</asrwt>
<pdfrwt beam="2">  1        1 0.11316808E-01 0.20690926E+03</pdfrwt>
<pdfrwt beam="1">  1       -1 0.10975731E+00 0.20690926E+03</pdfrwt>
<totfact> 0.44344387E+02</totfact>
</mgrwt>
</event>
<event>
 7    1  0.4230786E-006  0.1287736E+03  0.7546771E-02  0.1242489E+00
         -4   -1    0    0    0  501 -0.00000000000E+00  0.00000000000E+00  0.82744379048E+02  0.82744379048E+02  0.00000000000E+00 0.  1.
          4   -1    0    0  501    0  0.00000000000E+00 -0.00000000000E+00 -0.15934726695E+03  0.15934726695E+03  0.00000000000E+00 0. -1.
         23    2    1    2    0    0 -0.18998104678E+02 -0.24447707205E+02 -0.25419187485E+02  0.13125843890E+03  0.12499609722E+03 0.  0.
          5    1    3    3  502    0 -0.46033527605E+02 -0.31306605913E+02  0.34034827779E+02  0.65419024293E+02  0.47000000000E+01 0. -1.
         -5    1    3    3    0  502  0.27035422927E+02  0.68588987079E+01 -0.59454015264E+02  0.65839414604E+02  0.47000000000E+01 0. -1.
        -11    1    1    2    0    0  0.29019725599E+02 -0.26306378589E+02 -0.43493379314E+02  0.58530710508E+02  0.00000000000E+00 0.  1.
         11    1    1    2    0    0 -0.10021620922E+02  0.50754085794E+02 -0.76903210982E+01  0.52302496588E+02  0.00000000000E+00 0. -1.
<mgrwt>
<rscale>  0 0.12036939E+03</rscale>
<asrwt>0</asrwt>
<pdfrwt beam="2">  1        4 0.24514964E-01 0.12877361E+03</pdfrwt>
<pdfrwt beam="1">  1       -4 0.12729905E-01 0.12877361E+03</pdfrwt>
<totfact> 0.12703858E+03</totfact>
</mgrwt>
</event>
<event>
 7    1  0.4230786E-006  0.1462881E+03  0.7546771E-02  0.1215202E+00
         -1   -1    0    0    0  501 -0.00000000000E+00  0.00000000000E+00  0.18468757202E+03  0.18468757202E+03  0.00000000000E+00 0.  1.
          1   -1    0    0  501    0  0.00000000000E+00 -0.00000000000E+00 -0.95401646356E+02  0.95401646356E+02  0.00000000000E+00 0. -1.
         23    2    1    2    0    0 -0.24736650339E+02  0.71851060533E+02  0.62909573156E+02  0.15924137145E+03  0.12500289284E+03 0.  0.
          5    1    3    3  502    0 -0.11366038357E+02 -0.35703118134E+02  0.14585374241E+02  0.40481138993E+02  0.47000000000E+01 0.  1.
         -5    1    3    3    0  502 -0.13370611983E+02  0.10755417867E+03  0.48324198915E+02  0.11876023246E+03  0.47000000000E+01 0.  1.
        -11    1    1    2    0    0  0.37048464427E+01 -0.28798936915E+02 -0.33387894563E+02  0.44247668389E+02  0.00000000000E+00 0. -1.
         11    1    1    2    0    0  0.21031803897E+02 -0.43052123619E+02  0.59764247068E+02  0.76600178530E+02  0.00000000000E+00 0.  1.
<mgrwt>
<rscale>  0 0.13861706E+03</rscale>
<asrwt>0</asrwt>
<pdfrwt beam="2">  1        1 0.14677176E-01 0.14628807E+03</pdfrwt>
<pdfrwt beam="1">  1       -1 0.28413473E-01 0.14628807E+03</pdfrwt>
<totfact> 0.41391698E+03</totfact>
</mgrwt>
</event>
<event>
 7    1  0.4230786E-006  0.1131967E+03  0.7546771E-02  0.1265864E+00
          1   -1    0    0  501    0  0.00000000000E+00  0.00000000000E+00  0.19196785227E+02  0.19196785227E+02  0.00000000000E+00 0. -1.
         -1   -1    0    0    0  501 -0.00000000000E+00 -0.00000000000E+00 -0.12375346694E+04  0.12375346694E+04  0.00000000000E+00 0.  1.
         23    2    1    2    0    0  0.15217036670E+01  0.15208916490E+02 -0.11076934233E+04  0.11134622663E+04  0.11216002741E+03 0.  0.
          5    1    3    3  502    0 -0.45981063042E+02  0.15665097159E+02 -0.26760963999E+03  0.27202327629E+03  0.47000000000E+01 0. -1.
         -5    1    3    3    0  502  0.47502766709E+02 -0.45618066832E+00 -0.84008378327E+03  0.84143898998E+03  0.47000000000E+01 0.  1.
        -11    1    1    2    0    0  0.28784627012E+02 -0.26321579922E+01 -0.10631288311E+03  0.11017219306E+03  0.00000000000E+00 0.  1.
         11    1    1    2    0    0 -0.30306330679E+02 -0.12576758498E+02 -0.43315778361E+01  0.33096995333E+02  0.00000000000E+00 0. -1.
<mgrwt>
<rscale>  0 0.10719006E+03</rscale>
<asrwt>0</asrwt>
<pdfrwt beam="1">  1        1 0.29533507E-02 0.11319672E+03</pdfrwt>
<pdfrwt beam="2">  1       -1 0.19039001E+00 0.11319672E+03</pdfrwt>
<totfact> 0.66468637E+02</totfact>
</mgrwt>
</event>
<event>
 7    1  0.4230786E-006  0.1414694E+03  0.7546771E-02  0.1224516E+00
         -3   -1    0    0    0  501 -0.00000000000E+00  0.00000000000E+00  0.31674634193E+03  0.31674634193E+03  0.00000000000E+00 0.  1.
          3   -1    0    0  501    0  0.00000000000E+00 -0.00000000000E+00 -0.51113760350E+02  0.51113760350E+02  0.00000000000E+00 0. -1.
         23    2    1    2    0    0 -0.18858722387E+02 -0.63507431030E+02  0.18890272046E+03  0.23600389774E+03  0.12499902698E+03 0.  0.
          5    1    3    3  502    0 -0.37611561254E+02  0.28016615424E+02  0.75414381824E+02  0.88932442143E+02  0.47000000000E+01 0.  1.
         -5    1    3    3    0  502  0.18752838866E+02 -0.91524046454E+02  0.11348833864E+03  0.14707145560E+03  0.47000000000E+01 0.  1.
        -11    1    1    2    0    0  0.11546047788E+02  0.34776028777E+02  0.91622803646E+02  0.98678374252E+02  0.00000000000E+00 0.  1.
         11    1    1    2    0    0  0.73126745996E+01  0.28731402253E+02 -0.14892942530E+02  0.33177830285E+02  0.00000000000E+00 0. -1.
<mgrwt>
<rscale>  0 0.13200109E+03</rscale>
<asrwt>0</asrwt>
<pdfrwt beam="2">  1        3 0.78636556E-02 0.14146944E+03</pdfrwt>
<pdfrwt beam="1">  1       -3 0.48730205E-01 0.14146944E+03</pdfrwt>
<totfact> 0.10710255E+03</totfact>
</mgrwt>
</event>
<event>
 7    1  0.4230786E-006  0.1278751E+03  0.7546771E-02  0.1244969E+00
          3   -1    0    0  501    0  0.00000000000E+00  0.00000000000E+00  0.20557103889E+03  0.20557103889E+03  0.00000000000E+00 0. -1.
         -3   -1    0    0    0  501 -0.00000000000E+00 -0.00000000000E+00 -0.61652670905E+02  0.61652670905E+02  0.00000000000E+00 0.  1.
         23    2    1    2    0    0  0.23438583123E+02 -0.13332867370E+02  0.98873945855E+02  0.16164186375E+03  0.12499960966E+03 0.  0.
          5    1    3    3  502    0  0.21012659578E+02 -0.28798763562E+02  0.12541685698E+03  0.13046983813E+03  0.47000000000E+01 0.  1.
         -5    1    3    3    0  502  0.24259235456E+01  0.15465896192E+02 -0.26542911129E+02  0.31172025620E+02  0.47000000000E+01 0.  1.
        -11    1    1    2    0    0 -0.55366535201E+02  0.25963994009E+02  0.28434459112E+02  0.67439607576E+02  0.00000000000E+00 0. -1.
         11    1    1    2    0    0  0.31927952078E+02 -0.12631126639E+02  0.16609963014E+02  0.38142238468E+02  0.00000000000E+00 0.  1.
<mgrwt>
<rscale>  0 0.11887212E+03</rscale>
<asrwt>0</asrwt>
<pdfrwt beam="1">  1        3 0.31626313E-01 0.12787508E+03</pdfrwt>
<pdfrwt beam="2">  1       -3 0.94850264E-02 0.12787508E+03</pdfrwt>
<totfact> 0.17797311E+03</totfact>
</mgrwt>
</event>
<event>
 7    1  0.4230786E-006  0.1317116E+03  0.7546771E-02  0.1238337E+00
          1   -1    0    0  501    0  0.00000000000E+00  0.00000000000E+00  0.13239809326E+03  0.13239809326E+03  0.00000000000E+00 0. -1.
         -1   -1    0    0    0  501 -0.00000000000E+00 -0.00000000000E+00 -0.11186080245E+03  0.11186080245E+03  0.00000000000E+00 0.  1.
         23    2    1    2    0    0  0.16521756126E+02 -0.38071552615E+02 -0.25595322321E+02  0.13417555249E+03  0.12500218725E+03 0.  0.
          5    1    3    3  502    0  0.51639356436E+02 -0.28336961419E+02  0.30977092864E+02  0.66717889639E+02  0.47000000000E+01 0. -1.
         -5    1    3    3    0  502 -0.35117600310E+02 -0.97345911965E+01 -0.56572415184E+02  0.67457662849E+02  0.47000000000E+01 0. -1.
        -11    1    1    2    0    0  0.18402639384E+02 -0.12220331957E+02  0.43511852337E+02  0.48798308816E+02  0.00000000000E+00 0. -1.
         11    1    1    2    0    0 -0.34924395509E+02  0.50291884573E+02  0.26207607945E+01  0.61285034411E+02  0.00000000000E+00 0.  1.
<mgrwt>
<rscale>  0 0.12293187E+03</rscale>
<asrwt>0</asrwt>
<pdfrwt beam="1">  1        1 0.20368937E-01 0.13171165E+03</pdfrwt>
<pdfrwt beam="2">  1       -1 0.17209354E-01 0.13171165E+03</pdfrwt>
<totfact> 0.60951550E+03</totfact>
</mgrwt>
</event>
<event>
 7    1  0.4230786E-006  0.1364056E+03  0.7546771E-02  0.1226667E+00
          1   -1    0    0  501    0  0.00000000000E+00  0.00000000000E+00  0.33076846656E+02  0.33076846656E+02  0.00000000000E+00 0. -1.
         -1   -1    0    0    0  501 -0.00000000000E+00 -0.00000000000E+00 -0.64596523795E+03  0.64596523795E+03  0.00000000000E+00 0.  1.
         23    2    1    2    0    0  0.40976071568E+01  0.63809734427E+02 -0.50021203045E+03  0.51847715301E+03  0.12049070582E+03 0.  0.
          5    1    3    3  502    0 -0.35891250809E+02 -0.66710560274E+01 -0.56706277624E+02  0.67604561941E+02  0.47000000000E+01 0. -1.
         -5    1    3    3    0  502  0.39988857966E+02  0.70480790455E+02 -0.44350575282E+03  0.45087259106E+03  0.47000000000E+01 0.  1.
        -11    1    1    2    0    0 -0.29141438051E+01 -0.84065972543E+02 -0.57809311195E+02  0.10206613755E+03  0.00000000000E+00 0. -1.
         11    1    1    2    0    0 -0.11834633517E+01  0.20256238116E+02 -0.54867049651E+02  0.58498794052E+02  0.00000000000E+00 0.  1.
<mgrwt>
<rscale>  0 0.13053332E+03</rscale>
<asrwt>0</asrwt>
<pdfrwt beam="1">  1        1 0.50887462E-02 0.13640558E+03</pdfrwt>
<pdfrwt beam="2">  1       -1 0.99379257E-01 0.13640558E+03</pdfrwt>
<totfact> 0.16187166E+03</totfact>
</mgrwt>
</event>
<event>
 6    1  0.4230786E-006  0.1765934E+03  0.7546771E-02  0.1186197E+00
          1   -1    0    0  501    0  0.00000000000E+00  0.00000000000E+00  0.36566551876E+03  0.36566551876E+03  0.00000000000E+00 0. -1.
         -1   -1    0    0    0  501 -0.00000000000E+00 -0.00000000000E+00 -0.66946458736E+02  0.66946458736E+02  0.00000000000E+00 0.  1.
          5    1    1    2  502    0 -0.33619114328E+02  0.41974925646E+02  0.33102996944E+02  0.63324857978E+02  0.47000000000E+01 0. -1.
         -5    1    1    2    0  502 -0.71398623950E+01 -0.12223011769E+03  0.84763460669E+02  0.14899031368E+03  0.47000000000E+01 0.  1.
        -11    1    1    2    0    0 -0.23268563531E+02  0.52684237472E+00  0.28259609360E+02  0.36610232624E+02  0.00000000000E+00 0.  1.
         11    1    1    2    0    0  0.64027540253E+02  0.79728349667E+02  0.15259299305E+03  0.18368657321E+03  0.00000000000E+00 0. -1.
<mgrwt>
<rscale>  0 0.16223406E+03</rscale>
<asrwt>0</asrwt>
<pdfrwt beam="1">  1        1 0.56256232E-01 0.17659340E+03</pdfrwt>
<pdfrwt beam="2">  1       -1 0.10299455E-01 0.17659340E+03</pdfrwt>
<totfact> 0.38722599E+03</totfact>
</mgrwt>
</event>
<event>
 7    1  0.4230786E-006  0.1313775E+03  0.7546771E-02  0.1238061E+00
          2   -1    0    0  501    0  0.00000000000E+00  0.00000000000E+00  0.65821337424E+03  0.65821337424E+03  0.00000000000E+00 0. -1.
         -2   -1    0    0    0  501 -0.00000000000E+00 -0.00000000000E+00 -0.23881620845E+02  0.23881620845E+02  0.00000000000E+00 0.  1.
         23    2    1    2    0    0 -0.28833169728E+02  0.28330859306E+02  0.22621216452E+03  0.26159507049E+03  0.12500419298E+03 0.  0.
          5    1    3    3  502    0 -0.25506501088E+02  0.38568983201E+01  0.23385221388E+03  0.23531766870E+03  0.47000000000E+01 0.  1.
         -5    1    3    3    0  502 -0.33266686404E+01  0.24473960986E+02 -0.76400493659E+01  0.26277401791E+02  0.47000000000E+01 0.  1.
        -11    1    1    2    0    0  0.46726485249E+02  0.15749253841E+02  0.26870660921E+03  0.27319342096E+03  0.00000000000E+00 0.  1.
         11    1    1    2    0    0 -0.17893315521E+02 -0.44080113147E+02  0.13941297966E+03  0.14730650364E+03  0.00000000000E+00 0. -1.
<mgrwt>
<rscale>  0 0.12310526E+03</rscale>
<asrwt>0</asrwt>
<pdfrwt beam="1">  1        2 0.10126358E+00 0.13137746E+03</pdfrwt>
<pdfrwt beam="2">  1       -2 0.36740960E-02 0.13137746E+03</pdfrwt>
<totfact> 0.13408217E+04</totfact>
</mgrwt>
</event>
<event>
 7    1  0.4230786E-006  0.1282700E+03  0.7546771E-02  0.1243801E+00
          1   -1    0    0  501    0  0.00000000000E+00  0.00000000000E+00  0.73627059790E+02  0.73627059790E+02  0.00000000000E+00 0. -1.
         -1   -1    0    0    0  501 -0.00000000000E+00 -0.00000000000E+00 -0.20243831770E+03  0.20243831770E+03  0.00000000000E+00 0.  1.
         23    2    1    2    0    0  0.15414367104E+02  0.24307578944E+02 -0.12502892806E+03  0.17912405001E+03  0.12499892533E+03 0.  0.
          5    1    3    3  502    0 -0.11676681112E+02  0.21267732073E+02 -0.14366104744E+03  0.14577121753E+03  0.47000000000E+01 0.  1.
         -5    1    3    3    0  502  0.27091048216E+02  0.30398468715E+01  0.18632119372E+02  0.33352832484E+02  0.47000000000E+01 0.  1.
        -11    1    1    2    0    0 -0.32758511553E+02 -0.16358133609E+01 -0.39420009356E+02  0.51280923375E+02  0.00000000000E+00 0.  1.
         11    1    1    2    0    0  0.17344144449E+02 -0.22671765583E+02  0.35637679513E+02  0.45660404099E+02  0.00000000000E+00 0. -1.
<mgrwt>
<rscale>  0 0.11957444E+03</rscale>
<asrwt>0</asrwt>
<pdfrwt beam="1">  1        1 0.11327240E-01 0.12827000E+03</pdfrwt>
<pdfrwt beam="2">  1       -1 0.31144357E-01 0.12827000E+03</pdfrwt>
<totfact> 0.49378703E+03</totfact>
</mgrwt>
</event>
<event>
 6    1  0.4230786E-006  0.1623656E+03  0.7546771E-02  0.1202309E+00
         -2   -1    0    0    0  501 -0.00000000000E+00  0.00000000000E+00  0.60327033415E+02  0.60327033415E+02  0.00000000000E+00 0.  1.
          2   -1    0    0  501    0  0.00000000000E+00 -0.00000000000E+00 -0.46720441798E+03  0.46720441798E+03  0.00000000000E+00 0. -1.
          5    1    1    2  502    0 -0.36665880494E+02  0.54632229313E+02 -0.10043986107E+03  0.12016373398E+03  0.47000000000E+01 0. -1.
         -5    1    1    2    0  502  0.55978025792E+02  0.65360043913E+01  0.21337965510E+02  0.60445491950E+02  0.47000000000E+01 0.  1.
        -11    1    1    2    0    0 -0.98175866738E+01 -0.26434604790E+01  0.32149608007E+01  0.10663435861E+02  0.00000000000E+00 0.  1.
         11    1    1    2    0    0 -0.94945586244E+01 -0.58524773225E+02 -0.33099044980E+03  0.33625878960E+03  0.00000000000E+00 0. -1.
<mgrwt>
<rscale>  0 0.14851523E+03</rscale>
<asrwt>0</asrwt>
<pdfrwt beam="2">  1        2 0.71877601E-01 0.16236558E+03</pdfrwt>
<pdfrwt beam="1">  1       -2 0.92810823E-02 0.16236558E+03</pdfrwt>
<totfact> 0.48856237E+03</totfact>
</mgrwt>
</event>
<event>
 7    1  0.4230786E-006  0.1360509E+03  0.7546771E-02  0.1230761E+00
          1   -1    0    0  501    0  0.00000000000E+00  0.00000000000E+00  0.62946334292E+03  0.62946334292E+03  0.00000000000E+00 0. -1.
         -1   -1    0    0    0  501 -0.00000000000E+00 -0.00000000000E+00 -0.23265546646E+02  0.23265546646E+02  0.00000000000E+00 0.  1.
         23    2    1    2    0    0 -0.32768405617E+02  0.42557624737E+02  0.33370188798E+03  0.36037036331E+03  0.12499971552E+03 0.  0.
          5    1    3    3  502    0 -0.71699877410E+02 -0.74875587725E+01  0.16702434043E+03  0.18197844997E+03  0.47000000000E+01 0. -1.
         -5    1    3    3    0  502  0.38931471792E+02  0.50045183510E+02  0.16667754755E+03  0.17839191334E+03  0.47000000000E+01 0. -1.
        -11    1    1    2    0    0  0.16950901140E+01  0.28016495853E+02  0.88917324799E+02  0.93242093604E+02  0.00000000000E+00 0.  1.
         11    1    1    2    0    0  0.31073315503E+02 -0.70574120590E+02  0.18357858349E+03  0.19911643265E+03  0.00000000000E+00 0. -1.
<mgrwt>
<rscale>  0 0.12779760E+03</rscale>
<asrwt>0</asrwt>
<pdfrwt beam="1">  1        1 0.96840502E-01 0.13605090E+03</pdfrwt>
<pdfrwt beam="2">  1       -1 0.35793153E-02 0.13605090E+03</pdfrwt>
<totfact> 0.91367186E+03</totfact>
</mgrwt>
</event>
<event>
 7    1  0.4230786E-006  0.1269199E+03  0.7546771E-02  0.1246718E+00
          1   -1    0    0  501    0  0.00000000000E+00  0.00000000000E+00  0.18945602158E+03  0.18945602158E+03  0.00000000000E+00 0. -1.
         -1   -1    0    0    0  501 -0.00000000000E+00 -0.00000000000E+00 -0.65329169056E+02  0.65329169056E+02  0.00000000000E+00 0.  1.
         23    2    1    2    0    0 -0.15986805094E+02  0.15370726238E+02  0.84696453365E+02  0.15258493033E+03  0.12496733408E+03 0.  0.
          5    1    3    3  502    0 -0.39835023074E+01  0.54627606576E+02  0.95217136051E+02  0.10994742693E+03  0.47000000000E+01 0. -1.
         -5    1    3    3    0  502 -0.12003302787E+02 -0.39256880337E+02 -0.10520682686E+02  0.42637503395E+02  0.47000000000E+01 0. -1.
        -11    1    1    2    0    0  0.44464790054E+02 -0.21487695531E+02 -0.43933123601E+01  0.49579630972E+02  0.00000000000E+00 0.  1.
         11    1    1    2    0    0 -0.28477984960E+02  0.61169692927E+01  0.43823711518E+02  0.52620629338E+02  0.00000000000E+00 0. -1.
<mgrwt>
<rscale>  0 0.11783138E+03</rscale>
<asrwt>0</asrwt>
<pdfrwt beam="1">  1        1 0.29147080E-01 0.12691994E+03</pdfrwt>
<pdfrwt beam="2">  1       -1 0.10050641E-01 0.12691994E+03</pdfrwt>
<totfact> 0.89290789E+03</totfact>
</mgrwt>
</event>
<event>
 7    1  0.4230786E-006  0.1653672E+03  0.7546771E-02  0.1189791E+00
          1   -1    0    0  501    0  0.00000000000E+00  0.00000000000E+00  0.13044407694E+03  0.13044407694E+03  0.00000000000E+00 0. -1.
         -1   -1    0    0    0  501 -0.00000000000E+00 -0.00000000000E+00 -0.18086234508E+03  0.18086234508E+03  0.00000000000E+00 0.  1.
         23    2    1    2    0    0 -0.10734053089E+03 -0.14145480337E+02 -0.19508341011E+02  0.16651388968E+03  0.12499686356E+03 0.  0.
          5    1    3    3  502    0 -0.31192257195E+02  0.12705491086E+02  0.49594074791E+02  0.60133590172E+02  0.47000000000E+01 0.  1.
         -5    1    3    3    0  502 -0.76148273696E+02 -0.26850971422E+02 -0.69102415802E+02  0.10638029951E+03  0.47000000000E+01 0.  1.
        -11    1    1    2    0    0  0.26470383860E+02 -0.53668606622E+01 -0.52329420402E+02  0.58888476417E+02  0.00000000000E+00 0.  1.
         11    1    1    2    0    0  0.80870147031E+02  0.19512340999E+02  0.21419493277E+02  0.85904055924E+02  0.00000000000E+00 0. -1.
<mgrwt>
<rscale>  0 0.15903451E+03</rscale>
<asrwt>0</asrwt>
<pdfrwt beam="1">  1        1 0.20068319E-01 0.16536717E+03</pdfrwt>
<pdfrwt beam="2">  1       -1 0.27824976E-01 0.16536717E+03</pdfrwt>
<totfact> 0.28824533E+03</totfact>
</mgrwt>
</event>
<event>
 6    1  0.4230786E-006  0.1584798E+03  0.7546771E-02  0.1212935E+00
          2   -1    0    0  501    0  0.00000000000E+00  0.00000000000E+00  0.27593292458E+02  0.27593292458E+02  0.00000000000E+00 0. -1.
         -2   -1    0    0    0  501 -0.00000000000E+00 -0.00000000000E+00 -0.61299958282E+03  0.61299958282E+03  0.00000000000E+00 0.  1.
          5    1    1    2  502    0 -0.22577757797E+02  0.60187908868E+02 -0.62144533906E+02  0.89534198022E+02  0.47000000000E+01 0. -1.
         -5    1    1    2    0  502  0.22265669809E+02 -0.26586863296E+02 -0.35466444353E+03  0.35638683878E+03  0.47000000000E+01 0.  1.
        -11    1    1    2    0    0 -0.17709275172E+02 -0.57542502160E+02 -0.14337860947E+03  0.15550621735E+03  0.00000000000E+00 0.  1.
         11    1    1    2    0    0  0.18021363160E+02  0.23941456587E+02 -0.25218703452E+02  0.39165621117E+02  0.00000000000E+00 0. -1.
<mgrwt>
<rscale>  0 0.14029302E+03</rscale>
<asrwt>0</asrwt>
<pdfrwt beam="1">  1        2 0.42451223E-02 0.15847980E+03</pdfrwt>
<pdfrwt beam="2">  1       -2 0.94307619E-01 0.15847980E+03</pdfrwt>
<totfact> 0.18652853E+03</totfact>
</mgrwt>
</event>
<event>
 6    1  0.4230786E-006  0.1488959E+03  0.7546771E-02  0.1223284E+00
          1   -1    0    0  501    0  0.00000000000E+00  0.00000000000E+00  0.21964056090E+03  0.21964056090E+03  0.00000000000E+00 0. -1.
         -1   -1    0    0    0  501 -0.00000000000E+00 -0.00000000000E+00 -0.72266343471E+02  0.72266343471E+02  0.00000000000E+00 0.  1.
          5    1    1    2  502    0  0.78329835706E+02  0.11412714215E+02  0.21361111613E+02  0.82123080171E+02  0.47000000000E+01 0. -1.
         -5    1    1    2    0  502 -0.63476204550E+02 -0.26920896386E+02  0.30580182120E+02  0.75572486692E+02  0.47000000000E+01 0.  1.
        -11    1    1    2    0    0 -0.18455496604E+02 -0.33752028346E+02  0.18250480891E+02  0.42577985217E+02  0.00000000000E+00 0.  1.
         11    1    1    2    0    0  0.36018654485E+01  0.49260210517E+02  0.77182442808E+02  0.91633352294E+02  0.00000000000E+00 0. -1.
<mgrwt>
<rscale>  0 0.13285191E+03</rscale>
<asrwt>0</asrwt>
<pdfrwt beam="1">  1        1 0.33790855E-01 0.14889592E+03</pdfrwt>
<pdfrwt beam="2">  1       -1 0.11117899E-01 0.14889592E+03</pdfrwt>
<totfact> 0.64386493E+03</totfact>
</mgrwt>
</event>
<event>
 7    1  0.5885009E-006  0.2427283E+03  0.7546771E-02  0.1120665E+00
         -3   -1    0    0    0  501 -0.00000000000E+00  0.00000000000E+00  0.43991789050E+03  0.43991789050E+03  0.00000000000E+00 0.  1.
          3   -1    0    0  501    0  0.00000000000E+00 -0.00000000000E+00 -0.13075941758E+03  0.13075941758E+03  0.00000000000E+00 0. -1.
         23    2    1    2    0    0 -0.11273479898E+03  0.17487890737E+03  0.21734923722E+03  0.32581856558E+03  0.12500111844E+03 0.  0.
          5    1    3    3  502    0 -0.10205563106E+03  0.89189494947E+02  0.19316795159E+03  0.23602132395E+03  0.47000000000E+01 0.  1.
         -5    1    3    3    0  502 -0.10679167926E+02  0.85689412427E+02  0.24181285634E+02  0.89797241631E+02  0.47000000000E+01 0.  1.
        -11    1    1    2    0    0  0.11728195641E+03 -0.12016957209E+03  0.48053690433E+02  0.17465663606E+03  0.00000000000E+00 0.  1.
         11    1    1    2    0    0 -0.45471574248E+01 -0.54709335282E+02  0.43755545264E+02  0.70202106443E+02  0.00000000000E+00 0. -1.
<mgrwt>
<rscale>  0 0.23869569E+03</rscale>
<asrwt>0</asrwt>
<pdfrwt beam="2">  1        3 0.20116834E-01 0.24272834E+03</pdfrwt>
<pdfrwt beam="1">  1       -3 0.67679675E-01 0.24272834E+03</pdfrwt>
<totfact> 0.11795385E+02</totfact>
</mgrwt>
</event>
<event>
 7    1  0.7003109E-006  0.2350983E+03  0.7546771E-02  0.1126005E+00
          3   -1    0    0  501    0  0.00000000000E+00  0.00000000000E+00  0.45119067659E+03  0.45119067659E+03  0.00000000000E+00 0. -1.
         -3   -1    0    0    0  501 -0.00000000000E+00 -0.00000000000E+00 -0.11446471729E+03  0.11446471729E+03  0.00000000000E+00 0.  1.
         23    2    1    2    0    0 -0.43924492196E+02  0.19420972536E+03  0.15930222245E+03  0.28398663147E+03  0.12499772132E+03 0.  0.
          5    1    3    3  502    0  0.38061438252E+02  0.10680045230E+03  0.94452730877E+02  0.14764287339E+03  0.47000000000E+01 0.  1.
         -5    1    3    3    0  502 -0.81985930448E+02  0.87409273064E+02  0.64849491577E+02  0.13634375808E+03  0.47000000000E+01 0.  1.
        -11    1    1    2    0    0  0.27913180250E+01 -0.51443861061E+02  0.10373771126E+03  0.11582648676E+03  0.00000000000E+00 0. -1.
         11    1    1    2    0    0  0.41133174171E+02 -0.14276586430E+03  0.73686025587E+02  0.16584227565E+03  0.00000000000E+00 0.  1.
<mgrwt>
<rscale>  0 0.23090405E+03</rscale>
<asrwt>0</asrwt>
<pdfrwt beam="1">  1        3 0.69413949E-01 0.23509830E+03</pdfrwt>
<pdfrwt beam="2">  1       -3 0.17609957E-01 0.23509830E+03</pdfrwt>
<totfact> 0.14121156E+02</totfact>
</mgrwt>
</event>
<event>
 7    1  0.4230786E-006  0.1858026E+03  0.7546771E-02  0.1167586E+00
          2   -1    0    0  501    0  0.00000000000E+00  0.00000000000E+00  0.55214356878E+03  0.55214356878E+03  0.00000000000E+00 0. -1.
         -2   -1    0    0    0  501 -0.00000000000E+00 -0.00000000000E+00 -0.57142489637E+02  0.57142489637E+02  0.00000000000E+00 0.  1.
         23    2    1    2    0    0 -0.52520941244E+02 -0.12704025370E+03  0.21144120584E+03  0.28147824545E+03  0.12499977522E+03 0.  0.
          5    1    3    3  502    0 -0.88211805916E+01 -0.13722426929E+03  0.13525820097E+03  0.19293829127E+03  0.47000000000E+01 0. -1.
         -5    1    3    3    0  502 -0.43699760652E+02  0.10184015589E+02  0.76183004874E+02  0.88539954180E+02  0.47000000000E+01 0. -1.
        -11    1    1    2    0    0  0.13720465206E+02  0.76228847079E+02  0.23525995925E+03  0.24768192651E+03  0.00000000000E+00 0. -1.
         11    1    1    2    0    0  0.38800476037E+02  0.50811406621E+02  0.48299914049E+02  0.80125886457E+02  0.00000000000E+00 0.  1.
<mgrwt>
<rscale>  0 0.18022430E+03</rscale>
<asrwt>0</asrwt>
<pdfrwt beam="1">  1        2 0.84945161E-01 0.18580263E+03</pdfrwt>
<pdfrwt beam="2">  1       -2 0.87911526E-02 0.18580263E+03</pdfrwt>
<totfact> 0.44443082E+03</totfact>
</mgrwt>
</event>
<event>
 7    1  0.4230786E-006  0.1353748E+03  0.7546771E-02  0.1231838E+00
         -1   -1    0    0    0  501 -0.00000000000E+00  0.00000000000E+00  0.32340348567E+02  0.32340348567E+02  0.00000000000E+00 0.  1.
          1   -1    0    0  501    0  0.00000000000E+00 -0.00000000000E+00 -0.44732426677E+03  0.44732426677E+03  0.00000000000E+00 0. -1.
         23    2    1    2    0    0 -0.70065200591E+01  0.51502031363E+02 -0.23025088351E+03  0.26709886874E+03  0.12499914307E+03 0.  0.
          5    1    3    3  502    0 -0.33552544757E+01  0.11884623793E+02  0.14194326369E+02  0.19392547959E+02  0.47000000000E+01 0. -1.
         -5    1    3    3    0  502 -0.36512655833E+01  0.39617407570E+02 -0.24444520987E+03  0.24770632078E+03  0.47000000000E+01 0. -1.
        -11    1    1    2    0    0  0.34318843044E+02 -0.12616138687E+02 -0.14815097007E+03  0.15259639536E+03  0.00000000000E+00 0. -1.
         11    1    1    2    0    0 -0.27312322985E+02 -0.38885892676E+02 -0.36582064624E+02  0.59969351240E+02  0.00000000000E+00 0.  1.
<mgrwt>
<rscale>  0 0.12709032E+03</rscale>
<asrwt>0</asrwt>
<pdfrwt beam="2">  1        1 0.68819115E-01 0.13537480E+03</pdfrwt>
<pdfrwt beam="1">  1       -1 0.49754384E-02 0.13537480E+03</pdfrwt>
<totfact> 0.88428463E+03</totfact>
</mgrwt>
</event>
<event>
 7    1  0.4230786E-006  0.1321869E+03  0.7546771E-02  0.1236695E+00
         -2   -1    0    0    0  501 -0.00000000000E+00  0.00000000000E+00  0.57930767438E+02  0.57930767438E+02  0.00000000000E+00 0. -1.
          2   -1    0    0  501    0  0.00000000000E+00 -0.00000000000E+00 -0.24222218174E+03  0.24222218174E+03  0.00000000000E+00 0.  1.
         23    2    1    2    0    0 -0.30099942458E+02  0.30640888162E+02 -0.82171810824E+02  0.15564572967E+03  0.12501406364E+03 0.  0.
          5    1    3    3  502    0 -0.26971769847E+02 -0.41782216750E+02 -0.63216087745E+02  0.80570427298E+02  0.47000000000E+01 0.  1.
         -5    1    3    3    0  502 -0.31281726113E+01  0.72423104913E+02 -0.18955723079E+02  0.75075302374E+02  0.47000000000E+01 0.  1.
        -11    1    1    2    0    0  0.24359996128E+02 -0.62862526746E+02 -0.81726007367E+02  0.10594454663E+03  0.00000000000E+00 0. -1.
         11    1    1    2    0    0  0.57399463299E+01  0.32221638584E+02 -0.20393596109E+02  0.38562672874E+02  0.00000000000E+00 0.  1.
<mgrwt>
<rscale>  0 0.12396564E+03</rscale>
<asrwt>0</asrwt>
<pdfrwt beam="2">  1        2 0.37264951E-01 0.13218694E+03</pdfrwt>
<pdfrwt beam="1">  1       -2 0.89124257E-02 0.13218694E+03</pdfrwt>
<totfact> 0.10367501E+04</totfact>
</mgrwt>
</event>
<event>
 6    1  0.4230786E-006  0.1688759E+03  0.7546771E-02  0.1204273E+00
          1   -1    0    0  501    0  0.00000000000E+00  0.00000000000E+00  0.38681140823E+02  0.38681140823E+02  0.00000000000E+00 0. -1.
         -1   -1    0    0    0  501 -0.00000000000E+00 -0.00000000000E+00 -0.46165460507E+03  0.46165460507E+03  0.00000000000E+00 0.  1.
          5    1    1    2  502    0  0.16477738387E+01 -0.69617830315E+02 -0.16160586916E+03  0.17603381608E+03  0.47000000000E+01 0. -1.
         -5    1    1    2    0  502 -0.24687753669E+02  0.91752376312E+02 -0.13261346026E+03  0.16320662849E+03  0.47000000000E+01 0.  1.
        -11    1    1    2    0    0  0.49199412111E+02 -0.33296871883E+02 -0.50976815670E+02  0.78280901663E+02  0.00000000000E+00 0. -1.
         11    1    1    2    0    0 -0.26159432281E+02  0.11162325885E+02 -0.77777319153E+02  0.82814399660E+02  0.00000000000E+00 0.  1.
<mgrwt>
<rscale>  0 0.14694904E+03</rscale>
<asrwt>0</asrwt>
<pdfrwt beam="1">  1        1 0.59509447E-02 0.16887589E+03</pdfrwt>
<pdfrwt beam="2">  1       -1 0.71023786E-01 0.16887589E+03</pdfrwt>
<totfact> 0.26585448E+03</totfact>
</mgrwt>
</event>
<event>
 7    1  0.4230786E-006  0.1796877E+03  0.7546771E-02  0.1173471E+00
          1   -1    0    0  501    0  0.00000000000E+00  0.00000000000E+00  0.29702417851E+03  0.29702417851E+03  0.00000000000E+00 0. -1.
         -1   -1    0    0    0  501 -0.00000000000E+00 -0.00000000000E+00 -0.11659265713E+03  0.11659265713E+03  0.00000000000E+00 0.  1.
         23    2    1    2    0    0 -0.65775647629E+02  0.11102705394E+03  0.91240339568E+01  0.17991915347E+03  0.12503683961E+03 0.  0.
          5    1    3    3  502    0  0.10220275352E+02  0.55476995796E+02  0.51548166571E+02  0.76560136936E+02  0.47000000000E+01 0. -1.
         -5    1    3    3    0  502 -0.75995922981E+02  0.55550058148E+02 -0.42424132614E+02  0.10335901653E+03  0.47000000000E+01 0. -1.
        -11    1    1    2    0    0  0.17001218500E+02 -0.31637756700E+02 -0.30085546782E+01  0.36042204160E+02  0.00000000000E+00 0.  1.
         11    1    1    2    0    0  0.48774429130E+02 -0.79389297244E+02  0.17431604210E+03  0.19765547801E+03  0.00000000000E+00 0. -1.
<mgrwt>
<rscale>  0 0.17426525E+03</rscale>
<asrwt>0</asrwt>
<pdfrwt beam="1">  1        1 0.45696027E-01 0.17968766E+03</pdfrwt>
<pdfrwt beam="2">  1       -1 0.17937332E-01 0.17968766E+03</pdfrwt>
<totfact> 0.21076670E+03</totfact>
</mgrwt>
</event>
<event>
 7    1  0.4230786E-006  0.1890284E+03  0.7546771E-02  0.1164169E+00
         -2   -1    0    0    0  501 -0.00000000000E+00  0.00000000000E+00  0.92316887957E+02  0.92316887957E+02  0.00000000000E+00 0.  1.
          2   -1    0    0  501    0  0.00000000000E+00 -0.00000000000E+00 -0.42546113494E+03  0.42546113494E+03  0.00000000000E+00 0. -1.
         23    2    1    2    0    0 -0.14106226584E+03 -0.14344562120E+02 -0.63226681774E+02  0.19932223839E+03  0.12500964812E+03 0.  0.
          5    1    3    3  502    0 -0.10153766203E+02  0.29462406240E+02  0.20694421422E+02  0.37702538742E+02  0.47000000000E+01 0. -1.
         -5    1    3    3    0  502 -0.13090849963E+03 -0.43806968361E+02 -0.83921103196E+02  0.16161969965E+03  0.47000000000E+01 0. -1.
        -11    1    1    2    0    0  0.99929017734E+01 -0.18127460987E+02 -0.52852885067E+01  0.21363454830E+02  0.00000000000E+00 0.  1.
         11    1    1    2    0    0  0.13106936406E+03  0.32472023107E+02 -0.26463227670E+03  0.29709232968E+03  0.00000000000E+00 0. -1.
<mgrwt>
<rscale>  0 0.18380716E+03</rscale>
<asrwt>0</asrwt>
<pdfrwt beam="2">  1        2 0.65455558E-01 0.18902841E+03</pdfrwt>
<pdfrwt beam="1">  1       -2 0.14202598E-01 0.18902841E+03</pdfrwt>
<totfact> 0.27551983E+03</totfact>
</mgrwt>
</event>
<event>
 7    1  0.4230786E-006  0.1529016E+03  0.7546771E-02  0.1205649E+00
         -1   -1    0    0    0  501 -0.00000000000E+00  0.00000000000E+00  0.72014878630E+02  0.72014878630E+02  0.00000000000E+00 0.  1.
          1   -1    0    0  501    0  0.00000000000E+00 -0.00000000000E+00 -0.29016898216E+03  0.29016898216E+03  0.00000000000E+00 0. -1.
         23    2    1    2    0    0 -0.82893631115E+02 -0.29711310805E+02 -0.72632806977E+02  0.16927618823E+03  0.12499914873E+03 0.  0.
          5    1    3    3  502    0 -0.16280961073E+02 -0.31650943216E+02 -0.92791364311E+02  0.99494618902E+02  0.47000000000E+01 0. -1.
         -5    1    3    3    0  502 -0.66612670042E+02  0.19396324114E+01  0.20158557334E+02  0.69781569328E+02  0.47000000000E+01 0. -1.
        -11    1    1    2    0    0  0.54428166408E+02  0.60536928329E+02 -0.74142879933E+02  0.11011045198E+03  0.00000000000E+00 0.  1.
         11    1    1    2    0    0  0.28465464707E+02 -0.30825617525E+02 -0.71378416620E+02  0.82797220581E+02  0.00000000000E+00 0. -1.
<mgrwt>
<rscale>  0 0.14586436E+03</rscale>
<asrwt>0</asrwt>
<pdfrwt beam="2">  1        1 0.44641382E-01 0.15290161E+03</pdfrwt>
<pdfrwt beam="1">  1       -1 0.11079212E-01 0.15290161E+03</pdfrwt>
<totfact> 0.45892706E+03</totfact>
</mgrwt>
</event>
<event>
 7    1  0.4230786E-006  0.1578697E+03  0.7546771E-02  0.1198469E+00
         -1   -1    0    0    0  501 -0.00000000000E+00  0.00000000000E+00  0.77774407270E+02  0.77774407270E+02  0.00000000000E+00 0.  1.
          1   -1    0    0  501    0  0.00000000000E+00 -0.00000000000E+00 -0.33672156922E+03  0.33672156922E+03  0.00000000000E+00 0. -1.
         23    2    1    2    0    0  0.69689669729E+02  0.66648079263E+02 -0.49152225097E+02  0.16534445529E+03  0.12499692447E+03 0.  0.
          5    1    3    3  502    0  0.61531283270E+02  0.28843189677E+02  0.32048559801E+02  0.75280997582E+02  0.47000000000E+01 0.  1.
         -5    1    3    3    0  502  0.81583864589E+01  0.37804889586E+02 -0.81200784898E+02  0.90063457707E+02  0.47000000000E+01 0.  1.
        -11    1    1    2    0    0  0.51425837018E+01 -0.54836655074E+02 -0.61035326689E+02  0.82212018652E+02  0.00000000000E+00 0.  1.
         11    1    1    2    0    0 -0.74832253431E+02 -0.11811424189E+02 -0.14875961017E+03  0.16693950255E+03  0.00000000000E+00 0. -1.
<mgrwt>
<rscale>  0 0.15164272E+03</rscale>
<asrwt>0</asrwt>
<pdfrwt beam="2">  1        1 0.51803319E-01 0.15786972E+03</pdfrwt>
<pdfrwt beam="1">  1       -1 0.11965293E-01 0.15786972E+03</pdfrwt>
<totfact> 0.33912171E+03</totfact>
</mgrwt>
</event>
<event>
 7    1  0.4230786E-006  0.1288414E+03  0.7546771E-02  0.1241442E+00
         -2   -1    0    0    0  501 -0.00000000000E+00  0.00000000000E+00  0.14393127826E+03  0.14393127826E+03  0.00000000000E+00 0.  1.
          2   -1    0    0  501    0  0.00000000000E+00 -0.00000000000E+00 -0.10151535125E+03  0.10151535125E+03  0.00000000000E+00 0. -1.
         23    2    1    2    0    0  0.11382721744E+02 -0.29075911999E+02  0.62501388026E+02  0.14320103122E+03  0.12500054730E+03 0.  0.
          5    1    3    3  502    0 -0.25716715095E+02 -0.46543921745E+02  0.81767856508E+02  0.97651208106E+02  0.47000000000E+01 0.  1.
         -5    1    3    3    0  502  0.37099436839E+02  0.17468009746E+02 -0.19266468482E+02  0.45549823117E+02  0.47000000000E+01 0.  1.
        -11    1    1    2    0    0 -0.40541500038E+02  0.33743392112E+02  0.16464812313E+02  0.55256852797E+02  0.00000000000E+00 0.  1.
         11    1    1    2    0    0  0.29158778294E+02 -0.46674801131E+01 -0.36550273326E+02  0.46988745486E+02  0.00000000000E+00 0. -1.
<mgrwt>
<rscale>  0 0.12100864E+03</rscale>
<asrwt>0</asrwt>
<pdfrwt beam="2">  1        2 0.15617746E-01 0.12884142E+03</pdfrwt>
<pdfrwt beam="1">  1       -2 0.22143274E-01 0.12884142E+03</pdfrwt>
<totfact> 0.61814215E+03</totfact>
</mgrwt>
</event>
<event>
 7    1  0.4230786E-006  0.1483788E+03  0.7546771E-02  0.1214237E+00
         -3   -1    0    0    0  501 -0.00000000000E+00  0.00000000000E+00  0.47481878374E+03  0.47481878374E+03  0.00000000000E+00 0.  1.
          3   -1    0    0  501    0  0.00000000000E+00 -0.00000000000E+00 -0.42109630832E+02  0.42109630832E+02  0.00000000000E+00 0. -1.
         23    2    1    2    0    0  0.62810014750E+02  0.49461908730E+02  0.33258624647E+03  0.36418383485E+03  0.12499870343E+03 0.  0.
          5    1    3    3  502    0  0.48168306123E+02 -0.34144834151E+02  0.96142970258E+02  0.11292305409E+03  0.47000000000E+01 0.  1.
         -5    1    3    3    0  502  0.14641708627E+02  0.83606742881E+02  0.23644327621E+03  0.25126078077E+03  0.47000000000E+01 0.  1.
        -11    1    1    2    0    0 -0.25263086200E+02 -0.43481112540E+02  0.52789875855E+01  0.50563805058E+02  0.00000000000E+00 0. -1.
         11    1    1    2    0    0 -0.37546928551E+02 -0.59807961904E+01  0.94843918861E+02  0.10218077467E+03  0.00000000000E+00 0.  1.
<mgrwt>
<rscale>  0 0.13932723E+03</rscale>
<asrwt>0</asrwt>
<pdfrwt beam="2">  1        3 0.64784051E-02 0.14837875E+03</pdfrwt>
<pdfrwt beam="1">  1       -3 0.73049040E-01 0.14837875E+03</pdfrwt>
<totfact> 0.64063222E+02</totfact>
</mgrwt>
</event>
<event>
 7    1  0.4230786E-006  0.1295047E+03  0.7546771E-02  0.1243379E+00
         -1   -1    0    0    0  501 -0.00000000000E+00  0.00000000000E+00  0.41388799078E+02  0.41388799078E+02  0.00000000000E+00 0.  1.
          1   -1    0    0  501    0  0.00000000000E+00 -0.00000000000E+00 -0.34875452429E+03  0.34875452429E+03  0.00000000000E+00 0. -1.
         23    2    1    2    0    0  0.12188150749E+02  0.31591088469E+02 -0.10537811326E+03  0.16696112560E+03  0.12499969128E+03 0.  0.
          5    1    3    3  502    0  0.16148128387E+02  0.77525072595E+02 -0.46216664511E+02  0.91809416782E+02  0.47000000000E+01 0. -1.
         -5    1    3    3    0  502 -0.39599776379E+01 -0.45933984126E+02 -0.59161448752E+02  0.75151708823E+02  0.47000000000E+01 0. -1.
        -11    1    1    2    0    0 -0.30805089613E+02 -0.22322287511E+02 -0.19847863977E+03  0.20209158446E+03  0.00000000000E+00 0. -1.
         11    1    1    2    0    0  0.18616938864E+02 -0.92688009587E+01 -0.35089721854E+01  0.21090613307E+02  0.00000000000E+00 0.  1.
<mgrwt>
<rscale>  0 0.11982918E+03</rscale>
<asrwt>0</asrwt>
<pdfrwt beam="2">  1        1 0.53654541E-01 0.12950471E+03</pdfrwt>
<pdfrwt beam="1">  1       -1 0.63675077E-02 0.12950471E+03</pdfrwt>
<totfact> 0.83620133E+03</totfact>
</mgrwt>
</event>
<event>
 7    1  0.4230786E-006  0.1247857E+03  0.7546771E-02  0.1245549E+00
          1   -1    0    0  501    0  0.00000000000E+00  0.00000000000E+00  0.30008527759E+03  0.30008527759E+03  0.00000000000E+00 0. -1.
         -1   -1    0    0    0  501 -0.00000000000E+00 -0.00000000000E+00 -0.60701903597E+02  0.60701903597E+02  0.00000000000E+00 0.  1.
         23    2    1    2    0    0  0.25442373041E+02 -0.27069726280E+02  0.30408449664E+02  0.12843727524E+03  0.11912755951E+03 0.  0.
          5    1    3    3  502    0 -0.47772418420E+02 -0.99088236607E+01  0.17181823722E+02  0.51939328205E+02  0.47000000000E+01 0. -1.
         -5    1    3    3    0  502  0.73214791461E+02 -0.17160902619E+02  0.13226625942E+02  0.76497947039E+02  0.47000000000E+01 0.  1.
        -11    1    1    2    0    0  0.10676109209E+02 -0.18353143281E+02  0.72385448208E+01  0.22432425354E+02  0.00000000000E+00 0.  1.
         11    1    1    2    0    0 -0.36118482251E+02  0.45422869561E+02  0.20173637950E+03  0.20991748058E+03  0.00000000000E+00 0. -1.
<mgrwt>
<rscale>  0 0.11852561E+03</rscale>
<asrwt>0</asrwt>
<pdfrwt beam="1">  1        1 0.46166965E-01 0.12478566E+03</pdfrwt>
<pdfrwt beam="2">  1       -1 0.93387546E-02 0.12478566E+03</pdfrwt>
<totfact> 0.56496866E+03</totfact>
</mgrwt>
</event>
<event>
 7    1  0.4230786E-006  0.1276026E+03  0.7546771E-02  0.1245675E+00
         -2   -1    0    0    0  501 -0.00000000000E+00  0.00000000000E+00  0.30579605073E+02  0.30579605073E+02  0.00000000000E+00 0.  1.
          2   -1    0    0  501    0  0.00000000000E+00 -0.00000000000E+00 -0.41271926576E+03  0.41271926576E+03  0.00000000000E+00 0. -1.
         23    2    1    2    0    0  0.25433442927E+02  0.18362623050E+01 -0.18719613693E+03  0.22654979590E+03  0.12502873455E+03 0.  0.
          5    1    3    3  502    0 -0.46694211691E+02  0.18424440463E+02 -0.52502835672E+02  0.72790433200E+02  0.47000000000E+01 0. -1.
         -5    1    3    3    0  502  0.72127654618E+02 -0.16588178158E+02 -0.13469330126E+03  0.15375936270E+03  0.47000000000E+01 0. -1.
        -11    1    1    2    0    0 -0.83681569007E+01 -0.43796778928E+02 -0.62513925253E+02  0.76786553152E+02  0.00000000000E+00 0. -1.
         11    1    1    2    0    0 -0.17065286026E+02  0.41960516623E+02 -0.13242959851E+03  0.13996252178E+03  0.00000000000E+00 0.  1.
<mgrwt>
<rscale>  0 0.11845055E+03</rscale>
<asrwt>0</asrwt>
<pdfrwt beam="2">  1        2 0.63495273E-01 0.12760257E+03</pdfrwt>
<pdfrwt beam="1">  1       -2 0.47045545E-02 0.12760257E+03</pdfrwt>
<totfact> 0.15534522E+04</totfact>
</mgrwt>
</event>
<event>
 7    1  0.4230786E-006  0.1451406E+03  0.7546771E-02  0.1216352E+00
          2   -1    0    0  501    0  0.00000000000E+00  0.00000000000E+00  0.70903480994E+03  0.70903480994E+03  0.00000000000E+00 0. -1.
         -2   -1    0    0    0  501 -0.00000000000E+00 -0.00000000000E+00 -0.24571833508E+02  0.24571833508E+02  0.00000000000E+00 0.  1.
         23    2    1    2    0    0  0.82425955341E+01  0.73359534461E+02  0.34583974642E+03  0.37506121581E+03  0.12496488997E+03 0.  0.
          5    1    3    3  502    0 -0.49306937115E+02  0.70596372115E+02  0.18399426972E+03  0.20320187768E+03  0.47000000000E+01 0. -1.
         -5    1    3    3    0  502  0.57549532649E+02  0.27631623459E+01  0.16184547670E+03  0.17185933813E+03  0.47000000000E+01 0. -1.
        -11    1    1    2    0    0 -0.40333242209E+02 -0.52279534865E+01  0.89926483943E+02  0.98695868400E+02  0.00000000000E+00 0. -1.
         11    1    1    2    0    0  0.32090646675E+02 -0.68131580974E+02  0.24869674607E+03  0.25984955923E+03  0.00000000000E+00 0.  1.
<mgrwt>
<rscale>  0 0.13777677E+03</rscale>
<asrwt>0</asrwt>
<pdfrwt beam="1">  1        2 0.10908226E+00 0.14514057E+03</pdfrwt>
<pdfrwt beam="2">  1       -2 0.37802826E-02 0.14514057E+03</pdfrwt>
<totfact> 0.11855103E+04</totfact>
</mgrwt>
</event>
<event>
 7    1  0.4230786E-006  0.1919025E+03  0.7546771E-02  0.1161201E+00
          2   -1    0    0  501    0  0.00000000000E+00  0.00000000000E+00  0.32332582226E+03  0.32332582226E+03  0.00000000000E+00 0.  1.
         -2   -1    0    0    0  501 -0.00000000000E+00 -0.00000000000E+00 -0.10517755700E+03  0.10517755700E+03  0.00000000000E+00 0. -1.
         23    2    1    2    0    0 -0.13920765711E+03 -0.42696532600E+02  0.83537849622E+02  0.20929677277E+03  0.12499920431E+03 0.  0.
          5    1    3    3  502    0 -0.54242975164E+02 -0.36922782572E+02 -0.25768768570E+02  0.70652046405E+02  0.47000000000E+01 0. -1.
         -5    1    3    3    0  502 -0.84964681945E+02 -0.57737500279E+01  0.10930661819E+03  0.13864472636E+03  0.47000000000E+01 0. -1.
        -11    1    1    2    0    0  0.13437932319E+03  0.18880026771E+02  0.13928543795E+03  0.19445999881E+03  0.00000000000E+00 0.  1.
         11    1    1    2    0    0  0.48283339243E+01  0.23816505829E+02 -0.46750223183E+01  0.24746607688E+02  0.00000000000E+00 0. -1.
<mgrwt>
<rscale>  0 0.18699356E+03</rscale>
<asrwt>0</asrwt>
<pdfrwt beam="1">  1        2 0.49742434E-01 0.19190249E+03</pdfrwt>
<pdfrwt beam="2">  1       -2 0.16181163E-01 0.19190249E+03</pdfrwt>
<totfact> 0.29888053E+03</totfact>
</mgrwt>
</event>
<event>
 7    1  0.4230786E-006  0.1266600E+03  0.7546771E-02  0.1255705E+00
         -1   -1    0    0    0  501 -0.00000000000E+00  0.00000000000E+00  0.98049111277E+03  0.98049111277E+03  0.00000000000E+00 0.  1.
          1   -1    0    0  501    0  0.00000000000E+00 -0.00000000000E+00 -0.17708371406E+02  0.17708371406E+02  0.00000000000E+00 0. -1.
         23    2    1    2    0    0  0.35252550893E+02 -0.49310034694E+02  0.85529008607E+03  0.86461776362E+03  0.11121386592E+03 0.  0.
          5    1    3    3  502    0  0.58772505560E+02  0.11511266723E+02  0.46938428140E+03  0.47321285939E+03  0.47000000000E+01 0. -1.
         -5    1    3    3    0  502 -0.23519954667E+02 -0.60821301417E+02  0.38590580467E+03  0.39140490423E+03  0.47000000000E+01 0.  1.
        -11    1    1    2    0    0 -0.29943518646E+02  0.59549002700E+02  0.98612116627E+02  0.11902540728E+03  0.00000000000E+00 0. -1.
         11    1    1    2    0    0 -0.53090322467E+01 -0.10238968007E+02  0.88805386627E+01  0.14556313276E+02  0.00000000000E+00 0.  1.
<mgrwt>
<rscale>  0 0.11266933E+03</rscale>
<asrwt>0</asrwt>
<pdfrwt beam="2">  1        1 0.27243656E-02 0.12665996E+03</pdfrwt>
<pdfrwt beam="1">  1       -1 0.15084474E+00 0.12665996E+03</pdfrwt>
<totfact> 0.14150244E+03</totfact>
</mgrwt>
</event>
<event>
 7    1  0.4230786E-006  0.2936206E+03  0.7546771E-02  0.1090117E+00
          2   -1    0    0  501    0  0.00000000000E+00  0.00000000000E+00  0.18780731285E+03  0.18780731285E+03  0.00000000000E+00 0. -1.
         -2   -1    0    0    0  501 -0.00000000000E+00 -0.00000000000E+00 -0.46302621756E+03  0.46302621756E+03  0.00000000000E+00 0.  1.
         23    2    1    2    0    0 -0.14358424264E+03  0.22354052410E+03 -0.21344525789E+03  0.36300402167E+03  0.12500496384E+03 0.  0.
          5    1    3    3  502    0 -0.54579100250E+02  0.18868817359E+03 -0.16003610670E+03  0.25340826838E+03  0.47000000000E+01 0. -1.
         -5    1    3    3    0  502 -0.89005142395E+02  0.34852350511E+02 -0.53409151188E+02  0.10959575329E+03  0.47000000000E+01 0. -1.
        -11    1    1    2    0    0  0.67857187964E+02 -0.15348982726E+03 -0.45215301815E+00  0.16782112344E+03  0.00000000000E+00 0.  1.
         11    1    1    2    0    0  0.75727054680E+02 -0.70050696840E+02 -0.61321493803E+02  0.12000838529E+03  0.00000000000E+00 0. -1.
<mgrwt>
<rscale>  0 0.29044490E+03</rscale>
<asrwt>0</asrwt>
<pdfrwt beam="1">  1        2 0.28893433E-01 0.29362057E+03</pdfrwt>
<pdfrwt beam="2">  1       -2 0.71234803E-01 0.29362057E+03</pdfrwt>
<totfact> 0.33725041E+02</totfact>
</mgrwt>
</event>
<event>
 7    1  0.4230786E-006  0.1910247E+03  0.7546771E-02  0.1162305E+00
         -1   -1    0    0    0  501 -0.00000000000E+00  0.00000000000E+00  0.34226906855E+02  0.34226906855E+02  0.00000000000E+00 0.  1.
          1   -1    0    0  501    0  0.00000000000E+00 -0.00000000000E+00 -0.95722856172E+03  0.95722856172E+03  0.00000000000E+00 0. -1.
         23    2    1    2    0    0  0.14095754329E+03  0.31532274932E+02 -0.49220430988E+03  0.52797303379E+03  0.12500851321E+03 0.  0.
          5    1    3    3  502    0  0.11348436697E+03  0.28947426235E+02 -0.18180506640E+03  0.21631418632E+03  0.47000000000E+01 0. -1.
         -5    1    3    3    0  502  0.27473176323E+02  0.25848486966E+01 -0.31039924347E+03  0.31165884747E+03  0.47000000000E+01 0. -1.
        -11    1    1    2    0    0 -0.11307087891E+03  0.17568128716E+02 -0.28205535417E+03  0.30438279456E+03  0.00000000000E+00 0.  1.
         11    1    1    2    0    0 -0.27886664378E+02 -0.49100403647E+02 -0.14874199081E+03  0.15909964022E+03  0.00000000000E+00 0. -1.
<mgrwt>
<rscale>  0 0.18579972E+03</rscale>
<asrwt>0</asrwt>
<pdfrwt beam="2">  1        1 0.14726592E+00 0.19102472E+03</pdfrwt>
<pdfrwt beam="1">  1       -1 0.52656785E-02 0.19102472E+03</pdfrwt>
<totfact> 0.27856580E+03</totfact>
</mgrwt>
</event>
<event>
 7    1  0.4230786E-006  0.1650546E+03  0.7546771E-02  0.1190035E+00
         -2   -1    0    0    0  501 -0.00000000000E+00  0.00000000000E+00  0.59867168718E+03  0.59867168718E+03  0.00000000000E+00 0. -1.
          2   -1    0    0  501    0  0.00000000000E+00 -0.00000000000E+00 -0.40416246031E+02  0.40416246031E+02  0.00000000000E+00 0.  1.
         23    2    1    2    0    0  0.10433769903E+02  0.10728555658E+03  0.35426689680E+03  0.39082996002E+03  0.12499587704E+03 0.  0.
          5    1    3    3  502    0  0.25255054291E+02  0.81301683747E+00  0.20619420675E+03  0.20778984494E+03  0.47000000000E+01 0.  1.
         -5    1    3    3    0  502 -0.14821284388E+02  0.10647253974E+03  0.14807269005E+03  0.18304011508E+03  0.47000000000E+01 0.  1.
        -11    1    1    2    0    0 -0.12980038069E+02 -0.38275966629E+02  0.16303701025E+03  0.16797201470E+03  0.00000000000E+00 0.  1.
         11    1    1    2    0    0  0.25462681654E+01 -0.69009589946E+02  0.40951534094E+02  0.80285958491E+02  0.00000000000E+00 0. -1.
<mgrwt>
<rscale>  0 0.15882016E+03</rscale>
<asrwt>0</asrwt>
<pdfrwt beam="2">  1        2 0.62178845E-02 0.16505461E+03</pdfrwt>
<pdfrwt beam="1">  1       -2 0.92103330E-01 0.16505461E+03</pdfrwt>
<totfact> 0.11966997E+03</totfact>
</mgrwt>
</event>
<event>
 7    1  0.4230786E-006  0.2166284E+03  0.7546771E-02  0.1139730E+00
         -1   -1    0    0    0  501 -0.00000000000E+00  0.00000000000E+00  0.11053139652E+03  0.11053139652E+03  0.00000000000E+00 0.  1.
          1   -1    0    0  501    0  0.00000000000E+00 -0.00000000000E+00 -0.40294535095E+03  0.40294535095E+03  0.00000000000E+00 0. -1.
         23    2    1    2    0    0  0.17588304504E+03  0.20097298634E+02 -0.11064727369E+03  0.24325020955E+03  0.12485631072E+03 0.  0.
          5    1    3    3  502    0  0.46550237551E+02 -0.50298101044E+02 -0.43792926563E+02  0.81466152491E+02  0.47000000000E+01 0.  1.
         -5    1    3    3    0  502  0.12933280749E+03  0.70395399678E+02 -0.66854347129E+02  0.16178405706E+03  0.47000000000E+01 0.  1.
        -11    1    1    2    0    0 -0.15059872029E+02 -0.22911170895E+02 -0.67691655855E+02  0.73033429125E+02  0.00000000000E+00 0. -1.
         11    1    1    2    0    0 -0.16082317301E+03  0.28138722608E+01 -0.11407502488E+03  0.19719310880E+03  0.00000000000E+00 0.  1.
<mgrwt>
<rscale>  0 0.21233484E+03</rscale>
<asrwt>0</asrwt>
<pdfrwt beam="2">  1        1 0.61991593E-01 0.21662836E+03</pdfrwt>
<pdfrwt beam="1">  1       -1 0.17004830E-01 0.21662836E+03</pdfrwt>
<totfact> 0.15691401E+03</totfact>
</mgrwt>
</event>
<event>
 7    1  0.4230786E-006  0.2069034E+03  0.7546771E-02  0.1147919E+00
         -2   -1    0    0    0  501 -0.00000000000E+00  0.00000000000E+00  0.36728624771E+02  0.36728624771E+02  0.00000000000E+00 0.  1.
          2   -1    0    0  501    0  0.00000000000E+00 -0.00000000000E+00 -0.12606866871E+04  0.12606866871E+04  0.00000000000E+00 0. -1.
         23    2    1    2    0    0 -0.68927634548E+02 -0.14983376502E+03 -0.38040473158E+03  0.43303206206E+03  0.12493130522E+03 0.  0.
          5    1    3    3  502    0 -0.67684239603E+02 -0.35477895110E+02 -0.23982031938E+03  0.25174533346E+03  0.47000000000E+01 0. -1.
         -5    1    3    3    0  502 -0.12433949452E+01 -0.11435586991E+03 -0.14058441219E+03  0.18128672860E+03  0.47000000000E+01 0. -1.
        -11    1    1    2    0    0  0.39722591692E+02  0.13163684017E+03 -0.78080305841E+03  0.79281748089E+03  0.00000000000E+00 0. -1.
         11    1    1    2    0    0  0.29205042856E+02  0.18196924851E+02 -0.62750272388E+02  0.71565768961E+02  0.00000000000E+00 0.  1.
<mgrwt>
<rscale>  0 0.20217181E+03</rscale>
<asrwt>0</asrwt>
<pdfrwt beam="2">  1        2 0.19395181E+00 0.20690338E+03</pdfrwt>
<pdfrwt beam="1">  1       -2 0.56505572E-02 0.20690338E+03</pdfrwt>
<totfact> 0.29867170E+03</totfact>
</mgrwt>
</event>
<event>
 7    1  0.4230786E-006  0.1736057E+03  0.7546771E-02  0.1180203E+00
          2   -1    0    0  501    0  0.00000000000E+00  0.00000000000E+00  0.75442512086E+03  0.75442512086E+03  0.00000000000E+00 0. -1.
         -2   -1    0    0    0  501 -0.00000000000E+00 -0.00000000000E+00 -0.41771475250E+02  0.41771475250E+02  0.00000000000E+00 0.  1.
         23    2    1    2    0    0 -0.11512227321E+03  0.35526639744E+02  0.21676470137E+03  0.27771544994E+03  0.12499462171E+03 0.  0.
          5    1    3    3  502    0 -0.98357229262E+02 -0.99918018356E+01  0.20490718086E+03  0.22755883508E+03  0.47000000000E+01 0.  1.
         -5    1    3    3    0  502 -0.16765043944E+02  0.45518441579E+02  0.11857520508E+02  0.50156614866E+02  0.47000000000E+01 0.  1.
        -11    1    1    2    0    0  0.14039922554E+02 -0.46206233601E+02  0.19484690380E+03  0.20074225108E+03  0.00000000000E+00 0. -1.
         11    1    1    2    0    0  0.10108235065E+03  0.10679593857E+02  0.30104204044E+03  0.31773889508E+03  0.00000000000E+00 0.  1.
<mgrwt>
<rscale>  0 0.16776152E+03</rscale>
<asrwt>0</asrwt>
<pdfrwt beam="1">  1        2 0.11606539E+00 0.17360569E+03</pdfrwt>
<pdfrwt beam="2">  1       -2 0.64263814E-02 0.17360569E+03</pdfrwt>
<totfact> 0.49894542E+03</totfact>
</mgrwt>
</event>
<event>
 7    1  0.4230786E-006  0.2249771E+03  0.7546771E-02  0.1133433E+00
          1   -1    0    0  501    0  0.00000000000E+00  0.00000000000E+00  0.14678289223E+03  0.14678289223E+03  0.00000000000E+00 0. -1.
         -1   -1    0    0    0  501 -0.00000000000E+00 -0.00000000000E+00 -0.32294332554E+03  0.32294332554E+03  0.00000000000E+00 0.  1.
         23    2    1    2    0    0 -0.17666478737E+03  0.61468078022E+02 -0.66510648036E+02  0.23460254202E+03  0.12500365878E+03 0.  0.
          5    1    3    3  502    0 -0.18840297884E+03  0.45421251059E+02 -0.34914513809E+02  0.19697686604E+03  0.47000000000E+01 0. -1.
         -5    1    3    3    0  502  0.11738191470E+02  0.16046826963E+02 -0.31596134227E+02  0.37625675976E+02  0.47000000000E+01 0. -1.
        -11    1    1    2    0    0  0.54998729600E+02 -0.42931673431E+02  0.77603069464E+00  0.69775289787E+02  0.00000000000E+00 0. -1.
         11    1    1    2    0    0  0.12166605777E+03 -0.18536404591E+02 -0.11042581597E+03  0.16534838596E+03  0.00000000000E+00 0.  1.
<mgrwt>
<rscale>  0 0.22060462E+03</rscale>
<asrwt>0</asrwt>
<pdfrwt beam="1">  1        1 0.22581983E-01 0.22497708E+03</pdfrwt>
<pdfrwt beam="2">  1       -1 0.49683588E-01 0.22497708E+03</pdfrwt>
<totfact> 0.90586903E+02</totfact>
</mgrwt>
</event>
<event>
 7    1  0.4230786E-006  0.3771936E+03  0.7546771E-02  0.1051976E+00
         -2   -1    0    0    0  501 -0.00000000000E+00  0.00000000000E+00  0.47488244867E+02  0.47488244867E+02  0.00000000000E+00 0.  1.
          2   -1    0    0  501    0  0.00000000000E+00 -0.00000000000E+00 -0.74900114808E+03  0.74900114808E+03  0.00000000000E+00 0. -1.
         23    2    1    2    0    0 -0.97338121059E+02 -0.18067051567E+02 -0.14565574930E+03  0.21596317911E+03  0.12499347688E+03 0.  0.
          5    1    3    3  502    0  0.24443573252E+02 -0.38122428425E+01 -0.63460026656E+02  0.68273614611E+02  0.47000000000E+01 0.  1.
         -5    1    3    3    0  502 -0.12178169431E+03 -0.14254808724E+02 -0.82195722644E+02  0.14768956450E+03  0.47000000000E+01 0.  1.
        -11    1    1    2    0    0  0.64633232496E+02 -0.55742716705E+02 -0.24875468465E+03  0.26298973049E+03  0.00000000000E+00 0.  1.
         11    1    1    2    0    0  0.32704888563E+02  0.73809768271E+02 -0.30710246926E+03  0.31753648335E+03  0.00000000000E+00 0. -1.
<mgrwt>
<rscale>  0 0.37719358E+03</rscale>
<asrwt>0</asrwt>
<pdfrwt beam="2">  1        2 0.11523094E+00 0.37719358E+03</pdfrwt>
<pdfrwt beam="1">  1       -2 0.73058842E-02 0.37719358E+03</pdfrwt>
<totfact> 0.42255820E+03</totfact>
</mgrwt>
</event>
<event>
 7    1  0.4230786E-006  0.1319263E+03  0.7546771E-02  0.1237441E+00
         -2   -1    0    0    0  501 -0.00000000000E+00  0.00000000000E+00  0.26408076974E+02  0.26408076974E+02  0.00000000000E+00 0.  1.
          2   -1    0    0  501    0  0.00000000000E+00 -0.00000000000E+00 -0.58790373149E+03  0.58790373149E+03  0.00000000000E+00 0. -1.
         23    2    1    2    0    0 -0.29984464974E+02 -0.29648314135E+02 -0.20564659144E+03  0.24432574219E+03  0.12500582809E+03 0.  0.
          5    1    3    3  502    0  0.18686523055E+02 -0.22211549195E+02 -0.19027325340E+03  0.19253191948E+03  0.47000000000E+01 0. -1.
         -5    1    3    3    0  502 -0.48670988028E+02 -0.74367649395E+01 -0.15373338049E+02  0.51793822713E+02  0.47000000000E+01 0. -1.
        -11    1    1    2    0    0  0.35478181115E+02  0.51888742106E+02 -0.32779106070E+03  0.33376357256E+03  0.00000000000E+00 0. -1.
         11    1    1    2    0    0 -0.54937161414E+01 -0.22240427972E+02 -0.28058002367E+02  0.36222493705E+02  0.00000000000E+00 0.  1.
<mgrwt>
<rscale>  0 0.12349459E+03</rscale>
<asrwt>0</asrwt>
<pdfrwt beam="2">  1        2 0.90446718E-01 0.13192630E+03</pdfrwt>
<pdfrwt beam="1">  1       -2 0.40627815E-02 0.13192630E+03</pdfrwt>
<totfact> 0.13153117E+04</totfact>
</mgrwt>
</event>
<event>
 7    1  0.4230786E-006  0.1366185E+03  0.7546771E-02  0.1229294E+00
         -2   -1    0    0    0  501 -0.00000000000E+00  0.00000000000E+00  0.35880143705E+02  0.35880143705E+02  0.00000000000E+00 0.  1.
          2   -1    0    0  501    0  0.00000000000E+00 -0.00000000000E+00 -0.48679302927E+03  0.48679302927E+03  0.00000000000E+00 0. -1.
         23    2    1    2    0    0 -0.49877709454E+02 -0.23419554458E+02 -0.14933341592E+03  0.20239830213E+03  0.12501336794E+03 0.  0.
          5    1    3    3  502    0 -0.83105866326E+02 -0.35052837297E+02 -0.66157386329E+02  0.11195613510E+03  0.47000000000E+01 0. -1.
         -5    1    3    3    0  502  0.33228156872E+02  0.11633282840E+02 -0.83176029589E+02  0.90442167030E+02  0.47000000000E+01 0. -1.
        -11    1    1    2    0    0  0.99845010633E+01 -0.35242123514E+02 -0.92530607256E+02  0.99516887061E+02  0.00000000000E+00 0.  1.
         11    1    1    2    0    0  0.39893208391E+02  0.58661677971E+02 -0.20904886239E+03  0.22075798378E+03  0.00000000000E+00 0. -1.
<mgrwt>
<rscale>  0 0.12876860E+03</rscale>
<asrwt>0</asrwt>
<pdfrwt beam="2">  1        2 0.74891231E-01 0.13661846E+03</pdfrwt>
<pdfrwt beam="1">  1       -2 0.55200224E-02 0.13661846E+03</pdfrwt>
<totfact> 0.10276660E+04</totfact>
</mgrwt>
</event>
<event>
 7    1  0.4230786E-006  0.1297312E+03  0.7546771E-02  0.1242282E+00
          1   -1    0    0  501    0  0.00000000000E+00  0.00000000000E+00  0.30360643868E+03  0.30360643868E+03  0.00000000000E+00 0. -1.
         -1   -1    0    0    0  501 -0.00000000000E+00 -0.00000000000E+00 -0.42257592106E+02  0.42257592106E+02  0.00000000000E+00 0.  1.
         23    2    1    2    0    0 -0.26297529751E+02 -0.22632535965E+02  0.14166454082E+03  0.19209116828E+03  0.12500553207E+03 0.  0.
          5    1    3    3  502    0  0.82090955560E+01 -0.19432843026E+02  0.15361943154E+03  0.15513234474E+03  0.47000000000E+01 0.  1.
         -5    1    3    3    0  502 -0.34506625307E+02 -0.31996929390E+01 -0.11954890718E+02  0.36958823534E+02  0.47000000000E+01 0.  1.
        -11    1    1    2    0    0 -0.21995967580E+02 -0.65191063912E+00  0.89667548100E+02  0.92328309632E+02  0.00000000000E+00 0. -1.
         11    1    1    2    0    0  0.48293497331E+02  0.23284446604E+02  0.30016757646E+02  0.61444552873E+02  0.00000000000E+00 0.  1.
<mgrwt>
<rscale>  0 0.12049540E+03</rscale>
<asrwt>0</asrwt>
<pdfrwt beam="1">  1        1 0.46708681E-01 0.12973116E+03</pdfrwt>
<pdfrwt beam="2">  1       -1 0.65011682E-02 0.12973116E+03</pdfrwt>
<totfact> 0.96290523E+03</totfact>
</mgrwt>
</event>
<event>
 7    1  0.4230786E-006  0.1488165E+03  0.7546771E-02  0.1212243E+00
          1   -1    0    0  501    0  0.00000000000E+00  0.00000000000E+00  0.17337456273E+03  0.17337456273E+03  0.00000000000E+00 0. -1.
         -1   -1    0    0    0  501 -0.00000000000E+00 -0.00000000000E+00 -0.15319680345E+03  0.15319680345E+03  0.00000000000E+00 0.  1.
         23    2    1    2    0    0  0.33272780520E+02  0.73610406895E+02 -0.81641236219E+02  0.16973991442E+03  0.12498310754E+03 0.  0.
          5    1    3    3  502    0  0.20947612820E+02 -0.26147266374E+02 -0.56769151035E+02  0.66085615159E+02  0.47000000000E+01 0.  1.
         -5    1    3    3    0  502  0.12325167700E+02  0.99757673269E+02 -0.24872085184E+02  0.10365429927E+03  0.47000000000E+01 0.  1.
        -11    1    1    2    0    0  0.10262418254E+01 -0.65748926490E+02  0.21566361642E+02  0.69203196901E+02  0.00000000000E+00 0.  1.
         11    1    1    2    0    0 -0.34299022346E+02 -0.78614804049E+01  0.80252633860E+02  0.87628254858E+02  0.00000000000E+00 0. -1.
<mgrwt>
<rscale>  0 0.14081051E+03</rscale>
<asrwt>0</asrwt>
<pdfrwt beam="1">  1        1 0.26673010E-01 0.14881649E+03</pdfrwt>
<pdfrwt beam="2">  1       -1 0.23568739E-01 0.14881649E+03</pdfrwt>
<totfact> 0.26335905E+03</totfact>
</mgrwt>
</event>
<event>
 7    1  0.4230786E-006  0.1372495E+03  0.7546771E-02  0.1229183E+00
          2   -1    0    0  501    0  0.00000000000E+00  0.00000000000E+00  0.12032614160E+03  0.12032614160E+03  0.00000000000E+00 0. -1.
         -2   -1    0    0    0  501 -0.00000000000E+00 -0.00000000000E+00 -0.14277158083E+03  0.14277158083E+03  0.00000000000E+00 0.  1.
         23    2    1    2    0    0 -0.23288047432E+02  0.51660986803E+02 -0.60403736070E+02  0.14995345238E+03  0.12500494326E+03 0.  0.
          5    1    3    3  502    0  0.51132018461E+01  0.51065778587E+02 -0.93083887222E+02  0.10639811388E+03  0.47000000000E+01 0.  1.
         -5    1    3    3    0  502 -0.28401249278E+02  0.59520821622E+00  0.32680151152E+02  0.43555338510E+02  0.47000000000E+01 0.  1.
        -11    1    1    2    0    0  0.89112592564E+01 -0.71778241473E+02  0.57756012165E+01  0.72559520808E+02  0.00000000000E+00 0.  1.
         11    1    1    2    0    0  0.14376788176E+02  0.20117254669E+02  0.32182695624E+02  0.40584749246E+02  0.00000000000E+00 0. -1.
<mgrwt>
<rscale>  0 0.12884251E+03</rscale>
<asrwt>0</asrwt>
<pdfrwt beam="1">  1        2 0.18511714E-01 0.13724950E+03</pdfrwt>
<pdfrwt beam="2">  1       -2 0.21964859E-01 0.13724950E+03</pdfrwt>
<totfact> 0.51749437E+03</totfact>
</mgrwt>
</event>
<event>
 7    1  0.4230786E-006  0.1638967E+03  0.7546771E-02  0.1191951E+00
          1   -1    0    0  501    0  0.00000000000E+00  0.00000000000E+00  0.12300352371E+04  0.12300352371E+04  0.00000000000E+00 0. -1.
         -1   -1    0    0    0  501 -0.00000000000E+00 -0.00000000000E+00 -0.18596613722E+02  0.18596613722E+02  0.00000000000E+00 0.  1.
         23    2    1    2    0    0 -0.10468069353E+03  0.16036896271E+02  0.66811986459E+03  0.68792898726E+03  0.12508760298E+03 0.  0.
          5    1    3    3  502    0 -0.20692064577E+02 -0.10208233888E+02  0.47580216755E+03  0.47638446892E+03  0.47000000000E+01 0.  1.
         -5    1    3    3    0  502 -0.83988628951E+02  0.26245130159E+02  0.19231769703E+03  0.21154451835E+03  0.47000000000E+01 0.  1.
        -11    1    1    2    0    0  0.74445064983E+02 -0.39975976627E+02  0.47313599737E+03  0.48062232409E+03  0.00000000000E+00 0.  1.
         11    1    1    2    0    0  0.30235628545E+02  0.23939080356E+02  0.70182761462E+02  0.80080539510E+02  0.00000000000E+00 0. -1.
<mgrwt>
<rscale>  0 0.15715165E+03</rscale>
<asrwt>0</asrwt>
<pdfrwt beam="1">  1        1 0.18923613E+00 0.16389673E+03</pdfrwt>
<pdfrwt beam="2">  1       -1 0.28610185E-02 0.16389673E+03</pdfrwt>
<totfact> 0.43606140E+03</totfact>
</mgrwt>
</event>
<event>
 7    1  0.4230786E-006  0.2369049E+03  0.7546771E-02  0.1124556E+00
          2   -1    0    0  501    0  0.00000000000E+00  0.00000000000E+00  0.53120151428E+03  0.53120151428E+03  0.00000000000E+00 0. -1.
         -2   -1    0    0    0  501 -0.00000000000E+00 -0.00000000000E+00 -0.10974535303E+03  0.10974535303E+03  0.00000000000E+00 0.  1.
         23    2    1    2    0    0  0.19887200429E+03 -0.30803829519E+02  0.11657883577E+03  0.26403515677E+03  0.12499995623E+03 0.  0.
          5    1    3    3  502    0  0.45687631489E+02 -0.37071629150E+02  0.91099199908E+02  0.10854869683E+03  0.47000000000E+01 0.  1.
         -5    1    3    3    0  502  0.15318437280E+03  0.62677996307E+01  0.25479635863E+02  0.15548645994E+03  0.47000000000E+01 0.  1.
        -11    1    1    2    0    0 -0.53522333049E+02  0.51128346305E+02  0.87190902367E+02  0.11437220548E+03  0.00000000000E+00 0. -1.
         11    1    1    2    0    0 -0.14534967124E+03 -0.20324516786E+02  0.21768642311E+03  0.26253950507E+03  0.00000000000E+00 0.  1.
<mgrwt>
<rscale>  0 0.23298571E+03</rscale>
<asrwt>0</asrwt>
<pdfrwt beam="1">  1        2 0.81723309E-01 0.23690492E+03</pdfrwt>
<pdfrwt beam="2">  1       -2 0.16883901E-01 0.23690492E+03</pdfrwt>
<totfact> 0.16266838E+03</totfact>
</mgrwt>
</event>
<event>
 7    1  0.4230786E-006  0.1193983E+03  0.7546771E-02  0.1256107E+00
         -4   -1    0    0    0  501 -0.00000000000E+00  0.00000000000E+00  0.30147791636E+03  0.30147791636E+03  0.00000000000E+00 0.  1.
          4   -1    0    0  501    0  0.00000000000E+00 -0.00000000000E+00 -0.47815809876E+02  0.47815809876E+02  0.00000000000E+00 0. -1.
         23    2    1    2    0    0 -0.16929636637E+02 -0.39523918140E+01  0.21851768122E+03  0.24900989563E+03  0.11812585289E+03 0.  0.
          5    1    3    3  502    0  0.33101169398E+02 -0.34346118808E+02  0.44704340486E+02  0.65543202172E+02  0.47000000000E+01 0. -1.
         -5    1    3    3    0  502 -0.50030806035E+02  0.30393726994E+02  0.17381334073E+03  0.18346669346E+03  0.47000000000E+01 0.  1.
        -11    1    1    2    0    0 -0.16983226547E+02 -0.35006096257E+02  0.28450897922E+02  0.48200729784E+02  0.00000000000E+00 0.  1.
         11    1    1    2    0    0  0.33912863185E+02  0.38958488071E+02  0.66935273397E+01  0.52083100814E+02  0.00000000000E+00 0. -1.
<mgrwt>
<rscale>  0 0.11244566E+03</rscale>
<asrwt>0</asrwt>
<pdfrwt beam="2">  1        4 0.73562786E-02 0.11939829E+03</pdfrwt>
<pdfrwt beam="1">  1       -4 0.46381217E-01 0.11939829E+03</pdfrwt>
<totfact> 0.92268408E+02</totfact>
</mgrwt>
</event>
<event>
 7    1  0.4230786E-006  0.1778771E+03  0.7546771E-02  0.1175776E+00
         -2   -1    0    0    0  501 -0.00000000000E+00  0.00000000000E+00  0.82753502577E+02  0.82753502577E+02  0.00000000000E+00 0.  1.
          2   -1    0    0  501    0  0.00000000000E+00 -0.00000000000E+00 -0.34376386690E+03  0.34376386690E+03  0.00000000000E+00 0. -1.
         23    2    1    2    0    0  0.12050744259E+03 -0.38641319799E+02 -0.17147024091E+03  0.24706738093E+03  0.12500020754E+03 0.  0.
          5    1    3    3  502    0  0.42008232610E+01 -0.38184069046E+02  0.13233748444E+01  0.38723524710E+02  0.47000000000E+01 0. -1.
         -5    1    3    3    0  502  0.11630661933E+03 -0.45725075352E+00 -0.17279361576E+03  0.20834385622E+03  0.47000000000E+01 0. -1.
        -11    1    1    2    0    0 -0.21671429632E+02  0.37234414309E+02 -0.64357808546E+02  0.77446626731E+02  0.00000000000E+00 0. -1.
         11    1    1    2    0    0 -0.98836012955E+02  0.14069054902E+01 -0.25182314863E+02  0.10200336182E+03  0.00000000000E+00 0.  1.
<mgrwt>
<rscale>  0 0.17200177E+03</rscale>
<asrwt>0</asrwt>
<pdfrwt beam="2">  1        2 0.52886748E-01 0.17787706E+03</pdfrwt>
<pdfrwt beam="1">  1       -2 0.12731308E-01 0.17787706E+03</pdfrwt>
<totfact> 0.41318144E+03</totfact>
</mgrwt>
</event>
<event>
 7    1  0.4230786E-006  0.1493852E+03  0.7546771E-02  0.1210849E+00
         -1   -1    0    0    0  501 -0.00000000000E+00  0.00000000000E+00  0.38838302717E+02  0.38838302717E+02  0.00000000000E+00 0.  1.
          1   -1    0    0  501    0  0.00000000000E+00 -0.00000000000E+00 -0.54307390238E+03  0.54307390238E+03  0.00000000000E+00 0. -1.
         23    2    1    2    0    0 -0.48684966181E+02 -0.65706733471E+02 -0.17013172955E+03  0.22640837843E+03  0.12501338995E+03 0.  0.
          5    1    3    3  502    0 -0.39117489950E+01 -0.73736781073E+02 -0.31476886299E+02  0.80407083234E+02  0.47000000000E+01 0. -1.
         -5    1    3    3    0  502 -0.44773217186E+02  0.80300476018E+01 -0.13865484325E+03  0.14600129519E+03  0.47000000000E+01 0. -1.
        -11    1    1    2    0    0  0.61417492493E+02  0.19444683974E+02 -0.12117349993E+03  0.13723418380E+03  0.00000000000E+00 0.  1.
         11    1    1    2    0    0 -0.12732526312E+02  0.46262049497E+02 -0.21293037018E+03  0.21826964286E+03  0.00000000000E+00 0. -1.
<mgrwt>
<rscale>  0 0.14185924E+03</rscale>
<asrwt>0</asrwt>
<pdfrwt beam="2">  1        1 0.83549827E-01 0.14938523E+03</pdfrwt>
<pdfrwt beam="1">  1       -1 0.59751238E-02 0.14938523E+03</pdfrwt>
<totfact> 0.52620537E+03</totfact>
</mgrwt>
</event>
<event>
 7    1  0.4230786E-006  0.1341791E+03  0.7546771E-02  0.1234419E+00
         -2   -1    0    0    0  501 -0.00000000000E+00  0.00000000000E+00  0.10576629745E+03  0.10576629745E+03  0.00000000000E+00 0.  1.
          2   -1    0    0  501    0  0.00000000000E+00 -0.00000000000E+00 -0.13243159541E+03  0.13243159541E+03  0.00000000000E+00 0. -1.
         23    2    1    2    0    0  0.48350473217E+02  0.63577815486E+01 -0.11609132356E+02  0.13468040867E+03  0.12500340347E+03 0.  0.
          5    1    3    3  502    0  0.67879145059E+02 -0.25559200089E+02 -0.44003141469E+02  0.84965978499E+02  0.47000000000E+01 0. -1.
         -5    1    3    3    0  502 -0.19528671842E+02  0.31916981637E+02  0.32394009113E+02  0.49714430170E+02  0.47000000000E+01 0. -1.
        -11    1    1    2    0    0  0.23378466915E+02 -0.88219561206E+01  0.10812432728E+02  0.27226610633E+02  0.00000000000E+00 0.  1.
         11    1    1    2    0    0 -0.71728940132E+02  0.24641745719E+01 -0.25868598336E+02  0.76290873561E+02  0.00000000000E+00 0. -1.
<mgrwt>
<rscale>  0 0.12541701E+03</rscale>
<asrwt>0</asrwt>
<pdfrwt beam="2">  1        2 0.20374092E-01 0.13417914E+03</pdfrwt>
<pdfrwt beam="1">  1       -2 0.16271738E-01 0.13417914E+03</pdfrwt>
<totfact> 0.76721815E+03</totfact>
</mgrwt>
</event>
<event>
 6    1  0.4230786E-006  0.1566010E+03  0.7546771E-02  0.1215409E+00
         -2   -1    0    0    0  501 -0.00000000000E+00  0.00000000000E+00  0.26331341175E+02  0.26331341175E+02  0.00000000000E+00 0.  1.
          2   -1    0    0  501    0  0.00000000000E+00 -0.00000000000E+00 -0.60695850061E+03  0.60695850061E+03  0.00000000000E+00 0. -1.
          5    1    1    2  502    0 -0.16867904056E+02  0.27395283169E+02 -0.33755231416E+03  0.33911455663E+03  0.47000000000E+01 0. -1.
         -5    1    1    2    0  502  0.34432341773E+02 -0.67126810240E+01 -0.27612970832E+01  0.35501563459E+02  0.47000000000E+01 0.  1.
        -11    1    1    2    0    0  0.15721227243E+02 -0.38767647823E+02 -0.52759828217E+02  0.67332659069E+02  0.00000000000E+00 0.  1.
         11    1    1    2    0    0 -0.33285664959E+02  0.18085045678E+02 -0.18755371997E+03  0.19134106262E+03  0.00000000000E+00 0. -1.
<mgrwt>
<rscale>  0 0.13846555E+03</rscale>
<asrwt>0</asrwt>
<pdfrwt beam="2">  1        2 0.93378227E-01 0.15660103E+03</pdfrwt>
<pdfrwt beam="1">  1       -2 0.40509757E-02 0.15660103E+03</pdfrwt>
<totfact> 0.12895210E+04</totfact>
</mgrwt>
</event>
<event>
 7    1  0.4230786E-006  0.1354412E+03  0.7546771E-02  0.1236882E+00
         -2   -1    0    0    0  501 -0.00000000000E+00  0.00000000000E+00  0.28742948437E+02  0.28742948437E+02  0.00000000000E+00 0.  1.
          2   -1    0    0  501    0  0.00000000000E+00 -0.00000000000E+00 -0.46678927944E+03  0.46678927944E+03  0.00000000000E+00 0. -1.
         23    2    1    2    0    0 -0.51530126406E+02  0.76091206453E+01 -0.28532234742E+03  0.31583721986E+03  0.12502421713E+03 0.  0.
          5    1    3    3  502    0  0.21652838119E+01  0.39820515155E+02 -0.22571270213E+03  0.22925679005E+03  0.47000000000E+01 0. -1.
         -5    1    3    3    0  502 -0.53695410218E+02 -0.32211394509E+02 -0.59609645288E+02  0.86580429810E+02  0.47000000000E+01 0. -1.
        -11    1    1    2    0    0 -0.97829873660E+01 -0.17494801226E+02 -0.69030744025E+01  0.21199701601E+02  0.00000000000E+00 0.  1.
         11    1    1    2    0    0  0.61313113772E+02  0.98856805809E+01 -0.14582090918E+03  0.15849530641E+03  0.00000000000E+00 0. -1.
<mgrwt>
<rscale>  0 0.12384712E+03</rscale>
<asrwt>0</asrwt>
<pdfrwt beam="2">  1        2 0.71813738E-01 0.13544116E+03</pdfrwt>
<pdfrwt beam="1">  1       -2 0.44219919E-02 0.13544116E+03</pdfrwt>
<totfact> 0.14996959E+04</totfact>
</mgrwt>
</event>
<event>
 7    1  0.4230786E-006  0.2505215E+03  0.7546771E-02  0.1115693E+00
          1   -1    0    0  501    0  0.00000000000E+00  0.00000000000E+00  0.23448151364E+03  0.23448151364E+03  0.00000000000E+00 0. -1.
         -1   -1    0    0    0  501 -0.00000000000E+00 -0.00000000000E+00 -0.25624661434E+03  0.25624661434E+03  0.00000000000E+00 0.  1.
         23    2    1    2    0    0 -0.20321358738E+03  0.76432872748E+02  0.26443378837E+02  0.25191319067E+03  0.12499302868E+03 0.  0.
          5    1    3    3  502    0 -0.21876711480E+03  0.68003009149E+02  0.13584493619E+02  0.22954321650E+03  0.47000000000E+01 0. -1.
         -5    1    3    3    0  502  0.15553527424E+02  0.84298635989E+01  0.12858885218E+02  0.22369974177E+02  0.47000000000E+01 0. -1.
        -11    1    1    2    0    0  0.14395072586E+03 -0.56911968433E+02  0.77723232913E+01  0.15498771770E+03  0.00000000000E+00 0. -1.
         11    1    1    2    0    0  0.59262861518E+02 -0.19520904316E+02 -0.55980802830E+02  0.83827219601E+02  0.00000000000E+00 0.  1.
<mgrwt>
<rscale>  0 0.24625813E+03</rscale>
<asrwt>0</asrwt>
<pdfrwt beam="1">  1        1 0.36074079E-01 0.25052146E+03</pdfrwt>
<pdfrwt beam="2">  1       -1 0.39422556E-01 0.25052146E+03</pdfrwt>
<totfact> 0.76070460E+02</totfact>
</mgrwt>
</event>
<event>
 7    1  0.4230786E-006  0.1554213E+03  0.7546771E-02  0.1202668E+00
          2   -1    0    0  501    0  0.00000000000E+00  0.00000000000E+00  0.32623958319E+02  0.32623958319E+02  0.00000000000E+00 0. -1.
         -2   -1    0    0    0  501 -0.00000000000E+00 -0.00000000000E+00 -0.61957417345E+03  0.61957417345E+03  0.00000000000E+00 0.  1.
         23    2    1    2    0    0  0.85317432801E+02  0.35373612634E+02 -0.33699747006E+03  0.37111061043E+03  0.12500173414E+03 0.  0.
          5    1    3    3  502    0  0.35024371021E+02 -0.46912623529E+02 -0.12003278487E+03  0.13363180855E+03  0.47000000000E+01 0.  1.
         -5    1    3    3    0  502  0.50293061780E+02  0.82286236163E+02 -0.21696468518E+03  0.23747880188E+03  0.47000000000E+01 0.  1.
        -11    1    1    2    0    0 -0.27919852542E+02 -0.53748242365E+02 -0.77196642753E+02  0.98120912020E+02  0.00000000000E+00 0. -1.
         11    1    1    2    0    0 -0.57397580258E+02  0.18374629732E+02 -0.17275610232E+03  0.18296660932E+03  0.00000000000E+00 0.  1.
<mgrwt>
<rscale>  0 0.14822779E+03</rscale>
<asrwt>0</asrwt>
<pdfrwt beam="1">  1        2 0.50190705E-02 0.15542133E+03</pdfrwt>
<pdfrwt beam="2">  1       -2 0.95319104E-01 0.15542133E+03</pdfrwt>
<totfact> 0.14583118E+03</totfact>
</mgrwt>
</event>
<event>
 7    1  0.4230786E-006  0.1428325E+03  0.7546771E-02  0.1219742E+00
         -1   -1    0    0    0  501 -0.00000000000E+00  0.00000000000E+00  0.12661024041E+03  0.12661024041E+03  0.00000000000E+00 0.  1.
          1   -1    0    0  501    0  0.00000000000E+00 -0.00000000000E+00 -0.17842098005E+03  0.17842098005E+03  0.00000000000E+00 0. -1.
         23    2    1    2    0    0  0.52353198137E+02  0.45125258315E+02  0.50006484357E+02  0.15133328809E+03  0.12499587718E+03 0.  0.
          5    1    3    3  502    0  0.28887913502E+02  0.55784877748E+02 -0.28078479641E+02  0.68970683271E+02  0.47000000000E+01 0. -1.
         -5    1    3    3    0  502  0.23465284636E+02 -0.10659619434E+02  0.78084963998E+02  0.82362604816E+02  0.47000000000E+01 0. -1.
        -11    1    1    2    0    0  0.17019297393E+01 -0.53775282607E+02 -0.76143747162E+02  0.93233834074E+02  0.00000000000E+00 0. -1.
         11    1    1    2    0    0 -0.54055127876E+02  0.86500242921E+01 -0.25673476842E+02  0.60464098299E+02  0.00000000000E+00 0.  1.
<mgrwt>
<rscale>  0 0.13533902E+03</rscale>
<asrwt>0</asrwt>
<pdfrwt beam="2">  1        1 0.27449381E-01 0.14283247E+03</pdfrwt>
<pdfrwt beam="1">  1       -1 0.19478499E-01 0.14283247E+03</pdfrwt>
<totfact> 0.34527763E+03</totfact>
</mgrwt>
</event>
<event>
 7    1  0.4230786E-006  0.1271679E+03  0.7546771E-02  0.1245479E+00
         -2   -1    0    0    0  501 -0.00000000000E+00  0.00000000000E+00  0.54262720018E+02  0.54262720018E+02  0.00000000000E+00 0.  1.
          2   -1    0    0  501    0  0.00000000000E+00 -0.00000000000E+00 -0.23122424457E+03  0.23122424457E+03  0.00000000000E+00 0. -1.
         23    2    1    2    0    0 -0.20902207392E+02 -0.10571793779E+02 -0.11230791036E+03  0.16966062941E+03  0.12499198912E+03 0.  0.
          5    1    3    3  502    0 -0.53270623999E+02  0.39060401011E+02 -0.46124787619E+02  0.80703533635E+02  0.47000000000E+01 0. -1.
         -5    1    3    3    0  502  0.32368416607E+02 -0.49632194790E+02 -0.66183122738E+02  0.88957095774E+02  0.47000000000E+01 0. -1.
        -11    1    1    2    0    0 -0.24983844117E+01  0.23129213060E+02  0.17741665053E+02  0.29256949607E+02  0.00000000000E+00 0.  1.
         11    1    1    2    0    0  0.23400591803E+02 -0.12557419281E+02 -0.82395279247E+02  0.86569385570E+02  0.00000000000E+00 0. -1.
<mgrwt>
<rscale>  0 0.11856771E+03</rscale>
<asrwt>0</asrwt>
<pdfrwt beam="2">  1        2 0.35572960E-01 0.12716785E+03</pdfrwt>
<pdfrwt beam="1">  1       -2 0.83481108E-02 0.12716785E+03</pdfrwt>
<totfact> 0.12019606E+04</totfact>
</mgrwt>
</event>
<event>
 7    1  0.4230786E-006  0.1336282E+03  0.7546771E-02  0.1234729E+00
         -2   -1    0    0    0  501 -0.00000000000E+00  0.00000000000E+00  0.31697706492E+03  0.31697706492E+03  0.00000000000E+00 0.  1.
          2   -1    0    0  501    0  0.00000000000E+00 -0.00000000000E+00 -0.67764727320E+02  0.67764727320E+02  0.00000000000E+00 0. -1.
         23    2    1    2    0    0  0.74821727561E+01  0.46667038342E+02  0.24799240849E+03  0.28170328692E+03  0.12499084693E+03 0.  0.
          5    1    3    3  502    0  0.31961083579E+02 -0.34822755352E+02  0.10499457102E+03  0.11523925155E+03  0.47000000000E+01 0.  1.
         -5    1    3    3    0  502 -0.24478910823E+02  0.81489793693E+02  0.14299783747E+03  0.16646403537E+03  0.47000000000E+01 0.  1.
        -11    1    1    2    0    0  0.26404106370E+02 -0.26815496082E+02  0.34882376338E+02  0.51313037741E+02  0.00000000000E+00 0.  1.
         11    1    1    2    0    0 -0.33886279126E+02 -0.19851542260E+02 -0.33662447226E+02  0.51725467580E+02  0.00000000000E+00 0. -1.
<mgrwt>
<rscale>  0 0.12521777E+03</rscale>
<asrwt>0</asrwt>
<pdfrwt beam="2">  1        2 0.10425343E-01 0.13362824E+03</pdfrwt>
<pdfrwt beam="1">  1       -2 0.48765701E-01 0.13362824E+03</pdfrwt>
<totfact> 0.23656309E+03</totfact>
</mgrwt>
</event>
<event>
 7    1  0.4230786E-006  0.1965726E+03  0.7546771E-02  0.1157156E+00
         -2   -1    0    0    0  501 -0.00000000000E+00  0.00000000000E+00  0.21883674001E+03  0.21883674001E+03  0.00000000000E+00 0.  1.
          2   -1    0    0  501    0  0.00000000000E+00 -0.00000000000E+00 -0.15994045275E+03  0.15994045275E+03  0.00000000000E+00 0. -1.
         23    2    1    2    0    0 -0.47482218400E+02 -0.14408748826E+03  0.42667035995E+02  0.20114985575E+03  0.12500009268E+03 0.  0.
          5    1    3    3  502    0 -0.79874199636E+02 -0.64235275901E+02  0.50751149260E+02  0.11447195110E+03  0.47000000000E+01 0.  1.
         -5    1    3    3    0  502  0.32391981235E+02 -0.79852212362E+02 -0.80841132658E+01  0.86677904652E+02  0.47000000000E+01 0.  1.
        -11    1    1    2    0    0  0.13688169439E+02  0.11773622086E+03 -0.21581172245E+02  0.12047792611E+03  0.00000000000E+00 0.  1.
         11    1    1    2    0    0  0.33794048961E+02  0.26351267406E+02  0.37810423513E+02  0.57149410892E+02  0.00000000000E+00 0. -1.
<mgrwt>
<rscale>  0 0.19145407E+03</rscale>
<asrwt>0</asrwt>
<pdfrwt beam="2">  1        2 0.24606224E-01 0.19657260E+03</pdfrwt>
<pdfrwt beam="1">  1       -2 0.33667191E-01 0.19657260E+03</pdfrwt>
<totfact> 0.17875852E+03</totfact>
</mgrwt>
</event>
<event>
 7    1  0.4230786E-006  0.1765576E+03  0.7546771E-02  0.1176678E+00
         -2   -1    0    0    0  501 -0.00000000000E+00  0.00000000000E+00  0.19623644915E+03  0.19623644915E+03  0.00000000000E+00 0.  1.
          2   -1    0    0  501    0  0.00000000000E+00 -0.00000000000E+00 -0.15020312076E+03  0.15020312076E+03  0.00000000000E+00 0. -1.
         23    2    1    2    0    0 -0.64313515419E+02 -0.10682101904E+03  0.67767223377E+02  0.18911629597E+03  0.12500247383E+03 0.  0.
          5    1    3    3  502    0 -0.52840892434E+01 -0.11400768266E+03  0.28589354768E+02  0.11775022085E+03  0.47000000000E+01 0. -1.
         -5    1    3    3    0  502 -0.59029426175E+02  0.71866636236E+01  0.39177868608E+02  0.71366075115E+02  0.47000000000E+01 0. -1.
        -11    1    1    2    0    0  0.80236056756E+02  0.64691307410E+02  0.79655188114E+01  0.10337426927E+03  0.00000000000E+00 0.  1.
         11    1    1    2    0    0 -0.15922541337E+02  0.42129711627E+02 -0.29699413793E+02  0.53949004663E+02  0.00000000000E+00 0. -1.
<mgrwt>
<rscale>  0 0.17112637E+03</rscale>
<asrwt>0</asrwt>
<pdfrwt beam="2">  1        2 0.23108172E-01 0.17655757E+03</pdfrwt>
<pdfrwt beam="1">  1       -2 0.30190223E-01 0.17655757E+03</pdfrwt>
<totfact> 0.23313076E+03</totfact>
</mgrwt>
</event>
<event>
 7    1  0.4230786E-006  0.1837483E+03  0.7546771E-02  0.1169492E+00
          2   -1    0    0  501    0  0.00000000000E+00  0.00000000000E+00  0.49349537242E+03  0.49349537242E+03  0.00000000000E+00 0. -1.
         -2   -1    0    0    0  501 -0.00000000000E+00 -0.00000000000E+00 -0.62514117626E+02  0.62514117626E+02  0.00000000000E+00 0.  1.
         23    2    1    2    0    0 -0.51386554886E+02  0.12449148372E+03  0.18265936531E+03  0.25909045750E+03  0.12499885556E+03 0.  0.
          5    1    3    3  502    0 -0.57832522256E+01  0.41118443753E+02 -0.11094054865E+02  0.43235870251E+02  0.47000000000E+01 0. -1.
         -5    1    3    3    0  502 -0.45603302661E+02  0.83373039964E+02  0.19375342018E+03  0.21585458725E+03  0.47000000000E+01 0. -1.
        -11    1    1    2    0    0  0.29388073678E+02 -0.75097203882E+02  0.22315197990E+03  0.23727632633E+03  0.00000000000E+00 0. -1.
         11    1    1    2    0    0  0.21998481209E+02 -0.49394279835E+02  0.25169909582E+02  0.59642706212E+02  0.00000000000E+00 0.  1.
<mgrwt>
<rscale>  0 0.17826551E+03</rscale>
<asrwt>0</asrwt>
<pdfrwt beam="1">  1        2 0.75922362E-01 0.18374826E+03</pdfrwt>
<pdfrwt beam="2">  1       -2 0.96175569E-02 0.18374826E+03</pdfrwt>
<totfact> 0.43734743E+03</totfact>
</mgrwt>
</event>
<event>
 6    1  0.4230786E-006  0.3063965E+03  0.7546771E-02  0.1124118E+00
          1   -1    0    0  501    0  0.00000000000E+00  0.00000000000E+00  0.60484790928E+03  0.60484790928E+03  0.00000000000E+00 0. -1.
         -1   -1    0    0    0  501 -0.00000000000E+00 -0.00000000000E+00 -0.10021994852E+03  0.10021994852E+03  0.00000000000E+00 0.  1.
          5    1    1    2  502    0  0.35296822064E+02 -0.89919413012E+02  0.21257170267E+03  0.23353840211E+03  0.47000000000E+01 0. -1.
         -5    1    1    2    0  502  0.11299261509E+02  0.99211142627E+02 -0.51680401994E+02  0.11253212023E+03  0.47000000000E+01 0.  1.
        -11    1    1    2    0    0  0.87966227863E+01  0.16853634242E+02  0.13974956116E+02  0.23595019772E+02  0.00000000000E+00 0.  1.
         11    1    1    2    0    0 -0.55392706360E+02 -0.26145363857E+02  0.32976170397E+03  0.33540231570E+03  0.00000000000E+00 0. -1.
<mgrwt>
<rscale>  0 0.23361913E+03</rscale>
<asrwt>0</asrwt>
<pdfrwt beam="1">  1        1 0.93053522E-01 0.30639647E+03</pdfrwt>
<pdfrwt beam="2">  1       -1 0.15418454E-01 0.30639647E+03</pdfrwt>
<totfact> 0.10710680E+03</totfact>
</mgrwt>
</event>
<event>
 7    1  0.4741696E-006  0.1714483E+03  0.7546771E-02  0.1182324E+00
          1   -1    0    0  501    0  0.00000000000E+00  0.00000000000E+00  0.38529317980E+03  0.38529317980E+03  0.00000000000E+00 0. -1.
         -1   -1    0    0    0  501 -0.00000000000E+00 -0.00000000000E+00 -0.67438100615E+02  0.67438100615E+02  0.00000000000E+00 0.  1.
         23    2    1    2    0    0  0.60492878195E+01  0.11718816071E+03  0.15113029288E+03  0.22854953039E+03  0.12499945409E+03 0.  0.
          5    1    3    3  502    0  0.30219952617E+02  0.12692441334E+03  0.81136769531E+02  0.15371505329E+03  0.47000000000E+01 0.  1.
         -5    1    3    3    0  502 -0.24170664797E+02 -0.97362526324E+01  0.69993523349E+02  0.74834477100E+02  0.47000000000E+01 0.  1.
        -11    1    1    2    0    0  0.10883534583E+01 -0.38097556800E+02  0.13220906280E+03  0.13759303992E+03  0.00000000000E+00 0. -1.
         11    1    1    2    0    0 -0.71376412778E+01 -0.79090603906E+02  0.34515723506E+02  0.86588710109E+02  0.00000000000E+00 0.  1.
<mgrwt>
<rscale>  0 0.16577798E+03</rscale>
<asrwt>0</asrwt>
<pdfrwt beam="1">  1        1 0.59275873E-01 0.17144831E+03</pdfrwt>
<pdfrwt beam="2">  1       -1 0.10375093E-01 0.17144831E+03</pdfrwt>
<totfact> 0.35795925E+03</totfact>
</mgrwt>
</event>
<event>
 7    1  0.4230786E-006  0.1320755E+03  0.7546771E-02  0.1239123E+00
          1   -1    0    0  501    0  0.00000000000E+00  0.00000000000E+00  0.30633652066E+03  0.30633652066E+03  0.00000000000E+00 0. -1.
         -1   -1    0    0    0  501 -0.00000000000E+00 -0.00000000000E+00 -0.45807559640E+02  0.45807559640E+02  0.00000000000E+00 0.  1.
         23    2    1    2    0    0 -0.29212205906E+02 -0.31014093806E+02  0.10578896809E+03  0.16921947983E+03  0.12501479751E+03 0.  0.
          5    1    3    3  502    0  0.34137945839E+02  0.20969325415E+02  0.72726617485E+01  0.40988944404E+02  0.47000000000E+01 0. -1.
         -5    1    3    3    0  502 -0.63350151745E+02 -0.51983419221E+02  0.98516306345E+02  0.12823053543E+03  0.47000000000E+01 0. -1.
        -11    1    1    2    0    0  0.19929099247E+02  0.57377554155E+02  0.65133802173E+02  0.89060456450E+02  0.00000000000E+00 0.  1.
         11    1    1    2    0    0  0.92831066594E+01 -0.26363460350E+02  0.89606190758E+02  0.93864144022E+02  0.00000000000E+00 0. -1.
<mgrwt>
<rscale>  0 0.12244154E+03</rscale>
<asrwt>0</asrwt>
<pdfrwt beam="1">  1        1 0.47128694E-01 0.13207546E+03</pdfrwt>
<pdfrwt beam="2">  1       -1 0.70473171E-02 0.13207546E+03</pdfrwt>
<totfact> 0.84519815E+03</totfact>
</mgrwt>
</event>
<event>
 7    1  0.4230786E-006  0.1759470E+03  0.7546771E-02  0.1177699E+00
          2   -1    0    0  501    0  0.00000000000E+00  0.00000000000E+00  0.82296596337E+03  0.82296596337E+03  0.00000000000E+00 0.  1.
         -2   -1    0    0    0  501 -0.00000000000E+00 -0.00000000000E+00 -0.35127048203E+02  0.35127048203E+02  0.00000000000E+00 0. -1.
         23    2    1    2    0    0  0.30304780269E+02 -0.12008805328E+03  0.31442144609E+03  0.36030293004E+03  0.12497133825E+03 0.  0.
          5    1    3    3  502    0  0.16540727647E+02 -0.14257669421E+03  0.29188359379E+03  0.32529960303E+03  0.47000000000E+01 0.  1.
         -5    1    3    3    0  502  0.13764052622E+02  0.22488640934E+02  0.22537852296E+02  0.35003327010E+02  0.47000000000E+01 0.  1.
        -11    1    1    2    0    0  0.31112705834E+02  0.28769022302E+02  0.10318005782E+03  0.11154273370E+03  0.00000000000E+00 0.  1.
         11    1    1    2    0    0 -0.61417486103E+02  0.91319030978E+02  0.37023741126E+03  0.38624734784E+03  0.00000000000E+00 0. -1.
<mgrwt>
<rscale>  0 0.17014266E+03</rscale>
<asrwt>0</asrwt>
<pdfrwt beam="1">  1        2 0.12661013E+00 0.17594703E+03</pdfrwt>
<pdfrwt beam="2">  1       -2 0.54041619E-02 0.17594703E+03</pdfrwt>
<totfact> 0.58311630E+03</totfact>
</mgrwt>
</event>
<event>
 7    1  0.4230786E-006  0.1792533E+03  0.7546771E-02  0.1174111E+00
         -3   -1    0    0    0  501 -0.00000000000E+00  0.00000000000E+00  0.13286040395E+04  0.13286040395E+04  0.00000000000E+00 0.  1.
          3   -1    0    0  501    0  0.00000000000E+00 -0.00000000000E+00 -0.32894610461E+02  0.32894610461E+02  0.00000000000E+00 0. -1.
         23    2    1    2    0    0 -0.73413003959E+02  0.10543563659E+03  0.10769105310E+04  0.10917270972E+04  0.12500248111E+03 0.  0.
          5    1    3    3  502    0  0.17015299230E+02  0.34690104782E+01  0.44063199520E+03  0.44099909256E+03  0.47000000000E+01 0.  1.
         -5    1    3    3    0  502 -0.90428303190E+02  0.10196662611E+03  0.63627853585E+03  0.65072800465E+03  0.47000000000E+01 0.  1.
        -11    1    1    2    0    0  0.72917960696E+02 -0.26995812853E+02  0.12816446499E+03  0.14990641411E+03  0.00000000000E+00 0.  1.
         11    1    1    2    0    0  0.49504326329E+00 -0.78439823736E+02  0.90634432964E+02  0.11986513861E+03  0.00000000000E+00 0. -1.
<mgrwt>
<rscale>  0 0.17363350E+03</rscale>
<asrwt>0</asrwt>
<pdfrwt beam="2">  1        3 0.50607103E-02 0.17925335E+03</pdfrwt>
<pdfrwt beam="1">  1       -3 0.20440058E+00 0.17925335E+03</pdfrwt>
<totfact> 0.81598392E+01</totfact>
</mgrwt>
</event>
<event>
 7    1  0.4230786E-006  0.2215108E+03  0.7546771E-02  0.1136053E+00
          1   -1    0    0  501    0  0.00000000000E+00  0.00000000000E+00  0.13976225803E+03  0.13976225803E+03  0.00000000000E+00 0. -1.
         -1   -1    0    0    0  501 -0.00000000000E+00 -0.00000000000E+00 -0.32810767776E+03  0.32810767776E+03  0.00000000000E+00 0.  1.
         23    2    1    2    0    0  0.35446820180E+01  0.18283638581E+03 -0.73531057558E+02  0.23339635625E+03  0.12500133576E+03 0.  0.
          5    1    3    3  502    0  0.38611565670E+02  0.15197388567E+03 -0.13880467753E+02  0.15748546700E+03  0.47000000000E+01 0. -1.
         -5    1    3    3    0  502 -0.35066883652E+02  0.30862500132E+02 -0.59650589805E+02  0.75910889256E+02  0.47000000000E+01 0. -1.
        -11    1    1    2    0    0 -0.34728124483E+02 -0.49498151248E+02 -0.64955438919E+02  0.88742992130E+02  0.00000000000E+00 0.  1.
         11    1    1    2    0    0  0.31183442465E+02 -0.13333823456E+03 -0.49858923256E+02  0.14573058741E+03  0.00000000000E+00 0. -1.
<mgrwt>
<rscale>  0 0.21711380E+03</rscale>
<asrwt>0</asrwt>
<pdfrwt beam="1">  1        1 0.21501886E-01 0.22151082E+03</pdfrwt>
<pdfrwt beam="2">  1       -1 0.50478103E-01 0.22151082E+03</pdfrwt>
<totfact> 0.93654240E+02</totfact>
</mgrwt>
</event>
<event>
 7    1  0.4230786E-006  0.1831695E+03  0.7546771E-02  0.1168753E+00
         -2   -1    0    0    0  501 -0.00000000000E+00  0.00000000000E+00  0.24354340345E+03  0.24354340345E+03  0.00000000000E+00 0.  1.
          2   -1    0    0  501    0  0.00000000000E+00 -0.00000000000E+00 -0.34768270717E+03  0.34768270717E+03  0.00000000000E+00 0. -1.
         23    2    1    2    0    0  0.76977032253E+02  0.11672561722E+03  0.18304173119E+03  0.25895047356E+03  0.11832471927E+03 0.  0.
          5    1    3    3  502    0  0.13374714897E+02  0.10675994963E+02 -0.16446960166E+02  0.24196122948E+02  0.47000000000E+01 0. -1.
         -5    1    3    3    0  502  0.63602317356E+02  0.10604962226E+03  0.19948869135E+03  0.23475435061E+03  0.47000000000E+01 0.  1.
        -11    1    1    2    0    0 -0.27745418150E+02 -0.37274840923E+02 -0.22602914418E+02  0.51673143260E+02  0.00000000000E+00 0.  1.
         11    1    1    2    0    0 -0.49231614103E+02 -0.79450776301E+02 -0.26457812049E+03  0.28060249379E+03  0.00000000000E+00 0. -1.
<mgrwt>
<rscale>  0 0.17902218E+03</rscale>
<asrwt>0</asrwt>
<pdfrwt beam="2">  1        2 0.53489647E-01 0.18316952E+03</pdfrwt>
<pdfrwt beam="1">  1       -2 0.37468216E-01 0.18316952E+03</pdfrwt>
<totfact> 0.63009373E+02</totfact>
</mgrwt>
</event>
<event>
 7    1  0.4230786E-006  0.1508922E+03  0.7546771E-02  0.1207847E+00
         -1   -1    0    0    0  501 -0.00000000000E+00  0.00000000000E+00  0.71998616919E+02  0.71998616919E+02  0.00000000000E+00 0. -1.
          1   -1    0    0  501    0  0.00000000000E+00 -0.00000000000E+00 -0.27507936870E+03  0.27507936870E+03  0.00000000000E+00 0.  1.
         23    2    1    2    0    0 -0.83844127489E+02  0.10565114907E+02 -0.78423858540E+02  0.17005513826E+03  0.12500795612E+03 0.  0.
          5    1    3    3  502    0 -0.86285926214E+02 -0.41679562866E+02 -0.35731915977E+02  0.10237825376E+03  0.47000000000E+01 0. -1.
         -5    1    3    3    0  502  0.24417987245E+01  0.52244677773E+02 -0.42691942563E+02  0.67676884506E+02  0.47000000000E+01 0. -1.
        -11    1    1    2    0    0  0.69704265811E+02  0.22336709993E+02 -0.36337448418E+02  0.81719174268E+02  0.00000000000E+00 0. -1.
         11    1    1    2    0    0  0.14139861678E+02 -0.32901824900E+02 -0.88319444823E+02  0.95303673087E+02  0.00000000000E+00 0.  1.
<mgrwt>
<rscale>  0 0.14415325E+03</rscale>
<asrwt>0</asrwt>
<pdfrwt beam="2">  1        1 0.42319904E-01 0.15089217E+03</pdfrwt>
<pdfrwt beam="1">  1       -1 0.11076710E-01 0.15089217E+03</pdfrwt>
<totfact> 0.49017394E+03</totfact>
</mgrwt>
</event>
<event>
 7    1  0.4230786E-006  0.1628083E+03  0.7546771E-02  0.1193935E+00
          2   -1    0    0  501    0  0.00000000000E+00  0.00000000000E+00  0.46689399704E+03  0.46689399704E+03  0.00000000000E+00 0. -1.
         -2   -1    0    0    0  501 -0.00000000000E+00 -0.00000000000E+00 -0.48660883992E+02  0.48660883992E+02  0.00000000000E+00 0.  1.
         23    2    1    2    0    0 -0.92624489634E+02 -0.47993444718E+02  0.18982121790E+03  0.25007724020E+03  0.12499545787E+03 0.  0.
          5    1    3    3  502    0  0.14028417711E+02 -0.21358129970E+02  0.11283897128E+03  0.11579157853E+03  0.47000000000E+01 0.  1.
         -5    1    3    3    0  502 -0.10665290734E+03 -0.26635314748E+02  0.76982246616E+02  0.13428566167E+03  0.47000000000E+01 0.  1.
        -11    1    1    2    0    0  0.95095389440E+01  0.49145013896E+02  0.10943697734E+03  0.12034166249E+03  0.00000000000E+00 0.  1.
         11    1    1    2    0    0  0.83114950690E+02 -0.11515691786E+01  0.11897491782E+03  0.14513597834E+03  0.00000000000E+00 0. -1.
<mgrwt>
<rscale>  0 0.15544711E+03</rscale>
<asrwt>0</asrwt>
<pdfrwt beam="1">  1        2 0.71829843E-01 0.16280827E+03</pdfrwt>
<pdfrwt beam="2">  1       -2 0.74862901E-02 0.16280827E+03</pdfrwt>
<totfact> 0.68313824E+03</totfact>
</mgrwt>
</event>
<event>
 7    1  0.4230786E-006  0.1252236E+03  0.7546771E-02  0.1250470E+00
          1   -1    0    0  501    0  0.00000000000E+00  0.00000000000E+00  0.83261262180E+02  0.83261262180E+02  0.00000000000E+00 0. -1.
         -1   -1    0    0    0  501 -0.00000000000E+00 -0.00000000000E+00 -0.49547199009E+03  0.49547199009E+03  0.00000000000E+00 0.  1.
         23    2    1    2    0    0  0.21204429119E+01  0.25390278371E+01 -0.45940433238E+03  0.47616519223E+03  0.12517989752E+03 0.  0.
          5    1    3    3  502    0  0.49909503620E+02  0.10503426223E+02 -0.89885580748E+02  0.10345428044E+03  0.47000000000E+01 0. -1.
         -5    1    3    3    0  502 -0.47789060708E+02 -0.79643983860E+01 -0.36951875163E+03  0.37271091180E+03  0.47000000000E+01 0.  1.
        -11    1    1    2    0    0 -0.46172524556E+02  0.39001046901E+01  0.27534963861E+02  0.53900714980E+02  0.00000000000E+00 0.  1.
         11    1    1    2    0    0  0.44052081644E+02 -0.64391325272E+01  0.19658640605E+02  0.48667345062E+02  0.00000000000E+00 0. -1.
<mgrwt>
<rscale>  0 0.11563875E+03</rscale>
<asrwt>0</asrwt>
<pdfrwt beam="1">  1        1 0.12809425E-01 0.12522360E+03</pdfrwt>
<pdfrwt beam="2">  1       -1 0.76226460E-01 0.12522360E+03</pdfrwt>
<totfact> 0.81951717E+02</totfact>
</mgrwt>
</event>
<event>
 6    1  0.4230786E-006  0.2877775E+03  0.7546771E-02  0.1117217E+00
          2   -1    0    0  501    0  0.00000000000E+00  0.00000000000E+00  0.19601525435E+03  0.19601525435E+03  0.00000000000E+00 0. -1.
         -2   -1    0    0    0  501 -0.00000000000E+00 -0.00000000000E+00 -0.30541625614E+03  0.30541625614E+03  0.00000000000E+00 0.  1.
          5    1    1    2  502    0 -0.16669610078E+03  0.15524243253E+02 -0.16399836612E+03  0.23440594326E+03  0.47000000000E+01 0. -1.
         -5    1    1    2    0  502  0.67829882647E+02 -0.77109144814E+02 -0.13445511581E+02  0.10368020532E+03  0.47000000000E+01 0.  1.
        -11    1    1    2    0    0  0.55582676238E+02  0.38486496214E+02  0.87492646214E+02  0.11056946880E+03  0.00000000000E+00 0. -1.
         11    1    1    2    0    0  0.43283541896E+02  0.23098405348E+02 -0.19449770304E+02  0.52775893110E+02  0.00000000000E+00 0.  1.
<mgrwt>
<rscale>  0 0.24390649E+03</rscale>
<asrwt>0</asrwt>
<pdfrwt beam="1">  1        2 0.30156193E-01 0.28777754E+03</pdfrwt>
<pdfrwt beam="2">  1       -2 0.46987117E-01 0.28777754E+03</pdfrwt>
<totfact> 0.76015496E+02</totfact>
</mgrwt>
</event>
<event>
 7    1  0.4230786E-006  0.1326425E+03  0.7546771E-02  0.1230568E+00
         -2   -1    0    0    0  501 -0.00000000000E+00  0.00000000000E+00  0.35884808451E+02  0.35884808451E+02  0.00000000000E+00 0.  1.
          2   -1    0    0  501    0  0.00000000000E+00 -0.00000000000E+00 -0.46933514995E+03  0.46933514995E+03  0.00000000000E+00 0. -1.
         23    2    1    2    0    0 -0.67868413638E+02  0.13174116690E+02 -0.15473913228E+03  0.20380928373E+03  0.11320046888E+03 0.  0.
          5    1    3    3  502    0 -0.75071475832E+02  0.50204424174E+02 -0.13032746174E+03  0.15863022402E+03  0.47000000000E+01 0. -1.
         -5    1    3    3    0  502  0.72030621946E+01 -0.37030307484E+02 -0.24411670547E+02  0.45179059709E+02  0.47000000000E+01 0.  1.
        -11    1    1    2    0    0 -0.22187283126E+02  0.28691929711E+01 -0.40995641248E+02  0.46702787948E+02  0.00000000000E+00 0.  1.
         11    1    1    2    0    0  0.90055696764E+02 -0.16043309661E+02 -0.23771556797E+03  0.25470788673E+03  0.00000000000E+00 0. -1.
<mgrwt>
<rscale>  0 0.12792452E+03</rscale>
<asrwt>0</asrwt>
<pdfrwt beam="2">  1        2 0.72205412E-01 0.13264247E+03</pdfrwt>
<pdfrwt beam="1">  1       -2 0.55207394E-02 0.13264247E+03</pdfrwt>
<totfact> 0.10670085E+04</totfact>
</mgrwt>
</event>
<event>
 7    1  0.4230786E-006  0.1652591E+03  0.7546771E-02  0.1189573E+00
          1   -1    0    0  501    0  0.00000000000E+00  0.00000000000E+00  0.13397485871E+03  0.13397485871E+03  0.00000000000E+00 0. -1.
         -1   -1    0    0    0  501 -0.00000000000E+00 -0.00000000000E+00 -0.21590022106E+03  0.21590022106E+03  0.00000000000E+00 0.  1.
         23    2    1    2    0    0 -0.47596644171E+02  0.97045127665E+02 -0.11787454208E+03  0.20299007838E+03  0.12500946728E+03 0.  0.
          5    1    3    3  502    0 -0.78334931685E+00 -0.22702872453E+02 -0.55202270720E+02  0.59878332863E+02  0.47000000000E+01 0. -1.
         -5    1    3    3    0  502 -0.46813294854E+02  0.11974800012E+03 -0.62672271363E+02  0.14311174552E+03  0.47000000000E+01 0. -1.
        -11    1    1    2    0    0  0.25896022445E+02 -0.13295795955E+02  0.51333386630E+02  0.59012699916E+02  0.00000000000E+00 0. -1.
         11    1    1    2    0    0  0.21700621726E+02 -0.83749331710E+02 -0.15384206894E+02  0.87872301478E+02  0.00000000000E+00 0.  1.
<mgrwt>
<rscale>  0 0.15922643E+03</rscale>
<asrwt>0</asrwt>
<pdfrwt beam="1">  1        1 0.20611517E-01 0.16525908E+03</pdfrwt>
<pdfrwt beam="2">  1       -1 0.33215418E-01 0.16525908E+03</pdfrwt>
<totfact> 0.20647641E+03</totfact>
</mgrwt>
</event>
<event>
 7    1  0.4230786E-006  0.1515322E+03  0.7546771E-02  0.1209270E+00
          2   -1    0    0  501    0  0.00000000000E+00  0.00000000000E+00  0.10673092103E+04  0.10673092103E+04  0.00000000000E+00 0. -1.
         -2   -1    0    0    0  501 -0.00000000000E+00 -0.00000000000E+00 -0.17800261245E+02  0.17800261245E+02  0.00000000000E+00 0.  1.
         23    2    1    2    0    0  0.67256644185E+02 -0.53038629256E+02  0.49456105359E+03  0.51725491003E+03  0.12500181536E+03 0.  0.
          5    1    3    3  502    0  0.16234308748E+02  0.36125254820E+02  0.22957243753E+03  0.23301111753E+03  0.47000000000E+01 0.  1.
         -5    1    3    3    0  502  0.51022335437E+02 -0.89163884076E+02  0.26498861606E+03  0.28424379250E+03  0.47000000000E+01 0.  1.
        -11    1    1    2    0    0 -0.21839826183E+02  0.68883918896E+02  0.33775365188E+03  0.34539759937E+03  0.00000000000E+00 0. -1.
         11    1    1    2    0    0 -0.45416818002E+02 -0.15845289640E+02  0.21719424357E+03  0.22245696213E+03  0.00000000000E+00 0.  1.
<mgrwt>
<rscale>  0 0.14306005E+03</rscale>
<asrwt>0</asrwt>
<pdfrwt beam="1">  1        2 0.16420137E+00 0.15153220E+03</pdfrwt>
<pdfrwt beam="2">  1       -2 0.27385026E-02 0.15153220E+03</pdfrwt>
<totfact> 0.11247477E+04</totfact>
</mgrwt>
</event>
<event>
 7    1  0.4230786E-006  0.1697727E+03  0.7546771E-02  0.1184712E+00
          2   -1    0    0  501    0  0.00000000000E+00  0.00000000000E+00  0.42664030188E+03  0.42664030188E+03  0.00000000000E+00 0. -1.
         -2   -1    0    0    0  501 -0.00000000000E+00 -0.00000000000E+00 -0.61546767537E+02  0.61546767537E+02  0.00000000000E+00 0.  1.
         23    2    1    2    0    0 -0.10958824227E+03  0.34468705512E+02  0.24913833125E+03  0.30148411553E+03  0.12500035725E+03 0.  0.
          5    1    3    3  502    0 -0.38509827351E+02 -0.21476230570E+02  0.95690259705E+01  0.45363989464E+02  0.47000000000E+01 0.  1.
         -5    1    3    3    0  502 -0.71078414915E+02  0.55944936082E+02  0.23956930528E+03  0.25612012606E+03  0.47000000000E+01 0.  1.
        -11    1    1    2    0    0  0.57204071136E+02 -0.64124205781E+02  0.63329743843E+02  0.10674678439E+03  0.00000000000E+00 0.  1.
         11    1    1    2    0    0  0.52384171129E+02  0.29655500268E+02  0.52625459244E+02  0.79956169504E+02  0.00000000000E+00 0. -1.
<mgrwt>
<rscale>  0 0.16358142E+03</rscale>
<asrwt>0</asrwt>
<pdfrwt beam="1">  1        2 0.65636968E-01 0.16977268E+03</pdfrwt>
<pdfrwt beam="2">  1       -2 0.94687337E-02 0.16977268E+03</pdfrwt>
<totfact> 0.52377396E+03</totfact>
</mgrwt>
</event>
<event>
 7    1  0.4230786E-006  0.1297569E+03  0.7546771E-02  0.1243113E+00
          1   -1    0    0  501    0  0.00000000000E+00  0.00000000000E+00  0.13505206296E+03  0.13505206296E+03  0.00000000000E+00 0. -1.
         -1   -1    0    0    0  501 -0.00000000000E+00 -0.00000000000E+00 -0.95526225965E+02  0.95526225965E+02  0.00000000000E+00 0.  1.
         23    2    1    2    0    0 -0.20687708671E+02  0.27998142986E+02  0.39698052257E+02  0.13569372728E+03  0.12499989988E+03 0.  0.
          5    1    3    3  502    0 -0.49599082921E+02  0.47124573679E+01 -0.28728980276E+02  0.57703731151E+02  0.47000000000E+01 0. -1.
         -5    1    3    3    0  502  0.28911374250E+02  0.23285685618E+02  0.68427032533E+02  0.77989996134E+02  0.47000000000E+01 0. -1.
        -11    1    1    2    0    0  0.20046998847E+02  0.20155950717E+02 -0.27466630484E+02  0.39529233514E+02  0.00000000000E+00 0.  1.
         11    1    1    2    0    0  0.64070982417E+00 -0.48154093703E+02  0.27294415221E+02  0.55355328123E+02  0.00000000000E+00 0. -1.
<mgrwt>
<rscale>  0 0.11999041E+03</rscale>
<asrwt>0</asrwt>
<pdfrwt beam="1">  1        1 0.20777241E-01 0.12975690E+03</pdfrwt>
<pdfrwt beam="2">  1       -1 0.14696342E-01 0.12975690E+03</pdfrwt>
<totfact> 0.76102386E+03</totfact>
</mgrwt>
</event>
<event>
 7    1  0.4230786E-006  0.1339871E+03  0.7546771E-02  0.1233822E+00
         -1   -1    0    0    0  501 -0.00000000000E+00  0.00000000000E+00  0.24195264936E+03  0.24195264936E+03  0.00000000000E+00 0.  1.
          1   -1    0    0  501    0  0.00000000000E+00 -0.00000000000E+00 -0.58781575519E+02  0.58781575519E+02  0.00000000000E+00 0. -1.
         23    2    1    2    0    0 -0.37573302494E+02 -0.30237638920E+02  0.11171108376E+03  0.17444744652E+03  0.12500590984E+03 0.  0.
          5    1    3    3  502    0  0.12485239900E+02 -0.59806099518E+02  0.17647043846E+02  0.63766440323E+02  0.47000000000E+01 0. -1.
         -5    1    3    3    0  502 -0.50058542394E+02  0.29568460598E+02  0.94064039911E+02  0.11068100620E+03  0.47000000000E+01 0. -1.
        -11    1    1    2    0    0  0.10016302385E+02  0.39374613262E+02  0.85031306024E+02  0.94239108055E+02  0.00000000000E+00 0.  1.
         11    1    1    2    0    0  0.27557000109E+02 -0.91369743413E+01 -0.13571315944E+02  0.32047670299E+02  0.00000000000E+00 0. -1.
<mgrwt>
<rscale>  0 0.12580127E+03</rscale>
<asrwt>0</asrwt>
<pdfrwt beam="2">  1        1 0.90433194E-02 0.13398711E+03</pdfrwt>
<pdfrwt beam="1">  1       -1 0.37223484E-01 0.13398711E+03</pdfrwt>
<totfact> 0.49202341E+03</totfact>
</mgrwt>
</event>
<event>
 7    1  0.4230786E-006  0.1563637E+03  0.7546771E-02  0.1200661E+00
          3   -1    0    0  501    0  0.00000000000E+00  0.00000000000E+00  0.13289642763E+03  0.13289642763E+03  0.00000000000E+00 0. -1.
         -3   -1    0    0    0  501 -0.00000000000E+00 -0.00000000000E+00 -0.19476576622E+03  0.19476576622E+03  0.00000000000E+00 0.  1.
         23    2    1    2    0    0  0.84372403204E+02 -0.41297907675E+02 -0.10564138435E+03  0.18870538974E+03  0.12500160971E+03 0.  0.
          5    1    3    3  502    0  0.10966226359E+03 -0.85876432341E+01 -0.54729939714E+02  0.12295127479E+03  0.47000000000E+01 0.  1.
         -5    1    3    3    0  502 -0.25289860388E+02 -0.32710264441E+02 -0.50911444633E+02  0.65754114950E+02  0.47000000000E+01 0.  1.
        -11    1    1    2    0    0 -0.26475154014E+02 -0.19952649567E+02 -0.14814457084E+02  0.36311294985E+02  0.00000000000E+00 0.  1.
         11    1    1    2    0    0 -0.57897249191E+02  0.61250557242E+02  0.58586502844E+02  0.10264550912E+03  0.00000000000E+00 0. -1.
<mgrwt>
<rscale>  0 0.14984728E+03</rscale>
<asrwt>0</asrwt>
<pdfrwt beam="1">  1        3 0.20445604E-01 0.15636375E+03</pdfrwt>
<pdfrwt beam="2">  1       -3 0.29963964E-01 0.15636375E+03</pdfrwt>
<totfact> 0.54901425E+02</totfact>
</mgrwt>
</event>
<event>
 7    1  0.4230786E-006  0.1268166E+03  0.7546771E-02  0.1247172E+00
         -3   -1    0    0    0  501 -0.00000000000E+00  0.00000000000E+00  0.31009977373E+03  0.31009977373E+03  0.00000000000E+00 0.  1.
          3   -1    0    0  501    0  0.00000000000E+00 -0.00000000000E+00 -0.40156308270E+02  0.40156308270E+02  0.00000000000E+00 0. -1.
         23    2    1    2    0    0 -0.15600279178E+02 -0.13972067047E+02  0.18165295383E+03  0.22154062012E+03  0.12507543067E+03 0.  0.
          5    1    3    3  502    0  0.14247870907E+02 -0.48532637393E+02  0.16510384701E+03  0.17274197236E+03  0.47000000000E+01 0.  1.
         -5    1    3    3    0  502 -0.29848150085E+02  0.34560570346E+02  0.16549106822E+02  0.48798647756E+02  0.47000000000E+01 0.  1.
        -11    1    1    2    0    0  0.31734785695E+02  0.90914567803E+01 -0.54614957228E+01  0.33460112746E+02  0.00000000000E+00 0. -1.
         11    1    1    2    0    0 -0.16134506516E+02  0.48806102671E+01  0.93752007349E+02  0.95255349136E+02  0.00000000000E+00 0.  1.
<mgrwt>
<rscale>  0 0.11756343E+03</rscale>
<asrwt>0</asrwt>
<pdfrwt beam="2">  1        3 0.61778938E-02 0.12681660E+03</pdfrwt>
<pdfrwt beam="1">  1       -3 0.47707656E-01 0.12681660E+03</pdfrwt>
<totfact> 0.16185468E+03</totfact>
</mgrwt>
</event>
<event>
 7    1  0.4230786E-006  0.2341693E+03  0.7546771E-02  0.1126914E+00
          1   -1    0    0  501    0  0.00000000000E+00  0.00000000000E+00  0.66106311213E+03  0.66106311213E+03  0.00000000000E+00 0. -1.
         -1   -1    0    0    0  501 -0.00000000000E+00 -0.00000000000E+00 -0.78365592823E+02  0.78365592823E+02  0.00000000000E+00 0.  1.
         23    2    1    2    0    0 -0.46401276211E+02 -0.19249531927E+03  0.25028026592E+03  0.34274695320E+03  0.12501094368E+03 0.  0.
          5    1    3    3  502    0 -0.32656344492E+02 -0.40121774093E+02  0.15252988217E+03  0.16113239447E+03  0.47000000000E+01 0.  1.
         -5    1    3    3    0  502 -0.13744931719E+02 -0.15237354518E+03  0.97750383754E+02  0.18161455873E+03  0.47000000000E+01 0.  1.
        -11    1    1    2    0    0  0.37101360110E+02  0.16776350193E+03  0.20944450287E+03  0.27090238700E+03  0.00000000000E+00 0.  1.
         11    1    1    2    0    0  0.92999161006E+01  0.24731817348E+02  0.12297275052E+03  0.12577936476E+03  0.00000000000E+00 0. -1.
<mgrwt>
<rscale>  0 0.22961073E+03</rscale>
<asrwt>0</asrwt>
<pdfrwt beam="1">  1        1 0.10170201E+00 0.23416930E+03</pdfrwt>
<pdfrwt beam="2">  1       -1 0.12056245E-01 0.23416930E+03</pdfrwt>
<totfact> 0.13923907E+03</totfact>
</mgrwt>
</event>
<event>
 7    1  0.4230786E-006  0.1437367E+03  0.7546771E-02  0.1218666E+00
         -1   -1    0    0    0  501 -0.00000000000E+00  0.00000000000E+00  0.49543435443E+03  0.49543435443E+03  0.00000000000E+00 0.  1.
          1   -1    0    0  501    0  0.00000000000E+00 -0.00000000000E+00 -0.35602233611E+02  0.35602233611E+02  0.00000000000E+00 0. -1.
         23    2    1    2    0    0 -0.10394896813E+02 -0.70202227037E+02  0.31099117594E+03  0.34260146638E+03  0.12499538670E+03 0.  0.
          5    1    3    3  502    0 -0.16198573980E+02  0.34105247761E+02  0.10295540487E+03  0.10976095442E+03  0.47000000000E+01 0.  1.
         -5    1    3    3    0  502  0.58036771670E+01 -0.10430747480E+03  0.20803577107E+03  0.23284051196E+03  0.47000000000E+01 0.  1.
        -11    1    1    2    0    0  0.24410311493E+02 -0.15299968726E+02  0.40736920247E+02  0.49894378656E+02  0.00000000000E+00 0.  1.
         11    1    1    2    0    0 -0.14015414680E+02  0.85502195763E+02  0.10810402463E+03  0.13854074300E+03  0.00000000000E+00 0. -1.
<mgrwt>
<rscale>  0 0.13610622E+03</rscale>
<asrwt>0</asrwt>
<pdfrwt beam="2">  1        1 0.54772671E-02 0.14373675E+03</pdfrwt>
<pdfrwt beam="1">  1       -1 0.76220665E-01 0.14373675E+03</pdfrwt>
<totfact> 0.25637127E+03</totfact>
</mgrwt>
</event>
<event>
 7    1  0.4230786E-006  0.1722723E+03  0.7546771E-02  0.1181730E+00
         -1   -1    0    0    0  501 -0.00000000000E+00  0.00000000000E+00  0.20460959828E+03  0.20460959828E+03  0.00000000000E+00 0.  1.
          1   -1    0    0  501    0  0.00000000000E+00 -0.00000000000E+00 -0.14493770144E+03  0.14493770144E+03  0.00000000000E+00 0. -1.
         23    2    1    2    0    0 -0.10874142907E+03 -0.47197462057E+02  0.93582335825E+02  0.19604952375E+03  0.12500185344E+03 0.  0.
          5    1    3    3  502    0 -0.33154685016E+02  0.18284691192E+02 -0.21274293526E+02  0.43683505303E+02  0.47000000000E+01 0.  1.
         -5    1    3    3    0  502 -0.75586744052E+02 -0.65482153249E+02  0.11485662935E+03  0.15236601844E+03  0.47000000000E+01 0.  1.
        -11    1    1    2    0    0  0.11218292391E+02 -0.25604989449E+02 -0.78911828257E+01  0.29047139881E+02  0.00000000000E+00 0. -1.
         11    1    1    2    0    0  0.97523136677E+02  0.72802451507E+02 -0.26019256155E+02  0.12445063609E+03  0.00000000000E+00 0.  1.
<mgrwt>
<rscale>  0 0.16633012E+03</rscale>
<asrwt>0</asrwt>
<pdfrwt beam="2">  1        1 0.22298108E-01 0.17227235E+03</pdfrwt>
<pdfrwt beam="1">  1       -1 0.31478400E-01 0.17227235E+03</pdfrwt>
<totfact> 0.20501435E+03</totfact>
</mgrwt>
</event>
<event>
 7    1  0.4230786E-006  0.1421263E+03  0.7546771E-02  0.1218665E+00
          2   -1    0    0  501    0  0.00000000000E+00  0.00000000000E+00  0.93244469347E+03  0.93244469347E+03  0.00000000000E+00 0. -1.
         -2   -1    0    0    0  501 -0.00000000000E+00 -0.00000000000E+00 -0.18441201751E+02  0.18441201751E+02  0.00000000000E+00 0.  1.
         23    2    1    2    0    0  0.33053894573E+02  0.62729737433E+02  0.46426236657E+03  0.48553004827E+03  0.12317590206E+03 0.  0.
          5    1    3    3  502    0  0.78894473938E+02  0.50232929314E+02  0.28339631858E+03  0.29846817015E+03  0.47000000000E+01 0. -1.
         -5    1    3    3    0  502 -0.45840579365E+02  0.12496808120E+02  0.18086604799E+03  0.18706187812E+03  0.47000000000E+01 0.  1.
        -11    1    1    2    0    0 -0.24825489633E+02 -0.88564797248E+02  0.32960333363E+03  0.34219641404E+03  0.00000000000E+00 0.  1.
         11    1    1    2    0    0 -0.82284049406E+01  0.25835059814E+02  0.12013779153E+03  0.12315943292E+03  0.00000000000E+00 0. -1.
<mgrwt>
<rscale>  0 0.13610717E+03</rscale>
<asrwt>0</asrwt>
<pdfrwt beam="1">  1        2 0.14345299E+00 0.14212629E+03</pdfrwt>
<pdfrwt beam="2">  1       -2 0.28371087E-02 0.14212629E+03</pdfrwt>
<totfact> 0.12817418E+04</totfact>
</mgrwt>
</event>
<event>
 7    1  0.4230786E-006  0.1650699E+03  0.7546771E-02  0.1189108E+00
         -2   -1    0    0    0  501 -0.00000000000E+00  0.00000000000E+00  0.20357808110E+02  0.20357808110E+02  0.00000000000E+00 0.  1.
          2   -1    0    0  501    0  0.00000000000E+00 -0.00000000000E+00 -0.11903622750E+04  0.11903622750E+04  0.00000000000E+00 0. -1.
         23    2    1    2    0    0  0.81726906249E+02 -0.70317145995E+02 -0.55727054844E+03  0.58120439141E+03  0.12499716880E+03 0.  0.
          5    1    3    3  502    0  0.11111961727E+03 -0.44029698197E+02 -0.47530038764E+03  0.49012114029E+03  0.47000000000E+01 0.  1.
         -5    1    3    3    0  502 -0.29392711026E+02 -0.26287447797E+02 -0.81970160801E+02  0.91083251122E+02  0.47000000000E+01 0.  1.
        -11    1    1    2    0    0 -0.10247976192E+03  0.45877414206E+02 -0.48292207211E+03  0.49580295125E+03  0.00000000000E+00 0. -1.
         11    1    1    2    0    0  0.20752855671E+02  0.24439731789E+02 -0.12981184632E+03  0.13371274043E+03  0.00000000000E+00 0.  1.
<mgrwt>
<rscale>  0 0.15963636E+03</rscale>
<asrwt>0</asrwt>
<pdfrwt beam="2">  1        2 0.18313269E+00 0.16506993E+03</pdfrwt>
<pdfrwt beam="1">  1       -2 0.31319699E-02 0.16506993E+03</pdfrwt>
<totfact> 0.78820488E+03</totfact>
</mgrwt>
</event>
<event>
 7    1  0.4230786E-006  0.1605712E+03  0.7546771E-02  0.1195869E+00
          3   -1    0    0  501    0  0.00000000000E+00  0.00000000000E+00  0.12846155592E+03  0.12846155592E+03  0.00000000000E+00 0. -1.
         -3   -1    0    0    0  501 -0.00000000000E+00 -0.00000000000E+00 -0.17921642594E+03  0.17921642594E+03  0.00000000000E+00 0.  1.
         23    2    1    2    0    0 -0.88998284188E+02  0.47299427445E+02 -0.61779623245E+02  0.17204605722E+03  0.12500077412E+03 0.  0.
          5    1    3    3  502    0 -0.39375361352E+02 -0.37348885118E+02  0.26994125218E+01  0.54541132452E+02  0.47000000000E+01 0.  1.
         -5    1    3    3    0  502 -0.49622922836E+02  0.84648312563E+02 -0.64479035767E+02  0.11750492476E+03  0.47000000000E+01 0.  1.
        -11    1    1    2    0    0  0.30767191852E+02 -0.36331024315E+02 -0.36242490637E+02  0.59833782680E+02  0.00000000000E+00 0.  1.
         11    1    1    2    0    0  0.58231092337E+02 -0.10968403130E+02  0.47267243868E+02  0.75798141962E+02  0.00000000000E+00 0. -1.
<mgrwt>
<rscale>  0 0.15380889E+03</rscale>
<asrwt>0</asrwt>
<pdfrwt beam="1">  1        3 0.19763316E-01 0.16057124E+03</pdfrwt>
<pdfrwt beam="2">  1       -3 0.27571758E-01 0.16057124E+03</pdfrwt>
<totfact> 0.68224386E+02</totfact>
</mgrwt>
</event>
<event>
 7    1  0.4230786E-006  0.1698002E+03  0.7546771E-02  0.1184465E+00
         -2   -1    0    0    0  501 -0.00000000000E+00  0.00000000000E+00  0.10156688256E+03  0.10156688256E+03  0.00000000000E+00 0.  1.
          2   -1    0    0  501    0  0.00000000000E+00 -0.00000000000E+00 -0.27950459544E+03  0.27950459544E+03  0.00000000000E+00 0. -1.
         23    2    1    2    0    0  0.79123209410E+02  0.83368434733E+02 -0.29921501746E+02  0.17241639269E+03  0.12498535123E+03 0.  0.
          5    1    3    3  502    0 -0.22819368534E+02 -0.10290871602E+02 -0.22031967466E+02  0.33676745820E+02  0.47000000000E+01 0.  1.
         -5    1    3    3    0  502  0.10194257794E+03  0.93659306335E+02 -0.78895342798E+01  0.13873964687E+03  0.47000000000E+01 0.  1.
        -11    1    1    2    0    0 -0.61228831760E+02 -0.51265750421E+02 -0.30429158250E+02  0.85458063849E+02  0.00000000000E+00 0.  1.
         11    1    1    2    0    0 -0.17894377650E+02 -0.32102684312E+02 -0.11758705289E+03  0.12319702147E+03  0.00000000000E+00 0. -1.
<mgrwt>
<rscale>  0 0.16380649E+03</rscale>
<asrwt>0</asrwt>
<pdfrwt beam="2">  1        2 0.43000706E-01 0.16980022E+03</pdfrwt>
<pdfrwt beam="1">  1       -2 0.15625675E-01 0.16980022E+03</pdfrwt>
<totfact> 0.36811961E+03</totfact>
</mgrwt>
</event>
<event>
 7    1  0.4230786E-006  0.1276544E+03  0.7546771E-02  0.1238752E+00
         -1   -1    0    0    0  501 -0.00000000000E+00  0.00000000000E+00  0.43726028136E+03  0.43726028136E+03  0.00000000000E+00 0.  1.
          1   -1    0    0  501    0  0.00000000000E+00 -0.00000000000E+00 -0.36559154638E+02  0.36559154638E+02  0.00000000000E+00 0. -1.
         23    2    1    2    0    0  0.15255675703E+02  0.20935009837E+02  0.29785695143E+03  0.32405925935E+03  0.12499851911E+03 0.  0.
          5    1    3    3  502    0  0.22367378013E+00  0.27194805070E+02  0.30457897077E+03  0.30582682500E+03  0.47000000000E+01 0.  1.
         -5    1    3    3    0  502  0.15032001923E+02 -0.62597952336E+01 -0.67220193478E+01  0.18232434349E+02  0.47000000000E+01 0.  1.
        -11    1    1    2    0    0  0.41555868329E+02 -0.20194211291E+02  0.22589082899E+02  0.51429204042E+02  0.00000000000E+00 0.  1.
         11    1    1    2    0    0 -0.56811544031E+02 -0.74079854546E+00  0.80255092393E+02  0.98330972602E+02  0.00000000000E+00 0. -1.
<mgrwt>
<rscale>  0 0.12267244E+03</rscale>
<asrwt>0</asrwt>
<pdfrwt beam="2">  1        1 0.56244857E-02 0.12765438E+03</pdfrwt>
<pdfrwt beam="1">  1       -1 0.67270809E-01 0.12765438E+03</pdfrwt>
<totfact> 0.31481362E+03</totfact>
</mgrwt>
</event>
<event>
 7    1  0.4230786E-006  0.1318402E+03  0.7546771E-02  0.1237106E+00
          4   -1    0    0  501    0  0.00000000000E+00  0.00000000000E+00  0.23877122922E+03  0.23877122922E+03  0.00000000000E+00 0. -1.
         -4   -1    0    0    0  501 -0.00000000000E+00 -0.00000000000E+00 -0.61140884781E+02  0.61140884781E+02  0.00000000000E+00 0.  1.
         23    2    1    2    0    0 -0.23516196349E+02  0.34449729607E+02  0.62294658152E+02  0.14581652983E+03  0.12506814373E+03 0.  0.
          5    1    3    3  502    0  0.29311810315E+02  0.25713508923E+02 -0.22617624920E+02  0.45321228162E+02  0.47000000000E+01 0. -1.
         -5    1    3    3    0  502 -0.52828006665E+02  0.87362206832E+01  0.84912283072E+02  0.10049530166E+03  0.47000000000E+01 0. -1.
        -11    1    1    2    0    0  0.36106147361E+02 -0.12028383581E+02  0.22502967243E+01  0.38123479959E+02  0.00000000000E+00 0.  1.
         11    1    1    2    0    0 -0.12589951012E+02 -0.22421346026E+02  0.11308538956E+03  0.11597210421E+03  0.00000000000E+00 0. -1.
<mgrwt>
<rscale>  0 0.12370570E+03</rscale>
<asrwt>0</asrwt>
<pdfrwt beam="1">  1        4 0.36734035E-01 0.13184019E+03</pdfrwt>
<pdfrwt beam="2">  1       -4 0.94062901E-02 0.13184019E+03</pdfrwt>
<totfact> 0.99368463E+02</totfact>
</mgrwt>
</event>
<event>
 7    1  0.4230786E-006  0.1603782E+03  0.7546771E-02  0.1195474E+00
          2   -1    0    0  501    0  0.00000000000E+00  0.00000000000E+00  0.97214972184E+03  0.97214972184E+03  0.00000000000E+00 0. -1.
         -2   -1    0    0    0  501 -0.00000000000E+00 -0.00000000000E+00 -0.25476362964E+02  0.25476362964E+02  0.00000000000E+00 0.  1.
         23    2    1    2    0    0  0.83616449383E+02 -0.55728908628E+02  0.34310525532E+03  0.37873787858E+03  0.12499497022E+03 0.  0.
          5    1    3    3  502    0  0.78930959826E+02  0.12880820268E+02  0.25242749150E+03  0.26483530809E+03  0.47000000000E+01 0. -1.
         -5    1    3    3    0  502  0.46854895570E+01 -0.68609728897E+02  0.90677763819E+02  0.11390257048E+03  0.47000000000E+01 0. -1.
        -11    1    1    2    0    0 -0.50247439981E+02 -0.14688433740E+02  0.15499252068E+03  0.16359473335E+03  0.00000000000E+00 0. -1.
         11    1    1    2    0    0 -0.33369009403E+02  0.70417342368E+02  0.44857558287E+03  0.45529347287E+03  0.00000000000E+00 0.  1.
<mgrwt>
<rscale>  0 0.15414195E+03</rscale>
<asrwt>0</asrwt>
<pdfrwt beam="1">  1        2 0.14956147E+00 0.16037819E+03</pdfrwt>
<pdfrwt beam="2">  1       -2 0.39194412E-02 0.16037819E+03</pdfrwt>
<totfact> 0.75608717E+03</totfact>
</mgrwt>
</event>
<event>
 6    1  0.4230786E-006  0.1637487E+03  0.7546771E-02  0.1197413E+00
          1   -1    0    0  501    0  0.00000000000E+00  0.00000000000E+00  0.41868706929E+03  0.41868706929E+03  0.00000000000E+00 0. -1.
         -1   -1    0    0    0  501 -0.00000000000E+00 -0.00000000000E+00 -0.13893242909E+03  0.13893242909E+03  0.00000000000E+00 0.  1.
          5    1    1    2  502    0 -0.24324217686E+02  0.18019455040E+02 -0.81952331363E+02  0.87490816329E+02  0.47000000000E+01 0. -1.
         -5    1    1    2    0  502  0.81532940155E+02  0.44607310360E+02  0.55148629673E+01  0.93219827190E+02  0.47000000000E+01 0.  1.
        -11    1    1    2    0    0 -0.66190827604E+02 -0.74237397085E+02  0.34314711025E+03  0.35727070417E+03  0.00000000000E+00 0. -1.
         11    1    1    2    0    0  0.89821051351E+01  0.11610631686E+02  0.13044998346E+02  0.19638150693E+02  0.00000000000E+00 0.  1.
<mgrwt>
<rscale>  0 0.15251731E+03</rscale>
<asrwt>0</asrwt>
<pdfrwt beam="1">  1        1 0.64413395E-01 0.16374874E+03</pdfrwt>
<pdfrwt beam="2">  1       -1 0.21374220E-01 0.16374874E+03</pdfrwt>
<totfact> 0.10293604E+03</totfact>
</mgrwt>
</event>
<event>
 7    1  0.4230786E-006  0.1253889E+03  0.7546771E-02  0.1250363E+00
         -1   -1    0    0    0  501 -0.00000000000E+00  0.00000000000E+00  0.53909912277E+02  0.53909912277E+02  0.00000000000E+00 0.  1.
          1   -1    0    0  501    0  0.00000000000E+00 -0.00000000000E+00 -0.22163007420E+03  0.22163007420E+03  0.00000000000E+00 0. -1.
         23    2    1    2    0    0  0.10210676447E+02  0.40733578998E+00 -0.77163259065E+02  0.14722954064E+03  0.12497177781E+03 0.  0.
          5    1    3    3  502    0 -0.43077337012E+02 -0.18359079497E+02  0.50857555665E+01  0.47335691330E+02  0.47000000000E+01 0.  1.
         -5    1    3    3    0  502  0.53288013459E+02  0.18766415287E+02 -0.82249014631E+02  0.99893849305E+02  0.47000000000E+01 0.  1.
        -11    1    1    2    0    0 -0.42913057402E+02 -0.12078649133E+02 -0.18389899171E+02  0.48224606291E+02  0.00000000000E+00 0.  1.
         11    1    1    2    0    0  0.32702380955E+02  0.11671313343E+02 -0.72167003685E+02  0.80085839549E+02  0.00000000000E+00 0. -1.
<mgrwt>
<rscale>  0 0.11570086E+03</rscale>
<asrwt>0</asrwt>
<pdfrwt beam="2">  1        1 0.34096935E-01 0.12538887E+03</pdfrwt>
<pdfrwt beam="1">  1       -1 0.82938326E-02 0.12538887E+03</pdfrwt>
<totfact> 0.98280816E+03</totfact>
</mgrwt>
</event>
<event>
 7    1  0.4230786E-006  0.1259892E+03  0.7546771E-02  0.1246779E+00
          2   -1    0    0  501    0  0.00000000000E+00  0.00000000000E+00  0.30106558239E+03  0.30106558239E+03  0.00000000000E+00 0. -1.
         -2   -1    0    0    0  501 -0.00000000000E+00 -0.00000000000E+00 -0.42989067707E+02  0.42989067707E+02  0.00000000000E+00 0.  1.
         23    2    1    2    0    0 -0.15652253304E+02 -0.13457291618E+01  0.10901502480E+03  0.16660599546E+03  0.12500591214E+03 0.  0.
          5    1    3    3  502    0 -0.11655890283E+02  0.42205031546E+02 -0.50775327395E+01  0.44328273199E+02  0.47000000000E+01 0. -1.
         -5    1    3    3    0  502 -0.39963630211E+01 -0.43550760707E+02  0.11409255754E+03  0.12227772227E+03  0.47000000000E+01 0. -1.
        -11    1    1    2    0    0 -0.69804049589E+01 -0.35777568063E+02  0.20691179806E+02  0.41915216231E+02  0.00000000000E+00 0.  1.
         11    1    1    2    0    0  0.22632658263E+02  0.37123297225E+02  0.12837031008E+03  0.13553343840E+03  0.00000000000E+00 0. -1.
<mgrwt>
<rscale>  0 0.11779514E+03</rscale>
<asrwt>0</asrwt>
<pdfrwt beam="1">  1        2 0.46317780E-01 0.12598921E+03</pdfrwt>
<pdfrwt beam="2">  1       -2 0.66137029E-02 0.12598921E+03</pdfrwt>
<totfact> 0.12975233E+04</totfact>
</mgrwt>
</event>
<event>
 7    1  0.4230786E-006  0.1548816E+03  0.7546771E-02  0.1203262E+00
          1   -1    0    0  501    0  0.00000000000E+00  0.00000000000E+00  0.13510039116E+02  0.13510039116E+02  0.00000000000E+00 0. -1.
         -1   -1    0    0    0  501 -0.00000000000E+00 -0.00000000000E+00 -0.28038561128E+04  0.28038561128E+04  0.00000000000E+00 0.  1.
         23    2    1    2    0    0  0.54090371159E+02  0.73729374070E+02 -0.24288968303E+04  0.24338299306E+04  0.12500611940E+03 0.  0.
          5    1    3    3  502    0  0.19515552722E+01 -0.26090839432E+02 -0.16488429615E+03  0.16701335751E+03  0.47000000000E+01 0. -1.
         -5    1    3    3    0  502  0.52138815887E+02  0.99820213502E+02 -0.22640125342E+04  0.22668165731E+04  0.47000000000E+01 0. -1.
        -11    1    1    2    0    0 -0.12550759093E+02 -0.68584643784E+02 -0.30721743353E+03  0.31503004044E+03  0.00000000000E+00 0.  1.
         11    1    1    2    0    0 -0.41539612066E+02 -0.51447302863E+01 -0.54231809844E+02  0.68506180884E+02  0.00000000000E+00 0. -1.
<mgrwt>
<rscale>  0 0.14775271E+03</rscale>
<asrwt>0</asrwt>
<pdfrwt beam="1">  1        1 0.20784658E-02 0.15488163E+03</pdfrwt>
<pdfrwt beam="2">  1       -1 0.43136285E+00 0.15488163E+03</pdfrwt>
<totfact> 0.31784701E+01</totfact>
</mgrwt>
</event>
<event>
 7    1  0.4230786E-006  0.1154339E+03  0.7546771E-02  0.1253835E+00
          2   -1    0    0  501    0  0.00000000000E+00  0.00000000000E+00  0.17523007657E+02  0.17523007657E+02  0.00000000000E+00 0. -1.
         -2   -1    0    0    0  501 -0.00000000000E+00 -0.00000000000E+00 -0.11904114870E+04  0.11904114870E+04  0.00000000000E+00 0.  1.
         23    2    1    2    0    0  0.25136007445E+02 -0.49953935491E+01 -0.97784708908E+03  0.98463694715E+03  0.11255316628E+03 0.  0.
          5    1    3    3  502    0 -0.22087247179E+02  0.42082266353E+02 -0.35056015248E+03  0.35379835237E+03  0.47000000000E+01 0. -1.
         -5    1    3    3    0  502  0.47223254624E+02 -0.47077659902E+02 -0.62728693660E+03  0.63083859478E+03  0.47000000000E+01 0.  1.
        -11    1    1    2    0    0  0.13450965298E+01 -0.23146226764E+02  0.12691547380E+01  0.23219988197E+02  0.00000000000E+00 0.  1.
         11    1    1    2    0    0 -0.26481103975E+02  0.28141620313E+02 -0.19631054502E+03  0.20007755933E+03  0.00000000000E+00 0. -1.
<mgrwt>
<rscale>  0 0.11371827E+03</rscale>
<asrwt>0</asrwt>
<pdfrwt beam="1">  1        2 0.26958463E-02 0.11543391E+03</pdfrwt>
<pdfrwt beam="2">  1       -2 0.18314030E+00 0.11543391E+03</pdfrwt>
<totfact> 0.65026982E+02</totfact>
</mgrwt>
</event>
<event>
 7    1  0.4230786E-006  0.1784927E+03  0.7546771E-02  0.1174902E+00
         -1   -1    0    0    0  501 -0.00000000000E+00  0.00000000000E+00  0.18189719758E+04  0.18189719758E+04  0.00000000000E+00 0.  1.
          1   -1    0    0  501    0  0.00000000000E+00 -0.00000000000E+00 -0.21533947994E+02  0.21533947994E+02  0.00000000000E+00 0. -1.
         23    2    1    2    0    0  0.59335147658E+02  0.11275750822E+03  0.14277736929E+04  0.14388875484E+04  0.12499897287E+03 0.  0.
          5    1    3    3  502    0  0.27591458768E+02  0.98852464295E+02  0.49955182411E+03  0.51000707178E+03  0.47000000000E+01 0.  1.
         -5    1    3    3    0  502  0.31743688890E+02  0.13905043927E+02  0.92822186883E+03  0.92888047660E+03  0.47000000000E+01 0.  1.
        -11    1    1    2    0    0 -0.40845226727E+02 -0.21390737015E+02  0.22387888300E+03  0.22857744952E+03  0.00000000000E+00 0.  1.
         11    1    1    2    0    0 -0.18489920931E+02 -0.91366771207E+02  0.14578545183E+03  0.17304092586E+03  0.00000000000E+00 0. -1.
<mgrwt>
<rscale>  0 0.17285536E+03</rscale>
<asrwt>0</asrwt>
<pdfrwt beam="2">  1        1 0.33129165E-02 0.17849274E+03</pdfrwt>
<pdfrwt beam="1">  1       -1 0.27984172E+00 0.17849274E+03</pdfrwt>
<totfact> 0.15425405E+02</totfact>
</mgrwt>
</event>
<event>
 7    1  0.4230786E-006  0.1346250E+03  0.7546771E-02  0.1232002E+00
          1   -1    0    0  501    0  0.00000000000E+00  0.00000000000E+00  0.48304339814E+02  0.48304339814E+02  0.00000000000E+00 0. -1.
         -1   -1    0    0    0  501 -0.00000000000E+00 -0.00000000000E+00 -0.36639357519E+03  0.36639357519E+03  0.00000000000E+00 0.  1.
         23    2    1    2    0    0  0.27401861164E+02  0.41798405251E+02 -0.26131240507E+03  0.29395247757E+03  0.12500366935E+03 0.  0.
          5    1    3    3  502    0  0.62194803162E+02  0.22808509030E+02 -0.23935207382E+03  0.24839469975E+03  0.47000000000E+01 0.  1.
         -5    1    3    3    0  502 -0.34792941998E+02  0.18989896221E+02 -0.21960331254E+02  0.45557777823E+02  0.47000000000E+01 0.  1.
        -11    1    1    2    0    0 -0.44771072080E+02  0.10560801670E+02 -0.71677084147E+01  0.46554865171E+02  0.00000000000E+00 0. -1.
         11    1    1    2    0    0  0.17369210916E+02 -0.52359206921E+02 -0.49609121889E+02  0.74190572257E+02  0.00000000000E+00 0.  1.
<mgrwt>
<rscale>  0 0.12698333E+03</rscale>
<asrwt>0</asrwt>
<pdfrwt beam="1">  1        1 0.74314368E-02 0.13462498E+03</pdfrwt>
<pdfrwt beam="2">  1       -1 0.56368243E-01 0.13462498E+03</pdfrwt>
<totfact> 0.30369498E+03</totfact>
</mgrwt>
</event>
<event>
 7    1  0.4230786E-006  0.2555730E+03  0.7546771E-02  0.1112137E+00
         -2   -1    0    0    0  501 -0.00000000000E+00  0.00000000000E+00  0.73805274962E+02  0.73805274962E+02  0.00000000000E+00 0.  1.
          2   -1    0    0  501    0  0.00000000000E+00 -0.00000000000E+00 -0.92115635490E+03  0.92115635490E+03  0.00000000000E+00 0. -1.
         23    2    1    2    0    0 -0.76843902411E+02 -0.20925609757E+03 -0.58669698244E+03  0.63994602046E+03  0.12499784075E+03 0.  0.
          5    1    3    3  502    0 -0.29901071679E+02 -0.20025380528E+03 -0.51745388041E+03  0.55567640671E+03  0.47000000000E+01 0.  1.
         -5    1    3    3    0  502 -0.46942830732E+02 -0.90022922852E+01 -0.69243102025E+02  0.84269613750E+02  0.47000000000E+01 0.  1.
        -11    1    1    2    0    0  0.16671126401E+02  0.37929737701E+02 -0.11498525942E+03  0.12222193478E+03  0.00000000000E+00 0. -1.
         11    1    1    2    0    0  0.60172776010E+02  0.17132635987E+03 -0.14566883809E+03  0.23279367463E+03  0.00000000000E+00 0.  1.
<mgrwt>
<rscale>  0 0.25185702E+03</rscale>
<asrwt>0</asrwt>
<pdfrwt beam="2">  1        2 0.14171637E+00 0.25557300E+03</pdfrwt>
<pdfrwt beam="1">  1       -2 0.11354657E-01 0.25557300E+03</pdfrwt>
<totfact> 0.15915845E+03</totfact>
</mgrwt>
</event>
<event>
 7    1  0.4230786E-006  0.1934537E+03  0.7546771E-02  0.1159986E+00
          2   -1    0    0  501    0  0.00000000000E+00  0.00000000000E+00  0.10727847100E+04  0.10727847100E+04  0.00000000000E+00 0. -1.
         -2   -1    0    0    0  501 -0.00000000000E+00 -0.00000000000E+00 -0.31521142446E+02  0.31521142446E+02  0.00000000000E+00 0.  1.
         23    2    1    2    0    0  0.51025733338E+02 -0.13854983741E+03  0.51690482975E+03  0.55191932753E+03  0.12499863270E+03 0.  0.
          5    1    3    3  502    0 -0.38829576694E+02 -0.44620186333E+02  0.21817531770E+03  0.22610010241E+03  0.47000000000E+01 0. -1.
         -5    1    3    3    0  502  0.89855310032E+02 -0.93929651073E+02  0.29872951205E+03  0.32581922513E+03  0.47000000000E+01 0. -1.
        -11    1    1    2    0    0 -0.11762496434E+02  0.49599172112E+02  0.63733801611E+02  0.81611467726E+02  0.00000000000E+00 0.  1.
         11    1    1    2    0    0 -0.39263236904E+02  0.88950665294E+02  0.46062493618E+03  0.47077505718E+03  0.00000000000E+00 0. -1.
<mgrwt>
<rscale>  0 0.18831960E+03</rscale>
<asrwt>0</asrwt>
<pdfrwt beam="1">  1        2 0.16504377E+00 0.19345372E+03</pdfrwt>
<pdfrwt beam="2">  1       -2 0.48494073E-02 0.19345372E+03</pdfrwt>
<totfact> 0.48141438E+03</totfact>
</mgrwt>
</event>
<event>
 7    1  0.4230786E-006  0.1492013E+03  0.7546771E-02  0.1210884E+00
          1   -1    0    0  501    0  0.00000000000E+00  0.00000000000E+00  0.30443204517E+03  0.30443204517E+03  0.00000000000E+00 0. -1.
         -1   -1    0    0    0  501 -0.00000000000E+00 -0.00000000000E+00 -0.60363085279E+02  0.60363085279E+02  0.00000000000E+00 0.  1.
         23    2    1    2    0    0 -0.35662183107E+02  0.73240263957E+02  0.12994413442E+03  0.19785477195E+03  0.12500042058E+03 0.  0.
          5    1    3    3  502    0 -0.47159723228E+02  0.47403826389E+02  0.14903287303E+03  0.16341373717E+03  0.47000000000E+01 0.  1.
         -5    1    3    3    0  502  0.11497540122E+02  0.25836437568E+02 -0.19088738612E+02  0.34441034782E+02  0.47000000000E+01 0.  1.
        -11    1    1    2    0    0  0.62013254100E+02 -0.39708768130E+02  0.46818666459E+02  0.87260629607E+02  0.00000000000E+00 0.  1.
         11    1    1    2    0    0 -0.26351070994E+02 -0.33531495827E+02  0.67306159010E+02  0.79679728888E+02  0.00000000000E+00 0. -1.
<mgrwt>
<rscale>  0 0.14183244E+03</rscale>
<asrwt>0</asrwt>
<pdfrwt beam="1">  1        1 0.46835698E-01 0.14920132E+03</pdfrwt>
<pdfrwt beam="2">  1       -1 0.92866287E-02 0.14920132E+03</pdfrwt>
<totfact> 0.56581274E+03</totfact>
</mgrwt>
</event>
<event>
 7    1  0.4230786E-006  0.1141491E+03  0.7546771E-02  0.1261527E+00
          1   -1    0    0  501    0  0.00000000000E+00  0.00000000000E+00  0.31321168971E+03  0.31321168971E+03  0.00000000000E+00 0. -1.
         -1   -1    0    0    0  501 -0.00000000000E+00 -0.00000000000E+00 -0.37866447918E+02  0.37866447918E+02  0.00000000000E+00 0.  1.
         23    2    1    2    0    0 -0.14409268766E+02 -0.22163742313E+02  0.10423147963E+03  0.15457752091E+03  0.11104571187E+03 0.  0.
          5    1    3    3  502    0  0.20638070842E+02  0.22046789223E+02  0.91611984763E+02  0.96575548848E+02  0.47000000000E+01 0. -1.
         -5    1    3    3    0  502 -0.35047339608E+02 -0.44210531536E+02  0.12619494870E+02  0.58001972061E+02  0.47000000000E+01 0.  1.
        -11    1    1    2    0    0 -0.67812093616E+01  0.40082625127E+02  0.16240429491E+03  0.16741492360E+03  0.00000000000E+00 0.  1.
         11    1    1    2    0    0  0.21190478127E+02 -0.17918882814E+02  0.87094672468E+01  0.29085693120E+02  0.00000000000E+00 0. -1.
<mgrwt>
<rscale>  0 0.10948495E+03</rscale>
<asrwt>0</asrwt>
<pdfrwt beam="1">  1        1 0.48186412E-01 0.11414906E+03</pdfrwt>
<pdfrwt beam="2">  1       -1 0.58256076E-02 0.11414906E+03</pdfrwt>
<totfact> 0.10798291E+04</totfact>
</mgrwt>
</event>
<event>
 7    1  0.4230786E-006  0.1318284E+03  0.7546771E-02  0.1232401E+00
          1   -1    0    0  501    0  0.00000000000E+00  0.00000000000E+00  0.44031670876E+03  0.44031670876E+03  0.00000000000E+00 0. -1.
         -1   -1    0    0    0  501 -0.00000000000E+00 -0.00000000000E+00 -0.82436496955E+02  0.82436496955E+02  0.00000000000E+00 0.  1.
         23    2    1    2    0    0  0.54185413538E+02 -0.37756417027E+02 -0.15535815902E+02  0.13274068535E+03  0.11409260233E+03 0.  0.
          5    1    3    3  502    0 -0.14856130427E+02  0.15907807632E+02 -0.36443815672E+02  0.42708367513E+02  0.47000000000E+01 0. -1.
         -5    1    3    3    0  502  0.69041543965E+02 -0.53664224659E+02  0.20907999770E+02  0.90032317840E+02  0.47000000000E+01 0.  1.
        -11    1    1    2    0    0  0.23066813884E+02 -0.37434071799E+01  0.10747250556E+03  0.10998377359E+03  0.00000000000E+00 0.  1.
         11    1    1    2    0    0 -0.77252227422E+02  0.41499824207E+02  0.26594352215E+03  0.28002874678E+03  0.00000000000E+00 0. -1.
<mgrwt>
<rscale>  0 0.12672282E+03</rscale>
<asrwt>0</asrwt>
<pdfrwt beam="1">  1        1 0.67741031E-01 0.13182840E+03</pdfrwt>
<pdfrwt beam="2">  1       -1 0.12682538E-01 0.13182840E+03</pdfrwt>
<totfact> 0.21950013E+03</totfact>
</mgrwt>
</event>
<event>
 7    1  0.4230786E-006  0.1754421E+03  0.7546771E-02  0.1178421E+00
          1   -1    0    0  501    0  0.00000000000E+00  0.00000000000E+00  0.38426216846E+03  0.38426216846E+03  0.00000000000E+00 0. -1.
         -1   -1    0    0    0  501 -0.00000000000E+00 -0.00000000000E+00 -0.71504418503E+02  0.71504418503E+02  0.00000000000E+00 0.  1.
         23    2    1    2    0    0 -0.12224709128E+03  0.16866475301E+02  0.13452790153E+03  0.22108297981E+03  0.12470404306E+03 0.  0.
          5    1    3    3  502    0 -0.22317142294E+02  0.55312388841E+02  0.17371330837E+02  0.62300628685E+02  0.47000000000E+01 0. -1.
         -5    1    3    3    0  502 -0.99929948988E+02 -0.38445913540E+02  0.11715657069E+03  0.15878235113E+03  0.47000000000E+01 0. -1.
        -11    1    1    2    0    0  0.89471780864E+02  0.27506918969E+02  0.13650558900E+03  0.16551618045E+03  0.00000000000E+00 0.  1.
         11    1    1    2    0    0  0.32775310417E+02 -0.44373394270E+02  0.41724259429E+02  0.69167426704E+02  0.00000000000E+00 0. -1.
<mgrwt>
<rscale>  0 0.16945108E+03</rscale>
<asrwt>0</asrwt>
<pdfrwt beam="1">  1        1 0.59117256E-01 0.17544209E+03</pdfrwt>
<pdfrwt beam="2">  1       -1 0.11000680E-01 0.17544209E+03</pdfrwt>
<totfact> 0.32848539E+03</totfact>
</mgrwt>
</event>
<event>
 6    1  0.4230786E-006  0.1855572E+03  0.7546771E-02  0.1189714E+00
         -1   -1    0    0    0  501 -0.00000000000E+00  0.00000000000E+00  0.25370019412E+03  0.25370019412E+03  0.00000000000E+00 0.  1.
          1   -1    0    0  501    0  0.00000000000E+00 -0.00000000000E+00 -0.18394034998E+03  0.18394034998E+03  0.00000000000E+00 0. -1.
          5    1    1    2  502    0  0.72158652500E+02 -0.17456724391E+02  0.92821867578E+02  0.11895208051E+03  0.47000000000E+01 0. -1.
         -5    1    1    2    0  502 -0.11029575247E+03 -0.21350514691E+01  0.10746537792E+03  0.15407987834E+03  0.47000000000E+01 0.  1.
        -11    1    1    2    0    0  0.60670817315E+02  0.37527201343E+02 -0.88781236039E+02  0.11389182054E+03  0.00000000000E+00 0.  1.
         11    1    1    2    0    0 -0.22533717346E+02 -0.17935425482E+02 -0.41746165307E+02  0.50716764709E+02  0.00000000000E+00 0. -1.
<mgrwt>
<rscale>  0 0.15910193E+03</rscale>
<asrwt>0</asrwt>
<pdfrwt beam="2">  1        1 0.28298516E-01 0.18555719E+03</pdfrwt>
<pdfrwt beam="1">  1       -1 0.39030799E-01 0.18555719E+03</pdfrwt>
<totfact> 0.10477791E+03</totfact>
</mgrwt>
</event>
<event>
 7    1  0.4230786E-006  0.1398473E+03  0.7546771E-02  0.1224650E+00
         -1   -1    0    0    0  501 -0.00000000000E+00  0.00000000000E+00  0.72758421093E+02  0.72758421093E+02  0.00000000000E+00 0.  1.
          1   -1    0    0  501    0  0.00000000000E+00 -0.00000000000E+00 -0.29213220986E+03  0.29213220986E+03  0.00000000000E+00 0. -1.
         23    2    1    2    0    0  0.30352349528E+02 -0.54859008476E+02 -0.26248257162E+02  0.14228922847E+03  0.12500591027E+03 0.  0.
          5    1    3    3  502    0  0.75062504387E+02 -0.55492760631E+02 -0.81444534928E+01  0.93820297218E+02  0.47000000000E+01 0.  1.
         -5    1    3    3    0  502 -0.44710154860E+02  0.63375215492E+00 -0.18103803669E+02  0.48468931251E+02  0.47000000000E+01 0.  1.
        -11    1    1    2    0    0 -0.71573629078E+01  0.75058784585E+02 -0.10503670855E+03  0.12929717371E+03  0.00000000000E+00 0.  1.
         11    1    1    2    0    0 -0.23194986620E+02 -0.20199776109E+02 -0.88088823055E+02  0.93304228770E+02  0.00000000000E+00 0. -1.
<mgrwt>
<rscale>  0 0.13190911E+03</rscale>
<asrwt>0</asrwt>
<pdfrwt beam="2">  1        1 0.44943417E-01 0.13984725E+03</pdfrwt>
<pdfrwt beam="1">  1       -1 0.11193603E-01 0.13984725E+03</pdfrwt>
<totfact> 0.44583762E+03</totfact>
</mgrwt>
</event>
<event>
 7    1  0.4230786E-006  0.3562625E+03  0.7546771E-02  0.1061058E+00
         -1   -1    0    0    0  501 -0.00000000000E+00  0.00000000000E+00  0.76418318889E+03  0.76418318889E+03  0.00000000000E+00 0.  1.
          1   -1    0    0  501    0  0.00000000000E+00 -0.00000000000E+00 -0.17070019111E+03  0.17070019111E+03  0.00000000000E+00 0. -1.
         23    2    1    2    0    0 -0.73423855730E+01 -0.33353504359E+03  0.40844349701E+03  0.54198620853E+03  0.12499369609E+03 0.  0.
          5    1    3    3  502    0 -0.39140012922E+01 -0.28098802701E+03  0.25428872618E+03  0.37901772649E+03  0.47000000000E+01 0.  1.
         -5    1    3    3    0  502 -0.34283842808E+01 -0.52547016573E+02  0.15415477083E+03  0.16296848204E+03  0.47000000000E+01 0.  1.
        -11    1    1    2    0    0  0.50382337012E+02  0.20219540821E+03  0.11013403830E+03  0.23569231930E+03  0.00000000000E+00 0. -1.
         11    1    1    2    0    0 -0.43039951439E+02  0.13133963538E+03  0.74905462473E+02  0.15720485218E+03  0.00000000000E+00 0.  1.
<mgrwt>
<rscale>  0 0.35382080E+03</rscale>
<asrwt>0</asrwt>
<pdfrwt beam="2">  1        1 0.26261568E-01 0.35626249E+03</pdfrwt>
<pdfrwt beam="1">  1       -1 0.11756664E+00 0.35626249E+03</pdfrwt>
<totfact> 0.12432970E+02</totfact>
</mgrwt>
</event>
<event>
 7    1  0.4230786E-006  0.1367646E+03  0.7546771E-02  0.1223479E+00
         -1   -1    0    0    0  501 -0.00000000000E+00  0.00000000000E+00  0.49387697875E+02  0.49387697875E+02  0.00000000000E+00 0.  1.
          1   -1    0    0  501    0  0.00000000000E+00 -0.00000000000E+00 -0.57017337507E+03  0.57017337507E+03  0.00000000000E+00 0. -1.
         23    2    1    2    0    0  0.58280240590E+02 -0.53999450706E+02 -0.71763899313E+02  0.15444942258E+03  0.11131953903E+03 0.  0.
          5    1    3    3  502    0  0.31244319694E+01  0.30329608573E+02 -0.36029343417E+02  0.47432592364E+02  0.47000000000E+01 0. -1.
         -5    1    3    3    0  502  0.55155808620E+02 -0.84329059279E+02 -0.35734555896E+02  0.10701683021E+03  0.47000000000E+01 0.  1.
        -11    1    1    2    0    0 -0.42972407247E+02 -0.18154632519E+02 -0.20175055893E+03  0.20707367408E+03  0.00000000000E+00 0.  1.
         11    1    1    2    0    0 -0.15307833343E+02  0.72154083225E+02 -0.24727121895E+03  0.25803797629E+03  0.00000000000E+00 0. -1.
<mgrwt>
<rscale>  0 0.13271672E+03</rscale>
<asrwt>0</asrwt>
<pdfrwt beam="2">  1        1 0.87718981E-01 0.13676464E+03</pdfrwt>
<pdfrwt beam="1">  1       -1 0.75981074E-02 0.13676464E+03</pdfrwt>
<totfact> 0.34254892E+03</totfact>
</mgrwt>
</event>
<event>
 7    1  0.7980439E-006  0.2410500E+03  0.7546771E-02  0.1122016E+00
          1   -1    0    0  501    0  0.00000000000E+00  0.00000000000E+00  0.97286928597E+02  0.97286928597E+02  0.00000000000E+00 0. -1.
         -1   -1    0    0    0  501 -0.00000000000E+00 -0.00000000000E+00 -0.55737112661E+03  0.55737112661E+03  0.00000000000E+00 0.  1.
         23    2    1    2    0    0  0.39761343371E+02 -0.20223455697E+03 -0.22201260581E+03  0.32771132249E+03  0.12500133317E+03 0.  0.
          5    1    3    3  502    0  0.76692435649E+02 -0.12352345249E+03 -0.17881295646E+03  0.23051233460E+03  0.47000000000E+01 0.  1.
         -5    1    3    3    0  502 -0.36931092277E+02 -0.78711104479E+02 -0.43199649343E+02  0.97198987898E+02  0.47000000000E+01 0.  1.
        -11    1    1    2    0    0  0.20047926972E+02  0.93497627135E+02 -0.13605646530E+03  0.16629818822E+03  0.00000000000E+00 0.  1.
         11    1    1    2    0    0 -0.59809270343E+02  0.10873692984E+03 -0.10201512691E+03  0.16064854450E+03  0.00000000000E+00 0. -1.
<mgrwt>
<rscale>  0 0.23669318E+03</rscale>
<asrwt>0</asrwt>
<pdfrwt beam="1">  1        1 0.14967220E-01 0.24105002E+03</pdfrwt>
<pdfrwt beam="2">  1       -1 0.85749403E-01 0.24105002E+03</pdfrwt>
<totfact> 0.52758040E+02</totfact>
</mgrwt>
</event>
<event>
 7    1  0.4230786E-006  0.1262454E+03  0.7546771E-02  0.1248762E+00
          1   -1    0    0  501    0  0.00000000000E+00  0.00000000000E+00  0.20076521136E+03  0.20076521136E+03  0.00000000000E+00 0. -1.
         -1   -1    0    0    0  501 -0.00000000000E+00 -0.00000000000E+00 -0.59437020786E+02  0.59437020786E+02  0.00000000000E+00 0.  1.
         23    2    1    2    0    0  0.63273093463E+01 -0.16471654282E+02  0.88130013074E+02  0.15396364171E+03  0.12500621395E+03 0.  0.
          5    1    3    3  502    0  0.53804821821E+02 -0.14125637604E+02  0.24646906096E+01  0.55880740768E+02  0.47000000000E+01 0.  1.
         -5    1    3    3    0  502 -0.47477512475E+02 -0.23460166773E+01  0.85665322465E+02  0.98082900946E+02  0.47000000000E+01 0.  1.
        -11    1    1    2    0    0  0.13933964667E+02 -0.65583263159E+01 -0.20946993463E+02  0.25998914410E+02  0.00000000000E+00 0.  1.
         11    1    1    2    0    0 -0.20261274013E+02  0.23029980597E+02  0.74145170961E+02  0.80239676020E+02  0.00000000000E+00 0. -1.
<mgrwt>
<rscale>  0 0.11663023E+03</rscale>
<asrwt>0</asrwt>
<pdfrwt beam="1">  1        1 0.30886955E-01 0.12624541E+03</pdfrwt>
<pdfrwt beam="2">  1       -1 0.91441571E-02 0.12624541E+03</pdfrwt>
<totfact> 0.95888329E+03</totfact>
</mgrwt>
</event>
<event>
 7    1  0.4230786E-006  0.1295767E+03  0.7546771E-02  0.1241060E+00
          2   -1    0    0  501    0  0.00000000000E+00  0.00000000000E+00  0.14655016481E+03  0.14655016481E+03  0.00000000000E+00 0. -1.
         -2   -1    0    0    0  501 -0.00000000000E+00 -0.00000000000E+00 -0.10406041568E+03  0.10406041568E+03  0.00000000000E+00 0.  1.
         23    2    1    2    0    0  0.18669608556E+01  0.33992789531E+02 -0.23052836281E+02  0.13161135581E+03  0.12502447934E+03 0.  0.
          5    1    3    3  502    0 -0.91873750878E+01 -0.27108929529E+02  0.35699679789E+02  0.45998467998E+02  0.47000000000E+01 0. -1.
         -5    1    3    3    0  502  0.11054335943E+02  0.61101719059E+02 -0.58752516070E+02  0.85612887813E+02  0.47000000000E+01 0. -1.
        -11    1    1    2    0    0  0.15029598229E+02 -0.52626458851E+02  0.74373027662E+02  0.92340566588E+02  0.00000000000E+00 0. -1.
         11    1    1    2    0    0 -0.16896559084E+02  0.18633669320E+02 -0.88304422500E+01  0.26658658098E+02  0.00000000000E+00 0.  1.
<mgrwt>
<rscale>  0 0.12124314E+03</rscale>
<asrwt>0</asrwt>
<pdfrwt beam="1">  1        2 0.22546179E-01 0.12957668E+03</pdfrwt>
<pdfrwt beam="2">  1       -2 0.16009295E-01 0.12957668E+03</pdfrwt>
<totfact> 0.70164808E+03</totfact>
</mgrwt>
</event>
<event>
 6    1  0.4230786E-006  0.2933382E+03  0.7546771E-02  0.1112205E+00
         -1   -1    0    0    0  501 -0.00000000000E+00  0.00000000000E+00  0.71435928559E+02  0.71435928559E+02  0.00000000000E+00 0.  1.
          1   -1    0    0  501    0  0.00000000000E+00 -0.00000000000E+00 -0.72617699851E+03  0.72617699851E+03  0.00000000000E+00 0. -1.
          5    1    1    2  502    0  0.12515593284E+03 -0.10055337164E+03 -0.28547754936E+03  0.32755840587E+03  0.47000000000E+01 0. -1.
         -5    1    1    2    0  502  0.54792890349E+01  0.11925456953E+03 -0.93663054618E+02  0.15181084534E+03  0.47000000000E+01 0.  1.
        -11    1    1    2    0    0  0.59453795157E+00 -0.16690110471E+02 -0.86269355066E+02  0.87871012777E+02  0.00000000000E+00 0. -1.
         11    1    1    2    0    0 -0.13122975982E+03 -0.20110874169E+01 -0.18933111091E+03  0.23037266308E+03  0.00000000000E+00 0.  1.
<mgrwt>
<rscale>  0 0.25174841E+03</rscale>
<asrwt>0</asrwt>
<pdfrwt beam="2">  1        1 0.11171954E+00 0.29333817E+03</pdfrwt>
<pdfrwt beam="1">  1       -1 0.10990142E-01 0.29333817E+03</pdfrwt>
<totfact> 0.14048515E+03</totfact>
</mgrwt>
</event>
<event>
 7    1  0.4230786E-006  0.1495404E+03  0.7546771E-02  0.1210194E+00
         -2   -1    0    0    0  501 -0.00000000000E+00  0.00000000000E+00  0.63782040679E+02  0.63782040679E+02  0.00000000000E+00 0.  1.
          2   -1    0    0  501    0  0.00000000000E+00 -0.00000000000E+00 -0.29676738413E+03  0.29676738413E+03  0.00000000000E+00 0. -1.
         23    2    1    2    0    0 -0.65567510700E+02 -0.49381093556E+02 -0.10210420671E+03  0.18107344094E+03  0.12499892450E+03 0.  0.
          5    1    3    3  502    0 -0.68363381951E+02 -0.24981910263E+02  0.30371171429E+01  0.72999739128E+02  0.47000000000E+01 0.  1.
         -5    1    3    3    0  502  0.27958712514E+01 -0.24399183293E+02 -0.10514132386E+03  0.10807370182E+03  0.47000000000E+01 0.  1.
        -11    1    1    2    0    0  0.39962498430E+01 -0.21068963851E+02 -0.39791021526E+01  0.21810651171E+02  0.00000000000E+00 0.  1.
         11    1    1    2    0    0  0.61571260857E+02  0.70450057408E+02 -0.12690203458E+03  0.15766533269E+03  0.00000000000E+00 0. -1.
<mgrwt>
<rscale>  0 0.14235585E+03</rscale>
<asrwt>0</asrwt>
<pdfrwt beam="2">  1        2 0.45656520E-01 0.14954037E+03</pdfrwt>
<pdfrwt beam="1">  1       -2 0.98126218E-02 0.14954037E+03</pdfrwt>
<totfact> 0.72492838E+03</totfact>
</mgrwt>
</event>
<event>
 7    1  0.4230786E-006  0.1624698E+03  0.7546771E-02  0.1193537E+00
         -2   -1    0    0    0  501 -0.00000000000E+00  0.00000000000E+00  0.45160796280E+02  0.45160796280E+02  0.00000000000E+00 0.  1.
          2   -1    0    0  501    0  0.00000000000E+00 -0.00000000000E+00 -0.50012758222E+03  0.50012758222E+03  0.00000000000E+00 0. -1.
         23    2    1    2    0    0  0.49223751419E+01  0.10370300420E+03 -0.22712155650E+03  0.27925014855E+03  0.12497160150E+03 0.  0.
          5    1    3    3  502    0  0.10274501539E+02  0.12028128769E+03 -0.23110023664E+03  0.26077301034E+03  0.47000000000E+01 0. -1.
         -5    1    3    3    0  502 -0.53521263967E+01 -0.16578283494E+02  0.39786801397E+01  0.18477138204E+02  0.47000000000E+01 0. -1.
        -11    1    1    2    0    0  0.36581372320E+02 -0.19373698991E+02 -0.50243460365E+02  0.65099480204E+02  0.00000000000E+00 0. -1.
         11    1    1    2    0    0 -0.41503747462E+02 -0.84329305207E+02 -0.17760176908E+03  0.20093874975E+03  0.00000000000E+00 0.  1.
<mgrwt>
<rscale>  0 0.15578677E+03</rscale>
<asrwt>0</asrwt>
<pdfrwt beam="2">  1        2 0.76942707E-01 0.16246983E+03</pdfrwt>
<pdfrwt beam="1">  1       -2 0.69478146E-02 0.16246983E+03</pdfrwt>
<totfact> 0.71048381E+03</totfact>
</mgrwt>
</event>
<event>
 7    1  0.4230786E-006  0.1500142E+03  0.7546771E-02  0.1209716E+00
         -1   -1    0    0    0  501 -0.00000000000E+00  0.00000000000E+00  0.11735981648E+03  0.11735981648E+03  0.00000000000E+00 0.  1.
          1   -1    0    0  501    0  0.00000000000E+00 -0.00000000000E+00 -0.23775665683E+03  0.23775665683E+03  0.00000000000E+00 0. -1.
         23    2    1    2    0    0  0.82252217418E+02  0.10674283504E+02  0.37887197621E+02  0.15472460832E+03  0.12499958831E+03 0.  0.
          5    1    3    3  502    0  0.66388707213E+02  0.31955400995E+02 -0.31513080196E+02  0.80273110826E+02  0.47000000000E+01 0. -1.
         -5    1    3    3    0  502  0.15863510205E+02 -0.21281117491E+02  0.69400277817E+02  0.74451497492E+02  0.47000000000E+01 0. -1.
        -11    1    1    2    0    0 -0.42743925919E+02 -0.43638663440E+02 -0.44689254243E+02  0.75686891828E+02  0.00000000000E+00 0.  1.
         11    1    1    2    0    0 -0.39508291499E+02  0.32964379936E+02 -0.11359478372E+03  0.12470497316E+03  0.00000000000E+00 0. -1.
<mgrwt>
<rscale>  0 0.14271921E+03</rscale>
<asrwt>0</asrwt>
<pdfrwt beam="2">  1        1 0.36577947E-01 0.15001421E+03</pdfrwt>
<pdfrwt beam="1">  1       -1 0.18055357E-01 0.15001421E+03</pdfrwt>
<totfact> 0.27329536E+03</totfact>
</mgrwt>
</event>
<event>
 7    1  0.4230786E-006  0.1728405E+03  0.7546771E-02  0.1179883E+00
          1   -1    0    0  501    0  0.00000000000E+00  0.00000000000E+00  0.38540443556E+03  0.38540443556E+03  0.00000000000E+00 0. -1.
         -1   -1    0    0    0  501 -0.00000000000E+00 -0.00000000000E+00 -0.91389680127E+02  0.91389680127E+02  0.00000000000E+00 0.  1.
         23    2    1    2    0    0 -0.10157792495E+03 -0.62700511842E+02  0.36760284814E+02  0.17670636656E+03  0.12499756966E+03 0.  0.
          5    1    3    3  502    0 -0.11204949642E+03 -0.34001143685E+01  0.19441302816E+02  0.11387143927E+03  0.47000000000E+01 0. -1.
         -5    1    3    3    0  502  0.10471571473E+02 -0.59300397473E+02  0.17318981997E+02  0.62834927286E+02  0.47000000000E+01 0. -1.
        -11    1    1    2    0    0  0.40524971645E+02  0.57236245614E+01  0.14580201657E+02  0.43446697058E+02  0.00000000000E+00 0.  1.
         11    1    1    2    0    0  0.61052953307E+02  0.56976887280E+02  0.24267426897E+03  0.25664105208E+03  0.00000000000E+00 0. -1.
<mgrwt>
<rscale>  0 0.16806294E+03</rscale>
<asrwt>0</asrwt>
<pdfrwt beam="1">  1        1 0.59292989E-01 0.17284045E+03</pdfrwt>
<pdfrwt beam="2">  1       -1 0.14059951E-01 0.17284045E+03</pdfrwt>
<totfact> 0.22325860E+03</totfact>
</mgrwt>
</event>
<event>
 7    1  0.4230786E-006  0.1628721E+03  0.7546771E-02  0.1187080E+00
          2   -1    0    0  501    0  0.00000000000E+00  0.00000000000E+00  0.24068661819E+03  0.24068661819E+03  0.00000000000E+00 0. -1.
         -2   -1    0    0    0  501 -0.00000000000E+00 -0.00000000000E+00 -0.11189356618E+03  0.11189356618E+03  0.00000000000E+00 0.  1.
         23    2    1    2    0    0 -0.10433724830E+03 -0.40927745085E+01  0.26504044862E+02  0.16501446728E+03  0.12499719129E+03 0.  0.
          5    1    3    3  502    0 -0.89103875042E+02  0.25711693630E+01  0.73062570468E+02  0.11535311293E+03  0.47000000000E+01 0. -1.
         -5    1    3    3    0  502 -0.15233373260E+02 -0.66639438715E+01 -0.46558525606E+02  0.49661354346E+02  0.47000000000E+01 0. -1.
        -11    1    1    2    0    0  0.84514662885E+02 -0.46506384456E+02  0.89825840128E+02  0.13181143195E+03  0.00000000000E+00 0.  1.
         11    1    1    2    0    0  0.19822585417E+02  0.50599158965E+02  0.12463167018E+02  0.55754285151E+02  0.00000000000E+00 0. -1.
<mgrwt>
<rscale>  0 0.16144006E+03</rscale>
<asrwt>0</asrwt>
<pdfrwt beam="1">  1        2 0.37028710E-01 0.16287207E+03</pdfrwt>
<pdfrwt beam="2">  1       -2 0.17214395E-01 0.16287207E+03</pdfrwt>
<totfact> 0.36720990E+03</totfact>
</mgrwt>
</event>
<event>
 7    1  0.4230786E-006  0.2739292E+03  0.7546771E-02  0.1101034E+00
          2   -1    0    0  501    0  0.00000000000E+00  0.00000000000E+00  0.84484931205E+03  0.84484931205E+03  0.00000000000E+00 0. -1.
         -2   -1    0    0    0  501 -0.00000000000E+00 -0.00000000000E+00 -0.95080132572E+02  0.95080132572E+02  0.00000000000E+00 0.  1.
         23    2    1    2    0    0  0.19762034599E+03 -0.14268805928E+03  0.22613126097E+03  0.35520778363E+03  0.12499415570E+03 0.  0.
          5    1    3    3  502    0 -0.12403340153E+02  0.43555204636E+01  0.27531584102E+02  0.30868941164E+02  0.47000000000E+01 0.  1.
         -5    1    3    3    0  502  0.21002368614E+03 -0.14704357974E+03  0.19859967686E+03  0.32433884247E+03  0.47000000000E+01 0.  1.
        -11    1    1    2    0    0 -0.11440650391E+03  0.10106997882E+03  0.41213810545E+03  0.43950177100E+03  0.00000000000E+00 0. -1.
         11    1    1    2    0    0 -0.83213842074E+02  0.41618080457E+02  0.11149981307E+03  0.14521988999E+03  0.00000000000E+00 0.  1.
<mgrwt>
<rscale>  0 0.27042981E+03</rscale>
<asrwt>0</asrwt>
<pdfrwt beam="1">  1        2 0.12997681E+00 0.27392923E+03</pdfrwt>
<pdfrwt beam="2">  1       -2 0.14627713E-01 0.27392923E+03</pdfrwt>
<totfact> 0.11809969E+03</totfact>
</mgrwt>
</event>
<event>
 7    1  0.4230786E-006  0.2002922E+03  0.7546771E-02  0.1153608E+00
          2   -1    0    0  501    0  0.00000000000E+00  0.00000000000E+00  0.13350665020E+04  0.13350665020E+04  0.00000000000E+00 0.  1.
         -2   -1    0    0    0  501 -0.00000000000E+00 -0.00000000000E+00 -0.28101297120E+02  0.28101297120E+02  0.00000000000E+00 0. -1.
         23    2    1    2    0    0 -0.32569524691E+02  0.15306995404E+03  0.57146489266E+03  0.60554858069E+03  0.12500310101E+03 0.  0.
          5    1    3    3  502    0  0.29963037732E+02  0.11199417480E+03  0.43084412243E+03  0.44619415802E+03  0.47000000000E+01 0.  1.
         -5    1    3    3    0  502 -0.62532562423E+02  0.41075779240E+02  0.14062077023E+03  0.15935442267E+03  0.47000000000E+01 0.  1.
        -11    1    1    2    0    0  0.25856698225E+01 -0.13188011955E+03  0.66681839919E+03  0.67973953035E+03  0.00000000000E+00 0. -1.
         11    1    1    2    0    0  0.29983854869E+02 -0.21189834485E+02  0.68681913022E+02  0.77879688075E+02  0.00000000000E+00 0.  1.
<mgrwt>
<rscale>  0 0.19548133E+03</rscale>
<asrwt>0</asrwt>
<pdfrwt beam="1">  1        2 0.20539480E+00 0.20029219E+03</pdfrwt>
<pdfrwt beam="2">  1       -2 0.43232775E-02 0.20029219E+03</pdfrwt>
<totfact> 0.40774511E+03</totfact>
</mgrwt>
</event>
<event>
 7    1  0.4230786E-006  0.2079848E+03  0.7546771E-02  0.1146976E+00
          1   -1    0    0  501    0  0.00000000000E+00  0.00000000000E+00  0.19336598700E+03  0.19336598700E+03  0.00000000000E+00 0. -1.
         -1   -1    0    0    0  501 -0.00000000000E+00 -0.00000000000E+00 -0.23907962783E+03  0.23907962783E+03  0.00000000000E+00 0.  1.
         23    2    1    2    0    0  0.58943715709E+02 -0.15543019292E+03 -0.10568026491E+03  0.23329378829E+03  0.12499906709E+03 0.  0.
          5    1    3    3  502    0  0.11912748663E+01 -0.94925601158E+02 -0.11477980044E+03  0.14902611006E+03  0.47000000000E+01 0.  1.
         -5    1    3    3    0  502  0.57752440843E+02 -0.60504591762E+02  0.90995355351E+01  0.84267678231E+02  0.47000000000E+01 0.  1.
        -11    1    1    2    0    0 -0.83983700743E+02  0.12095058262E+03  0.48352330050E+02  0.15498468714E+03  0.00000000000E+00 0.  1.
         11    1    1    2    0    0  0.25039985034E+02  0.34479610297E+02  0.11614294021E+02  0.44167139395E+02  0.00000000000E+00 0. -1.
<mgrwt>
<rscale>  0 0.20331064E+03</rscale>
<asrwt>0</asrwt>
<pdfrwt beam="1">  1        1 0.29748613E-01 0.20798479E+03</pdfrwt>
<pdfrwt beam="2">  1       -1 0.36781481E-01 0.20798479E+03</pdfrwt>
<totfact> 0.10937098E+03</totfact>
</mgrwt>
</event>
<event>
 7    1  0.4230786E-006  0.1503055E+03  0.7546771E-02  0.1204711E+00
         -1   -1    0    0    0  501 -0.00000000000E+00  0.00000000000E+00  0.72351614466E+02  0.72351614466E+02  0.00000000000E+00 0.  1.
          1   -1    0    0  501    0  0.00000000000E+00 -0.00000000000E+00 -0.53692957296E+03  0.53692957296E+03  0.00000000000E+00 0. -1.
         23    2    1    2    0    0  0.94601643418E+02  0.32206650139E+02 -0.29159252943E+02  0.15310786756E+03  0.11227207055E+03 0.  0.
          5    1    3    3  502    0 -0.84690216160E+01 -0.20391304702E+02 -0.29687436975E+02  0.37295623721E+02  0.47000000000E+01 0. -1.
         -5    1    3    3    0  502  0.10307066503E+03  0.52597954841E+02  0.52818403261E+00  0.11581224384E+03  0.47000000000E+01 0.  1.
        -11    1    1    2    0    0 -0.32664980766E+02  0.31405228259E+02 -0.18544529958E+03  0.19090114842E+03  0.00000000000E+00 0.  1.
         11    1    1    2    0    0 -0.61936662652E+02 -0.63611878399E+02 -0.24997340597E+03  0.26527217145E+03  0.00000000000E+00 0. -1.
<mgrwt>
<rscale>  0 0.14660249E+03</rscale>
<asrwt>0</asrwt>
<pdfrwt beam="2">  1        1 0.82604549E-01 0.15030555E+03</pdfrwt>
<pdfrwt beam="1">  1       -1 0.11131018E-01 0.15030555E+03</pdfrwt>
<totfact> 0.20825510E+03</totfact>
</mgrwt>
</event>
<event>
 7    1  0.4230786E-006  0.1273511E+03  0.7546771E-02  0.1247364E+00
         -3   -1    0    0    0  501 -0.00000000000E+00  0.00000000000E+00  0.12799511921E+03  0.12799511921E+03  0.00000000000E+00 0.  1.
          3   -1    0    0  501    0  0.00000000000E+00 -0.00000000000E+00 -0.98952407880E+02  0.98952407880E+02  0.00000000000E+00 0. -1.
         23    2    1    2    0    0 -0.11881646137E+02 -0.21563350592E+02  0.41579784461E+02  0.13396713424E+03  0.12494864136E+03 0.  0.
          5    1    3    3  502    0 -0.48494229046E+02 -0.12867674835E+01 -0.25313609831E+02  0.54920077058E+02  0.47000000000E+01 0.  1.
         -5    1    3    3    0  502  0.36612582909E+02 -0.20276583109E+02  0.66893394292E+02  0.79047057185E+02  0.47000000000E+01 0.  1.
        -11    1    1    2    0    0 -0.25098411972E+02 -0.84121031328E+01  0.21794787838E+02  0.34288577392E+02  0.00000000000E+00 0.  1.
         11    1    1    2    0    0  0.36980058110E+02  0.29975453725E+02 -0.34331860969E+02  0.58691815455E+02  0.00000000000E+00 0. -1.
<mgrwt>
<rscale>  0 0.11745025E+03</rscale>
<asrwt>0</asrwt>
<pdfrwt beam="2">  1        3 0.15223447E-01 0.12735115E+03</pdfrwt>
<pdfrwt beam="1">  1       -3 0.19691557E-01 0.12735115E+03</pdfrwt>
<totfact> 0.18930244E+03</totfact>
</mgrwt>
</event>
<event>
 7    1  0.4230786E-006  0.1371668E+03  0.7546771E-02  0.1229351E+00
         -2   -1    0    0    0  501 -0.00000000000E+00  0.00000000000E+00  0.26791277219E+02  0.26791277219E+02  0.00000000000E+00 0. -1.
          2   -1    0    0  501    0  0.00000000000E+00 -0.00000000000E+00 -0.55373368672E+03  0.55373368672E+03  0.00000000000E+00 0.  1.
         23    2    1    2    0    0  0.25506518843E+02 -0.50376024753E+02 -0.29275255485E+03  0.32329366755E+03  0.12500564280E+03 0.  0.
          5    1    3    3  502    0 -0.45406558230E+02 -0.38956758483E+02 -0.90274952076E+02  0.10840222108E+03  0.47000000000E+01 0.  1.
         -5    1    3    3    0  502  0.70913077073E+02 -0.11419266270E+02 -0.20247760277E+03  0.21489144647E+03  0.47000000000E+01 0.  1.
        -11    1    1    2    0    0 -0.26423270498E+02 -0.16734346976E+02 -0.12674076924E+03  0.13054290552E+03  0.00000000000E+00 0.  1.
         11    1    1    2    0    0  0.91675165468E+00  0.67110371729E+02 -0.10744908541E+03  0.12668839088E+03  0.00000000000E+00 0. -1.
<mgrwt>
<rscale>  0 0.12873073E+03</rscale>
<asrwt>0</asrwt>
<pdfrwt beam="2">  1        2 0.85189806E-01 0.13716682E+03</pdfrwt>
<pdfrwt beam="1">  1       -2 0.41217346E-02 0.13716682E+03</pdfrwt>
<totfact> 0.13810733E+04</totfact>
</mgrwt>
</event>
<event>
 7    1  0.4230786E-006  0.1538362E+03  0.7546771E-02  0.1205108E+00
         -2   -1    0    0    0  501 -0.00000000000E+00  0.00000000000E+00  0.41616232822E+02  0.41616232822E+02  0.00000000000E+00 0. -1.
          2   -1    0    0  501    0  0.00000000000E+00 -0.00000000000E+00 -0.46985314120E+03  0.46985314120E+03  0.00000000000E+00 0.  1.
         23    2    1    2    0    0 -0.50087158881E+02  0.74376899505E+02 -0.23167585910E+03  0.27809939128E+03  0.12499968431E+03 0.  0.
          5    1    3    3  502    0  0.85258114980E+01 -0.26413709944E+02 -0.91384072022E+02  0.95621713821E+02  0.47000000000E+01 0.  1.
         -5    1    3    3    0  502 -0.58612970379E+02  0.10079060945E+03 -0.14029178707E+03  0.18247767746E+03  0.47000000000E+01 0.  1.
        -11    1    1    2    0    0  0.31048567983E+02 -0.57148845194E+01 -0.13673382779E+03  0.14033108401E+03  0.00000000000E+00 0.  1.
         11    1    1    2    0    0  0.19038590898E+02 -0.68662014986E+02 -0.59827221493E+02  0.93038898730E+02  0.00000000000E+00 0. -1.
<mgrwt>
<rscale>  0 0.14628940E+03</rscale>
<asrwt>0</asrwt>
<pdfrwt beam="2">  1        2 0.72285098E-01 0.15383617E+03</pdfrwt>
<pdfrwt beam="1">  1       -2 0.64024974E-02 0.15383617E+03</pdfrwt>
<totfact> 0.85963214E+03</totfact>
</mgrwt>
</event>
<event>
 7    1  0.4230786E-006  0.1273859E+03  0.7546771E-02  0.1246964E+00
          1   -1    0    0  501    0  0.00000000000E+00  0.00000000000E+00  0.18663317109E+03  0.18663317109E+03  0.00000000000E+00 0. -1.
         -1   -1    0    0    0  501 -0.00000000000E+00 -0.00000000000E+00 -0.29152222993E+03  0.29152222993E+03  0.00000000000E+00 0.  1.
         23    2    1    2    0    0 -0.14761806890E+02  0.85970669416E+01 -0.26447299987E+03  0.29355261418E+03  0.12623529271E+03 0.  0.
          5    1    3    3  502    0 -0.20556298525E+02 -0.14954875948E+02  0.20075159099E+01  0.25929324013E+02  0.47000000000E+01 0. -1.
         -5    1    3    3    0  502  0.57944916348E+01  0.23551942889E+02 -0.26648051578E+03  0.26762329017E+03  0.47000000000E+01 0.  1.
        -11    1    1    2    0    0  0.20743394610E+02 -0.38666920012E+02  0.34505415437E+02  0.55821526472E+02  0.00000000000E+00 0. -1.
         11    1    1    2    0    0 -0.59815877196E+01  0.30069853070E+02  0.12507852560E+03  0.12878126037E+03  0.00000000000E+00 0.  1.
<mgrwt>
<rscale>  0 0.11768571E+03</rscale>
<asrwt>0</asrwt>
<pdfrwt beam="1">  1        1 0.28712796E-01 0.12738591E+03</pdfrwt>
<pdfrwt beam="2">  1       -1 0.44849574E-01 0.12738591E+03</pdfrwt>
<totfact> 0.79962544E+02</totfact>
</mgrwt>
</event>
<event>
 6    1  0.4230786E-006  0.1842553E+03  0.7546771E-02  0.1183578E+00
          2   -1    0    0  501    0  0.00000000000E+00  0.00000000000E+00  0.17956861272E+03  0.17956861272E+03  0.00000000000E+00 0. -1.
         -2   -1    0    0    0  501 -0.00000000000E+00 -0.00000000000E+00 -0.21881423625E+03  0.21881423625E+03  0.00000000000E+00 0.  1.
          5    1    1    2  502    0  0.17912871295E+02  0.97808456279E+02 -0.31454833727E+02  0.10439761320E+03  0.47000000000E+01 0. -1.
         -5    1    1    2    0  502 -0.53123484459E+02 -0.29585042990E+02 -0.11808512848E+03  0.13290435260E+03  0.47000000000E+01 0.  1.
        -11    1    1    2    0    0  0.57958909818E+02 -0.16042157773E+02  0.50571407485E+02  0.78575144341E+02  0.00000000000E+00 0. -1.
         11    1    1    2    0    0 -0.22748296653E+02 -0.52181255515E+02  0.59722931200E+02  0.82505738824E+02  0.00000000000E+00 0.  1.
<mgrwt>
<rscale>  0 0.16461897E+03</rscale>
<asrwt>0</asrwt>
<pdfrwt beam="1">  1        2 0.27625941E-01 0.18425532E+03</pdfrwt>
<pdfrwt beam="2">  1       -2 0.33663728E-01 0.18425532E+03</pdfrwt>
<totfact> 0.15691942E+03</totfact>
</mgrwt>
</event>
<event>
 7    1  0.4230786E-006  0.1546692E+03  0.7546771E-02  0.1203338E+00
         -1   -1    0    0    0  501 -0.00000000000E+00  0.00000000000E+00  0.73917379008E+02  0.73917379008E+02  0.00000000000E+00 0.  1.
          1   -1    0    0  501    0  0.00000000000E+00 -0.00000000000E+00 -0.27342486164E+03  0.27342486164E+03  0.00000000000E+00 0. -1.
         23    2    1    2    0    0  0.39789230233E+02  0.81946470316E+02 -0.93896664092E+02  0.18093960308E+03  0.12499659834E+03 0.  0.
          5    1    3    3  502    0  0.43610180013E+02 -0.19265740453E+02 -0.53447937525E+02  0.71775961029E+02  0.47000000000E+01 0.  1.
         -5    1    3    3    0  502 -0.38209497795E+01  0.10121221077E+03 -0.40448726567E+02  0.10916364206E+03  0.47000000000E+01 0.  1.
        -11    1    1    2    0    0 -0.29741232153E+02 -0.32618844330E+01  0.49532161164E+01  0.30326805469E+02  0.00000000000E+00 0.  1.
         11    1    1    2    0    0 -0.10047998080E+02 -0.78684585883E+02 -0.11056403466E+03  0.13607583210E+03  0.00000000000E+00 0. -1.
<mgrwt>
<rscale>  0 0.14769211E+03</rscale>
<asrwt>0</asrwt>
<pdfrwt beam="2">  1        1 0.42065363E-01 0.15466918E+03</pdfrwt>
<pdfrwt beam="1">  1       -1 0.11371905E-01 0.15466918E+03</pdfrwt>
<totfact> 0.47488809E+03</totfact>
</mgrwt>
</event>
<event>
 7    1  0.4230786E-006  0.1368516E+03  0.7546771E-02  0.1226325E+00
          2   -1    0    0  501    0  0.00000000000E+00  0.00000000000E+00  0.79299669044E+03  0.79299669044E+03  0.00000000000E+00 0.  1.
         -2   -1    0    0    0  501 -0.00000000000E+00 -0.00000000000E+00 -0.20044072207E+02  0.20044072207E+02  0.00000000000E+00 0. -1.
         23    2    1    2    0    0 -0.44400520095E+02  0.33892877715E+02  0.46093159998E+03  0.48081836301E+03  0.12493288203E+03 0.  0.
          5    1    3    3  502    0 -0.67724981161E+02  0.27491743759E+02  0.13194768564E+03  0.15091305707E+03  0.47000000000E+01 0.  1.
         -5    1    3    3    0  502  0.23324461066E+02  0.64011339565E+01  0.32898391433E+03  0.32990530594E+03  0.47000000000E+01 0.  1.
        -11    1    1    2    0    0 -0.17278717044E+02  0.94627059881E+00  0.63222414399E+01  0.18423360919E+02  0.00000000000E+00 0. -1.
         11    1    1    2    0    0  0.61679237139E+02 -0.34839148314E+02  0.30569877682E+03  0.31379903871E+03  0.00000000000E+00 0.  1.
<mgrwt>
<rscale>  0 0.13076493E+03</rscale>
<asrwt>0</asrwt>
<pdfrwt beam="1">  1        2 0.12199947E+00 0.13685159E+03</pdfrwt>
<pdfrwt beam="2">  1       -2 0.30837040E-02 0.13685159E+03</pdfrwt>
<totfact> 0.13925171E+04</totfact>
</mgrwt>
</event>
<event>
 7    1  0.4230786E-006  0.1564446E+03  0.7546771E-02  0.1201634E+00
         -1   -1    0    0    0  501 -0.00000000000E+00  0.00000000000E+00  0.59677579696E+03  0.59677579696E+03  0.00000000000E+00 0.  1.
          1   -1    0    0  501    0  0.00000000000E+00 -0.00000000000E+00 -0.39536307536E+02  0.39536307536E+02  0.00000000000E+00 0. -1.
         23    2    1    2    0    0 -0.31013075820E+02  0.88824348456E+02  0.41913159516E+03  0.44737701886E+03  0.12499330858E+03 0.  0.
          5    1    3    3  502    0  0.34622071883E+02  0.40844771516E+02  0.66716344841E+02  0.85674639717E+02  0.47000000000E+01 0.  1.
         -5    1    3    3    0  502 -0.65635147704E+02  0.47979576940E+02  0.35241525032E+03  0.36170237914E+03  0.47000000000E+01 0.  1.
        -11    1    1    2    0    0  0.50869314477E+02 -0.15842329727E+02  0.55668547645E+02  0.77056172780E+02  0.00000000000E+00 0. -1.
         11    1    1    2    0    0 -0.19856238657E+02 -0.72982018729E+02  0.82439346613E+02  0.11187891285E+03  0.00000000000E+00 0.  1.
<mgrwt>
<rscale>  0 0.14905892E+03</rscale>
<asrwt>0</asrwt>
<pdfrwt beam="2">  1        1 0.60825093E-02 0.15644457E+03</pdfrwt>
<pdfrwt beam="1">  1       -1 0.91811654E-01 0.15644457E+03</pdfrwt>
<totfact> 0.15145939E+03</totfact>
</mgrwt>
</event>
<event>
 7    1  0.4230786E-006  0.2486905E+03  0.7546771E-02  0.1116633E+00
          1   -1    0    0  501    0  0.00000000000E+00  0.00000000000E+00  0.12874508879E+03  0.12874508879E+03  0.00000000000E+00 0. -1.
         -1   -1    0    0    0  501 -0.00000000000E+00 -0.00000000000E+00 -0.47122220625E+03  0.47122220625E+03  0.00000000000E+00 0.  1.
         23    2    1    2    0    0 -0.13476799056E+03 -0.16751191455E+03 -0.23774815004E+03  0.34405110661E+03  0.12499731325E+03 0.  0.
          5    1    3    3  502    0  0.32196821872E+01 -0.39973587029E+02 -0.10896390279E+03  0.11620445828E+03  0.47000000000E+01 0.  1.
         -5    1    3    3    0  502 -0.13798767275E+03 -0.12753832752E+03 -0.12878424725E+03  0.22784664833E+03  0.47000000000E+01 0.  1.
        -11    1    1    2    0    0  0.97424235968E+02  0.14906106554E+03 -0.11629658449E+03  0.21268657357E+03  0.00000000000E+00 0.  1.
         11    1    1    2    0    0  0.37343754592E+02  0.18450849010E+02  0.11567617065E+02  0.43229614858E+02  0.00000000000E+00 0. -1.
<mgrwt>
<rscale>  0 0.24480419E+03</rscale>
<asrwt>0</asrwt>
<pdfrwt beam="1">  1        1 0.19806937E-01 0.24869053E+03</pdfrwt>
<pdfrwt beam="2">  1       -1 0.72495724E-01 0.24869053E+03</pdfrwt>
<totfact> 0.51796862E+02</totfact>
</mgrwt>
</event>
<event>
 7    1  0.4230786E-006  0.1978318E+03  0.7546771E-02  0.1155937E+00
          2   -1    0    0  501    0  0.00000000000E+00  0.00000000000E+00  0.64497883391E+03  0.64497883391E+03  0.00000000000E+00 0. -1.
         -2   -1    0    0    0  501 -0.00000000000E+00 -0.00000000000E+00 -0.56505168038E+02  0.56505168038E+02  0.00000000000E+00 0.  1.
         23    2    1    2    0    0 -0.11812374528E+03  0.97770834881E+02  0.25005124499E+03  0.31884640648E+03  0.12500020179E+03 0.  0.
          5    1    3    3  502    0 -0.47465136891E+02  0.11426269950E+03  0.17476363466E+03  0.21418058202E+03  0.47000000000E+01 0.  1.
         -5    1    3    3    0  502 -0.70658608393E+02 -0.16491864617E+02  0.75287610337E+02  0.10466582445E+03  0.47000000000E+01 0.  1.
        -11    1    1    2    0    0  0.47510451185E+02  0.95528142989E+01  0.11708809675E+03  0.12672064407E+03  0.00000000000E+00 0. -1.
         11    1    1    2    0    0  0.70613294099E+02 -0.10732364918E+03  0.22133432412E+03  0.25591695140E+03  0.00000000000E+00 0.  1.
<mgrwt>
<rscale>  0 0.19282567E+03</rscale>
<asrwt>0</asrwt>
<pdfrwt beam="1">  1        2 0.99227508E-01 0.19783176E+03</pdfrwt>
<pdfrwt beam="2">  1       -2 0.86931032E-02 0.19783176E+03</pdfrwt>
<totfact> 0.37903395E+03</totfact>
</mgrwt>
</event>
<event>
 7    1  0.4230786E-006  0.1290641E+03  0.7546771E-02  0.1243095E+00
          1   -1    0    0  501    0  0.00000000000E+00  0.00000000000E+00  0.29453165964E+03  0.29453165964E+03  0.00000000000E+00 0. -1.
         -1   -1    0    0    0  501 -0.00000000000E+00 -0.00000000000E+00 -0.65849891706E+02  0.65849891706E+02  0.00000000000E+00 0.  1.
         23    2    1    2    0    0  0.31699743831E+02  0.51912419953E+01  0.20156033046E+02  0.13062854164E+03  0.12500290985E+03 0.  0.
          5    1    3    3  502    0 -0.46515096232E+02  0.17151967213E+02  0.80984631006E+01  0.50453139262E+02  0.47000000000E+01 0. -1.
         -5    1    3    3    0  502  0.78214840063E+02 -0.11960725217E+02  0.12057569945E+02  0.80175402380E+02  0.47000000000E+01 0. -1.
        -11    1    1    2    0    0 -0.40089532954E+02  0.29259297246E+02  0.64266410771E+02  0.81200053455E+02  0.00000000000E+00 0.  1.
         11    1    1    2    0    0  0.83897891227E+01 -0.34450539241E+02  0.14425932412E+03  0.14855295625E+03  0.00000000000E+00 0. -1.
<mgrwt>
<rscale>  0 0.12000097E+03</rscale>
<asrwt>0</asrwt>
<pdfrwt beam="1">  1        1 0.45312562E-01 0.12906413E+03</pdfrwt>
<pdfrwt beam="2">  1       -1 0.10130753E-01 0.12906413E+03</pdfrwt>
<totfact> 0.51188018E+03</totfact>
</mgrwt>
</event>
<event>
 7    1  0.4230786E-006  0.1467834E+03  0.7546771E-02  0.1214274E+00
         -2   -1    0    0    0  501 -0.00000000000E+00  0.00000000000E+00  0.43875229991E+03  0.43875229991E+03  0.00000000000E+00 0.  1.
          2   -1    0    0  501    0  0.00000000000E+00 -0.00000000000E+00 -0.46337472823E+02  0.46337472823E+02  0.00000000000E+00 0. -1.
         23    2    1    2    0    0  0.51993176289E+02 -0.56696566373E+02  0.30134163021E+03  0.33518971852E+03  0.12501031271E+03 0.  0.
          5    1    3    3  502    0  0.24849705770E+01  0.26011705499E+02  0.10152407803E+02  0.28424378374E+02  0.47000000000E+01 0.  1.
         -5    1    3    3    0  502  0.49508205712E+02 -0.82708271873E+02  0.29118922241E+03  0.30676534015E+03  0.47000000000E+01 0.  1.
        -11    1    1    2    0    0  0.68304411734E+01  0.35370720199E+02 -0.38294674993E+01  0.36227166538E+02  0.00000000000E+00 0.  1.
         11    1    1    2    0    0 -0.58823617463E+02  0.21325846174E+02  0.94902664370E+02  0.11367288767E+03  0.00000000000E+00 0. -1.
<mgrwt>
<rscale>  0 0.13929990E+03</rscale>
<asrwt>0</asrwt>
<pdfrwt beam="2">  1        2 0.71288423E-02 0.14678341E+03</pdfrwt>
<pdfrwt beam="1">  1       -2 0.67500351E-01 0.14678341E+03</pdfrwt>
<totfact> 0.19697009E+03</totfact>
</mgrwt>
</event>
<event>
 6    1  0.4230786E-006  0.1963401E+03  0.7546771E-02  0.1180522E+00
          1   -1    0    0  501    0  0.00000000000E+00  0.00000000000E+00  0.97591799971E+03  0.97591799971E+03  0.00000000000E+00 0. -1.
         -1   -1    0    0    0  501 -0.00000000000E+00 -0.00000000000E+00 -0.24423598074E+02  0.24423598074E+02  0.00000000000E+00 0.  1.
          5    1    1    2  502    0  0.10101989760E+02  0.75395034103E+02  0.30474304265E+03  0.31412875291E+03  0.47000000000E+01 0. -1.
         -5    1    1    2    0  502 -0.10064351460E+03 -0.39230289853E+02  0.19807562387E+03  0.22566385498E+03  0.47000000000E+01 0.  1.
        -11    1    1    2    0    0  0.20666997681E+02 -0.14516431940E+01  0.46968153343E+02  0.51334583757E+02  0.00000000000E+00 0.  1.
         11    1    1    2    0    0  0.69874527160E+02 -0.34713101056E+02  0.40170758177E+03  0.40921440613E+03  0.00000000000E+00 0. -1.
<mgrwt>
<rscale>  0 0.16746033E+03</rscale>
<asrwt>0</asrwt>
<pdfrwt beam="1">  1        1 0.15014120E+00 0.19634013E+03</pdfrwt>
<pdfrwt beam="2">  1       -1 0.37574774E-02 0.19634013E+03</pdfrwt>
<totfact> 0.44568761E+03</totfact>
</mgrwt>
</event>
<event>
 7    1  0.4230786E-006  0.1344396E+03  0.7546771E-02  0.1232697E+00
         -2   -1    0    0    0  501 -0.00000000000E+00  0.00000000000E+00  0.13727292093E+03  0.13727292093E+03  0.00000000000E+00 0. -1.
          2   -1    0    0  501    0  0.00000000000E+00 -0.00000000000E+00 -0.11736829994E+03  0.11736829994E+03  0.00000000000E+00 0.  1.
         23    2    1    2    0    0 -0.22428225168E+02  0.44115311135E+02  0.52357018528E+02  0.14427494919E+03  0.12499927045E+03 0.  0.
          5    1    3    3  502    0 -0.53313962444E+02  0.53852845145E+02  0.73209987836E+02  0.10547179642E+03  0.47000000000E+01 0.  1.
         -5    1    3    3    0  502  0.30885737276E+02 -0.97375340107E+01 -0.20852969307E+02  0.38803152767E+02  0.47000000000E+01 0.  1.
        -11    1    1    2    0    0 -0.22530355061E+02 -0.20966331732E+02  0.20631016653E+02  0.37051893523E+02  0.00000000000E+00 0. -1.
         11    1    1    2    0    0  0.44958580229E+02 -0.23148979403E+02 -0.53083414185E+02  0.73314378161E+02  0.00000000000E+00 0.  1.
<mgrwt>
<rscale>  0 0.12653054E+03</rscale>
<asrwt>0</asrwt>
<pdfrwt beam="2">  1        2 0.18056662E-01 0.13443959E+03</pdfrwt>
<pdfrwt beam="1">  1       -2 0.21118911E-01 0.13443959E+03</pdfrwt>
<totfact> 0.56863341E+03</totfact>
</mgrwt>
</event>
<event>
 7    1  0.4230786E-006  0.1456460E+03  0.7546771E-02  0.1214520E+00
         -1   -1    0    0    0  501 -0.00000000000E+00  0.00000000000E+00  0.23212878034E+03  0.23212878034E+03  0.00000000000E+00 0.  1.
          1   -1    0    0  501    0  0.00000000000E+00 -0.00000000000E+00 -0.16385247542E+03  0.16385247542E+03  0.00000000000E+00 0. -1.
         23    2    1    2    0    0 -0.59841848808E+01  0.74501789820E+02  0.17970404679E+03  0.23131428511E+03  0.12500570750E+03 0.  0.
          5    1    3    3  502    0 -0.62927711786E+02  0.51707507443E+02  0.80682195336E+02  0.11474000994E+03  0.47000000000E+01 0.  1.
         -5    1    3    3    0  502  0.56943526905E+02  0.22794282377E+02  0.99021851454E+02  0.11657427517E+03  0.47000000000E+01 0.  1.
        -11    1    1    2    0    0 -0.35177086492E+02 -0.36703321873E+02 -0.14640011866E+02  0.52904547989E+02  0.00000000000E+00 0. -1.
         11    1    1    2    0    0  0.41161271372E+02 -0.37798467947E+02 -0.96787730003E+02  0.11176242266E+03  0.00000000000E+00 0.  1.
<mgrwt>
<rscale>  0 0.13911858E+03</rscale>
<asrwt>0</asrwt>
<pdfrwt beam="2">  1        1 0.25208073E-01 0.14564599E+03</pdfrwt>
<pdfrwt beam="1">  1       -1 0.35712120E-01 0.14564599E+03</pdfrwt>
<totfact> 0.14070709E+03</totfact>
</mgrwt>
</event>
<event>
 7    1  0.4230786E-006  0.2473361E+03  0.7546771E-02  0.1117119E+00
         -2   -1    0    0    0  501 -0.00000000000E+00  0.00000000000E+00  0.28680139741E+03  0.28680139741E+03  0.00000000000E+00 0.  1.
          2   -1    0    0  501    0  0.00000000000E+00 -0.00000000000E+00 -0.21719803103E+03  0.21719803103E+03  0.00000000000E+00 0. -1.
         23    2    1    2    0    0  0.44196494390E+02 -0.20879884751E+03  0.10151534680E+03  0.26735842631E+03  0.12499949457E+03 0.  0.
          5    1    3    3  502    0  0.11633026182E+02 -0.21274166578E+03  0.78935819624E+02  0.22726041732E+03  0.47000000000E+01 0.  1.
         -5    1    3    3    0  502  0.32563468208E+02  0.39428182737E+01  0.22579527173E+02  0.40098008991E+02  0.47000000000E+01 0.  1.
        -11    1    1    2    0    0 -0.72272389566E+02  0.16404605232E+03 -0.10286177429E+02  0.17955559312E+03  0.00000000000E+00 0. -1.
         11    1    1    2    0    0  0.28075895176E+02  0.44752795189E+02 -0.21625802984E+02  0.57085409011E+02  0.00000000000E+00 0.  1.
<mgrwt>
<rscale>  0 0.24405733E+03</rscale>
<asrwt>0</asrwt>
<pdfrwt beam="2">  1        2 0.33415081E-01 0.24733613E+03</pdfrwt>
<pdfrwt beam="1">  1       -2 0.44123292E-01 0.24733613E+03</pdfrwt>
<totfact> 0.76712808E+02</totfact>
</mgrwt>
</event>
<event>
 7    1  0.4230786E-006  0.1286317E+03  0.7546771E-02  0.1244102E+00
          1   -1    0    0  501    0  0.00000000000E+00  0.00000000000E+00  0.36693950547E+03  0.36693950547E+03  0.00000000000E+00 0. -1.
         -1   -1    0    0    0  501 -0.00000000000E+00 -0.00000000000E+00 -0.34257723897E+02  0.34257723897E+02  0.00000000000E+00 0.  1.
         23    2    1    2    0    0 -0.12691088072E+02  0.27566638532E+02  0.19778171209E+03  0.23593162452E+03  0.12500057014E+03 0.  0.
          5    1    3    3  502    0 -0.50454377163E+02 -0.91067156045E+01  0.16703341512E+03  0.17478795213E+03  0.47000000000E+01 0. -1.
         -5    1    3    3    0  502  0.37763289091E+02  0.36673354137E+02  0.30748296972E+02  0.61143672389E+02  0.47000000000E+01 0. -1.
        -11    1    1    2    0    0 -0.12251169801E+02 -0.10855485157E+02 -0.87162479402E+01  0.18544694596E+02  0.00000000000E+00 0.  1.
         11    1    1    2    0    0  0.24942257873E+02 -0.16711153375E+02  0.14361631742E+03  0.14672091025E+03  0.00000000000E+00 0. -1.
<mgrwt>
<rscale>  0 0.11939300E+03</rscale>
<asrwt>0</asrwt>
<pdfrwt beam="1">  1        1 0.56452229E-01 0.12863174E+03</pdfrwt>
<pdfrwt beam="2">  1       -1 0.52704193E-02 0.12863174E+03</pdfrwt>
<totfact> 0.10388643E+04</totfact>
</mgrwt>
</event>
<event>
 7    1  0.4230786E-006  0.1948938E+03  0.7546771E-02  0.1160265E+00
         -2   -1    0    0    0  501 -0.00000000000E+00  0.00000000000E+00  0.24203846312E+02  0.24203846312E+02  0.00000000000E+00 0.  1.
          2   -1    0    0  501    0  0.00000000000E+00 -0.00000000000E+00 -0.13774088057E+04  0.13774088057E+04  0.00000000000E+00 0. -1.
         23    2    1    2    0    0 -0.91173812237E+02 -0.11851824090E+03 -0.66172456801E+03  0.68982823996E+03  0.12499743707E+03 0.  0.
          5    1    3    3  502    0 -0.81986223933E+02 -0.51736798121E+02 -0.55561445499E+03  0.56402832357E+03  0.47000000000E+01 0. -1.
         -5    1    3    3    0  502 -0.91875883035E+01 -0.66781442779E+02 -0.10611011302E+03  0.12579991639E+03  0.47000000000E+01 0. -1.
        -11    1    1    2    0    0  0.88481456731E+02  0.85371832892E+02 -0.63000358471E+03  0.64188926988E+03  0.00000000000E+00 0.  1.
         11    1    1    2    0    0  0.26923555060E+01  0.33146408008E+02 -0.61476806686E+02  0.69895142194E+02  0.00000000000E+00 0. -1.
<mgrwt>
<rscale>  0 0.18801337E+03</rscale>
<asrwt>0</asrwt>
<pdfrwt beam="2">  1        2 0.21190899E+00 0.19489381E+03</pdfrwt>
<pdfrwt beam="1">  1       -2 0.37236696E-02 0.19489381E+03</pdfrwt>
<totfact> 0.48360582E+03</totfact>
</mgrwt>
</event>
<event>
 7    1  0.4230786E-006  0.1583126E+03  0.7546771E-02  0.1198568E+00
         -2   -1    0    0    0  501 -0.00000000000E+00  0.00000000000E+00  0.11889824828E+03  0.11889824828E+03  0.00000000000E+00 0.  1.
          2   -1    0    0  501    0  0.00000000000E+00 -0.00000000000E+00 -0.17841746011E+03  0.17841746011E+03  0.00000000000E+00 0. -1.
         23    2    1    2    0    0 -0.96479815295E+02 -0.11177889712E+02 -0.32691560121E+02  0.16165279091E+03  0.12501834556E+03 0.  0.
          5    1    3    3  502    0 -0.12170322407E+03  0.11805139043E+02 -0.34573940846E+02  0.12715535161E+03  0.47000000000E+01 0.  1.
         -5    1    3    3    0  502  0.25223408774E+02 -0.22983028755E+02  0.18823807254E+01  0.34497439298E+02  0.47000000000E+01 0.  1.
        -11    1    1    2    0    0 -0.43486640793E+01  0.27264694719E+02 -0.18470055769E+02  0.33217727458E+02  0.00000000000E+00 0.  1.
         11    1    1    2    0    0  0.10082847937E+03 -0.16086805006E+02 -0.83575959388E+01  0.10244519002E+03  0.00000000000E+00 0. -1.
<mgrwt>
<rscale>  0 0.15156062E+03</rscale>
<asrwt>0</asrwt>
<pdfrwt beam="2">  1        2 0.27448840E-01 0.15831262E+03</pdfrwt>
<pdfrwt beam="1">  1       -2 0.18292038E-01 0.15831262E+03</pdfrwt>
<totfact> 0.45825794E+03</totfact>
</mgrwt>
</event>
<event>
 7    1  0.4230786E-006  0.1389217E+03  0.7546771E-02  0.1225884E+00
         -2   -1    0    0    0  501 -0.00000000000E+00  0.00000000000E+00  0.27077359890E+03  0.27077359890E+03  0.00000000000E+00 0.  1.
          2   -1    0    0  501    0  0.00000000000E+00 -0.00000000000E+00 -0.86492181334E+02  0.86492181334E+02  0.00000000000E+00 0. -1.
         23    2    1    2    0    0 -0.60107965320E+02 -0.78242226680E+01  0.20263724347E+03  0.24568496225E+03  0.12500024912E+03 0.  0.
          5    1    3    3  502    0  0.28823131137E+01 -0.31098015744E+01  0.17738159402E+03  0.17749450271E+03  0.47000000000E+01 0. -1.
         -5    1    3    3    0  502 -0.62990278434E+02 -0.47144210936E+01  0.25255649447E+02  0.68190459541E+02  0.47000000000E+01 0. -1.
        -11    1    1    2    0    0  0.10970644936E+02 -0.29733369993E+02  0.21233354512E+02  0.38148180629E+02  0.00000000000E+00 0.  1.
         11    1    1    2    0    0  0.49137320383E+02  0.37557592661E+02 -0.39589180423E+02  0.73432637346E+02  0.00000000000E+00 0. -1.
<mgrwt>
<rscale>  0 0.13106467E+03</rscale>
<asrwt>0</asrwt>
<pdfrwt beam="2">  1        2 0.13306490E-01 0.13892173E+03</pdfrwt>
<pdfrwt beam="1">  1       -2 0.41657476E-01 0.13892173E+03</pdfrwt>
<totfact> 0.23971302E+03</totfact>
</mgrwt>
</event>
<event>
 7    1  0.4230786E-006  0.2153405E+03  0.7546771E-02  0.1142477E+00
          1   -1    0    0  501    0  0.00000000000E+00  0.00000000000E+00  0.21120860010E+03  0.21120860010E+03  0.00000000000E+00 0. -1.
         -1   -1    0    0    0  501 -0.00000000000E+00 -0.00000000000E+00 -0.19728252629E+03  0.19728252629E+03  0.00000000000E+00 0.  1.
         23    2    1    2    0    0  0.13897416438E+03 -0.10693207679E+03 -0.14558492579E+02  0.21583201835E+03  0.12499289191E+03 0.  0.
          5    1    3    3  502    0  0.34013351637E+02 -0.10450940296E+03 -0.12548134539E+02  0.11071887407E+03  0.47000000000E+01 0. -1.
         -5    1    3    3    0  502  0.10496081275E+03 -0.24226738299E+01 -0.20103580404E+01  0.10511314428E+03  0.47000000000E+01 0. -1.
        -11    1    1    2    0    0 -0.36971149710E+01  0.18547853028E+02 -0.16310144544E+02  0.24974233244E+02  0.00000000000E+00 0.  1.
         11    1    1    2    0    0 -0.13527704941E+03  0.88384223757E+02  0.44794710933E+02  0.16768487479E+03  0.00000000000E+00 0. -1.
<mgrwt>
<rscale>  0 0.20885350E+03</rscale>
<asrwt>0</asrwt>
<pdfrwt beam="1">  1        1 0.32493631E-01 0.21534045E+03</pdfrwt>
<pdfrwt beam="2">  1       -1 0.30351158E-01 0.21534045E+03</pdfrwt>
<totfact> 0.13638017E+03</totfact>
</mgrwt>
</event>
<event>
 7    1  0.4230786E-006  0.1408031E+03  0.7546771E-02  0.1222857E+00
          2   -1    0    0  501    0  0.00000000000E+00  0.00000000000E+00  0.96271530712E+03  0.96271530712E+03  0.00000000000E+00 0. -1.
         -2   -1    0    0    0  501 -0.00000000000E+00 -0.00000000000E+00 -0.18238142388E+02  0.18238142388E+02  0.00000000000E+00 0.  1.
         23    2    1    2    0    0  0.44079920897E+02  0.47511918153E+02  0.37748102119E+03  0.40288639499E+03  0.12500041647E+03 0.  0.
          5    1    3    3  502    0  0.52536441448E+02  0.47408520759E+01  0.51166862798E+02  0.73638924537E+02  0.47000000000E+01 0.  1.
         -5    1    3    3    0  502 -0.84565205512E+01  0.42771066078E+02  0.32631415840E+03  0.32924747046E+03  0.47000000000E+01 0.  1.
        -11    1    1    2    0    0  0.27267085543E+02 -0.26824544109E+02  0.20145736173E+03  0.20505637936E+03  0.00000000000E+00 0. -1.
         11    1    1    2    0    0 -0.71347006440E+02 -0.20687374044E+02  0.36553878181E+03  0.37301067515E+03  0.00000000000E+00 0.  1.
<mgrwt>
<rscale>  0 0.13314838E+03</rscale>
<asrwt>0</asrwt>
<pdfrwt beam="1">  1        2 0.14811001E+00 0.14080315E+03</pdfrwt>
<pdfrwt beam="2">  1       -2 0.28058688E-02 0.14080315E+03</pdfrwt>
<totfact> 0.12473969E+04</totfact>
</mgrwt>
</event>
<event>
 7    1  0.4695888E-006  0.4411182E+03  0.7546771E-02  0.1031072E+00
          2   -1    0    0  501    0  0.00000000000E+00  0.00000000000E+00  0.28419118250E+04  0.28419118250E+04  0.00000000000E+00 0. -1.
         -2   -1    0    0    0  501 -0.00000000000E+00 -0.00000000000E+00 -0.67328236291E+02  0.67328236291E+02  0.00000000000E+00 0.  1.
         23    2    1    2    0    0 -0.38162469607E+03  0.18254773178E+03  0.13230431772E+04  0.13946428016E+04  0.12499684950E+03 0.  0.
          5    1    3    3  502    0 -0.40378938482E+01  0.22392516519E+02  0.15371134019E+03  0.15545737514E+03  0.47000000000E+01 0.  1.
         -5    1    3    3    0  502 -0.37758680222E+03  0.16015521526E+03  0.11693318370E+04  0.12391854265E+04  0.47000000000E+01 0.  1.
        -11    1    1    2    0    0  0.13566833487E+03 -0.28526146892E+02  0.38173923216E+03  0.40613357349E+03  0.00000000000E+00 0. -1.
         11    1    1    2    0    0  0.24595636120E+03 -0.15402158488E+03  0.10698011793E+04  0.11084636861E+04  0.00000000000E+00 0.  1.
<mgrwt>
<rscale>  0 0.43894156E+03</rscale>
<asrwt>0</asrwt>
<pdfrwt beam="1">  1        2 0.43721711E+00 0.44111823E+03</pdfrwt>
<pdfrwt beam="2">  1       -2 0.10358192E-01 0.44111823E+03</pdfrwt>
<totfact> 0.15531122E+02</totfact>
</mgrwt>
</event>
<event>
 7    1  0.4230786E-006  0.1405636E+03  0.7546771E-02  0.1223154E+00
          2   -1    0    0  501    0  0.00000000000E+00  0.00000000000E+00  0.25409857332E+02  0.25409857332E+02  0.00000000000E+00 0. -1.
         -2   -1    0    0    0  501 -0.00000000000E+00 -0.00000000000E+00 -0.15327843936E+04  0.15327843936E+04  0.00000000000E+00 0.  1.
         23    2    1    2    0    0  0.23496034158E+02 -0.59843669614E+02 -0.13845029322E+04  0.13916201010E+04  0.12499923083E+03 0.  0.
          5    1    3    3  502    0 -0.21153808893E+02 -0.30158921770E+02 -0.11658106330E+04  0.11664019745E+04  0.47000000000E+01 0.  1.
         -5    1    3    3    0  502  0.44649843052E+02 -0.29684747844E+02 -0.21869229926E+03  0.22521812647E+03  0.47000000000E+01 0.  1.
        -11    1    1    2    0    0 -0.39947573415E+01  0.26855931619E+02 -0.12526962100E+03  0.12817830197E+03  0.00000000000E+00 0.  1.
         11    1    1    2    0    0 -0.19501276817E+02  0.32987737995E+02  0.23980169760E+01  0.38395847965E+02  0.00000000000E+00 0. -1.
<mgrwt>
<rscale>  0 0.13294254E+03</rscale>
<asrwt>0</asrwt>
<pdfrwt beam="1">  1        2 0.39092088E-02 0.14056364E+03</pdfrwt>
<pdfrwt beam="2">  1       -2 0.23581298E+00 0.14056364E+03</pdfrwt>
<totfact> 0.18967456E+02</totfact>
</mgrwt>
</event>
<event>
 7    1  0.4230786E-006  0.2829745E+03  0.7546771E-02  0.1095690E+00
          1   -1    0    0  501    0  0.00000000000E+00  0.00000000000E+00  0.18678632211E+04  0.18678632211E+04  0.00000000000E+00 0. -1.
         -1   -1    0    0    0  501 -0.00000000000E+00 -0.00000000000E+00 -0.49257215466E+02  0.49257215466E+02  0.00000000000E+00 0.  1.
         23    2    1    2    0    0  0.23446167106E+03  0.97349420009E+02  0.53564720427E+03  0.60579906554E+03  0.12500158235E+03 0.  0.
          5    1    3    3  502    0  0.52683104607E+02  0.31186420449E+02  0.27151529397E+03  0.27837159911E+03  0.47000000000E+01 0.  1.
         -5    1    3    3    0  502  0.18177856645E+03  0.66162999560E+02  0.26413191030E+03  0.32742746643E+03  0.47000000000E+01 0.  1.
        -11    1    1    2    0    0  0.94877755373E+00 -0.14277288659E+02  0.24766553229E+02  0.28602854913E+02  0.00000000000E+00 0.  1.
         11    1    1    2    0    0 -0.23541044861E+03 -0.83072131349E+02  0.12581922481E+04  0.12827185161E+04  0.00000000000E+00 0. -1.
<mgrwt>
<rscale>  0 0.27999857E+03</rscale>
<asrwt>0</asrwt>
<pdfrwt beam="1">  1        1 0.28736352E+00 0.28297452E+03</pdfrwt>
<pdfrwt beam="2">  1       -1 0.75780346E-02 0.28297452E+03</pdfrwt>
<totfact> 0.38425064E+02</totfact>
</mgrwt>
</event>
<event>
 7    1  0.4230786E-006  0.1554416E+03  0.7546771E-02  0.1202265E+00
         -2   -1    0    0    0  501 -0.00000000000E+00  0.00000000000E+00  0.44967362432E+02  0.44967362432E+02  0.00000000000E+00 0.  1.
          2   -1    0    0  501    0  0.00000000000E+00 -0.00000000000E+00 -0.48070025287E+03  0.48070025287E+03  0.00000000000E+00 0. -1.
         23    2    1    2    0    0  0.86001106373E+02  0.33775688779E+02 -0.17229892257E+03  0.23205386201E+03  0.12500035482E+03 0.  0.
          5    1    3    3  502    0  0.10422630044E+03  0.61982100526E+02 -0.13913890600E+03  0.18462564192E+03  0.47000000000E+01 0. -1.
         -5    1    3    3    0  502 -0.18225194071E+02 -0.28206411747E+02 -0.33160016564E+02  0.47428220092E+02  0.47000000000E+01 0. -1.
        -11    1    1    2    0    0 -0.10011048391E+03 -0.11264497696E+02 -0.18288298288E+03  0.20879459601E+03  0.00000000000E+00 0. -1.
         11    1    1    2    0    0  0.14109377537E+02 -0.22511191084E+02 -0.80550984990E+02  0.84819157277E+02  0.00000000000E+00 0.  1.
<mgrwt>
<rscale>  0 0.14855128E+03</rscale>
<asrwt>0</asrwt>
<pdfrwt beam="2">  1        2 0.73953888E-01 0.15544155E+03</pdfrwt>
<pdfrwt beam="1">  1       -2 0.69180555E-02 0.15544155E+03</pdfrwt>
<totfact> 0.74516738E+03</totfact>
</mgrwt>
</event>
<event>
 7    1  0.4230786E-006  0.1275417E+03  0.7546771E-02  0.1245095E+00
          2   -1    0    0  501    0  0.00000000000E+00  0.00000000000E+00  0.12303235596E+03  0.12303235596E+03  0.00000000000E+00 0. -1.
         -2   -1    0    0    0  501 -0.00000000000E+00 -0.00000000000E+00 -0.10225338921E+03  0.10225338921E+03  0.00000000000E+00 0.  1.
         23    2    1    2    0    0  0.66907890077E+01 -0.24400880576E+02  0.25229564113E+01  0.12756666914E+03  0.12500688036E+03 0.  0.
          5    1    3    3  502    0 -0.33651895814E+02  0.35036289462E+02  0.21172850862E+02  0.53201233865E+02  0.47000000000E+01 0.  1.
         -5    1    3    3    0  502  0.40342684821E+02 -0.59437170038E+02 -0.18649894451E+02  0.74365435276E+02  0.47000000000E+01 0.  1.
        -11    1    1    2    0    0 -0.16740796533E+01  0.11543386167E+02 -0.38023314849E+02  0.39772160854E+02  0.00000000000E+00 0.  1.
         11    1    1    2    0    0 -0.50167093544E+01  0.12857494409E+02  0.56279325187E+02  0.57946915179E+02  0.00000000000E+00 0. -1.
<mgrwt>
<rscale>  0 0.11879699E+03</rscale>
<asrwt>0</asrwt>
<pdfrwt beam="1">  1        2 0.18928055E-01 0.12754172E+03</pdfrwt>
<pdfrwt beam="2">  1       -2 0.15731291E-01 0.12754172E+03</pdfrwt>
<totfact> 0.87803139E+03</totfact>
</mgrwt>
</event>
<event>
 7    1  0.4230786E-006  0.1389893E+03  0.7546771E-02  0.1223628E+00
          2   -1    0    0  501    0  0.00000000000E+00  0.00000000000E+00  0.77618872960E+03  0.77618872960E+03  0.00000000000E+00 0. -1.
         -2   -1    0    0    0  501 -0.00000000000E+00 -0.00000000000E+00 -0.21909480397E+02  0.21909480397E+02  0.00000000000E+00 0.  1.
         23    2    1    2    0    0  0.33210379169E+02 -0.50880780185E+02  0.32162225073E+03  0.35036967154E+03  0.12500500588E+03 0.  0.
          5    1    3    3  502    0 -0.79822547453E+01 -0.78753052501E+02  0.12941822903E+03  0.15177920699E+03  0.47000000000E+01 0. -1.
         -5    1    3    3    0  502  0.41192633915E+02  0.27872272316E+02  0.19220402170E+03  0.19859046456E+03  0.47000000000E+01 0. -1.
        -11    1    1    2    0    0  0.32291768465E+02  0.11429473129E+02  0.82670607322E+02  0.89486426243E+02  0.00000000000E+00 0.  1.
         11    1    1    2    0    0 -0.65502147635E+02  0.39451307056E+02  0.34998639115E+03  0.35824211222E+03  0.00000000000E+00 0. -1.
<mgrwt>
<rscale>  0 0.13261417E+03</rscale>
<asrwt>0</asrwt>
<pdfrwt beam="1">  1        2 0.11941363E+00 0.13898933E+03</pdfrwt>
<pdfrwt beam="2">  1       -2 0.33706899E-02 0.13898933E+03</pdfrwt>
<totfact> 0.12553816E+04</totfact>
</mgrwt>
</event>
<event>
 7    1  0.4230786E-006  0.1408749E+03  0.7546771E-02  0.1222911E+00
          1   -1    0    0  501    0  0.00000000000E+00  0.00000000000E+00  0.95891600518E+02  0.95891600518E+02  0.00000000000E+00 0. -1.
         -1   -1    0    0    0  501 -0.00000000000E+00 -0.00000000000E+00 -0.17284453018E+03  0.17284453018E+03  0.00000000000E+00 0.  1.
         23    2    1    2    0    0  0.62813891310E+02  0.16598957458E+02 -0.67014328928E+02  0.15600207380E+03  0.12499846567E+03 0.  0.
          5    1    3    3  502    0  0.48050100833E+01  0.18840230987E+02 -0.90883341388E+02  0.93058659820E+02  0.47000000000E+01 0. -1.
         -5    1    3    3    0  502  0.58008881227E+02 -0.22412735293E+01  0.23869012460E+02  0.62943413985E+02  0.47000000000E+01 0. -1.
        -11    1    1    2    0    0 -0.87023219329E+01 -0.16256667004E+02  0.36845100246E+02  0.41201590276E+02  0.00000000000E+00 0. -1.
         11    1    1    2    0    0 -0.54111569377E+02 -0.34229045408E+00 -0.46783700984E+02  0.71532466622E+02  0.00000000000E+00 0.  1.
<mgrwt>
<rscale>  0 0.13311143E+03</rscale>
<asrwt>0</asrwt>
<pdfrwt beam="1">  1        1 0.14752554E-01 0.14087486E+03</pdfrwt>
<pdfrwt beam="2">  1       -1 0.26591466E-01 0.14087486E+03</pdfrwt>
<totfact> 0.45808516E+03</totfact>
</mgrwt>
</event>
<event>
 7    1  0.4230786E-006  0.1290345E+03  0.7546771E-02  0.1244357E+00
         -1   -1    0    0    0  501 -0.00000000000E+00  0.00000000000E+00  0.13120950791E+02  0.13120950791E+02  0.00000000000E+00 0.  1.
          1   -1    0    0  501    0  0.00000000000E+00 -0.00000000000E+00 -0.96642389356E+03  0.96642389356E+03  0.00000000000E+00 0. -1.
         23    2    1    2    0    0  0.24243569823E+02 -0.20891658706E+02 -0.61561318081E+03  0.62899084468E+03  0.12500272886E+03 0.  0.
          5    1    3    3  502    0  0.19122677249E+02  0.49270488153E+02 -0.17819621820E+03  0.18592805052E+03  0.47000000000E+01 0.  1.
         -5    1    3    3    0  502  0.51208925744E+01 -0.70162146859E+02 -0.43741696261E+03  0.44306279416E+03  0.47000000000E+01 0.  1.
        -11    1    1    2    0    0 -0.51150629110E+02 -0.85858869039E+01 -0.22811039722E+03  0.23393259207E+03  0.00000000000E+00 0. -1.
         11    1    1    2    0    0  0.26907059287E+02  0.29477545610E+02 -0.10957936473E+03  0.11662140760E+03  0.00000000000E+00 0.  1.
<mgrwt>
<rscale>  0 0.11923949E+03</rscale>
<asrwt>0</asrwt>
<pdfrwt beam="2">  1        1 0.14868060E+00 0.12903447E+03</pdfrwt>
<pdfrwt beam="1">  1       -1 0.20186078E-02 0.12903447E+03</pdfrwt>
<totfact> 0.11003031E+04</totfact>
</mgrwt>
</event>
<event>
 7    1  0.4230786E-006  0.1784056E+03  0.7546771E-02  0.1175062E+00
          2   -1    0    0  501    0  0.00000000000E+00  0.00000000000E+00  0.52637841829E+03  0.52637841829E+03  0.00000000000E+00 0. -1.
         -2   -1    0    0    0  501 -0.00000000000E+00 -0.00000000000E+00 -0.58472054989E+02  0.58472054989E+02  0.00000000000E+00 0.  1.
         23    2    1    2    0    0 -0.10406708036E+03 -0.73303900205E+02  0.16115947975E+03  0.24041822084E+03  0.12500049599E+03 0.  0.
          5    1    3    3  502    0 -0.35875271942E+02 -0.23175169008E+02 -0.14522972777E+02  0.45355598703E+02  0.47000000000E+01 0. -1.
         -5    1    3    3    0  502 -0.68191808415E+02 -0.50128731197E+02  0.17568245253E+03  0.19506262213E+03  0.47000000000E+01 0. -1.
        -11    1    1    2    0    0  0.80559486009E+01 -0.20592947586E+02  0.50448073517E+02  0.55081538829E+02  0.00000000000E+00 0. -1.
         11    1    1    2    0    0  0.96011131756E+02  0.93896847791E+02  0.25629881003E+03  0.28935071361E+03  0.00000000000E+00 0.  1.
<mgrwt>
<rscale>  0 0.17269925E+03</rscale>
<asrwt>0</asrwt>
<pdfrwt beam="1">  1        2 0.80981292E-01 0.17840556E+03</pdfrwt>
<pdfrwt beam="2">  1       -2 0.89957011E-02 0.17840556E+03</pdfrwt>
<totfact> 0.45158984E+03</totfact>
</mgrwt>
</event>
<event>
 7    1  0.4230786E-006  0.2064004E+03  0.7546771E-02  0.1148390E+00
          1   -1    0    0  501    0  0.00000000000E+00  0.00000000000E+00  0.50248995123E+03  0.50248995123E+03  0.00000000000E+00 0. -1.
         -1   -1    0    0    0  501 -0.00000000000E+00 -0.00000000000E+00 -0.80233849253E+02  0.80233849253E+02  0.00000000000E+00 0.  1.
         23    2    1    2    0    0 -0.79965668702E+02 -0.14346236653E+03  0.16546970595E+03  0.26453989113E+03  0.12500068652E+03 0.  0.
          5    1    3    3  502    0 -0.83928042907E+02 -0.16253981150E+03  0.16159090259E+03  0.24412459218E+03  0.47000000000E+01 0. -1.
         -5    1    3    3    0  502  0.39623742055E+01  0.19077444961E+02  0.38788033525E+01  0.20415298946E+02  0.47000000000E+01 0. -1.
        -11    1    1    2    0    0 -0.19803960313E+02  0.26706841861E+02  0.59607154339E+02  0.68252949348E+02  0.00000000000E+00 0. -1.
         11    1    1    2    0    0  0.99769629015E+02  0.11675552467E+03  0.19717924169E+03  0.24993096001E+03  0.00000000000E+00 0.  1.
<mgrwt>
<rscale>  0 0.20160785E+03</rscale>
<asrwt>0</asrwt>
<pdfrwt beam="1">  1        1 0.77306144E-01 0.20640041E+03</pdfrwt>
<pdfrwt beam="2">  1       -1 0.12343669E-01 0.20640041E+03</pdfrwt>
<totfact> 0.19517751E+03</totfact>
</mgrwt>
</event>
<event>
 7    1  0.4230786E-006  0.2290360E+03  0.7546771E-02  0.1130502E+00
          2   -1    0    0  501    0  0.00000000000E+00  0.00000000000E+00  0.39251232493E+03  0.39251232493E+03  0.00000000000E+00 0.  1.
         -2   -1    0    0    0  501 -0.00000000000E+00 -0.00000000000E+00 -0.21712723470E+03  0.21712723470E+03  0.00000000000E+00 0. -1.
         23    2    1    2    0    0  0.14765712044E+03 -0.12259044121E+03 -0.11014025642E+03  0.25414239078E+03  0.12500574873E+03 0.  0.
          5    1    3    3  502    0  0.13026807860E+03 -0.79459592869E+02 -0.13266991418E+03  0.20225477826E+03  0.47000000000E+01 0. -1.
         -5    1    3    3    0  502  0.17389041832E+02 -0.43130848342E+02  0.22529657754E+02  0.51887612520E+02  0.47000000000E+01 0. -1.
        -11    1    1    2    0    0 -0.14965497230E+03  0.10283378728E+03  0.21101394611E+03  0.27838513609E+03  0.00000000000E+00 0. -1.
         11    1    1    2    0    0  0.19978518639E+01  0.19756653925E+02  0.74511400544E+02  0.77112032767E+02  0.00000000000E+00 0.  1.
<mgrwt>
<rscale>  0 0.22459617E+03</rscale>
<asrwt>0</asrwt>
<pdfrwt beam="1">  1        2 0.60386511E-01 0.22903598E+03</pdfrwt>
<pdfrwt beam="2">  1       -2 0.33404190E-01 0.22903598E+03</pdfrwt>
<totfact> 0.68544483E+02</totfact>
</mgrwt>
</event>
<event>
 7    1  0.4230786E-006  0.1172082E+03  0.7546771E-02  0.1260444E+00
          4   -1    0    0  501    0  0.00000000000E+00  0.00000000000E+00  0.13188940811E+02  0.13188940811E+02  0.00000000000E+00 0. -1.
         -4   -1    0    0    0  501 -0.00000000000E+00 -0.00000000000E+00 -0.89749316367E+03  0.89749316367E+03  0.00000000000E+00 0.  1.
         23    2    1    2    0    0  0.45495640557E+01 -0.61096884486E-01 -0.62314409883E+03  0.63407122505E+03  0.11711980307E+03 0.  0.
          5    1    3    3  502    0 -0.30809283094E+02  0.34390736595E+02 -0.12283783587E+03  0.13131320806E+03  0.47000000000E+01 0. -1.
         -5    1    3    3    0  502  0.35358847150E+02 -0.34451833480E+02 -0.50030626295E+03  0.50275801700E+03  0.47000000000E+01 0.  1.
        -11    1    1    2    0    0 -0.11924691573E+02  0.42577321799E+02 -0.17148840160E+03  0.17709686187E+03  0.00000000000E+00 0.  1.
         11    1    1    2    0    0  0.73751275178E+01 -0.42516224915E+02 -0.89671722433E+02  0.99514017561E+02  0.00000000000E+00 0. -1.
<mgrwt>
<rscale>  0 0.11006817E+03</rscale>
<asrwt>0</asrwt>
<pdfrwt beam="1">  1        4 0.20290678E-02 0.11720815E+03</pdfrwt>
<pdfrwt beam="2">  1       -4 0.13807587E+00 0.11720815E+03</pdfrwt>
<totfact> 0.63018557E+02</totfact>
</mgrwt>
</event>
<event>
 7    1  0.4230786E-006  0.1128768E+03  0.7546771E-02  0.1264447E+00
          3   -1    0    0  501    0  0.00000000000E+00  0.00000000000E+00  0.42051743657E+02  0.42051743657E+02  0.00000000000E+00 0. -1.
         -3   -1    0    0    0  501 -0.00000000000E+00 -0.00000000000E+00 -0.26907481456E+03  0.26907481456E+03  0.00000000000E+00 0.  1.
         23    2    1    2    0    0  0.60928781811E+00 -0.18414123895E+02 -0.15816363070E+03  0.19431138535E+03  0.11136305138E+03 0.  0.
          5    1    3    3  502    0  0.45458070653E+02  0.19591818069E+02 -0.46734660838E+02  0.68238508530E+02  0.47000000000E+01 0. -1.
         -5    1    3    3    0  502 -0.44848782835E+02 -0.38005941964E+02 -0.11142896986E+03  0.12607287682E+03  0.47000000000E+01 0.  1.
        -11    1    1    2    0    0  0.40678214947E+02 -0.44980148963E+01 -0.11481815177E+02  0.42506251176E+02  0.00000000000E+00 0. -1.
         11    1    1    2    0    0 -0.41287502765E+02  0.22912138792E+02 -0.57377625028E+02  0.74308921688E+02  0.00000000000E+00 0.  1.
<mgrwt>
<rscale>  0 0.10793263E+03</rscale>
<asrwt>0</asrwt>
<pdfrwt beam="1">  1        3 0.64694991E-02 0.11287684E+03</pdfrwt>
<pdfrwt beam="2">  1       -3 0.41396125E-01 0.11287684E+03</pdfrwt>
<totfact> 0.19427057E+03</totfact>
</mgrwt>
</event>
<event>
 7    1  0.4230786E-006  0.1293682E+03  0.7546771E-02  0.1241874E+00
          2   -1    0    0  501    0  0.00000000000E+00  0.00000000000E+00  0.74077702433E+02  0.74077702433E+02  0.00000000000E+00 0. -1.
         -2   -1    0    0    0  501 -0.00000000000E+00 -0.00000000000E+00 -0.18527402568E+03  0.18527402568E+03  0.00000000000E+00 0.  1.
         23    2    1    2    0    0 -0.83487567706E+01  0.32517795148E+02 -0.93449173741E+02  0.15958969116E+03  0.12493603447E+03 0.  0.
          5    1    3    3  502    0 -0.22514721238E+01  0.76036875109E+02 -0.85757452676E+02  0.11473058089E+03  0.47000000000E+01 0.  1.
         -5    1    3    3    0  502 -0.60972846468E+01 -0.43519079961E+02 -0.76917210656E+01  0.44859110263E+02  0.47000000000E+01 0.  1.
        -11    1    1    2    0    0  0.44629143792E+02 -0.51853288124E+01  0.10673440828E+02  0.46179762338E+02  0.00000000000E+00 0. -1.
         11    1    1    2    0    0 -0.36280387022E+02 -0.27332466336E+02 -0.28420590338E+02  0.53582274621E+02  0.00000000000E+00 0.  1.
<mgrwt>
<rscale>  0 0.12074416E+03</rscale>
<asrwt>0</asrwt>
<pdfrwt beam="1">  1        2 0.11396570E-01 0.12936816E+03</pdfrwt>
<pdfrwt beam="2">  1       -2 0.28503696E-01 0.12936816E+03</pdfrwt>
<totfact> 0.57802244E+03</totfact>
</mgrwt>
</event>
<event>
 7    1  0.4230786E-006  0.1866908E+03  0.7546771E-02  0.1166529E+00
          1   -1    0    0  501    0  0.00000000000E+00  0.00000000000E+00  0.40990235046E+03  0.40990235046E+03  0.00000000000E+00 0. -1.
         -1   -1    0    0    0  501 -0.00000000000E+00 -0.00000000000E+00 -0.12943283917E+03  0.12943283917E+03  0.00000000000E+00 0.  1.
         23    2    1    2    0    0 -0.13799302428E+03  0.13611589652E+02 -0.28191122506E+02  0.18880727135E+03  0.12500438474E+03 0.  0.
          5    1    3    3  502    0 -0.11771903752E+01  0.34392655421E+02 -0.36127534417E+02  0.50115160053E+02  0.47000000000E+01 0.  1.
         -5    1    3    3    0  502 -0.13681583391E+03 -0.20781065768E+02  0.79364119114E+01  0.13869211130E+03  0.47000000000E+01 0.  1.
        -11    1    1    2    0    0  0.94339030305E+02 -0.21772722993E+02  0.10814213524E+03  0.14515035487E+03  0.00000000000E+00 0.  1.
         11    1    1    2    0    0  0.43653993975E+02  0.81611333409E+01  0.20051849856E+03  0.20537756341E+03  0.00000000000E+00 0. -1.
<mgrwt>
<rscale>  0 0.18132292E+03</rscale>
<asrwt>0</asrwt>
<pdfrwt beam="1">  1        1 0.63061899E-01 0.18669078E+03</pdfrwt>
<pdfrwt beam="2">  1       -1 0.19912745E-01 0.18669078E+03</pdfrwt>
<totfact> 0.11881089E+03</totfact>
</mgrwt>
</event>
<event>
 7    1  0.4230786E-006  0.1278403E+03  0.7546771E-02  0.1250626E+00
         -3   -1    0    0    0  501 -0.00000000000E+00  0.00000000000E+00  0.43297482782E+03  0.43297482782E+03  0.00000000000E+00 0.  1.
          3   -1    0    0  501    0  0.00000000000E+00 -0.00000000000E+00 -0.31290875877E+02  0.31290875877E+02  0.00000000000E+00 0. -1.
         23    2    1    2    0    0  0.49427280226E+01  0.26333363206E+02  0.32616382115E+03  0.35032269549E+03  0.12500110468E+03 0.  0.
          5    1    3    3  502    0  0.10032542617E+02  0.72012724448E+02  0.13236697602E+03  0.15109464165E+03  0.47000000000E+01 0.  1.
         -5    1    3    3    0  502 -0.50898145947E+01 -0.45679361242E+02  0.19379684513E+03  0.19922805384E+03  0.47000000000E+01 0.  1.
        -11    1    1    2    0    0 -0.17942731388E+02 -0.40903995763E+02  0.10267425250E+02  0.45831195711E+02  0.00000000000E+00 0. -1.
         11    1    1    2    0    0  0.13000003366E+02  0.14570632557E+02  0.65252705543E+02  0.68111812494E+02  0.00000000000E+00 0.  1.
<mgrwt>
<rscale>  0 0.11554875E+03</rscale>
<asrwt>0</asrwt>
<pdfrwt beam="2">  1        3 0.48139812E-02 0.12784034E+03</pdfrwt>
<pdfrwt beam="1">  1       -3 0.66611508E-01 0.12784034E+03</pdfrwt>
<totfact> 0.12209755E+03</totfact>
</mgrwt>
</event>
<event>
 7    1  0.4230786E-006  0.1951246E+03  0.7546771E-02  0.1158804E+00
          2   -1    0    0  501    0  0.00000000000E+00  0.00000000000E+00  0.73655350779E+03  0.73655350779E+03  0.00000000000E+00 0. -1.
         -2   -1    0    0    0  501 -0.00000000000E+00 -0.00000000000E+00 -0.50220496672E+02  0.50220496672E+02  0.00000000000E+00 0.  1.
         23    2    1    2    0    0 -0.88079752831E+02  0.12120708397E+03  0.25082095238E+03  0.31778098652E+03  0.12499762068E+03 0.  0.
          5    1    3    3  502    0  0.26239428190E+02 -0.22261319746E+01  0.37376776538E+02  0.45962774935E+02  0.47000000000E+01 0. -1.
         -5    1    3    3    0  502 -0.11431918102E+03  0.12343321594E+03  0.21344417584E+03  0.27181821158E+03  0.47000000000E+01 0. -1.
        -11    1    1    2    0    0  0.17303410969E+02  0.50856984906E+00  0.83396441017E+01  0.19215002946E+02  0.00000000000E+00 0.  1.
         11    1    1    2    0    0  0.70776341862E+02 -0.12171565381E+03  0.42717241464E+03  0.44977801500E+03  0.00000000000E+00 0. -1.
<mgrwt>
<rscale>  0 0.18962042E+03</rscale>
<asrwt>0</asrwt>
<pdfrwt beam="1">  1        2 0.11331592E+00 0.19512459E+03</pdfrwt>
<pdfrwt beam="2">  1       -2 0.77262308E-02 0.19512459E+03</pdfrwt>
<totfact> 0.38835782E+03</totfact>
</mgrwt>
</event>
<event>
 7    1  0.4230786E-006  0.2253948E+03  0.7546771E-02  0.1132924E+00
         -1   -1    0    0    0  501 -0.00000000000E+00  0.00000000000E+00  0.17189653481E+03  0.17189653481E+03  0.00000000000E+00 0.  1.
          1   -1    0    0  501    0  0.00000000000E+00 -0.00000000000E+00 -0.40235298406E+03  0.40235298406E+03  0.00000000000E+00 0. -1.
         23    2    1    2    0    0  0.16446442437E+03  0.90159747463E+02  0.43358701559E+02  0.22952729923E+03  0.12500190857E+03 0.  0.
          5    1    3    3  502    0  0.11023008820E+03  0.11510443524E+03  0.54735092970E+02  0.16857557284E+03  0.47000000000E+01 0.  1.
         -5    1    3    3    0  502  0.54234336169E+02 -0.24944687779E+02 -0.11376391411E+02  0.60951726387E+02  0.47000000000E+01 0.  1.
        -11    1    1    2    0    0 -0.12779949066E+03 -0.10827005296E+03 -0.20563472885E+03  0.26521831741E+03  0.00000000000E+00 0. -1.
         11    1    1    2    0    0 -0.36664933710E+02  0.18110305501E+02 -0.68180421966E+02  0.79503902224E+02  0.00000000000E+00 0.  1.
<mgrwt>
<rscale>  0 0.22129154E+03</rscale>
<asrwt>0</asrwt>
<pdfrwt beam="2">  1        1 0.61900459E-01 0.22539477E+03</pdfrwt>
<pdfrwt beam="1">  1       -1 0.26445621E-01 0.22539477E+03</pdfrwt>
<totfact> 0.76398733E+02</totfact>
</mgrwt>
</event>
<event>
 7    1  0.4230786E-006  0.2119212E+03  0.7546771E-02  0.1143593E+00
          2   -1    0    0  501    0  0.00000000000E+00  0.00000000000E+00  0.19790944101E+03  0.19790944101E+03  0.00000000000E+00 0. -1.
         -2   -1    0    0    0  501 -0.00000000000E+00 -0.00000000000E+00 -0.20959523809E+03  0.20959523809E+03  0.00000000000E+00 0.  1.
         23    2    1    2    0    0 -0.74119804222E+02  0.15424559488E+03 -0.18703758554E+02  0.21274500283E+03  0.12500062691E+03 0.  0.
          5    1    3    3  502    0 -0.13014670328E+02 -0.21461864524E+02 -0.59482807924E+01  0.26219559817E+02  0.47000000000E+01 0. -1.
         -5    1    3    3    0  502 -0.61105133894E+02  0.17570745940E+03 -0.12755477762E+02  0.18652544301E+03  0.47000000000E+01 0. -1.
        -11    1    1    2    0    0  0.15590078178E+02 -0.29265560379E+02 -0.37208765034E+02  0.49839901256E+02  0.00000000000E+00 0.  1.
         11    1    1    2    0    0  0.58529726044E+02 -0.12498003450E+03  0.44226726507E+02  0.14491977502E+03  0.00000000000E+00 0. -1.
<mgrwt>
<rscale>  0 0.20746033E+03</rscale>
<asrwt>0</asrwt>
<pdfrwt beam="1">  1        2 0.30447606E-01 0.21192123E+03</pdfrwt>
<pdfrwt beam="2">  1       -2 0.32245421E-01 0.21192123E+03</pdfrwt>
<totfact> 0.15326906E+03</totfact>
</mgrwt>
</event>
<event>
 7    1  0.4230786E-006  0.1588152E+03  0.7546771E-02  0.1197951E+00
          1   -1    0    0  501    0  0.00000000000E+00  0.00000000000E+00  0.94639716954E+02  0.94639716954E+02  0.00000000000E+00 0. -1.
         -1   -1    0    0    0  501 -0.00000000000E+00 -0.00000000000E+00 -0.25081395639E+03  0.25081395639E+03  0.00000000000E+00 0.  1.
         23    2    1    2    0    0  0.60189340419E+02  0.76955182696E+02 -0.13860601084E+03  0.21079351889E+03  0.12520952250E+03 0.  0.
          5    1    3    3  502    0  0.73702105766E+02  0.31843296402E+01 -0.10515962462E+03  0.12854095457E+03  0.47000000000E+01 0. -1.
         -5    1    3    3    0  502 -0.13512765348E+02  0.73770853056E+02 -0.33446386214E+02  0.82252564329E+02  0.47000000000E+01 0. -1.
        -11    1    1    2    0    0 -0.72384749736E+01 -0.79594414827E+02 -0.16633013739E+02  0.81635308155E+02  0.00000000000E+00 0. -1.
         11    1    1    2    0    0 -0.52950865445E+02  0.26392321304E+01 -0.93521485785E+00  0.53024846293E+02  0.00000000000E+00 0.  1.
<mgrwt>
<rscale>  0 0.15207120E+03</rscale>
<asrwt>0</asrwt>
<pdfrwt beam="1">  1        1 0.14559957E-01 0.15881524E+03</pdfrwt>
<pdfrwt beam="2">  1       -1 0.38586762E-01 0.15881524E+03</pdfrwt>
<totfact> 0.24901214E+03</totfact>
</mgrwt>
</event>
<event>
 6    1  0.4230786E-006  0.2624379E+03  0.7546771E-02  0.1150301E+00
         -2   -1    0    0    0  501 -0.00000000000E+00  0.00000000000E+00  0.16773490847E+03  0.16773490847E+03  0.00000000000E+00 0.  1.
          2   -1    0    0  501    0  0.00000000000E+00 -0.00000000000E+00 -0.38233954307E+03  0.38233954307E+03  0.00000000000E+00 0. -1.
          5    1    1    2  502    0  0.56216868233E+02 -0.11870330508E+03  0.54529343953E+02  0.14228967026E+03  0.47000000000E+01 0. -1.
         -5    1    1    2    0  502 -0.59208867324E+02  0.11065654430E+03 -0.80034603193E+00  0.12559176454E+03  0.47000000000E+01 0.  1.
        -11    1    1    2    0    0  0.37442587057E+02 -0.10441901558E+02 -0.19746461761E+03  0.20125420701E+03  0.00000000000E+00 0.  1.
         11    1    1    2    0    0 -0.34450587966E+02  0.18488662341E+02 -0.70869014913E+02  0.80938809734E+02  0.00000000000E+00 0. -1.
<mgrwt>
<rscale>  0 0.19933576E+03</rscale>
<asrwt>0</asrwt>
<pdfrwt beam="2">  1        2 0.58821468E-01 0.26243791E+03</pdfrwt>
<pdfrwt beam="1">  1       -2 0.25805371E-01 0.26243791E+03</pdfrwt>
<totfact> 0.11274338E+03</totfact>
</mgrwt>
</event>
<event>
 7    1  0.4230786E-006  0.1627080E+03  0.7546771E-02  0.1192314E+00
          1   -1    0    0  501    0  0.00000000000E+00  0.00000000000E+00  0.61572340561E+03  0.61572340561E+03  0.00000000000E+00 0. -1.
         -1   -1    0    0    0  501 -0.00000000000E+00 -0.00000000000E+00 -0.37366737010E+02  0.37366737010E+02  0.00000000000E+00 0.  1.
         23    2    1    2    0    0 -0.89288647367E+02  0.53625047024E+02  0.32192114187E+03  0.36070362152E+03  0.12500309108E+03 0.  0.
          5    1    3    3  502    0  0.81839430048E+01 -0.30207382543E+02  0.41589668368E+02  0.52261394912E+02  0.47000000000E+01 0. -1.
         -5    1    3    3    0  502 -0.97472590371E+02  0.83832429567E+02  0.28033147350E+03  0.30844222661E+03  0.47000000000E+01 0. -1.
        -11    1    1    2    0    0  0.25628843356E+02 -0.48660997724E+02  0.19914404107E+03  0.20659883689E+03  0.00000000000E+00 0. -1.
         11    1    1    2    0    0  0.63659804010E+02 -0.49640492998E+01  0.57291485658E+02  0.85787684203E+02  0.00000000000E+00 0.  1.
<mgrwt>
<rscale>  0 0.15683732E+03</rscale>
<asrwt>0</asrwt>
<pdfrwt beam="1">  1        1 0.94726670E-01 0.16270796E+03</pdfrwt>
<pdfrwt beam="2">  1       -1 0.57487292E-02 0.16270796E+03</pdfrwt>
<totfact> 0.47213561E+03</totfact>
</mgrwt>
</event>
<event>
 6    1  0.4230786E-006  0.2241960E+03  0.7546771E-02  0.1164233E+00
         -2   -1    0    0    0  501 -0.00000000000E+00  0.00000000000E+00  0.14262726184E+03  0.14262726184E+03  0.00000000000E+00 0.  1.
          2   -1    0    0  501    0  0.00000000000E+00 -0.00000000000E+00 -0.35114237081E+03  0.35114237081E+03  0.00000000000E+00 0. -1.
          5    1    1    2  502    0 -0.63981078397E+02  0.11629342370E+03  0.26249736498E+02  0.13538418465E+03  0.47000000000E+01 0. -1.
         -5    1    1    2    0  502  0.41199039532E+02 -0.81287662899E+02  0.11677326605E+02  0.91997255147E+02  0.47000000000E+01 0.  1.
        -11    1    1    2    0    0  0.32596157150E+01 -0.53875969408E+02 -0.22612270262E+03  0.23247520688E+03  0.00000000000E+00 0. -1.
         11    1    1    2    0    0  0.19522423151E+02  0.18870208610E+02 -0.20319469457E+02  0.33912985974E+02  0.00000000000E+00 0.  1.
<mgrwt>
<rscale>  0 0.18373829E+03</rscale>
<asrwt>0</asrwt>
<pdfrwt beam="2">  1        2 0.54021903E-01 0.22419602E+03</pdfrwt>
<pdfrwt beam="1">  1       -2 0.21942656E-01 0.22419602E+03</pdfrwt>
<totfact> 0.16393509E+03</totfact>
</mgrwt>
</event>
<event>
 7    1  0.4230786E-006  0.1298797E+03  0.7546771E-02  0.1242053E+00
         -1   -1    0    0    0  501 -0.00000000000E+00  0.00000000000E+00  0.70735355049E+02  0.70735355049E+02  0.00000000000E+00 0.  1.
          1   -1    0    0  501    0  0.00000000000E+00 -0.00000000000E+00 -0.18167573180E+03  0.18167573180E+03  0.00000000000E+00 0. -1.
         23    2    1    2    0    0 -0.33828904700E+02 -0.10052180566E+02 -0.58635136664E+02  0.14250195500E+03  0.12499314701E+03 0.  0.
          5    1    3    3  502    0 -0.55602879068E+02 -0.55444398838E+02 -0.28659318584E+02  0.83721013281E+02  0.47000000000E+01 0. -1.
         -5    1    3    3    0  502  0.21773974368E+02  0.45392218271E+02 -0.29975818079E+02  0.58780941715E+02  0.47000000000E+01 0. -1.
        -11    1    1    2    0    0  0.56587358416E+02  0.31129304102E+02 -0.42750415201E+02  0.77451666904E+02  0.00000000000E+00 0. -1.
         11    1    1    2    0    0 -0.22758453716E+02 -0.21077123535E+02 -0.95548248807E+01  0.32457464944E+02  0.00000000000E+00 0.  1.
<mgrwt>
<rscale>  0 0.12063505E+03</rscale>
<asrwt>0</asrwt>
<pdfrwt beam="2">  1        1 0.27950112E-01 0.12987967E+03</pdfrwt>
<pdfrwt beam="1">  1       -1 0.10882362E-01 0.12987967E+03</pdfrwt>
<totfact> 0.83460976E+03</totfact>
</mgrwt>
</event>
<event>
 7    1  0.4230786E-006  0.1376609E+03  0.7546771E-02  0.1227497E+00
          1   -1    0    0  501    0  0.00000000000E+00  0.00000000000E+00  0.28541893445E+02  0.28541893445E+02  0.00000000000E+00 0. -1.
         -1   -1    0    0    0  501 -0.00000000000E+00 -0.00000000000E+00 -0.57447427505E+03  0.57447427505E+03  0.00000000000E+00 0.  1.
         23    2    1    2    0    0 -0.12044958353E+02  0.56392998942E+02 -0.38098851470E+03  0.40509599863E+03  0.12500107366E+03 0.  0.
          5    1    3    3  502    0 -0.61419782086E+02  0.51474949921E+02 -0.29479632055E+03  0.30553071975E+03  0.47000000000E+01 0. -1.
         -5    1    3    3    0  502  0.49374823733E+02  0.49180490203E+01 -0.86192194150E+02  0.99565278873E+02  0.47000000000E+01 0. -1.
        -11    1    1    2    0    0  0.49410404063E+02 -0.50941195003E+02 -0.11770002080E+03  0.13743976235E+03  0.00000000000E+00 0.  1.
         11    1    1    2    0    0 -0.37365445710E+02 -0.54518039390E+01 -0.47243846102E+02  0.60480407520E+02  0.00000000000E+00 0. -1.
<mgrwt>
<rscale>  0 0.12997241E+03</rscale>
<asrwt>0</asrwt>
<pdfrwt beam="1">  1        1 0.43910606E-02 0.13766089E+03</pdfrwt>
<pdfrwt beam="2">  1       -1 0.88380657E-01 0.13766089E+03</pdfrwt>
<totfact> 0.25503944E+03</totfact>
</mgrwt>
</event>
<event>
 7    1  0.4230786E-006  0.1319832E+03  0.7546771E-02  0.1231285E+00
         -2   -1    0    0    0  501 -0.00000000000E+00  0.00000000000E+00  0.74341742221E+02  0.74341742221E+02  0.00000000000E+00 0.  1.
          2   -1    0    0  501    0  0.00000000000E+00 -0.00000000000E+00 -0.20483501256E+03  0.20483501256E+03  0.00000000000E+00 0. -1.
         23    2    1    2    0    0 -0.42376819517E+02 -0.92898676311E+00 -0.67140868072E+02  0.14807925193E+03  0.12499164307E+03 0.  0.
          5    1    3    3  502    0 -0.45821610003E+02  0.57263084513E+02 -0.38300367184E+02  0.82871520546E+02  0.47000000000E+01 0.  1.
         -5    1    3    3    0  502  0.34447904862E+01 -0.58192071276E+02 -0.28840500887E+02  0.65207731384E+02  0.47000000000E+01 0.  1.
        -11    1    1    2    0    0  0.44967835736E+02 -0.47306990181E+02 -0.26962148547E+02  0.70618800790E+02  0.00000000000E+00 0.  1.
         11    1    1    2    0    0 -0.25910162190E+01  0.48235976945E+02 -0.36390253716E+02  0.60478702056E+02  0.00000000000E+00 0. -1.
<mgrwt>
<rscale>  0 0.12745290E+03</rscale>
<asrwt>0</asrwt>
<pdfrwt beam="2">  1        2 0.31513079E-01 0.13198321E+03</pdfrwt>
<pdfrwt beam="1">  1       -2 0.11437191E-01 0.13198321E+03</pdfrwt>
<totfact> 0.83831662E+03</totfact>
</mgrwt>
</event>
<event>
 7    1  0.4230786E-006  0.1254351E+03  0.7546771E-02  0.1250768E+00
          1   -1    0    0  501    0  0.00000000000E+00  0.00000000000E+00  0.26623928137E+02  0.26623928137E+02  0.00000000000E+00 0. -1.
         -1   -1    0    0    0  501 -0.00000000000E+00 -0.00000000000E+00 -0.52340660335E+03  0.52340660335E+03  0.00000000000E+00 0.  1.
         23    2    1    2    0    0  0.69848833686E+01 -0.76803920318E+01 -0.39341392356E+03  0.41292672328E+03  0.12500474602E+03 0.  0.
          5    1    3    3  502    0  0.27975645994E+02  0.50155814977E+02 -0.25421171725E+03  0.26066056421E+03  0.47000000000E+01 0.  1.
         -5    1    3    3    0  502 -0.20990762626E+02 -0.57836207009E+02 -0.13920220631E+03  0.15226615907E+03  0.47000000000E+01 0.  1.
        -11    1    1    2    0    0 -0.11206762561E+02  0.35262311540E+02 -0.10273353763E+03  0.10919341508E+03  0.00000000000E+00 0.  1.
         11    1    1    2    0    0  0.42218791925E+01 -0.27581919509E+02 -0.63521401846E+00  0.27910393128E+02  0.00000000000E+00 0. -1.
<mgrwt>
<rscale>  0 0.11546694E+03</rscale>
<asrwt>0</asrwt>
<pdfrwt beam="1">  1        1 0.40959890E-02 0.12543510E+03</pdfrwt>
<pdfrwt beam="2">  1       -1 0.80524091E-01 0.12543510E+03</pdfrwt>
<totfact> 0.33864717E+03</totfact>
</mgrwt>
</event>
<event>
 7    1  0.4230786E-006  0.2536975E+03  0.7546771E-02  0.1113393E+00
          2   -1    0    0  501    0  0.00000000000E+00  0.00000000000E+00  0.73855662145E+03  0.73855662145E+03  0.00000000000E+00 0. -1.
         -2   -1    0    0    0  501 -0.00000000000E+00 -0.00000000000E+00 -0.10535181275E+03  0.10535181275E+03  0.00000000000E+00 0.  1.
         23    2    1    2    0    0  0.14302739066E+03 -0.16816805758E+03  0.12582669810E+03  0.28318686679E+03  0.12500045399E+03 0.  0.
          5    1    3    3  502    0  0.14096429007E+03 -0.79365623459E+02  0.10125628417E+03  0.19090510299E+03  0.47000000000E+01 0.  1.
         -5    1    3    3    0  502  0.20631005900E+01 -0.88802434121E+02  0.24570413928E+02  0.92281763802E+02  0.47000000000E+01 0.  1.
        -11    1    1    2    0    0 -0.10301058905E+03  0.80976169362E+02  0.20327864731E+03  0.24184815466E+03  0.00000000000E+00 0.  1.
         11    1    1    2    0    0 -0.40016801615E+02  0.87191888217E+02  0.30409946329E+03  0.31887341275E+03  0.00000000000E+00 0. -1.
<mgrwt>
<rscale>  0 0.24986120E+03</rscale>
<asrwt>0</asrwt>
<pdfrwt beam="1">  1        2 0.11362409E+00 0.25369754E+03</pdfrwt>
<pdfrwt beam="2">  1       -2 0.16207972E-01 0.25369754E+03</pdfrwt>
<totfact> 0.11814994E+03</totfact>
</mgrwt>
</event>
<event>
 7    1  0.4230786E-006  0.1345935E+03  0.7546771E-02  0.1233680E+00
         -4   -1    0    0    0  501 -0.00000000000E+00  0.00000000000E+00  0.15678302122E+03  0.15678302122E+03  0.00000000000E+00 0.  1.
          4   -1    0    0  501    0  0.00000000000E+00 -0.00000000000E+00 -0.96074649447E+02  0.96074649447E+02  0.00000000000E+00 0. -1.
         23    2    1    2    0    0 -0.32705643561E+02 -0.37675462472E+02  0.65578547461E+02  0.14971959889E+03  0.12500525113E+03 0.  0.
          5    1    3    3  502    0  0.27189316179E+02 -0.31559984155E+02  0.77549493575E+02  0.88155008184E+02  0.47000000000E+01 0. -1.
         -5    1    3    3    0  502 -0.59894959740E+02 -0.61154783172E+01 -0.11970946114E+02  0.61564590701E+02  0.47000000000E+01 0. -1.
        -11    1    1    2    0    0  0.48331920285E+02  0.59143889820E+02 -0.54911112510E+01  0.76577584999E+02  0.00000000000E+00 0. -1.
         11    1    1    2    0    0 -0.15626276723E+02 -0.21468427348E+02  0.62093555907E+00  0.26560486780E+02  0.00000000000E+00 0.  1.
<mgrwt>
<rscale>  0 0.12589302E+03</rscale>
<asrwt>0</asrwt>
<pdfrwt beam="2">  1        4 0.14780715E-01 0.13459351E+03</pdfrwt>
<pdfrwt beam="1">  1       -4 0.24120465E-01 0.13459351E+03</pdfrwt>
<totfact> 0.10204463E+03</totfact>
</mgrwt>
</event>
<event>
 7    1  0.4230786E-006  0.1600778E+03  0.7546771E-02  0.1195122E+00
         -1   -1    0    0    0  501 -0.00000000000E+00  0.00000000000E+00  0.17594204228E+02  0.17594204228E+02  0.00000000000E+00 0.  1.
          1   -1    0    0  501    0  0.00000000000E+00 -0.00000000000E+00 -0.12820613321E+04  0.12820613321E+04  0.00000000000E+00 0. -1.
         23    2    1    2    0    0  0.50126631334E+02 -0.86529383451E+02 -0.74412416242E+03  0.76114760052E+03  0.12499954927E+03 0.  0.
          5    1    3    3  502    0  0.85505670739E+02 -0.25453234747E+02 -0.41660123740E+03  0.42607249135E+03  0.47000000000E+01 0. -1.
         -5    1    3    3    0  502 -0.35379039405E+02 -0.61076148704E+02 -0.32752292502E+03  0.33507510917E+03  0.47000000000E+01 0. -1.
        -11    1    1    2    0    0 -0.71952769699E+02  0.91319439515E+02 -0.44301437706E+03  0.45801547942E+03  0.00000000000E+00 0.  1.
         11    1    1    2    0    0  0.21826138365E+02 -0.47900560643E+01 -0.77328588378E+02  0.80492456377E+02  0.00000000000E+00 0. -1.
<mgrwt>
<rscale>  0 0.15443901E+03</rscale>
<asrwt>0</asrwt>
<pdfrwt beam="2">  1        1 0.19724022E+00 0.16007780E+03</pdfrwt>
<pdfrwt beam="1">  1       -1 0.27068004E-02 0.16007780E+03</pdfrwt>
<totfact> 0.43556880E+03</totfact>
</mgrwt>
</event>
<event>
 7    1  0.4230786E-006  0.1435000E+03  0.7546771E-02  0.1218368E+00
          2   -1    0    0  501    0  0.00000000000E+00  0.00000000000E+00  0.16414299047E+03  0.16414299047E+03  0.00000000000E+00 0. -1.
         -2   -1    0    0    0  501 -0.00000000000E+00 -0.00000000000E+00 -0.11835171161E+03  0.11835171161E+03  0.00000000000E+00 0.  1.
         23    2    1    2    0    0  0.55667671852E+02  0.43227999200E+02 -0.25287144430E+02  0.14571097382E+03  0.12499879445E+03 0.  0.
          5    1    3    3  502    0 -0.11992523203E+02  0.52493893268E+02 -0.49310634929E+02  0.73164596358E+02  0.47000000000E+01 0.  1.
         -5    1    3    3    0  502  0.67660195054E+02 -0.92658940674E+01  0.24023490499E+02  0.72546377466E+02  0.47000000000E+01 0.  1.
        -11    1    1    2    0    0 -0.84670175171E+01 -0.32896701576E+02  0.80663418799E+02  0.87524113778E+02  0.00000000000E+00 0. -1.
         11    1    1    2    0    0 -0.47200654335E+02 -0.10331297624E+02 -0.95849955089E+01  0.49259614484E+02  0.00000000000E+00 0.  1.
<mgrwt>
<rscale>  0 0.13632041E+03</rscale>
<asrwt>0</asrwt>
<pdfrwt beam="1">  1        2 0.25252768E-01 0.14349999E+03</pdfrwt>
<pdfrwt beam="2">  1       -2 0.18207956E-01 0.14349999E+03</pdfrwt>
<totfact> 0.50325196E+03</totfact>
</mgrwt>
</event>
<event>
 7    1  0.4230786E-006  0.2620243E+03  0.7546771E-02  0.1108219E+00
          1   -1    0    0  501    0  0.00000000000E+00  0.00000000000E+00  0.13497616926E+04  0.13497616926E+04  0.00000000000E+00 0. -1.
         -1   -1    0    0    0  501 -0.00000000000E+00 -0.00000000000E+00 -0.52196495858E+02  0.52196495858E+02  0.00000000000E+00 0.  1.
         23    2    1    2    0    0 -0.21502396474E+03 -0.82459142708E+02  0.46792303492E+03  0.53629161989E+03  0.12498767671E+03 0.  0.
          5    1    3    3  502    0 -0.20365744587E+03 -0.73012380776E+02  0.47285253569E+03  0.52001805114E+03  0.47000000000E+01 0. -1.
         -5    1    3    3    0  502 -0.11366518868E+02 -0.94467619318E+01 -0.49295007652E+01  0.16273568753E+02  0.47000000000E+01 0. -1.
        -11    1    1    2    0    0  0.51383803666E+02 -0.16941590411E+02  0.22606731096E+03  0.23245159033E+03  0.00000000000E+00 0.  1.
         11    1    1    2    0    0  0.16364016108E+03  0.99400733119E+02  0.60357485085E+03  0.63321497822E+03  0.00000000000E+00 0. -1.
<mgrwt>
<rscale>  0 0.25821822E+03</rscale>
<asrwt>0</asrwt>
<pdfrwt beam="1">  1        1 0.20765562E+00 0.26202430E+03</pdfrwt>
<pdfrwt beam="2">  1       -1 0.80302312E-02 0.26202430E+03</pdfrwt>
<totfact> 0.77430803E+02</totfact>
</mgrwt>
</event>
<event>
 7    1  0.4230786E-006  0.1264017E+03  0.7546771E-02  0.1249610E+00
         -4   -1    0    0    0  501 -0.00000000000E+00  0.00000000000E+00  0.19034923538E+03  0.19034923538E+03  0.00000000000E+00 0. -1.
          4   -1    0    0  501    0  0.00000000000E+00 -0.00000000000E+00 -0.64279262288E+02  0.64279262288E+02  0.00000000000E+00 0.  1.
         23    2    1    2    0    0 -0.42461243932E+01 -0.18256331185E+02  0.99045387507E+02  0.16058446420E+03  0.12500423255E+03 0.  0.
          5    1    3    3  502    0  0.29520106788E+01 -0.58477341284E+02  0.62364537230E+01  0.59070273114E+02  0.47000000000E+01 0.  1.
         -5    1    3    3    0  502 -0.71981350720E+01  0.40221010099E+02  0.92808933784E+02  0.10151419109E+03  0.47000000000E+01 0.  1.
        -11    1    1    2    0    0 -0.35557585199E+02 -0.12192080420E+02  0.10641169862E+01  0.37604800692E+02  0.00000000000E+00 0.  1.
         11    1    1    2    0    0  0.39803709592E+02  0.30448411605E+02  0.25960468602E+02  0.56439232779E+02  0.00000000000E+00 0. -1.
<mgrwt>
<rscale>  0 0.11613648E+03</rscale>
<asrwt>0</asrwt>
<pdfrwt beam="2">  1        4 0.98891173E-02 0.12640167E+03</pdfrwt>
<pdfrwt beam="1">  1       -4 0.29284498E-01 0.12640167E+03</pdfrwt>
<totfact> 0.13957788E+03</totfact>
</mgrwt>
</event>
<event>
 7    1  0.4230786E-006  0.1327925E+03  0.7546771E-02  0.1238571E+00
         -1   -1    0    0    0  501 -0.00000000000E+00  0.00000000000E+00  0.96308441646E+02  0.96308441646E+02  0.00000000000E+00 0.  1.
          1   -1    0    0  501    0  0.00000000000E+00 -0.00000000000E+00 -0.13715259821E+03  0.13715259821E+03  0.00000000000E+00 0. -1.
         23    2    1    2    0    0  0.35840994356E+02  0.26933581149E+02 -0.23843270043E+02  0.13491607437E+03  0.12499540362E+03 0.  0.
          5    1    3    3  502    0  0.16992136240E+02 -0.30646607476E+02 -0.55951584861E+02  0.66186230382E+02  0.47000000000E+01 0. -1.
         -5    1    3    3    0  502  0.18848858117E+02  0.57580188624E+02  0.32108314818E+02  0.68729843989E+02  0.47000000000E+01 0. -1.
        -11    1    1    2    0    0  0.88036489275E+01 -0.14991712305E+02  0.28696827639E+02  0.33552400642E+02  0.00000000000E+00 0.  1.
         11    1    1    2    0    0 -0.44644643284E+02 -0.11941868844E+02 -0.45697714157E+02  0.64992564841E+02  0.00000000000E+00 0. -1.
<mgrwt>
<rscale>  0 0.12278590E+03</rscale>
<asrwt>0</asrwt>
<pdfrwt beam="2">  1        1 0.21100400E-01 0.13279249E+03</pdfrwt>
<pdfrwt beam="1">  1       -1 0.14816683E-01 0.13279249E+03</pdfrwt>
<totfact> 0.73811943E+03</totfact>
</mgrwt>
</event>
<event>
 7    1  0.4230786E-006  0.3668404E+03  0.7546771E-02  0.1056794E+00
          1   -1    0    0  501    0  0.00000000000E+00  0.00000000000E+00  0.25258833345E+04  0.25258833345E+04  0.00000000000E+00 0. -1.
         -1   -1    0    0    0  501 -0.00000000000E+00 -0.00000000000E+00 -0.51978086671E+02  0.51978086671E+02  0.00000000000E+00 0.  1.
         23    2    1    2    0    0 -0.34018820881E+03 -0.56678349273E+02  0.12673852893E+04  0.13194079540E+04  0.12502569694E+03 0.  0.
          5    1    3    3  502    0 -0.82714183125E+02 -0.56593605305E+02  0.49998386996E+03  0.50995140207E+03  0.47000000000E+01 0.  1.
         -5    1    3    3    0  502 -0.25747402569E+03 -0.84743968227E-01  0.76740141932E+03  0.80945655193E+03  0.47000000000E+01 0.  1.
        -11    1    1    2    0    0  0.26284468428E+03  0.83478900724E+02  0.94558269644E+03  0.98497852298E+03  0.00000000000E+00 0. -1.
         11    1    1    2    0    0  0.77343524538E+02 -0.26800551451E+02  0.26093726207E+03  0.27347494416E+03  0.00000000000E+00 0.  1.
<mgrwt>
<rscale>  0 0.36455693E+03</rscale>
<asrwt>0</asrwt>
<pdfrwt beam="1">  1        1 0.38859734E+00 0.36684040E+03</pdfrwt>
<pdfrwt beam="2">  1       -1 0.79966307E-02 0.36684040E+03</pdfrwt>
<totfact> 0.12846112E+02</totfact>
</mgrwt>
</event>
<event>
 7    1  0.4230786E-006  0.1691456E+03  0.7546771E-02  0.1185231E+00
         -3   -1    0    0    0  501 -0.00000000000E+00  0.00000000000E+00  0.21381451097E+03  0.21381451097E+03  0.00000000000E+00 0.  1.
          3   -1    0    0  501    0  0.00000000000E+00 -0.00000000000E+00 -0.15380487535E+03  0.15380487535E+03  0.00000000000E+00 0. -1.
         23    2    1    2    0    0 -0.11187405962E+03 -0.21654551363E+02  0.12221554072E+03  0.20867887496E+03  0.12500203859E+03 0.  0.
          5    1    3    3  502    0  0.51208038817E+01 -0.28335639690E+02  0.78108161920E+02  0.83379290399E+02  0.47000000000E+01 0.  1.
         -5    1    3    3    0  502 -0.11699486350E+03  0.66810883268E+01  0.44107378800E+02  0.12529958457E+03  0.47000000000E+01 0.  1.
        -11    1    1    2    0    0  0.74835365646E+01 -0.21869114053E+02 -0.36101005183E+02  0.42866584238E+02  0.00000000000E+00 0. -1.
         11    1    1    2    0    0  0.10439052306E+03  0.43523665416E+02 -0.26104899914E+02  0.11607392711E+03  0.00000000000E+00 0.  1.
<mgrwt>
<rscale>  0 0.16310912E+03</rscale>
<asrwt>0</asrwt>
<pdfrwt beam="2">  1        3 0.23662288E-01 0.16914560E+03</pdfrwt>
<pdfrwt beam="1">  1       -3 0.32894540E-01 0.16914560E+03</pdfrwt>
<totfact> 0.35884799E+02</totfact>
</mgrwt>
</event>
<event>
 7    1  0.4230786E-006  0.1589345E+03  0.7546771E-02  0.1197673E+00
         -1   -1    0    0    0  501 -0.00000000000E+00  0.00000000000E+00  0.62021320166E+03  0.62021320166E+03  0.00000000000E+00 0.  1.
          1   -1    0    0  501    0  0.00000000000E+00 -0.00000000000E+00 -0.42705020887E+02  0.42705020887E+02  0.00000000000E+00 0. -1.
         23    2    1    2    0    0 -0.89753138253E+01 -0.97747498742E+02  0.45268102294E+03  0.47977106890E+03  0.12500016099E+03 0.  0.
          5    1    3    3  502    0 -0.51610878788E+02 -0.48726378442E+01  0.10260333985E+03  0.11505199154E+03  0.47000000000E+01 0. -1.
         -5    1    3    3    0  502  0.42635564963E+02 -0.92874860898E+02  0.35007768310E+03  0.36471907736E+03  0.47000000000E+01 0. -1.
        -11    1    1    2    0    0  0.28976017573E+02  0.67249665916E+02  0.12701381823E+03  0.14661049479E+03  0.00000000000E+00 0.  1.
         11    1    1    2    0    0 -0.20000703747E+02  0.30497832826E+02 -0.21866603990E+01  0.36536658867E+02  0.00000000000E+00 0. -1.
<mgrwt>
<rscale>  0 0.15230182E+03</rscale>
<asrwt>0</asrwt>
<pdfrwt beam="2">  1        1 0.65700037E-02 0.15893448E+03</pdfrwt>
<pdfrwt beam="1">  1       -1 0.95417409E-01 0.15893448E+03</pdfrwt>
<totfact> 0.12557214E+03</totfact>
</mgrwt>
</event>
<event>
 7    1  0.4230786E-006  0.1512982E+03  0.7546771E-02  0.1205512E+00
          4   -1    0    0  501    0  0.00000000000E+00  0.00000000000E+00  0.25966922141E+03  0.25966922141E+03  0.00000000000E+00 0.  1.
         -4   -1    0    0    0  501 -0.00000000000E+00 -0.00000000000E+00 -0.89303162633E+02  0.89303162633E+02  0.00000000000E+00 0. -1.
         23    2    1    2    0    0 -0.51988930239E+02 -0.67548327019E+02  0.25211886114E+02  0.15338439913E+03  0.12500203736E+03 0.  0.
          5    1    3    3  502    0  0.35801411123E+02  0.53274281298E+01  0.12039576322E+02  0.38433890343E+02  0.47000000000E+01 0. -1.
         -5    1    3    3    0  502 -0.87790341363E+02 -0.72875755149E+02  0.13172309792E+02  0.11495050879E+03  0.47000000000E+01 0. -1.
        -11    1    1    2    0    0  0.74621522488E+02  0.25732095783E+02  0.64384956084E+02  0.10186233328E+03  0.00000000000E+00 0. -1.
         11    1    1    2    0    0 -0.22632592249E+02  0.41816231236E+02  0.80769216578E+02  0.93725651629E+02  0.00000000000E+00 0.  1.
<mgrwt>
<rscale>  0 0.14597171E+03</rscale>
<asrwt>0</asrwt>
<pdfrwt beam="1">  1        4 0.39949111E-01 0.15129816E+03</pdfrwt>
<pdfrwt beam="2">  1       -4 0.13738948E-01 0.15129816E+03</pdfrwt>
<totfact> 0.45419180E+02</totfact>
</mgrwt>
</event>
<event>
 7    1  0.4230786E-006  0.1286847E+03  0.7546771E-02  0.1245096E+00
          1   -1    0    0  501    0  0.00000000000E+00  0.00000000000E+00  0.12356707497E+03  0.12356707497E+03  0.00000000000E+00 0. -1.
         -1   -1    0    0    0  501 -0.00000000000E+00 -0.00000000000E+00 -0.10346060632E+03  0.10346060632E+03  0.00000000000E+00 0.  1.
         23    2    1    2    0    0  0.18227088731E+01  0.30369865096E+02 -0.93783263557E+01  0.12902603498E+03  0.12503644958E+03 0.  0.
          5    1    3    3  502    0 -0.51708928929E+02  0.30591661401E+02 -0.34787158674E+02  0.69583758786E+02  0.47000000000E+01 0. -1.
         -5    1    3    3    0  502  0.53531637802E+02 -0.22179630481E+00  0.25408832318E+02  0.59442276194E+02  0.47000000000E+01 0. -1.
        -11    1    1    2    0    0 -0.37848341137E+02 -0.35181593495E+02  0.76739813631E+00  0.51680076892E+02  0.00000000000E+00 0.  1.
         11    1    1    2    0    0  0.36025632263E+02  0.48117283991E+01  0.28717396870E+02  0.46321569416E+02  0.00000000000E+00 0. -1.
<mgrwt>
<rscale>  0 0.11879632E+03</rscale>
<asrwt>0</asrwt>
<pdfrwt beam="1">  1        1 0.19010319E-01 0.12868475E+03</pdfrwt>
<pdfrwt beam="2">  1       -1 0.15917016E-01 0.12868475E+03</pdfrwt>
<totfact> 0.75130735E+03</totfact>
</mgrwt>
</event>
<event>
 7    1  0.4230786E-006  0.1441551E+03  0.7546771E-02  0.1218458E+00
         -1   -1    0    0    0  501 -0.00000000000E+00  0.00000000000E+00  0.15125668714E+04  0.15125668714E+04  0.00000000000E+00 0.  1.
          1   -1    0    0  501    0  0.00000000000E+00 -0.00000000000E+00 -0.12389529898E+02  0.12389529898E+02  0.00000000000E+00 0. -1.
         23    2    1    2    0    0 -0.31491766725E+02 -0.64528814117E+02  0.10696013051E+04  0.10792718105E+04  0.12499995932E+03 0.  0.
          5    1    3    3  502    0 -0.13862040093E+02 -0.30507854220E+02  0.59620507609E+02  0.68553484610E+02  0.47000000000E+01 0. -1.
         -5    1    3    3    0  502 -0.17629726632E+02 -0.34020959897E+02  0.10099807975E+04  0.10107183259E+04  0.47000000000E+01 0. -1.
        -11    1    1    2    0    0  0.25382557386E+02  0.74548116427E+02  0.42578975898E+03  0.43301110232E+03  0.00000000000E+00 0.  1.
         11    1    1    2    0    0  0.61092093386E+01 -0.10019302310E+02  0.47862773433E+01  0.12673488404E+02  0.00000000000E+00 0. -1.
<mgrwt>
<rscale>  0 0.13625565E+03</rscale>
<asrwt>0</asrwt>
<pdfrwt beam="2">  1        1 0.19060827E-02 0.14415509E+03</pdfrwt>
<pdfrwt beam="1">  1       -1 0.23270245E+00 0.14415509E+03</pdfrwt>
<totfact> 0.65469705E+02</totfact>
</mgrwt>
</event>
<event>
 6    1  0.4230786E-006  0.2805557E+03  0.7546771E-02  0.1117251E+00
          1   -1    0    0  501    0  0.00000000000E+00  0.00000000000E+00  0.17211396842E+03  0.17211396842E+03  0.00000000000E+00 0. -1.
         -1   -1    0    0    0  501 -0.00000000000E+00 -0.00000000000E+00 -0.41716792268E+03  0.41716792268E+03  0.00000000000E+00 0.  1.
          5    1    1    2  502    0 -0.30629095074E+02  0.67316741802E+02 -0.25687867420E+02  0.78432402261E+02  0.47000000000E+01 0. -1.
         -5    1    1    2    0  502 -0.31793950367E+02 -0.18331760220E+03 -0.28285500530E+03  0.33859303386E+03  0.47000000000E+01 0.  1.
        -11    1    1    2    0    0  0.52558810772E+02  0.93677052261E+02  0.34758418996E+01  0.10747046193E+03  0.00000000000E+00 0. -1.
         11    1    1    2    0    0  0.98642346682E+01  0.22323808137E+02  0.60013076571E+02  0.64785993045E+02  0.00000000000E+00 0.  1.
<mgrwt>
<rscale>  0 0.24385527E+03</rscale>
<asrwt>0</asrwt>
<pdfrwt beam="1">  1        1 0.26479072E-01 0.28055572E+03</pdfrwt>
<pdfrwt beam="2">  1       -1 0.64179681E-01 0.28055572E+03</pdfrwt>
<totfact> 0.45439933E+02</totfact>
</mgrwt>
</event>
<event>
 7    1  0.4230786E-006  0.1292418E+03  0.7546771E-02  0.1244955E+00
         -3   -1    0    0    0  501 -0.00000000000E+00  0.00000000000E+00  0.37176276456E+03  0.37176276456E+03  0.00000000000E+00 0.  1.
          3   -1    0    0  501    0  0.00000000000E+00 -0.00000000000E+00 -0.33605685555E+02  0.33605685555E+02  0.00000000000E+00 0. -1.
         23    2    1    2    0    0  0.15909412495E+02  0.28718214946E+02  0.22184973534E+03  0.25675034784E+03  0.12500236306E+03 0.  0.
          5    1    3    3  502    0  0.19708823377E+02 -0.22075588119E+02  0.92228309755E+00  0.29978490886E+02  0.47000000000E+01 0.  1.
         -5    1    3    3    0  502 -0.37994108817E+01  0.50793803065E+02  0.22092745224E+03  0.22677185695E+03  0.47000000000E+01 0.  1.
        -11    1    1    2    0    0 -0.27212132341E+02 -0.85611499854E+01  0.12160726156E+03  0.12490844447E+03  0.00000000000E+00 0.  1.
         11    1    1    2    0    0  0.11302719846E+02 -0.20157064961E+02 -0.52999178906E+01  0.23709657808E+02  0.00000000000E+00 0. -1.
<mgrwt>
<rscale>  0 0.11888061E+03</rscale>
<asrwt>0</asrwt>
<pdfrwt beam="2">  1        3 0.51701057E-02 0.12924177E+03</pdfrwt>
<pdfrwt beam="1">  1       -3 0.57194269E-01 0.12924177E+03</pdfrwt>
<totfact> 0.14975857E+03</totfact>
</mgrwt>
</event>
<event>
 7    1  0.4230786E-006  0.1532058E+03  0.7546771E-02  0.1201893E+00
         -1   -1    0    0    0  501 -0.00000000000E+00  0.00000000000E+00  0.20371139489E+03  0.20371139489E+03  0.00000000000E+00 0.  1.
          1   -1    0    0  501    0  0.00000000000E+00 -0.00000000000E+00 -0.11849387255E+03  0.11849387255E+03  0.00000000000E+00 0. -1.
         23    2    1    2    0    0  0.55959104189E+02  0.82411737145E+02  0.10289739059E+03  0.18455322661E+03  0.11639976246E+03 0.  0.
          5    1    3    3  502    0  0.50420687962E+01  0.57784973395E+01 -0.25206110553E+02  0.26762875377E+02  0.47000000000E+01 0. -1.
         -5    1    3    3    0  502  0.50917035392E+02  0.76633239805E+02  0.12810350115E+03  0.15779035123E+03  0.47000000000E+01 0.  1.
        -11    1    1    2    0    0 -0.27260079164E+02 -0.70488658616E+02 -0.51704985013E+02  0.91570565057E+02  0.00000000000E+00 0. -1.
         11    1    1    2    0    0 -0.28699025024E+02 -0.11923078528E+02  0.34025116757E+02  0.46081475772E+02  0.00000000000E+00 0.  1.
<mgrwt>
<rscale>  0 0.14885008E+03</rscale>
<asrwt>0</asrwt>
<pdfrwt beam="2">  1        1 0.18229827E-01 0.15320581E+03</pdfrwt>
<pdfrwt beam="1">  1       -1 0.31340214E-01 0.15320581E+03</pdfrwt>
<totfact> 0.26591980E+03</totfact>
</mgrwt>
</event>
<event>
 7    1  0.4230786E-006  0.1312759E+03  0.7546771E-02  0.1238959E+00
         -2   -1    0    0    0  501 -0.00000000000E+00  0.00000000000E+00  0.12842028171E+03  0.12842028171E+03  0.00000000000E+00 0.  1.
          2   -1    0    0  501    0  0.00000000000E+00 -0.00000000000E+00 -0.14472971140E+03  0.14472971140E+03  0.00000000000E+00 0. -1.
         23    2    1    2    0    0  0.17750935695E+01  0.40085425252E+02  0.63150341080E+02  0.14567544025E+03  0.12499350398E+03 0.  0.
          5    1    3    3  502    0 -0.36528925408E+02  0.62010069799E+02  0.70302863816E+02  0.10071838863E+03  0.47000000000E+01 0. -1.
         -5    1    3    3    0  502  0.38304018977E+02 -0.21924644547E+02 -0.71525227355E+01  0.44957051614E+02  0.47000000000E+01 0. -1.
        -11    1    1    2    0    0 -0.19771089093E+02 -0.65238125441E+02 -0.60872510826E+02  0.91391310031E+02  0.00000000000E+00 0.  1.
         11    1    1    2    0    0  0.17995995523E+02  0.25152700189E+02 -0.18587259943E+02  0.36083242840E+02  0.00000000000E+00 0. -1.
<mgrwt>
<rscale>  0 0.12254335E+03</rscale>
<asrwt>0</asrwt>
<pdfrwt beam="2">  1        2 0.22266109E-01 0.13127592E+03</pdfrwt>
<pdfrwt beam="1">  1       -2 0.19756966E-01 0.13127592E+03</pdfrwt>
<totfact> 0.50170141E+03</totfact>
</mgrwt>
</event>
<event>
 7    1  0.4230786E-006  0.1396533E+03  0.7546771E-02  0.1227364E+00
          1   -1    0    0  501    0  0.00000000000E+00  0.00000000000E+00  0.19198866420E+02  0.19198866420E+02  0.00000000000E+00 0. -1.
         -1   -1    0    0    0  501 -0.00000000000E+00 -0.00000000000E+00 -0.78267864241E+03  0.78267864241E+03  0.00000000000E+00 0.  1.
         23    2    1    2    0    0 -0.13972368432E+02  0.60699293119E+02 -0.45953763735E+03  0.48028937730E+03  0.12499365799E+03 0.  0.
          5    1    3    3  502    0  0.51503267960E+01  0.97450013217E+02 -0.30831734502E+03  0.32342650816E+03  0.47000000000E+01 0.  1.
         -5    1    3    3    0  502 -0.19122695228E+02 -0.36750720098E+02 -0.15122029233E+03  0.15686286914E+03  0.47000000000E+01 0.  1.
        -11    1    1    2    0    0  0.34979775982E+02 -0.32132909353E+02 -0.26373789478E+03  0.26798094286E+03  0.00000000000E+00 0.  1.
         11    1    1    2    0    0 -0.21007407550E+02 -0.28566383766E+02 -0.40204243857E+02  0.53607188674E+02  0.00000000000E+00 0. -1.
<mgrwt>
<rscale>  0 0.13006194E+03</rscale>
<asrwt>0</asrwt>
<pdfrwt beam="1">  1        1 0.29536714E-02 0.13965331E+03</pdfrwt>
<pdfrwt beam="2">  1       -1 0.12041211E+00 0.13965331E+03</pdfrwt>
<totfact> 0.22163854E+03</totfact>
</mgrwt>
</event>
<event>
 7    1  0.4230786E-006  0.2247964E+03  0.7546771E-02  0.1133588E+00
         -2   -1    0    0    0  501 -0.00000000000E+00  0.00000000000E+00  0.59912039119E+02  0.59912039119E+02  0.00000000000E+00 0.  1.
          2   -1    0    0  501    0  0.00000000000E+00 -0.00000000000E+00 -0.79901510745E+03  0.79901510745E+03  0.00000000000E+00 0. -1.
         23    2    1    2    0    0 -0.16903397110E+03 -0.79593313457E+02 -0.31858878453E+03  0.38991313712E+03  0.12500344771E+03 0.  0.
          5    1    3    3  502    0 -0.51480983949E+02  0.10499809876E+02 -0.19701194492E+02  0.56309544308E+02  0.47000000000E+01 0. -1.
         -5    1    3    3    0  502 -0.11755298716E+03 -0.90093123333E+02 -0.29888759004E+03  0.33360359282E+03  0.47000000000E+01 0. -1.
        -11    1    1    2    0    0  0.82411626106E+02  0.85333386282E+02 -0.27622602431E+03  0.30062315187E+03  0.00000000000E+00 0.  1.
         11    1    1    2    0    0  0.86622344999E+02 -0.57400728250E+01 -0.14428825949E+03  0.16839085758E+03  0.00000000000E+00 0. -1.
<mgrwt>
<rscale>  0 0.22039638E+03</rscale>
<asrwt>0</asrwt>
<pdfrwt beam="2">  1        2 0.12292540E+00 0.22479644E+03</pdfrwt>
<pdfrwt beam="1">  1       -2 0.92172370E-02 0.22479644E+03</pdfrwt>
<totfact> 0.26710615E+03</totfact>
</mgrwt>
</event>
<event>
 7    1  0.4230786E-006  0.1346918E+03  0.7546771E-02  0.1232868E+00
          2   -1    0    0  501    0  0.00000000000E+00  0.00000000000E+00  0.23016271615E+03  0.23016271615E+03  0.00000000000E+00 0. -1.
         -2   -1    0    0    0  501 -0.00000000000E+00 -0.00000000000E+00 -0.64344408219E+02  0.64344408219E+02  0.00000000000E+00 0.  1.
         23    2    1    2    0    0  0.60731136250E+01  0.49795244143E+02  0.66071739800E+02  0.15002454448E+03  0.12500176038E+03 0.  0.
          5    1    3    3  502    0  0.64138151397E+01  0.17339214659E+02 -0.37126504091E+02  0.41740300618E+02  0.47000000000E+01 0.  1.
         -5    1    3    3    0  502 -0.34070151477E+00  0.32456029484E+02  0.10319824389E+03  0.10828424387E+03  0.47000000000E+01 0.  1.
        -11    1    1    2    0    0  0.30997495244E+02 -0.54128225865E+02  0.40204851843E+02  0.74210104827E+02  0.00000000000E+00 0.  1.
         11    1    1    2    0    0 -0.37070608869E+02  0.43329817219E+01  0.59541716289E+02  0.70272475061E+02  0.00000000000E+00 0. -1.
<mgrwt>
<rscale>  0 0.12641913E+03</rscale>
<asrwt>0</asrwt>
<pdfrwt beam="1">  1        2 0.35409648E-01 0.13469183E+03</pdfrwt>
<pdfrwt beam="2">  1       -2 0.98991398E-02 0.13469183E+03</pdfrwt>
<totfact> 0.93050845E+03</totfact>
</mgrwt>
</event>
<event>
 7    1  0.4230786E-006  0.1370819E+03  0.7546771E-02  0.1230622E+00
         -1   -1    0    0    0  501 -0.00000000000E+00  0.00000000000E+00  0.10510447209E+02  0.10510447209E+02  0.00000000000E+00 0.  1.
          1   -1    0    0  501    0  0.00000000000E+00 -0.00000000000E+00 -0.14286473356E+04  0.14286473356E+04  0.00000000000E+00 0. -1.
         23    2    1    2    0    0  0.40394783245E+02  0.39150858595E+02 -0.93422434662E+03  0.94422802621E+03  0.12500762942E+03 0.  0.
          5    1    3    3  502    0  0.23825077140E+02 -0.15561401206E+02 -0.46950013802E+02  0.55101590759E+02  0.47000000000E+01 0. -1.
         -5    1    3    3    0  502  0.16569706105E+02  0.54712259801E+02 -0.88727433282E+03  0.88912643545E+03  0.47000000000E+01 0. -1.
        -11    1    1    2    0    0 -0.68279574145E+02 -0.28087171113E+02 -0.34008555612E+03  0.34800743513E+03  0.00000000000E+00 0.  1.
         11    1    1    2    0    0  0.27884790901E+02 -0.11063687482E+02 -0.14382698565E+03  0.14692232147E+03  0.00000000000E+00 0. -1.
<mgrwt>
<rscale>  0 0.12788896E+03</rscale>
<asrwt>0</asrwt>
<pdfrwt beam="2">  1        1 0.21979182E+00 0.13708186E+03</pdfrwt>
<pdfrwt beam="1">  1       -1 0.16169925E-02 0.13708186E+03</pdfrwt>
<totfact> 0.72990932E+03</totfact>
</mgrwt>
</event>
<event>
 7    1  0.4230786E-006  0.1424955E+03  0.7546771E-02  0.1220612E+00
         -2   -1    0    0    0  501 -0.00000000000E+00  0.00000000000E+00  0.10595801929E+03  0.10595801929E+03  0.00000000000E+00 0.  1.
          2   -1    0    0  501    0  0.00000000000E+00 -0.00000000000E+00 -0.21016790304E+03  0.21016790304E+03  0.00000000000E+00 0. -1.
         23    2    1    2    0    0 -0.29338365609E+02 -0.61813609630E+02  0.24171299872E+02  0.14453106575E+03  0.12499326061E+03 0.  0.
          5    1    3    3  502    0 -0.76045840415E+02 -0.36877671168E+02 -0.32717523509E+01  0.84709662014E+02  0.47000000000E+01 0. -1.
         -5    1    3    3    0  502  0.46707474806E+02 -0.24935938462E+02  0.27443052223E+02  0.59821403737E+02  0.47000000000E+01 0. -1.
        -11    1    1    2    0    0 -0.18023870821E+02 -0.64677087972E+01 -0.63036436037E+02  0.65880827595E+02  0.00000000000E+00 0. -1.
         11    1    1    2    0    0  0.47362236429E+02  0.68281318427E+02 -0.65344747586E+02  0.10571402898E+03  0.00000000000E+00 0.  1.
<mgrwt>
<rscale>  0 0.13472228E+03</rscale>
<asrwt>0</asrwt>
<pdfrwt beam="2">  1        2 0.32333523E-01 0.14249553E+03</pdfrwt>
<pdfrwt beam="1">  1       -2 0.16301234E-01 0.14249553E+03</pdfrwt>
<totfact> 0.46178007E+03</totfact>
</mgrwt>
</event>
<event>
 7    1  0.4230786E-006  0.1510989E+03  0.7546771E-02  0.1208057E+00
          2   -1    0    0  501    0  0.00000000000E+00  0.00000000000E+00  0.27051050653E+03  0.27051050653E+03  0.00000000000E+00 0. -1.
         -2   -1    0    0    0  501 -0.00000000000E+00 -0.00000000000E+00 -0.85934210232E+02  0.85934210232E+02  0.00000000000E+00 0.  1.
         23    2    1    2    0    0  0.78314681209E+02 -0.32774770548E+02  0.23691299321E+02  0.15294492140E+03  0.12499398563E+03 0.  0.
          5    1    3    3  502    0  0.10953950707E+03 -0.19805955290E+02  0.38051744103E-01  0.11141485952E+03  0.47000000000E+01 0. -1.
         -5    1    3    3    0  502 -0.31224825861E+02 -0.12968815258E+02  0.23653247577E+02  0.41530061884E+02  0.47000000000E+01 0. -1.
        -11    1    1    2    0    0 -0.48107370441E+02 -0.27422781926E+02  0.90382600548E+02  0.10599689873E+03  0.00000000000E+00 0. -1.
         11    1    1    2    0    0 -0.30207310768E+02  0.60197552473E+02  0.70502396428E+02  0.97502896622E+02  0.00000000000E+00 0.  1.
<mgrwt>
<rscale>  0 0.14399122E+03</rscale>
<asrwt>0</asrwt>
<pdfrwt beam="1">  1        2 0.41617001E-01 0.15109888E+03</pdfrwt>
<pdfrwt beam="2">  1       -2 0.13220648E-01 0.15109888E+03</pdfrwt>
<totfact> 0.49781070E+03</totfact>
</mgrwt>
</event>
<event>
 7    1  0.4230786E-006  0.1741319E+03  0.7546771E-02  0.1179822E+00
         -3   -1    0    0    0  501 -0.00000000000E+00  0.00000000000E+00  0.25846292253E+03  0.25846292253E+03  0.00000000000E+00 0.  1.
          3   -1    0    0  501    0  0.00000000000E+00 -0.00000000000E+00 -0.11159515108E+03  0.11159515108E+03  0.00000000000E+00 0. -1.
         23    2    1    2    0    0  0.99389783878E+02 -0.69416496089E+02  0.13103563464E+03  0.21792716060E+03  0.12499972285E+03 0.  0.
          5    1    3    3  502    0  0.17778891690E+02 -0.73120378404E+02  0.16531280971E+02  0.77188418679E+02  0.47000000000E+01 0.  1.
         -5    1    3    3    0  502  0.81610892188E+02  0.37038823148E+01  0.11450435367E+03  0.14073874192E+03  0.47000000000E+01 0.  1.
        -11    1    1    2    0    0 -0.57314568095E+02  0.10223184414E+02 -0.30760839514E+02  0.65846051234E+02  0.00000000000E+00 0.  1.
         11    1    1    2    0    0 -0.42075215782E+02  0.59193311675E+02  0.46592976320E+02  0.86284861781E+02  0.00000000000E+00 0. -1.
<mgrwt>
<rscale>  0 0.16812098E+03</rscale>
<asrwt>0</asrwt>
<pdfrwt beam="2">  1        3 0.17168485E-01 0.17413187E+03</pdfrwt>
<pdfrwt beam="1">  1       -3 0.39763527E-01 0.17413187E+03</pdfrwt>
<totfact> 0.44278907E+02</totfact>
</mgrwt>
</event>
<event>
 7    1  0.4230786E-006  0.1393544E+03  0.7546771E-02  0.1225961E+00
          1   -1    0    0  501    0  0.00000000000E+00  0.00000000000E+00  0.16897150386E+03  0.16897150386E+03  0.00000000000E+00 0. -1.
         -1   -1    0    0    0  501 -0.00000000000E+00 -0.00000000000E+00 -0.10866912459E+03  0.10866912459E+03  0.00000000000E+00 0.  1.
         23    2    1    2    0    0  0.11242031203E+02  0.60567665364E+02 -0.22113521022E+02  0.14109804329E+03  0.12499929862E+03 0.  0.
          5    1    3    3  502    0  0.60872118070E+02  0.61618252883E+02 -0.48001632257E+00  0.86744130997E+02  0.47000000000E+01 0. -1.
         -5    1    3    3    0  502 -0.49630086866E+02 -0.10505875196E+01 -0.21633504699E+02  0.54353912298E+02  0.47000000000E+01 0. -1.
        -11    1    1    2    0    0 -0.28495582611E+01  0.18533918104E+02 -0.39108563325E+01  0.19155179452E+02  0.00000000000E+00 0.  1.
         11    1    1    2    0    0 -0.83924729423E+01 -0.79101583468E+02  0.86326756626E+02  0.11738740571E+03  0.00000000000E+00 0. -1.
<mgrwt>
<rscale>  0 0.13101233E+03</rscale>
<asrwt>0</asrwt>
<pdfrwt beam="1">  1        1 0.25995616E-01 0.13935440E+03</pdfrwt>
<pdfrwt beam="2">  1       -1 0.16718327E-01 0.13935440E+03</pdfrwt>
<totfact> 0.47081449E+03</totfact>
</mgrwt>
</event>
<event>
 7    1  0.4230786E-006  0.2001773E+03  0.7546771E-02  0.1153847E+00
          2   -1    0    0  501    0  0.00000000000E+00  0.00000000000E+00  0.27716819213E+03  0.27716819213E+03  0.00000000000E+00 0. -1.
         -2   -1    0    0    0  501 -0.00000000000E+00 -0.00000000000E+00 -0.18465086176E+03  0.18465086176E+03  0.00000000000E+00 0.  1.
         23    2    1    2    0    0  0.45844435187E+02  0.14947754566E+03 -0.76363758025E+02  0.21424842630E+03  0.12500286292E+03 0.  0.
          5    1    3    3  502    0  0.22512688932E+02  0.16820240791E+03 -0.67502709356E+02  0.18269531182E+03  0.47000000000E+01 0. -1.
         -5    1    3    3    0  502  0.23331746255E+02 -0.18724862255E+02 -0.88610486695E+01  0.31553114479E+02  0.47000000000E+01 0. -1.
        -11    1    1    2    0    0 -0.60657873770E+02 -0.49167604241E+02  0.57649505032E+02  0.97058211335E+02  0.00000000000E+00 0.  1.
         11    1    1    2    0    0  0.14813438583E+02 -0.10030994142E+03  0.11123158336E+03  0.15051241625E+03  0.00000000000E+00 0. -1.
<mgrwt>
<rscale>  0 0.19520745E+03</rscale>
<asrwt>0</asrwt>
<pdfrwt beam="1">  1        2 0.42641261E-01 0.20017733E+03</pdfrwt>
<pdfrwt beam="2">  1       -2 0.28407825E-01 0.20017733E+03</pdfrwt>
<totfact> 0.13376798E+03</totfact>
</mgrwt>
</event>
<event>
 7    1  0.4230786E-006  0.1187248E+03  0.7546771E-02  0.1276267E+00
          2   -1    0    0  501    0  0.00000000000E+00  0.00000000000E+00  0.22972937091E+03  0.22972937091E+03  0.00000000000E+00 0. -1.
         -2   -1    0    0    0  501 -0.00000000000E+00 -0.00000000000E+00 -0.54131935513E+02  0.54131935513E+02  0.00000000000E+00 0.  1.
         23    2    1    2    0    0 -0.37586313076E+02  0.69442419271E+01  0.26855020329E+02  0.12172418897E+03  0.11240388177E+03 0.  0.
          5    1    3    3  502    0 -0.17241920696E+02 -0.52638413462E+02  0.12498859690E+02  0.56977169942E+02  0.47000000000E+01 0. -1.
         -5    1    3    3    0  502 -0.20344392380E+02  0.59582655389E+02  0.14356160639E+02  0.64747019026E+02  0.47000000000E+01 0.  1.
        -11    1    1    2    0    0  0.36623555219E+02  0.84335697535E+01  0.13880447954E+03  0.14380227201E+03  0.00000000000E+00 0. -1.
         11    1    1    2    0    0  0.96275785652E+00 -0.15377811681E+02  0.99379355251E+01  0.18334845439E+02  0.00000000000E+00 0.  1.
<mgrwt>
<rscale>  0 0.10194052E+03</rscale>
<asrwt>0</asrwt>
<pdfrwt beam="1">  1        2 0.35342980E-01 0.11872483E+03</pdfrwt>
<pdfrwt beam="2">  1       -2 0.83279902E-02 0.11872483E+03</pdfrwt>
<totfact> 0.12077968E+04</totfact>
</mgrwt>
</event>
<event>
 7    1  0.4230786E-006  0.1274542E+03  0.7546771E-02  0.1245585E+00
         -1   -1    0    0    0  501 -0.00000000000E+00  0.00000000000E+00  0.20273447479E+02  0.20273447479E+02  0.00000000000E+00 0.  1.
          1   -1    0    0  501    0  0.00000000000E+00 -0.00000000000E+00 -0.61327230366E+03  0.61327230366E+03  0.00000000000E+00 0. -1.
         23    2    1    2    0    0  0.24789622536E+02 -0.22204601210E+01 -0.32297211947E+03  0.34721113997E+03  0.12500051974E+03 0.  0.
          5    1    3    3  502    0  0.56531960718E+02  0.41312396835E+02 -0.14303606295E+03  0.15932351370E+03  0.47000000000E+01 0. -1.
         -5    1    3    3    0  502 -0.31742338182E+02 -0.43532856956E+02 -0.17993605653E+03  0.18788762627E+03  0.47000000000E+01 0. -1.
        -11    1    1    2    0    0 -0.33584870855E+02  0.41897380353E+02 -0.17296154083E+03  0.18110502101E+03  0.00000000000E+00 0. -1.
         11    1    1    2    0    0  0.87952483192E+01 -0.39676920232E+02 -0.97065195887E+02  0.10522959016E+03  0.00000000000E+00 0.  1.
<mgrwt>
<rscale>  0 0.11850455E+03</rscale>
<asrwt>0</asrwt>
<pdfrwt beam="2">  1        1 0.94349600E-01 0.12745425E+03</pdfrwt>
<pdfrwt beam="1">  1       -1 0.31189914E-02 0.12745425E+03</pdfrwt>
<totfact> 0.11524907E+04</totfact>
</mgrwt>
</event>
<event>
 7    1  0.4230786E-006  0.1408998E+03  0.7546771E-02  0.1228337E+00
         -1   -1    0    0    0  501 -0.00000000000E+00  0.00000000000E+00  0.23791214122E+04  0.23791214122E+04  0.00000000000E+00 0.  1.
          1   -1    0    0  501    0  0.00000000000E+00 -0.00000000000E+00 -0.10374271352E+02  0.10374271352E+02  0.00000000000E+00 0. -1.
         23    2    1    2    0    0 -0.51866213947E+02  0.39205460120E+02  0.20614090881E+04  0.20662188150E+04  0.12500236245E+03 0.  0.
          5    1    3    3  502    0  0.16827505871E+02 -0.23653327974E+02  0.10778070019E+04  0.10782080820E+04  0.47000000000E+01 0.  1.
         -5    1    3    3    0  502 -0.68693719818E+02  0.62858788094E+02  0.98360208627E+03  0.98801073299E+03  0.47000000000E+01 0.  1.
        -11    1    1    2    0    0  0.38217536196E+02  0.66880901329E+01  0.22252493535E+03  0.22588195473E+03  0.00000000000E+00 0.  1.
         11    1    1    2    0    0  0.13648677751E+02 -0.45893550253E+02  0.84813117417E+02  0.97394913856E+02  0.00000000000E+00 0. -1.
<mgrwt>
<rscale>  0 0.12940778E+03</rscale>
<asrwt>0</asrwt>
<pdfrwt beam="2">  1        1 0.15960436E-02 0.14089983E+03</pdfrwt>
<pdfrwt beam="1">  1       -1 0.36601825E+00 0.14089983E+03</pdfrwt>
<totfact> 0.12450592E+02</totfact>
</mgrwt>
</event>
<event>
 7    1  0.4230786E-006  0.1658092E+03  0.7546771E-02  0.1189398E+00
          1   -1    0    0  501    0  0.00000000000E+00  0.00000000000E+00  0.38344655711E+03  0.38344655711E+03  0.00000000000E+00 0. -1.
         -1   -1    0    0    0  501 -0.00000000000E+00 -0.00000000000E+00 -0.70729029585E+02  0.70729029585E+02  0.00000000000E+00 0.  1.
         23    2    1    2    0    0  0.42208640155E+02  0.10042218942E+03  0.85711706861E+02  0.18665254540E+03  0.12500596217E+03 0.  0.
          5    1    3    3  502    0 -0.42564998619E+02  0.54116217733E+02  0.38703704093E+02  0.79122758039E+02  0.47000000000E+01 0.  1.
         -5    1    3    3    0  502  0.84773638775E+02  0.46305971689E+02  0.47008002768E+02  0.10752978736E+03  0.47000000000E+01 0.  1.
        -11    1    1    2    0    0  0.89574692088E+01 -0.38609767544E+02  0.17785166379E+02  0.43442635136E+02  0.00000000000E+00 0.  1.
         11    1    1    2    0    0 -0.51166109364E+02 -0.61812421878E+02  0.20922065428E+03  0.22408040616E+03  0.00000000000E+00 0. -1.
<mgrwt>
<rscale>  0 0.15938054E+03</rscale>
<asrwt>0</asrwt>
<pdfrwt beam="1">  1        1 0.58991776E-01 0.16580916E+03</pdfrwt>
<pdfrwt beam="2">  1       -1 0.10881389E-01 0.16580916E+03</pdfrwt>
<totfact> 0.33420826E+03</totfact>
</mgrwt>
</event>
<event>
 7    1  0.4230786E-006  0.1338001E+03  0.7546771E-02  0.1232371E+00
         -2   -1    0    0    0  501 -0.00000000000E+00  0.00000000000E+00  0.37437796193E+02  0.37437796193E+02  0.00000000000E+00 0. -1.
          2   -1    0    0  501    0  0.00000000000E+00 -0.00000000000E+00 -0.40773019073E+03  0.40773019073E+03  0.00000000000E+00 0.  1.
         23    2    1    2    0    0 -0.23394793281E+02 -0.41609440808E+02 -0.15749769332E+03  0.20665910810E+03  0.12499520647E+03 0.  0.
          5    1    3    3  502    0  0.44400488359E+02 -0.76361390963E+01 -0.19892463120E+02  0.49472356683E+02  0.47000000000E+01 0. -1.
         -5    1    3    3    0  502 -0.67795281640E+02 -0.33973301711E+02 -0.13760523020E+03  0.15718675141E+03  0.47000000000E+01 0. -1.
        -11    1    1    2    0    0  0.21564927919E+02  0.67679137751E+02 -0.99585936376E+02  0.12232281278E+03  0.00000000000E+00 0. -1.
         11    1    1    2    0    0  0.18298653615E+01 -0.26069696943E+02 -0.11320876484E+03  0.11618606604E+03  0.00000000000E+00 0.  1.
<mgrwt>
<rscale>  0 0.12674256E+03</rscale>
<asrwt>0</asrwt>
<pdfrwt beam="2">  1        2 0.62727722E-01 0.13380009E+03</pdfrwt>
<pdfrwt beam="1">  1       -2 0.57596609E-02 0.13380009E+03</pdfrwt>
<totfact> 0.11655047E+04</totfact>
</mgrwt>
</event>
<event>
 7    1  0.4230786E-006  0.1293280E+03  0.7546771E-02  0.1247807E+00
          4   -1    0    0  501    0  0.00000000000E+00  0.00000000000E+00  0.47512068671E+02  0.47512068671E+02  0.00000000000E+00 0. -1.
         -4   -1    0    0    0  501 -0.00000000000E+00 -0.00000000000E+00 -0.32127476881E+03  0.32127476881E+03  0.00000000000E+00 0.  1.
         23    2    1    2    0    0 -0.17407639972E+02  0.28278443509E+02 -0.24488581493E+03  0.27693825157E+03  0.12499214589E+03 0.  0.
          5    1    3    3  502    0 -0.16910280403E+02  0.27997283504E+02 -0.10541787679E+01  0.33060652743E+02  0.47000000000E+01 0.  1.
         -5    1    3    3    0  502 -0.49735956843E+00  0.28116000532E+00 -0.24383163616E+03  0.24387759883E+03  0.47000000000E+01 0.  1.
        -11    1    1    2    0    0 -0.25257944531E+00  0.25900536862E+02 -0.22860733556E+02  0.34547282741E+02  0.00000000000E+00 0.  1.
         11    1    1    2    0    0  0.17660219417E+02 -0.54178980371E+02 -0.60161516529E+01  0.57301303167E+02  0.00000000000E+00 0. -1.
<mgrwt>
<rscale>  0 0.11718917E+03</rscale>
<asrwt>0</asrwt>
<pdfrwt beam="1">  1        4 0.73095491E-02 0.12932800E+03</pdfrwt>
<pdfrwt beam="2">  1       -4 0.49426887E-01 0.12932800E+03</pdfrwt>
<totfact> 0.83429532E+02</totfact>
</mgrwt>
</event>
<event>
 7    1  0.4230786E-006  0.1364051E+03  0.7546771E-02  0.1231568E+00
         -1   -1    0    0    0  501 -0.00000000000E+00  0.00000000000E+00  0.11119425978E+02  0.11119425978E+02  0.00000000000E+00 0.  1.
          1   -1    0    0  501    0  0.00000000000E+00 -0.00000000000E+00 -0.12935921498E+04  0.12935921498E+04  0.00000000000E+00 0. -1.
         23    2    1    2    0    0 -0.51996300437E+02  0.16615069324E+02 -0.71117281183E+03  0.72413611970E+03  0.12500670294E+03 0.  0.
          5    1    3    3  502    0  0.14025164020E+02  0.54475653050E+02 -0.38829017582E+03  0.39237182957E+03  0.47000000000E+01 0.  1.
         -5    1    3    3    0  502 -0.66021464457E+02 -0.37860583726E+02 -0.32288263601E+03  0.33176429013E+03  0.47000000000E+01 0.  1.
        -11    1    1    2    0    0  0.23281352603E+01  0.33028957182E+02 -0.17664204258E+03  0.17971851166E+03  0.00000000000E+00 0.  1.
         11    1    1    2    0    0  0.49668165177E+02 -0.49644026506E+02 -0.39465786938E+03  0.40085694439E+03  0.00000000000E+00 0. -1.
<mgrwt>
<rscale>  0 0.12726708E+03</rscale>
<asrwt>0</asrwt>
<pdfrwt beam="2">  1        1 0.19901427E+00 0.13640510E+03</pdfrwt>
<pdfrwt beam="1">  1       -1 0.17106801E-02 0.13640510E+03</pdfrwt>
<totfact> 0.82664020E+03</totfact>
</mgrwt>
</event>
<event>
 7    1  0.4230786E-006  0.1685736E+03  0.7546771E-02  0.1186638E+00
         -2   -1    0    0    0  501 -0.00000000000E+00  0.00000000000E+00  0.93023815655E+02  0.93023815655E+02  0.00000000000E+00 0.  1.
          2   -1    0    0  501    0  0.00000000000E+00 -0.00000000000E+00 -0.38784234409E+03  0.38784234409E+03  0.00000000000E+00 0. -1.
         23    2    1    2    0    0 -0.50975383397E+02 -0.10095546471E+03 -0.18423161303E+02  0.16957738040E+03  0.12500631786E+03 0.  0.
          5    1    3    3  502    0  0.29542791884E+02  0.95630305672E+01 -0.77146238060E+01  0.32339349505E+02  0.47000000000E+01 0.  1.
         -5    1    3    3    0  502 -0.80518175281E+02 -0.11051849528E+03 -0.10708537497E+02  0.13723803090E+03  0.47000000000E+01 0.  1.
        -11    1    1    2    0    0  0.19393759107E+02  0.63226548333E+02 -0.59754538448E+02  0.89130910304E+02  0.00000000000E+00 0.  1.
         11    1    1    2    0    0  0.31581624290E+02  0.37728916376E+02 -0.21664082869E+03  0.22215786904E+03  0.00000000000E+00 0. -1.
<mgrwt>
<rscale>  0 0.16183714E+03</rscale>
<asrwt>0</asrwt>
<pdfrwt beam="2">  1        2 0.59668052E-01 0.16857365E+03</pdfrwt>
<pdfrwt beam="1">  1       -2 0.14311357E-01 0.16857365E+03</pdfrwt>
<totfact> 0.29949462E+03</totfact>
</mgrwt>
</event>
<event>
 7    1  0.4230786E-006  0.3406503E+03  0.7546771E-02  0.1067749E+00
         -1   -1    0    0    0  501 -0.00000000000E+00  0.00000000000E+00  0.15452068010E+03  0.15452068010E+03  0.00000000000E+00 0.  1.
          1   -1    0    0  501    0  0.00000000000E+00 -0.00000000000E+00 -0.75579735810E+03  0.75579735810E+03  0.00000000000E+00 0. -1.
         23    2    1    2    0    0 -0.16329370287E+03  0.27161357759E+03 -0.21537623216E+03  0.40302546986E+03  0.12491532753E+03 0.  0.
          5    1    3    3  502    0 -0.12246830408E+03  0.94409846436E+02 -0.13002883703E+03  0.20209228849E+03  0.47000000000E+01 0.  1.
         -5    1    3    3    0  502 -0.40825398793E+02  0.17720373115E+03 -0.85347395129E+02  0.20093318137E+03  0.47000000000E+01 0.  1.
        -11    1    1    2    0    0  0.91997921574E+02 -0.12101235854E+03 -0.12075387535E+03  0.19413682522E+03  0.00000000000E+00 0.  1.
         11    1    1    2    0    0  0.71295781294E+02 -0.15060121905E+03 -0.26514657049E+03  0.31315574312E+03  0.00000000000E+00 0. -1.
<mgrwt>
<rscale>  0 0.33777191E+03</rscale>
<asrwt>0</asrwt>
<pdfrwt beam="2">  1        1 0.11627652E+00 0.34065027E+03</pdfrwt>
<pdfrwt beam="1">  1       -1 0.23772412E-01 0.34065027E+03</pdfrwt>
<totfact> 0.38114602E+02</totfact>
</mgrwt>
</event>
<event>
 7    1  0.4230786E-006  0.1390186E+03  0.7546771E-02  0.1226562E+00
          3   -1    0    0  501    0  0.00000000000E+00  0.00000000000E+00  0.26253977205E+02  0.26253977205E+02  0.00000000000E+00 0. -1.
         -3   -1    0    0    0  501 -0.00000000000E+00 -0.00000000000E+00 -0.83181176409E+03  0.83181176409E+03  0.00000000000E+00 0.  1.
         23    2    1    2    0    0 -0.12165601929E+02 -0.59609502974E+02 -0.67145491331E+03  0.68569516948E+03  0.12499948049E+03 0.  0.
          5    1    3    3  502    0 -0.98754687968E+01 -0.89706590439E+02 -0.61408665861E+03  0.62070066178E+03  0.47000000000E+01 0. -1.
         -5    1    3    3    0  502 -0.22901331322E+01  0.30097087465E+02 -0.57368254698E+02  0.64994507697E+02  0.47000000000E+01 0. -1.
        -11    1    1    2    0    0  0.19235670125E+02  0.19045827375E+02 -0.12789709044E+03  0.13073033423E+03  0.00000000000E+00 0.  1.
         11    1    1    2    0    0 -0.70700681957E+01  0.40563675599E+02 -0.62057831444E+01  0.41640237593E+02  0.00000000000E+00 0. -1.
<mgrwt>
<rscale>  0 0.13060439E+03</rscale>
<asrwt>0</asrwt>
<pdfrwt beam="1">  1        3 0.40390733E-02 0.13901858E+03</pdfrwt>
<pdfrwt beam="2">  1       -3 0.12797104E+00 0.13901858E+03</pdfrwt>
<totfact> 0.37837118E+02</totfact>
</mgrwt>
</event>
<event>
 7    1  0.4230786E-006  0.1392721E+03  0.7546771E-02  0.1224259E+00
         -2   -1    0    0    0  501 -0.00000000000E+00  0.00000000000E+00  0.20605717066E+02  0.20605717066E+02  0.00000000000E+00 0.  1.
          2   -1    0    0  501    0  0.00000000000E+00 -0.00000000000E+00 -0.77347274457E+03  0.77347274457E+03  0.00000000000E+00 0. -1.
         23    2    1    2    0    0  0.48266538210E+02  0.37967939785E+02 -0.39885713949E+03  0.42247335291E+03  0.12500197215E+03 0.  0.
          5    1    3    3  502    0  0.83808972883E+02  0.51171663014E+02 -0.24605575543E+03  0.26496793732E+03  0.47000000000E+01 0.  1.
         -5    1    3    3    0  502 -0.35542434673E+02 -0.13203723229E+02 -0.15280138406E+03  0.15750541559E+03  0.47000000000E+01 0.  1.
        -11    1    1    2    0    0 -0.18210788856E+02  0.32009648170E+02 -0.11355444388E+03  0.11937697489E+03  0.00000000000E+00 0. -1.
         11    1    1    2    0    0 -0.30055749354E+02 -0.69977587955E+02 -0.24045544413E+03  0.25222813384E+03  0.00000000000E+00 0.  1.
<mgrwt>
<rscale>  0 0.13217846E+03</rscale>
<asrwt>0</asrwt>
<pdfrwt beam="2">  1        2 0.11899583E+00 0.13927209E+03</pdfrwt>
<pdfrwt beam="1">  1       -2 0.31701098E-02 0.13927209E+03</pdfrwt>
<totfact> 0.13804269E+04</totfact>
</mgrwt>
</event>
<event>
 7    1  0.4230786E-006  0.1601825E+03  0.7546771E-02  0.1196070E+00
          1   -1    0    0  501    0  0.00000000000E+00  0.00000000000E+00  0.23321128266E+03  0.23321128266E+03  0.00000000000E+00 0.  1.
         -1   -1    0    0    0  501 -0.00000000000E+00 -0.00000000000E+00 -0.14553334368E+03  0.14553334368E+03  0.00000000000E+00 0. -1.
         23    2    1    2    0    0  0.91078841059E+02  0.41694295934E+02 -0.66499666829E+02  0.17343770939E+03  0.12499865499E+03 0.  0.
          5    1    3    3  502    0  0.45612642498E+02  0.84740964237E+02 -0.30509496007E+02  0.10106662912E+03  0.47000000000E+01 0. -1.
         -5    1    3    3    0  502  0.45466198561E+02 -0.43046668303E+02 -0.35990170822E+02  0.72371080269E+02  0.47000000000E+01 0. -1.
        -11    1    1    2    0    0 -0.38321466928E+02 -0.59470942484E+02  0.12193240657E+03  0.14097105944E+03  0.00000000000E+00 0.  1.
         11    1    1    2    0    0 -0.52757374130E+02  0.17776646551E+02  0.32245199242E+02  0.64335857512E+02  0.00000000000E+00 0. -1.
<mgrwt>
<rscale>  0 0.15364027E+03</rscale>
<asrwt>0</asrwt>
<pdfrwt beam="1">  1        1 0.35878659E-01 0.16018250E+03</pdfrwt>
<pdfrwt beam="2">  1       -1 0.22389745E-01 0.16018250E+03</pdfrwt>
<totfact> 0.19838268E+03</totfact>
</mgrwt>
</event>
<event>
 7    1  0.4230786E-006  0.3005019E+03  0.7546771E-02  0.1086630E+00
          2   -1    0    0  501    0  0.00000000000E+00  0.00000000000E+00  0.88446102839E+03  0.88446102839E+03  0.00000000000E+00 0. -1.
         -2   -1    0    0    0  501 -0.00000000000E+00 -0.00000000000E+00 -0.98508002056E+02  0.98508002056E+02  0.00000000000E+00 0.  1.
         23    2    1    2    0    0  0.19018793312E+03 -0.19622740497E+03  0.35923855822E+03  0.46835213750E+03  0.12499895448E+03 0.  0.
          5    1    3    3  502    0  0.82213452635E+02 -0.43087441745E+02  0.20690349480E+03  0.22681870644E+03  0.47000000000E+01 0. -1.
         -5    1    3    3    0  502  0.10797448048E+03 -0.15313996323E+03  0.15233506343E+03  0.24153343106E+03  0.47000000000E+01 0. -1.
        -11    1    1    2    0    0 -0.69646749384E+02  0.10976023119E+03  0.13536351129E+03  0.18767327524E+03  0.00000000000E+00 0.  1.
         11    1    1    2    0    0 -0.12054118373E+03  0.86467173783E+02  0.29135095682E+03  0.32694361771E+03  0.00000000000E+00 0. -1.
<mgrwt>
<rscale>  0 0.29723731E+03</rscale>
<asrwt>0</asrwt>
<pdfrwt beam="1">  1        2 0.13607092E+00 0.30050189E+03</pdfrwt>
<pdfrwt beam="2">  1       -2 0.15155078E-01 0.30050189E+03</pdfrwt>
<totfact> 0.10476152E+03</totfact>
</mgrwt>
</event>
<event>
 7    1  0.4230786E-006  0.1593172E+03  0.7546771E-02  0.1194477E+00
          1   -1    0    0  501    0  0.00000000000E+00  0.00000000000E+00  0.31055805947E+02  0.31055805947E+02  0.00000000000E+00 0. -1.
         -1   -1    0    0    0  501 -0.00000000000E+00 -0.00000000000E+00 -0.73832542470E+03  0.73832542470E+03  0.00000000000E+00 0.  1.
         23    2    1    2    0    0 -0.92609959985E+01  0.98329962761E+02 -0.40169791526E+03  0.43213791611E+03  0.12500966281E+03 0.  0.
          5    1    3    3  502    0  0.57479204270E+02  0.42331041268E+02 -0.19863255093E+03  0.21112260956E+03  0.47000000000E+01 0.  1.
         -5    1    3    3    0  502 -0.66740200268E+02  0.55998921493E+02 -0.20306536432E+03  0.22101530655E+03  0.47000000000E+01 0.  1.
        -11    1    1    2    0    0 -0.45078468048E+02 -0.28394797168E+02 -0.13296935464E+03  0.14324518164E+03  0.00000000000E+00 0. -1.
         11    1    1    2    0    0  0.54339464046E+02 -0.69935165594E+02 -0.17260234885E+03  0.19399813290E+03  0.00000000000E+00 0.  1.
<mgrwt>
<rscale>  0 0.15498565E+03</rscale>
<asrwt>0</asrwt>
<pdfrwt beam="1">  1        1 0.47778159E-02 0.15931718E+03</pdfrwt>
<pdfrwt beam="2">  1       -1 0.11358854E+00 0.15931718E+03</pdfrwt>
<totfact> 0.13138277E+03</totfact>
</mgrwt>
</event>
<event>
 7    1  0.4230786E-006  0.1485149E+03  0.7546771E-02  0.1211895E+00
          2   -1    0    0  501    0  0.00000000000E+00  0.00000000000E+00  0.74895501455E+03  0.74895501455E+03  0.00000000000E+00 0.  1.
         -2   -1    0    0    0  501 -0.00000000000E+00 -0.00000000000E+00 -0.25559623421E+02  0.25559623421E+02  0.00000000000E+00 0. -1.
         23    2    1    2    0    0  0.46477550278E+02 -0.65355830181E+02  0.30893360465E+03  0.34277782584E+03  0.12500047436E+03 0.  0.
          5    1    3    3  502    0 -0.19877389244E+02 -0.76276723181E+01  0.28186479893E+00  0.21805078214E+02  0.47000000000E+01 0. -1.
         -5    1    3    3    0  502  0.66354939522E+02 -0.57728157863E+02  0.30865173985E+03  0.32097274763E+03  0.47000000000E+01 0. -1.
        -11    1    1    2    0    0  0.20115694334E+02  0.77463583268E+01  0.27813017233E+02  0.35188224642E+02  0.00000000000E+00 0. -1.
         11    1    1    2    0    0 -0.66593244611E+02  0.57609471854E+02  0.38664876925E+03  0.39654858749E+03  0.00000000000E+00 0.  1.
<mgrwt>
<rscale>  0 0.14107135E+03</rscale>
<asrwt>0</asrwt>
<pdfrwt beam="1">  1        2 0.11522383E+00 0.14851487E+03</pdfrwt>
<pdfrwt beam="2">  1       -2 0.39322503E-02 0.14851487E+03</pdfrwt>
<totfact> 0.10480625E+04</totfact>
</mgrwt>
</event>
<event>
 7    1  0.4230786E-006  0.1558715E+03  0.7546771E-02  0.1202332E+00
         -4   -1    0    0    0  501 -0.00000000000E+00  0.00000000000E+00  0.10203571708E+04  0.10203571708E+04  0.00000000000E+00 0.  1.
          4   -1    0    0  501    0  0.00000000000E+00 -0.00000000000E+00 -0.23954618032E+02  0.23954618032E+02  0.00000000000E+00 0. -1.
         23    2    1    2    0    0 -0.76792349156E+02  0.52555042574E+02  0.75461327377E+03  0.77054339397E+03  0.12504731767E+03 0.  0.
          5    1    3    3  502    0 -0.18095301250E+02 -0.33962320637E+02  0.93826655396E+02  0.10152049258E+03  0.47000000000E+01 0.  1.
         -5    1    3    3    0  502 -0.58697047906E+02  0.86517363211E+02  0.66078661837E+03  0.66902290139E+03  0.47000000000E+01 0.  1.
        -11    1    1    2    0    0  0.16787754746E+02 -0.94627536191E+01 -0.16742138197E+01  0.19343614124E+02  0.00000000000E+00 0. -1.
         11    1    1    2    0    0  0.60004594410E+02 -0.43092288955E+02  0.24346349284E+03  0.25442478076E+03  0.00000000000E+00 0.  1.
<mgrwt>
<rscale>  0 0.14849712E+03</rscale>
<asrwt>0</asrwt>
<pdfrwt beam="2">  1        4 0.36853266E-02 0.15587151E+03</pdfrwt>
<pdfrwt beam="1">  1       -4 0.15697799E+00 0.15587151E+03</pdfrwt>
<totfact> 0.18882925E+02</totfact>
</mgrwt>
</event>
<event>
 6    1  0.4230786E-006  0.1547880E+03  0.7546771E-02  0.1206376E+00
          2   -1    0    0  501    0  0.00000000000E+00  0.00000000000E+00  0.29601112273E+03  0.29601112273E+03  0.00000000000E+00 0. -1.
         -2   -1    0    0    0  501 -0.00000000000E+00 -0.00000000000E+00 -0.65216366375E+02  0.65216366375E+02  0.00000000000E+00 0.  1.
          5    1    1    2  502    0 -0.36183254744E+02  0.40495824264E+01  0.12468002693E+03  0.12997240537E+03  0.47000000000E+01 0. -1.
         -5    1    1    2    0  502 -0.35873539567E+02 -0.37730118964E+02 -0.20996138754E+02  0.56332943831E+02  0.47000000000E+01 0.  1.
        -11    1    1    2    0    0 -0.21345954379E+02  0.59272575750E+01  0.17259501877E+02  0.28083314544E+02  0.00000000000E+00 0.  1.
         11    1    1    2    0    0  0.93402748690E+02  0.27753278962E+02  0.10985136630E+03  0.14683882537E+03  0.00000000000E+00 0. -1.
<mgrwt>
<rscale>  0 0.14529515E+03</rscale>
<asrwt>0</asrwt>
<pdfrwt beam="1">  1        2 0.45540172E-01 0.15478803E+03</pdfrwt>
<pdfrwt beam="2">  1       -2 0.10033287E-01 0.15478803E+03</pdfrwt>
<totfact> 0.70344497E+03</totfact>
</mgrwt>
</event>
<event>
 7    1  0.4230786E-006  0.1429824E+03  0.7546771E-02  0.1219410E+00
          2   -1    0    0  501    0  0.00000000000E+00  0.00000000000E+00  0.16499556617E+03  0.16499556617E+03  0.00000000000E+00 0. -1.
         -2   -1    0    0    0  501 -0.00000000000E+00 -0.00000000000E+00 -0.10484116825E+03  0.10484116825E+03  0.00000000000E+00 0.  1.
         23    2    1    2    0    0 -0.50114756629E+02 -0.48038326315E+02  0.84817519984E+01  0.14323376865E+03  0.12499921095E+03 0.  0.
          5    1    3    3  502    0 -0.96890671107E+00 -0.82383399867E+02  0.96179142336E+01  0.83081632315E+02  0.47000000000E+01 0.  1.
         -5    1    3    3    0  502 -0.49145849918E+02  0.34345073553E+02 -0.11361622352E+01  0.60152136339E+02  0.47000000000E+01 0.  1.
        -11    1    1    2    0    0 -0.20074926115E+02  0.86551994547E+01 -0.11115331155E+02  0.24524798120E+02  0.00000000000E+00 0.  1.
         11    1    1    2    0    0  0.70189682744E+02  0.39383126860E+02  0.62787977076E+02  0.10207816765E+03  0.00000000000E+00 0. -1.
<mgrwt>
<rscale>  0 0.13557533E+03</rscale>
<asrwt>0</asrwt>
<pdfrwt beam="1">  1        2 0.25383933E-01 0.14298242E+03</pdfrwt>
<pdfrwt beam="2">  1       -2 0.16129410E-01 0.14298242E+03</pdfrwt>
<totfact> 0.61185095E+03</totfact>
</mgrwt>
</event>
<event>
 7    1  0.4230786E-006  0.2072019E+03  0.7546771E-02  0.1145599E+00
         -2   -1    0    0    0  501 -0.00000000000E+00  0.00000000000E+00  0.10206205949E+03  0.10206205949E+03  0.00000000000E+00 0.  1.
          2   -1    0    0  501    0  0.00000000000E+00 -0.00000000000E+00 -0.41586789746E+03  0.41586789746E+03  0.00000000000E+00 0. -1.
         23    2    1    2    0    0  0.16030445935E+03 -0.40159826579E+02 -0.11487206608E+03  0.23691396746E+03  0.12498921975E+03 0.  0.
          5    1    3    3  502    0 -0.20381724535E+02  0.32245749954E+01 -0.90134875147E+01  0.23003163611E+02  0.47000000000E+01 0. -1.
         -5    1    3    3    0  502  0.18068618389E+03 -0.43384401574E+02 -0.10585857857E+03  0.21391080385E+03  0.47000000000E+01 0. -1.
        -11    1    1    2    0    0 -0.13105541200E+03  0.69305716981E+02 -0.11553548892E+03  0.18795545382E+03  0.00000000000E+00 0.  1.
         11    1    1    2    0    0 -0.29249047346E+02 -0.29145890402E+02 -0.83398282958E+02  0.93060535665E+02  0.00000000000E+00 0. -1.
<mgrwt>
<rscale>  0 0.20498682E+03</rscale>
<asrwt>0</asrwt>
<pdfrwt beam="2">  1        2 0.63979677E-01 0.20720192E+03</pdfrwt>
<pdfrwt beam="1">  1       -2 0.15701855E-01 0.20720192E+03</pdfrwt>
<totfact> 0.24008240E+03</totfact>
</mgrwt>
</event>
<event>
 7    1  0.4230786E-006  0.1272546E+03  0.7546771E-02  0.1245417E+00
          2   -1    0    0  501    0  0.00000000000E+00  0.00000000000E+00  0.57050553093E+03  0.57050553093E+03  0.00000000000E+00 0. -1.
         -2   -1    0    0    0  501 -0.00000000000E+00 -0.00000000000E+00 -0.29634710945E+02  0.29634710945E+02  0.00000000000E+00 0.  1.
         23    2    1    2    0    0 -0.20635471891E+02 -0.11940869195E+02  0.14560018693E+03  0.19337311034E+03  0.12500135324E+03 0.  0.
          5    1    3    3  502    0 -0.42424107918E+01 -0.44037471037E+01 -0.22735510512E+02  0.24008008583E+02  0.47000000000E+01 0.  1.
         -5    1    3    3    0  502 -0.16393061099E+02 -0.75371220918E+01  0.16833569744E+03  0.16936510176E+03  0.47000000000E+01 0.  1.
        -11    1    1    2    0    0  0.11019395964E+02 -0.40873958191E+02  0.17171929901E+03  0.17686046816E+03  0.00000000000E+00 0.  1.
         11    1    1    2    0    0  0.96160759266E+01  0.52814827386E+02  0.22355133405E+03  0.22990666337E+03  0.00000000000E+00 0. -1.
<mgrwt>
<rscale>  0 0.11860426E+03</rscale>
<asrwt>0</asrwt>
<pdfrwt beam="1">  1        2 0.87770073E-01 0.12725465E+03</pdfrwt>
<pdfrwt beam="2">  1       -2 0.45591867E-02 0.12725465E+03</pdfrwt>
<totfact> 0.11429162E+04</totfact>
</mgrwt>
</event>
<event>
 7    1  0.4230786E-006  0.2626803E+03  0.7546771E-02  0.1107473E+00
         -2   -1    0    0    0  501 -0.00000000000E+00  0.00000000000E+00  0.38274357985E+03  0.38274357985E+03  0.00000000000E+00 0.  1.
          2   -1    0    0  501    0  0.00000000000E+00 -0.00000000000E+00 -0.26358268019E+03  0.26358268019E+03  0.00000000000E+00 0. -1.
         23    2    1    2    0    0  0.20448362138E+03 -0.10752945151E+03  0.25132011025E+03  0.36354195029E+03  0.12499926982E+03 0.  0.
          5    1    3    3  502    0  0.73365127795E+00  0.20161691631E+02  0.31597190938E+02  0.37782330908E+02  0.47000000000E+01 0. -1.
         -5    1    3    3    0  502  0.20374997010E+03 -0.12769114314E+03  0.21972291931E+03  0.32575961938E+03  0.47000000000E+01 0. -1.
        -11    1    1    2    0    0 -0.14706160095E+03  0.56763373172E+02 -0.13282676162E+03  0.20613622586E+03  0.00000000000E+00 0. -1.
         11    1    1    2    0    0 -0.57422020426E+02  0.50766078337E+02  0.66755103461E+00  0.76648083889E+02  0.00000000000E+00 0.  1.
<mgrwt>
<rscale>  0 0.25945166E+03</rscale>
<asrwt>0</asrwt>
<pdfrwt beam="2">  1        2 0.40551181E-01 0.26268032E+03</pdfrwt>
<pdfrwt beam="1">  1       -2 0.58883628E-01 0.26268032E+03</pdfrwt>
<totfact> 0.34808356E+02</totfact>
</mgrwt>
</event>
<event>
 7    1  0.4230786E-006  0.1378122E+03  0.7546771E-02  0.1228297E+00
          2   -1    0    0  501    0  0.00000000000E+00  0.00000000000E+00  0.55334388402E+02  0.55334388402E+02  0.00000000000E+00 0. -1.
         -2   -1    0    0    0  501 -0.00000000000E+00 -0.00000000000E+00 -0.29475561776E+03  0.29475561776E+03  0.00000000000E+00 0.  1.
         23    2    1    2    0    0  0.55983126029E+02 -0.15364948277E+02 -0.18248287259E+03  0.22867485217E+03  0.12498798818E+03 0.  0.
          5    1    3    3  502    0  0.43670399727E+02  0.40974531308E+02 -0.33335855543E+02  0.68697782300E+02  0.47000000000E+01 0.  1.
         -5    1    3    3    0  502  0.12312726302E+02 -0.56339479585E+02 -0.14914701705E+03  0.15997706986E+03  0.47000000000E+01 0.  1.
        -11    1    1    2    0    0 -0.22949839864E+02  0.35354107619E+02 -0.69094656773E+02  0.80936269187E+02  0.00000000000E+00 0.  1.
         11    1    1    2    0    0 -0.33033286165E+02 -0.19989159342E+02  0.12156300000E+02  0.40478884814E+02  0.00000000000E+00 0. -1.
<mgrwt>
<rscale>  0 0.12943487E+03</rscale>
<asrwt>0</asrwt>
<pdfrwt beam="1">  1        2 0.85129828E-02 0.13781215E+03</pdfrwt>
<pdfrwt beam="2">  1       -2 0.45347018E-01 0.13781215E+03</pdfrwt>
<totfact> 0.35077604E+03</totfact>
</mgrwt>
</event>
<event>
 7    1  0.4230786E-006  0.1802258E+03  0.7546771E-02  0.1173340E+00
          2   -1    0    0  501    0  0.00000000000E+00  0.00000000000E+00  0.26785168889E+03  0.26785168889E+03  0.00000000000E+00 0. -1.
         -2   -1    0    0    0  501 -0.00000000000E+00 -0.00000000000E+00 -0.11621647241E+03  0.11621647241E+03  0.00000000000E+00 0.  1.
         23    2    1    2    0    0 -0.12968586615E+03 -0.60963909534E+01  0.25779135624E+02  0.18206013302E+03  0.12500295332E+03 0.  0.
          5    1    3    3  502    0 -0.15091134588E+03  0.97231289630E+01  0.11799479055E+02  0.15175668440E+03  0.47000000000E+01 0.  1.
         -5    1    3    3    0  502  0.21225479734E+02 -0.15819519916E+02  0.13979656569E+02  0.30303448617E+02  0.47000000000E+01 0.  1.
        -11    1    1    2    0    0  0.48930382374E+02 -0.22581207037E+02  0.53732318385E+01  0.54156854145E+02  0.00000000000E+00 0.  1.
         11    1    1    2    0    0  0.80755483776E+02  0.28677597990E+02  0.12048284902E+03  0.14785117414E+03  0.00000000000E+00 0. -1.
<mgrwt>
<rscale>  0 0.17439520E+03</rscale>
<asrwt>0</asrwt>
<pdfrwt beam="1">  1        2 0.41207952E-01 0.18022577E+03</pdfrwt>
<pdfrwt beam="2">  1       -2 0.17879457E-01 0.18022577E+03</pdfrwt>
<totfact> 0.30870659E+03</totfact>
</mgrwt>
</event>
<event>
 7    1  0.4230786E-006  0.1711518E+03  0.7546771E-02  0.1182998E+00
         -1   -1    0    0    0  501 -0.00000000000E+00  0.00000000000E+00  0.32771189908E+02  0.32771189908E+02  0.00000000000E+00 0.  1.
          1   -1    0    0  501    0  0.00000000000E+00 -0.00000000000E+00 -0.78676180993E+03  0.78676180993E+03  0.00000000000E+00 0. -1.
         23    2    1    2    0    0  0.73624141035E+02  0.90826344719E+02 -0.44431919068E+03  0.47614334177E+03  0.12499199843E+03 0.  0.
          5    1    3    3  502    0  0.42343369281E+02  0.54753066578E+02 -0.69267491564E+02  0.98035374275E+02  0.47000000000E+01 0. -1.
         -5    1    3    3    0  502  0.31280771754E+02  0.36073278141E+02 -0.37505169911E+03  0.37810796750E+03  0.47000000000E+01 0. -1.
        -11    1    1    2    0    0 -0.31645814014E+02 -0.51368687771E+02 -0.52920475079E+02  0.80254447294E+02  0.00000000000E+00 0.  1.
         11    1    1    2    0    0 -0.41978327021E+02 -0.39457656948E+02 -0.25675095427E+03  0.26313521077E+03  0.00000000000E+00 0. -1.
<mgrwt>
<rscale>  0 0.16515374E+03</rscale>
<asrwt>0</asrwt>
<pdfrwt beam="2">  1        1 0.12104028E+00 0.17115180E+03</pdfrwt>
<pdfrwt beam="1">  1       -1 0.50417215E-02 0.17115180E+03</pdfrwt>
<totfact> 0.40422467E+03</totfact>
</mgrwt>
</event>
<event>
 7    1  0.4230786E-006  0.2428252E+03  0.7546771E-02  0.1120404E+00
          2   -1    0    0  501    0  0.00000000000E+00  0.00000000000E+00  0.83270216630E+03  0.83270216630E+03  0.00000000000E+00 0. -1.
         -2   -1    0    0    0  501 -0.00000000000E+00 -0.00000000000E+00 -0.73943834862E+02  0.73943834862E+02  0.00000000000E+00 0.  1.
         23    2    1    2    0    0 -0.23672198591E+02  0.20683252534E+03  0.24729525080E+03  0.34658189339E+03  0.12499600486E+03 0.  0.
          5    1    3    3  502    0 -0.20119347815E+02  0.22385252641E+03  0.22977872940E+03  0.32145776740E+03  0.47000000000E+01 0. -1.
         -5    1    3    3    0  502 -0.35528507762E+01 -0.17020001064E+02  0.17516521399E+02  0.25124125991E+02  0.47000000000E+01 0. -1.
        -11    1    1    2    0    0 -0.35055253763E+02 -0.10405972535E+03  0.24159333917E+03  0.26537640963E+03  0.00000000000E+00 0.  1.
         11    1    1    2    0    0  0.58727452354E+02 -0.10277279999E+03  0.26986974147E+03  0.29468769815E+03  0.00000000000E+00 0. -1.
<mgrwt>
<rscale>  0 0.23908447E+03</rscale>
<asrwt>0</asrwt>
<pdfrwt beam="1">  1        2 0.12810802E+00 0.24282518E+03</pdfrwt>
<pdfrwt beam="2">  1       -2 0.11375975E-01 0.24282518E+03</pdfrwt>
<totfact> 0.18132086E+03</totfact>
</mgrwt>
</event>
<event>
 7    1  0.4230786E-006  0.1437056E+03  0.7546771E-02  0.1218350E+00
          2   -1    0    0  501    0  0.00000000000E+00  0.00000000000E+00  0.57249387852E+03  0.57249387852E+03  0.00000000000E+00 0.  1.
         -2   -1    0    0    0  501 -0.00000000000E+00 -0.00000000000E+00 -0.31106581811E+02  0.31106581811E+02  0.00000000000E+00 0. -1.
         23    2    1    2    0    0  0.38940772300E+02  0.59217820233E+02  0.23043137826E+03  0.27156937291E+03  0.12501268030E+03 0.  0.
          5    1    3    3  502    0 -0.20305144710E+02 -0.17133880825E+02  0.12741182270E+03  0.13023721180E+03  0.47000000000E+01 0.  1.
         -5    1    3    3    0  502  0.59245917010E+02  0.76351701058E+02  0.10301955556E+03  0.14133216111E+03  0.47000000000E+01 0.  1.
        -11    1    1    2    0    0  0.38042332238E+01 -0.70945684010E+02  0.21236844793E+03  0.22393775909E+03  0.00000000000E+00 0.  1.
         11    1    1    2    0    0 -0.42745005524E+02  0.11727863777E+02  0.98587470520E+02  0.10809332833E+03  0.00000000000E+00 0. -1.
<mgrwt>
<rscale>  0 0.13633331E+03</rscale>
<asrwt>0</asrwt>
<pdfrwt beam="1">  1        2 0.88075974E-01 0.14370562E+03</pdfrwt>
<pdfrwt beam="2">  1       -2 0.47856284E-02 0.14370562E+03</pdfrwt>
<totfact> 0.10677537E+04</totfact>
</mgrwt>
</event>
<event>
 7    1  0.4230786E-006  0.1528837E+03  0.7546771E-02  0.1211900E+00
          1   -1    0    0  501    0  0.00000000000E+00  0.00000000000E+00  0.45887251192E+02  0.45887251192E+02  0.00000000000E+00 0. -1.
         -1   -1    0    0    0  501 -0.00000000000E+00 -0.00000000000E+00 -0.37959337246E+03  0.37959337246E+03  0.00000000000E+00 0.  1.
         23    2    1    2    0    0  0.52650294553E+02 -0.70539307534E+02 -0.18422410645E+03  0.23939916401E+03  0.12500236360E+03 0.  0.
          5    1    3    3  502    0  0.67972540518E+02  0.92874739169E+01 -0.62306165215E+02  0.92793704851E+02  0.47000000000E+01 0. -1.
         -5    1    3    3    0  502 -0.15322245965E+02 -0.79826781451E+02 -0.12191794124E+03  0.14660545916E+03  0.47000000000E+01 0. -1.
        -11    1    1    2    0    0 -0.58019504064E+01  0.20990475282E+02 -0.98662790912E+02  0.10103766125E+03  0.00000000000E+00 0.  1.
         11    1    1    2    0    0 -0.46848344147E+02  0.49548832252E+02 -0.50819223903E+02  0.85043798392E+02  0.00000000000E+00 0. -1.
<mgrwt>
<rscale>  0 0.14106755E+03</rscale>
<asrwt>0</asrwt>
<pdfrwt beam="1">  1        1 0.70595768E-02 0.15288374E+03</pdfrwt>
<pdfrwt beam="2">  1       -1 0.58398983E-01 0.15288374E+03</pdfrwt>
<totfact> 0.30657173E+03</totfact>
</mgrwt>
</event>
<event>
 7    1  0.4230786E-006  0.2097419E+03  0.7546771E-02  0.1145623E+00
          4   -1    0    0  501    0  0.00000000000E+00  0.00000000000E+00  0.32204578433E+02  0.32204578433E+02  0.00000000000E+00 0. -1.
         -4   -1    0    0    0  501 -0.00000000000E+00 -0.00000000000E+00 -0.20844724284E+04  0.20844724284E+04  0.00000000000E+00 0.  1.
         23    2    1    2    0    0 -0.13013235358E+03 -0.10650237288E+03 -0.17243957376E+04  0.17371045787E+04  0.12535737974E+03 0.  0.
          5    1    3    3  502    0 -0.41638848193E+02 -0.11263468162E+03 -0.10624363054E+04  0.10692115591E+04  0.47000000000E+01 0.  1.
         -5    1    3    3    0  502 -0.88493505388E+02  0.61323087373E+01 -0.66195943221E+03  0.66789301958E+03  0.47000000000E+01 0.  1.
        -11    1    1    2    0    0  0.30138808542E+02  0.90821731906E+01 -0.15098676807E+03  0.15423306319E+03  0.00000000000E+00 0.  1.
         11    1    1    2    0    0  0.99993545039E+02  0.97420199690E+02 -0.17688534429E+03  0.22533936492E+03  0.00000000000E+00 0. -1.
<mgrwt>
<rscale>  0 0.20495668E+03</rscale>
<asrwt>0</asrwt>
<pdfrwt beam="1">  1        4 0.49545498E-02 0.20974188E+03</pdfrwt>
<pdfrwt beam="2">  1       -4 0.32068811E+00 0.20974188E+03</pdfrwt>
<totfact> 0.12053373E+01</totfact>
</mgrwt>
</event>
<event>
 7    1  0.4230786E-006  0.1265403E+03  0.7546771E-02  0.1248462E+00
         -4   -1    0    0    0  501 -0.00000000000E+00  0.00000000000E+00  0.41779573215E+02  0.41779573215E+02  0.00000000000E+00 0.  1.
          4   -1    0    0  501    0  0.00000000000E+00 -0.00000000000E+00 -0.28680342199E+03  0.28680342199E+03  0.00000000000E+00 0. -1.
         23    2    1    2    0    0  0.59746750143E+01 -0.18817810792E+02 -0.13068475282E+03  0.18190921583E+03  0.12499060540E+03 0.  0.
          5    1    3    3  502    0 -0.43715909497E+02 -0.42316195760E+02 -0.32130615310E+02  0.68965263770E+02  0.47000000000E+01 0. -1.
         -5    1    3    3    0  502  0.49690584511E+02  0.23498384967E+02 -0.98554137515E+02  0.11294395206E+03  0.47000000000E+01 0. -1.
        -11    1    1    2    0    0 -0.57310770413E+01 -0.26399653121E+02 -0.38470249607E+01  0.27287112892E+02  0.00000000000E+00 0.  1.
         11    1    1    2    0    0 -0.24359797305E+00  0.45217463913E+02 -0.11049207099E+03  0.11938666648E+03  0.00000000000E+00 0. -1.
<mgrwt>
<rscale>  0 0.11680544E+03</rscale>
<asrwt>0</asrwt>
<pdfrwt beam="2">  1        4 0.44123604E-01 0.12654034E+03</pdfrwt>
<pdfrwt beam="1">  1       -4 0.64276266E-02 0.12654034E+03</pdfrwt>
<totfact> 0.12878939E+03</totfact>
</mgrwt>
</event>
<event>
 7    1  0.4230786E-006  0.1821055E+03  0.7546771E-02  0.1171027E+00
         -2   -1    0    0    0  501 -0.00000000000E+00  0.00000000000E+00  0.84967252772E+02  0.84967252772E+02  0.00000000000E+00 0.  1.
          2   -1    0    0  501    0  0.00000000000E+00 -0.00000000000E+00 -0.38157620794E+03  0.38157620794E+03  0.00000000000E+00 0. -1.
         23    2    1    2    0    0 -0.23643277952E+02 -0.13029048096E+03 -0.86617935038E+02  0.20165583029E+03  0.12501117229E+03 0.  0.
          5    1    3    3  502    0  0.25652914856E+02 -0.46109860415E+02  0.20404662177E+02  0.56768226207E+02  0.47000000000E+01 0. -1.
         -5    1    3    3    0  502 -0.49296192808E+02 -0.84180620549E+02 -0.10702259722E+03  0.14488760408E+03  0.47000000000E+01 0. -1.
        -11    1    1    2    0    0  0.95956372842E+01 -0.13348626255E+02 -0.29688769304E+02  0.33936486273E+02  0.00000000000E+00 0. -1.
         11    1    1    2    0    0  0.14047640668E+02  0.14363910722E+03 -0.18030225082E+03  0.23095114415E+03  0.00000000000E+00 0.  1.
<mgrwt>
<rscale>  0 0.17670885E+03</rscale>
<asrwt>0</asrwt>
<pdfrwt beam="2">  1        2 0.58704033E-01 0.18210548E+03</pdfrwt>
<pdfrwt beam="1">  1       -2 0.13071885E-01 0.18210548E+03</pdfrwt>
<totfact> 0.35429071E+03</totfact>
</mgrwt>
</event>
<event>
 7    1  0.4230786E-006  0.2917598E+03  0.7546771E-02  0.1091062E+00
          1   -1    0    0  501    0  0.00000000000E+00  0.00000000000E+00  0.11113141997E+03  0.11113141997E+03  0.00000000000E+00 0. -1.
         -1   -1    0    0    0  501 -0.00000000000E+00 -0.00000000000E+00 -0.88929400017E+03  0.88929400017E+03  0.00000000000E+00 0.  1.
         23    2    1    2    0    0 -0.11144944938E+03 -0.23892948908E+03 -0.60493992617E+03  0.67162200378E+03  0.12496207889E+03 0.  0.
          5    1    3    3  502    0 -0.69723911489E+02 -0.66221734144E+02 -0.11240882090E+03  0.14800194229E+03  0.47000000000E+01 0.  1.
         -5    1    3    3    0  502 -0.41725537890E+02 -0.17270775494E+03 -0.49253110527E+03  0.52362006148E+03  0.47000000000E+01 0.  1.
        -11    1    1    2    0    0  0.71335057883E+02  0.12234064626E+03 -0.14424958362E+03  0.20214813031E+03  0.00000000000E+00 0.  1.
         11    1    1    2    0    0  0.40114391496E+02  0.11658884282E+03 -0.28973070403E+02  0.12665528605E+03  0.00000000000E+00 0. -1.
<mgrwt>
<rscale>  0 0.28863859E+03</rscale>
<asrwt>0</asrwt>
<pdfrwt beam="1">  1        1 0.17097142E-01 0.29175984E+03</pdfrwt>
<pdfrwt beam="2">  1       -1 0.13681446E+00 0.29175984E+03</pdfrwt>
<totfact> 0.15057571E+02</totfact>
</mgrwt>
</event>
<event>
 7    1  0.4230786E-006  0.1291411E+03  0.7546771E-02  0.1243591E+00
          2   -1    0    0  501    0  0.00000000000E+00  0.00000000000E+00  0.64547765677E+02  0.64547765677E+02  0.00000000000E+00 0. -1.
         -2   -1    0    0    0  501 -0.00000000000E+00 -0.00000000000E+00 -0.20043002452E+03  0.20043002452E+03  0.00000000000E+00 0.  1.
         23    2    1    2    0    0  0.23167005752E+02  0.22719077439E+02 -0.99186679781E+02  0.16283554398E+03  0.12499820120E+03 0.  0.
          5    1    3    3  502    0 -0.32907740139E+02  0.29888347010E+02  0.42098124508E+01  0.44900391635E+02  0.47000000000E+01 0.  1.
         -5    1    3    3    0  502  0.56074745891E+02 -0.71692695714E+01 -0.10339649223E+03  0.11793515235E+03  0.47000000000E+01 0.  1.
        -11    1    1    2    0    0 -0.57585628027E+02 -0.11731871132E+02 -0.27363592726E+02  0.64826750361E+02  0.00000000000E+00 0.  1.
         11    1    1    2    0    0  0.34418622276E+02 -0.10987206307E+02 -0.93319863350E+01  0.37315495853E+02  0.00000000000E+00 0. -1.
<mgrwt>
<rscale>  0 0.11970098E+03</rscale>
<asrwt>0</asrwt>
<pdfrwt beam="1">  1        2 0.99304254E-02 0.12914107E+03</pdfrwt>
<pdfrwt beam="2">  1       -2 0.30835389E-01 0.12914107E+03</pdfrwt>
<totfact> 0.59352050E+03</totfact>
</mgrwt>
</event>
<event>
 7    1  0.4230786E-006  0.1268656E+03  0.7546771E-02  0.1246393E+00
         -1   -1    0    0    0  501 -0.00000000000E+00  0.00000000000E+00  0.12551732160E+03  0.12551732160E+03  0.00000000000E+00 0.  1.
          1   -1    0    0  501    0  0.00000000000E+00 -0.00000000000E+00 -0.10735150951E+03  0.10735150951E+03  0.00000000000E+00 0. -1.
         23    2    1    2    0    0  0.16578236648E+02  0.13990277162E+02  0.44191310943E+02  0.13434192741E+03  0.12499726282E+03 0.  0.
          5    1    3    3  502    0  0.68586859816E+02 -0.96387884223E+01  0.27201551009E+02  0.74559224507E+02  0.47000000000E+01 0. -1.
         -5    1    3    3    0  502 -0.52008623169E+02  0.23629065584E+02  0.16989759934E+02  0.59782702907E+02  0.47000000000E+01 0. -1.
        -11    1    1    2    0    0  0.33139908025E+02  0.16080890304E+02 -0.12159951265E+02  0.38790629688E+02  0.00000000000E+00 0. -1.
         11    1    1    2    0    0 -0.49718144672E+02 -0.30071167466E+02 -0.13865547594E+02  0.59736274009E+02  0.00000000000E+00 0.  1.
<mgrwt>
<rscale>  0 0.11802397E+03</rscale>
<asrwt>0</asrwt>
<pdfrwt beam="2">  1        1 0.16515617E-01 0.12686560E+03</pdfrwt>
<pdfrwt beam="1">  1       -1 0.19310357E-01 0.12686560E+03</pdfrwt>
<totfact> 0.66146647E+03</totfact>
</mgrwt>
</event>
<event>
 7    1  0.4230786E-006  0.1318933E+03  0.7546771E-02  0.1238152E+00
          1   -1    0    0  501    0  0.00000000000E+00  0.00000000000E+00  0.47352604508E+03  0.47352604508E+03  0.00000000000E+00 0. -1.
         -1   -1    0    0    0  501 -0.00000000000E+00 -0.00000000000E+00 -0.38684087835E+02  0.38684087835E+02  0.00000000000E+00 0.  1.
         23    2    1    2    0    0  0.12140459566E+02 -0.40265491371E+02  0.10809884499E+03  0.17053214321E+03  0.12500860380E+03 0.  0.
          5    1    3    3  502    0 -0.14205029012E+02 -0.81183050183E+02  0.74607689859E+02  0.11126934831E+03  0.47000000000E+01 0. -1.
         -5    1    3    3    0  502  0.26345488578E+02  0.40917558812E+02  0.33491155135E+02  0.59262794904E+02  0.47000000000E+01 0. -1.
        -11    1    1    2    0    0 -0.43877061173E+02 -0.21442651791E+01  0.10755690720E+03  0.11618210988E+03  0.00000000000E+00 0.  1.
         11    1    1    2    0    0  0.31736601607E+02  0.42409756550E+02  0.21918620505E+03  0.22549587982E+03  0.00000000000E+00 0. -1.
<mgrwt>
<rscale>  0 0.12304773E+03</rscale>
<asrwt>0</asrwt>
<pdfrwt beam="1">  1        1 0.72850157E-01 0.13189333E+03</pdfrwt>
<pdfrwt beam="2">  1       -1 0.59513985E-02 0.13189333E+03</pdfrwt>
<totfact> 0.62913752E+03</totfact>
</mgrwt>
</event>
<event>
 7    1  0.4230786E-006  0.1942857E+03  0.7546771E-02  0.1158870E+00
         -2   -1    0    0    0  501 -0.00000000000E+00  0.00000000000E+00  0.41150599709E+02  0.41150599709E+02  0.00000000000E+00 0.  1.
          2   -1    0    0  501    0  0.00000000000E+00 -0.00000000000E+00 -0.88262005018E+03  0.88262005018E+03  0.00000000000E+00 0. -1.
         23    2    1    2    0    0 -0.16084390040E+01  0.14872460302E+03 -0.33100198620E+03  0.38380885717E+03  0.12500131739E+03 0.  0.
          5    1    3    3  502    0 -0.62365122579E+02  0.79255425069E+02 -0.19135204093E+03  0.21635277785E+03  0.47000000000E+01 0. -1.
         -5    1    3    3    0  502  0.60756683575E+02  0.69469177952E+02 -0.13964994527E+03  0.16745607931E+03  0.47000000000E+01 0. -1.
        -11    1    1    2    0    0  0.20379964677E+02 -0.11373940413E+03 -0.46703433750E+03  0.48111648009E+03  0.00000000000E+00 0. -1.
         11    1    1    2    0    0 -0.18771525673E+02 -0.34985198894E+02 -0.43433126773E+02  0.58845312634E+02  0.00000000000E+00 0.  1.
<mgrwt>
<rscale>  0 0.18954780E+03</rscale>
<asrwt>0</asrwt>
<pdfrwt beam="2">  1        2 0.13578770E+00 0.19428568E+03</pdfrwt>
<pdfrwt beam="1">  1       -2 0.63308617E-02 0.19428568E+03</pdfrwt>
<totfact> 0.41990043E+03</totfact>
</mgrwt>
</event>
<event>
 7    1  0.4230786E-006  0.1250017E+03  0.7546771E-02  0.1251463E+00
          1   -1    0    0  501    0  0.00000000000E+00  0.00000000000E+00  0.32403745628E+02  0.32403745628E+02  0.00000000000E+00 0. -1.
         -1   -1    0    0    0  501 -0.00000000000E+00 -0.00000000000E+00 -0.36300267346E+03  0.36300267346E+03  0.00000000000E+00 0.  1.
         23    2    1    2    0    0 -0.11328982951E+01  0.64517031980E+00 -0.21930862530E+03  0.25243159141E+03  0.12499494194E+03 0.  0.
          5    1    3    3  502    0 -0.50633730288E+02  0.11783212216E+02 -0.18183811761E+03  0.18918194880E+03  0.47000000000E+01 0. -1.
         -5    1    3    3    0  502  0.49500831992E+02 -0.11138041897E+02 -0.37470507686E+02  0.63249642619E+02  0.47000000000E+01 0. -1.
        -11    1    1    2    0    0 -0.22283055663E+02 -0.18436902710E+02 -0.11159071654E+01  0.28943033704E+02  0.00000000000E+00 0. -1.
         11    1    1    2    0    0  0.23415953958E+02  0.17791732390E+02 -0.11017439537E+03  0.11403179397E+03  0.00000000000E+00 0.  1.
<mgrwt>
<rscale>  0 0.11506780E+03</rscale>
<asrwt>0</asrwt>
<pdfrwt beam="1">  1        1 0.49851915E-02 0.12500174E+03</pdfrwt>
<pdfrwt beam="2">  1       -1 0.55846566E-01 0.12500174E+03</pdfrwt>
<totfact> 0.52827054E+03</totfact>
</mgrwt>
</event>
<event>
 7    1  0.4230786E-006  0.1482837E+03  0.7546771E-02  0.1208627E+00
         -2   -1    0    0    0  501 -0.00000000000E+00  0.00000000000E+00  0.24751229080E+03  0.24751229080E+03  0.00000000000E+00 0.  1.
          2   -1    0    0  501    0  0.00000000000E+00 -0.00000000000E+00 -0.79969801631E+02  0.79969801631E+02  0.00000000000E+00 0. -1.
         23    2    1    2    0    0 -0.60271589204E+01 -0.79535616843E+02  0.11227987546E+03  0.18599687384E+03  0.12500330257E+03 0.  0.
          5    1    3    3  502    0  0.23994236958E+01 -0.71431706991E+02  0.13904769442E+03  0.15641162783E+03  0.47000000000E+01 0. -1.
         -5    1    3    3    0  502 -0.84265826162E+01 -0.81039098518E+01 -0.26767818959E+02  0.29585246007E+02  0.47000000000E+01 0. -1.
        -11    1    1    2    0    0  0.21039799058E+01 -0.13817466020E+02  0.45432815484E+02  0.47534091151E+02  0.00000000000E+00 0.  1.
         11    1    1    2    0    0  0.39231790146E+01  0.93353082864E+02  0.98297982198E+01  0.93951127437E+02  0.00000000000E+00 0. -1.
<mgrwt>
<rscale>  0 0.14355275E+03</rscale>
<asrwt>0</asrwt>
<pdfrwt beam="2">  1        2 0.12303047E-01 0.14828374E+03</pdfrwt>
<pdfrwt beam="1">  1       -2 0.38078814E-01 0.14828374E+03</pdfrwt>
<totfact> 0.31314856E+03</totfact>
</mgrwt>
</event>
<event>
 6    1  0.4230786E-006  0.1427048E+03  0.7546771E-02  0.1227567E+00
         -1   -1    0    0    0  501 -0.00000000000E+00  0.00000000000E+00  0.40211735949E+03  0.40211735949E+03  0.00000000000E+00 0.  1.
          1   -1    0    0  501    0  0.00000000000E+00 -0.00000000000E+00 -0.57825250119E+02  0.57825250119E+02  0.00000000000E+00 0. -1.
          5    1    1    2  502    0 -0.33589689980E+02  0.56358459765E+02  0.71209977636E+02  0.96940673481E+02  0.47000000000E+01 0. -1.
         -5    1    1    2    0  502  0.21390340078E+01 -0.43545232301E+02  0.26047766730E+03  0.26414289292E+03  0.47000000000E+01 0.  1.
        -11    1    1    2    0    0 -0.25047793644E+02  0.54412201263E+01 -0.18708884433E+02  0.31733597332E+02  0.00000000000E+00 0.  1.
         11    1    1    2    0    0  0.56498449616E+02 -0.18254447590E+02  0.31313348872E+02  0.67125445871E+02  0.00000000000E+00 0. -1.
<mgrwt>
<rscale>  0 0.12992514E+03</rscale>
<asrwt>0</asrwt>
<pdfrwt beam="2">  1        1 0.88961926E-02 0.14270476E+03</pdfrwt>
<pdfrwt beam="1">  1       -1 0.61864207E-01 0.14270476E+03</pdfrwt>
<totfact> 0.20062300E+03</totfact>
</mgrwt>
</event>
<event>
 7    1  0.4230786E-006  0.1526335E+03  0.7546771E-02  0.1206573E+00
         -2   -1    0    0    0  501 -0.00000000000E+00  0.00000000000E+00  0.10857853224E+03  0.10857853224E+03  0.00000000000E+00 0. -1.
          2   -1    0    0  501    0  0.00000000000E+00 -0.00000000000E+00 -0.19217470868E+03  0.19217470868E+03  0.00000000000E+00 0.  1.
         23    2    1    2    0    0  0.23627978576E+01 -0.87567297676E+02 -0.39133282861E+01  0.15268362531E+03  0.12499344328E+03 0.  0.
          5    1    3    3  502    0 -0.10401163749E+02 -0.10219635979E+03 -0.40884444942E+02  0.11066123079E+03  0.47000000000E+01 0.  1.
         -5    1    3    3    0  502  0.12763961607E+02  0.14629062114E+02  0.36971116656E+02  0.42022394518E+02  0.47000000000E+01 0.  1.
        -11    1    1    2    0    0  0.12691120504E+02  0.10193902750E+03 -0.73650850505E+02  0.12640046538E+03  0.00000000000E+00 0.  1.
         11    1    1    2    0    0 -0.15053918361E+02 -0.14371729829E+02 -0.60319976466E+01  0.21669150235E+02  0.00000000000E+00 0. -1.
<mgrwt>
<rscale>  0 0.14514154E+03</rscale>
<asrwt>0</asrwt>
<pdfrwt beam="2">  1        2 0.29565340E-01 0.15263347E+03</pdfrwt>
<pdfrwt beam="1">  1       -2 0.16704390E-01 0.15263347E+03</pdfrwt>
<totfact> 0.49058831E+03</totfact>
</mgrwt>
</event>
<event>
 7    1  0.4230786E-006  0.1326859E+03  0.7546771E-02  0.1236245E+00
         -1   -1    0    0    0  501 -0.00000000000E+00  0.00000000000E+00  0.46595430838E+02  0.46595430838E+02  0.00000000000E+00 0.  1.
          1   -1    0    0  501    0  0.00000000000E+00 -0.00000000000E+00 -0.29747260819E+03  0.29747260819E+03  0.00000000000E+00 0. -1.
         23    2    1    2    0    0  0.43718619534E+02 -0.81939651219E+01 -0.15531985169E+03  0.20427871391E+03  0.12500831119E+03 0.  0.
          5    1    3    3  502    0 -0.10787181517E+02  0.44279391265E+02 -0.21794561695E+02  0.50735793040E+02  0.47000000000E+01 0. -1.
         -5    1    3    3    0  502  0.54505801051E+02 -0.52473356387E+02 -0.13352529000E+03  0.15354292087E+03  0.47000000000E+01 0. -1.
        -11    1    1    2    0    0 -0.53378779432E+02 -0.16560549251E+02 -0.19449887230E+02  0.59176380410E+02  0.00000000000E+00 0. -1.
         11    1    1    2    0    0  0.96601598980E+01  0.24754514373E+02 -0.76107438432E+02  0.80612944716E+02  0.00000000000E+00 0.  1.
<mgrwt>
<rscale>  0 0.12425076E+03</rscale>
<asrwt>0</asrwt>
<pdfrwt beam="2">  1        1 0.45765016E-01 0.13268586E+03</pdfrwt>
<pdfrwt beam="1">  1       -1 0.71685279E-02 0.13268586E+03</pdfrwt>
<totfact> 0.85462385E+03</totfact>
</mgrwt>
</event>
<event>
 7    1  0.4230786E-006  0.1862451E+03  0.7546771E-02  0.1167111E+00
          2   -1    0    0  501    0  0.00000000000E+00  0.00000000000E+00  0.85776958002E+03  0.85776958002E+03  0.00000000000E+00 0. -1.
         -2   -1    0    0    0  501 -0.00000000000E+00 -0.00000000000E+00 -0.36629597778E+02  0.36629597778E+02  0.00000000000E+00 0.  1.
         23    2    1    2    0    0  0.13230278539E+03  0.39455480793E+02  0.37528029587E+03  0.41895409959E+03  0.12500590029E+03 0.  0.
          5    1    3    3  502    0  0.35561961654E+02  0.50195969025E+02  0.50068006226E+02  0.79455545247E+02  0.47000000000E+01 0.  1.
         -5    1    3    3    0  502  0.96740823738E+02 -0.10740488232E+02  0.32521228965E+03  0.33949855435E+03  0.47000000000E+01 0.  1.
        -11    1    1    2    0    0 -0.46886360518E+02  0.97924761849E+01  0.57857017745E+02  0.75110970536E+02  0.00000000000E+00 0.  1.
         11    1    1    2    0    0 -0.85416424874E+02 -0.49247956978E+02  0.38800266862E+03  0.40033410767E+03  0.00000000000E+00 0. -1.
<mgrwt>
<rscale>  0 0.18071688E+03</rscale>
<asrwt>0</asrwt>
<pdfrwt beam="1">  1        2 0.13196454E+00 0.18624510E+03</pdfrwt>
<pdfrwt beam="2">  1       -2 0.56353234E-02 0.18624510E+03</pdfrwt>
<totfact> 0.51996525E+03</totfact>
</mgrwt>
</event>
<event>
 7    1  0.4230786E-006  0.3318334E+03  0.7546771E-02  0.1070329E+00
          1   -1    0    0  501    0  0.00000000000E+00  0.00000000000E+00  0.21484788914E+03  0.21484788914E+03  0.00000000000E+00 0. -1.
         -1   -1    0    0    0  501 -0.00000000000E+00 -0.00000000000E+00 -0.12812950371E+03  0.12812950371E+03  0.00000000000E+00 0.  1.
         23    2    1    2    0    0 -0.29631390335E+01 -0.64749504556E+02 -0.74415682952E+01  0.14100293384E+03  0.12500068752E+03 0.  0.
          5    1    3    3  502    0  0.50306114345E+02 -0.40652948044E+02  0.29962820833E+02  0.71436880933E+02  0.47000000000E+01 0.  1.
         -5    1    3    3    0  502 -0.53269253378E+02 -0.24096556512E+02 -0.37404389128E+02  0.69566052909E+02  0.47000000000E+01 0.  1.
        -11    1    1    2    0    0  0.40287109831E+02  0.13474830047E+02 -0.36968633467E+02  0.56314315443E+02  0.00000000000E+00 0.  1.
         11    1    1    2    0    0 -0.37323970798E+02  0.51274674509E+02  0.13112858720E+03  0.14566014356E+03  0.00000000000E+00 0. -1.
<mgrwt>
<rscale>  0 0.33183341E+03</rscale>
<asrwt>0</asrwt>
<pdfrwt beam="1">  1        1 0.33053521E-01 0.33183341E+03</pdfrwt>
<pdfrwt beam="2">  1       -1 0.19712231E-01 0.33183341E+03</pdfrwt>
<totfact> 0.27694653E+03</totfact>
</mgrwt>
</event>
<event>
 7    1  0.4230786E-006  0.1673256E+03  0.7546771E-02  0.1187828E+00
          2   -1    0    0  501    0  0.00000000000E+00  0.00000000000E+00  0.55505358025E+03  0.55505358025E+03  0.00000000000E+00 0. -1.
         -2   -1    0    0    0  501 -0.00000000000E+00 -0.00000000000E+00 -0.45266279746E+02  0.45266279746E+02  0.00000000000E+00 0.  1.
         23    2    1    2    0    0  0.43042801285E+02  0.10256200454E+03  0.21142175687E+03  0.26962386962E+03  0.12500489698E+03 0.  0.
          5    1    3    3  502    0  0.27413279774E+02  0.54013679496E+02  0.97273318073E+01  0.61527851131E+02  0.47000000000E+01 0. -1.
         -5    1    3    3    0  502  0.15629521511E+02  0.48548325047E+02  0.20169442506E+03  0.20809601849E+03  0.47000000000E+01 0. -1.
        -11    1    1    2    0    0 -0.10389079592E+02 -0.29579277788E+02  0.12317188979E+02  0.33683524067E+02  0.00000000000E+00 0.  1.
         11    1    1    2    0    0 -0.32653721694E+02 -0.72982726755E+02  0.28604835466E+03  0.29701246631E+03  0.00000000000E+00 0. -1.
<mgrwt>
<rscale>  0 0.16077184E+03</rscale>
<asrwt>0</asrwt>
<pdfrwt beam="1">  1        2 0.85392854E-01 0.16732565E+03</pdfrwt>
<pdfrwt beam="2">  1       -2 0.69640434E-02 0.16732565E+03</pdfrwt>
<totfact> 0.63118915E+03</totfact>
</mgrwt>
</event>
<event>
 7    1  0.4230786E-006  0.2851505E+03  0.7546771E-02  0.1094513E+00
          3   -1    0    0  501    0  0.00000000000E+00  0.00000000000E+00  0.17290657523E+03  0.17290657523E+03  0.00000000000E+00 0. -1.
         -3   -1    0    0    0  501 -0.00000000000E+00 -0.00000000000E+00 -0.45559276897E+03  0.45559276897E+03  0.00000000000E+00 0.  1.
         23    2    1    2    0    0 -0.22609102902E+03 -0.12069878737E+03 -0.17561961392E+03  0.33489261668E+03  0.12500186096E+03 0.  0.
          5    1    3    3  502    0 -0.17651565799E+03 -0.10483322762E+03 -0.69837196963E+02  0.21690345135E+03  0.47000000000E+01 0.  1.
         -5    1    3    3    0  502 -0.49575371029E+02 -0.15865559744E+02 -0.10578241696E+03  0.11798916533E+03  0.47000000000E+01 0.  1.
        -11    1    1    2    0    0  0.67174447026E+02  0.28441136919E+02 -0.79328651658E+02  0.10776984539E+03  0.00000000000E+00 0.  1.
         11    1    1    2    0    0  0.15891658199E+03  0.92257650448E+02 -0.27737928163E+02  0.18583688212E+03  0.00000000000E+00 0. -1.
<mgrwt>
<rscale>  0 0.28216358E+03</rscale>
<asrwt>0</asrwt>
<pdfrwt beam="1">  1        3 0.26601012E-01 0.28515051E+03</pdfrwt>
<pdfrwt beam="2">  1       -3 0.70091195E-01 0.28515051E+03</pdfrwt>
<totfact> 0.66723455E+01</totfact>
</mgrwt>
</event>
<event>
 7    1  0.4230786E-006  0.1983187E+03  0.7546771E-02  0.1157746E+00
          2   -1    0    0  501    0  0.00000000000E+00  0.00000000000E+00  0.23152611495E+03  0.23152611495E+03  0.00000000000E+00 0. -1.
         -2   -1    0    0    0  501 -0.00000000000E+00 -0.00000000000E+00 -0.16754941545E+03  0.16754941545E+03  0.00000000000E+00 0.  1.
         23    2    1    2    0    0 -0.11989434346E+03 -0.96604114434E+02 -0.36562859500E+02  0.20166095196E+03  0.12499315313E+03 0.  0.
          5    1    3    3  502    0 -0.31155554022E+02  0.30089409401E+02 -0.80289632002E+01  0.44301189087E+02  0.47000000000E+01 0. -1.
         -5    1    3    3    0  502 -0.88738789443E+02 -0.12669352383E+03 -0.28533896300E+02  0.15735976287E+03  0.47000000000E+01 0. -1.
        -11    1    1    2    0    0  0.12334062760E+02  0.34304921775E+02 -0.16632815059E+01  0.36492783774E+02  0.00000000000E+00 0.  1.
         11    1    1    2    0    0  0.10756028070E+03  0.62299192659E+02  0.10220284050E+03  0.16092179466E+03  0.00000000000E+00 0. -1.
<mgrwt>
<rscale>  0 0.19079538E+03</rscale>
<asrwt>0</asrwt>
<pdfrwt beam="1">  1        2 0.35619402E-01 0.19831867E+03</pdfrwt>
<pdfrwt beam="2">  1       -2 0.25776833E-01 0.19831867E+03</pdfrwt>
<totfact> 0.19305039E+03</totfact>
</mgrwt>
</event>
<event>
 7    1  0.4230786E-006  0.1461334E+03  0.7546771E-02  0.1215539E+00
          1   -1    0    0  501    0  0.00000000000E+00  0.00000000000E+00  0.42978256753E+03  0.42978256753E+03  0.00000000000E+00 0. -1.
         -1   -1    0    0    0  501 -0.00000000000E+00 -0.00000000000E+00 -0.40837256281E+02  0.40837256281E+02  0.00000000000E+00 0.  1.
         23    2    1    2    0    0 -0.40670033995E+02  0.63847861929E+02  0.19172913006E+03  0.24107058389E+03  0.12499746383E+03 0.  0.
          5    1    3    3  502    0 -0.51124947984E+02 -0.12849336994E+02  0.27930867031E+02  0.59842201669E+02  0.47000000000E+01 0.  1.
         -5    1    3    3    0  502  0.10454913989E+02  0.76697198923E+02  0.16379826303E+03  0.18122838222E+03  0.47000000000E+01 0.  1.
        -11    1    1    2    0    0  0.22863937636E+02 -0.24784816714E+02  0.18026846650E+03  0.18339511116E+03  0.00000000000E+00 0. -1.
         11    1    1    2    0    0  0.17806096359E+02 -0.39063045215E+02  0.16947714689E+02  0.46154128766E+02  0.00000000000E+00 0.  1.
<mgrwt>
<rscale>  0 0.13836989E+03</rscale>
<asrwt>0</asrwt>
<pdfrwt beam="1">  1        1 0.66120392E-01 0.14613339E+03</pdfrwt>
<pdfrwt beam="2">  1       -1 0.62826551E-02 0.14613339E+03</pdfrwt>
<totfact> 0.66106312E+03</totfact>
</mgrwt>
</event>
<event>
 7    1  0.4230786E-006  0.1687176E+03  0.7546771E-02  0.1185827E+00
          2   -1    0    0  501    0  0.00000000000E+00  0.00000000000E+00  0.62941764101E+03  0.62941764101E+03  0.00000000000E+00 0. -1.
         -2   -1    0    0    0  501 -0.00000000000E+00 -0.00000000000E+00 -0.48582743965E+02  0.48582743965E+02  0.00000000000E+00 0.  1.
         23    2    1    2    0    0  0.11326939435E+03  0.33370377625E+01  0.15913237599E+03  0.23192398714E+03  0.12499812480E+03 0.  0.
          5    1    3    3  502    0 -0.17953725608E+01  0.64375977771E+01  0.10380215882E+03  0.10412321644E+03  0.47000000000E+01 0. -1.
         -5    1    3    3    0  502  0.11506476691E+03 -0.31005600147E+01  0.55330217171E+02  0.12780077069E+03  0.47000000000E+01 0. -1.
        -11    1    1    2    0    0 -0.76275437738E+02  0.28165810825E+02  0.35094848690E+03  0.36024449442E+03  0.00000000000E+00 0.  1.
         11    1    1    2    0    0 -0.36993956615E+02 -0.31502848588E+02  0.70754034155E+02  0.85831903418E+02  0.00000000000E+00 0. -1.
<mgrwt>
<rscale>  0 0.16256871E+03</rscale>
<asrwt>0</asrwt>
<pdfrwt beam="1">  1        2 0.96833478E-01 0.16871758E+03</pdfrwt>
<pdfrwt beam="2">  1       -2 0.74742687E-02 0.16871758E+03</pdfrwt>
<totfact> 0.49038327E+03</totfact>
</mgrwt>
</event>
<event>
 7    1  0.4230786E-006  0.1254676E+03  0.7546771E-02  0.1249829E+00
          3   -1    0    0  501    0  0.00000000000E+00  0.00000000000E+00  0.85653884090E+02  0.85653884090E+02  0.00000000000E+00 0. -1.
         -3   -1    0    0    0  501 -0.00000000000E+00 -0.00000000000E+00 -0.13822855794E+03  0.13822855794E+03  0.00000000000E+00 0.  1.
         23    2    1    2    0    0 -0.99124922458E+01 -0.42788297266E+01 -0.37481312163E+02  0.13094645510E+03  0.12500223781E+03 0.  0.
          5    1    3    3  502    0 -0.60116855067E+02  0.22782376003E+02 -0.38639636101E+01  0.64576258287E+02  0.47000000000E+01 0.  1.
         -5    1    3    3    0  502  0.50204362822E+02 -0.27061205730E+02 -0.33617348553E+02  0.66370196818E+02  0.47000000000E+01 0.  1.
        -11    1    1    2    0    0  0.20929314125E+02  0.25805531015E+02 -0.44071814239E+02  0.55193173772E+02  0.00000000000E+00 0.  1.
         11    1    1    2    0    0 -0.11016821879E+02 -0.21526701289E+02  0.28978452550E+02  0.37742813156E+02  0.00000000000E+00 0. -1.
<mgrwt>
<rscale>  0 0.11600953E+03</rscale>
<asrwt>0</asrwt>
<pdfrwt beam="1">  1        3 0.13177521E-01 0.12546763E+03</pdfrwt>
<pdfrwt beam="2">  1       -3 0.21265932E-01 0.12546763E+03</pdfrwt>
<totfact> 0.21065799E+03</totfact>
</mgrwt>
</event>
<event>
 7    1  0.4230786E-006  0.1330011E+03  0.7546771E-02  0.1235757E+00
         -1   -1    0    0    0  501 -0.00000000000E+00  0.00000000000E+00  0.97141050633E+02  0.97141050633E+02  0.00000000000E+00 0.  1.
          1   -1    0    0  501    0  0.00000000000E+00 -0.00000000000E+00 -0.14867960915E+03  0.14867960915E+03  0.00000000000E+00 0. -1.
         23    2    1    2    0    0 -0.38301387110E+02 -0.24451042216E+02 -0.41681380340E+01  0.13306638669E+03  0.12499776067E+03 0.  0.
          5    1    3    3  502    0  0.42694063458E+02 -0.20132333990E+01 -0.19984212466E+02  0.47416188281E+02  0.47000000000E+01 0. -1.
         -5    1    3    3    0  502 -0.80995450568E+02 -0.22437808817E+02  0.15816074432E+02  0.85650198410E+02  0.47000000000E+01 0. -1.
        -11    1    1    2    0    0 -0.21751856818E+01 -0.19939467170E+02  0.15834605926E+02  0.25554814196E+02  0.00000000000E+00 0.  1.
         11    1    1    2    0    0  0.40476572791E+02  0.44390509386E+02 -0.63205026412E+02  0.87199458899E+02  0.00000000000E+00 0. -1.
<mgrwt>
<rscale>  0 0.12456112E+03</rscale>
<asrwt>0</asrwt>
<pdfrwt beam="2">  1        1 0.22873786E-01 0.13300109E+03</pdfrwt>
<pdfrwt beam="1">  1       -1 0.14944777E-01 0.13300109E+03</pdfrwt>
<totfact> 0.65773208E+03</totfact>
</mgrwt>
</event>
<event>
 7    1  0.4230786E-006  0.1331319E+03  0.7546771E-02  0.1235785E+00
         -1   -1    0    0    0  501 -0.00000000000E+00  0.00000000000E+00  0.42347184145E+02  0.42347184145E+02  0.00000000000E+00 0.  1.
          1   -1    0    0  501    0  0.00000000000E+00 -0.00000000000E+00 -0.35183752492E+03  0.35183752492E+03  0.00000000000E+00 0. -1.
         23    2    1    2    0    0  0.40503596023E+02  0.21405999641E+02 -0.12108763445E+03  0.17996202594E+03  0.12500142981E+03 0.  0.
          5    1    3    3  502    0  0.38106955924E+02  0.33126726483E+01  0.15895990851E+02  0.41687964870E+02  0.47000000000E+01 0.  1.
         -5    1    3    3    0  502  0.23966400990E+01  0.18093326993E+02 -0.13698362530E+03  0.13827406107E+03  0.47000000000E+01 0.  1.
        -11    1    1    2    0    0 -0.20964809191E+01 -0.21599862495E+02  0.24715853313E+00  0.21702773541E+02  0.00000000000E+00 0.  1.
         11    1    1    2    0    0 -0.38407115104E+02  0.19386285380E+00 -0.18864986486E+03  0.19251990958E+03  0.00000000000E+00 0. -1.
<mgrwt>
<rscale>  0 0.12454286E+03</rscale>
<asrwt>0</asrwt>
<pdfrwt beam="2">  1        1 0.54128849E-01 0.13313195E+03</pdfrwt>
<pdfrwt beam="1">  1       -1 0.65149516E-02 0.13313195E+03</pdfrwt>
<totfact> 0.80085764E+03</totfact>
</mgrwt>
</event>
<event>
 7    1  0.4230786E-006  0.1462080E+03  0.7546771E-02  0.1214192E+00
          2   -1    0    0  501    0  0.00000000000E+00  0.00000000000E+00  0.33996068222E+03  0.33996068222E+03  0.00000000000E+00 0. -1.
         -2   -1    0    0    0  501 -0.00000000000E+00 -0.00000000000E+00 -0.52387521959E+02  0.52387521959E+02  0.00000000000E+00 0.  1.
         23    2    1    2    0    0 -0.27476970714E+02  0.70665512692E+02  0.15547487256E+03  0.21342262792E+03  0.12501273338E+03 0.  0.
          5    1    3    3  502    0 -0.23116128181E+02 -0.31494869763E+02  0.21566029566E+02  0.44871659594E+02  0.47000000000E+01 0. -1.
         -5    1    3    3    0  502 -0.43608425323E+01  0.10216038246E+03  0.13390884299E+03  0.16855096832E+03  0.47000000000E+01 0. -1.
        -11    1    1    2    0    0  0.25817371427E+02  0.15114331433E+02  0.14202623204E+02  0.33116373412E+02  0.00000000000E+00 0.  1.
         11    1    1    2    0    0  0.16595992862E+01 -0.85779844125E+02  0.11789566450E+03  0.14580920285E+03  0.00000000000E+00 0. -1.
<mgrwt>
<rscale>  0 0.13936059E+03</rscale>
<asrwt>0</asrwt>
<pdfrwt beam="1">  1        2 0.52301642E-01 0.14620801E+03</pdfrwt>
<pdfrwt beam="2">  1       -2 0.80596190E-02 0.14620801E+03</pdfrwt>
<totfact> 0.85161478E+03</totfact>
</mgrwt>
</event>
<event>
 7    1  0.4230786E-006  0.1842844E+03  0.7546771E-02  0.1168900E+00
          2   -1    0    0  501    0  0.00000000000E+00  0.00000000000E+00  0.47937667258E+03  0.47937667258E+03  0.00000000000E+00 0. -1.
         -2   -1    0    0    0  501 -0.00000000000E+00 -0.00000000000E+00 -0.14729912071E+03  0.14729912071E+03  0.00000000000E+00 0.  1.
         23    2    1    2    0    0 -0.11030880085E+03  0.78546977240E+02 -0.66441432353E+02  0.19589585679E+03  0.12499225414E+03 0.  0.
          5    1    3    3  502    0  0.19797013703E+02  0.34866451415E+02 -0.38447715761E+02  0.55748614629E+02  0.47000000000E+01 0. -1.
         -5    1    3    3    0  502 -0.13010581455E+03  0.43680525824E+02 -0.27993716592E+02  0.14014724216E+03  0.47000000000E+01 0. -1.
        -11    1    1    2    0    0  0.52136154351E+01 -0.52320820362E+02  0.96038032099E+02  0.10948951383E+03  0.00000000000E+00 0.  1.
         11    1    1    2    0    0  0.10509518541E+03 -0.26226156877E+02  0.30248095212E+03  0.32129042267E+03  0.00000000000E+00 0. -1.
<mgrwt>
<rscale>  0 0.17887098E+03</rscale>
<asrwt>0</asrwt>
<pdfrwt beam="1">  1        2 0.73750256E-01 0.18428435E+03</pdfrwt>
<pdfrwt beam="2">  1       -2 0.22661403E-01 0.18428435E+03</pdfrwt>
<totfact> 0.11011904E+03</totfact>
</mgrwt>
</event>
<event>
 7    1  0.4230786E-006  0.1478596E+03  0.7546771E-02  0.1211665E+00
         -1   -1    0    0    0  501 -0.00000000000E+00  0.00000000000E+00  0.24109415156E+03  0.24109415156E+03  0.00000000000E+00 0.  1.
          1   -1    0    0  501    0  0.00000000000E+00 -0.00000000000E+00 -0.81112703139E+02  0.81112703139E+02  0.00000000000E+00 0. -1.
         23    2    1    2    0    0  0.71388742087E+02 -0.33766047729E+02  0.12656890437E+03  0.19463333896E+03  0.12500380236E+03 0.  0.
          5    1    3    3  502    0  0.90757865028E+01  0.90088171311E+01 -0.23144818037E+02  0.26857052867E+02  0.47000000000E+01 0.  1.
         -5    1    3    3    0  502  0.62312955584E+02 -0.42774864860E+02  0.14971372241E+03  0.16777628609E+03  0.47000000000E+01 0.  1.
        -11    1    1    2    0    0 -0.10186356458E+02  0.26191589669E+02 -0.28614410435E+02  0.40106679143E+02  0.00000000000E+00 0. -1.
         11    1    1    2    0    0 -0.61202385629E+02  0.75744580594E+01  0.62026954487E+02  0.87466836598E+02  0.00000000000E+00 0.  1.
<mgrwt>
<rscale>  0 0.14124382E+03</rscale>
<asrwt>0</asrwt>
<pdfrwt beam="2">  1        1 0.12478877E-01 0.14785956E+03</pdfrwt>
<pdfrwt beam="1">  1       -1 0.37091408E-01 0.14785956E+03</pdfrwt>
<totfact> 0.32523120E+03</totfact>
</mgrwt>
</event>
<event>
 7    1  0.4230786E-006  0.2092140E+03  0.7546771E-02  0.1145981E+00
         -2   -1    0    0    0  501 -0.00000000000E+00  0.00000000000E+00  0.48370380047E+03  0.48370380047E+03  0.00000000000E+00 0.  1.
          2   -1    0    0  501    0  0.00000000000E+00 -0.00000000000E+00 -0.83488284318E+02  0.83488284318E+02  0.00000000000E+00 0. -1.
         23    2    1    2    0    0 -0.14093075362E+03 -0.90801573906E+02  0.23469772573E+03  0.31440979921E+03  0.12515628725E+03 0.  0.
          5    1    3    3  502    0 -0.50703161027E+02  0.72180881398E+01  0.88956891773E+01  0.52193243054E+02  0.47000000000E+01 0.  1.
         -5    1    3    3    0  502 -0.90227592595E+02 -0.98019662046E+02  0.22580203655E+03  0.26221655616E+03  0.47000000000E+01 0.  1.
        -11    1    1    2    0    0  0.67939664007E+02  0.17584402258E+02  0.17662215880E+02  0.72366864088E+02  0.00000000000E+00 0.  1.
         11    1    1    2    0    0  0.72991089614E+02  0.73217171649E+02  0.14785557455E+03  0.18041542149E+03  0.00000000000E+00 0. -1.
<mgrwt>
<rscale>  0 0.20451904E+03</rscale>
<asrwt>0</asrwt>
<pdfrwt beam="2">  1        2 0.12844352E-01 0.20921400E+03</pdfrwt>
<pdfrwt beam="1">  1       -2 0.74415968E-01 0.20921400E+03</pdfrwt>
<totfact> 0.78068894E+02</totfact>
</mgrwt>
</event>
<event>
 7    1  0.4230786E-006  0.1290234E+03  0.7546771E-02  0.1244385E+00
          1   -1    0    0  501    0  0.00000000000E+00  0.00000000000E+00  0.51905804273E+03  0.51905804273E+03  0.00000000000E+00 0. -1.
         -1   -1    0    0    0  501 -0.00000000000E+00 -0.00000000000E+00 -0.35719362218E+02  0.35719362218E+02  0.00000000000E+00 0.  1.
         23    2    1    2    0    0  0.90885447008E+01 -0.30649288357E+02  0.10931339336E+03  0.16910486276E+03  0.12500022448E+03 0.  0.
          5    1    3    3  502    0 -0.16724481148E+02 -0.73782090460E+02  0.82141029136E+02  0.11177094350E+03  0.47000000000E+01 0.  1.
         -5    1    3    3    0  502  0.25813025849E+02  0.43132802103E+02  0.27172364225E+02  0.57333919265E+02  0.47000000000E+01 0.  1.
        -11    1    1    2    0    0 -0.47028206858E+02  0.30615197450E+02  0.22600907784E+03  0.23287130743E+03  0.00000000000E+00 0.  1.
         11    1    1    2    0    0  0.37939662157E+02  0.34090906844E-01  0.14801620931E+03  0.15280123476E+03  0.00000000000E+00 0. -1.
<mgrwt>
<rscale>  0 0.11922283E+03</rscale>
<asrwt>0</asrwt>
<pdfrwt beam="1">  1        1 0.79855078E-01 0.12902340E+03</pdfrwt>
<pdfrwt beam="2">  1       -1 0.54952869E-02 0.12902340E+03</pdfrwt>
<totfact> 0.62770453E+03</totfact>
</mgrwt>
</event>
<event>
 7    1  0.4230786E-006  0.1385080E+03  0.7546771E-02  0.1226297E+00
          2   -1    0    0  501    0  0.00000000000E+00  0.00000000000E+00  0.32606241809E+02  0.32606241809E+02  0.00000000000E+00 0. -1.
         -2   -1    0    0    0  501 -0.00000000000E+00 -0.00000000000E+00 -0.50702703203E+03  0.50702703203E+03  0.00000000000E+00 0.  1.
         23    2    1    2    0    0  0.59121560399E+02  0.79902558323E+01 -0.33110489824E+03  0.35890797177E+03  0.12500110189E+03 0.  0.
          5    1    3    3  502    0  0.18894657734E+02 -0.30040387690E+02 -0.28348112247E+03  0.28573251439E+03  0.47000000000E+01 0. -1.
         -5    1    3    3    0  502  0.40226902665E+02  0.38030643523E+02 -0.47623775768E+02  0.73175457383E+02  0.47000000000E+01 0. -1.
        -11    1    1    2    0    0 -0.73239530814E+02 -0.33568043594E+02 -0.11106813866E+03  0.13721142026E+03  0.00000000000E+00 0.  1.
         11    1    1    2    0    0  0.14117970415E+02  0.25577787762E+02 -0.32247753328E+02  0.43513881810E+02  0.00000000000E+00 0. -1.
<mgrwt>
<rscale>  0 0.13078378E+03</rscale>
<asrwt>0</asrwt>
<pdfrwt beam="1">  1        2 0.50163451E-02 0.13850805E+03</pdfrwt>
<pdfrwt beam="2">  1       -2 0.78004156E-01 0.13850805E+03</pdfrwt>
<totfact> 0.22653421E+03</totfact>
</mgrwt>
</event>
<event>
 7    1  0.4230786E-006  0.1821519E+03  0.7546771E-02  0.1171191E+00
         -1   -1    0    0    0  501 -0.00000000000E+00  0.00000000000E+00  0.20966256190E+02  0.20966256190E+02  0.00000000000E+00 0.  1.
          1   -1    0    0  501    0  0.00000000000E+00 -0.00000000000E+00 -0.16919242554E+04  0.16919242554E+04  0.00000000000E+00 0. -1.
         23    2    1    2    0    0 -0.18643686708E+02 -0.13117359548E+03 -0.12327416966E+04  0.12461265578E+04  0.12500083362E+03 0.  0.
          5    1    3    3  502    0 -0.78722388178E+01 -0.10081941985E+03 -0.39545447711E+03  0.40820688508E+03  0.47000000000E+01 0. -1.
         -5    1    3    3    0  502 -0.10771447890E+02 -0.30354175638E+02 -0.83728721950E+03  0.83791967277E+03  0.47000000000E+01 0. -1.
        -11    1    1    2    0    0 -0.97443083175E+00  0.37450229394E+02 -0.31555637161E+02  0.48981909250E+02  0.00000000000E+00 0.  1.
         11    1    1    2    0    0  0.19618117539E+02  0.93723366090E+02 -0.40666066546E+03  0.41778204451E+03  0.00000000000E+00 0. -1.
<mgrwt>
<rscale>  0 0.17654338E+03</rscale>
<asrwt>0</asrwt>
<pdfrwt beam="2">  1        1 0.26029613E+00 0.18215188E+03</pdfrwt>
<pdfrwt beam="1">  1       -1 0.32255767E-02 0.18215188E+03</pdfrwt>
<totfact> 0.18163083E+03</totfact>
</mgrwt>
</event>
<event>
 7    1  0.4230786E-006  0.1863552E+03  0.7546771E-02  0.1166924E+00
         -3   -1    0    0    0  501 -0.00000000000E+00  0.00000000000E+00  0.80933656947E+02  0.80933656947E+02  0.00000000000E+00 0.  1.
          3   -1    0    0  501    0  0.00000000000E+00 -0.00000000000E+00 -0.42934097499E+03  0.42934097499E+03  0.00000000000E+00 0. -1.
         23    2    1    2    0    0 -0.58881171511E+02 -0.12504872477E+03 -0.99209233297E+02  0.21111784971E+03  0.12499639423E+03 0.  0.
          5    1    3    3  502    0 -0.53910520266E+02 -0.55456307229E+02 -0.11572140414E+03  0.13926693643E+03  0.47000000000E+01 0.  1.
         -5    1    3    3    0  502 -0.49706512448E+01 -0.69592417537E+02  0.16512170846E+02  0.71850913275E+02  0.47000000000E+01 0.  1.
        -11    1    1    2    0    0  0.40917990299E+02  0.41945435575E+02 -0.33943101167E+02  0.67718798073E+02  0.00000000000E+00 0.  1.
         11    1    1    2    0    0  0.17963181212E+02  0.83103289190E+02 -0.21525498358E+03  0.23143798415E+03  0.00000000000E+00 0. -1.
<mgrwt>
<rscale>  0 0.18091114E+03</rscale>
<asrwt>0</asrwt>
<pdfrwt beam="2">  1        3 0.66052457E-01 0.18635524E+03</pdfrwt>
<pdfrwt beam="1">  1       -3 0.12451332E-01 0.18635524E+03</pdfrwt>
<totfact> 0.27858788E+02</totfact>
</mgrwt>
</event>
<event>
 7    1  0.4230786E-006  0.1359753E+03  0.7546771E-02  0.1231218E+00
          1   -1    0    0  501    0  0.00000000000E+00  0.00000000000E+00  0.22391673335E+03  0.22391673335E+03  0.00000000000E+00 0. -1.
         -1   -1    0    0    0  501 -0.00000000000E+00 -0.00000000000E+00 -0.65757598815E+02  0.65757598815E+02  0.00000000000E+00 0.  1.
         23    2    1    2    0    0  0.53429943345E+02 -0.26825984120E+01  0.72564050570E+02  0.15412597830E+03  0.12500928194E+03 0.  0.
          5    1    3    3  502    0 -0.34450691625E+02 -0.35410572864E+01  0.53771565082E+02  0.64131587003E+02  0.47000000000E+01 0. -1.
         -5    1    3    3    0  502  0.87880634970E+02  0.85845887434E+00  0.18792485488E+02  0.89994391298E+02  0.47000000000E+01 0. -1.
        -11    1    1    2    0    0 -0.25897537810E+01 -0.16379431807E+02  0.79152771096E+02  0.80871217272E+02  0.00000000000E+00 0. -1.
         11    1    1    2    0    0 -0.50840189564E+02  0.19062030219E+02  0.64423128701E+01  0.54677136593E+02  0.00000000000E+00 0.  1.
<mgrwt>
<rscale>  0 0.12749692E+03</rscale>
<asrwt>0</asrwt>
<pdfrwt beam="1">  1        1 0.34448728E-01 0.13597528E+03</pdfrwt>
<pdfrwt beam="2">  1       -1 0.10116554E-01 0.13597528E+03</pdfrwt>
<totfact> 0.72218876E+03</totfact>
</mgrwt>
</event>
<event>
 7    1  0.4230786E-006  0.2255688E+03  0.7546771E-02  0.1132914E+00
          3   -1    0    0  501    0  0.00000000000E+00  0.00000000000E+00  0.27044364976E+03  0.27044364976E+03  0.00000000000E+00 0. -1.
         -3   -1    0    0    0  501 -0.00000000000E+00 -0.00000000000E+00 -0.18314801797E+03  0.18314801797E+03  0.00000000000E+00 0.  1.
         23    2    1    2    0    0  0.55185110819E+02 -0.17947624944E+03 -0.38231830242E+01  0.22560116873E+03  0.12499660010E+03 0.  0.
          5    1    3    3  502    0  0.95353676815E+02 -0.13621740186E+03 -0.36353452851E+01  0.16638151937E+03  0.47000000000E+01 0.  1.
         -5    1    3    3    0  502 -0.40168565996E+02 -0.43258847576E+02 -0.18783773912E+00  0.59219649364E+02  0.47000000000E+01 0.  1.
        -11    1    1    2    0    0 -0.11774725343E+02  0.23407332978E+02 -0.18779205193E+02  0.32236717292E+02  0.00000000000E+00 0.  1.
         11    1    1    2    0    0 -0.43410385477E+02  0.15606891646E+03  0.10989802001E+03  0.19575378171E+03  0.00000000000E+00 0. -1.
<mgrwt>
<rscale>  0 0.22130482E+03</rscale>
<asrwt>0</asrwt>
<pdfrwt beam="1">  1        3 0.41606716E-01 0.22556877E+03</pdfrwt>
<pdfrwt beam="2">  1       -3 0.28176618E-01 0.22556877E+03</pdfrwt>
<totfact> 0.17147030E+02</totfact>
</mgrwt>
</event>
<event>
 7    1  0.4230786E-006  0.1593644E+03  0.7546771E-02  0.1194858E+00
         -2   -1    0    0    0  501 -0.00000000000E+00  0.00000000000E+00  0.92908364484E+02  0.92908364484E+02  0.00000000000E+00 0.  1.
          2   -1    0    0  501    0  0.00000000000E+00 -0.00000000000E+00 -0.37699073998E+03  0.37699073998E+03  0.00000000000E+00 0. -1.
         23    2    1    2    0    0  0.52834393991E+02 -0.94201439162E+02 -0.78093931569E+01  0.15955563787E+03  0.11718204054E+03 0.  0.
          5    1    3    3  502    0  0.36555617205E+02 -0.46524745983E+02 -0.61713698557E+02  0.85624387458E+02  0.47000000000E+01 0. -1.
         -5    1    3    3    0  502  0.16278776786E+02 -0.47676693180E+02  0.53904305400E+02  0.73931250408E+02  0.47000000000E+01 0.  1.
        -11    1    1    2    0    0 -0.23683558182E+02  0.10387353437E+03 -0.17868008225E+03  0.20803171360E+03  0.00000000000E+00 0. -1.
         11    1    1    2    0    0 -0.29150835808E+02 -0.96720952065E+01 -0.97592900090E+02  0.10231175300E+03  0.00000000000E+00 0.  1.
<mgrwt>
<rscale>  0 0.15466252E+03</rscale>
<asrwt>0</asrwt>
<pdfrwt beam="2">  1        2 0.57998575E-01 0.15936441E+03</pdfrwt>
<pdfrwt beam="1">  1       -2 0.14293595E-01 0.15936441E+03</pdfrwt>
<totfact> 0.30870644E+03</totfact>
</mgrwt>
</event>
<event>
 7    1  0.4230786E-006  0.2246467E+03  0.7546771E-02  0.1133691E+00
         -1   -1    0    0    0  501 -0.00000000000E+00  0.00000000000E+00  0.11334487966E+03  0.11334487966E+03  0.00000000000E+00 0.  1.
          1   -1    0    0  501    0  0.00000000000E+00 -0.00000000000E+00 -0.93483897266E+03  0.93483897266E+03  0.00000000000E+00 0. -1.
         23    2    1    2    0    0 -0.86979626576E+02 -0.16514896425E+03 -0.26116514898E+02  0.22615966242E+03  0.12500593874E+03 0.  0.
          5    1    3    3  502    0 -0.19835322455E+02 -0.14345151432E+03  0.12769728846E+02  0.14545422975E+03  0.47000000000E+01 0. -1.
         -5    1    3    3    0  502 -0.67144304120E+02 -0.21697449933E+02 -0.38886243743E+02  0.80705432666E+02  0.47000000000E+01 0. -1.
        -11    1    1    2    0    0 -0.13153702991E+02  0.19443693400E+02 -0.41364608199E+02  0.47561622416E+02  0.00000000000E+00 0.  1.
         11    1    1    2    0    0  0.10013332957E+03  0.14570527085E+03 -0.75401296991E+03  0.77446256749E+03  0.00000000000E+00 0. -1.
<mgrwt>
<rscale>  0 0.22025839E+03</rscale>
<asrwt>0</asrwt>
<pdfrwt beam="2">  1        1 0.14382138E+00 0.22464666E+03</pdfrwt>
<pdfrwt beam="1">  1       -1 0.17437674E-01 0.22464666E+03</pdfrwt>
<totfact> 0.45682856E+02</totfact>
</mgrwt>
</event>
<event>
 7    1  0.4230786E-006  0.1975113E+03  0.7546771E-02  0.1155131E+00
         -1   -1    0    0    0  501 -0.00000000000E+00  0.00000000000E+00  0.10652509872E+03  0.10652509872E+03  0.00000000000E+00 0.  1.
          1   -1    0    0  501    0  0.00000000000E+00 -0.00000000000E+00 -0.51463392966E+03  0.51463392966E+03  0.00000000000E+00 0. -1.
         23    2    1    2    0    0  0.14261587847E+03 -0.55213706046E+02 -0.28170522042E+02  0.19951010587E+03  0.12499144733E+03 0.  0.
          5    1    3    3  502    0  0.25229609125E+02  0.19445770918E+02  0.34205831439E+02  0.46976590847E+02  0.47000000000E+01 0. -1.
         -5    1    3    3    0  502  0.11738626934E+03 -0.74659476964E+02 -0.62376353481E+02  0.15253351502E+03  0.47000000000E+01 0. -1.
        -11    1    1    2    0    0 -0.58930218178E+02 -0.19943689219E+01 -0.52746491065E+02  0.79113465614E+02  0.00000000000E+00 0. -1.
         11    1    1    2    0    0 -0.83685660292E+02  0.57208074968E+02 -0.32719181783E+03  0.34253545690E+03  0.00000000000E+00 0.  1.
<mgrwt>
<rscale>  0 0.19373969E+03</rscale>
<asrwt>0</asrwt>
<pdfrwt beam="2">  1        1 0.79174451E-01 0.19751128E+03</pdfrwt>
<pdfrwt beam="1">  1       -1 0.16388477E-01 0.19751128E+03</pdfrwt>
<totfact> 0.12087050E+03</totfact>
</mgrwt>
</event>
<event>
 7    1  0.4330573E-006  0.1677484E+03  0.7546771E-02  0.1187910E+00
         -1   -1    0    0    0  501 -0.00000000000E+00  0.00000000000E+00  0.87248051127E+02  0.87248051127E+02  0.00000000000E+00 0.  1.
          1   -1    0    0  501    0  0.00000000000E+00 -0.00000000000E+00 -0.29874918713E+03  0.29874918713E+03  0.00000000000E+00 0. -1.
         23    2    1    2    0    0 -0.11186685313E+03 -0.77098796875E+00 -0.58279189296E+02  0.17758371652E+03  0.12499890086E+03 0.  0.
          5    1    3    3  502    0 -0.11707723702E+03  0.25726108255E+02 -0.78638012308E+02  0.14343967043E+03  0.47000000000E+01 0.  1.
         -5    1    3    3    0  502  0.52103838910E+01 -0.26497096224E+02  0.20358823012E+02  0.34144046084E+02  0.47000000000E+01 0.  1.
        -11    1    1    2    0    0  0.35428251561E+02  0.54516356903E+01  0.13927636595E+01  0.35872289179E+02  0.00000000000E+00 0. -1.
         11    1    1    2    0    0  0.76438601566E+02 -0.46806477215E+01 -0.15461471036E+03  0.17254123256E+03  0.00000000000E+00 0.  1.
<mgrwt>
<rscale>  0 0.16069845E+03</rscale>
<asrwt>0</asrwt>
<pdfrwt beam="2">  1        1 0.45961413E-01 0.16774836E+03</pdfrwt>
<pdfrwt beam="1">  1       -1 0.13422777E-01 0.16774836E+03</pdfrwt>
<totfact> 0.33011686E+03</totfact>
</mgrwt>
</event>
<event>
 7    1  0.4230786E-006  0.1342401E+03  0.7546771E-02  0.1234260E+00
          1   -1    0    0  501    0  0.00000000000E+00  0.00000000000E+00  0.36914498305E+03  0.36914498305E+03  0.00000000000E+00 0. -1.
         -1   -1    0    0    0  501 -0.00000000000E+00 -0.00000000000E+00 -0.53173359765E+02  0.53173359765E+02  0.00000000000E+00 0.  1.
         23    2    1    2    0    0  0.45916074982E+02  0.17095572067E+02  0.60952919672E+02  0.14743018269E+03  0.12497942160E+03 0.  0.
          5    1    3    3  502    0  0.32199543529E+02 -0.52981470851E+02  0.34707866486E+02  0.71207954984E+02  0.47000000000E+01 0. -1.
         -5    1    3    3    0  502  0.13716531453E+02  0.70077042918E+02  0.26245053186E+02  0.76222227703E+02  0.47000000000E+01 0. -1.
        -11    1    1    2    0    0 -0.10017909620E+02  0.30953897001E+02  0.15405209671E+03  0.15745015323E+03  0.00000000000E+00 0. -1.
         11    1    1    2    0    0 -0.35898165362E+02 -0.48049469068E+02  0.10096660691E+03  0.11743800690E+03  0.00000000000E+00 0.  1.
<mgrwt>
<rscale>  0 0.12551911E+03</rscale>
<asrwt>0</asrwt>
<pdfrwt beam="1">  1        1 0.56791534E-01 0.13424008E+03</pdfrwt>
<pdfrwt beam="2">  1       -1 0.81805171E-02 0.13424008E+03</pdfrwt>
<totfact> 0.53611073E+03</totfact>
</mgrwt>
</event>
<event>
 7    1  0.4230786E-006  0.2013404E+03  0.7546771E-02  0.1153042E+00
         -2   -1    0    0    0  501 -0.00000000000E+00  0.00000000000E+00  0.31081999287E+02  0.31081999287E+02  0.00000000000E+00 0.  1.
          2   -1    0    0  501    0  0.00000000000E+00 -0.00000000000E+00 -0.11981827561E+04  0.11981827561E+04  0.00000000000E+00 0. -1.
         23    2    1    2    0    0 -0.68523752088E+02  0.14218521433E+03 -0.53334329511E+03  0.57008158107E+03  0.12500319541E+03 0.  0.
          5    1    3    3  502    0 -0.60532565024E+02  0.31301517804E+02 -0.34184518754E+03  0.34860321096E+03  0.47000000000E+01 0. -1.
         -5    1    3    3    0  502 -0.79911870642E+01  0.11088369652E+03 -0.19149810757E+03  0.22147837011E+03  0.47000000000E+01 0. -1.
        -11    1    1    2    0    0  0.83768492132E+02 -0.10782025357E+03 -0.55990705538E+03  0.57631439165E+03  0.00000000000E+00 0. -1.
         11    1    1    2    0    0 -0.15244740044E+02 -0.34364960755E+02 -0.73850406292E+02  0.82868782640E+02  0.00000000000E+00 0.  1.
<mgrwt>
<rscale>  0 0.19613477E+03</rscale>
<asrwt>0</asrwt>
<pdfrwt beam="2">  1        2 0.18433581E+00 0.20134036E+03</pdfrwt>
<pdfrwt beam="1">  1       -2 0.47818461E-02 0.20134036E+03</pdfrwt>
<totfact> 0.41694964E+03</totfact>
</mgrwt>
</event>
<event>
 7    1  0.1004271E-005  0.2357204E+03  0.7546771E-02  0.1125380E+00
         -1   -1    0    0    0  501 -0.00000000000E+00  0.00000000000E+00  0.40799514317E+02  0.40799514317E+02  0.00000000000E+00 0.  1.
          1   -1    0    0  501    0  0.00000000000E+00 -0.00000000000E+00 -0.12811866308E+04  0.12811866308E+04  0.00000000000E+00 0. -1.
         23    2    1    2    0    0 -0.98475210442E+02 -0.17390048091E+03 -0.68706393441E+03  0.72637522395E+03  0.12500148663E+03 0.  0.
          5    1    3    3  502    0  0.31422365608E+01 -0.72684719750E+02 -0.11170441094E+03  0.13339005794E+03  0.47000000000E+01 0.  1.
         -5    1    3    3    0  502 -0.10161744700E+03 -0.10121576116E+03 -0.57535952348E+03  0.59298516600E+03  0.47000000000E+01 0.  1.
        -11    1    1    2    0    0 -0.62004426692E+00  0.60422506298E+02 -0.24646756623E+03  0.25376667418E+03  0.00000000000E+00 0. -1.
         11    1    1    2    0    0  0.99095254709E+02  0.11347797461E+03 -0.30685561586E+03  0.34184424701E+03  0.00000000000E+00 0.  1.
<mgrwt>
<rscale>  0 0.23179902E+03</rscale>
<asrwt>0</asrwt>
<pdfrwt beam="2">  1        1 0.19710562E+00 0.23572042E+03</pdfrwt>
<pdfrwt beam="1">  1       -1 0.62768487E-02 0.23572042E+03</pdfrwt>
<totfact> 0.12566094E+03</totfact>
</mgrwt>
</event>
<event>
 7    1  0.4230786E-006  0.1693852E+03  0.7546771E-02  0.1184708E+00
         -2   -1    0    0    0  501 -0.00000000000E+00  0.00000000000E+00  0.33840865761E+03  0.33840865761E+03  0.00000000000E+00 0.  1.
          2   -1    0    0  501    0  0.00000000000E+00 -0.00000000000E+00 -0.10326926787E+03  0.10326926787E+03  0.00000000000E+00 0. -1.
         23    2    1    2    0    0  0.10592324715E+03 -0.43003267257E+02  0.24057980920E+03  0.29422778724E+03  0.12498932317E+03 0.  0.
          5    1    3    3  502    0  0.20747838687E+02  0.63109447547E+01  0.17376747436E+03  0.17517855456E+03  0.47000000000E+01 0. -1.
         -5    1    3    3    0  502  0.85175408464E+02 -0.49314212012E+02  0.66812334845E+02  0.11904923268E+03  0.47000000000E+01 0. -1.
        -11    1    1    2    0    0 -0.10898670821E+02 -0.25033554310E+02 -0.13191857873E+02  0.30323010754E+02  0.00000000000E+00 0.  1.
         11    1    1    2    0    0 -0.95024576330E+02  0.68036821568E+02  0.77514384122E+01  0.11712712749E+03  0.00000000000E+00 0. -1.
<mgrwt>
<rscale>  0 0.16358517E+03</rscale>
<asrwt>0</asrwt>
<pdfrwt beam="2">  1        2 0.15887580E-01 0.16938520E+03</pdfrwt>
<pdfrwt beam="1">  1       -2 0.52062870E-01 0.16938520E+03</pdfrwt>
<totfact> 0.12685950E+03</totfact>
</mgrwt>
</event>
<event>
 7    1  0.4230786E-006  0.1276250E+03  0.7546771E-02  0.1246125E+00
         -2   -1    0    0    0  501 -0.00000000000E+00  0.00000000000E+00  0.50401431928E+02  0.50401431928E+02  0.00000000000E+00 0.  1.
          2   -1    0    0  501    0  0.00000000000E+00 -0.00000000000E+00 -0.24652382473E+03  0.24652382473E+03  0.00000000000E+00 0. -1.
         23    2    1    2    0    0  0.12240663807E+02 -0.22638051364E+02 -0.12962896990E+03  0.18191152579E+03  0.12500327258E+03 0.  0.
          5    1    3    3  502    0 -0.52079164506E+02 -0.23002682974E+02 -0.33721849479E+02  0.66337138406E+02  0.47000000000E+01 0. -1.
         -5    1    3    3    0  502  0.64319828313E+02  0.36463161062E+00 -0.95907120425E+02  0.11557438738E+03  0.47000000000E+01 0. -1.
        -11    1    1    2    0    0  0.35647571690E+02  0.34962010981E+01 -0.48709285618E+02  0.60461287573E+02  0.00000000000E+00 0. -1.
         11    1    1    2    0    0 -0.47888235497E+02  0.19141850266E+02 -0.17784137276E+02  0.54552443293E+02  0.00000000000E+00 0.  1.
<mgrwt>
<rscale>  0 0.11818270E+03</rscale>
<asrwt>0</asrwt>
<pdfrwt beam="2">  1        2 0.37926743E-01 0.12762497E+03</pdfrwt>
<pdfrwt beam="1">  1       -2 0.77540664E-02 0.12762497E+03</pdfrwt>
<totfact> 0.12583617E+04</totfact>
</mgrwt>
</event>
<event>
 7    1  0.4230786E-006  0.1403202E+03  0.7546771E-02  0.1224738E+00
          1   -1    0    0  501    0  0.00000000000E+00  0.00000000000E+00  0.17474673335E+02  0.17474673335E+02  0.00000000000E+00 0. -1.
         -1   -1    0    0    0  501 -0.00000000000E+00 -0.00000000000E+00 -0.11532642653E+04  0.11532642653E+04  0.00000000000E+00 0.  1.
         23    2    1    2    0    0 -0.56085471168E+02 -0.30302107136E+02 -0.89926234544E+03  0.91014423034E+03  0.12500382522E+03 0.  0.
          5    1    3    3  502    0  0.28374707848E+02  0.21119457870E+02 -0.36894042737E+03  0.37066195447E+03  0.47000000000E+01 0. -1.
         -5    1    3    3    0  502 -0.84460179016E+02 -0.51421565006E+02 -0.53032191807E+03  0.53948227586E+03  0.47000000000E+01 0. -1.
        -11    1    1    2    0    0  0.29530936980E+02 -0.23382308288E+02 -0.15452125099E+03  0.15904598576E+03  0.00000000000E+00 0.  1.
         11    1    1    2    0    0  0.26554534188E+02  0.53684415424E+02 -0.82005995557E+02  0.10154872256E+03  0.00000000000E+00 0. -1.
<mgrwt>
<rscale>  0 0.13184898E+03</rscale>
<asrwt>0</asrwt>
<pdfrwt beam="1">  1        1 0.26884113E-02 0.14032018E+03</pdfrwt>
<pdfrwt beam="2">  1       -1 0.17742527E+00 0.14032018E+03</pdfrwt>
<totfact> 0.93293244E+02</totfact>
</mgrwt>
</event>
<event>
 7    1  0.4230786E-006  0.1258067E+03  0.7546771E-02  0.1249343E+00
          3   -1    0    0  501    0  0.00000000000E+00  0.00000000000E+00  0.55180311543E+02  0.55180311543E+02  0.00000000000E+00 0. -1.
         -3   -1    0    0    0  501 -0.00000000000E+00 -0.00000000000E+00 -0.23637487322E+03  0.23637487322E+03  0.00000000000E+00 0.  1.
         23    2    1    2    0    0  0.42625594279E+01  0.13560537016E+02 -0.14714662180E+03  0.19359613031E+03  0.12500110315E+03 0.  0.
          5    1    3    3  502    0 -0.23491585282E+02  0.51088588550E+02 -0.23094386688E+02  0.60969985694E+02  0.47000000000E+01 0. -1.
         -5    1    3    3    0  502  0.27754144710E+02 -0.37528051534E+02 -0.12405223511E+03  0.13262614462E+03  0.47000000000E+01 0. -1.
        -11    1    1    2    0    0  0.42044602760E+02 -0.10264390763E+02 -0.26978721403E+02  0.50999585758E+02  0.00000000000E+00 0.  1.
         11    1    1    2    0    0 -0.46307162188E+02 -0.32961462531E+01 -0.70692184751E+01  0.46959468692E+02  0.00000000000E+00 0. -1.
<mgrwt>
<rscale>  0 0.11629193E+03</rscale>
<asrwt>0</asrwt>
<pdfrwt beam="1">  1        3 0.84892787E-02 0.12580673E+03</pdfrwt>
<pdfrwt beam="2">  1       -3 0.36365365E-01 0.12580673E+03</pdfrwt>
<totfact> 0.16368682E+03</totfact>
</mgrwt>
</event>
<event>
 6    1  0.4230786E-006  0.1719870E+03  0.7546771E-02  0.1191953E+00
         -1   -1    0    0    0  501 -0.00000000000E+00  0.00000000000E+00  0.86321237282E+03  0.86321237282E+03  0.00000000000E+00 0.  1.
          1   -1    0    0  501    0  0.00000000000E+00 -0.00000000000E+00 -0.25745795641E+02  0.25745795641E+02  0.00000000000E+00 0. -1.
          5    1    1    2  502    0  0.68071989684E+02 -0.22225810612E+01  0.21868444250E+03  0.22909323656E+03  0.47000000000E+01 0. -1.
         -5    1    1    2    0  502 -0.10012094958E+03 -0.26133063013E+02  0.36104269926E+03  0.37560759074E+03  0.47000000000E+01 0.  1.
        -11    1    1    2    0    0  0.16074510947E+02  0.64754313094E+02  0.21827381523E+03  0.22824322417E+03  0.00000000000E+00 0. -1.
         11    1    1    2    0    0  0.15974448952E+02 -0.36398669020E+02  0.39465620192E+02  0.56014116997E+02  0.00000000000E+00 0.  1.
<mgrwt>
<rscale>  0 0.15714976E+03</rscale>
<asrwt>0</asrwt>
<pdfrwt beam="2">  1        1 0.39608923E-02 0.17198701E+03</pdfrwt>
<pdfrwt beam="1">  1       -1 0.13280188E+00 0.17198701E+03</pdfrwt>
<totfact> 0.11753948E+03</totfact>
</mgrwt>
</event>
<event>
 7    1  0.4230786E-006  0.1371430E+03  0.7546771E-02  0.1225851E+00
         -3   -1    0    0    0  501 -0.00000000000E+00  0.00000000000E+00  0.83746533499E+02  0.83746533499E+02  0.00000000000E+00 0.  1.
          3   -1    0    0  501    0  0.00000000000E+00 -0.00000000000E+00 -0.21162518989E+03  0.21162518989E+03  0.00000000000E+00 0. -1.
         23    2    1    2    0    0  0.31069349967E+02 -0.64968396827E+02 -0.20973516876E+02  0.13873747453E+03  0.11671332972E+03 0.  0.
          5    1    3    3  502    0  0.75090921706E+02 -0.44553980648E+02 -0.21248296131E+02  0.89984908750E+02  0.47000000000E+01 0. -1.
         -5    1    3    3    0  502 -0.44021571739E+02 -0.20414416178E+02  0.27477925546E+00  0.48752565778E+02  0.47000000000E+01 0.  1.
        -11    1    1    2    0    0 -0.47061906917E+01 -0.22109482142E+02 -0.29608630427E+02  0.37251153367E+02  0.00000000000E+00 0.  1.
         11    1    1    2    0    0 -0.26363159275E+02  0.87077878969E+02 -0.77296509090E+02  0.11938309550E+03  0.00000000000E+00 0. -1.
<mgrwt>
<rscale>  0 0.13108779E+03</rscale>
<asrwt>0</asrwt>
<pdfrwt beam="2">  1        3 0.32557721E-01 0.13714299E+03</pdfrwt>
<pdfrwt beam="1">  1       -3 0.12884082E-01 0.13714299E+03</pdfrwt>
<totfact> 0.10243705E+03</totfact>
</mgrwt>
</event>
<event>
 7    1  0.4230786E-006  0.1401646E+03  0.7546771E-02  0.1224554E+00
         -2   -1    0    0    0  501 -0.00000000000E+00  0.00000000000E+00  0.35843614589E+03  0.35843614589E+03  0.00000000000E+00 0.  1.
          2   -1    0    0  501    0  0.00000000000E+00 -0.00000000000E+00 -0.44460183026E+02  0.44460183026E+02  0.00000000000E+00 0. -1.
         23    2    1    2    0    0  0.61886784119E+02  0.13804309869E+02  0.20149331463E+03  0.24544994709E+03  0.12500235064E+03 0.  0.
          5    1    3    3  502    0  0.87246402902E+00  0.10048203201E+02  0.18020610710E+03  0.18054932461E+03  0.47000000000E+01 0. -1.
         -5    1    3    3    0  502  0.61014320090E+02  0.37561066685E+01  0.21287207531E+02  0.64900622476E+02  0.47000000000E+01 0. -1.
        -11    1    1    2    0    0 -0.28670434106E+02 -0.47862981441E+02  0.87332939880E+02  0.10363349445E+03  0.00000000000E+00 0.  1.
         11    1    1    2    0    0 -0.33216350014E+02  0.34058671571E+02  0.25149708348E+02  0.53812887373E+02  0.00000000000E+00 0. -1.
<mgrwt>
<rscale>  0 0.13197534E+03</rscale>
<asrwt>0</asrwt>
<pdfrwt beam="2">  1        2 0.68400284E-02 0.14016462E+03</pdfrwt>
<pdfrwt beam="1">  1       -2 0.55144021E-01 0.14016462E+03</pdfrwt>
<totfact> 0.31425578E+03</totfact>
</mgrwt>
</event>
<event>
 7    1  0.4230786E-006  0.1316655E+03  0.7546771E-02  0.1238744E+00
          2   -1    0    0  501    0  0.00000000000E+00  0.00000000000E+00  0.86787442665E+02  0.86787442665E+02  0.00000000000E+00 0. -1.
         -2   -1    0    0    0  501 -0.00000000000E+00 -0.00000000000E+00 -0.23135797936E+03  0.23135797936E+03  0.00000000000E+00 0.  1.
         23    2    1    2    0    0 -0.29267460814E+02 -0.29276761196E+02 -0.17065566106E+03  0.21554384312E+03  0.12498832204E+03 0.  0.
          5    1    3    3  502    0 -0.66155164701E+00  0.38500504372E+02 -0.12011143408E+02  0.40608915936E+02  0.47000000000E+01 0.  1.
         -5    1    3    3    0  502 -0.28605909167E+02 -0.67777265568E+02 -0.15864451766E+03  0.17493492719E+03  0.47000000000E+01 0.  1.
        -11    1    1    2    0    0  0.43263434202E+02 -0.48153877660E+01  0.43764442812E+02  0.61727134657E+02  0.00000000000E+00 0. -1.
         11    1    1    2    0    0 -0.13995973388E+02  0.34092148962E+02 -0.17679318445E+02  0.40874444248E+02  0.00000000000E+00 0.  1.
<mgrwt>
<rscale>  0 0.12267751E+03</rscale>
<asrwt>0</asrwt>
<pdfrwt beam="1">  1        2 0.13351914E-01 0.13166546E+03</pdfrwt>
<pdfrwt beam="2">  1       -2 0.35593535E-01 0.13166546E+03</pdfrwt>
<totfact> 0.31991863E+03</totfact>
</mgrwt>
</event>
<event>
 7    1  0.4230786E-006  0.2127627E+03  0.7546771E-02  0.1143057E+00
         -1   -1    0    0    0  501 -0.00000000000E+00  0.00000000000E+00  0.40470746343E+03  0.40470746343E+03  0.00000000000E+00 0.  1.
          1   -1    0    0  501    0  0.00000000000E+00 -0.00000000000E+00 -0.10959572610E+03  0.10959572610E+03  0.00000000000E+00 0. -1.
         23    2    1    2    0    0 -0.13002486500E+02 -0.17167632693E+03  0.88823004188E+02  0.23055912707E+03  0.12500463639E+03 0.  0.
          5    1    3    3  502    0 -0.75913432031E+01 -0.17511102988E+03  0.11064799827E+03  0.20733203033E+03  0.47000000000E+01 0. -1.
         -5    1    3    3    0  502 -0.54111432973E+01  0.34347029504E+01 -0.21824994086E+02  0.23227096741E+02  0.47000000000E+01 0. -1.
        -11    1    1    2    0    0 -0.33247475394E+02  0.31947808934E+02  0.34887272043E+02  0.57820228869E+02  0.00000000000E+00 0. -1.
         11    1    1    2    0    0  0.46249961895E+02  0.13972851800E+03  0.17140146111E+03  0.22592383359E+03  0.00000000000E+00 0.  1.
<mgrwt>
<rscale>  0 0.20812835E+03</rscale>
<asrwt>0</asrwt>
<pdfrwt beam="2">  1        1 0.16860881E-01 0.21276274E+03</pdfrwt>
<pdfrwt beam="1">  1       -1 0.62262686E-01 0.21276274E+03</pdfrwt>
<totfact> 0.86165561E+02</totfact>
</mgrwt>
</event>
<event>
 6    1  0.4230786E-006  0.1985725E+03  0.7546771E-02  0.1166220E+00
          2   -1    0    0  501    0  0.00000000000E+00  0.00000000000E+00  0.44531143611E+03  0.44531143611E+03  0.00000000000E+00 0. -1.
         -2   -1    0    0    0  501 -0.00000000000E+00 -0.00000000000E+00 -0.82572770293E+02  0.82572770293E+02  0.00000000000E+00 0.  1.
          5    1    1    2  502    0 -0.47352996108E+02  0.55134704714E+02  0.10164800812E+03  0.12504618930E+03  0.47000000000E+01 0. -1.
         -5    1    1    2    0  502  0.73611021945E+02  0.47804707606E+02 -0.19187287968E+02  0.89967297618E+02  0.47000000000E+01 0.  1.
        -11    1    1    2    0    0 -0.12058773011E+02 -0.11183698538E+03  0.27166102958E+03  0.29402829846E+03  0.00000000000E+00 0. -1.
         11    1    1    2    0    0 -0.14199252827E+02  0.88975730561E+01  0.86169160892E+01  0.18842421023E+02  0.00000000000E+00 0.  1.
<mgrwt>
<rscale>  0 0.18164561E+03</rscale>
<asrwt>0</asrwt>
<pdfrwt beam="1">  1        2 0.68509450E-01 0.19857248E+03</pdfrwt>
<pdfrwt beam="2">  1       -2 0.12703503E-01 0.19857248E+03</pdfrwt>
<totfact> 0.31488383E+03</totfact>
</mgrwt>
</event>
<event>
 7    1  0.4230786E-006  0.1488919E+03  0.7546771E-02  0.1211956E+00
          2   -1    0    0  501    0  0.00000000000E+00  0.00000000000E+00  0.38346164599E+03  0.38346164599E+03  0.00000000000E+00 0. -1.
         -2   -1    0    0    0  501 -0.00000000000E+00 -0.00000000000E+00 -0.47984878296E+02  0.47984878296E+02  0.00000000000E+00 0.  1.
         23    2    1    2    0    0 -0.62198953406E+02 -0.51716266709E+02  0.15606826332E+03  0.21569906653E+03  0.12500200974E+03 0.  0.
          5    1    3    3  502    0 -0.35214084284E+02  0.12088632903E+02  0.13930130524E+03  0.14426749606E+03  0.47000000000E+01 0.  1.
         -5    1    3    3    0  502 -0.26984869121E+02 -0.63804899613E+02  0.16766958077E+02  0.71431570466E+02  0.47000000000E+01 0.  1.
        -11    1    1    2    0    0 -0.19690382969E+02  0.26175576236E+02  0.36246816320E+02  0.48853901237E+02  0.00000000000E+00 0.  1.
         11    1    1    2    0    0  0.81889336374E+02  0.25540690473E+02  0.14316168805E+03  0.16689355652E+03  0.00000000000E+00 0. -1.
<mgrwt>
<rscale>  0 0.14102491E+03</rscale>
<asrwt>0</asrwt>
<pdfrwt beam="1">  1        2 0.58994097E-01 0.14889185E+03</pdfrwt>
<pdfrwt beam="2">  1       -2 0.73822892E-02 0.14889185E+03</pdfrwt>
<totfact> 0.85870133E+03</totfact>
</mgrwt>
</event>
<event>
 7    1  0.4230786E-006  0.1773512E+03  0.7546771E-02  0.1176369E+00
          1   -1    0    0  501    0  0.00000000000E+00  0.00000000000E+00  0.38999235674E+02  0.38999235674E+02  0.00000000000E+00 0. -1.
         -1   -1    0    0    0  501 -0.00000000000E+00 -0.00000000000E+00 -0.15639288863E+04  0.15639288863E+04  0.00000000000E+00 0.  1.
         23    2    1    2    0    0 -0.11167703329E+03  0.57950249701E+02 -0.13784131312E+04  0.13897755937E+04  0.12499379764E+03 0.  0.
          5    1    3    3  502    0  0.24718914186E+02  0.25606034984E+02 -0.35148707067E+03  0.35331564442E+03  0.47000000000E+01 0. -1.
         -5    1    3    3    0  502 -0.13639594747E+03  0.32344214717E+02 -0.10269260605E+04  0.10364599493E+04  0.47000000000E+01 0. -1.
        -11    1    1    2    0    0  0.12648018540E+03 -0.45771360428E+02 -0.13603241093E+03  0.19130361094E+03  0.00000000000E+00 0. -1.
         11    1    1    2    0    0 -0.14803152118E+02 -0.12178889273E+02 -0.10484108495E+02  0.21848917307E+02  0.00000000000E+00 0.  1.
<mgrwt>
<rscale>  0 0.17142615E+03</rscale>
<asrwt>0</asrwt>
<pdfrwt beam="1">  1        1 0.59998832E-02 0.17735118E+03</pdfrwt>
<pdfrwt beam="2">  1       -1 0.24060441E+00 0.17735118E+03</pdfrwt>
<totfact> 0.11906035E+02</totfact>
</mgrwt>
</event>
<event>
 7    1  0.4230786E-006  0.1699336E+03  0.7546771E-02  0.1184956E+00
          2   -1    0    0  501    0  0.00000000000E+00  0.00000000000E+00  0.75397659658E+03  0.75397659658E+03  0.00000000000E+00 0. -1.
         -2   -1    0    0    0  501 -0.00000000000E+00 -0.00000000000E+00 -0.34042625780E+02  0.34042625780E+02  0.00000000000E+00 0.  1.
         23    2    1    2    0    0 -0.66210377102E+02 -0.94172583039E+02  0.31578375696E+03  0.35860399538E+03  0.12500061962E+03 0.  0.
          5    1    3    3  502    0  0.33909677988E+02 -0.18676109097E+02  0.41323581384E+02  0.56818937782E+02  0.47000000000E+01 0.  1.
         -5    1    3    3    0  502 -0.10012005509E+03 -0.75496473942E+02  0.27446017558E+03  0.30178505759E+03  0.47000000000E+01 0.  1.
        -11    1    1    2    0    0  0.72016134022E+02  0.41204283408E+02  0.31321436040E+03  0.32401751819E+03  0.00000000000E+00 0.  1.
         11    1    1    2    0    0 -0.58057569205E+01  0.52968299631E+02  0.90935853439E+02  0.10539770880E+03  0.00000000000E+00 0. -1.
<mgrwt>
<rscale>  0 0.16335858E+03</rscale>
<asrwt>0</asrwt>
<pdfrwt beam="1">  1        2 0.11599639E+00 0.16993365E+03</pdfrwt>
<pdfrwt beam="2">  1       -2 0.52373276E-02 0.16993365E+03</pdfrwt>
<totfact> 0.68112868E+03</totfact>
</mgrwt>
</event>
<event>
 7    1  0.4230786E-006  0.1262796E+03  0.7546771E-02  0.1251234E+00
          2   -1    0    0  501    0  0.00000000000E+00  0.00000000000E+00  0.48362664465E+02  0.48362664465E+02  0.00000000000E+00 0. -1.
         -2   -1    0    0    0  501 -0.00000000000E+00 -0.00000000000E+00 -0.24051194141E+03  0.24051194141E+03  0.00000000000E+00 0.  1.
         23    2    1    2    0    0  0.15685071657E+02  0.86606441698E+01 -0.13233806286E+03  0.18292045375E+03  0.12500200514E+03 0.  0.
          5    1    3    3  502    0 -0.21511739752E+02 -0.50856836569E+02 -0.66602378109E+02  0.86643750743E+02  0.47000000000E+01 0.  1.
         -5    1    3    3    0  502  0.37196811409E+02  0.59517480739E+02 -0.65735684748E+02  0.96276703006E+02  0.47000000000E+01 0.  1.
        -11    1    1    2    0    0 -0.44123720675E+02 -0.22072905537E+02 -0.15682262127E+02  0.51769191905E+02  0.00000000000E+00 0. -1.
         11    1    1    2    0    0  0.28438649018E+02  0.13412261367E+02 -0.44128951959E+02  0.54184960220E+02  0.00000000000E+00 0.  1.
<mgrwt>
<rscale>  0 0.11519926E+03</rscale>
<asrwt>0</asrwt>
<pdfrwt beam="1">  1        2 0.74404097E-02 0.12627957E+03</pdfrwt>
<pdfrwt beam="2">  1       -2 0.37001838E-01 0.12627957E+03</pdfrwt>
<totfact> 0.60745773E+03</totfact>
</mgrwt>
</event>
<event>
 7    1  0.4230786E-006  0.1278805E+03  0.7546771E-02  0.1244824E+00
          2   -1    0    0  501    0  0.00000000000E+00  0.00000000000E+00  0.35274142367E+02  0.35274142367E+02  0.00000000000E+00 0. -1.
         -2   -1    0    0    0  501 -0.00000000000E+00 -0.00000000000E+00 -0.35466616663E+03  0.35466616663E+03  0.00000000000E+00 0.  1.
         23    2    1    2    0    0  0.87331220073E+01 -0.25540712258E+02 -0.18716801905E+03  0.22668321310E+03  0.12499926537E+03 0.  0.
          5    1    3    3  502    0 -0.29945533787E+02  0.39543699474E+02 -0.95355384554E+02  0.10758800363E+03  0.47000000000E+01 0. -1.
         -5    1    3    3    0  502  0.38678655794E+02 -0.65084411732E+02 -0.91812634498E+02  0.11909520947E+03  0.47000000000E+01 0. -1.
        -11    1    1    2    0    0  0.26108046222E+02  0.11665811017E+02 -0.12067496613E+03  0.12401680804E+03  0.00000000000E+00 0.  1.
         11    1    1    2    0    0 -0.34841168230E+02  0.13874901241E+02 -0.11549039079E+02  0.39240287865E+02  0.00000000000E+00 0. -1.
<mgrwt>
<rscale>  0 0.11895905E+03</rscale>
<asrwt>0</asrwt>
<pdfrwt beam="1">  1        2 0.54267910E-02 0.12788046E+03</pdfrwt>
<pdfrwt beam="2">  1       -2 0.54564027E-01 0.12788046E+03</pdfrwt>
<totfact> 0.42947978E+03</totfact>
</mgrwt>
</event>
<event>
 7    1  0.4230786E-006  0.1368058E+03  0.7546771E-02  0.1229308E+00
          2   -1    0    0  501    0  0.00000000000E+00  0.00000000000E+00  0.12699563147E+03  0.12699563147E+03  0.00000000000E+00 0. -1.
         -2   -1    0    0    0  501 -0.00000000000E+00 -0.00000000000E+00 -0.12969216093E+03  0.12969216093E+03  0.00000000000E+00 0.  1.
         23    2    1    2    0    0  0.24954609182E+02 -0.49675850254E+02 -0.40825963533E+02  0.14276763738E+03  0.12500166546E+03 0.  0.
          5    1    3    3  502    0  0.32533110850E+02 -0.32904864968E+02 -0.83767085550E+02  0.95813089198E+02  0.47000000000E+01 0. -1.
         -5    1    3    3    0  502 -0.75785016680E+01 -0.16770985286E+02  0.42941122017E+02  0.46954548183E+02  0.47000000000E+01 0. -1.
        -11    1    1    2    0    0 -0.45046475615E+02  0.21212545860E+02  0.55858308438E+02  0.74828521894E+02  0.00000000000E+00 0. -1.
         11    1    1    2    0    0  0.20091866432E+02  0.28463304393E+02 -0.17728874366E+02  0.39091633120E+02  0.00000000000E+00 0.  1.
<mgrwt>
<rscale>  0 0.12875931E+03</rscale>
<asrwt>0</asrwt>
<pdfrwt beam="1">  1        2 0.19537789E-01 0.13680584E+03</pdfrwt>
<pdfrwt beam="2">  1       -2 0.19952640E-01 0.13680584E+03</pdfrwt>
<totfact> 0.57309281E+03</totfact>
</mgrwt>
</event>
<event>
 7    1  0.4230786E-006  0.1439760E+03  0.7546771E-02  0.1218641E+00
          2   -1    0    0  501    0  0.00000000000E+00  0.00000000000E+00  0.18337457855E+03  0.18337457855E+03  0.00000000000E+00 0. -1.
         -2   -1    0    0    0  501 -0.00000000000E+00 -0.00000000000E+00 -0.91534817825E+02  0.91534817825E+02  0.00000000000E+00 0.  1.
         23    2    1    2    0    0 -0.19239013437E+02  0.68795739866E+02  0.47389146866E+02  0.15157443185E+03  0.12500433468E+03 0.  0.
          5    1    3    3  502    0  0.43779913915E+02 -0.65356123599E+01  0.61004355765E+01  0.44929949983E+02  0.47000000000E+01 0.  1.
         -5    1    3    3    0  502 -0.63018927351E+02  0.75331352226E+02  0.41288711290E+02  0.10664448187E+03  0.47000000000E+01 0.  1.
        -11    1    1    2    0    0  0.23260151455E+02 -0.47813516732E+02 -0.18937954585E+02  0.56443007998E+02  0.00000000000E+00 0.  1.
         11    1    1    2    0    0 -0.40211380185E+01 -0.20982223134E+02  0.63388568447E+02  0.66891956530E+02  0.00000000000E+00 0. -1.
<mgrwt>
<rscale>  0 0.13612430E+03</rscale>
<asrwt>0</asrwt>
<pdfrwt beam="1">  1        2 0.28211474E-01 0.14397596E+03</pdfrwt>
<pdfrwt beam="2">  1       -2 0.14082280E-01 0.14397596E+03</pdfrwt>
<totfact> 0.68079886E+03</totfact>
</mgrwt>
</event>
<event>
 7    1  0.4230786E-006  0.1530408E+03  0.7546771E-02  0.1205234E+00
         -2   -1    0    0    0  501 -0.00000000000E+00  0.00000000000E+00  0.52321355974E+03  0.52321355974E+03  0.00000000000E+00 0.  1.
          2   -1    0    0  501    0  0.00000000000E+00 -0.00000000000E+00 -0.50536046200E+02  0.50536046200E+02  0.00000000000E+00 0. -1.
         23    2    1    2    0    0 -0.84444298801E+02 -0.26177502239E+02  0.39716362571E+03  0.42562943640E+03  0.12492145659E+03 0.  0.
          5    1    3    3  502    0 -0.54015912576E+02  0.22716735684E+02  0.33746800077E+03  0.34255001159E+03  0.47000000000E+01 0.  1.
         -5    1    3    3    0  502 -0.30428386225E+02 -0.48894237923E+02  0.59695624936E+02  0.83079424810E+02  0.47000000000E+01 0.  1.
        -11    1    1    2    0    0 -0.23513621040E+01  0.35623071280E+02  0.40668786885E+02  0.54115453780E+02  0.00000000000E+00 0.  1.
         11    1    1    2    0    0  0.86795660905E+02 -0.94455690409E+01  0.34845100949E+02  0.94004715767E+02  0.00000000000E+00 0. -1.
<mgrwt>
<rscale>  0 0.14619056E+03</rscale>
<asrwt>0</asrwt>
<pdfrwt beam="2">  1        2 0.77747767E-02 0.15304075E+03</pdfrwt>
<pdfrwt beam="1">  1       -2 0.80494390E-01 0.15304075E+03</pdfrwt>
<totfact> 0.12105398E+03</totfact>
</mgrwt>
</event>
<event>
 7    1  0.4230786E-006  0.2121557E+03  0.7546771E-02  0.1143452E+00
         -2   -1    0    0    0  501 -0.00000000000E+00  0.00000000000E+00  0.11473655642E+03  0.11473655642E+03  0.00000000000E+00 0. -1.
          2   -1    0    0  501    0  0.00000000000E+00 -0.00000000000E+00 -0.37578652947E+03  0.37578652947E+03  0.00000000000E+00 0.  1.
         23    2    1    2    0    0  0.16991834494E+03  0.22513097722E+02 -0.18520898886E+03  0.28162459529E+03  0.12502383613E+03 0.  0.
          5    1    3    3  502    0  0.26347203504E+02  0.34710116455E+02  0.37049751991E+01  0.43986181444E+02  0.47000000000E+01 0. -1.
         -5    1    3    3    0  502  0.14357114144E+03 -0.12197018733E+02 -0.18891396406E+03  0.23763841384E+03  0.47000000000E+01 0. -1.
        -11    1    1    2    0    0 -0.64702617703E+02 -0.30688092532E+02  0.10716798686E+02  0.72408822217E+02  0.00000000000E+00 0. -1.
         11    1    1    2    0    0 -0.10521572724E+03  0.81749948097E+01 -0.86557782884E+02  0.13648966839E+03  0.00000000000E+00 0.  1.
<mgrwt>
<rscale>  0 0.20763565E+03</rscale>
<asrwt>0</asrwt>
<pdfrwt beam="2">  1        2 0.57813312E-01 0.21215570E+03</pdfrwt>
<pdfrwt beam="1">  1       -2 0.17651778E-01 0.21215570E+03</pdfrwt>
<totfact> 0.22053937E+03</totfact>
</mgrwt>
</event>
<event>
 7    1  0.6276617E-006  0.1687312E+03  0.7546771E-02  0.1186310E+00
          1   -1    0    0  501    0  0.00000000000E+00  0.00000000000E+00  0.36968612517E+03  0.36968612517E+03  0.00000000000E+00 0. -1.
         -1   -1    0    0    0  501 -0.00000000000E+00 -0.00000000000E+00 -0.70975816569E+02  0.70975816569E+02  0.00000000000E+00 0.  1.
         23    2    1    2    0    0  0.11996295576E+02 -0.11270124402E+03  0.10268211818E+03  0.19751923255E+03  0.12499899328E+03 0.  0.
          5    1    3    3  502    0  0.24139884313E+02 -0.10331776459E+03  0.13680432159E+02  0.10708192527E+03  0.47000000000E+01 0. -1.
         -5    1    3    3    0  502 -0.12143588738E+02 -0.93834794274E+01  0.89001686020E+02  0.90437307280E+02  0.47000000000E+01 0. -1.
        -11    1    1    2    0    0 -0.36988367117E+02  0.26942507237E+02  0.30326118338E+02  0.54897280913E+02  0.00000000000E+00 0.  1.
         11    1    1    2    0    0  0.24992071541E+02  0.85758736784E+02  0.16570207208E+03  0.18824542828E+03  0.00000000000E+00 0. -1.
<mgrwt>
<rscale>  0 0.16213253E+03</rscale>
<asrwt>0</asrwt>
<pdfrwt beam="1">  1        1 0.56874788E-01 0.16873124E+03</pdfrwt>
<pdfrwt beam="2">  1       -1 0.10919357E-01 0.16873124E+03</pdfrwt>
<totfact> 0.34835762E+03</totfact>
</mgrwt>
</event>
<event>
 7    1  0.4230786E-006  0.1404568E+03  0.7546771E-02  0.1223763E+00
          1   -1    0    0  501    0  0.00000000000E+00  0.00000000000E+00  0.20365073090E+03  0.20365073090E+03  0.00000000000E+00 0. -1.
         -1   -1    0    0    0  501 -0.00000000000E+00 -0.00000000000E+00 -0.77849735871E+02  0.77849735871E+02  0.00000000000E+00 0.  1.
         23    2    1    2    0    0  0.11667201603E+02  0.62976983356E+02  0.66948935947E+02  0.15559653563E+03  0.12500359135E+03 0.  0.
          5    1    3    3  502    0 -0.28372496309E+02  0.29204207470E+02  0.89450160817E+02  0.98393625561E+02  0.47000000000E+01 0.  1.
         -5    1    3    3    0  502  0.40039697912E+02  0.33772775886E+02 -0.22501224870E+02  0.57202910071E+02  0.47000000000E+01 0.  1.
        -11    1    1    2    0    0  0.18553503933E+02 -0.72994387593E+02  0.24816604834E+02  0.79298657011E+02  0.00000000000E+00 0. -1.
         11    1    1    2    0    0 -0.30220705536E+02  0.10017404237E+02  0.34035454251E+02  0.46605274131E+02  0.00000000000E+00 0.  1.
<mgrwt>
<rscale>  0 0.13252058E+03</rscale>
<asrwt>0</asrwt>
<pdfrwt beam="1">  1        1 0.31330881E-01 0.14045683E+03</pdfrwt>
<pdfrwt beam="2">  1       -1 0.11976883E-01 0.14045683E+03</pdfrwt>
<totfact> 0.62825912E+03</totfact>
</mgrwt>
</event>
<event>
 6    1  0.4230786E-006  0.1407382E+03  0.7546771E-02  0.1227204E+00
          2   -1    0    0  501    0  0.00000000000E+00  0.00000000000E+00  0.59170109527E+03  0.59170109527E+03  0.00000000000E+00 0. -1.
         -2   -1    0    0    0  501 -0.00000000000E+00 -0.00000000000E+00 -0.26795427986E+02  0.26795427986E+02  0.00000000000E+00 0.  1.
          5    1    1    2  502    0  0.20979436108E+02 -0.10514585709E+01  0.20074750089E+03  0.20189822044E+03  0.47000000000E+01 0. -1.
         -5    1    1    2    0  502 -0.67446466201E+02 -0.71535878347E+01  0.45749887347E+02  0.81947189178E+02  0.47000000000E+01 0.  1.
        -11    1    1    2    0    0  0.68944963752E+02 -0.13925155207E+02  0.24123895644E+03  0.25128380783E+03  0.00000000000E+00 0.  1.
         11    1    1    2    0    0 -0.22477933659E+02  0.22130201613E+02  0.77169322608E+02  0.83367305802E+02  0.00000000000E+00 0. -1.
<mgrwt>
<rscale>  0 0.13017000E+03</rscale>
<asrwt>0</asrwt>
<pdfrwt beam="1">  1        2 0.91030928E-01 0.14073825E+03</pdfrwt>
<pdfrwt beam="2">  1       -2 0.41223740E-02 0.14073825E+03</pdfrwt>
<totfact> 0.12837362E+04</totfact>
</mgrwt>
</event>
<event>
 7    1  0.4230786E-006  0.1266562E+03  0.7546771E-02  0.1247530E+00
         -1   -1    0    0    0  501 -0.00000000000E+00  0.00000000000E+00  0.24807486997E+03  0.24807486997E+03  0.00000000000E+00 0.  1.
          1   -1    0    0  501    0  0.00000000000E+00 -0.00000000000E+00 -0.67227572960E+02  0.67227572960E+02  0.00000000000E+00 0. -1.
         23    2    1    2    0    0 -0.17135511034E+02 -0.11078784893E+02  0.18226097012E+03  0.22194785417E+03  0.12500169411E+03 0.  0.
          5    1    3    3  502    0  0.28797939659E+02 -0.44703328344E+02  0.34577886853E+02  0.63603688202E+02  0.47000000000E+01 0.  1.
         -5    1    3    3    0  502 -0.45933450692E+02  0.33624543451E+02  0.14768308326E+03  0.15834416597E+03  0.47000000000E+01 0.  1.
        -11    1    1    2    0    0 -0.32650608599E+02 -0.14110087109E+02  0.87773711807E+01  0.36636034787E+02  0.00000000000E+00 0.  1.
         11    1    1    2    0    0  0.49786119632E+02  0.25188872002E+02 -0.10191044288E+02  0.56718553970E+02  0.00000000000E+00 0. -1.
<mgrwt>
<rscale>  0 0.11735221E+03</rscale>
<asrwt>0</asrwt>
<pdfrwt beam="2">  1        1 0.10342704E-01 0.12665618E+03</pdfrwt>
<pdfrwt beam="1">  1       -1 0.38165364E-01 0.12665618E+03</pdfrwt>
<totfact> 0.39287156E+03</totfact>
</mgrwt>
</event>
<event>
 7    1  0.4230786E-006  0.1441730E+03  0.7546771E-02  0.1217454E+00
          2   -1    0    0  501    0  0.00000000000E+00  0.00000000000E+00  0.11902471723E+04  0.11902471723E+04  0.00000000000E+00 0. -1.
         -2   -1    0    0    0  501 -0.00000000000E+00 -0.00000000000E+00 -0.14603932834E+02  0.14603932834E+02  0.00000000000E+00 0.  1.
         23    2    1    2    0    0 -0.19866591907E+02 -0.69034218759E+02  0.72118329653E+03  0.73545304935E+03  0.12500174310E+03 0.  0.
          5    1    3    3  502    0 -0.75125506667E+01  0.70526770344E+01  0.51745451501E+03  0.51757844215E+03  0.47000000000E+01 0. -1.
         -5    1    3    3    0  502 -0.12354041240E+02 -0.76086895794E+02  0.20372878152E+03  0.21787460721E+03  0.47000000000E+01 0. -1.
        -11    1    1    2    0    0 -0.21543670582E+02  0.82838818571E+01  0.26387560429E+02  0.35057891924E+02  0.00000000000E+00 0.  1.
         11    1    1    2    0    0  0.41410262489E+02  0.60750336902E+02  0.42807238252E+03  0.43434016386E+03  0.00000000000E+00 0. -1.
<mgrwt>
<rscale>  0 0.13697789E+03</rscale>
<asrwt>0</asrwt>
<pdfrwt beam="1">  1        2 0.18311487E+00 0.14417295E+03</pdfrwt>
<pdfrwt beam="2">  1       -2 0.22467598E-02 0.14417295E+03</pdfrwt>
<totfact> 0.12757660E+04</totfact>
</mgrwt>
</event>
<event>
 6    1  0.4230786E-006  0.4386072E+03  0.7546771E-02  0.1031175E+00
         -1   -1    0    0    0  501 -0.00000000000E+00  0.00000000000E+00  0.69523378758E+02  0.69523378758E+02  0.00000000000E+00 0.  1.
          1   -1    0    0  501    0  0.00000000000E+00 -0.00000000000E+00 -0.69176836425E+03  0.69176836425E+03  0.00000000000E+00 0. -1.
          5    1    1    2  502    0  0.15222334655E+02  0.38378120405E+01  0.15671721552E+02  0.22674680372E+02  0.47000000000E+01 0. -1.
         -5    1    1    2    0  502  0.11585100382E+03 -0.12111764891E+03 -0.23206208758E+03  0.28629677339E+03  0.47000000000E+01 0.  1.
        -11    1    1    2    0    0 -0.57192765762E+02  0.82707128260E+02 -0.12819912448E+03  0.16293095789E+03  0.00000000000E+00 0.  1.
         11    1    1    2    0    0 -0.73880572715E+02  0.34572708611E+02 -0.27765549499E+03  0.28938933136E+03  0.00000000000E+00 0. -1.
<mgrwt>
<rscale>  0 0.43860722E+03</rscale>
<asrwt>0</asrwt>
<pdfrwt beam="2">  1        1 0.10642590E+00 0.43860722E+03</pdfrwt>
<pdfrwt beam="1">  1       -1 0.10695905E-01 0.43860722E+03</pdfrwt>
<totfact> 0.15773699E+03</totfact>
</mgrwt>
</event>
<event>
 7    1  0.4230786E-006  0.1555511E+03  0.7546771E-02  0.1202499E+00
          3   -1    0    0  501    0  0.00000000000E+00  0.00000000000E+00  0.55966323959E+02  0.55966323959E+02  0.00000000000E+00 0. -1.
         -3   -1    0    0    0  501 -0.00000000000E+00 -0.00000000000E+00 -0.38606925515E+03  0.38606925515E+03  0.00000000000E+00 0.  1.
         23    2    1    2    0    0  0.91970780387E+02 -0.10699109968E+02 -0.23569448950E+03  0.28239695968E+03  0.12499221999E+03 0.  0.
          5    1    3    3  502    0  0.12112318365E+03 -0.59231019276E+01 -0.15861356817E+03  0.19971545449E+03  0.47000000000E+01 0.  1.
         -5    1    3    3    0  502 -0.29152403260E+02 -0.47760080407E+01 -0.77080921327E+02  0.82681505195E+02  0.47000000000E+01 0.  1.
        -11    1    1    2    0    0 -0.11289706029E+02  0.13143004712E+02  0.15518082474E+02  0.23259555429E+02  0.00000000000E+00 0. -1.
         11    1    1    2    0    0 -0.80681074358E+02 -0.24438947436E+01 -0.10992652416E+03  0.13637906399E+03  0.00000000000E+00 0.  1.
<mgrwt>
<rscale>  0 0.14836286E+03</rscale>
<asrwt>0</asrwt>
<pdfrwt beam="1">  1        3 0.86102035E-02 0.15555112E+03</pdfrwt>
<pdfrwt beam="2">  1       -3 0.59395271E-01 0.15555112E+03</pdfrwt>
<totfact> 0.62752397E+02</totfact>
</mgrwt>
</event>
<event>
 7    1  0.4230786E-006  0.1271629E+03  0.7546771E-02  0.1247649E+00
         -4   -1    0    0    0  501 -0.00000000000E+00  0.00000000000E+00  0.44040037644E+02  0.44040037644E+02  0.00000000000E+00 0.  1.
          4   -1    0    0  501    0  0.00000000000E+00 -0.00000000000E+00 -0.28024406245E+03  0.28024406245E+03  0.00000000000E+00 0. -1.
         23    2    1    2    0    0 -0.20493049600E+02 -0.12255743723E+02 -0.11025752147E+03  0.16830662883E+03  0.12490088843E+03 0.  0.
          5    1    3    3  502    0 -0.27454933815E+02  0.33409794370E+02 -0.11371097139E+03  0.12174671562E+03  0.47000000000E+01 0. -1.
         -5    1    3    3    0  502  0.69618842153E+01 -0.45665538093E+02  0.34534499179E+01  0.46559913203E+02  0.47000000000E+01 0. -1.
        -11    1    1    2    0    0  0.39838448403E+02  0.19522230061E+02 -0.12774966083E+03  0.13523385405E+03  0.00000000000E+00 0. -1.
         11    1    1    2    0    0 -0.19345398804E+02 -0.72664863373E+01  0.18031574944E+01  0.20743617224E+02  0.00000000000E+00 0.  1.
<mgrwt>
<rscale>  0 0.11728243E+03</rscale>
<asrwt>0</asrwt>
<pdfrwt beam="2">  1        4 0.43114470E-01 0.12716289E+03</pdfrwt>
<pdfrwt beam="1">  1       -4 0.67753905E-02 0.12716289E+03</pdfrwt>
<totfact> 0.12387737E+03</totfact>
</mgrwt>
</event>
<event>
 7    1  0.4230786E-006  0.1687979E+03  0.7546771E-02  0.1186841E+00
         -1   -1    0    0    0  501 -0.00000000000E+00  0.00000000000E+00  0.10054910798E+03  0.10054910798E+03  0.00000000000E+00 0.  1.
          1   -1    0    0  501    0  0.00000000000E+00 -0.00000000000E+00 -0.24340191431E+03  0.24340191431E+03  0.00000000000E+00 0. -1.
         23    2    1    2    0    0 -0.14148135291E+02  0.11258016384E+03 -0.57708305048E+02  0.17838992829E+03  0.12497301717E+03 0.  0.
          5    1    3    3  502    0  0.48640781933E+02  0.58566476603E+02  0.17970656631E+01  0.76297295455E+02  0.47000000000E+01 0. -1.
         -5    1    3    3    0  502 -0.62788917224E+02  0.54013687235E+02 -0.59505370711E+02  0.10209263283E+03  0.47000000000E+01 0. -1.
        -11    1    1    2    0    0  0.37250375323E+02 -0.12522941003E+02 -0.23735697033E+02  0.45910759378E+02  0.00000000000E+00 0.  1.
         11    1    1    2    0    0 -0.23102240032E+02 -0.10005722284E+03 -0.61408804252E+02  0.11965033462E+03  0.00000000000E+00 0. -1.
<mgrwt>
<rscale>  0 0.16165492E+03</rscale>
<asrwt>0</asrwt>
<pdfrwt beam="2">  1        1 0.37446449E-01 0.16879786E+03</pdfrwt>
<pdfrwt beam="1">  1       -1 0.15469093E-01 0.16879786E+03</pdfrwt>
<totfact> 0.34096693E+03</totfact>
</mgrwt>
</event>
<event>
 7    1  0.4230786E-006  0.1810101E+03  0.7546771E-02  0.1167166E+00
          2   -1    0    0  501    0  0.00000000000E+00  0.00000000000E+00  0.42162011792E+03  0.42162011792E+03  0.00000000000E+00 0. -1.
         -2   -1    0    0    0  501 -0.00000000000E+00 -0.00000000000E+00 -0.87313006368E+02  0.87313006368E+02  0.00000000000E+00 0.  1.
         23    2    1    2    0    0  0.15061494809E+02 -0.12809118616E+03  0.79605636221E+02  0.19646313196E+03  0.12500601706E+03 0.  0.
          5    1    3    3  502    0  0.65494789230E+02 -0.96956753522E+02  0.35265713604E+02  0.12229448077E+03  0.47000000000E+01 0.  1.
         -5    1    3    3    0  502 -0.50433294421E+02 -0.31134432639E+02  0.44339922617E+02  0.74168651191E+02  0.47000000000E+01 0.  1.
        -11    1    1    2    0    0 -0.59485674495E+02  0.49832362093E+02  0.60381287043E+02  0.98324511729E+02  0.00000000000E+00 0.  1.
         11    1    1    2    0    0  0.44424179686E+02  0.78258824068E+02  0.19432018829E+03  0.21414548060E+03  0.00000000000E+00 0. -1.
<mgrwt>
<rscale>  0 0.18065972E+03</rscale>
<asrwt>0</asrwt>
<pdfrwt beam="1">  1        2 0.64864632E-01 0.18101010E+03</pdfrwt>
<pdfrwt beam="2">  1       -2 0.13432770E-01 0.18101010E+03</pdfrwt>
<totfact> 0.30425820E+03</totfact>
</mgrwt>
</event>
<event>
 6    1  0.4230786E-006  0.1664207E+03  0.7546771E-02  0.1202189E+00
         -1   -1    0    0    0  501 -0.00000000000E+00  0.00000000000E+00  0.46365742385E+03  0.46365742385E+03  0.00000000000E+00 0.  1.
          1   -1    0    0  501    0  0.00000000000E+00 -0.00000000000E+00 -0.55543813116E+02  0.55543813116E+02  0.00000000000E+00 0. -1.
          5    1    1    2  502    0  0.49511149587E+02 -0.21093818493E+02  0.87672881797E+02  0.10298022779E+03  0.47000000000E+01 0. -1.
         -5    1    1    2    0  502 -0.10801250846E+03  0.14912726702E+02  0.28407693139E+03  0.30432036466E+03  0.47000000000E+01 0.  1.
        -11    1    1    2    0    0  0.17047345036E+02  0.11853088648E+02 -0.28167017959E+02  0.34992693294E+02  0.00000000000E+00 0. -1.
         11    1    1    2    0    0  0.41454013836E+02 -0.56719968583E+01  0.64530815508E+02  0.76907951225E+02  0.00000000000E+00 0.  1.
<mgrwt>
<rscale>  0 0.14861238E+03</rscale>
<asrwt>0</asrwt>
<pdfrwt beam="2">  1        1 0.85452023E-02 0.16642070E+03</pdfrwt>
<pdfrwt beam="1">  1       -1 0.71331909E-01 0.16642070E+03</pdfrwt>
<totfact> 0.16127815E+03</totfact>
</mgrwt>
</event>
<event>
 7    1  0.4230786E-006  0.2649736E+03  0.7546771E-02  0.1106347E+00
          2   -1    0    0  501    0  0.00000000000E+00  0.00000000000E+00  0.47836191935E+03  0.47836191935E+03  0.00000000000E+00 0. -1.
         -2   -1    0    0    0  501 -0.00000000000E+00 -0.00000000000E+00 -0.16010724116E+03  0.16010724116E+03  0.00000000000E+00 0.  1.
         23    2    1    2    0    0 -0.92639025228E+02 -0.21448674579E+03  0.47000554842E+02  0.26910979480E+03  0.12499790553E+03 0.  0.
          5    1    3    3  502    0 -0.72674279801E+02 -0.21190658861E+03  0.73210858665E+02  0.23572838834E+03  0.47000000000E+01 0. -1.
         -5    1    3    3    0  502 -0.19964745428E+02 -0.25801571795E+01 -0.26210303822E+02  0.33381406464E+02  0.47000000000E+01 0. -1.
        -11    1    1    2    0    0  0.78566984314E+02  0.10403517140E+03  0.19439781454E+03  0.23406537166E+03  0.00000000000E+00 0. -1.
         11    1    1    2    0    0  0.14072040914E+02  0.11045157439E+03  0.76856308805E+02  0.13529399404E+03  0.00000000000E+00 0.  1.
<mgrwt>
<rscale>  0 0.26132926E+03</rscale>
<asrwt>0</asrwt>
<pdfrwt beam="1">  1        2 0.73594141E-01 0.26497364E+03</pdfrwt>
<pdfrwt beam="2">  1       -2 0.24631883E-01 0.26497364E+03</pdfrwt>
<totfact> 0.95678777E+02</totfact>
</mgrwt>
</event>
<event>
 7    1  0.4230786E-006  0.1342389E+03  0.7546771E-02  0.1235410E+00
          2   -1    0    0  501    0  0.00000000000E+00  0.00000000000E+00  0.35291793765E+02  0.35291793765E+02  0.00000000000E+00 0. -1.
         -2   -1    0    0    0  501 -0.00000000000E+00 -0.00000000000E+00 -0.39804747844E+03  0.39804747844E+03  0.00000000000E+00 0.  1.
         23    2    1    2    0    0  0.48244588087E+02  0.81271133764E+01 -0.23868531474E+03  0.27384439765E+03  0.12500593746E+03 0.  0.
          5    1    3    3  502    0  0.48412778852E+02 -0.53563784583E+02 -0.13076234238E+03  0.14944482714E+03  0.47000000000E+01 0. -1.
         -5    1    3    3    0  502 -0.16819076487E+00  0.61690897960E+02 -0.10792297236E+03  0.12439957051E+03  0.47000000000E+01 0. -1.
        -11    1    1    2    0    0 -0.64002649395E+01 -0.37486615308E+02 -0.18695285181E+02  0.42375976762E+02  0.00000000000E+00 0.  1.
         11    1    1    2    0    0 -0.41844323148E+02  0.29359501932E+02 -0.10537508475E+03  0.11711889779E+03  0.00000000000E+00 0. -1.
<mgrwt>
<rscale>  0 0.12478240E+03</rscale>
<asrwt>0</asrwt>
<pdfrwt beam="1">  1        2 0.54295069E-02 0.13423887E+03</pdfrwt>
<pdfrwt beam="2">  1       -2 0.61238072E-01 0.13423887E+03</pdfrwt>
<totfact> 0.34053098E+03</totfact>
</mgrwt>
</event>
<event>
 7    1  0.4230786E-006  0.1312123E+03  0.7546771E-02  0.1240377E+00
         -2   -1    0    0    0  501 -0.00000000000E+00  0.00000000000E+00  0.30493396560E+02  0.30493396560E+02  0.00000000000E+00 0.  1.
          2   -1    0    0  501    0  0.00000000000E+00 -0.00000000000E+00 -0.43208471522E+03  0.43208471522E+03  0.00000000000E+00 0. -1.
         23    2    1    2    0    0  0.23488498390E+02 -0.32266924597E+02 -0.25549660845E+03  0.28721975981E+03  0.12499523797E+03 0.  0.
          5    1    3    3  502    0  0.68307842730E+02  0.10180192509E+02 -0.12979196162E+03  0.14709738610E+03  0.47000000000E+01 0.  1.
         -5    1    3    3    0  502 -0.44819344340E+02 -0.42447117107E+02 -0.12570464684E+03  0.14012237371E+03  0.47000000000E+01 0.  1.
        -11    1    1    2    0    0  0.18853411144E+02  0.29755395894E+02 -0.16309975556E+02  0.38818165840E+02  0.00000000000E+00 0.  1.
         11    1    1    2    0    0 -0.42341909534E+02  0.25115287038E+01 -0.12978473465E+03  0.13654018613E+03  0.00000000000E+00 0. -1.
<mgrwt>
<rscale>  0 0.12166389E+03</rscale>
<asrwt>0</asrwt>
<pdfrwt beam="2">  1        2 0.66474571E-01 0.13121232E+03</pdfrwt>
<pdfrwt beam="1">  1       -2 0.46912918E-02 0.13121232E+03</pdfrwt>
<totfact> 0.14886730E+04</totfact>
</mgrwt>
</event>
<event>
 7    1  0.5771257E-006  0.1921571E+03  0.7546771E-02  0.1161329E+00
          1   -1    0    0  501    0  0.00000000000E+00  0.00000000000E+00  0.79709544844E+03  0.79709544844E+03  0.00000000000E+00 0. -1.
         -1   -1    0    0    0  501 -0.00000000000E+00 -0.00000000000E+00 -0.43494035470E+02  0.43494035470E+02  0.00000000000E+00 0.  1.
         23    2    1    2    0    0 -0.12166019555E+03  0.80611365241E+02  0.30816846167E+03  0.36316961665E+03  0.12499989721E+03 0.  0.
          5    1    3    3  502    0 -0.57313920261E+02 -0.27742482620E+02  0.78804490590E+02  0.10142370795E+03  0.47000000000E+01 0. -1.
         -5    1    3    3    0  502 -0.64346275288E+02  0.10835384786E+03  0.22936397108E+03  0.26174590869E+03  0.47000000000E+01 0. -1.
        -11    1    1    2    0    0  0.24833674707E+02 -0.68079056690E+02  0.22365356096E+03  0.23510079687E+03  0.00000000000E+00 0. -1.
         11    1    1    2    0    0  0.96826520842E+02 -0.12532308551E+02  0.22177939035E+03  0.24231907040E+03  0.00000000000E+00 0.  1.
<mgrwt>
<rscale>  0 0.18685534E+03</rscale>
<asrwt>0</asrwt>
<pdfrwt beam="1">  1        1 0.12263006E+00 0.19215715E+03</pdfrwt>
<pdfrwt beam="2">  1       -1 0.66913907E-02 0.19215715E+03</pdfrwt>
<totfact> 0.26014615E+03</totfact>
</mgrwt>
</event>
<event>
 7    1  0.4230786E-006  0.1255793E+03  0.7546771E-02  0.1249576E+00
          2   -1    0    0  501    0  0.00000000000E+00  0.00000000000E+00  0.48940001497E+02  0.48940001497E+02  0.00000000000E+00 0. -1.
         -2   -1    0    0    0  501 -0.00000000000E+00 -0.00000000000E+00 -0.58455764121E+03  0.58455764121E+03  0.00000000000E+00 0.  1.
         23    2    1    2    0    0 -0.98668412596E+01  0.68945612525E+01 -0.52633393394E+03  0.54110772818E+03  0.12500109581E+03 0.  0.
          5    1    3    3  502    0 -0.54360124717E+02  0.17825731649E+02 -0.13002489521E+03  0.14213142946E+03  0.47000000000E+01 0.  1.
         -5    1    3    3    0  502  0.44493283457E+02 -0.10931170396E+02 -0.39630903873E+03  0.39897629872E+03  0.47000000000E+01 0.  1.
        -11    1    1    2    0    0  0.15547106797E+02  0.27638955450E+02 -0.36283172499E+02  0.48188100136E+02  0.00000000000E+00 0.  1.
         11    1    1    2    0    0 -0.56802655371E+01 -0.34533516702E+02  0.26999466720E+02  0.44201814392E+02  0.00000000000E+00 0. -1.
<mgrwt>
<rscale>  0 0.11615657E+03</rscale>
<asrwt>0</asrwt>
<pdfrwt beam="1">  1        2 0.75292308E-02 0.12557931E+03</pdfrwt>
<pdfrwt beam="2">  1       -2 0.89931947E-01 0.12557931E+03</pdfrwt>
<totfact> 0.97722234E+02</totfact>
</mgrwt>
</event>
<event>
 7    1  0.4230786E-006  0.1304050E+03  0.7546771E-02  0.1240635E+00
         -1   -1    0    0    0  501 -0.00000000000E+00  0.00000000000E+00  0.22160799475E+03  0.22160799475E+03  0.00000000000E+00 0.  1.
          1   -1    0    0  501    0  0.00000000000E+00 -0.00000000000E+00 -0.67106357378E+02  0.67106357378E+02  0.00000000000E+00 0. -1.
         23    2    1    2    0    0  0.36913015148E+02 -0.41949122673E+01  0.13652592590E+03  0.18879825283E+03  0.12500113542E+03 0.  0.
          5    1    3    3  502    0  0.48306025636E+02 -0.57674485038E+02  0.74582004073E+02  0.10603953823E+03  0.47000000000E+01 0. -1.
         -5    1    3    3    0  502 -0.11393010488E+02  0.53479572771E+02  0.61943921823E+02  0.82758714602E+02  0.47000000000E+01 0. -1.
        -11    1    1    2    0    0 -0.49491036468E+02  0.36339735906E+02  0.90246091902E+00  0.61406461648E+02  0.00000000000E+00 0. -1.
         11    1    1    2    0    0  0.12578021320E+02 -0.32144823639E+02  0.17073250560E+02  0.38509637648E+02  0.00000000000E+00 0.  1.
<mgrwt>
<rscale>  0 0.12150475E+03</rscale>
<asrwt>0</asrwt>
<pdfrwt beam="2">  1        1 0.10324055E-01 0.13040495E+03</pdfrwt>
<pdfrwt beam="1">  1       -1 0.34093537E-01 0.13040495E+03</pdfrwt>
<totfact> 0.47912596E+03</totfact>
</mgrwt>
</event>
<event>
 7    1  0.4230786E-006  0.1400894E+03  0.7546771E-02  0.1223909E+00
         -1   -1    0    0    0  501 -0.00000000000E+00  0.00000000000E+00  0.56720614612E+02  0.56720614612E+02  0.00000000000E+00 0.  1.
          1   -1    0    0  501    0  0.00000000000E+00 -0.00000000000E+00 -0.30278452049E+03  0.30278452049E+03  0.00000000000E+00 0. -1.
         23    2    1    2    0    0 -0.15127550480E+02 -0.61405391938E+02 -0.86477757940E+02  0.16463124956E+03  0.12500232307E+03 0.  0.
          5    1    3    3  502    0  0.24781920106E+02 -0.38495038121E+02 -0.10512418304E+03  0.11475711475E+03  0.47000000000E+01 0.  1.
         -5    1    3    3    0  502 -0.39909470586E+02 -0.22910353817E+02  0.18646425105E+02  0.49874134816E+02  0.47000000000E+01 0.  1.
        -11    1    1    2    0    0  0.24312550715E+02  0.15265494761E+02 -0.14164313786E+03  0.14452305683E+03  0.00000000000E+00 0. -1.
         11    1    1    2    0    0 -0.91850002355E+01  0.46139897177E+02 -0.17943010074E+02  0.50350828706E+02  0.00000000000E+00 0.  1.
<mgrwt>
<rscale>  0 0.13241979E+03</rscale>
<asrwt>0</asrwt>
<pdfrwt beam="2">  1        1 0.46582233E-01 0.14008942E+03</pdfrwt>
<pdfrwt beam="1">  1       -1 0.87262485E-02 0.14008942E+03</pdfrwt>
<totfact> 0.62378919E+03</totfact>
</mgrwt>
</event>
<event>
 7    1  0.4230786E-006  0.2096945E+03  0.7546771E-02  0.1145958E+00
          1   -1    0    0  501    0  0.00000000000E+00  0.00000000000E+00  0.50917934107E+02  0.50917934107E+02  0.00000000000E+00 0. -1.
         -1   -1    0    0    0  501 -0.00000000000E+00 -0.00000000000E+00 -0.79579313249E+03  0.79579313249E+03  0.00000000000E+00 0.  1.
         23    2    1    2    0    0  0.10115148038E+03  0.13459865002E+03 -0.33875734205E+03  0.39840725157E+03  0.12499353079E+03 0.  0.
          5    1    3    3  502    0  0.12396503126E+03  0.77406607654E+02 -0.26034084433E+03  0.29859430187E+03  0.47000000000E+01 0.  1.
         -5    1    3    3    0  502 -0.22813550872E+02  0.57192042363E+02 -0.78416497715E+02  0.99812949696E+02  0.47000000000E+01 0.  1.
        -11    1    1    2    0    0 -0.84889238157E+02 -0.42133173826E+02 -0.17884502297E+03  0.20240288865E+03  0.00000000000E+00 0.  1.
         11    1    1    2    0    0 -0.16262242227E+02 -0.92465476192E+02 -0.22727283336E+03  0.24590092638E+03  0.00000000000E+00 0. -1.
<mgrwt>
<rscale>  0 0.20454806E+03</rscale>
<asrwt>0</asrwt>
<pdfrwt beam="1">  1        1 0.78335291E-02 0.20969454E+03</pdfrwt>
<pdfrwt beam="2">  1       -1 0.12242970E+00 0.20969454E+03</pdfrwt>
<totfact> 0.56330733E+02</totfact>
</mgrwt>
</event>
<event>
 7    1  0.4230786E-006  0.1326051E+03  0.7546771E-02  0.1236240E+00
          2   -1    0    0  501    0  0.00000000000E+00  0.00000000000E+00  0.19595239785E+03  0.19595239785E+03  0.00000000000E+00 0. -1.
         -2   -1    0    0    0  501 -0.00000000000E+00 -0.00000000000E+00 -0.11527745097E+03  0.11527745097E+03  0.00000000000E+00 0.  1.
         23    2    1    2    0    0  0.17139990767E+02  0.40813825823E+02 -0.53122094724E+02  0.14284985785E+03  0.12499830910E+03 0.  0.
          5    1    3    3  502    0  0.57353656249E+02  0.61952857925E+02 -0.21342100645E+02  0.87207647315E+02  0.47000000000E+01 0.  1.
         -5    1    3    3    0  502 -0.40213665482E+02 -0.21139032102E+02 -0.31779994078E+02  0.55642210536E+02  0.47000000000E+01 0.  1.
        -11    1    1    2    0    0  0.72477900096E+01 -0.10033976261E+02 -0.12088394324E+02  0.17301457076E+02  0.00000000000E+00 0.  1.
         11    1    1    2    0    0 -0.24387780777E+02 -0.30779849562E+02  0.14588543592E+03  0.15107853389E+03  0.00000000000E+00 0. -1.
<mgrwt>
<rscale>  0 0.12425410E+03</rscale>
<asrwt>0</asrwt>
<pdfrwt beam="1">  1        2 0.30146523E-01 0.13260515E+03</pdfrwt>
<pdfrwt beam="2">  1       -2 0.17734993E-01 0.13260515E+03</pdfrwt>
<totfact> 0.43133452E+03</totfact>
</mgrwt>
</event>
<event>
 7    1  0.4230786E-006  0.1634732E+03  0.7546771E-02  0.1192249E+00
          1   -1    0    0  501    0  0.00000000000E+00  0.00000000000E+00  0.19179840065E+02  0.19179840065E+02  0.00000000000E+00 0. -1.
         -1   -1    0    0    0  501 -0.00000000000E+00 -0.00000000000E+00 -0.14127612625E+04  0.14127612625E+04  0.00000000000E+00 0.  1.
         23    2    1    2    0    0 -0.85986869893E+02  0.60876903453E+02 -0.10283020665E+04  0.10412149763E+04  0.12499499124E+03 0.  0.
          5    1    3    3  502    0 -0.17387258387E+02 -0.38554363486E+02 -0.27633110940E+03  0.27958849712E+03  0.47000000000E+01 0.  1.
         -5    1    3    3    0  502 -0.68599611506E+02  0.99431266940E+02 -0.75197095707E+03  0.76162647920E+03  0.47000000000E+01 0.  1.
        -11    1    1    2    0    0  0.32819620662E+02 -0.75942817047E+02 -0.19929049565E+03  0.21578030637E+03  0.00000000000E+00 0. -1.
         11    1    1    2    0    0  0.53167249231E+02  0.15065913594E+02 -0.16598886031E+03  0.17494581987E+03  0.00000000000E+00 0.  1.
<mgrwt>
<rscale>  0 0.15689338E+03</rscale>
<asrwt>0</asrwt>
<pdfrwt beam="1">  1        1 0.29507438E-02 0.16347320E+03</pdfrwt>
<pdfrwt beam="2">  1       -1 0.21734795E+00 0.16347320E+03</pdfrwt>
<totfact> 0.44632344E+02</totfact>
</mgrwt>
</event>
<event>
 7    1  0.4230786E-006  0.2006878E+03  0.7546771E-02  0.1153548E+00
          1   -1    0    0  501    0  0.00000000000E+00  0.00000000000E+00  0.84289284778E+03  0.84289284778E+03  0.00000000000E+00 0. -1.
         -1   -1    0    0    0  501 -0.00000000000E+00 -0.00000000000E+00 -0.54697885826E+02  0.54697885826E+02  0.00000000000E+00 0.  1.
         23    2    1    2    0    0  0.48932107675E+02  0.14918124478E+03  0.20459111714E+03  0.28658879582E+03  0.12500487081E+03 0.  0.
          5    1    3    3  502    0  0.59163212353E+02  0.14299358199E+03  0.21841214116E+03  0.26771888912E+03  0.47000000000E+01 0. -1.
         -5    1    3    3    0  502 -0.10231104679E+02  0.61876627900E+01 -0.13821024026E+02  0.18869906700E+02  0.47000000000E+01 0. -1.
        -11    1    1    2    0    0  0.13418235932E+02 -0.46673090830E+02  0.82480444541E+02  0.95715464763E+02  0.00000000000E+00 0.  1.
         11    1    1    2    0    0 -0.62350343606E+02 -0.10250815395E+03  0.50112340028E+03  0.51528647303E+03  0.00000000000E+00 0. -1.
<mgrwt>
<rscale>  0 0.19555050E+03</rscale>
<asrwt>0</asrwt>
<pdfrwt beam="1">  1        1 0.12967581E+00 0.20068785E+03</pdfrwt>
<pdfrwt beam="2">  1       -1 0.84150600E-02 0.20068785E+03</pdfrwt>
<totfact> 0.16862882E+03</totfact>
</mgrwt>
</event>
<event>
 7    1  0.4230786E-006  0.1386395E+03  0.7546771E-02  0.1227882E+00
          1   -1    0    0  501    0  0.00000000000E+00  0.00000000000E+00  0.12659510131E+03  0.12659510131E+03  0.00000000000E+00 0. -1.
         -1   -1    0    0    0  501 -0.00000000000E+00 -0.00000000000E+00 -0.12773878246E+03  0.12773878246E+03  0.00000000000E+00 0.  1.
         23    2    1    2    0    0  0.42279497981E+02  0.42491985113E+02 -0.34713953632E+02  0.14291949210E+03  0.12501119109E+03 0.  0.
          5    1    3    3  502    0 -0.38002145067E+02 -0.12173166952E+02 -0.18897259321E+02  0.44402088162E+02  0.47000000000E+01 0. -1.
         -5    1    3    3    0  502  0.80281643048E+02  0.54665152064E+02 -0.15816694312E+02  0.98517403943E+02  0.47000000000E+01 0. -1.
        -11    1    1    2    0    0 -0.56463356822E+01  0.15484771907E+02 -0.18890116814E+02  0.25069818127E+02  0.00000000000E+00 0.  1.
         11    1    1    2    0    0 -0.36633162299E+02 -0.57976757020E+02  0.52460389295E+02  0.86344573539E+02  0.00000000000E+00 0. -1.
<mgrwt>
<rscale>  0 0.12971309E+03</rscale>
<asrwt>0</asrwt>
<pdfrwt beam="1">  1        1 0.19476169E-01 0.13863954E+03</pdfrwt>
<pdfrwt beam="2">  1       -1 0.19652120E-01 0.13863954E+03</pdfrwt>
<totfact> 0.52400204E+03</totfact>
</mgrwt>
</event>
<event>
 7    1  0.4230786E-006  0.1334012E+03  0.7546771E-02  0.1235511E+00
          2   -1    0    0  501    0  0.00000000000E+00  0.00000000000E+00  0.61294050601E+03  0.61294050601E+03  0.00000000000E+00 0. -1.
         -2   -1    0    0    0  501 -0.00000000000E+00 -0.00000000000E+00 -0.28196008559E+02  0.28196008559E+02  0.00000000000E+00 0.  1.
         23    2    1    2    0    0  0.35812847746E+02  0.29766791820E+02  0.18173489326E+03  0.22544056875E+03  0.12500902629E+03 0.  0.
          5    1    3    3  502    0 -0.33731893752E+01  0.72853524223E+02  0.81924016388E+02  0.10978455656E+03  0.47000000000E+01 0. -1.
         -5    1    3    3    0  502  0.39186037122E+02 -0.43086732403E+02  0.99810876868E+02  0.11565601219E+03  0.47000000000E+01 0. -1.
        -11    1    1    2    0    0 -0.51189183443E+02  0.11434818064E+02  0.15031897474E+03  0.15920704047E+03  0.00000000000E+00 0.  1.
         11    1    1    2    0    0  0.15376335697E+02 -0.41201609884E+02  0.25269062945E+03  0.25648890535E+03  0.00000000000E+00 0. -1.
<mgrwt>
<rscale>  0 0.12471762E+03</rscale>
<asrwt>0</asrwt>
<pdfrwt beam="1">  1        2 0.94298529E-01 0.13340119E+03</pdfrwt>
<pdfrwt beam="2">  1       -2 0.43378479E-02 0.13340119E+03</pdfrwt>
<totfact> 0.11387744E+04</totfact>
</mgrwt>
</event>
<event>
 7    1  0.4230786E-006  0.1898716E+03  0.7546771E-02  0.1163430E+00
         -2   -1    0    0    0  501 -0.00000000000E+00  0.00000000000E+00  0.11264239378E+03  0.11264239378E+03  0.00000000000E+00 0.  1.
          2   -1    0    0  501    0  0.00000000000E+00 -0.00000000000E+00 -0.28725881307E+03  0.28725881307E+03  0.00000000000E+00 0. -1.
         23    2    1    2    0    0  0.51688494059E+02  0.13324663901E+03 -0.84488354446E+02  0.20782086372E+03  0.12499944854E+03 0.  0.
          5    1    3    3  502    0  0.41010971362E+01  0.91360755878E+01 -0.73539509504E+02  0.74366903478E+02  0.47000000000E+01 0.  1.
         -5    1    3    3    0  502  0.47587396922E+02  0.12411056342E+03 -0.10948844942E+02  0.13345396024E+03  0.47000000000E+01 0.  1.
        -11    1    1    2    0    0 -0.36432761560E+02 -0.17721151319E+02  0.60807003119E+01  0.40967795099E+02  0.00000000000E+00 0.  1.
         11    1    1    2    0    0 -0.15255732499E+02 -0.11552548769E+03 -0.96208765156E+02  0.15111254803E+03  0.00000000000E+00 0. -1.
<mgrwt>
<rscale>  0 0.18459328E+03</rscale>
<asrwt>0</asrwt>
<pdfrwt beam="2">  1        2 0.44193663E-01 0.18987161E+03</pdfrwt>
<pdfrwt beam="1">  1       -2 0.17329599E-01 0.18987161E+03</pdfrwt>
<totfact> 0.30247609E+03</totfact>
</mgrwt>
</event>
<event>
 7    1  0.4230786E-006  0.1404396E+03  0.7546771E-02  0.1227373E+00
          2   -1    0    0  501    0  0.00000000000E+00  0.00000000000E+00  0.19250543480E+03  0.19250543480E+03  0.00000000000E+00 0. -1.
         -2   -1    0    0    0  501 -0.00000000000E+00 -0.00000000000E+00 -0.78205616833E+02  0.78205616833E+02  0.00000000000E+00 0.  1.
         23    2    1    2    0    0  0.21452093643E+02 -0.60306888959E+02  0.50163129738E+02  0.14912957395E+03  0.12500470817E+03 0.  0.
          5    1    3    3  502    0  0.50837268312E+02 -0.79267838454E+02  0.87037875186E+01  0.94687190157E+02  0.47000000000E+01 0. -1.
         -5    1    3    3    0  502 -0.29385174669E+02  0.18960949495E+02  0.41459342220E+02  0.54442383796E+02  0.47000000000E+01 0. -1.
        -11    1    1    2    0    0 -0.39397628403E+02  0.68232255791E+02  0.34435069125E+02  0.85985974668E+02  0.00000000000E+00 0.  1.
         11    1    1    2    0    0  0.17945534760E+02 -0.79253668313E+01  0.29701619104E+02  0.35595503012E+02  0.00000000000E+00 0. -1.
<mgrwt>
<rscale>  0 0.13005600E+03</rscale>
<asrwt>0</asrwt>
<pdfrwt beam="1">  1        2 0.29616221E-01 0.14043963E+03</pdfrwt>
<pdfrwt beam="2">  1       -2 0.12031633E-01 0.14043963E+03</pdfrwt>
<totfact> 0.83071114E+03</totfact>
</mgrwt>
</event>
<event>
 6    1  0.4230786E-006  0.1660239E+03  0.7546771E-02  0.1209148E+00
          2   -1    0    0  501    0  0.00000000000E+00  0.00000000000E+00  0.22211225845E+03  0.22211225845E+03  0.00000000000E+00 0. -1.
         -2   -1    0    0    0  501 -0.00000000000E+00 -0.00000000000E+00 -0.74851154510E+02  0.74851154510E+02  0.00000000000E+00 0.  1.
          5    1    1    2  502    0 -0.25193124779E+02  0.26124852788E+01  0.13325473531E+03  0.13572189616E+03  0.47000000000E+01 0. -1.
         -5    1    1    2    0  502  0.32110396609E+02  0.71812968198E+01 -0.42132457766E+02  0.53664537563E+02  0.47000000000E+01 0.  1.
        -11    1    1    2    0    0 -0.36490132009E+02  0.18192413653E+02  0.33510433968E+01  0.40911161563E+02  0.00000000000E+00 0. -1.
         11    1    1    2    0    0  0.29572860179E+02 -0.27986195752E+02  0.52787783000E+02  0.66665817672E+02  0.00000000000E+00 0.  1.
<mgrwt>
<rscale>  0 0.14315287E+03</rscale>
<asrwt>0</asrwt>
<pdfrwt beam="1">  1        2 0.34171116E-01 0.16602395E+03</pdfrwt>
<pdfrwt beam="2">  1       -2 0.11515562E-01 0.16602395E+03</pdfrwt>
<totfact> 0.77211697E+03</totfact>
</mgrwt>
</event>
<event>
 7    1  0.4230786E-006  0.1486235E+03  0.7546771E-02  0.1213171E+00
          2   -1    0    0  501    0  0.00000000000E+00  0.00000000000E+00  0.36982173593E+03  0.36982173593E+03  0.00000000000E+00 0.  1.
         -2   -1    0    0    0  501 -0.00000000000E+00 -0.00000000000E+00 -0.48120787655E+02  0.48120787655E+02  0.00000000000E+00 0. -1.
         23    2    1    2    0    0  0.68306026159E+02  0.42406428058E+02  0.16385020581E+03  0.22121444578E+03  0.12499969092E+03 0.  0.
          5    1    3    3  502    0  0.10429001831E+03  0.35925448170E+02  0.10914224555E+03  0.15524550077E+03  0.47000000000E+01 0.  1.
         -5    1    3    3    0  502 -0.35983992148E+02  0.64809798880E+01  0.54707960254E+02  0.65968945014E+02  0.47000000000E+01 0.  1.
        -11    1    1    2    0    0 -0.24964159861E+02 -0.64208214457E+02  0.93315360213E+02  0.11598991565E+03  0.00000000000E+00 0. -1.
         11    1    1    2    0    0 -0.43341866298E+02  0.21801786399E+02  0.64535382255E+02  0.80738162148E+02  0.00000000000E+00 0.  1.
<mgrwt>
<rscale>  0 0.14011730E+03</rscale>
<asrwt>0</asrwt>
<pdfrwt beam="1">  1        2 0.56895650E-01 0.14862349E+03</pdfrwt>
<pdfrwt beam="2">  1       -2 0.74031983E-02 0.14862349E+03</pdfrwt>
<totfact> 0.88858185E+03</totfact>
</mgrwt>
</event>
<event>
 7    1  0.4230786E-006  0.1274367E+03  0.7546771E-02  0.1245092E+00
         -3   -1    0    0    0  501 -0.00000000000E+00  0.00000000000E+00  0.10838014765E+03  0.10838014765E+03  0.00000000000E+00 0.  1.
          3   -1    0    0  501    0  0.00000000000E+00 -0.00000000000E+00 -0.11937394393E+03  0.11937394393E+03  0.00000000000E+00 0. -1.
         23    2    1    2    0    0  0.13223006497E+02 -0.20985754889E+02  0.14318418458E+02  0.12823860547E+03  0.12499949207E+03 0.  0.
          5    1    3    3  502    0  0.42984616833E+02 -0.62320463507E+02  0.13725784944E+02  0.77084399384E+02  0.47000000000E+01 0.  1.
         -5    1    3    3    0  502 -0.29761610336E+02  0.41334708618E+02  0.59263351355E+00  0.51154206091E+02  0.47000000000E+01 0.  1.
        -11    1    1    2    0    0  0.53151129573E+00  0.50886984552E+02  0.93223536202E+01  0.51736582590E+02  0.00000000000E+00 0.  1.
         11    1    1    2    0    0 -0.13754517793E+02 -0.29901229663E+02 -0.34634568365E+02  0.47778903513E+02  0.00000000000E+00 0. -1.
<mgrwt>
<rscale>  0 0.11879899E+03</rscale>
<asrwt>0</asrwt>
<pdfrwt beam="2">  1        3 0.18365222E-01 0.12743674E+03</pdfrwt>
<pdfrwt beam="1">  1       -3 0.16673869E-01 0.12743674E+03</pdfrwt>
<totfact> 0.18293331E+03</totfact>
</mgrwt>
</event>
<event>
 7    1  0.4230786E-006  0.1268959E+03  0.7546771E-02  0.1245633E+00
         -1   -1    0    0    0  501 -0.00000000000E+00  0.00000000000E+00  0.61403390599E+03  0.61403390599E+03  0.00000000000E+00 0.  1.
          1   -1    0    0  501    0  0.00000000000E+00 -0.00000000000E+00 -0.38966157017E+02  0.38966157017E+02  0.00000000000E+00 0. -1.
         23    2    1    2    0    0  0.78405932189E+01 -0.20379746504E+02  0.53283194257E+03  0.54773392511E+03  0.12500305890E+03 0.  0.
          5    1    3    3  502    0  0.10063540960E+02  0.18692064698E+02  0.48615406671E+03  0.48664004636E+03  0.47000000000E+01 0. -1.
         -5    1    3    3    0  502 -0.22229477413E+01 -0.39071811202E+02  0.46677875855E+02  0.61093878757E+02  0.47000000000E+01 0. -1.
        -11    1    1    2    0    0 -0.76713944914E+01  0.46934323214E+02  0.57514191131E+02  0.74629506031E+02  0.00000000000E+00 0.  1.
         11    1    1    2    0    0 -0.16919872753E+00 -0.26554576710E+02 -0.15278384719E+02  0.30636631866E+02  0.00000000000E+00 0. -1.
<mgrwt>
<rscale>  0 0.11847566E+03</rscale>
<asrwt>0</asrwt>
<pdfrwt beam="2">  1        1 0.59947939E-02 0.12689592E+03</pdfrwt>
<pdfrwt beam="1">  1       -1 0.94466747E-01 0.12689592E+03</pdfrwt>
<totfact> 0.14417372E+03</totfact>
</mgrwt>
</event>
<event>
 7    1  0.4230786E-006  0.1918121E+03  0.7546771E-02  0.1161376E+00
         -1   -1    0    0    0  501 -0.00000000000E+00  0.00000000000E+00  0.14963753589E+03  0.14963753589E+03  0.00000000000E+00 0.  1.
          1   -1    0    0  501    0  0.00000000000E+00 -0.00000000000E+00 -0.41155550460E+03  0.41155550460E+03  0.00000000000E+00 0. -1.
         23    2    1    2    0    0 -0.15456387495E+02 -0.14466632552E+03  0.55695560974E+02  0.19973454501E+03  0.12499858920E+03 0.  0.
          5    1    3    3  502    0  0.69047827721E+01 -0.84940038027E+02 -0.32041510281E+02  0.91165972085E+02  0.47000000000E+01 0. -1.
         -5    1    3    3    0  502 -0.22361170268E+02 -0.59726287495E+02  0.87737071255E+02  0.10856857292E+03  0.47000000000E+01 0. -1.
        -11    1    1    2    0    0  0.28291579671E+02  0.70038116111E+02 -0.71688934277E+02  0.10413959135E+03  0.00000000000E+00 0.  1.
         11    1    1    2    0    0 -0.12835192176E+02  0.74628209411E+02 -0.24592459541E+03  0.25731890413E+03  0.00000000000E+00 0. -1.
<mgrwt>
<rscale>  0 0.18680414E+03</rscale>
<asrwt>0</asrwt>
<pdfrwt beam="2">  1        1 0.63316231E-01 0.19181213E+03</pdfrwt>
<pdfrwt beam="1">  1       -1 0.23021160E-01 0.19181213E+03</pdfrwt>
<totfact> 0.93344143E+02</totfact>
</mgrwt>
</event>
<event>
 7    1  0.4230786E-006  0.1622639E+03  0.7546771E-02  0.1193205E+00
         -2   -1    0    0    0  501 -0.00000000000E+00  0.00000000000E+00  0.11383092835E+03  0.11383092835E+03  0.00000000000E+00 0.  1.
          2   -1    0    0  501    0  0.00000000000E+00 -0.00000000000E+00 -0.25159664453E+03  0.25159664453E+03  0.00000000000E+00 0. -1.
         23    2    1    2    0    0  0.66348210910E+02 -0.79382948053E+02  0.10091789449E+02  0.16257746166E+03  0.12500339713E+03 0.  0.
          5    1    3    3  502    0  0.19260301641E+02 -0.10519713226E+03  0.16425388048E+02  0.10830179698E+03  0.47000000000E+01 0. -1.
         -5    1    3    3    0  502  0.47087909269E+02  0.25814184209E+02 -0.63335985994E+01  0.54275664685E+02  0.47000000000E+01 0. -1.
        -11    1    1    2    0    0 -0.12631232159E+02  0.82872217104E+02 -0.76683821743E+02  0.11361232728E+03  0.00000000000E+00 0. -1.
         11    1    1    2    0    0 -0.53716978751E+02 -0.34892690507E+01 -0.71173683889E+02  0.89237783943E+02  0.00000000000E+00 0.  1.
<mgrwt>
<rscale>  0 0.15607118E+03</rscale>
<asrwt>0</asrwt>
<pdfrwt beam="2">  1        2 0.38707175E-01 0.16226394E+03</pdfrwt>
<pdfrwt beam="1">  1       -2 0.17512451E-01 0.16226394E+03</pdfrwt>
<totfact> 0.34021193E+03</totfact>
</mgrwt>
</event>
<event>
 7    1  0.4230786E-006  0.1484334E+03  0.7546771E-02  0.1210648E+00
          2   -1    0    0  501    0  0.00000000000E+00  0.00000000000E+00  0.26663907309E+03  0.26663907309E+03  0.00000000000E+00 0. -1.
         -2   -1    0    0    0  501 -0.00000000000E+00 -0.00000000000E+00 -0.92550671734E+02  0.92550671734E+02  0.00000000000E+00 0.  1.
         23    2    1    2    0    0 -0.58099502322E+02 -0.58172469964E+02  0.40036051575E+01  0.14848734329E+03  0.12358346908E+03 0.  0.
          5    1    3    3  502    0  0.32431939294E+02  0.10524157739E+02  0.47321530434E+01  0.34742939641E+02  0.47000000000E+01 0. -1.
         -5    1    3    3    0  502 -0.90531441616E+02 -0.68696627703E+02 -0.72854788594E+00  0.11374440365E+03  0.47000000000E+01 0.  1.
        -11    1    1    2    0    0  0.46187200930E+02 -0.43472890850E+01  0.12322345042E+03  0.13166690998E+03  0.00000000000E+00 0.  1.
         11    1    1    2    0    0  0.11912301392E+02  0.62519759049E+02  0.46861345777E+02  0.79035491547E+02  0.00000000000E+00 0. -1.
<mgrwt>
<rscale>  0 0.14201140E+03</rscale>
<asrwt>0</asrwt>
<pdfrwt beam="1">  1        2 0.41021395E-01 0.14843336E+03</pdfrwt>
<pdfrwt beam="2">  1       -2 0.14238565E-01 0.14843336E+03</pdfrwt>
<totfact> 0.44775370E+03</totfact>
</mgrwt>
</event>
<event>
 7    1  0.4736387E-006  0.2094712E+03  0.7546771E-02  0.1145748E+00
          1   -1    0    0  501    0  0.00000000000E+00  0.00000000000E+00  0.18575274914E+03  0.18575274914E+03  0.00000000000E+00 0. -1.
         -1   -1    0    0    0  501 -0.00000000000E+00 -0.00000000000E+00 -0.22766712612E+03  0.22766712612E+03  0.00000000000E+00 0.  1.
         23    2    1    2    0    0 -0.75382985917E+02 -0.15023611487E+03 -0.68000068207E+02  0.22023210867E+03  0.12499875054E+03 0.  0.
          5    1    3    3  502    0  0.34827911317E+02 -0.43785510776E+02 -0.19838344638E+02  0.59546656318E+02  0.47000000000E+01 0. -1.
         -5    1    3    3    0  502 -0.11021089723E+03 -0.10645060409E+03 -0.48161723569E+02  0.16068545235E+03  0.47000000000E+01 0. -1.
        -11    1    1    2    0    0  0.43281621822E+02  0.15130397085E+03  0.11154082937E+02  0.15776756305E+03  0.00000000000E+00 0. -1.
         11    1    1    2    0    0  0.32101364095E+02 -0.10678559832E+01  0.14931608289E+02  0.35420203546E+02  0.00000000000E+00 0.  1.
<mgrwt>
<rscale>  0 0.20480436E+03</rscale>
<asrwt>0</asrwt>
<pdfrwt beam="1">  1        1 0.28577346E-01 0.20947117E+03</pdfrwt>
<pdfrwt beam="2">  1       -1 0.35025712E-01 0.20947117E+03</pdfrwt>
<totfact> 0.12529118E+03</totfact>
</mgrwt>
</event>
<event>
 7    1  0.4230786E-006  0.1278313E+03  0.7546771E-02  0.1244964E+00
         -2   -1    0    0    0  501 -0.00000000000E+00  0.00000000000E+00  0.63177448137E+02  0.63177448137E+02  0.00000000000E+00 0.  1.
          2   -1    0    0  501    0  0.00000000000E+00 -0.00000000000E+00 -0.19816383793E+03  0.19816383793E+03  0.00000000000E+00 0. -1.
         23    2    1    2    0    0  0.13127805583E+02  0.23294700274E+02 -0.84429223790E+02  0.15319640162E+03  0.12500344515E+03 0.  0.
          5    1    3    3  502    0 -0.47811867586E+02  0.33529224032E+02 -0.15698541381E+02  0.60652433980E+02  0.47000000000E+01 0. -1.
         -5    1    3    3    0  502  0.60939673168E+02 -0.10234523758E+02 -0.68730682409E+02  0.92543967642E+02  0.47000000000E+01 0. -1.
        -11    1    1    2    0    0 -0.16116125595E+02  0.23901468923E+02  0.10707241006E+02  0.30751499652E+02  0.00000000000E+00 0.  1.
         11    1    1    2    0    0  0.29883200126E+01 -0.47196169198E+02 -0.61264407008E+02  0.77393384791E+02  0.00000000000E+00 0. -1.
<mgrwt>
<rscale>  0 0.11887540E+03</rscale>
<asrwt>0</asrwt>
<pdfrwt beam="2">  1        2 0.30486744E-01 0.12783131E+03</pdfrwt>
<pdfrwt beam="1">  1       -2 0.97196073E-02 0.12783131E+03</pdfrwt>
<totfact> 0.11200502E+04</totfact>
</mgrwt>
</event>
<event>
 7    1  0.4230786E-006  0.2611642E+03  0.7546771E-02  0.1108616E+00
         -2   -1    0    0    0  501 -0.00000000000E+00  0.00000000000E+00  0.83382466531E+02  0.83382466531E+02  0.00000000000E+00 0. -1.
          2   -1    0    0  501    0  0.00000000000E+00 -0.00000000000E+00 -0.98691754011E+03  0.98691754011E+03  0.00000000000E+00 0.  1.
         23    2    1    2    0    0  0.16905480439E+03  0.15493164035E+03 -0.21335908163E+03  0.33723707717E+03  0.12499363357E+03 0.  0.
          5    1    3    3  502    0  0.37691610983E+02  0.11882211170E+03 -0.10665966047E+03  0.16412716088E+03  0.47000000000E+01 0. -1.
         -5    1    3    3    0  502  0.13136319341E+03  0.36109528659E+02 -0.10669942116E+03  0.17310991629E+03  0.47000000000E+01 0. -1.
        -11    1    1    2    0    0 -0.62574526578E+02 -0.11574401579E+02 -0.12373604540E+03  0.13914074557E+03  0.00000000000E+00 0. -1.
         11    1    1    2    0    0 -0.10648027782E+03 -0.14335723878E+03 -0.56643994655E+03  0.59392218389E+03  0.00000000000E+00 0.  1.
<mgrwt>
<rscale>  0 0.25756427E+03</rscale>
<asrwt>0</asrwt>
<pdfrwt beam="2">  1        2 0.15183348E+00 0.26116422E+03</pdfrwt>
<pdfrwt beam="1">  1       -2 0.12828071E-01 0.26116422E+03</pdfrwt>
<totfact> 0.11874269E+03</totfact>
</mgrwt>
</event>
<event>
 7    1  0.7393267E-006  0.1742845E+03  0.7546771E-02  0.1179656E+00
          1   -1    0    0  501    0  0.00000000000E+00  0.00000000000E+00  0.37270932640E+03  0.37270932640E+03  0.00000000000E+00 0. -1.
         -1   -1    0    0    0  501 -0.00000000000E+00 -0.00000000000E+00 -0.73184393194E+02  0.73184393194E+02  0.00000000000E+00 0.  1.
         23    2    1    2    0    0 -0.51433892867E+02  0.11002060601E+03  0.12315346514E+03  0.21340537611E+03  0.12500039798E+03 0.  0.
          5    1    3    3  502    0  0.20270603251E+02  0.95706676825E+02  0.50396214870E+02  0.11014778172E+03  0.47000000000E+01 0.  1.
         -5    1    3    3    0  502 -0.71704496119E+02  0.14313929188E+02  0.72757250272E+02  0.10325759439E+03  0.47000000000E+01 0.  1.
        -11    1    1    2    0    0 -0.17011455489E+02 -0.22634038525E+01  0.33746547410E+01  0.17490023141E+02  0.00000000000E+00 0.  1.
         11    1    1    2    0    0  0.68445348356E+02 -0.10775720216E+03  0.17299681333E+03  0.21499832034E+03  0.00000000000E+00 0. -1.
<mgrwt>
<rscale>  0 0.16827807E+03</rscale>
<asrwt>0</asrwt>
<pdfrwt beam="1">  1        1 0.57339895E-01 0.17428448E+03</pdfrwt>
<pdfrwt beam="2">  1       -1 0.11259138E-01 0.17428448E+03</pdfrwt>
<totfact> 0.32928883E+03</totfact>
</mgrwt>
</event>
<event>
 7    1  0.4230786E-006  0.1312904E+03  0.7546771E-02  0.1237117E+00
         -1   -1    0    0    0  501 -0.00000000000E+00  0.00000000000E+00  0.24131159451E+02  0.24131159451E+02  0.00000000000E+00 0.  1.
          1   -1    0    0  501    0  0.00000000000E+00 -0.00000000000E+00 -0.57568400039E+03  0.57568400039E+03  0.00000000000E+00 0. -1.
         23    2    1    2    0    0 -0.17418751579E+02 -0.36173012076E+02 -0.28107523977E+03  0.31022646424E+03  0.12500107597E+03 0.  0.
          5    1    3    3  502    0  0.63633377941E+01 -0.62502272693E+02 -0.62509853936E+02  0.88750199993E+02  0.47000000000E+01 0. -1.
         -5    1    3    3    0  502 -0.23782089373E+02  0.26329260617E+02 -0.21856538584E+03  0.22147626425E+03  0.47000000000E+01 0. -1.
        -11    1    1    2    0    0  0.20385613308E+02 -0.30375843656E+02 -0.10590311112E+03  0.11204344716E+03  0.00000000000E+00 0.  1.
         11    1    1    2    0    0 -0.29668617284E+01  0.66548855731E+02 -0.16457449004E+03  0.17754524843E+03  0.00000000000E+00 0. -1.
<mgrwt>
<rscale>  0 0.12369876E+03</rscale>
<asrwt>0</asrwt>
<pdfrwt beam="2">  1        1 0.88566776E-01 0.13129040E+03</pdfrwt>
<pdfrwt beam="1">  1       -1 0.37124858E-02 0.13129040E+03</pdfrwt>
<totfact> 0.97583948E+03</totfact>
</mgrwt>
</event>
<event>
 7    1  0.4230786E-006  0.1709072E+03  0.7546771E-02  0.1183423E+00
         -2   -1    0    0    0  501 -0.00000000000E+00  0.00000000000E+00  0.96168861899E+02  0.96168861899E+02  0.00000000000E+00 0.  1.
          2   -1    0    0  501    0  0.00000000000E+00 -0.00000000000E+00 -0.26408898182E+03  0.26408898182E+03  0.00000000000E+00 0. -1.
         23    2    1    2    0    0 -0.83815928461E+02 -0.80989409546E+02 -0.83693390495E+02  0.19029937257E+03  0.12499949306E+03 0.  0.
          5    1    3    3  502    0 -0.34154772851E+02 -0.58382845508E+02 -0.11025247087E+03  0.12943261757E+03  0.47000000000E+01 0. -1.
         -5    1    3    3    0  502 -0.49661155609E+02 -0.22606564038E+02  0.26559080372E+02  0.60866755000E+02  0.47000000000E+01 0. -1.
        -11    1    1    2    0    0  0.10999402343E+02  0.66107365842E+02 -0.15620986590E+02  0.68812687003E+02  0.00000000000E+00 0.  1.
         11    1    1    2    0    0  0.72816526117E+02  0.14882043704E+02 -0.68605742831E+02  0.10114578414E+03  0.00000000000E+00 0. -1.
<mgrwt>
<rscale>  0 0.16476188E+03</rscale>
<asrwt>0</asrwt>
<pdfrwt beam="2">  1        2 0.40629074E-01 0.17090719E+03</pdfrwt>
<pdfrwt beam="1">  1       -2 0.14795209E-01 0.17090719E+03</pdfrwt>
<totfact> 0.42802082E+03</totfact>
</mgrwt>
</event>
<event>
 7    1  0.4230786E-006  0.1422148E+03  0.7546771E-02  0.1217267E+00
          1   -1    0    0  501    0  0.00000000000E+00  0.00000000000E+00  0.11293547929E+03  0.11293547929E+03  0.00000000000E+00 0. -1.
         -1   -1    0    0    0  501 -0.00000000000E+00 -0.00000000000E+00 -0.16489930419E+03  0.16489930419E+03  0.00000000000E+00 0.  1.
         23    2    1    2    0    0 -0.67065210251E+02 -0.10169964511E+02 -0.60736941982E+02  0.15464163698E+03  0.12499555657E+03 0.  0.
          5    1    3    3  502    0 -0.48967086390E+02 -0.40776048402E+02  0.19457873348E+02  0.66791919481E+02  0.47000000000E+01 0.  1.
         -5    1    3    3    0  502 -0.18098123861E+02  0.30606083891E+02 -0.80194815330E+02  0.87849717497E+02  0.47000000000E+01 0.  1.
        -11    1    1    2    0    0  0.19292656916E+02 -0.12902808313E+02 -0.43127108198E+02  0.48975877070E+02  0.00000000000E+00 0.  1.
         11    1    1    2    0    0  0.47772553335E+02  0.23072772824E+02  0.51900225274E+02  0.74217269429E+02  0.00000000000E+00 0. -1.
<mgrwt>
<rscale>  0 0.13711321E+03</rscale>
<asrwt>0</asrwt>
<pdfrwt beam="1">  1        1 0.17374689E-01 0.14221484E+03</pdfrwt>
<pdfrwt beam="2">  1       -1 0.25369124E-01 0.14221484E+03</pdfrwt>
<totfact> 0.40108284E+03</totfact>
</mgrwt>
</event>
<event>
 7    1  0.4230786E-006  0.1753696E+03  0.7546771E-02  0.1178409E+00
         -3   -1    0    0    0  501 -0.00000000000E+00  0.00000000000E+00  0.24553609207E+03  0.24553609207E+03  0.00000000000E+00 0.  1.
          3   -1    0    0  501    0  0.00000000000E+00 -0.00000000000E+00 -0.13937933956E+03  0.13937933956E+03  0.00000000000E+00 0. -1.
         23    2    1    2    0    0  0.23488609675E+02 -0.12073919120E+03  0.14454333448E+03  0.22726033640E+03  0.12499927152E+03 0.  0.
          5    1    3    3  502    0 -0.26634117037E+02  0.11552511088E+02  0.77457574913E+01  0.30412554346E+02  0.47000000000E+01 0. -1.
         -5    1    3    3    0  502  0.50122726712E+02 -0.13229170229E+03  0.13679757699E+03  0.19684778205E+03  0.47000000000E+01 0. -1.
        -11    1    1    2    0    0  0.20194807749E+02  0.48162663398E+02  0.18737549659E+02  0.55484846335E+02  0.00000000000E+00 0. -1.
         11    1    1    2    0    0 -0.43683417424E+02  0.72576527804E+02 -0.57124131629E+02  0.10217024890E+03  0.00000000000E+00 0.  1.
<mgrwt>
<rscale>  0 0.16946302E+03</rscale>
<asrwt>0</asrwt>
<pdfrwt beam="2">  1        3 0.21442975E-01 0.17536957E+03</pdfrwt>
<pdfrwt beam="1">  1       -3 0.37774783E-01 0.17536957E+03</pdfrwt>
<totfact> 0.33062361E+02</totfact>
</mgrwt>
</event>
<event>
 7    1  0.4230786E-006  0.1305827E+03  0.7546771E-02  0.1237282E+00
          1   -1    0    0  501    0  0.00000000000E+00  0.00000000000E+00  0.92981356902E+03  0.92981356902E+03  0.00000000000E+00 0. -1.
         -1   -1    0    0    0  501 -0.00000000000E+00 -0.00000000000E+00 -0.14912594977E+02  0.14912594977E+02  0.00000000000E+00 0.  1.
         23    2    1    2    0    0  0.22892304644E+02  0.30070563855E+02  0.52307625286E+03  0.53912948882E+03  0.12499417178E+03 0.  0.
          5    1    3    3  502    0  0.97143754768E+01  0.75389974696E+01  0.50887395601E+03  0.50904420110E+03  0.47000000000E+01 0. -1.
         -5    1    3    3    0  502  0.13177929168E+02  0.22531566386E+02  0.14202296858E+02  0.30085287717E+02  0.47000000000E+01 0. -1.
        -11    1    1    2    0    0  0.57245124734E+01  0.23771430244E+02  0.30151517293E+02  0.38819646238E+02  0.00000000000E+00 0.  1.
         11    1    1    2    0    0 -0.28616817118E+02 -0.53841994100E+02  0.36167320389E+03  0.36677702894E+03  0.00000000000E+00 0. -1.
<mgrwt>
<rscale>  0 0.12359464E+03</rscale>
<asrwt>0</asrwt>
<pdfrwt beam="1">  1        1 0.14304820E+00 0.13058269E+03</pdfrwt>
<pdfrwt beam="2">  1       -1 0.22942461E-02 0.13058269E+03</pdfrwt>
<totfact> 0.97499968E+03</totfact>
</mgrwt>
</event>
<event>
 7    1  0.4230786E-006  0.1602864E+03  0.7546771E-02  0.1188521E+00
         -2   -1    0    0    0  501 -0.00000000000E+00  0.00000000000E+00  0.24342411675E+02  0.24342411675E+02  0.00000000000E+00 0.  1.
          2   -1    0    0  501    0  0.00000000000E+00 -0.00000000000E+00 -0.10716798609E+04  0.10716798609E+04  0.00000000000E+00 0. -1.
         23    2    1    2    0    0 -0.90983546286E+02 -0.40274081758E+02 -0.44856481588E+03  0.47616712042E+03  0.12499890067E+03 0.  0.
          5    1    3    3  502    0 -0.57922967914E+02 -0.65573314657E+02 -0.40989154331E+03  0.41915163973E+03  0.47000000000E+01 0.  1.
         -5    1    3    3    0  502 -0.33060578372E+02  0.25299232900E+02 -0.38673272563E+02  0.57015480690E+02  0.47000000000E+01 0.  1.
        -11    1    1    2    0    0  0.36016591983E+02 -0.45503569114E+02 -0.23808203542E+03  0.24505269901E+03  0.00000000000E+00 0.  1.
         11    1    1    2    0    0  0.54966954303E+02  0.85777650872E+02 -0.36069059796E+03  0.37480245319E+03  0.00000000000E+00 0. -1.
<mgrwt>
<rscale>  0 0.16015583E+03</rscale>
<asrwt>0</asrwt>
<pdfrwt beam="2">  1        2 0.16487387E+00 0.16028644E+03</pdfrwt>
<pdfrwt beam="1">  1       -2 0.37449853E-02 0.16028644E+03</pdfrwt>
<totfact> 0.70583160E+03</totfact>
</mgrwt>
</event>
<event>
 7    1  0.4230786E-006  0.1986612E+03  0.7546771E-02  0.1155292E+00
          2   -1    0    0  501    0  0.00000000000E+00  0.00000000000E+00  0.13965199852E+03  0.13965199852E+03  0.00000000000E+00 0. -1.
         -2   -1    0    0    0  501 -0.00000000000E+00 -0.00000000000E+00 -0.26823632475E+03  0.26823632475E+03  0.00000000000E+00 0.  1.
         23    2    1    2    0    0 -0.56366306582E+02  0.14374586711E+03 -0.11211389291E+03  0.22811355365E+03  0.12500493409E+03 0.  0.
          5    1    3    3  502    0  0.15544186991E+02  0.11807177574E+03 -0.87132794078E+02  0.14763732516E+03  0.47000000000E+01 0. -1.
         -5    1    3    3    0  502 -0.71910493573E+02  0.25674091372E+02 -0.24981098832E+02  0.80476228493E+02  0.47000000000E+01 0. -1.
        -11    1    1    2    0    0  0.34461680051E+02 -0.62747457104E+02 -0.52177405842E+02  0.88585170573E+02  0.00000000000E+00 0.  1.
         11    1    1    2    0    0  0.21904626531E+02 -0.80998410011E+02  0.35706972522E+02  0.91189599047E+02  0.00000000000E+00 0. -1.
<mgrwt>
<rscale>  0 0.19355722E+03</rscale>
<asrwt>0</asrwt>
<pdfrwt beam="1">  1        2 0.21484923E-01 0.19866119E+03</pdfrwt>
<pdfrwt beam="2">  1       -2 0.41267127E-01 0.19866119E+03</pdfrwt>
<totfact> 0.14201284E+03</totfact>
</mgrwt>
</event>
<event>
 7    1  0.4230786E-006  0.1796314E+03  0.7546771E-02  0.1173868E+00
          1   -1    0    0  501    0  0.00000000000E+00  0.00000000000E+00  0.12848948092E+04  0.12848948092E+04  0.00000000000E+00 0. -1.
         -1   -1    0    0    0  501 -0.00000000000E+00 -0.00000000000E+00 -0.23164898658E+02  0.23164898658E+02  0.00000000000E+00 0.  1.
         23    2    1    2    0    0  0.92299583835E+02  0.90139333662E+02  0.53268190094E+03  0.56215427770E+03  0.12499244655E+03 0.  0.
          5    1    3    3  502    0  0.11647111050E+03  0.39328862502E+02  0.35440061732E+03  0.37514552718E+03  0.47000000000E+01 0.  1.
         -5    1    3    3    0  502 -0.24171526662E+02  0.50810471160E+02  0.17828128362E+03  0.18700875051E+03  0.47000000000E+01 0.  1.
        -11    1    1    2    0    0 -0.71958389849E+02 -0.95622013300E+02  0.69922386236E+03  0.70939099867E+03  0.00000000000E+00 0. -1.
         11    1    1    2    0    0 -0.20341193986E+02  0.54826796379E+01  0.29824147254E+02  0.36514431506E+02  0.00000000000E+00 0.  1.
<mgrwt>
<rscale>  0 0.17387326E+03</rscale>
<asrwt>0</asrwt>
<pdfrwt beam="1">  1        1 0.19767607E+00 0.17963136E+03</pdfrwt>
<pdfrwt beam="2">  1       -1 0.35638316E-02 0.17963136E+03</pdfrwt>
<totfact> 0.29046285E+03</totfact>
</mgrwt>
</event>
<event>
 7    1  0.4230786E-006  0.1282374E+03  0.7546771E-02  0.1244842E+00
          2   -1    0    0  501    0  0.00000000000E+00  0.00000000000E+00  0.18106218743E+03  0.18106218743E+03  0.00000000000E+00 0.  1.
         -2   -1    0    0    0  501 -0.00000000000E+00 -0.00000000000E+00 -0.70479085172E+02  0.70479085172E+02  0.00000000000E+00 0. -1.
         23    2    1    2    0    0  0.17812772685E+01 -0.28592112609E+02  0.43942937593E+02  0.13555737474E+03  0.12499655287E+03 0.  0.
          5    1    3    3  502    0 -0.24724647460E+02 -0.36174462131E+01 -0.38023609373E+02  0.45741436127E+02  0.47000000000E+01 0. -1.
         -5    1    3    3    0  502  0.26505924729E+02 -0.24974666396E+02  0.81966546966E+02  0.89815938613E+02  0.47000000000E+01 0. -1.
        -11    1    1    2    0    0 -0.43911710891E+02  0.29363507146E+01  0.20928669251E+02  0.48732634913E+02  0.00000000000E+00 0. -1.
         11    1    1    2    0    0  0.42130433623E+02  0.25655761895E+02  0.45711495418E+02  0.67251262954E+02  0.00000000000E+00 0.  1.
<mgrwt>
<rscale>  0 0.11894869E+03</rscale>
<asrwt>0</asrwt>
<pdfrwt beam="1">  1        2 0.27855721E-01 0.12823736E+03</pdfrwt>
<pdfrwt beam="2">  1       -2 0.10842936E-01 0.12823736E+03</pdfrwt>
<totfact> 0.10402652E+04</totfact>
</mgrwt>
</event>
<event>
 6    1  0.4230786E-006  0.2376986E+03  0.7546771E-02  0.1136294E+00
         -1   -1    0    0    0  501 -0.00000000000E+00  0.00000000000E+00  0.25381348429E+03  0.25381348429E+03  0.00000000000E+00 0.  1.
          1   -1    0    0  501    0  0.00000000000E+00 -0.00000000000E+00 -0.19095048541E+03  0.19095048541E+03  0.00000000000E+00 0. -1.
          5    1    1    2  502    0  0.61456698961E+02 -0.18237574760E+02 -0.37773884686E+02  0.74555290521E+02  0.47000000000E+01 0. -1.
         -5    1    1    2    0  502 -0.37118401464E+02 -0.98378226858E+02  0.16322334209E+03  0.19421637585E+03  0.47000000000E+01 0.  1.
        -11    1    1    2    0    0  0.48899883216E+01  0.33210480535E+02  0.32116021582E+02  0.46457365890E+02  0.00000000000E+00 0.  1.
         11    1    1    2    0    0 -0.29228285819E+02  0.83405321083E+02 -0.94702480106E+02  0.12953493743E+03  0.00000000000E+00 0. -1.
<mgrwt>
<rscale>  0 0.21679708E+03</rscale>
<asrwt>0</asrwt>
<pdfrwt beam="2">  1        1 0.29376998E-01 0.23769864E+03</pdfrwt>
<pdfrwt beam="1">  1       -1 0.39048228E-01 0.23769864E+03</pdfrwt>
<totfact> 0.10021648E+03</totfact>
</mgrwt>
</event>
<event>
 7    1  0.4230786E-006  0.2578050E+03  0.7546771E-02  0.1110615E+00
         -1   -1    0    0    0  501 -0.00000000000E+00  0.00000000000E+00  0.10490927045E+03  0.10490927045E+03  0.00000000000E+00 0.  1.
          1   -1    0    0  501    0  0.00000000000E+00 -0.00000000000E+00 -0.10993933313E+04  0.10993933313E+04  0.00000000000E+00 0. -1.
         23    2    1    2    0    0  0.21913555257E+03  0.53082773635E+02 -0.99017709493E+02  0.27616647934E+03  0.12500098503E+03 0.  0.
          5    1    3    3  502    0  0.17833711050E+03  0.91187139280E+02 -0.65040970294E+02  0.21064576229E+03  0.47000000000E+01 0. -1.
         -5    1    3    3    0  502  0.40798442070E+02 -0.38104365645E+02 -0.33976739199E+02  0.65520717053E+02  0.47000000000E+01 0. -1.
        -11    1    1    2    0    0 -0.17958099834E+03 -0.14657487830E+02 -0.56304169894E+03  0.59116844610E+03  0.00000000000E+00 0.  1.
         11    1    1    2    0    0 -0.39554554238E+02 -0.38425285805E+02 -0.33242465246E+03  0.33696767636E+03  0.00000000000E+00 0. -1.
<mgrwt>
<rscale>  0 0.25430391E+03</rscale>
<asrwt>0</asrwt>
<pdfrwt beam="2">  1        1 0.16913745E+00 0.25780500E+03</pdfrwt>
<pdfrwt beam="1">  1       -1 0.16139887E-01 0.25780500E+03</pdfrwt>
<totfact> 0.38868313E+02</totfact>
</mgrwt>
</event>
<event>
 7    1  0.4230786E-006  0.1304498E+03  0.7546771E-02  0.1241019E+00
          1   -1    0    0  501    0  0.00000000000E+00  0.00000000000E+00  0.10716853430E+03  0.10716853430E+03  0.00000000000E+00 0. -1.
         -1   -1    0    0    0  501 -0.00000000000E+00 -0.00000000000E+00 -0.15675328093E+03  0.15675328093E+03  0.00000000000E+00 0.  1.
         23    2    1    2    0    0  0.58481337363E+01  0.36861972394E+02 -0.89962776239E+02  0.15846278439E+03  0.12499658896E+03 0.  0.
          5    1    3    3  502    0  0.36613469451E+02  0.11592633970E+01  0.17616772094E+02  0.40918586191E+02  0.47000000000E+01 0. -1.
         -5    1    3    3    0  502 -0.30765335714E+02  0.35702708997E+02 -0.10757954833E+03  0.11754419820E+03  0.47000000000E+01 0. -1.
        -11    1    1    2    0    0 -0.12904852778E+01  0.30023124003E+02  0.85268760161E+01  0.31237172435E+02  0.00000000000E+00 0. -1.
         11    1    1    2    0    0 -0.45576484585E+01 -0.66885096397E+02  0.31851153599E+02  0.74221858405E+02  0.00000000000E+00 0.  1.
<mgrwt>
<rscale>  0 0.12126846E+03</rscale>
<asrwt>0</asrwt>
<pdfrwt beam="1">  1        1 0.16487467E-01 0.13044981E+03</pdfrwt>
<pdfrwt beam="2">  1       -1 0.24115889E-01 0.13044981E+03</pdfrwt>
<totfact> 0.46384901E+03</totfact>
</mgrwt>
</event>
<event>
 7    1  0.4230786E-006  0.1357732E+03  0.7546771E-02  0.1233168E+00
         -3   -1    0    0    0  501 -0.00000000000E+00  0.00000000000E+00  0.13398366473E+03  0.13398366473E+03  0.00000000000E+00 0.  1.
          3   -1    0    0  501    0  0.00000000000E+00 -0.00000000000E+00 -0.10956847754E+03  0.10956847754E+03  0.00000000000E+00 0. -1.
         23    2    1    2    0    0 -0.11106442661E+02  0.51830982726E+02  0.38572720232E+02  0.14114609383E+03  0.12499824487E+03 0.  0.
          5    1    3    3  502    0 -0.56779684041E+02  0.39075773844E+02  0.57487416912E+02  0.89876257846E+02  0.47000000000E+01 0. -1.
         -5    1    3    3    0  502  0.45673241380E+02  0.12755208882E+02 -0.18914696680E+02  0.51269835989E+02  0.47000000000E+01 0. -1.
        -11    1    1    2    0    0  0.46798988750E+02 -0.14582044659E+02 -0.42331485333E+00  0.49020001734E+02  0.00000000000E+00 0.  1.
         11    1    1    2    0    0 -0.35692546090E+02 -0.37248938067E+02 -0.13734218186E+02  0.53386046703E+02  0.00000000000E+00 0. -1.
<mgrwt>
<rscale>  0 0.12622470E+03</rscale>
<asrwt>0</asrwt>
<pdfrwt beam="2">  1        3 0.16856689E-01 0.13577321E+03</pdfrwt>
<pdfrwt beam="1">  1       -3 0.20612872E-01 0.13577321E+03</pdfrwt>
<totfact> 0.14820377E+03</totfact>
</mgrwt>
</event>
<event>
 7    1  0.4230786E-006  0.1323492E+03  0.7546771E-02  0.1237017E+00
         -1   -1    0    0    0  501 -0.00000000000E+00  0.00000000000E+00  0.18479169787E+02  0.18479169787E+02  0.00000000000E+00 0.  1.
          1   -1    0    0  501    0  0.00000000000E+00 -0.00000000000E+00 -0.73846978849E+03  0.73846978849E+03  0.00000000000E+00 0. -1.
         23    2    1    2    0    0  0.19966932202E+02  0.38651438263E+02 -0.39781985131E+03  0.41925762594E+03  0.12499484292E+03 0.  0.
          5    1    3    3  502    0  0.13809752673E+02  0.56769719832E+02 -0.39503189325E+03  0.39935672906E+03  0.47000000000E+01 0. -1.
         -5    1    3    3    0  502  0.61571795291E+01 -0.18118281569E+02 -0.27879580560E+01  0.19900896886E+02  0.47000000000E+01 0. -1.
        -11    1    1    2    0    0 -0.82297499273E+01  0.25727678842E+02 -0.41677402215E+02  0.49665361147E+02  0.00000000000E+00 0.  1.
         11    1    1    2    0    0 -0.11737182275E+02 -0.64379117106E+02 -0.28049336519E+03  0.28802597119E+03  0.00000000000E+00 0. -1.
<mgrwt>
<rscale>  0 0.12376168E+03</rscale>
<asrwt>0</asrwt>
<pdfrwt beam="2">  1        1 0.11361074E+00 0.13234925E+03</pdfrwt>
<pdfrwt beam="1">  1       -1 0.28429491E-02 0.13234925E+03</pdfrwt>
<totfact> 0.10177421E+04</totfact>
</mgrwt>
</event>
<event>
 7    1  0.4230786E-006  0.1308069E+03  0.7546771E-02  0.1239804E+00
          1   -1    0    0  501    0  0.00000000000E+00  0.00000000000E+00  0.52778757727E+03  0.52778757727E+03  0.00000000000E+00 0. -1.
         -1   -1    0    0    0  501 -0.00000000000E+00 -0.00000000000E+00 -0.25832258058E+02  0.25832258058E+02  0.00000000000E+00 0.  1.
         23    2    1    2    0    0 -0.36152759227E+02  0.13419251032E+02  0.23607176956E+03  0.26988949154E+03  0.12499343569E+03 0.  0.
          5    1    3    3  502    0 -0.47576873793E+02  0.59183377400E+02  0.99028573937E+02  0.12487986041E+03  0.47000000000E+01 0. -1.
         -5    1    3    3    0  502  0.11424114566E+02 -0.45764126368E+02  0.13704319562E+03  0.14500963113E+03  0.47000000000E+01 0. -1.
        -11    1    1    2    0    0  0.86605657445E+01  0.35640042836E+02  0.60161397025E+02  0.70460001024E+02  0.00000000000E+00 0.  1.
         11    1    1    2    0    0  0.27492193483E+02 -0.49059293869E+02  0.20572215263E+03  0.21327034276E+03  0.00000000000E+00 0. -1.
<mgrwt>
<rscale>  0 0.12201841E+03</rscale>
<asrwt>0</asrwt>
<pdfrwt beam="1">  1        1 0.81198080E-01 0.13080695E+03</pdfrwt>
<pdfrwt beam="2">  1       -1 0.39741940E-02 0.13080695E+03</pdfrwt>
<totfact> 0.99109217E+03</totfact>
</mgrwt>
</event>
<event>
 7    1  0.4230786E-006  0.1412297E+03  0.7546771E-02  0.1222157E+00
         -2   -1    0    0    0  501 -0.00000000000E+00  0.00000000000E+00  0.55440737672E+02  0.55440737672E+02  0.00000000000E+00 0.  1.
          2   -1    0    0  501    0  0.00000000000E+00 -0.00000000000E+00 -0.30410397496E+03  0.30410397496E+03  0.00000000000E+00 0. -1.
         23    2    1    2    0    0 -0.52213401226E+02  0.39929243868E+02 -0.10174794784E+03  0.17406453052E+03  0.12500092844E+03 0.  0.
          5    1    3    3  502    0 -0.42788492734E+02  0.63284267247E+01 -0.12467299900E+03  0.13204677495E+03  0.47000000000E+01 0. -1.
         -5    1    3    3    0  502 -0.94249084922E+01  0.33600817143E+02  0.22925051157E+02  0.42017755572E+02  0.47000000000E+01 0. -1.
        -11    1    1    2    0    0 -0.58961981621E+01 -0.53093223775E+02 -0.63716944849E+02  0.83147487180E+02  0.00000000000E+00 0.  1.
         11    1    1    2    0    0  0.58109599388E+02  0.13163979907E+02 -0.83198344604E+02  0.10233269494E+03  0.00000000000E+00 0. -1.
<mgrwt>
<rscale>  0 0.13363657E+03</rscale>
<asrwt>0</asrwt>
<pdfrwt beam="2">  1        2 0.46785227E-01 0.14122966E+03</pdfrwt>
<pdfrwt beam="1">  1       -2 0.85293442E-02 0.14122966E+03</pdfrwt>
<totfact> 0.87595757E+03</totfact>
</mgrwt>
</event>
<event>
 7    1  0.4230786E-006  0.1267949E+03  0.7546771E-02  0.1244345E+00
         -3   -1    0    0    0  501 -0.00000000000E+00  0.00000000000E+00  0.26014390322E+03  0.26014390322E+03  0.00000000000E+00 0.  1.
          3   -1    0    0  501    0  0.00000000000E+00 -0.00000000000E+00 -0.49191810842E+02  0.49191810842E+02  0.00000000000E+00 0. -1.
         23    2    1    2    0    0  0.55943506243E+01 -0.20527619231E+02  0.12568426302E+03  0.17853148562E+03  0.12499710988E+03 0.  0.
          5    1    3    3  502    0  0.11172199050E+02  0.51511881674E+02  0.39909371601E+02  0.66280765889E+02  0.47000000000E+01 0. -1.
         -5    1    3    3    0  502 -0.55778484257E+01 -0.72039500905E+02  0.85774891415E+02  0.11225071973E+03  0.47000000000E+01 0. -1.
        -11    1    1    2    0    0 -0.49063987020E+01  0.59735109789E+02  0.53412618084E+02  0.80282400689E+02  0.00000000000E+00 0.  1.
         11    1    1    2    0    0 -0.68795192229E+00 -0.39207490559E+02  0.31855211278E+02  0.50521827751E+02  0.00000000000E+00 0. -1.
<mgrwt>
<rscale>  0 0.11924663E+03</rscale>
<asrwt>0</asrwt>
<pdfrwt beam="2">  1        3 0.75679710E-02 0.12679494E+03</pdfrwt>
<pdfrwt beam="1">  1       -3 0.40022138E-01 0.12679494E+03</pdfrwt>
<totfact> 0.16450117E+03</totfact>
</mgrwt>
</event>
<event>
 7    1  0.4230786E-006  0.1278204E+03  0.7546771E-02  0.1245494E+00
         -2   -1    0    0    0  501 -0.00000000000E+00  0.00000000000E+00  0.13565160167E+03  0.13565160167E+03  0.00000000000E+00 0.  1.
          2   -1    0    0  501    0  0.00000000000E+00 -0.00000000000E+00 -0.11479484361E+03  0.11479484361E+03  0.00000000000E+00 0. -1.
         23    2    1    2    0    0 -0.93214163115E+01 -0.25048558255E+02  0.67955889972E+02  0.14476205697E+03  0.12499492423E+03 0.  0.
          5    1    3    3  502    0 -0.57220795398E+02  0.21068965452E+02  0.31858003178E+02  0.68957545618E+02  0.47000000000E+01 0.  1.
         -5    1    3    3    0  502  0.47899379086E+02 -0.46117523708E+02  0.36097886794E+02  0.75804511349E+02  0.47000000000E+01 0.  1.
        -11    1    1    2    0    0 -0.14104794784E+02  0.28810516693E+01  0.23788136076E+02  0.27805055522E+02  0.00000000000E+00 0.  1.
         11    1    1    2    0    0  0.23426211095E+02  0.22167506586E+02 -0.70887267983E+02  0.77879332795E+02  0.00000000000E+00 0. -1.
<mgrwt>
<rscale>  0 0.11855863E+03</rscale>
<asrwt>0</asrwt>
<pdfrwt beam="2">  1        2 0.17660745E-01 0.12782038E+03</pdfrwt>
<pdfrwt beam="1">  1       -2 0.20869477E-01 0.12782038E+03</pdfrwt>
<totfact> 0.59306822E+03</totfact>
</mgrwt>
</event>
<event>
 7    1  0.4230786E-006  0.1638986E+03  0.7546771E-02  0.1191461E+00
          2   -1    0    0  501    0  0.00000000000E+00  0.00000000000E+00  0.46527335731E+03  0.46527335731E+03  0.00000000000E+00 0. -1.
         -2   -1    0    0    0  501 -0.00000000000E+00 -0.00000000000E+00 -0.50044748879E+02  0.50044748879E+02  0.00000000000E+00 0.  1.
         23    2    1    2    0    0 -0.10554021124E+03  0.99228047197E+01  0.20052210526E+03  0.25898238490E+03  0.12500225097E+03 0.  0.
          5    1    3    3  502    0  0.28411931511E+02  0.72681855307E+01  0.32397665274E+02  0.43951826905E+02  0.47000000000E+01 0.  1.
         -5    1    3    3    0  502 -0.13395214275E+03  0.26546191891E+01  0.16812443998E+03  0.21503055799E+03  0.47000000000E+01 0.  1.
        -11    1    1    2    0    0  0.57807178281E+02  0.36920569331E+02  0.14107106544E+03  0.15686249968E+03  0.00000000000E+00 0. -1.
         11    1    1    2    0    0  0.47733032960E+02 -0.46843374051E+02  0.73635437731E+02  0.99473221612E+02  0.00000000000E+00 0.  1.
<mgrwt>
<rscale>  0 0.15757552E+03</rscale>
<asrwt>0</asrwt>
<pdfrwt beam="1">  1        2 0.71580514E-01 0.16389863E+03</pdfrwt>
<pdfrwt beam="2">  1       -2 0.76991924E-02 0.16389863E+03</pdfrwt>
<totfact> 0.65689224E+03</totfact>
</mgrwt>
</event>
<event>
 7    1  0.4230786E-006  0.1333826E+03  0.7546771E-02  0.1234739E+00
         -2   -1    0    0    0  501 -0.00000000000E+00  0.00000000000E+00  0.10115154791E+03  0.10115154791E+03  0.00000000000E+00 0.  1.
          2   -1    0    0  501    0  0.00000000000E+00 -0.00000000000E+00 -0.29036176483E+03  0.29036176483E+03  0.00000000000E+00 0. -1.
         23    2    1    2    0    0  0.41876332434E+02  0.20304932168E+02  0.40611378918E+02  0.13942813278E+03  0.12500001049E+03 0.  0.
          5    1    3    3  502    0 -0.30102110200E+02  0.47370854856E+02  0.18269747067E+02  0.59211557877E+02  0.47000000000E+01 0.  1.
         -5    1    3    3    0  502  0.71978442634E+02 -0.27065922688E+02  0.22341631851E+02  0.80216574900E+02  0.47000000000E+01 0.  1.
        -11    1    1    2    0    0 -0.30043091207E+02  0.23433636050E+02 -0.33922855781E+02  0.51014534910E+02  0.00000000000E+00 0.  1.
         11    1    1    2    0    0 -0.11833241227E+02 -0.43738568218E+02 -0.19589874006E+03  0.20107064506E+03  0.00000000000E+00 0. -1.
<mgrwt>
<rscale>  0 0.12521149E+03</rscale>
<asrwt>0</asrwt>
<pdfrwt beam="2">  1        2 0.44671041E-01 0.13338261E+03</pdfrwt>
<pdfrwt beam="1">  1       -2 0.15561777E-01 0.13338261E+03</pdfrwt>
<totfact> 0.35180802E+03</totfact>
</mgrwt>
</event>
<event>
 7    1  0.4230786E-006  0.2349333E+03  0.7546771E-02  0.1125799E+00
          1   -1    0    0  501    0  0.00000000000E+00  0.00000000000E+00  0.56605714784E+03  0.56605714784E+03  0.00000000000E+00 0. -1.
         -1   -1    0    0    0  501 -0.00000000000E+00 -0.00000000000E+00 -0.91553478635E+02  0.91553478635E+02  0.00000000000E+00 0.  1.
         23    2    1    2    0    0  0.11600339995E+03  0.16158987303E+03  0.24786926369E+03  0.34151549746E+03  0.12500234900E+03 0.  0.
          5    1    3    3  502    0  0.13468811591E+03  0.10595245923E+03  0.21172801185E+03  0.27242917096E+03  0.47000000000E+01 0. -1.
         -5    1    3    3    0  502 -0.18684715965E+02  0.55637413797E+02  0.36141251836E+02  0.69086326498E+02  0.47000000000E+01 0. -1.
        -11    1    1    2    0    0 -0.82921814730E+02 -0.13947235620E+03  0.11865504194E+03  0.20101637864E+03  0.00000000000E+00 0.  1.
         11    1    1    2    0    0 -0.33081585217E+02 -0.22117516832E+02  0.10797936357E+03  0.11507875038E+03  0.00000000000E+00 0. -1.
<mgrwt>
<rscale>  0 0.23119873E+03</rscale>
<asrwt>0</asrwt>
<pdfrwt beam="1">  1        1 0.87085713E-01 0.23493332E+03</pdfrwt>
<pdfrwt beam="2">  1       -1 0.14085151E-01 0.23493332E+03</pdfrwt>
<totfact> 0.13541670E+03</totfact>
</mgrwt>
</event>
<event>
 7    1  0.4230786E-006  0.2493813E+03  0.7546771E-02  0.1116141E+00
          2   -1    0    0  501    0  0.00000000000E+00  0.00000000000E+00  0.32620281282E+03  0.32620281282E+03  0.00000000000E+00 0. -1.
         -2   -1    0    0    0  501 -0.00000000000E+00 -0.00000000000E+00 -0.18484541858E+03  0.18484541858E+03  0.00000000000E+00 0.  1.
         23    2    1    2    0    0  0.21495903142E+03  0.18953184849E+02  0.29014168718E+02  0.25106343592E+03  0.12499767384E+03 0.  0.
          5    1    3    3  502    0  0.16109140952E+03  0.54974279996E+02  0.58046431030E+02  0.17990022746E+03  0.47000000000E+01 0. -1.
         -5    1    3    3    0  502  0.53867621897E+02 -0.36021095147E+02 -0.29032262313E+02  0.71163208468E+02  0.47000000000E+01 0. -1.
        -11    1    1    2    0    0 -0.85667636317E+02  0.37002265499E+02  0.50799639048E+02  0.10624836418E+03  0.00000000000E+00 0. -1.
         11    1    1    2    0    0 -0.12929139510E+03 -0.55955450349E+02  0.61543586477E+02  0.15373643130E+03  0.00000000000E+00 0.  1.
<mgrwt>
<rscale>  0 0.24556400E+03</rscale>
<asrwt>0</asrwt>
<pdfrwt beam="1">  1        2 0.50185048E-01 0.24938129E+03</pdfrwt>
<pdfrwt beam="2">  1       -2 0.28437757E-01 0.24938129E+03</pdfrwt>
<totfact> 0.11247497E+03</totfact>
</mgrwt>
</event>
<event>
 7    1  0.4230786E-006  0.1252209E+03  0.7546771E-02  0.1249749E+00
          3   -1    0    0  501    0  0.00000000000E+00  0.00000000000E+00  0.31711934268E+03  0.31711934268E+03  0.00000000000E+00 0. -1.
         -3   -1    0    0    0  501 -0.00000000000E+00 -0.00000000000E+00 -0.38244642717E+02  0.38244642717E+02  0.00000000000E+00 0.  1.
         23    2    1    2    0    0  0.65597272094E+01 -0.37492202968E+00  0.13284107113E+03  0.18255691283E+03  0.12504841325E+03 0.  0.
          5    1    3    3  502    0  0.43926811086E+02 -0.47291453463E+02  0.75570102458E+02  0.99493601243E+02  0.47000000000E+01 0. -1.
         -5    1    3    3    0  502 -0.37367083877E+02  0.46916531433E+02  0.57270968667E+02  0.83063311584E+02  0.47000000000E+01 0. -1.
        -11    1    1    2    0    0  0.34355375520E+02 -0.14425316705E+02  0.26842425440E+02  0.45922732852E+02  0.00000000000E+00 0.  1.
         11    1    1    2    0    0 -0.40915102729E+02  0.14800238734E+02  0.11919120340E+03  0.12688433972E+03  0.00000000000E+00 0. -1.
<mgrwt>
<rscale>  0 0.11605594E+03</rscale>
<asrwt>0</asrwt>
<pdfrwt beam="1">  1        3 0.48787589E-01 0.12522091E+03</pdfrwt>
<pdfrwt beam="2">  1       -3 0.58837914E-02 0.12522091E+03</pdfrwt>
<totfact> 0.16707354E+03</totfact>
</mgrwt>
</event>
<event>
 7    1  0.4230786E-006  0.1407284E+03  0.7546771E-02  0.1223598E+00
         -1   -1    0    0    0  501 -0.00000000000E+00  0.00000000000E+00  0.25069126500E+03  0.25069126500E+03  0.00000000000E+00 0.  1.
          1   -1    0    0  501    0  0.00000000000E+00 -0.00000000000E+00 -0.81592971688E+02  0.81592971688E+02  0.00000000000E+00 0. -1.
         23    2    1    2    0    0 -0.53490026021E+02  0.36303818598E+02  0.17070133770E+03  0.22123159146E+03  0.12500128095E+03 0.  0.
          5    1    3    3  502    0  0.21358930061E+02  0.55911909003E+02  0.51808156135E+02  0.79300192331E+02  0.47000000000E+01 0. -1.
         -5    1    3    3    0  502 -0.74848956082E+02 -0.19608090405E+02  0.11889318156E+03  0.14193139912E+03  0.47000000000E+01 0. -1.
        -11    1    1    2    0    0  0.38570596650E+02 -0.81641626901E+01 -0.43315196395E+02  0.58570903332E+02  0.00000000000E+00 0. -1.
         11    1    1    2    0    0  0.14919429371E+02 -0.28139655908E+02  0.41712152010E+02  0.52481741898E+02  0.00000000000E+00 0.  1.
<mgrwt>
<rscale>  0 0.13263469E+03</rscale>
<asrwt>0</asrwt>
<pdfrwt beam="2">  1        1 0.12552765E-01 0.14072836E+03</pdfrwt>
<pdfrwt beam="1">  1       -1 0.38567887E-01 0.14072836E+03</pdfrwt>
<totfact> 0.30078110E+03</totfact>
</mgrwt>
</event>
<event>
 7    1  0.4230786E-006  0.1250242E+03  0.7546771E-02  0.1251090E+00
          2   -1    0    0  501    0  0.00000000000E+00  0.00000000000E+00  0.41064410565E+02  0.41064410565E+02  0.00000000000E+00 0. -1.
         -2   -1    0    0    0  501 -0.00000000000E+00 -0.00000000000E+00 -0.32222484982E+03  0.32222484982E+03  0.00000000000E+00 0.  1.
         23    2    1    2    0    0 -0.17954872356E+01 -0.15079966902E+01 -0.22347613044E+03  0.25607153966E+03  0.12500221887E+03 0.  0.
          5    1    3    3  502    0  0.37498977818E+01 -0.10485602132E+02  0.13896662081E+02  0.18417839245E+02  0.47000000000E+01 0. -1.
         -5    1    3    3    0  502 -0.55453850174E+01  0.89776054422E+01 -0.23737279252E+03  0.23765370042E+03  0.47000000000E+01 0. -1.
        -11    1    1    2    0    0  0.44601570002E+02 -0.80921925630E+01 -0.37930983485E+02  0.59106202173E+02  0.00000000000E+00 0.  1.
         11    1    1    2    0    0 -0.42806082766E+02  0.96001892531E+01 -0.19753325333E+02  0.48111518550E+02  0.00000000000E+00 0. -1.
<mgrwt>
<rscale>  0 0.11528190E+03</rscale>
<asrwt>0</asrwt>
<pdfrwt beam="1">  1        2 0.63176015E-02 0.12502421E+03</pdfrwt>
<pdfrwt beam="2">  1       -2 0.49573055E-01 0.12502421E+03</pdfrwt>
<totfact> 0.42674099E+03</totfact>
</mgrwt>
</event>
<event>
 7    1  0.4230786E-006  0.1482512E+03  0.7546771E-02  0.1212224E+00
         -1   -1    0    0    0  501 -0.00000000000E+00  0.00000000000E+00  0.38401172788E+03  0.38401172788E+03  0.00000000000E+00 0.  1.
          1   -1    0    0  501    0  0.00000000000E+00 -0.00000000000E+00 -0.47445144369E+02  0.47445144369E+02  0.00000000000E+00 0. -1.
         23    2    1    2    0    0 -0.65672688359E+02 -0.45166008074E+02  0.20388716705E+03  0.25208809018E+03  0.12500223214E+03 0.  0.
          5    1    3    3  502    0 -0.24433441560E+02  0.77818314277E+01  0.17816341106E+03  0.18006065925E+03  0.47000000000E+01 0. -1.
         -5    1    3    3    0  502 -0.41239246799E+02 -0.52947839501E+02  0.25723755992E+02  0.72027430932E+02  0.47000000000E+01 0. -1.
        -11    1    1    2    0    0  0.50893069392E+02 -0.14504728386E+02  0.33338320623E+02  0.62545465700E+02  0.00000000000E+00 0.  1.
         11    1    1    2    0    0  0.14779618967E+02  0.59670736460E+02  0.99341095833E+02  0.11682331637E+03  0.00000000000E+00 0. -1.
<mgrwt>
<rscale>  0 0.14082465E+03</rscale>
<asrwt>0</asrwt>
<pdfrwt beam="2">  1        1 0.72992532E-02 0.14825123E+03</pdfrwt>
<pdfrwt beam="1">  1       -1 0.59078725E-01 0.14825123E+03</pdfrwt>
<totfact> 0.28622478E+03</totfact>
</mgrwt>
</event>
<event>
 7    1  0.4941512E-006  0.2350635E+03  0.7546771E-02  0.1125841E+00
          1   -1    0    0  501    0  0.00000000000E+00  0.00000000000E+00  0.93347401239E+02  0.93347401239E+02  0.00000000000E+00 0. -1.
         -1   -1    0    0    0  501 -0.00000000000E+00 -0.00000000000E+00 -0.56840643311E+03  0.56840643311E+03  0.00000000000E+00 0.  1.
         23    2    1    2    0    0  0.18569480037E+03 -0.71739637012E+02 -0.29797586087E+03  0.37953189588E+03  0.12500284768E+03 0.  0.
          5    1    3    3  502    0  0.17202138908E+03 -0.64455868612E+02 -0.30930332880E+03  0.35977292353E+03  0.47000000000E+01 0. -1.
         -5    1    3    3    0  502  0.13673411287E+02 -0.72837684002E+01  0.11327467935E+02  0.19758972346E+02  0.47000000000E+01 0. -1.
        -11    1    1    2    0    0 -0.93904021608E+02  0.68214032667E+01 -0.12957418847E+03  0.16016855851E+03  0.00000000000E+00 0.  1.
         11    1    1    2    0    0 -0.91790778761E+02  0.64918233746E+02 -0.47508982532E+02  0.12205337996E+03  0.00000000000E+00 0. -1.
<mgrwt>
<rscale>  0 0.23113830E+03</rscale>
<asrwt>0</asrwt>
<pdfrwt beam="1">  1        1 0.14361139E-01 0.23506349E+03</pdfrwt>
<pdfrwt beam="2">  1       -1 0.87447144E-01 0.23506349E+03</pdfrwt>
<totfact> 0.53436512E+02</totfact>
</mgrwt>
</event>
<event>
 7    1  0.4230786E-006  0.1615116E+03  0.7546771E-02  0.1194079E+00
          1   -1    0    0  501    0  0.00000000000E+00  0.00000000000E+00  0.53832974236E+03  0.53832974236E+03  0.00000000000E+00 0. -1.
         -1   -1    0    0    0  501 -0.00000000000E+00 -0.00000000000E+00 -0.41978505051E+02  0.41978505051E+02  0.00000000000E+00 0.  1.
         23    2    1    2    0    0 -0.70441134508E+02 -0.74141699462E+02  0.24388150290E+03  0.29251353670E+03  0.12500814639E+03 0.  0.
          5    1    3    3  502    0 -0.42811248658E+02  0.29625529587E+02  0.60518132369E+02  0.79968802420E+02  0.47000000000E+01 0.  1.
         -5    1    3    3    0  502 -0.27629885850E+02 -0.10376722905E+03  0.18336337053E+03  0.21254473428E+03  0.47000000000E+01 0.  1.
        -11    1    1    2    0    0  0.36225974775E+02 -0.18885253695E+00  0.20079481729E+02  0.41419107911E+02  0.00000000000E+00 0.  1.
         11    1    1    2    0    0  0.34215159733E+02  0.74330551999E+02  0.23239025267E+03  0.24637560280E+03  0.00000000000E+00 0. -1.
<mgrwt>
<rscale>  0 0.15532406E+03</rscale>
<asrwt>0</asrwt>
<pdfrwt beam="1">  1        1 0.82819956E-01 0.16151155E+03</pdfrwt>
<pdfrwt beam="2">  1       -1 0.64582319E-02 0.16151155E+03</pdfrwt>
<totfact> 0.47570474E+03</totfact>
</mgrwt>
</event>
<event>
 7    1  0.4230786E-006  0.1361923E+03  0.7546771E-02  0.1231300E+00
          1   -1    0    0  501    0  0.00000000000E+00  0.00000000000E+00  0.12228594888E+04  0.12228594888E+04  0.00000000000E+00 0. -1.
         -1   -1    0    0    0  501 -0.00000000000E+00 -0.00000000000E+00 -0.12245971152E+02  0.12245971152E+02  0.00000000000E+00 0.  1.
         23    2    1    2    0    0  0.53463987428E+02 -0.79683308304E+01  0.79452841804E+03  0.80611645585E+03  0.12500576417E+03 0.  0.
          5    1    3    3  502    0 -0.21549949277E+02 -0.17681130591E+02  0.47660534139E+02  0.55413348638E+02  0.47000000000E+01 0. -1.
         -5    1    3    3    0  502  0.75013936705E+02  0.97127997603E+01  0.74686788390E+03  0.75070310722E+03  0.47000000000E+01 0. -1.
        -11    1    1    2    0    0 -0.16500857945E+01 -0.34221070690E+02  0.94073682369E+02  0.10011824098E+03  0.00000000000E+00 0.  1.
         11    1    1    2    0    0 -0.51813901634E+02  0.42189401520E+02  0.32201141725E+03  0.32887076313E+03  0.00000000000E+00 0. -1.
<mgrwt>
<rscale>  0 0.12744310E+03</rscale>
<asrwt>0</asrwt>
<pdfrwt beam="1">  1        1 0.18813213E+00 0.13619227E+03</pdfrwt>
<pdfrwt beam="2">  1       -1 0.18839965E-02 0.13619227E+03</pdfrwt>
<totfact> 0.80290612E+03</totfact>
</mgrwt>
</event>
<event>
 7    1  0.4230786E-006  0.1259343E+03  0.7546771E-02  0.1272952E+00
          2   -1    0    0  501    0  0.00000000000E+00  0.00000000000E+00  0.16940350371E+03  0.16940350371E+03  0.00000000000E+00 0. -1.
         -2   -1    0    0    0  501 -0.00000000000E+00 -0.00000000000E+00 -0.52620336208E+02  0.52620336208E+02  0.00000000000E+00 0.  1.
         23    2    1    2    0    0  0.12348818426E+02 -0.90708871530E+01  0.54643544097E+02  0.13727843078E+03  0.12499870534E+03 0.  0.
          5    1    3    3  502    0  0.44579014654E+02 -0.46313993118E+02  0.12232247169E+01  0.64465966096E+02  0.47000000000E+01 0. -1.
         -5    1    3    3    0  502 -0.32230196228E+02  0.37243105965E+02  0.53420319380E+02  0.72812464685E+02  0.47000000000E+01 0. -1.
        -11    1    1    2    0    0 -0.29094154768E+02  0.25692227326E+01  0.12163365052E+02  0.31638871606E+02  0.00000000000E+00 0.  1.
         11    1    1    2    0    0  0.16745336342E+02  0.65016644204E+01  0.49976258356E+02  0.53106537532E+02  0.00000000000E+00 0. -1.
<mgrwt>
<rscale>  0 0.10357566E+03</rscale>
<asrwt>0</asrwt>
<pdfrwt beam="1">  1        2 0.26062077E-01 0.12593431E+03</pdfrwt>
<pdfrwt beam="2">  1       -2 0.80954364E-02 0.12593431E+03</pdfrwt>
<totfact> 0.17622627E+04</totfact>
</mgrwt>
</event>
<event>
 7    1  0.4230786E-006  0.1940944E+03  0.7546771E-02  0.1160060E+00
          2   -1    0    0  501    0  0.00000000000E+00  0.00000000000E+00  0.19952863552E+04  0.19952863552E+04  0.00000000000E+00 0. -1.
         -2   -1    0    0    0  501 -0.00000000000E+00 -0.00000000000E+00 -0.17104527862E+02  0.17104527862E+02  0.00000000000E+00 0.  1.
         23    2    1    2    0    0 -0.14549094393E+03  0.29675008249E+02  0.11897571395E+04  0.12054852465E+04  0.12499763024E+03 0.  0.
          5    1    3    3  502    0 -0.52234534435E+02 -0.46411870396E+02  0.33146336054E+03  0.33878098778E+03  0.47000000000E+01 0. -1.
         -5    1    3    3    0  502 -0.93256409495E+02  0.76086878644E+02  0.85829377897E+03  0.86670425869E+03  0.47000000000E+01 0. -1.
        -11    1    1    2    0    0  0.12142464075E+03  0.48180068303E+00  0.69965688998E+03  0.71011544076E+03  0.00000000000E+00 0. -1.
         11    1    1    2    0    0  0.24066303186E+02 -0.30156808932E+02  0.88767797854E+02  0.96790195835E+02  0.00000000000E+00 0.  1.
<mgrwt>
<rscale>  0 0.18823769E+03</rscale>
<asrwt>0</asrwt>
<pdfrwt beam="1">  1        2 0.30696695E+00 0.19409438E+03</pdfrwt>
<pdfrwt beam="2">  1       -2 0.26314674E-02 0.19409438E+03</pdfrwt>
<totfact> 0.38451310E+03</totfact>
</mgrwt>
</event>
<event>
 7    1  0.4230786E-006  0.2405440E+03  0.7546771E-02  0.1122358E+00
          2   -1    0    0  501    0  0.00000000000E+00  0.00000000000E+00  0.48893376889E+03  0.48893376889E+03  0.00000000000E+00 0. -1.
         -2   -1    0    0    0  501 -0.00000000000E+00 -0.00000000000E+00 -0.11668587335E+03  0.11668587335E+03  0.00000000000E+00 0.  1.
         23    2    1    2    0    0 -0.12751870369E+02  0.20511765778E+03  0.12090701540E+03  0.26922097893E+03  0.12500226154E+03 0.  0.
          5    1    3    3  502    0  0.54261165082E+02  0.93572010129E+02  0.37467112428E+02  0.11456818768E+03  0.47000000000E+01 0.  1.
         -5    1    3    3    0  502 -0.67013035452E+02  0.11154564765E+03  0.83439902971E+02  0.15465279124E+03  0.47000000000E+01 0.  1.
        -11    1    1    2    0    0  0.32273872927E+02 -0.16311256286E+03  0.14581563032E+03  0.22115494360E+03  0.00000000000E+00 0.  1.
         11    1    1    2    0    0 -0.19522002558E+02 -0.42005094927E+02  0.10552524982E+03  0.11524371971E+03  0.00000000000E+00 0. -1.
<mgrwt>
<rscale>  0 0.23618826E+03</rscale>
<asrwt>0</asrwt>
<pdfrwt beam="1">  1        2 0.75220579E-01 0.24054403E+03</pdfrwt>
<pdfrwt beam="2">  1       -2 0.17951673E-01 0.24054403E+03</pdfrwt>
<totfact> 0.16109146E+03</totfact>
</mgrwt>
</event>
<event>
 7    1  0.4230786E-006  0.1296750E+03  0.7546771E-02  0.1243493E+00
          1   -1    0    0  501    0  0.00000000000E+00  0.00000000000E+00  0.23265618316E+03  0.23265618316E+03  0.00000000000E+00 0. -1.
         -1   -1    0    0    0  501 -0.00000000000E+00 -0.00000000000E+00 -0.57634807489E+02  0.57634807489E+02  0.00000000000E+00 0.  1.
         23    2    1    2    0    0  0.31060639358E+02  0.15044654471E+02  0.64018681602E+02  0.14461672463E+03  0.12499800199E+03 0.  0.
          5    1    3    3  502    0 -0.26309227011E+02 -0.35586692409E+02 -0.36432891390E+00  0.44506301106E+02  0.47000000000E+01 0. -1.
         -5    1    3    3    0  502  0.57369866369E+02  0.50631346881E+02  0.64383010516E+02  0.10011042352E+03  0.47000000000E+01 0. -1.
        -11    1    1    2    0    0  0.24391709094E+02  0.17177750463E+02  0.29407251703E+02  0.41890536356E+02  0.00000000000E+00 0.  1.
         11    1    1    2    0    0 -0.55452348452E+02 -0.32222404934E+02  0.81595442363E+02  0.10378372966E+03  0.00000000000E+00 0. -1.
<mgrwt>
<rscale>  0 0.11976013E+03</rscale>
<asrwt>0</asrwt>
<pdfrwt beam="1">  1        1 0.35793258E-01 0.12967500E+03</pdfrwt>
<pdfrwt beam="2">  1       -1 0.88668936E-02 0.12967500E+03</pdfrwt>
<totfact> 0.83886380E+03</totfact>
</mgrwt>
</event>
<event>
 7    1  0.4230786E-006  0.3812332E+03  0.7546771E-02  0.1051362E+00
          2   -1    0    0  501    0  0.00000000000E+00  0.00000000000E+00  0.11666449940E+04  0.11666449940E+04  0.00000000000E+00 0. -1.
         -2   -1    0    0    0  501 -0.00000000000E+00 -0.00000000000E+00 -0.12155399047E+03  0.12155399047E+03  0.00000000000E+00 0.  1.
         23    2    1    2    0    0 -0.29493760509E+03  0.20671589798E+03  0.51607301002E+03  0.64161524475E+03  0.12497646677E+03 0.  0.
          5    1    3    3  502    0 -0.28118239985E+03  0.19736896416E+03  0.41355277945E+03  0.53764862260E+03  0.47000000000E+01 0. -1.
         -5    1    3    3    0  502 -0.13755205243E+02  0.93469338157E+01  0.10252023058E+03  0.10396662215E+03  0.47000000000E+01 0. -1.
        -11    1    1    2    0    0  0.16099565506E+03 -0.76913737186E+02  0.19721266113E+03  0.26594765956E+03  0.00000000000E+00 0.  1.
         11    1    1    2    0    0  0.13394195004E+03 -0.12980216079E+03  0.33180533243E+03  0.38063608020E+03  0.00000000000E+00 0. -1.
<mgrwt>
<rscale>  0 0.37884424E+03</rscale>
<asrwt>0</asrwt>
<pdfrwt beam="1">  1        2 0.17948384E+00 0.38123322E+03</pdfrwt>
<pdfrwt beam="2">  1       -2 0.18700615E-01 0.38123322E+03</pdfrwt>
<totfact> 0.49024574E+02</totfact>
</mgrwt>
</event>
<event>
 7    1  0.4230786E-006  0.1325179E+03  0.7546771E-02  0.1236815E+00
          4   -1    0    0  501    0  0.00000000000E+00  0.00000000000E+00  0.25360596296E+03  0.25360596296E+03  0.00000000000E+00 0. -1.
         -4   -1    0    0    0  501 -0.00000000000E+00 -0.00000000000E+00 -0.53884990280E+02  0.53884990280E+02  0.00000000000E+00 0.  1.
         23    2    1    2    0    0 -0.38882320297E+01  0.43833197701E+02  0.11009059729E+03  0.17228155006E+03  0.12499810123E+03 0.  0.
          5    1    3    3  502    0  0.31238024614E+02  0.26832030858E+02 -0.12703237654E+02  0.43350136201E+02  0.47000000000E+01 0.  1.
         -5    1    3    3    0  502 -0.35126256644E+02  0.17001166844E+02  0.12279383494E+03  0.12893141386E+03  0.47000000000E+01 0.  1.
        -11    1    1    2    0    0  0.31295622402E+02 -0.15869323325E+02  0.89414826127E+02  0.96053435835E+02  0.00000000000E+00 0. -1.
         11    1    1    2    0    0 -0.27407390373E+02 -0.27963874377E+02  0.21554926302E+00  0.39155967344E+02  0.00000000000E+00 0.  1.
<mgrwt>
<rscale>  0 0.12388984E+03</rscale>
<asrwt>0</asrwt>
<pdfrwt beam="1">  1        4 0.39016301E-01 0.13251790E+03</pdfrwt>
<pdfrwt beam="2">  1       -4 0.82899987E-02 0.13251790E+03</pdfrwt>
<totfact> 0.10918738E+03</totfact>
</mgrwt>
</event>
<event>
 7    1  0.4230786E-006  0.3522654E+03  0.7546771E-02  0.1061689E+00
          2   -1    0    0  501    0  0.00000000000E+00  0.00000000000E+00  0.24980852407E+03  0.24980852407E+03  0.00000000000E+00 0. -1.
         -2   -1    0    0    0  501 -0.00000000000E+00 -0.00000000000E+00 -0.12418599629E+03  0.12418599629E+03  0.00000000000E+00 0.  1.
         23    2    1    2    0    0 -0.75350985465E+02  0.32419955928E+02 -0.20109489478E+02  0.15085926316E+03  0.12500120464E+03 0.  0.
          5    1    3    3  502    0  0.63101126872E+01 -0.79301739128E+00  0.42115497948E+02  0.42851505996E+02  0.47000000000E+01 0.  1.
         -5    1    3    3    0  502 -0.81661098152E+02  0.33212973319E+02 -0.62224987426E+02  0.10800775717E+03  0.47000000000E+01 0.  1.
        -11    1    1    2    0    0  0.53094633191E+02  0.15745043562E+01  0.16842009864E+03  0.17659798629E+03  0.00000000000E+00 0. -1.
         11    1    1    2    0    0  0.22256352274E+02 -0.33994460284E+02 -0.22688081379E+02  0.46537270904E+02  0.00000000000E+00 0.  1.
<mgrwt>
<rscale>  0 0.35226536E+03</rscale>
<asrwt>0</asrwt>
<pdfrwt beam="1">  1        2 0.38432081E-01 0.35226536E+03</pdfrwt>
<pdfrwt beam="2">  1       -2 0.19105538E-01 0.35226536E+03</pdfrwt>
<totfact> 0.30476128E+03</totfact>
</mgrwt>
</event>
<event>
 6    1  0.4230786E-006  0.2987102E+03  0.7546771E-02  0.1119448E+00
          3   -1    0    0  501    0  0.00000000000E+00  0.00000000000E+00  0.30044645341E+03  0.30044645341E+03  0.00000000000E+00 0. -1.
         -3   -1    0    0    0  501 -0.00000000000E+00 -0.00000000000E+00 -0.15106819844E+03  0.15106819844E+03  0.00000000000E+00 0.  1.
          5    1    1    2  502    0 -0.77648339756E+02  0.18853794168E+02 -0.61517659138E+02  0.10095168452E+03  0.47000000000E+01 0. -1.
         -5    1    1    2    0  502  0.11158429060E+03 -0.99226791438E+02  0.14737283972E+03  0.20985198101E+03  0.47000000000E+01 0.  1.
        -11    1    1    2    0    0 -0.46053429665E+02  0.38834586138E+02  0.74755140659E+02  0.96007158688E+02  0.00000000000E+00 0. -1.
         11    1    1    2    0    0  0.12117478827E+02  0.41538411132E+02 -0.11232066275E+02  0.44703827636E+02  0.00000000000E+00 0.  1.
<mgrwt>
<rscale>  0 0.24051782E+03</rscale>
<asrwt>0</asrwt>
<pdfrwt beam="1">  1        3 0.46222531E-01 0.29871024E+03</pdfrwt>
<pdfrwt beam="2">  1       -3 0.23241261E-01 0.29871024E+03</pdfrwt>
<totfact> 0.20341210E+02</totfact>
</mgrwt>
</event>
<event>
 7    1  0.4230786E-006  0.1469567E+03  0.7546771E-02  0.1211891E+00
         -1   -1    0    0    0  501 -0.00000000000E+00  0.00000000000E+00  0.72329816981E+02  0.72329816981E+02  0.00000000000E+00 0.  1.
          1   -1    0    0  501    0  0.00000000000E+00 -0.00000000000E+00 -0.29896017975E+03  0.29896017975E+03  0.00000000000E+00 0. -1.
         23    2    1    2    0    0  0.59138532085E+02  0.49687495568E+02 -0.50429562258E+02  0.15536867333E+03  0.12502028120E+03 0.  0.
          5    1    3    3  502    0 -0.37993893177E+02  0.39571885762E+01 -0.54432203691E+01  0.38870476047E+02  0.47000000000E+01 0. -1.
         -5    1    3    3    0  502  0.97132425261E+02  0.45730306992E+02 -0.44986341889E+02  0.11649819729E+03  0.47000000000E+01 0. -1.
        -11    1    1    2    0    0 -0.71168211044E+02 -0.23263279713E+02 -0.59423612905E+02  0.95589017240E+02  0.00000000000E+00 0.  1.
         11    1    1    2    0    0  0.12029678960E+02 -0.26424215855E+02 -0.11677718761E+03  0.12033230616E+03  0.00000000000E+00 0. -1.
<mgrwt>
<rscale>  0 0.14107390E+03</rscale>
<asrwt>0</asrwt>
<pdfrwt beam="2">  1        1 0.45993873E-01 0.14695674E+03</pdfrwt>
<pdfrwt beam="1">  1       -1 0.11127664E-01 0.14695674E+03</pdfrwt>
<totfact> 0.43835406E+03</totfact>
</mgrwt>
</event>
<event>
 7    1  0.4230786E-006  0.1278058E+03  0.7546771E-02  0.1245917E+00
          3   -1    0    0  501    0  0.00000000000E+00  0.00000000000E+00  0.22073225797E+03  0.22073225797E+03  0.00000000000E+00 0. -1.
         -3   -1    0    0    0  501 -0.00000000000E+00 -0.00000000000E+00 -0.58708117145E+02  0.58708117145E+02  0.00000000000E+00 0.  1.
         23    2    1    2    0    0 -0.21623695800E+02 -0.16123418693E+02  0.61196663137E+02  0.14170168083E+03  0.12492712244E+03 0.  0.
          5    1    3    3  502    0 -0.51896886703E+02 -0.56669326863E+02  0.37213919052E+02  0.85508275785E+02  0.47000000000E+01 0. -1.
         -5    1    3    3    0  502  0.30273190903E+02  0.40545908170E+02  0.23982744085E+02  0.56193405045E+02  0.47000000000E+01 0. -1.
        -11    1    1    2    0    0  0.18073966418E+02 -0.30036247708E+02  0.79259019510E+02  0.86665083004E+02  0.00000000000E+00 0.  1.
         11    1    1    2    0    0  0.35497293825E+01  0.46159666401E+02  0.21568458179E+02  0.51073611280E+02  0.00000000000E+00 0. -1.
<mgrwt>
<rscale>  0 0.11830659E+03</rscale>
<asrwt>0</asrwt>
<pdfrwt beam="1">  1        3 0.33958808E-01 0.12780585E+03</pdfrwt>
<pdfrwt beam="2">  1       -3 0.90320181E-02 0.12780585E+03</pdfrwt>
<totfact> 0.16882835E+03</totfact>
</mgrwt>
</event>
<event>
 6    1  0.4230786E-006  0.1488592E+03  0.7546771E-02  0.1213447E+00
          1   -1    0    0  501    0  0.00000000000E+00  0.00000000000E+00  0.38493071687E+02  0.38493071687E+02  0.00000000000E+00 0. -1.
         -1   -1    0    0    0  501 -0.00000000000E+00 -0.00000000000E+00 -0.67726565744E+03  0.67726565744E+03  0.00000000000E+00 0.  1.
          5    1    1    2  502    0 -0.39632487271E+02  0.14764157609E+01 -0.51450310896E+02  0.65131699979E+02  0.47000000000E+01 0. -1.
         -5    1    1    2    0  502  0.32939128888E+02 -0.70956330103E+02 -0.49788978186E+03  0.50401995186E+03  0.47000000000E+01 0.  1.
        -11    1    1    2    0    0  0.26317059052E+02 -0.43540073047E+01 -0.58294950370E+02  0.64108082294E+02  0.00000000000E+00 0.  1.
         11    1    1    2    0    0 -0.19623700670E+02  0.73833921647E+02 -0.31137542625E+02  0.82498994991E+02  0.00000000000E+00 0. -1.
<mgrwt>
<rscale>  0 0.13991210E+03</rscale>
<asrwt>0</asrwt>
<pdfrwt beam="1">  1        1 0.59220117E-02 0.14885921E+03</pdfrwt>
<pdfrwt beam="2">  1       -1 0.10419470E+00 0.14885921E+03</pdfrwt>
<totfact> 0.11888479E+03</totfact>
</mgrwt>
</event>
<event>
 7    1  0.4230786E-006  0.1862007E+03  0.7546771E-02  0.1166887E+00
         -2   -1    0    0    0  501 -0.00000000000E+00  0.00000000000E+00  0.76783143780E+02  0.76783143780E+02  0.00000000000E+00 0.  1.
          2   -1    0    0  501    0  0.00000000000E+00 -0.00000000000E+00 -0.40773280838E+03  0.40773280838E+03  0.00000000000E+00 0. -1.
         23    2    1    2    0    0  0.13096098200E+03  0.43540712724E+02 -0.15184058497E+03  0.24026291219E+03  0.12499652498E+03 0.  0.
          5    1    3    3  502    0  0.38375902185E+02  0.36565868078E+02  0.94981518188E+01  0.54056243532E+02  0.47000000000E+01 0. -1.
         -5    1    3    3    0  502  0.92585079818E+02  0.69748446460E+01 -0.16133873679E+03  0.18620666866E+03  0.47000000000E+01 0. -1.
        -11    1    1    2    0    0 -0.79483913267E+02  0.72624199769E+01 -0.44341878918E+02  0.91305188451E+02  0.00000000000E+00 0.  1.
         11    1    1    2    0    0 -0.51477068736E+02 -0.50803132701E+02 -0.13476720071E+03  0.15294785152E+03  0.00000000000E+00 0. -1.
<mgrwt>
<rscale>  0 0.18095028E+03</rscale>
<asrwt>0</asrwt>
<pdfrwt beam="2">  1        2 0.62728125E-01 0.18620071E+03</pdfrwt>
<pdfrwt beam="1">  1       -2 0.11812791E-01 0.18620071E+03</pdfrwt>
<totfact> 0.38874898E+03</totfact>
</mgrwt>
</event>
<event>
 7    1  0.4230786E-006  0.1349755E+03  0.7546771E-02  0.1232919E+00
         -1   -1    0    0    0  501 -0.00000000000E+00  0.00000000000E+00  0.64744708201E+02  0.64744708201E+02  0.00000000000E+00 0.  1.
          1   -1    0    0  501    0  0.00000000000E+00 -0.00000000000E+00 -0.22237915441E+03  0.22237915441E+03  0.00000000000E+00 0. -1.
         23    2    1    2    0    0 -0.27450226375E+02 -0.42886474570E+02 -0.10350333251E+03  0.17009214273E+03  0.12500253017E+03 0.  0.
          5    1    3    3  502    0  0.45486848698E+01 -0.51841307684E+02  0.87054069105E+01  0.52972500657E+02  0.47000000000E+01 0.  1.
         -5    1    3    3    0  502 -0.31998911245E+02  0.89548331141E+01 -0.11220873942E+03  0.11711964207E+03  0.47000000000E+01 0.  1.
        -11    1    1    2    0    0  0.28130173042E+02 -0.21372876687E+01  0.16932771912E+02  0.32902787095E+02  0.00000000000E+00 0.  1.
         11    1    1    2    0    0 -0.67994666682E+00  0.45023762238E+02 -0.71063885616E+02  0.84128932790E+02  0.00000000000E+00 0. -1.
<mgrwt>
<rscale>  0 0.12638611E+03</rscale>
<asrwt>0</asrwt>
<pdfrwt beam="2">  1        1 0.34212178E-01 0.13497554E+03</pdfrwt>
<pdfrwt beam="1">  1       -1 0.99607243E-02 0.13497554E+03</pdfrwt>
<totfact> 0.74547076E+03</totfact>
</mgrwt>
</event>
<event>
 7    1  0.4230786E-006  0.1157970E+03  0.7546771E-02  0.1260859E+00
          3   -1    0    0  501    0  0.00000000000E+00  0.00000000000E+00  0.12024753634E+03  0.12024753634E+03  0.00000000000E+00 0. -1.
         -3   -1    0    0    0  501 -0.00000000000E+00 -0.00000000000E+00 -0.10727796243E+03  0.10727796243E+03  0.00000000000E+00 0.  1.
         23    2    1    2    0    0 -0.95611842153E+00  0.22017451525E+02 -0.36633580107E+02  0.12145350414E+03  0.11368048268E+03 0.  0.
          5    1    3    3  502    0 -0.13206821937E+02 -0.34408635417E+02 -0.49713480776E+02  0.62063632731E+02  0.47000000000E+01 0. -1.
         -5    1    3    3    0  502  0.12250703515E+02  0.56426086942E+02  0.13079900669E+02  0.59389871407E+02  0.47000000000E+01 0.  1.
        -11    1    1    2    0    0  0.25532888874E+02  0.18653694404E+02 -0.67746356599E+01  0.32338590221E+02  0.00000000000E+00 0. -1.
         11    1    1    2    0    0 -0.24576770452E+02 -0.40671145929E+02  0.56377789682E+02  0.73733404415E+02  0.00000000000E+00 0.  1.
<mgrwt>
<rscale>  0 0.10984401E+03</rscale>
<asrwt>0</asrwt>
<pdfrwt beam="1">  1        3 0.18499621E-01 0.11579695E+03</pdfrwt>
<pdfrwt beam="2">  1       -3 0.16504302E-01 0.11579695E+03</pdfrwt>
<totfact> 0.18071440E+03</totfact>
</mgrwt>
</event>
<event>
 7    1  0.4230786E-006  0.1446626E+03  0.7546771E-02  0.1217121E+00
         -2   -1    0    0    0  501 -0.00000000000E+00  0.00000000000E+00  0.35433604954E+02  0.35433604954E+02  0.00000000000E+00 0.  1.
          2   -1    0    0  501    0  0.00000000000E+00 -0.00000000000E+00 -0.48949449166E+03  0.48949449166E+03  0.00000000000E+00 0. -1.
         23    2    1    2    0    0 -0.58280536524E+02  0.37413293580E+02 -0.22167527837E+03  0.26470209269E+03  0.12700745396E+03 0.  0.
          5    1    3    3  502    0 -0.76569951516E+02  0.26712553542E+02 -0.22804589360E+03  0.24208167544E+03  0.47000000000E+01 0. -1.
         -5    1    3    3    0  502  0.18289414992E+02  0.10700740038E+02  0.63706152396E+01  0.22620417252E+02  0.47000000000E+01 0.  1.
        -11    1    1    2    0    0 -0.26031233113E+02 -0.13900873802E+02 -0.54763343344E+02  0.62208384998E+02  0.00000000000E+00 0.  1.
         11    1    1    2    0    0  0.84311769637E+02 -0.23512419777E+02 -0.17762226500E+03  0.19801761893E+03  0.00000000000E+00 0. -1.
<mgrwt>
<rscale>  0 0.13721915E+03</rscale>
<asrwt>0</asrwt>
<pdfrwt beam="2">  1        2 0.75306841E-01 0.14466260E+03</pdfrwt>
<pdfrwt beam="1">  1       -2 0.54513241E-02 0.14466260E+03</pdfrwt>
<totfact> 0.10450464E+04</totfact>
</mgrwt>
</event>
<event>
 7    1  0.4230786E-006  0.1435071E+03  0.7546771E-02  0.1219350E+00
         -2   -1    0    0    0  501 -0.00000000000E+00  0.00000000000E+00  0.21122038254E+03  0.21122038254E+03  0.00000000000E+00 0.  1.
          2   -1    0    0  501    0  0.00000000000E+00 -0.00000000000E+00 -0.96178916834E+02  0.96178916834E+02  0.00000000000E+00 0. -1.
         23    2    1    2    0    0 -0.70450463058E+02  0.24484825077E+01  0.12788570321E+03  0.19222129895E+03  0.12500004750E+03 0.  0.
          5    1    3    3  502    0 -0.83068304466E+02  0.30505420870E+02  0.13385741043E+03  0.16053292571E+03  0.47000000000E+01 0. -1.
         -5    1    3    3    0  502  0.12617841408E+02 -0.28056938362E+02 -0.59717072165E+01  0.31688373248E+02  0.47000000000E+01 0. -1.
        -11    1    1    2    0    0  0.59507881655E+02  0.21738140811E+02  0.25706739385E+02  0.68370835849E+02  0.00000000000E+00 0.  1.
         11    1    1    2    0    0  0.10942581403E+02 -0.24186623318E+02 -0.38550976894E+02  0.46807164567E+02  0.00000000000E+00 0. -1.
<mgrwt>
<rscale>  0 0.13561820E+03</rscale>
<asrwt>0</asrwt>
<pdfrwt beam="2">  1        2 0.14796756E-01 0.14350705E+03</pdfrwt>
<pdfrwt beam="1">  1       -2 0.32495443E-01 0.14350705E+03</pdfrwt>
<totfact> 0.33665381E+03</totfact>
</mgrwt>
</event>
<event>
 7    1  0.4230786E-006  0.1802217E+03  0.7546771E-02  0.1173068E+00
          1   -1    0    0  501    0  0.00000000000E+00  0.00000000000E+00  0.23472103029E+02  0.23472103029E+02  0.00000000000E+00 0. -1.
         -1   -1    0    0    0  501 -0.00000000000E+00 -0.00000000000E+00 -0.12783218276E+04  0.12783218276E+04  0.00000000000E+00 0.  1.
         23    2    1    2    0    0 -0.12896119934E+03 -0.14973845266E+02 -0.79694556843E+03  0.81706920960E+03  0.12499858909E+03 0.  0.
          5    1    3    3  502    0 -0.10771605845E+02  0.35038750759E+02 -0.73005763669E+02  0.81827092556E+02  0.47000000000E+01 0.  1.
         -5    1    3    3    0  502 -0.11818959349E+03 -0.50012596025E+02 -0.72393980476E+03  0.73524211705E+03  0.47000000000E+01 0.  1.
        -11    1    1    2    0    0  0.13556741499E+03 -0.56732789658E+01 -0.41561279128E+03  0.43720098625E+03  0.00000000000E+00 0.  1.
         11    1    1    2    0    0 -0.66062156551E+01  0.20647124232E+02 -0.42291364815E+02  0.47523734725E+02  0.00000000000E+00 0. -1.
<mgrwt>
<rscale>  0 0.17466519E+03</rscale>
<asrwt>0</asrwt>
<pdfrwt beam="1">  1        1 0.36110930E-02 0.18022168E+03</pdfrwt>
<pdfrwt beam="2">  1       -1 0.19666489E+00 0.18022168E+03</pdfrwt>
<totfact> 0.46052862E+02</totfact>
</mgrwt>
</event>
<event>
 7    1  0.4230786E-006  0.2046644E+03  0.7546771E-02  0.1150690E+00
          2   -1    0    0  501    0  0.00000000000E+00  0.00000000000E+00  0.83584937182E+03  0.83584937182E+03  0.00000000000E+00 0. -1.
         -2   -1    0    0    0  501 -0.00000000000E+00 -0.00000000000E+00 -0.49334940954E+02  0.49334940954E+02  0.00000000000E+00 0.  1.
         23    2    1    2    0    0  0.10175925163E+03  0.12612453994E+03  0.54729203498E+03  0.58430819865E+03  0.12500061836E+03 0.  0.
          5    1    3    3  502    0  0.10554580919E+03  0.11678635822E+03  0.55062285204E+03  0.57270113191E+03  0.47000000000E+01 0.  1.
         -5    1    3    3    0  502 -0.37865575560E+01  0.93381817221E+01 -0.33308170611E+01  0.11607066739E+02  0.47000000000E+01 0.  1.
        -11    1    1    2    0    0 -0.36500189630E+02 -0.10904663937E+03  0.15342121913E+03  0.19173289723E+03  0.00000000000E+00 0.  1.
         11    1    1    2    0    0 -0.65259062004E+02 -0.17077900571E+02  0.85801176756E+02  0.10914321690E+03  0.00000000000E+00 0. -1.
<mgrwt>
<rscale>  0 0.19887752E+03</rscale>
<asrwt>0</asrwt>
<pdfrwt beam="1">  1        2 0.12859220E+00 0.20466436E+03</pdfrwt>
<pdfrwt beam="2">  1       -2 0.75899915E-02 0.20466436E+03</pdfrwt>
<totfact> 0.34110369E+03</totfact>
</mgrwt>
</event>
<event>
 7    1  0.4230786E-006  0.1190906E+03  0.7546771E-02  0.1256139E+00
         -3   -1    0    0    0  501 -0.00000000000E+00  0.00000000000E+00  0.14795776997E+04  0.14795776997E+04  0.00000000000E+00 0.  1.
          3   -1    0    0  501    0  0.00000000000E+00 -0.00000000000E+00 -0.19017272182E+02  0.19017272182E+02  0.00000000000E+00 0. -1.
         23    2    1    2    0    0 -0.28362092409E+02 -0.25708553674E+01  0.13403452414E+04  0.13456254776E+04  0.11563538478E+03 0.  0.
          5    1    3    3  502    0  0.33674046043E+02  0.26077860492E+02  0.30213942364E+03  0.30516277214E+03  0.47000000000E+01 0. -1.
         -5    1    3    3    0  502 -0.62036138453E+02 -0.28648715859E+02  0.10382058178E+04  0.10404627055E+04  0.47000000000E+01 0.  1.
        -11    1    1    2    0    0  0.16115853146E+02  0.21673207107E+02  0.12655889202E+03  0.12940866192E+03  0.00000000000E+00 0.  1.
         11    1    1    2    0    0  0.12246239263E+02 -0.19102351740E+02 -0.63437058974E+01  0.23560832383E+02  0.00000000000E+00 0. -1.
<mgrwt>
<rscale>  0 0.11242777E+03</rscale>
<asrwt>0</asrwt>
<pdfrwt beam="2">  1        3 0.29257353E-02 0.11909055E+03</pdfrwt>
<pdfrwt beam="1">  1       -3 0.22762725E+00 0.11909055E+03</pdfrwt>
<totfact> 0.13606374E+02</totfact>
</mgrwt>
</event>
<event>
 7    1  0.4230786E-006  0.1442129E+03  0.7546771E-02  0.1218928E+00
          1   -1    0    0  501    0  0.00000000000E+00  0.00000000000E+00  0.14009947918E+03  0.14009947918E+03  0.00000000000E+00 0. -1.
         -1   -1    0    0    0  501 -0.00000000000E+00 -0.00000000000E+00 -0.12190768376E+03  0.12190768376E+03  0.00000000000E+00 0.  1.
         23    2    1    2    0    0  0.71803654649E+02 -0.39665467253E+01 -0.10684420442E+02  0.14460813756E+03  0.12500343313E+03 0.  0.
          5    1    3    3  502    0  0.39375321111E+02  0.57067010310E+02 -0.25035027295E+02  0.73864079023E+02  0.47000000000E+01 0. -1.
         -5    1    3    3    0  502  0.32428333539E+02 -0.61033557035E+02  0.14350606853E+02  0.70744058532E+02  0.47000000000E+01 0. -1.
        -11    1    1    2    0    0 -0.88025604107E+02 -0.78654406091E+01  0.36908125996E+02  0.95773597087E+02  0.00000000000E+00 0. -1.
         11    1    1    2    0    0  0.16221949458E+02  0.11831987334E+02 -0.80319101311E+01  0.21625428293E+02  0.00000000000E+00 0.  1.
<mgrwt>
<rscale>  0 0.13591935E+03</rscale>
<asrwt>0</asrwt>
<pdfrwt beam="1">  1        1 0.21553766E-01 0.14421289E+03</pdfrwt>
<pdfrwt beam="2">  1       -1 0.18755028E-01 0.14421289E+03</pdfrwt>
<totfact> 0.49766811E+03</totfact>
</mgrwt>
</event>
<event>
 7    1  0.4230786E-006  0.1264983E+03  0.7546771E-02  0.1247630E+00
         -2   -1    0    0    0  501 -0.00000000000E+00  0.00000000000E+00  0.20353711411E+02  0.20353711411E+02  0.00000000000E+00 0.  1.
          2   -1    0    0  501    0  0.00000000000E+00 -0.00000000000E+00 -0.59474495069E+03  0.59474495069E+03  0.00000000000E+00 0. -1.
         23    2    1    2    0    0  0.13675080763E+02  0.13777700783E+02 -0.32424859732E+03  0.34805022869E+03  0.12499990381E+03 0.  0.
          5    1    3    3  502    0 -0.40279336485E+02  0.33527859087E+02 -0.24172489015E+03  0.24738543773E+03  0.47000000000E+01 0. -1.
         -5    1    3    3    0  502  0.53954417248E+02 -0.19750158305E+02 -0.82523707171E+02  0.10066479096E+03  0.47000000000E+01 0. -1.
        -11    1    1    2    0    0  0.35583077564E+02 -0.17260177289E+02 -0.71526977178E+02  0.81732353406E+02  0.00000000000E+00 0.  1.
         11    1    1    2    0    0 -0.49258158327E+02  0.34824765061E+01 -0.17861566478E+03  0.18531608000E+03  0.00000000000E+00 0. -1.
<mgrwt>
<rscale>  0 0.11729357E+03</rscale>
<asrwt>0</asrwt>
<pdfrwt beam="2">  1        2 0.91499211E-01 0.12649826E+03</pdfrwt>
<pdfrwt beam="1">  1       -2 0.31313406E-02 0.12649826E+03</pdfrwt>
<totfact> 0.19008728E+04</totfact>
</mgrwt>
</event>
<event>
 7    1  0.4230786E-006  0.1364185E+03  0.7546771E-02  0.1229664E+00
          4   -1    0    0  501    0  0.00000000000E+00  0.00000000000E+00  0.37010744522E+02  0.37010744522E+02  0.00000000000E+00 0. -1.
         -4   -1    0    0    0  501 -0.00000000000E+00 -0.00000000000E+00 -0.42026248565E+03  0.42026248565E+03  0.00000000000E+00 0.  1.
         23    2    1    2    0    0  0.97695005481E+01 -0.53756586871E+02 -0.26096310867E+03  0.29446858270E+03  0.12499915335E+03 0.  0.
          5    1    3    3  502    0 -0.34434558379E+02 -0.61352146612E+02 -0.22787414263E+03  0.23853414763E+03  0.47000000000E+01 0. -1.
         -5    1    3    3    0  502  0.44204058927E+02  0.75955597403E+01 -0.33088966042E+02  0.55934435075E+02  0.47000000000E+01 0. -1.
        -11    1    1    2    0    0 -0.17673255769E+02  0.67170087299E+02 -0.12847800978E+03  0.14605055150E+03  0.00000000000E+00 0.  1.
         11    1    1    2    0    0  0.79037552213E+01 -0.13413500428E+02  0.61893773174E+01  0.16754095974E+02  0.00000000000E+00 0. -1.
<mgrwt>
<rscale>  0 0.12852323E+03</rscale>
<asrwt>0</asrwt>
<pdfrwt beam="1">  1        4 0.56939606E-02 0.13641848E+03</pdfrwt>
<pdfrwt beam="2">  1       -4 0.64655768E-01 0.13641848E+03</pdfrwt>
<totfact> 0.72564125E+02</totfact>
</mgrwt>
</event>
<event>
 7    1  0.4230786E-006  0.1624936E+03  0.7546771E-02  0.1193959E+00
          2   -1    0    0  501    0  0.00000000000E+00  0.00000000000E+00  0.55990854614E+03  0.55990854614E+03  0.00000000000E+00 0. -1.
         -2   -1    0    0    0  501 -0.00000000000E+00 -0.00000000000E+00 -0.47539423684E+02  0.47539423684E+02  0.00000000000E+00 0.  1.
         23    2    1    2    0    0 -0.82586043237E+02  0.62903335553E+02  0.15295401379E+03  0.22315711589E+03  0.12500753528E+03 0.  0.
          5    1    3    3  502    0 -0.55471090450E+02  0.74476509917E+02  0.31632637769E+02  0.98216628823E+02  0.47000000000E+01 0. -1.
         -5    1    3    3    0  502 -0.27114952788E+02 -0.11573174364E+02  0.12132137602E+03  0.12494048707E+03  0.47000000000E+01 0. -1.
        -11    1    1    2    0    0  0.10111712734E+03 -0.58443945917E+02  0.30212786041E+03  0.32391605748E+03  0.00000000000E+00 0.  1.
         11    1    1    2    0    0 -0.18531084105E+02 -0.44593896359E+01  0.57287248247E+02  0.60374796445E+02  0.00000000000E+00 0. -1.
<mgrwt>
<rscale>  0 0.15542624E+03</rscale>
<asrwt>0</asrwt>
<pdfrwt beam="1">  1        2 0.86139772E-01 0.16249359E+03</pdfrwt>
<pdfrwt beam="2">  1       -2 0.73137579E-02 0.16249359E+03</pdfrwt>
<totfact> 0.57876183E+03</totfact>
</mgrwt>
</event>
<event>
 7    1  0.4230786E-006  0.1427569E+03  0.7546771E-02  0.1219774E+00
         -2   -1    0    0    0  501 -0.00000000000E+00  0.00000000000E+00  0.17698361308E+02  0.17698361308E+02  0.00000000000E+00 0. -1.
          2   -1    0    0  501    0  0.00000000000E+00 -0.00000000000E+00 -0.94037210349E+03  0.94037210349E+03  0.00000000000E+00 0.  1.
         23    2    1    2    0    0  0.68158289238E+02 -0.10391774914E+02 -0.50487026941E+03  0.52466516182E+03  0.12500400682E+03 0.  0.
          5    1    3    3  502    0  0.67083598477E+02 -0.11955812083E+02 -0.10815131169E+03  0.12791382587E+03  0.47000000000E+01 0.  1.
         -5    1    3    3    0  502  0.10746907608E+01  0.15640371689E+01 -0.39671895772E+03  0.39675133596E+03  0.47000000000E+01 0.  1.
        -11    1    1    2    0    0 -0.78485042984E+02 -0.19218969591E+02 -0.34106856022E+03  0.35050967681E+03  0.00000000000E+00 0.  1.
         11    1    1    2    0    0  0.10326753746E+02  0.29610744505E+02 -0.76734912553E+02  0.82895626167E+02  0.00000000000E+00 0. -1.
<mgrwt>
<rscale>  0 0.13531607E+03</rscale>
<asrwt>0</asrwt>
<pdfrwt beam="2">  1        2 0.14467262E+00 0.14275694E+03</pdfrwt>
<pdfrwt beam="1">  1       -2 0.27228251E-02 0.14275694E+03</pdfrwt>
<totfact> 0.13465504E+04</totfact>
</mgrwt>
</event>
<event>
 7    1  0.4230786E-006  0.1804966E+03  0.7546771E-02  0.1172439E+00
          1   -1    0    0  501    0  0.00000000000E+00  0.00000000000E+00  0.21829925451E+03  0.21829925451E+03  0.00000000000E+00 0. -1.
         -1   -1    0    0    0  501 -0.00000000000E+00 -0.00000000000E+00 -0.14086851400E+03  0.14086851400E+03  0.00000000000E+00 0.  1.
         23    2    1    2    0    0 -0.12336391277E+03  0.41658485594E+02 -0.94284093541E+00  0.18049904921E+03  0.12499973367E+03 0.  0.
          5    1    3    3  502    0 -0.44105445688E+02 -0.38093427705E+02  0.27218495820E+02  0.64492915024E+02  0.47000000000E+01 0. -1.
         -5    1    3    3    0  502 -0.79258467086E+02  0.79751913299E+02 -0.28161336755E+02  0.11600613418E+03  0.47000000000E+01 0. -1.
        -11    1    1    2    0    0  0.58954621798E+02  0.26691686458E+02  0.45724466372E+02  0.79239007959E+02  0.00000000000E+00 0.  1.
         11    1    1    2    0    0  0.64409290976E+02 -0.68350172052E+02  0.32649115076E+02  0.99429711348E+02  0.00000000000E+00 0. -1.
<mgrwt>
<rscale>  0 0.17529208E+03</rscale>
<asrwt>0</asrwt>
<pdfrwt beam="1">  1        1 0.33584501E-01 0.18049659E+03</pdfrwt>
<pdfrwt beam="2">  1       -1 0.21672079E-01 0.18049659E+03</pdfrwt>
<totfact> 0.22806591E+03</totfact>
</mgrwt>
</event>
<event>
 7    1  0.4230786E-006  0.1500399E+03  0.7546771E-02  0.1209028E+00
          2   -1    0    0  501    0  0.00000000000E+00  0.00000000000E+00  0.50028827190E+03  0.50028827190E+03  0.00000000000E+00 0. -1.
         -2   -1    0    0    0  501 -0.00000000000E+00 -0.00000000000E+00 -0.37862818713E+02  0.37862818713E+02  0.00000000000E+00 0.  1.
         23    2    1    2    0    0  0.38399360595E+02 -0.73564938794E+02  0.23523576604E+03  0.27901227312E+03  0.12500268722E+03 0.  0.
          5    1    3    3  502    0 -0.30070156379E+02 -0.19049777722E+01  0.13335643944E+03  0.13679865930E+03  0.47000000000E+01 0. -1.
         -5    1    3    3    0  502  0.68469516973E+02 -0.71659961022E+02  0.10187932659E+03  0.14221361382E+03  0.47000000000E+01 0. -1.
        -11    1    1    2    0    0  0.15624413947E+01  0.31005765159E+02  0.76558693232E+01  0.31975162725E+02  0.00000000000E+00 0.  1.
         11    1    1    2    0    0 -0.39961801989E+02  0.42559173635E+02  0.21953381782E+03  0.22716365477E+03  0.00000000000E+00 0. -1.
<mgrwt>
<rscale>  0 0.14324476E+03</rscale>
<asrwt>0</asrwt>
<pdfrwt beam="1">  1        2 0.76967422E-01 0.15003994E+03</pdfrwt>
<pdfrwt beam="2">  1       -2 0.58250494E-02 0.15003994E+03</pdfrwt>
<totfact> 0.92507941E+03</totfact>
</mgrwt>
</event>
<event>
 7    1  0.4230786E-006  0.1449530E+03  0.7546771E-02  0.1217230E+00
         -1   -1    0    0    0  501 -0.00000000000E+00  0.00000000000E+00  0.24075280253E+02  0.24075280253E+02  0.00000000000E+00 0.  1.
          1   -1    0    0  501    0  0.00000000000E+00 -0.00000000000E+00 -0.70888371603E+03  0.70888371603E+03  0.00000000000E+00 0. -1.
         23    2    1    2    0    0  0.70312775239E+02 -0.21089147653E+02 -0.36637684492E+03  0.39400935227E+03  0.12499095437E+03 0.  0.
          5    1    3    3  502    0  0.70055966323E+02  0.23966360285E+01 -0.36309916334E+03  0.36983330664E+03  0.47000000000E+01 0. -1.
         -5    1    3    3    0  502  0.25680891646E+00 -0.23485783681E+02 -0.32776815826E+01  0.24176045634E+02  0.47000000000E+01 0. -1.
        -11    1    1    2    0    0 -0.67351466508E+02  0.46402119470E+02 -0.28730876627E+03  0.29872345724E+03  0.00000000000E+00 0. -1.
         11    1    1    2    0    0 -0.29613087314E+01 -0.25312971817E+02 -0.31122824588E+02  0.40226186769E+02  0.00000000000E+00 0.  1.
<mgrwt>
<rscale>  0 0.13714015E+03</rscale>
<asrwt>0</asrwt>
<pdfrwt beam="2">  1        1 0.10905903E+00 0.14495302E+03</pdfrwt>
<pdfrwt beam="1">  1       -1 0.37038893E-02 0.14495302E+03</pdfrwt>
<totfact> 0.73780899E+03</totfact>
</mgrwt>
</event>
<event>
 7    1  0.4230786E-006  0.1264680E+03  0.7546771E-02  0.1247426E+00
         -2   -1    0    0    0  501 -0.00000000000E+00  0.00000000000E+00  0.13517228053E+02  0.13517228053E+02  0.00000000000E+00 0. -1.
          2   -1    0    0  501    0  0.00000000000E+00 -0.00000000000E+00 -0.92115234976E+03  0.92115234976E+03  0.00000000000E+00 0.  1.
         23    2    1    2    0    0  0.13695391002E+02  0.13456620832E+02 -0.44680312082E+03  0.46435674961E+03  0.12500207101E+03 0.  0.
          5    1    3    3  502    0  0.14498832073E+02 -0.40245400762E+02 -0.35721048185E+03  0.35979345013E+03  0.47000000000E+01 0.  1.
         -5    1    3    3    0  502 -0.80344107076E+00  0.53702021595E+02 -0.89592638974E+02  0.10456329949E+03  0.47000000000E+01 0.  1.
        -11    1    1    2    0    0 -0.38221626561E+02  0.26504244950E+02 -0.20390277106E+03  0.20914040209E+03  0.00000000000E+00 0.  1.
         11    1    1    2    0    0  0.24526235559E+02 -0.39960865782E+02 -0.25692922982E+03  0.26117242611E+03  0.00000000000E+00 0. -1.
<mgrwt>
<rscale>  0 0.11741362E+03</rscale>
<asrwt>0</asrwt>
<pdfrwt beam="2">  1        2 0.14171576E+00 0.12646803E+03</pdfrwt>
<pdfrwt beam="1">  1       -2 0.20795734E-02 0.12646803E+03</pdfrwt>
<totfact> 0.20330654E+04</totfact>
</mgrwt>
</event>
<event>
 7    1  0.4230786E-006  0.1454320E+03  0.7546771E-02  0.1216589E+00
          3   -1    0    0  501    0  0.00000000000E+00  0.00000000000E+00  0.31513031825E+03  0.31513031825E+03  0.00000000000E+00 0. -1.
         -3   -1    0    0    0  501 -0.00000000000E+00 -0.00000000000E+00 -0.56845893664E+02  0.56845893664E+02  0.00000000000E+00 0.  1.
         23    2    1    2    0    0 -0.49642865880E+02 -0.55347780780E+02  0.10484669773E+03  0.17928549551E+03  0.12499067127E+03 0.  0.
          5    1    3    3  502    0 -0.45048362536E+02 -0.86870575185E+01 -0.16602052992E+02  0.49015692376E+02  0.47000000000E+01 0.  1.
         -5    1    3    3    0  502 -0.45945033432E+01 -0.46660723262E+02  0.12144875072E+03  0.13026980313E+03  0.47000000000E+01 0.  1.
        -11    1    1    2    0    0  0.42000401328E+02  0.11799317307E+02  0.13096803879E+02  0.45549795526E+02  0.00000000000E+00 0.  1.
         11    1    1    2    0    0  0.76424645516E+01  0.43548463474E+02  0.14034092298E+03  0.14714092088E+03  0.00000000000E+00 0. -1.
<mgrwt>
<rscale>  0 0.13760483E+03</rscale>
<asrwt>0</asrwt>
<pdfrwt beam="1">  1        3 0.48481586E-01 0.14543197E+03</pdfrwt>
<pdfrwt beam="2">  1       -3 0.87455223E-02 0.14543197E+03</pdfrwt>
<totfact> 0.91397203E+02</totfact>
</mgrwt>
</event>
<event>
 7    1  0.4230786E-006  0.1765625E+03  0.7546771E-02  0.1178111E+00
         -1   -1    0    0    0  501 -0.00000000000E+00  0.00000000000E+00  0.53960894421E+02  0.53960894421E+02  0.00000000000E+00 0.  1.
          1   -1    0    0  501    0  0.00000000000E+00 -0.00000000000E+00 -0.55188111552E+03  0.55188111552E+03  0.00000000000E+00 0. -1.
         23    2    1    2    0    0 -0.93826246283E+02  0.82134387972E+02 -0.17097977540E+03  0.24578120076E+03  0.12499957148E+03 0.  0.
          5    1    3    3  502    0 -0.84871684184E+02  0.10834898122E+03 -0.16843809152E+03  0.21756880563E+03  0.47000000000E+01 0. -1.
         -5    1    3    3    0  502 -0.89545620989E+01 -0.26214593252E+02 -0.25416838752E+01  0.28212395124E+02  0.47000000000E+01 0. -1.
        -11    1    1    2    0    0  0.43662871429E+02 -0.32886041820E+02 -0.24972995904E+03  0.25564230974E+03  0.00000000000E+00 0. -1.
         11    1    1    2    0    0  0.50163374854E+02 -0.49248346152E+02 -0.77210486665E+02  0.10441849945E+03  0.00000000000E+00 0.  1.
<mgrwt>
<rscale>  0 0.16974830E+03</rscale>
<asrwt>0</asrwt>
<pdfrwt beam="2">  1        1 0.84904785E-01 0.17656250E+03</pdfrwt>
<pdfrwt beam="1">  1       -1 0.83016762E-02 0.17656250E+03</pdfrwt>
<totfact> 0.31597869E+03</totfact>
</mgrwt>
</event>
<event>
 7    1  0.4230786E-006  0.2229146E+03  0.7546771E-02  0.1136076E+00
          2   -1    0    0  501    0  0.00000000000E+00  0.00000000000E+00  0.14836223147E+04  0.14836223147E+04  0.00000000000E+00 0. -1.
         -2   -1    0    0    0  501 -0.00000000000E+00 -0.00000000000E+00 -0.34111970548E+02  0.34111970548E+02  0.00000000000E+00 0.  1.
         23    2    1    2    0    0  0.17592871420E+03 -0.55811405804E+02  0.50235243249E+03  0.54958972456E+03  0.12500029365E+03 0.  0.
          5    1    3    3  502    0  0.16899382107E+03 -0.67478381237E+02  0.33195029185E+03  0.37858331943E+03  0.47000000000E+01 0.  1.
         -5    1    3    3    0  502  0.69348931266E+01  0.11666975434E+02  0.17040214064E+03  0.17100640512E+03  0.47000000000E+01 0.  1.
        -11    1    1    2    0    0 -0.10455219159E+02  0.74606206943E+01  0.13230818885E+02  0.18439822048E+02  0.00000000000E+00 0.  1.
         11    1    1    2    0    0 -0.16547349504E+03  0.48350785109E+02  0.93392709282E+03  0.94970473868E+03  0.00000000000E+00 0. -1.
<mgrwt>
<rscale>  0 0.21708328E+03</rscale>
<asrwt>0</asrwt>
<pdfrwt beam="1">  1        2 0.22824954E+00 0.22291456E+03</pdfrwt>
<pdfrwt beam="2">  1       -2 0.52479966E-02 0.22291456E+03</pdfrwt>
<totfact> 0.25315702E+03</totfact>
</mgrwt>
</event>
<event>
 7    1  0.4230786E-006  0.1510607E+03  0.7546771E-02  0.1208218E+00
          2   -1    0    0  501    0  0.00000000000E+00  0.00000000000E+00  0.15664813564E+03  0.15664813564E+03  0.00000000000E+00 0. -1.
         -2   -1    0    0    0  501 -0.00000000000E+00 -0.00000000000E+00 -0.13032327491E+03  0.13032327491E+03  0.00000000000E+00 0.  1.
         23    2    1    2    0    0  0.53510816863E+02 -0.65812150532E+02 -0.23879369403E+02  0.15293646297E+03  0.12499876297E+03 0.  0.
          5    1    3    3  502    0  0.58140260389E+02  0.77749608166E+01 -0.47226474798E+02  0.75453096793E+02  0.47000000000E+01 0.  1.
         -5    1    3    3    0  502 -0.46294435260E+01 -0.73587111349E+02  0.23347105395E+02  0.77483366178E+02  0.47000000000E+01 0.  1.
        -11    1    1    2    0    0 -0.23640900323E+02  0.79958366199E+02  0.56054766667E+02  0.10047073882E+03  0.00000000000E+00 0. -1.
         11    1    1    2    0    0 -0.29869916540E+02 -0.14146215666E+02 -0.58505365361E+01  0.33564208758E+02  0.00000000000E+00 0.  1.
<mgrwt>
<rscale>  0 0.14386720E+03</rscale>
<asrwt>0</asrwt>
<pdfrwt beam="1">  1        2 0.24099713E-01 0.15106071E+03</pdfrwt>
<pdfrwt beam="2">  1       -2 0.20049735E-01 0.15106071E+03</pdfrwt>
<totfact> 0.45193665E+03</totfact>
</mgrwt>
</event>
<event>
 7    1  0.4230786E-006  0.1256377E+03  0.7546771E-02  0.1249201E+00
          1   -1    0    0  501    0  0.00000000000E+00  0.00000000000E+00  0.65155656115E+03  0.65155656115E+03  0.00000000000E+00 0. -1.
         -1   -1    0    0    0  501 -0.00000000000E+00 -0.00000000000E+00 -0.19705074439E+02  0.19705074439E+02  0.00000000000E+00 0.  1.
         23    2    1    2    0    0  0.94792893171E+01 -0.84021667149E+01  0.27035238449E+03  0.29811951151E+03  0.12499751202E+03 0.  0.
          5    1    3    3  502    0 -0.43326808960E+02 -0.34969929685E+02  0.19132802904E+03  0.19932037791E+03  0.47000000000E+01 0.  1.
         -5    1    3    3    0  502  0.52806098277E+02  0.26567762970E+02  0.79024355453E+02  0.98799133595E+02  0.47000000000E+01 0.  1.
        -11    1    1    2    0    0  0.15124318733E+02  0.42524590601E+02  0.24852181121E+03  0.25258696814E+03  0.00000000000E+00 0. -1.
         11    1    1    2    0    0 -0.24603608050E+02 -0.34122423887E+02  0.11297729100E+03  0.12055515594E+03  0.00000000000E+00 0.  1.
<mgrwt>
<rscale>  0 0.11637444E+03</rscale>
<asrwt>0</asrwt>
<pdfrwt beam="1">  1        1 0.10023945E+00 0.12563770E+03</pdfrwt>
<pdfrwt beam="2">  1       -1 0.30315504E-02 0.12563770E+03</pdfrwt>
<totfact> 0.11038289E+04</totfact>
</mgrwt>
</event>
<event>
 7    1  0.4230786E-006  0.1227329E+03  0.7546771E-02  0.1246687E+00
          2   -1    0    0  501    0  0.00000000000E+00  0.00000000000E+00  0.69732374183E+02  0.69732374183E+02  0.00000000000E+00 0. -1.
         -2   -1    0    0    0  501 -0.00000000000E+00 -0.00000000000E+00 -0.18571890878E+03  0.18571890878E+03  0.00000000000E+00 0.  1.
         23    2    1    2    0    0 -0.11821513348E+02 -0.47891540961E+02 -0.71372922641E+02  0.14197697908E+03  0.11238336456E+03 0.  0.
          5    1    3    3  502    0  0.17740892991E+02  0.13535775143E+02  0.18297537453E+02  0.29237755893E+02  0.47000000000E+01 0. -1.
         -5    1    3    3    0  502 -0.29562406338E+02 -0.61427316104E+02 -0.89670460093E+02  0.11273922319E+03  0.47000000000E+01 0.  1.
        -11    1    1    2    0    0  0.31906090711E+02  0.78912140422E+00  0.14680293964E+02  0.35130220152E+02  0.00000000000E+00 0.  1.
         11    1    1    2    0    0 -0.20084577364E+02  0.47102419557E+02 -0.59293905923E+02  0.78344083731E+02  0.00000000000E+00 0. -1.
<mgrwt>
<rscale>  0 0.11784999E+03</rscale>
<asrwt>0</asrwt>
<pdfrwt beam="1">  1        2 0.10728057E-01 0.12273292E+03</pdfrwt>
<pdfrwt beam="2">  1       -2 0.28572140E-01 0.12273292E+03</pdfrwt>
<totfact> 0.61678634E+03</totfact>
</mgrwt>
</event>
<event>
 7    1  0.4230786E-006  0.1377841E+03  0.7546771E-02  0.1227620E+00
         -4   -1    0    0    0  501 -0.00000000000E+00  0.00000000000E+00  0.36215252010E+03  0.36215252010E+03  0.00000000000E+00 0.  1.
          4   -1    0    0  501    0  0.00000000000E+00 -0.00000000000E+00 -0.64159321307E+02  0.64159321307E+02  0.00000000000E+00 0. -1.
         23    2    1    2    0    0  0.57445361287E+02 -0.64265481518E+01  0.28520840653E+03  0.31674640647E+03  0.12507270204E+03 0.  0.
          5    1    3    3  502    0  0.50946249943E+02 -0.32650733733E+02  0.28277529223E+03  0.28921539844E+03  0.47000000000E+01 0.  1.
         -5    1    3    3    0  502  0.64991113434E+01  0.26224185581E+02  0.24331143002E+01  0.27531008025E+02  0.47000000000E+01 0.  1.
        -11    1    1    2    0    0 -0.65983298390E+02  0.24627727718E+02  0.35799933463E+02  0.79006049610E+02  0.00000000000E+00 0.  1.
         11    1    1    2    0    0  0.85379371034E+01 -0.18201179566E+02 -0.23015141202E+02  0.30559385336E+02  0.00000000000E+00 0. -1.
<mgrwt>
<rscale>  0 0.12988931E+03</rscale>
<asrwt>0</asrwt>
<pdfrwt beam="2">  1        4 0.98706650E-02 0.13778407E+03</pdfrwt>
<pdfrwt beam="1">  1       -4 0.55715771E-01 0.13778407E+03</pdfrwt>
<totfact> 0.40086384E+02</totfact>
</mgrwt>
</event>
<event>
 7    1  0.4230786E-006  0.1279900E+03  0.7546771E-02  0.1244316E+00
          2   -1    0    0  501    0  0.00000000000E+00  0.00000000000E+00  0.77496506746E+03  0.77496506746E+03  0.00000000000E+00 0. -1.
         -2   -1    0    0    0  501 -0.00000000000E+00 -0.00000000000E+00 -0.16447347939E+02  0.16447347939E+02  0.00000000000E+00 0.  1.
         23    2    1    2    0    0  0.26888390006E+02 -0.57229486533E+01  0.47401678095E+03  0.49099220081E+03  0.12500277986E+03 0.  0.
          5    1    3    3  502    0  0.85116001740E+01 -0.65012265810E+02  0.24563148854E+03  0.25427536296E+03  0.47000000000E+01 0.  1.
         -5    1    3    3    0  502  0.18376789832E+02  0.59289317157E+02  0.22838529241E+03  0.23671683785E+03  0.47000000000E+01 0.  1.
        -11    1    1    2    0    0 -0.20865711808E+02 -0.38406097011E+02  0.80362830503E+02  0.91480001876E+02  0.00000000000E+00 0.  1.
         11    1    1    2    0    0 -0.60226781983E+01  0.44129045665E+02  0.20413810807E+03  0.20894021272E+03  0.00000000000E+00 0. -1.
<mgrwt>
<rscale>  0 0.11926405E+03</rscale>
<asrwt>0</asrwt>
<pdfrwt beam="1">  1        2 0.11922537E+00 0.12798997E+03</pdfrwt>
<pdfrwt beam="2">  1       -2 0.25303618E-02 0.12798997E+03</pdfrwt>
<totfact> 0.19046289E+04</totfact>
</mgrwt>
</event>
<event>
 7    1  0.4230786E-006  0.1221528E+03  0.7546771E-02  0.1248718E+00
          1   -1    0    0  501    0  0.00000000000E+00  0.00000000000E+00  0.13840100118E+03  0.13840100118E+03  0.00000000000E+00 0. -1.
         -1   -1    0    0    0  501 -0.00000000000E+00 -0.00000000000E+00 -0.93303163371E+02  0.93303163371E+02  0.00000000000E+00 0.  1.
         23    2    1    2    0    0  0.38729362361E+02  0.10543810878E+01  0.43407414015E+01  0.12222986119E+03  0.11584568055E+03 0.  0.
          5    1    3    3  502    0  0.12815509569E+02 -0.46926652098E+02  0.34419404105E+02  0.59775691895E+02  0.47000000000E+01 0. -1.
         -5    1    3    3    0  502  0.25913852792E+02  0.47981033186E+02 -0.30078662703E+02  0.62454169293E+02  0.47000000000E+01 0.  1.
        -11    1    1    2    0    0  0.22416942360E+02  0.69234349290E+01 -0.13731798094E+02  0.27184840166E+02  0.00000000000E+00 0.  1.
         11    1    1    2    0    0 -0.61146304721E+02 -0.79778160168E+01  0.54488894503E+02  0.82289463199E+02  0.00000000000E+00 0. -1.
<mgrwt>
<rscale>  0 0.11665564E+03</rscale>
<asrwt>0</asrwt>
<pdfrwt beam="1">  1        1 0.21292462E-01 0.12215276E+03</pdfrwt>
<pdfrwt beam="2">  1       -1 0.14354333E-01 0.12215276E+03</pdfrwt>
<totfact> 0.76192081E+03</totfact>
</mgrwt>
</event>
<event>
 6    1  0.4230786E-006  0.2939423E+03  0.7546771E-02  0.1091959E+00
         -2   -1    0    0    0  501 -0.00000000000E+00  0.00000000000E+00  0.56453542192E+02  0.56453542192E+02  0.00000000000E+00 0.  1.
          2   -1    0    0  501    0  0.00000000000E+00 -0.00000000000E+00 -0.17487851343E+04  0.17487851343E+04  0.00000000000E+00 0. -1.
          5    1    1    2  502    0 -0.41335743150E+02 -0.87304065124E+01 -0.22066172892E+03  0.22471882936E+03  0.47000000000E+01 0. -1.
         -5    1    1    2    0  502 -0.14316308381E+03 -0.16149897770E+03 -0.25123063567E+03  0.33123482707E+03  0.47000000000E+01 0.  1.
        -11    1    1    2    0    0  0.23796191284E+02  0.86682662463E+01 -0.42233239842E+02  0.49244736845E+02  0.00000000000E+00 0.  1.
         11    1    1    2    0    0  0.16070263568E+03  0.16156111796E+03 -0.11782059877E+04  0.12000402832E+04  0.00000000000E+00 0. -1.
<mgrwt>
<rscale>  0 0.28693790E+03</rscale>
<asrwt>0</asrwt>
<pdfrwt beam="2">  1        2 0.26904390E+00 0.29394228E+03</pdfrwt>
<pdfrwt beam="1">  1       -2 0.86851594E-02 0.29394228E+03</pdfrwt>
<totfact> 0.83527642E+02</totfact>
</mgrwt>
</event>
<event>
 7    1  0.4230786E-006  0.1301063E+03  0.7546771E-02  0.1241273E+00
          2   -1    0    0  501    0  0.00000000000E+00  0.00000000000E+00  0.37329910831E+03  0.37329910831E+03  0.00000000000E+00 0. -1.
         -2   -1    0    0    0  501 -0.00000000000E+00 -0.00000000000E+00 -0.35142473740E+02  0.35142473740E+02  0.00000000000E+00 0.  1.
         23    2    1    2    0    0  0.15081601573E+02 -0.32751540526E+02  0.21415920025E+03  0.25058292143E+03  0.12501007697E+03 0.  0.
          5    1    3    3  502    0 -0.20811516404E+02 -0.24437546919E+02  0.21080858884E+03  0.21329009363E+03  0.47000000000E+01 0. -1.
         -5    1    3    3    0  502  0.35893117977E+02 -0.83139936071E+01  0.33506114167E+01  0.37292827791E+02  0.47000000000E+01 0. -1.
        -11    1    1    2    0    0  0.37289732339E+02  0.24622197547E+02  0.55624610395E+02  0.71350361117E+02  0.00000000000E+00 0.  1.
         11    1    1    2    0    0 -0.52371333912E+02  0.81293429794E+01  0.68372823921E+02  0.86508299509E+02  0.00000000000E+00 0. -1.
<mgrwt>
<rscale>  0 0.12111276E+03</rscale>
<asrwt>0</asrwt>
<pdfrwt beam="1">  1        2 0.57430629E-01 0.13010625E+03</pdfrwt>
<pdfrwt beam="2">  1       -2 0.54065347E-02 0.13010625E+03</pdfrwt>
<totfact> 0.14055496E+04</totfact>
</mgrwt>
</event>
<event>
 7    1  0.4230786E-006  0.1269997E+03  0.7546771E-02  0.1245657E+00
         -1   -1    0    0    0  501 -0.00000000000E+00  0.00000000000E+00  0.56697776441E+02  0.56697776441E+02  0.00000000000E+00 0.  1.
          1   -1    0    0  501    0  0.00000000000E+00 -0.00000000000E+00 -0.33671012507E+03  0.33671012507E+03  0.00000000000E+00 0. -1.
         23    2    1    2    0    0 -0.64820496477E+01  0.21541281496E+02 -0.37324171779E+02  0.13237074966E+03  0.12499151087E+03 0.  0.
          5    1    3    3  502    0  0.61734617993E+01 -0.41241820559E+02  0.19818731167E+02  0.46409821144E+02  0.47000000000E+01 0.  1.
         -5    1    3    3    0  502 -0.12655511447E+02  0.62783102055E+02 -0.57142902946E+02  0.85960928512E+02  0.47000000000E+01 0.  1.
        -11    1    1    2    0    0  0.21204510393E+02  0.26103312926E+02 -0.39779461065E+02  0.52090495576E+02  0.00000000000E+00 0.  1.
         11    1    1    2    0    0 -0.14722460745E+02 -0.47644594423E+02 -0.20290871578E+03  0.20894665627E+03  0.00000000000E+00 0. -1.
<mgrwt>
<rscale>  0 0.11846163E+03</rscale>
<asrwt>0</asrwt>
<pdfrwt beam="2">  1        1 0.51801558E-01 0.12699969E+03</pdfrwt>
<pdfrwt beam="1">  1       -1 0.87227349E-02 0.12699969E+03</pdfrwt>
<totfact> 0.54387031E+03</totfact>
</mgrwt>
</event>
<event>
 7    1  0.4230786E-006  0.1470207E+03  0.7546771E-02  0.1213679E+00
          2   -1    0    0  501    0  0.00000000000E+00  0.00000000000E+00  0.78881875010E+02  0.78881875010E+02  0.00000000000E+00 0.  1.
         -2   -1    0    0    0  501 -0.00000000000E+00 -0.00000000000E+00 -0.23423117580E+03  0.23423117580E+03  0.00000000000E+00 0. -1.
         23    2    1    2    0    0  0.51826482980E+02  0.57484207288E+02 -0.11454132207E+03  0.18637273553E+03  0.12499865465E+03 0.  0.
          5    1    3    3  502    0 -0.29488839876E+01  0.16859046987E+02  0.25191136521E+02  0.30815689856E+02  0.47000000000E+01 0.  1.
         -5    1    3    3    0  502  0.54775366967E+02  0.40625160302E+02 -0.13973245859E+03  0.15555704568E+03  0.47000000000E+01 0.  1.
        -11    1    1    2    0    0 -0.28894171065E+02 -0.79816071679E+02 -0.16323679068E+02  0.86440389391E+02  0.00000000000E+00 0.  1.
         11    1    1    2    0    0 -0.22932311915E+02  0.22331864390E+02 -0.24484299651E+02  0.40299925885E+02  0.00000000000E+00 0. -1.
<mgrwt>
<rscale>  0 0.13974006E+03</rscale>
<asrwt>0</asrwt>
<pdfrwt beam="1">  1        2 0.12135673E-01 0.14702069E+03</pdfrwt>
<pdfrwt beam="2">  1       -2 0.36035565E-01 0.14702069E+03</pdfrwt>
<totfact> 0.35273172E+03</totfact>
</mgrwt>
</event>
<event>
 7    1  0.4230786E-006  0.1930271E+03  0.7546771E-02  0.1160282E+00
          1   -1    0    0  501    0  0.00000000000E+00  0.00000000000E+00  0.91596744407E+03  0.91596744407E+03  0.00000000000E+00 0. -1.
         -1   -1    0    0    0  501 -0.00000000000E+00 -0.00000000000E+00 -0.42748085298E+02  0.42748085298E+02  0.00000000000E+00 0.  1.
         23    2    1    2    0    0  0.14434628498E+03  0.28268577068E+02  0.27632704809E+03  0.33706987977E+03  0.12499801559E+03 0.  0.
          5    1    3    3  502    0  0.12401271684E+03  0.21935212973E+01  0.27713601045E+03  0.30366169294E+03  0.47000000000E+01 0. -1.
         -5    1    3    3    0  502  0.20333568145E+02  0.26075055770E+02 -0.80896235673E+00  0.33408186826E+02  0.47000000000E+01 0. -1.
        -11    1    1    2    0    0 -0.35920118719E+02  0.27457739287E+02  0.95738539276E+02  0.10587752490E+03  0.00000000000E+00 0.  1.
         11    1    1    2    0    0 -0.10842616627E+03 -0.55726316355E+02  0.50115377140E+03  0.51576812470E+03  0.00000000000E+00 0. -1.
<mgrwt>
<rscale>  0 0.18799567E+03</rscale>
<asrwt>0</asrwt>
<pdfrwt beam="1">  1        1 0.14091805E+00 0.19302711E+03</pdfrwt>
<pdfrwt beam="2">  1       -1 0.65766292E-02 0.19302711E+03</pdfrwt>
<totfact> 0.21456689E+03</totfact>
</mgrwt>
</event>
<event>
 7    1  0.4230786E-006  0.1498253E+03  0.7546771E-02  0.1208516E+00
          1   -1    0    0  501    0  0.00000000000E+00  0.00000000000E+00  0.34815963080E+03  0.34815963080E+03  0.00000000000E+00 0. -1.
         -1   -1    0    0    0  501 -0.00000000000E+00 -0.00000000000E+00 -0.94693847342E+02  0.94693847342E+02  0.00000000000E+00 0.  1.
         23    2    1    2    0    0  0.66686286248E+02  0.54974647413E+02 -0.10417966309E+02  0.15018702808E+03  0.12238601534E+03 0.  0.
          5    1    3    3  502    0 -0.13743625282E+02  0.47909465789E+02 -0.39989690506E+02  0.64073937720E+02  0.47000000000E+01 0. -1.
         -5    1    3    3    0  502  0.80429911531E+02  0.70651816240E+01  0.29571724197E+02  0.86113090365E+02  0.47000000000E+01 0.  1.
        -11    1    1    2    0    0 -0.28365188795E+02 -0.70403150957E+02  0.21844500330E+03  0.23125615033E+03  0.00000000000E+00 0. -1.
         11    1    1    2    0    0 -0.38321097454E+02  0.15428503544E+02  0.45438746468E+02  0.61410299724E+02  0.00000000000E+00 0.  1.
<mgrwt>
<rscale>  0 0.14363764E+03</rscale>
<asrwt>0</asrwt>
<pdfrwt beam="1">  1        1 0.53563020E-01 0.14982526E+03</pdfrwt>
<pdfrwt beam="2">  1       -1 0.14568284E-01 0.14982526E+03</pdfrwt>
<totfact> 0.23885381E+03</totfact>
</mgrwt>
</event>
<event>
 7    1  0.4230786E-006  0.1313032E+03  0.7546771E-02  0.1238741E+00
         -2   -1    0    0    0  501 -0.00000000000E+00  0.00000000000E+00  0.51804931268E+02  0.51804931268E+02  0.00000000000E+00 0.  1.
          2   -1    0    0  501    0  0.00000000000E+00 -0.00000000000E+00 -0.26259168625E+03  0.26259168625E+03  0.00000000000E+00 0. -1.
         23    2    1    2    0    0  0.40203712343E+02  0.12038413903E+01 -0.99530562568E+02  0.16476304536E+03  0.12499096171E+03 0.  0.
          5    1    3    3  502    0  0.69215859410E+02  0.75958240606E+01 -0.10232883548E+02  0.70536044989E+02  0.47000000000E+01 0. -1.
         -5    1    3    3    0  502 -0.29012147066E+02 -0.63919826703E+01 -0.89297679019E+02  0.94227000367E+02  0.47000000000E+01 0. -1.
        -11    1    1    2    0    0 -0.64696029967E+02 -0.20795806385E+02 -0.67362437708E+02  0.95685630429E+02  0.00000000000E+00 0. -1.
         11    1    1    2    0    0  0.24492317623E+02  0.19591964994E+02 -0.43893754703E+02  0.53947941729E+02  0.00000000000E+00 0.  1.
<mgrwt>
<rscale>  0 0.12267979E+03</rscale>
<asrwt>0</asrwt>
<pdfrwt beam="2">  1        2 0.40398721E-01 0.13130319E+03</pdfrwt>
<pdfrwt beam="1">  1       -2 0.79699894E-02 0.13130319E+03</pdfrwt>
<totfact> 0.11306086E+04</totfact>
</mgrwt>
</event>
<event>
 7    1  0.4230786E-006  0.2291456E+03  0.7546771E-02  0.1130479E+00
         -2   -1    0    0    0  501 -0.00000000000E+00  0.00000000000E+00  0.54262061825E+02  0.54262061825E+02  0.00000000000E+00 0.  1.
          2   -1    0    0  501    0  0.00000000000E+00 -0.00000000000E+00 -0.97857061778E+03  0.97857061778E+03  0.00000000000E+00 0. -1.
         23    2    1    2    0    0 -0.18512135595E+03  0.51101234083E+02 -0.32817419981E+03  0.40025743697E+03  0.12500583135E+03 0.  0.
          5    1    3    3  502    0 -0.18632149322E+03  0.14995048602E+02 -0.23566384318E+03  0.30083232423E+03  0.47000000000E+01 0. -1.
         -5    1    3    3    0  502  0.12001372656E+01  0.36106185481E+02 -0.92510356633E+02  0.99425112742E+02  0.47000000000E+01 0. -1.
        -11    1    1    2    0    0  0.11266882562E+03  0.11827194589E+02 -0.36903047541E+03  0.38602802823E+03  0.00000000000E+00 0. -1.
         11    1    1    2    0    0  0.72452530337E+02 -0.62928428672E+02 -0.22710388073E+03  0.24654721440E+03  0.00000000000E+00 0.  1.
<mgrwt>
<rscale>  0 0.22462776E+03</rscale>
<asrwt>0</asrwt>
<pdfrwt beam="2">  1        2 0.15054933E+00 0.22914561E+03</pdfrwt>
<pdfrwt beam="1">  1       -2 0.83480094E-02 0.22914561E+03</pdfrwt>
<totfact> 0.23864547E+03</totfact>
</mgrwt>
</event>
<event>
 7    1  0.4230786E-006  0.1278597E+03  0.7546771E-02  0.1245029E+00
         -2   -1    0    0    0  501 -0.00000000000E+00  0.00000000000E+00  0.17685004023E+03  0.17685004023E+03  0.00000000000E+00 0.  1.
          2   -1    0    0  501    0  0.00000000000E+00 -0.00000000000E+00 -0.75400279742E+02  0.75400279742E+02  0.00000000000E+00 0. -1.
         23    2    1    2    0    0 -0.10668312156E+02  0.24710922043E+02  0.89551158178E+02  0.15610094094E+03  0.12499460500E+03 0.  0.
          5    1    3    3  502    0  0.13497194733E+02 -0.18487353978E+02  0.10216647859E+03  0.10480475118E+03  0.47000000000E+01 0. -1.
         -5    1    3    3    0  502 -0.24165506889E+02  0.43198276021E+02 -0.12615320414E+02  0.51296189756E+02  0.47000000000E+01 0. -1.
        -11    1    1    2    0    0  0.23900452005E+02 -0.55890021823E+02  0.18285720873E+01  0.60813401659E+02  0.00000000000E+00 0.  1.
         11    1    1    2    0    0 -0.13232139849E+02  0.31179099781E+02  0.10070030221E+02  0.35335977371E+02  0.00000000000E+00 0. -1.
<mgrwt>
<rscale>  0 0.11883626E+03</rscale>
<asrwt>0</asrwt>
<pdfrwt beam="2">  1        2 0.11600043E-01 0.12785966E+03</pdfrwt>
<pdfrwt beam="1">  1       -2 0.27207698E-01 0.12785966E+03</pdfrwt>
<totfact> 0.61397536E+03</totfact>
</mgrwt>
</event>
<event>
 7    1  0.4230786E-006  0.1327775E+03  0.7546771E-02  0.1236165E+00
         -2   -1    0    0    0  501 -0.00000000000E+00  0.00000000000E+00  0.10466221030E+03  0.10466221030E+03  0.00000000000E+00 0.  1.
          2   -1    0    0  501    0  0.00000000000E+00 -0.00000000000E+00 -0.13208358530E+03  0.13208358530E+03  0.00000000000E+00 0. -1.
         23    2    1    2    0    0 -0.18914976753E+01  0.44749161912E+02 -0.87455195971E+01  0.13306524846E+03  0.12499524383E+03 0.  0.
          5    1    3    3  502    0  0.10613925442E+02  0.86592652194E+02 -0.15166929628E+02  0.88673945337E+02  0.47000000000E+01 0.  1.
         -5    1    3    3    0  502 -0.12505423118E+02 -0.41843490282E+02  0.64214100306E+01  0.44391303125E+02  0.47000000000E+01 0.  1.
        -11    1    1    2    0    0  0.22166051246E+02 -0.42791763484E+02  0.25871462142E+02  0.54697361941E+02  0.00000000000E+00 0.  1.
         11    1    1    2    0    0 -0.20274553571E+02 -0.19573984282E+01 -0.44547317550E+02  0.48983185197E+02  0.00000000000E+00 0. -1.
<mgrwt>
<rscale>  0 0.12430173E+03</rscale>
<asrwt>0</asrwt>
<pdfrwt beam="2">  1        2 0.20320551E-01 0.13277754E+03</pdfrwt>
<pdfrwt beam="1">  1       -2 0.16101879E-01 0.13277754E+03</pdfrwt>
<totfact> 0.78231644E+03</totfact>
</mgrwt>
</event>
<event>
 7    1  0.4230786E-006  0.3624540E+03  0.7546771E-02  0.1058549E+00
         -1   -1    0    0    0  501 -0.00000000000E+00  0.00000000000E+00  0.24145302786E+03  0.24145302786E+03  0.00000000000E+00 0.  1.
          1   -1    0    0  501    0  0.00000000000E+00 -0.00000000000E+00 -0.60106951195E+03  0.60106951195E+03  0.00000000000E+00 0. -1.
         23    2    1    2    0    0  0.14571856570E+03  0.30742608846E+03 -0.37161338340E+02  0.36435402851E+03  0.12501277041E+03 0.  0.
          5    1    3    3  502    0  0.12872526188E+02  0.12566288507E+03  0.28919997969E+02  0.12967389443E+03  0.47000000000E+01 0. -1.
         -5    1    3    3    0  502  0.13284603951E+03  0.18176320339E+03 -0.66081336309E+02  0.23468013407E+03  0.47000000000E+01 0. -1.
        -11    1    1    2    0    0 -0.70809591550E+02 -0.70394689724E+02 -0.12927795340E+03  0.16334686967E+03  0.00000000000E+00 0.  1.
         11    1    1    2    0    0 -0.74908974152E+02 -0.23703139873E+03 -0.19317719235E+03  0.31482164163E+03  0.00000000000E+00 0. -1.
<mgrwt>
<rscale>  0 0.36008825E+03</rscale>
<asrwt>0</asrwt>
<pdfrwt beam="2">  1        1 0.92472232E-01 0.36245399E+03</pdfrwt>
<pdfrwt beam="1">  1       -1 0.37146620E-01 0.36245399E+03</pdfrwt>
<totfact> 0.24702837E+02</totfact>
</mgrwt>
</event>
<event>
 7    1  0.4230786E-006  0.2211342E+03  0.7546771E-02  0.1136478E+00
         -2   -1    0    0    0  501 -0.00000000000E+00  0.00000000000E+00  0.18985752414E+03  0.18985752414E+03  0.00000000000E+00 0.  1.
          2   -1    0    0  501    0  0.00000000000E+00 -0.00000000000E+00 -0.24249005505E+03  0.24249005505E+03  0.00000000000E+00 0. -1.
         23    2    1    2    0    0  0.12982089154E+03 -0.12814185959E+03 -0.58999674211E+02  0.22886962804E+03  0.12500617995E+03 0.  0.
          5    1    3    3  502    0  0.63655302565E+02 -0.13924349071E+03 -0.32521361331E+02  0.15659015356E+03  0.47000000000E+01 0.  1.
         -5    1    3    3    0  502  0.66165588975E+02  0.11101631125E+02 -0.26478312880E+02  0.72279474480E+02  0.47000000000E+01 0.  1.
        -11    1    1    2    0    0  0.11019626173E+02  0.24912543726E+02  0.94404186756E+01  0.28830339933E+02  0.00000000000E+00 0.  1.
         11    1    1    2    0    0 -0.14084051771E+03  0.10322931586E+03 -0.30732753753E+01  0.17464761122E+03  0.00000000000E+00 0. -1.
<mgrwt>
<rscale>  0 0.21655496E+03</rscale>
<asrwt>0</asrwt>
<pdfrwt beam="2">  1        2 0.37306162E-01 0.22113422E+03</pdfrwt>
<pdfrwt beam="1">  1       -2 0.29208850E-01 0.22113422E+03</pdfrwt>
<totfact> 0.14727576E+03</totfact>
</mgrwt>
</event>
<event>
 7    1  0.4230786E-006  0.2154041E+03  0.7546771E-02  0.1141018E+00
          2   -1    0    0  501    0  0.00000000000E+00  0.00000000000E+00  0.78716627398E+03  0.78716627398E+03  0.00000000000E+00 0. -1.
         -2   -1    0    0    0  501 -0.00000000000E+00 -0.00000000000E+00 -0.55690438377E+02  0.55690438377E+02  0.00000000000E+00 0.  1.
         23    2    1    2    0    0 -0.75931267530E+02  0.15812464047E+03  0.45345726565E+03  0.50201836022E+03  0.12501993007E+03 0.  0.
          5    1    3    3  502    0 -0.50419809404E+02  0.10922651328E+02  0.21036815446E+03  0.21665251419E+03  0.47000000000E+01 0. -1.
         -5    1    3    3    0  502 -0.25511458126E+02  0.14720198914E+03  0.24308911119E+03  0.28536584603E+03  0.47000000000E+01 0. -1.
        -11    1    1    2    0    0  0.53926516904E+02 -0.11618062686E+03  0.26059116765E+03  0.29036832461E+03  0.00000000000E+00 0. -1.
         11    1    1    2    0    0  0.22004750625E+02 -0.41944013605E+02  0.17427402307E+02  0.50470027527E+02  0.00000000000E+00 0.  1.
<mgrwt>
<rscale>  0 0.21069361E+03</rscale>
<asrwt>0</asrwt>
<pdfrwt beam="1">  1        2 0.12110250E+00 0.21540414E+03</pdfrwt>
<pdfrwt beam="2">  1       -2 0.85677603E-02 0.21540414E+03</pdfrwt>
<totfact> 0.30510039E+03</totfact>
</mgrwt>
</event>
<event>
 7    1  0.4230786E-006  0.4711219E+03  0.7546771E-02  0.1022188E+00
          1   -1    0    0  501    0  0.00000000000E+00  0.00000000000E+00  0.44224451680E+03  0.44224451680E+03  0.00000000000E+00 0. -1.
         -1   -1    0    0    0  501 -0.00000000000E+00 -0.00000000000E+00 -0.61256140906E+03  0.61256140906E+03  0.00000000000E+00 0.  1.
         23    2    1    2    0    0  0.51832822938E+02  0.45127092272E+03 -0.31859999903E+03  0.56873698522E+03  0.12499484691E+03 0.  0.
          5    1    3    3  502    0 -0.35983998554E+02  0.86601552973E+02 -0.86154400854E+02  0.12743370008E+03  0.47000000000E+01 0.  1.
         -5    1    3    3    0  502  0.87816821492E+02  0.36466936974E+03 -0.23244559818E+03  0.44130328514E+03  0.47000000000E+01 0.  1.
        -11    1    1    2    0    0 -0.62165057595E+02 -0.38567543820E+03  0.97953511759E+02  0.40274672995E+03  0.00000000000E+00 0.  1.
         11    1    1    2    0    0  0.10332234657E+02 -0.65595484517E+02  0.50329595005E+02  0.83322210697E+02  0.00000000000E+00 0. -1.
<mgrwt>
<rscale>  0 0.46905245E+03</rscale>
<asrwt>0</asrwt>
<pdfrwt beam="1">  1        1 0.68037618E-01 0.47112185E+03</pdfrwt>
<pdfrwt beam="2">  1       -1 0.94240217E-01 0.47112185E+03</pdfrwt>
<totfact> 0.59929431E+01</totfact>
</mgrwt>
</event>
<event>
 7    1  0.4230786E-006  0.1310146E+03  0.7546771E-02  0.1230087E+00
          2   -1    0    0  501    0  0.00000000000E+00  0.00000000000E+00  0.14476493811E+03  0.14476493811E+03  0.00000000000E+00 0. -1.
         -2   -1    0    0    0  501 -0.00000000000E+00 -0.00000000000E+00 -0.11186931185E+03  0.11186931185E+03  0.00000000000E+00 0.  1.
         23    2    1    2    0    0 -0.37873206645E+02 -0.10270566936E+02  0.37490775282E+02  0.13627322954E+03  0.12499988213E+03 0.  0.
          5    1    3    3  502    0 -0.53602525751E+02  0.31281059140E+02 -0.18228242515E+02  0.64854408123E+02  0.47000000000E+01 0. -1.
         -5    1    3    3    0  502  0.15729319106E+02 -0.41551626076E+02  0.55719017796E+02  0.71418821422E+02  0.47000000000E+01 0. -1.
        -11    1    1    2    0    0  0.75961798050E+02  0.11439736387E+02 -0.19806388821E+02  0.79330671053E+02  0.00000000000E+00 0.  1.
         11    1    1    2    0    0 -0.38088591405E+02 -0.11691694506E+01  0.15211239802E+02  0.41030349361E+02  0.00000000000E+00 0. -1.
<mgrwt>
<rscale>  0 0.12824255E+03</rscale>
<asrwt>0</asrwt>
<pdfrwt beam="1">  1        2 0.22271529E-01 0.13101464E+03</pdfrwt>
<pdfrwt beam="2">  1       -2 0.17210663E-01 0.13101464E+03</pdfrwt>
<totfact> 0.63170595E+03</totfact>
</mgrwt>
</event>
<event>
 7    1  0.4230786E-006  0.1444978E+03  0.7546771E-02  0.1217871E+00
         -1   -1    0    0    0  501 -0.00000000000E+00  0.00000000000E+00  0.55963302925E+03  0.55963302925E+03  0.00000000000E+00 0.  1.
          1   -1    0    0  501    0  0.00000000000E+00 -0.00000000000E+00 -0.47822430755E+02  0.47822430755E+02  0.00000000000E+00 0. -1.
         23    2    1    2    0    0  0.10169122671E+02  0.71756918735E+02  0.45730587760E+03  0.47959179350E+03  0.12500862476E+03 0.  0.
          5    1    3    3  502    0 -0.16593063138E+02 -0.32260825263E+02  0.13243515916E+03  0.13739451216E+03  0.47000000000E+01 0.  1.
         -5    1    3    3    0  502  0.26762185809E+02  0.10401774400E+03  0.32487071844E+03  0.34219728134E+03  0.47000000000E+01 0.  1.
        -11    1    1    2    0    0 -0.27010550177E+02 -0.81319614255E+02  0.19531156558E+02  0.87885809776E+02  0.00000000000E+00 0. -1.
         11    1    1    2    0    0  0.16841427506E+02  0.95626955200E+01  0.34973564335E+02  0.39977856725E+02  0.00000000000E+00 0.  1.
<mgrwt>
<rscale>  0 0.13667728E+03</rscale>
<asrwt>0</asrwt>
<pdfrwt beam="2">  1        1 0.73572974E-02 0.14449783E+03</pdfrwt>
<pdfrwt beam="1">  1       -1 0.86097385E-01 0.14449783E+03</pdfrwt>
<totfact> 0.13371687E+03</totfact>
</mgrwt>
</event>
<event>
 6    1  0.4230786E-006  0.2280683E+03  0.7546771E-02  0.1134615E+00
         -1   -1    0    0    0  501 -0.00000000000E+00  0.00000000000E+00  0.70469556773E+02  0.70469556773E+02  0.00000000000E+00 0.  1.
          1   -1    0    0  501    0  0.00000000000E+00 -0.00000000000E+00 -0.63197053389E+03  0.63197053389E+03  0.00000000000E+00 0. -1.
          5    1    1    2  502    0  0.61678201459E+02  0.34472535086E+02 -0.13401462330E+03  0.15157363052E+03  0.47000000000E+01 0. -1.
         -5    1    1    2    0  502  0.81077280487E+02 -0.12951594405E+03 -0.17267675702E+03  0.23062362756E+03  0.47000000000E+01 0.  1.
        -11    1    1    2    0    0 -0.96456826895E+02  0.11243056510E+02 -0.11105126118E+03  0.14752189120E+03  0.00000000000E+00 0.  1.
         11    1    1    2    0    0 -0.46298655051E+02  0.83800352457E+02 -0.14375833562E+03  0.17272094138E+03  0.00000000000E+00 0. -1.
<mgrwt>
<rscale>  0 0.21902158E+03</rscale>
<asrwt>0</asrwt>
<pdfrwt beam="2">  1        1 0.97226232E-01 0.22806828E+03</pdfrwt>
<pdfrwt beam="1">  1       -1 0.10841471E-01 0.22806828E+03</pdfrwt>
<totfact> 0.17508077E+03</totfact>
</mgrwt>
</event>
<event>
 7    1  0.4230786E-006  0.1888881E+03  0.7546771E-02  0.1164309E+00
          1   -1    0    0  501    0  0.00000000000E+00  0.00000000000E+00  0.19179333827E+03  0.19179333827E+03  0.00000000000E+00 0. -1.
         -1   -1    0    0    0  501 -0.00000000000E+00 -0.00000000000E+00 -0.16678683388E+03  0.16678683388E+03  0.00000000000E+00 0.  1.
         23    2    1    2    0    0 -0.11014888524E+03  0.88985529188E+02  0.13300560329E+02  0.18935584933E+03  0.12501012538E+03 0.  0.
          5    1    3    3  502    0 -0.24367480075E+02 -0.80311666819E+01 -0.41209624405E+02  0.48770860840E+02  0.47000000000E+01 0.  1.
         -5    1    3    3    0  502 -0.85781405166E+02  0.97016695870E+02  0.54510184735E+02  0.14058498849E+03  0.47000000000E+01 0.  1.
        -11    1    1    2    0    0  0.10937498067E+03 -0.10205162315E+03 -0.28904978170E+01  0.14961876607E+03  0.00000000000E+00 0.  1.
         11    1    1    2    0    0  0.77390457145E+00  0.13066093959E+02  0.14596441882E+02  0.19605556744E+02  0.00000000000E+00 0. -1.
<mgrwt>
<rscale>  0 0.18365757E+03</rscale>
<asrwt>0</asrwt>
<pdfrwt beam="1">  1        1 0.29506667E-01 0.18888815E+03</pdfrwt>
<pdfrwt beam="2">  1       -1 0.25659513E-01 0.18888815E+03</pdfrwt>
<totfact> 0.20348228E+03</totfact>
</mgrwt>
</event>
<event>
 7    1  0.4230786E-006  0.1350089E+03  0.7546771E-02  0.1231948E+00
          2   -1    0    0  501    0  0.00000000000E+00  0.00000000000E+00  0.22016135274E+03  0.22016135274E+03  0.00000000000E+00 0. -1.
         -2   -1    0    0    0  501 -0.00000000000E+00 -0.00000000000E+00 -0.11368977992E+03  0.11368977992E+03  0.00000000000E+00 0.  1.
         23    2    1    2    0    0  0.49285398209E+02 -0.14426363659E+02 -0.50857717224E+02  0.14427031291E+03  0.12486090397E+03 0.  0.
          5    1    3    3  502    0 -0.10395888104E+02  0.31964404582E+02  0.20965618322E+02  0.39892916682E+02  0.47000000000E+01 0. -1.
         -5    1    3    3    0  502  0.59681286313E+02 -0.46390768241E+02 -0.71823335546E+02  0.10437739623E+03  0.47000000000E+01 0.  1.
        -11    1    1    2    0    0  0.17821868988E+02  0.80247748544E+01  0.12726928678E+01  0.19586622292E+02  0.00000000000E+00 0.  1.
         11    1    1    2    0    0 -0.67107267197E+02  0.64015888049E+01  0.15605659718E+03  0.16999419747E+03  0.00000000000E+00 0. -1.
<mgrwt>
<rscale>  0 0.12701875E+03</rscale>
<asrwt>0</asrwt>
<pdfrwt beam="1">  1        2 0.33870977E-01 0.13500895E+03</pdfrwt>
<pdfrwt beam="2">  1       -2 0.17490735E-01 0.13500895E+03</pdfrwt>
<totfact> 0.38972789E+03</totfact>
</mgrwt>
</event>
<event>
 7    1  0.4230786E-006  0.1488871E+03  0.7546771E-02  0.1211391E+00
         -1   -1    0    0    0  501 -0.00000000000E+00  0.00000000000E+00  0.86598133207E+02  0.86598133207E+02  0.00000000000E+00 0.  1.
          1   -1    0    0  501    0  0.00000000000E+00 -0.00000000000E+00 -0.21076090105E+03  0.21076090105E+03  0.00000000000E+00 0. -1.
         23    2    1    2    0    0  0.15626502975E+02 -0.79360609106E+02 -0.69887285043E+02  0.16447371552E+03  0.12500030645E+03 0.  0.
          5    1    3    3  502    0 -0.38391416552E+02  0.13787775838E+02 -0.21086582205E+02  0.46159913091E+02  0.47000000000E+01 0.  1.
         -5    1    3    3    0  502  0.54017919527E+02 -0.93148384944E+02 -0.48800702838E+02  0.11831380243E+03  0.47000000000E+01 0.  1.
        -11    1    1    2    0    0 -0.33999067425E+02  0.72893114028E+02 -0.57976614351E+01  0.80640904860E+02  0.00000000000E+00 0.  1.
         11    1    1    2    0    0  0.18372564450E+02  0.64674950780E+01 -0.48477821362E+02  0.52244413874E+02  0.00000000000E+00 0. -1.
<mgrwt>
<rscale>  0 0.14145044E+03</rscale>
<asrwt>0</asrwt>
<pdfrwt beam="2">  1        1 0.32424754E-01 0.14888711E+03</pdfrwt>
<pdfrwt beam="1">  1       -1 0.13322790E-01 0.14888711E+03</pdfrwt>
<totfact> 0.51220950E+03</totfact>
</mgrwt>
</event>
<event>
 7    1  0.4230786E-006  0.1869336E+03  0.7546771E-02  0.1166029E+00
         -1   -1    0    0    0  501 -0.00000000000E+00  0.00000000000E+00  0.81119177437E+03  0.81119177437E+03  0.00000000000E+00 0.  1.
          1   -1    0    0  501    0  0.00000000000E+00 -0.00000000000E+00 -0.54960814069E+02  0.54960814069E+02  0.00000000000E+00 0. -1.
         23    2    1    2    0    0  0.20373184572E+02  0.13749542893E+03  0.62815959006E+03  0.65538435931E+03  0.12499651281E+03 0.  0.
          5    1    3    3  502    0  0.19476605906E+02 -0.12896746366E+02  0.28566472899E+02  0.37199430349E+02  0.47000000000E+01 0. -1.
         -5    1    3    3    0  502  0.89657866576E+00  0.15039217530E+03  0.59959311716E+03  0.61818492896E+03  0.47000000000E+01 0. -1.
        -11    1    1    2    0    0  0.24607976892E+01 -0.13385214931E+03  0.13118682309E+03  0.18743648512E+03  0.00000000000E+00 0.  1.
         11    1    1    2    0    0 -0.22833982261E+02 -0.36432796166E+01 -0.31154528498E+01  0.23331744014E+02  0.00000000000E+00 0. -1.
<mgrwt>
<rscale>  0 0.18184485E+03</rscale>
<asrwt>0</asrwt>
<pdfrwt beam="2">  1        1 0.84555104E-02 0.18693365E+03</pdfrwt>
<pdfrwt beam="1">  1       -1 0.12479873E+00 0.18693365E+03</pdfrwt>
<totfact> 0.48477964E+02</totfact>
</mgrwt>
</event>
<event>
 7    1  0.4230786E-006  0.1800398E+03  0.7546771E-02  0.1173722E+00
          1   -1    0    0  501    0  0.00000000000E+00  0.00000000000E+00  0.54041270593E+02  0.54041270593E+02  0.00000000000E+00 0. -1.
         -1   -1    0    0    0  501 -0.00000000000E+00 -0.00000000000E+00 -0.52785869187E+03  0.52785869187E+03  0.00000000000E+00 0.  1.
         23    2    1    2    0    0  0.11842856073E+03  0.52574118457E+02 -0.27053527074E+03  0.32496716204E+03  0.12499984706E+03 0.  0.
          5    1    3    3  502    0  0.61173023755E+02  0.70487691812E+02 -0.73332063921E+02  0.11878693165E+03  0.47000000000E+01 0.  1.
         -5    1    3    3    0  502  0.57255536974E+02 -0.17913573356E+02 -0.19720320682E+03  0.20618023039E+03  0.47000000000E+01 0.  1.
        -11    1    1    2    0    0 -0.46577078619E+02 -0.55012113803E+02 -0.50290643398E+02  0.87891442878E+02  0.00000000000E+00 0. -1.
         11    1    1    2    0    0 -0.71851482111E+02  0.24379953460E+01 -0.15299150714E+03  0.16904135754E+03  0.00000000000E+00 0.  1.
<mgrwt>
<rscale>  0 0.17401766E+03</rscale>
<asrwt>0</asrwt>
<pdfrwt beam="1">  1        1 0.83140413E-02 0.18003978E+03</pdfrwt>
<pdfrwt beam="2">  1       -1 0.81209032E-01 0.18003978E+03</pdfrwt>
<totfact> 0.12892513E+03</totfact>
</mgrwt>
</event>
<event>
 7    1  0.4230786E-006  0.1450165E+03  0.7546771E-02  0.1217004E+00
         -2   -1    0    0    0  501 -0.00000000000E+00  0.00000000000E+00  0.25169600039E+02  0.25169600039E+02  0.00000000000E+00 0.  1.
          2   -1    0    0  501    0  0.00000000000E+00 -0.00000000000E+00 -0.72059828453E+03  0.72059828453E+03  0.00000000000E+00 0. -1.
         23    2    1    2    0    0  0.34707462350E+01  0.79223596925E+02 -0.29487289075E+03  0.32860280725E+03  0.12141399772E+03 0.  0.
          5    1    3    3  502    0 -0.50264344837E+02  0.50324208189E+02 -0.22347889576E+03  0.23457181660E+03  0.47000000000E+01 0. -1.
         -5    1    3    3    0  502  0.53735091072E+02  0.28899388736E+02 -0.71393994989E+02  0.94030990649E+02  0.47000000000E+01 0.  1.
        -11    1    1    2    0    0  0.39724687460E+02 -0.23931941816E+02 -0.15951802207E+03  0.16612280998E+03  0.00000000000E+00 0.  1.
         11    1    1    2    0    0 -0.43195433695E+02 -0.55291655109E+02 -0.24103777168E+03  0.25104226734E+03  0.00000000000E+00 0. -1.
<mgrwt>
<rscale>  0 0.13730380E+03</rscale>
<asrwt>0</asrwt>
<pdfrwt beam="2">  1        2 0.11086128E+00 0.14501649E+03</pdfrwt>
<pdfrwt beam="1">  1       -2 0.38722459E-02 0.14501649E+03</pdfrwt>
<totfact> 0.11218972E+04</totfact>
</mgrwt>
</event>
<event>
 7    1  0.4230786E-006  0.1391220E+03  0.7546771E-02  0.1228353E+00
          1   -1    0    0  501    0  0.00000000000E+00  0.00000000000E+00  0.50546279351E+02  0.50546279351E+02  0.00000000000E+00 0. -1.
         -1   -1    0    0    0  501 -0.00000000000E+00 -0.00000000000E+00 -0.44215080356E+03  0.44215080356E+03  0.00000000000E+00 0.  1.
         23    2    1    2    0    0  0.57946805055E+02  0.19302433105E+02 -0.35672864941E+03  0.38289720624E+03  0.12499810037E+03 0.  0.
          5    1    3    3  502    0  0.63750054369E+02  0.37758809872E+02 -0.35525838069E+03  0.36293305747E+03  0.47000000000E+01 0.  1.
         -5    1    3    3    0  502 -0.58032493132E+01 -0.18456376766E+02 -0.14702687198E+01  0.19964148768E+02  0.47000000000E+01 0.  1.
        -11    1    1    2    0    0  0.46634324347E+01  0.21694038838E+02 -0.26394585488E+02  0.34482648771E+02  0.00000000000E+00 0.  1.
         11    1    1    2    0    0 -0.62610237490E+02 -0.40996471943E+02 -0.84812893111E+01  0.75317227901E+02  0.00000000000E+00 0. -1.
<mgrwt>
<rscale>  0 0.12939695E+03</rscale>
<asrwt>0</asrwt>
<pdfrwt beam="1">  1        1 0.77763504E-02 0.13912204E+03</pdfrwt>
<pdfrwt beam="2">  1       -1 0.68023203E-01 0.13912204E+03</pdfrwt>
<totfact> 0.19968608E+03</totfact>
</mgrwt>
</event>
<event>
 7    1  0.4230786E-006  0.1279187E+03  0.7546771E-02  0.1244909E+00
          1   -1    0    0  501    0  0.00000000000E+00  0.00000000000E+00  0.38439697026E+03  0.38439697026E+03  0.00000000000E+00 0. -1.
         -1   -1    0    0    0  501 -0.00000000000E+00 -0.00000000000E+00 -0.43515225877E+02  0.43515225877E+02  0.00000000000E+00 0.  1.
         23    2    1    2    0    0  0.19492438418E+02 -0.18895904745E+02  0.81925330756E+02  0.15190439425E+03  0.12500469911E+03 0.  0.
          5    1    3    3  502    0  0.35653481400E+02  0.30929123308E+02  0.86978442911E+02  0.99071292188E+02  0.47000000000E+01 0. -1.
         -5    1    3    3    0  502 -0.16161042981E+02 -0.49825028054E+02 -0.50531121548E+01  0.52833102060E+02  0.47000000000E+01 0. -1.
        -11    1    1    2    0    0 -0.21598939059E+02 -0.30902687271E+02  0.16911035267E+03  0.17326223370E+03  0.00000000000E+00 0. -1.
         11    1    1    2    0    0  0.21065006402E+01  0.49798592016E+02  0.89846060962E+02  0.10274556819E+03  0.00000000000E+00 0.  1.
<mgrwt>
<rscale>  0 0.11890798E+03</rscale>
<asrwt>0</asrwt>
<pdfrwt beam="1">  1        1 0.59137993E-01 0.12791867E+03</pdfrwt>
<pdfrwt beam="2">  1       -1 0.66946504E-02 0.12791867E+03</pdfrwt>
<totfact> 0.68655851E+03</totfact>
</mgrwt>
</event>
<event>
 7    1  0.4230786E-006  0.1336489E+03  0.7546771E-02  0.1235259E+00
         -4   -1    0    0    0  501 -0.00000000000E+00  0.00000000000E+00  0.21234007399E+03  0.21234007399E+03  0.00000000000E+00 0.  1.
          4   -1    0    0  501    0  0.00000000000E+00 -0.00000000000E+00 -0.67442022729E+02  0.67442022729E+02  0.00000000000E+00 0. -1.
         23    2    1    2    0    0 -0.20439739233E+02  0.42641754648E+02  0.10657584499E+03  0.17093985342E+03  0.12500368223E+03 0.  0.
          5    1    3    3  502    0  0.17967915328E+02 -0.21611056840E+02 -0.11767932779E+02  0.30829498875E+02  0.47000000000E+01 0.  1.
         -5    1    3    3    0  502 -0.38407654561E+02  0.64252811488E+02  0.11834377777E+03  0.14011035454E+03  0.47000000000E+01 0.  1.
        -11    1    1    2    0    0  0.44632835649E+02 -0.30937104206E+02 -0.83896041264E+01  0.54950704201E+02  0.00000000000E+00 0. -1.
         11    1    1    2    0    0 -0.24193096417E+02 -0.11704650442E+02  0.46711810392E+02  0.53891539097E+02  0.00000000000E+00 0.  1.
<mgrwt>
<rscale>  0 0.12487871E+03</rscale>
<asrwt>0</asrwt>
<pdfrwt beam="2">  1        4 0.10375696E-01 0.13364888E+03</pdfrwt>
<pdfrwt beam="1">  1       -4 0.32667703E-01 0.13364888E+03</pdfrwt>
<totfact> 0.10591841E+03</totfact>
</mgrwt>
</event>
<event>
 7    1  0.4230786E-006  0.1272312E+03  0.7546771E-02  0.1255884E+00
          1   -1    0    0  501    0  0.00000000000E+00  0.00000000000E+00  0.55826077837E+02  0.55826077837E+02  0.00000000000E+00 0. -1.
         -1   -1    0    0    0  501 -0.00000000000E+00 -0.00000000000E+00 -0.19409338208E+03  0.19409338208E+03  0.00000000000E+00 0.  1.
         23    2    1    2    0    0 -0.19631669211E+02  0.24698757693E+02 -0.10576385358E+03  0.16545021526E+03  0.12325725105E+03 0.  0.
          5    1    3    3  502    0 -0.54103630040E+02  0.15695778771E+02 -0.30288611833E+01  0.56611167227E+02  0.47000000000E+01 0. -1.
         -5    1    3    3    0  502  0.34471960829E+02  0.90029789227E+01 -0.10273499240E+03  0.10883904803E+03  0.47000000000E+01 0.  1.
        -11    1    1    2    0    0  0.20575446779E+02 -0.43914767027E+02 -0.40935749826E+02  0.63463307407E+02  0.00000000000E+00 0. -1.
         11    1    1    2    0    0 -0.94377756831E+00  0.19216009334E+02  0.84322991616E+01  0.21005937255E+02  0.00000000000E+00 0.  1.
<mgrwt>
<rscale>  0 0.11256944E+03</rscale>
<asrwt>0</asrwt>
<pdfrwt beam="1">  1        1 0.85886274E-02 0.12723121E+03</pdfrwt>
<pdfrwt beam="2">  1       -1 0.29860520E-01 0.12723121E+03</pdfrwt>
<totfact> 0.76416856E+03</totfact>
</mgrwt>
</event>
<event>
 7    1  0.4230786E-006  0.1257861E+03  0.7546771E-02  0.1252426E+00
         -1   -1    0    0    0  501 -0.00000000000E+00  0.00000000000E+00  0.68208097380E+02  0.68208097380E+02  0.00000000000E+00 0.  1.
          1   -1    0    0  501    0  0.00000000000E+00 -0.00000000000E+00 -0.18166940887E+03  0.18166940887E+03  0.00000000000E+00 0. -1.
         23    2    1    2    0    0  0.13938747685E+02  0.62995991491E+00 -0.29090863436E+02  0.12910625426E+03  0.12500984369E+03 0.  0.
          5    1    3    3  502    0 -0.44446683786E+02  0.34209444512E+01  0.23257009934E+02  0.50499396745E+02  0.47000000000E+01 0. -1.
         -5    1    3    3    0  502  0.58385431471E+02 -0.27909845363E+01 -0.52347873370E+02  0.78606857520E+02  0.47000000000E+01 0. -1.
        -11    1    1    2    0    0 -0.12841277847E+02  0.36313546336E+02 -0.13450130432E+02  0.40798015551E+02  0.00000000000E+00 0.  1.
         11    1    1    2    0    0 -0.10974698382E+01 -0.36943506251E+02 -0.70920317620E+02  0.79973236433E+02  0.00000000000E+00 0. -1.
<mgrwt>
<rscale>  0 0.11451705E+03</rscale>
<asrwt>0</asrwt>
<pdfrwt beam="2">  1        1 0.27949140E-01 0.12578611E+03</pdfrwt>
<pdfrwt beam="1">  1       -1 0.10493554E-01 0.12578611E+03</pdfrwt>
<totfact> 0.88022327E+03</totfact>
</mgrwt>
</event>
<event>
 7    1  0.4230786E-006  0.1400326E+03  0.7546771E-02  0.1223638E+00
          2   -1    0    0  501    0  0.00000000000E+00  0.00000000000E+00  0.44189887225E+03  0.44189887225E+03  0.00000000000E+00 0. -1.
         -2   -1    0    0    0  501 -0.00000000000E+00 -0.00000000000E+00 -0.37365622930E+02  0.37365622930E+02  0.00000000000E+00 0.  1.
         23    2    1    2    0    0  0.63155571364E+02 -0.98424446392E+00  0.17981054025E+03  0.22790559994E+03  0.12497814676E+03 0.  0.
          5    1    3    3  502    0  0.45393369028E+02  0.58986366905E+02  0.11968608376E+03  0.14102055906E+03  0.47000000000E+01 0.  1.
         -5    1    3    3    0  502  0.17762202336E+02 -0.59970611369E+02  0.60124456487E+02  0.86885040874E+02  0.47000000000E+01 0.  1.
        -11    1    1    2    0    0 -0.29521324745E+02  0.17656448111E+02  0.13705156220E+02  0.37028233574E+02  0.00000000000E+00 0.  1.
         11    1    1    2    0    0 -0.33634246619E+02 -0.16672203647E+02  0.21101755285E+03  0.21433066167E+03  0.00000000000E+00 0. -1.
<mgrwt>
<rscale>  0 0.13260688E+03</rscale>
<asrwt>0</asrwt>
<pdfrwt beam="1">  1        2 0.67984438E-01 0.14003261E+03</pdfrwt>
<pdfrwt beam="2">  1       -2 0.57485577E-02 0.14003261E+03</pdfrwt>
<totfact> 0.10755778E+04</totfact>
</mgrwt>
</event>
<event>
 6    1  0.4230786E-006  0.1633757E+03  0.7546771E-02  0.1208375E+00
          2   -1    0    0  501    0  0.00000000000E+00  0.00000000000E+00  0.16786581995E+03  0.16786581995E+03  0.00000000000E+00 0. -1.
         -2   -1    0    0    0  501 -0.00000000000E+00 -0.00000000000E+00 -0.10299434907E+03  0.10299434907E+03  0.00000000000E+00 0.  1.
          5    1    1    2  502    0  0.18983344583E+02 -0.70166568854E+02  0.35159191109E+02  0.80882467048E+02  0.47000000000E+01 0. -1.
         -5    1    1    2    0  502  0.15196522534E+02  0.82425762271E+02 -0.95502864140E+01  0.84488097113E+02  0.47000000000E+01 0.  1.
        -11    1    1    2    0    0  0.22500249373E+02 -0.30881587783E+02  0.16815314123E+02  0.41745520417E+02  0.00000000000E+00 0.  1.
         11    1    1    2    0    0 -0.56680116489E+02  0.18622394365E+02  0.22447252062E+02  0.63744084449E+02  0.00000000000E+00 0. -1.
<mgrwt>
<rscale>  0 0.14374676E+03</rscale>
<asrwt>0</asrwt>
<pdfrwt beam="1">  1        2 0.25825511E-01 0.16337566E+03</pdfrwt>
<pdfrwt beam="2">  1       -2 0.15845284E-01 0.16337566E+03</pdfrwt>
<totfact> 0.62354346E+03</totfact>
</mgrwt>
</event>
<event>
 7    1  0.4230786E-006  0.1305667E+03  0.7546771E-02  0.1239442E+00
         -1   -1    0    0    0  501 -0.00000000000E+00  0.00000000000E+00  0.33314074730E+03  0.33314074730E+03  0.00000000000E+00 0.  1.
          1   -1    0    0  501    0  0.00000000000E+00 -0.00000000000E+00 -0.51350674498E+02  0.51350674498E+02  0.00000000000E+00 0. -1.
         23    2    1    2    0    0  0.37635040299E+02 -0.13704154605E+02  0.24503088962E+03  0.27764689464E+03  0.12427172294E+03 0.  0.
          5    1    3    3  502    0  0.83962897918E+01 -0.60948496786E+02  0.66979549779E+02  0.91069023446E+02  0.47000000000E+01 0. -1.
         -5    1    3    3    0  502  0.29238750507E+02  0.47244342182E+02  0.17805133984E+03  0.18657787119E+03  0.47000000000E+01 0.  1.
        -11    1    1    2    0    0  0.90013922377E+01 -0.24890900687E+02  0.37984273422E+02  0.46296728034E+02  0.00000000000E+00 0. -1.
         11    1    1    2    0    0 -0.46636432536E+02  0.38595055292E+02 -0.12250902426E+01  0.60547799124E+02  0.00000000000E+00 0.  1.
<mgrwt>
<rscale>  0 0.12224283E+03</rscale>
<asrwt>0</asrwt>
<pdfrwt beam="2">  1        1 0.79001040E-02 0.13056669E+03</pdfrwt>
<pdfrwt beam="1">  1       -1 0.51252421E-01 0.13056669E+03</pdfrwt>
<totfact> 0.33306458E+03</totfact>
</mgrwt>
</event>
<event>
 7    1  0.4230786E-006  0.1268667E+03  0.7546771E-02  0.1244953E+00
         -2   -1    0    0    0  501 -0.00000000000E+00  0.00000000000E+00  0.41265649265E+02  0.41265649265E+02  0.00000000000E+00 0.  1.
          2   -1    0    0  501    0  0.00000000000E+00 -0.00000000000E+00 -0.30806305842E+03  0.30806305842E+03  0.00000000000E+00 0. -1.
         23    2    1    2    0    0 -0.14257671344E+02 -0.16324537683E+02 -0.16522300616E+03  0.20831179651E+03  0.12500156430E+03 0.  0.
          5    1    3    3  502    0  0.32030427633E+02 -0.56087677715E+02 -0.97317081645E+02  0.11689516785E+03  0.47000000000E+01 0.  1.
         -5    1    3    3    0  502 -0.46288098977E+02  0.39763140032E+02 -0.67905924520E+02  0.91416628668E+02  0.47000000000E+01 0.  1.
        -11    1    1    2    0    0  0.26730869820E+01 -0.18848849971E+02  0.11357772150E+02  0.22168074509E+02  0.00000000000E+00 0.  1.
         11    1    1    2    0    0  0.11584584362E+02  0.35173387654E+02 -0.11293217514E+03  0.11884883666E+03  0.00000000000E+00 0. -1.
<mgrwt>
<rscale>  0 0.11888190E+03</rscale>
<asrwt>0</asrwt>
<pdfrwt beam="2">  1        2 0.47394318E-01 0.12686671E+03</pdfrwt>
<pdfrwt beam="1">  1       -2 0.63485612E-02 0.12686671E+03</pdfrwt>
<totfact> 0.13484747E+04</totfact>
</mgrwt>
</event>
<event>
 7    1  0.4230786E-006  0.1655233E+03  0.7546771E-02  0.1189541E+00
         -2   -1    0    0    0  501 -0.00000000000E+00  0.00000000000E+00  0.79809718008E+02  0.79809718008E+02  0.00000000000E+00 0.  1.
          2   -1    0    0  501    0  0.00000000000E+00 -0.00000000000E+00 -0.34168753627E+03  0.34168753627E+03  0.00000000000E+00 0. -1.
         23    2    1    2    0    0  0.10301162101E+03 -0.34078786650E+02 -0.62746997176E+02  0.17701738251E+03  0.12500084116E+03 0.  0.
          5    1    3    3  502    0  0.52043058674E+01 -0.21875448275E+02  0.32547297651E+02  0.39837628207E+02  0.47000000000E+01 0. -1.
         -5    1    3    3    0  502  0.97807315143E+02 -0.12203338375E+02 -0.95294294827E+02  0.13717975430E+03  0.47000000000E+01 0. -1.
        -11    1    1    2    0    0 -0.83352136353E+02  0.62755047723E+02 -0.16826830991E+03  0.19798989562E+03  0.00000000000E+00 0.  1.
         11    1    1    2    0    0 -0.19659484657E+02 -0.28676261073E+02 -0.30862511173E+02  0.46489976146E+02  0.00000000000E+00 0. -1.
<mgrwt>
<rscale>  0 0.15925411E+03</rscale>
<asrwt>0</asrwt>
<pdfrwt beam="2">  1        2 0.52567314E-01 0.16552332E+03</pdfrwt>
<pdfrwt beam="1">  1       -2 0.12278418E-01 0.16552332E+03</pdfrwt>
<totfact> 0.43937786E+03</totfact>
</mgrwt>
</event>
<event>
 7    1  0.4230786E-006  0.1364790E+03  0.7546771E-02  0.1230065E+00
         -1   -1    0    0    0  501 -0.00000000000E+00  0.00000000000E+00  0.41197853886E+02  0.41197853886E+02  0.00000000000E+00 0.  1.
          1   -1    0    0  501    0  0.00000000000E+00 -0.00000000000E+00 -0.36628736841E+03  0.36628736841E+03  0.00000000000E+00 0. -1.
         23    2    1    2    0    0 -0.54713405271E+02  0.30702666357E+01 -0.15196247161E+03  0.20425257293E+03  0.12499414993E+03 0.  0.
          5    1    3    3  502    0 -0.72486058279E+02 -0.39567226462E+02 -0.12692992757E+03  0.15150277413E+03  0.47000000000E+01 0. -1.
         -5    1    3    3    0  502  0.17772653008E+02  0.42637493098E+02 -0.25032544039E+02  0.52749798802E+02  0.47000000000E+01 0. -1.
        -11    1    1    2    0    0  0.35422890656E+02  0.15013921792E+02 -0.17254740171E+03  0.17678462848E+03  0.00000000000E+00 0. -1.
         11    1    1    2    0    0  0.19290514615E+02 -0.18084188427E+02 -0.57964120779E+00  0.26448020892E+02  0.00000000000E+00 0.  1.
<mgrwt>
<rscale>  0 0.12825689E+03</rscale>
<asrwt>0</asrwt>
<pdfrwt beam="2">  1        1 0.56351899E-01 0.13647901E+03</pdfrwt>
<pdfrwt beam="1">  1       -1 0.63381318E-02 0.13647901E+03</pdfrwt>
<totfact> 0.79484510E+03</totfact>
</mgrwt>
</event>
<event>
 7    1  0.4230786E-006  0.1280587E+03  0.7546771E-02  0.1242017E+00
          4   -1    0    0  501    0  0.00000000000E+00  0.00000000000E+00  0.19091577290E+03  0.19091577290E+03  0.00000000000E+00 0. -1.
         -4   -1    0    0    0  501 -0.00000000000E+00 -0.00000000000E+00 -0.68666982218E+02  0.68666982218E+02  0.00000000000E+00 0.  1.
         23    2    1    2    0    0  0.11494244826E+02  0.37285596132E+02  0.66949909456E+02  0.14450374759E+03  0.12197011661E+03 0.  0.
          5    1    3    3  502    0 -0.32859379411E+02  0.66777291956E+02  0.40113272974E+02  0.84676503263E+02  0.47000000000E+01 0. -1.
         -5    1    3    3    0  502  0.44353624237E+02 -0.29491695824E+02  0.26836636482E+02  0.59827244322E+02  0.47000000000E+01 0.  1.
        -11    1    1    2    0    0  0.31344795918E+02 -0.34689784574E+02  0.54965464831E+02  0.72160097762E+02  0.00000000000E+00 0.  1.
         11    1    1    2    0    0 -0.42839040744E+02 -0.25958115578E+01  0.33341639521E+00  0.42918909772E+02  0.00000000000E+00 0. -1.
<mgrwt>
<rscale>  0 0.12065719E+03</rscale>
<asrwt>0</asrwt>
<pdfrwt beam="1">  1        4 0.29371657E-01 0.12805875E+03</pdfrwt>
<pdfrwt beam="2">  1       -4 0.10564151E-01 0.12805875E+03</pdfrwt>
<totfact> 0.12454235E+03</totfact>
</mgrwt>
</event>
<event>
 7    1  0.4230786E-006  0.1354673E+03  0.7546771E-02  0.1232022E+00
          2   -1    0    0  501    0  0.00000000000E+00  0.00000000000E+00  0.17525483504E+02  0.17525483504E+02  0.00000000000E+00 0. -1.
         -2   -1    0    0    0  501 -0.00000000000E+00 -0.00000000000E+00 -0.82386909359E+03  0.82386909359E+03  0.00000000000E+00 0.  1.
         23    2    1    2    0    0 -0.97662156032E+00 -0.52191751082E+02 -0.43377323427E+03  0.45443437349E+03  0.12500579334E+03 0.  0.
          5    1    3    3  502    0  0.19025254639E+02  0.37909204743E+02 -0.12169309998E+03  0.12895878683E+03  0.47000000000E+01 0.  1.
         -5    1    3    3    0  502 -0.20001876199E+02 -0.90100955824E+02 -0.31208013429E+03  0.32547558666E+03  0.47000000000E+01 0.  1.
        -11    1    1    2    0    0  0.26494686019E+02  0.67254711411E+02 -0.22102872175E+03  0.23254861950E+03  0.00000000000E+00 0.  1.
         11    1    1    2    0    0 -0.25518064459E+02 -0.15062960329E+02 -0.15154165408E+03  0.15441158411E+03  0.00000000000E+00 0. -1.
<mgrwt>
<rscale>  0 0.12696993E+03</rscale>
<asrwt>0</asrwt>
<pdfrwt beam="1">  1        2 0.26962292E-02 0.13546727E+03</pdfrwt>
<pdfrwt beam="2">  1       -2 0.12674905E+00 0.13546727E+03</pdfrwt>
<totfact> 0.16904861E+03</totfact>
</mgrwt>
</event>
<event>
 7    1  0.4230786E-006  0.1394261E+03  0.7546771E-02  0.1222984E+00
         -2   -1    0    0    0  501 -0.00000000000E+00  0.00000000000E+00  0.13134268983E+03  0.13134268983E+03  0.00000000000E+00 0.  1.
          2   -1    0    0  501    0  0.00000000000E+00 -0.00000000000E+00 -0.12677374108E+03  0.12677374108E+03  0.00000000000E+00 0. -1.
         23    2    1    2    0    0  0.61711740245E+02 -0.16516141253E+01 -0.17030151291E+02  0.14046230361E+03  0.12501426306E+03 0.  0.
          5    1    3    3  502    0  0.29251687379E+02 -0.97982507584E+01 -0.70562713637E+02  0.77154737303E+02  0.47000000000E+01 0. -1.
         -5    1    3    3    0  502  0.32460052865E+02  0.81466366330E+01  0.53532562346E+02  0.63307566308E+02  0.47000000000E+01 0. -1.
        -11    1    1    2    0    0  0.49729084153E+01 -0.37259363930E+02  0.40851308343E+00  0.37591979218E+02  0.00000000000E+00 0.  1.
         11    1    1    2    0    0 -0.66684648660E+02  0.38910978055E+02  0.21190586949E+02  0.80062148081E+02  0.00000000000E+00 0. -1.
<mgrwt>
<rscale>  0 0.13306036E+03</rscale>
<asrwt>0</asrwt>
<pdfrwt beam="2">  1        2 0.19503652E-01 0.13942608E+03</pdfrwt>
<pdfrwt beam="1">  1       -2 0.20206568E-01 0.13942608E+03</pdfrwt>
<totfact> 0.56276351E+03</totfact>
</mgrwt>
</event>
<event>
 7    1  0.4230786E-006  0.1359854E+03  0.7546771E-02  0.1231157E+00
         -2   -1    0    0    0  501 -0.00000000000E+00  0.00000000000E+00  0.34135744334E+03  0.34135744334E+03  0.00000000000E+00 0.  1.
          2   -1    0    0  501    0  0.00000000000E+00 -0.00000000000E+00 -0.48282994139E+02  0.48282994139E+02  0.00000000000E+00 0. -1.
         23    2    1    2    0    0  0.21281306246E+02 -0.49131085863E+02  0.22935044950E+03  0.26663392278E+03  0.12500104997E+03 0.  0.
          5    1    3    3  502    0  0.26101715086E+02 -0.28247678563E+02  0.26104328056E+01  0.38834716866E+02  0.47000000000E+01 0.  1.
         -5    1    3    3    0  502 -0.48204088397E+01 -0.20883407300E+02  0.22674001670E+03  0.22779920591E+03  0.47000000000E+01 0.  1.
        -11    1    1    2    0    0 -0.24464836600E+02  0.70559357007E+02  0.25214991879E+02  0.78822248804E+02  0.00000000000E+00 0. -1.
         11    1    1    2    0    0  0.31835303542E+01 -0.21428271144E+02  0.38509007816E+02  0.44184265895E+02  0.00000000000E+00 0.  1.
<mgrwt>
<rscale>  0 0.12753720E+03</rscale>
<asrwt>0</asrwt>
<pdfrwt beam="2">  1        2 0.74281531E-02 0.13598537E+03</pdfrwt>
<pdfrwt beam="1">  1       -2 0.52516528E-01 0.13598537E+03</pdfrwt>
<totfact> 0.31157429E+03</totfact>
</mgrwt>
</event>
<event>
 7    1  0.4230786E-006  0.1659254E+03  0.7546771E-02  0.1189135E+00
          1   -1    0    0  501    0  0.00000000000E+00  0.00000000000E+00  0.12239796828E+03  0.12239796828E+03  0.00000000000E+00 0. -1.
         -1   -1    0    0    0  501 -0.00000000000E+00 -0.00000000000E+00 -0.20818202343E+03  0.20818202343E+03  0.00000000000E+00 0.  1.
         23    2    1    2    0    0 -0.81577601443E+02  0.72525436848E+02 -0.89356866376E+02  0.18845662668E+03  0.12496562136E+03 0.  0.
          5    1    3    3  502    0 -0.40931135544E+02  0.28543271224E+02  0.27422122899E+02  0.57132644026E+02  0.47000000000E+01 0.  1.
         -5    1    3    3    0  502 -0.40646465899E+02  0.43982165623E+02 -0.11677898928E+03  0.13132398265E+03  0.47000000000E+01 0.  1.
        -11    1    1    2    0    0  0.50898328776E+01 -0.64952904207E+02 -0.49810077516E+00  0.65153927495E+02  0.00000000000E+00 0.  1.
         11    1    1    2    0    0  0.76487768565E+02 -0.75725326411E+01  0.40709120022E+01  0.76969437540E+02  0.00000000000E+00 0. -1.
<mgrwt>
<rscale>  0 0.15961246E+03</rscale>
<asrwt>0</asrwt>
<pdfrwt beam="1">  1        1 0.18830457E-01 0.16592544E+03</pdfrwt>
<pdfrwt beam="2">  1       -1 0.32028003E-01 0.16592544E+03</pdfrwt>
<totfact> 0.24668618E+03</totfact>
</mgrwt>
</event>
<event>
 7    1  0.4230786E-006  0.1259502E+03  0.7546771E-02  0.1248304E+00
          2   -1    0    0  501    0  0.00000000000E+00  0.00000000000E+00  0.38570652029E+03  0.38570652029E+03  0.00000000000E+00 0. -1.
         -2   -1    0    0    0  501 -0.00000000000E+00 -0.00000000000E+00 -0.44164261941E+02  0.44164261941E+02  0.00000000000E+00 0.  1.
         23    2    1    2    0    0 -0.13834749879E+02 -0.66114707941E+01  0.73104837459E+02  0.14562885870E+03  0.12501334079E+03 0.  0.
          5    1    3    3  502    0 -0.34326537365E+02 -0.23520155350E+02  0.99457942885E+02  0.10791423112E+03  0.47000000000E+01 0. -1.
         -5    1    3    3    0  502  0.20491787485E+02  0.16908684556E+02 -0.26353105426E+02  0.37714627578E+02  0.47000000000E+01 0. -1.
        -11    1    1    2    0    0  0.48428030485E+02 -0.13549326646E+02  0.11217276034E+03  0.12292919324E+03  0.00000000000E+00 0.  1.
         11    1    1    2    0    0 -0.34593280606E+02  0.20160797440E+02  0.15626466055E+03  0.16131273029E+03  0.00000000000E+00 0. -1.
<mgrwt>
<rscale>  0 0.11689767E+03</rscale>
<asrwt>0</asrwt>
<pdfrwt beam="1">  1        2 0.59339462E-01 0.12595018E+03</pdfrwt>
<pdfrwt beam="2">  1       -2 0.67945021E-02 0.12595018E+03</pdfrwt>
<totfact> 0.95786037E+03</totfact>
</mgrwt>
</event>
<event>
 7    1  0.4230786E-006  0.2994169E+03  0.7546771E-02  0.1087157E+00
         -2   -1    0    0    0  501 -0.00000000000E+00  0.00000000000E+00  0.26019870987E+03  0.26019870987E+03  0.00000000000E+00 0.  1.
          2   -1    0    0  501    0  0.00000000000E+00 -0.00000000000E+00 -0.33012175029E+03  0.33012175029E+03  0.00000000000E+00 0. -1.
         23    2    1    2    0    0  0.12581774468E+03 -0.24124227540E+03 -0.34775436862E+02  0.30142963380E+03  0.12499021082E+03 0.  0.
          5    1    3    3  502    0 -0.15179103863E+02 -0.78090185621E+02 -0.31578391945E+02  0.85719117600E+02  0.47000000000E+01 0. -1.
         -5    1    3    3    0  502  0.14099684855E+03 -0.16315208978E+03 -0.31970449176E+01  0.21571051620E+03  0.47000000000E+01 0. -1.
        -11    1    1    2    0    0 -0.10141543732E+03  0.24105880097E+03 -0.25932501432E+02  0.26280588099E+03  0.00000000000E+00 0.  1.
         11    1    1    2    0    0 -0.24402307367E+02  0.18347443416E+00 -0.92151021255E+01  0.26084945369E+02  0.00000000000E+00 0. -1.
<mgrwt>
<rscale>  0 0.29619732E+03</rscale>
<asrwt>0</asrwt>
<pdfrwt beam="2">  1        2 0.50787961E-01 0.29941692E+03</pdfrwt>
<pdfrwt beam="1">  1       -2 0.40030571E-01 0.29941692E+03</pdfrwt>
<totfact> 0.58829893E+02</totfact>
</mgrwt>
</event>
<event>
 7    1  0.4230786E-006  0.1260824E+03  0.7546771E-02  0.1240260E+00
         -2   -1    0    0    0  501 -0.00000000000E+00  0.00000000000E+00  0.13388063652E+02  0.13388063652E+02  0.00000000000E+00 0.  1.
          2   -1    0    0  501    0  0.00000000000E+00 -0.00000000000E+00 -0.10471588764E+04  0.10471588764E+04  0.00000000000E+00 0. -1.
         23    2    1    2    0    0 -0.60131165476E+02 -0.25138997458E+01 -0.50067675347E+03  0.51630803576E+03  0.11079124324E+03 0.  0.
          5    1    3    3  502    0 -0.67158114879E+01  0.41770843051E+02 -0.87333308186E+02  0.97155041927E+02  0.47000000000E+01 0. -1.
         -5    1    3    3    0  502 -0.53415353988E+02 -0.44284742797E+02 -0.41334344528E+03  0.41915299384E+03  0.47000000000E+01 0.  1.
        -11    1    1    2    0    0  0.74072091910E+02  0.27863777722E+02 -0.42695850887E+03  0.43423108272E+03  0.00000000000E+00 0. -1.
         11    1    1    2    0    0 -0.13940926434E+02 -0.25349877976E+02 -0.10613555039E+03  0.11000782154E+03  0.00000000000E+00 0.  1.
<mgrwt>
<rscale>  0 0.12173596E+03</rscale>
<asrwt>0</asrwt>
<pdfrwt beam="2">  1        2 0.16110137E+00 0.12608242E+03</pdfrwt>
<pdfrwt beam="1">  1       -2 0.20597020E-02 0.12608242E+03</pdfrwt>
<totfact> 0.17315078E+04</totfact>
</mgrwt>
</event>
<event>
 7    1  0.4230786E-006  0.1499730E+03  0.7546771E-02  0.1206988E+00
          2   -1    0    0  501    0  0.00000000000E+00  0.00000000000E+00  0.27954978807E+02  0.27954978807E+02  0.00000000000E+00 0.  1.
         -2   -1    0    0    0  501 -0.00000000000E+00 -0.00000000000E+00 -0.70392658395E+03  0.70392658395E+03  0.00000000000E+00 0. -1.
         23    2    1    2    0    0  0.76584407508E+02  0.31646090828E+02 -0.34809855361E+03  0.37903101573E+03  0.12500104529E+03 0.  0.
          5    1    3    3  502    0  0.67479017307E+02  0.60995859103E+02 -0.33151005448E+03  0.34379487900E+03  0.47000000000E+01 0.  1.
         -5    1    3    3    0  502  0.91053902008E+01 -0.29349768275E+02 -0.16588499132E+02  0.35236136734E+02  0.47000000000E+01 0.  1.
        -11    1    1    2    0    0 -0.42293211656E+02  0.86124164455E+01 -0.35937914079E+02  0.56164251420E+02  0.00000000000E+00 0.  1.
         11    1    1    2    0    0 -0.34291195853E+02 -0.40258507273E+02 -0.29193513746E+03  0.29668629561E+03  0.00000000000E+00 0. -1.
<mgrwt>
<rscale>  0 0.14481876E+03</rscale>
<asrwt>0</asrwt>
<pdfrwt beam="1">  1        2 0.43007663E-02 0.14997302E+03</pdfrwt>
<pdfrwt beam="2">  1       -2 0.10829639E+00 0.14997302E+03</pdfrwt>
<totfact> 0.13269401E+03</totfact>
</mgrwt>
</event>
<event>
 7    1  0.4230786E-006  0.1572586E+03  0.7546771E-02  0.1199889E+00
         -2   -1    0    0    0  501 -0.00000000000E+00  0.00000000000E+00  0.20684303349E+02  0.20684303349E+02  0.00000000000E+00 0.  1.
          2   -1    0    0  501    0  0.00000000000E+00 -0.00000000000E+00 -0.10953453553E+04  0.10953453553E+04  0.00000000000E+00 0. -1.
         23    2    1    2    0    0 -0.95350192769E+02  0.33509046642E+01 -0.42581190605E+03  0.45392296454E+03  0.12500956194E+03 0.  0.
          5    1    3    3  502    0 -0.10912456170E+03 -0.14640869126E+02 -0.41304459668E+03  0.42749322084E+03  0.47000000000E+01 0. -1.
         -5    1    3    3    0  502  0.13774368928E+02  0.17991773791E+02 -0.12767309370E+02  0.26429743700E+02  0.47000000000E+01 0. -1.
        -11    1    1    2    0    0 -0.63960084420E+01  0.21825932290E+02 -0.63567618086E+02  0.67513867564E+02  0.00000000000E+00 0.  1.
         11    1    1    2    0    0  0.10174620121E+03 -0.25176836954E+02 -0.58528152778E+03  0.59459282651E+03  0.00000000000E+00 0. -1.
<mgrwt>
<rscale>  0 0.15047602E+03</rscale>
<asrwt>0</asrwt>
<pdfrwt beam="2">  1        2 0.16851468E+00 0.15725864E+03</pdfrwt>
<pdfrwt beam="1">  1       -2 0.31822003E-02 0.15725864E+03</pdfrwt>
<totfact> 0.86996273E+03</totfact>
</mgrwt>
</event>
<event>
 7    1  0.4230786E-006  0.1776176E+03  0.7546771E-02  0.1175537E+00
          3   -1    0    0  501    0  0.00000000000E+00  0.00000000000E+00  0.55003709227E+03  0.55003709227E+03  0.00000000000E+00 0. -1.
         -3   -1    0    0    0  501 -0.00000000000E+00 -0.00000000000E+00 -0.53397472309E+02  0.53397472309E+02  0.00000000000E+00 0.  1.
         23    2    1    2    0    0  0.87865026878E+02  0.90548322279E+02  0.19780432718E+03  0.26584691123E+03  0.12501506606E+03 0.  0.
          5    1    3    3  502    0  0.52202595961E+02  0.24559217123E+01  0.15089742532E+03  0.15976002486E+03  0.47000000000E+01 0. -1.
         -5    1    3    3    0  502  0.35662430917E+02  0.88092400567E+02  0.46906901862E+02  0.10608688637E+03  0.47000000000E+01 0. -1.
        -11    1    1    2    0    0 -0.52289909584E+02 -0.61079108083E+02  0.78175306502E+02  0.11214397280E+03  0.00000000000E+00 0.  1.
         11    1    1    2    0    0 -0.35575117294E+02 -0.29469214196E+02  0.22065998628E+03  0.22544368055E+03  0.00000000000E+00 0. -1.
<mgrwt>
<rscale>  0 0.17223447E+03</rscale>
<asrwt>0</asrwt>
<pdfrwt beam="1">  1        3 0.84621087E-01 0.17761765E+03</pdfrwt>
<pdfrwt beam="2">  1       -3 0.82149961E-02 0.17761765E+03</pdfrwt>
<totfact> 0.32463606E+02</totfact>
</mgrwt>
</event>
<event>
 7    1  0.4230786E-006  0.2015509E+03  0.7546771E-02  0.1152665E+00
         -2   -1    0    0    0  501 -0.00000000000E+00  0.00000000000E+00  0.23621562705E+03  0.23621562705E+03  0.00000000000E+00 0.  1.
          2   -1    0    0  501    0  0.00000000000E+00 -0.00000000000E+00 -0.15782326026E+03  0.15782326026E+03  0.00000000000E+00 0. -1.
         23    2    1    2    0    0  0.13679641701E+03  0.79262163541E+02  0.19888821458E+02  0.20252982912E+03  0.12500806449E+03 0.  0.
          5    1    3    3  502    0  0.73853966348E+02  0.40688994065E+02  0.72868358185E+02  0.11154322126E+03  0.47000000000E+01 0.  1.
         -5    1    3    3    0  502  0.62942450667E+02  0.38573169476E+02 -0.52979536727E+02  0.90986607867E+02  0.47000000000E+01 0.  1.
        -11    1    1    2    0    0  0.11116583123E+01  0.13859341649E+02  0.12907022792E+02  0.18971251211E+02  0.00000000000E+00 0.  1.
         11    1    1    2    0    0 -0.13790807533E+03 -0.93121505190E+02  0.45596522544E+02  0.17253780698E+03  0.00000000000E+00 0. -1.
<mgrwt>
<rscale>  0 0.19657012E+03</rscale>
<asrwt>0</asrwt>
<pdfrwt beam="2">  1        2 0.24280502E-01 0.20155090E+03</pdfrwt>
<pdfrwt beam="1">  1       -2 0.36340866E-01 0.20155090E+03</pdfrwt>
<totfact> 0.15751622E+03</totfact>
</mgrwt>
</event>
<event>
 7    1  0.9988296E-006  0.2287696E+03  0.7546771E-02  0.1130728E+00
          1   -1    0    0  501    0  0.00000000000E+00  0.00000000000E+00  0.11352544539E+04  0.11352544539E+04  0.00000000000E+00 0. -1.
         -1   -1    0    0    0  501 -0.00000000000E+00 -0.00000000000E+00 -0.43421153418E+02  0.43421153418E+02  0.00000000000E+00 0.  1.
         23    2    1    2    0    0 -0.13438053195E+03 -0.13657438606E+03  0.48905299075E+03  0.53991515874E+03  0.12499944234E+03 0.  0.
          5    1    3    3  502    0 -0.13660217681E+03 -0.15233222094E+03  0.39988492120E+03  0.44921631810E+03  0.47000000000E+01 0.  1.
         -5    1    3    3    0  502  0.22216448659E+01  0.15757834881E+02  0.89168069550E+02  0.90698840640E+02  0.47000000000E+01 0.  1.
        -11    1    1    2    0    0  0.61270847509E+02  0.74360276834E+02  0.16948590635E+03  0.19495907257E+03  0.00000000000E+00 0.  1.
         11    1    1    2    0    0  0.73109684439E+02  0.62214109225E+02  0.43329440340E+03  0.44380137603E+03  0.00000000000E+00 0. -1.
<mgrwt>
<rscale>  0 0.22428580E+03</rscale>
<asrwt>0</asrwt>
<pdfrwt beam="1">  1        1 0.17465451E+00 0.22876965E+03</pdfrwt>
<pdfrwt beam="2">  1       -1 0.66801783E-02 0.22876965E+03</pdfrwt>
<totfact> 0.14453034E+03</totfact>
</mgrwt>
</event>
<event>
 7    1  0.4230786E-006  0.1703630E+03  0.7546771E-02  0.1184178E+00
         -1   -1    0    0    0  501 -0.00000000000E+00  0.00000000000E+00  0.38157590928E+02  0.38157590928E+02  0.00000000000E+00 0.  1.
          1   -1    0    0  501    0  0.00000000000E+00 -0.00000000000E+00 -0.70378793983E+03  0.70378793983E+03  0.00000000000E+00 0. -1.
         23    2    1    2    0    0 -0.59771138714E+01  0.11559313389E+03 -0.26184047632E+03  0.31238438246E+03  0.12500427542E+03 0.  0.
          5    1    3    3  502    0 -0.30270510119E+02 -0.16952066081E+02 -0.64294094250E+02  0.73208584761E+02  0.47000000000E+01 0.  1.
         -5    1    3    3    0  502  0.24293396248E+02  0.13254519997E+03 -0.19754638207E+03  0.23917579770E+03  0.47000000000E+01 0.  1.
        -11    1    1    2    0    0 -0.34335827453E+02 -0.48336463114E+02 -0.25000087151E+03  0.25693539746E+03  0.00000000000E+00 0. -1.
         11    1    1    2    0    0  0.40312941325E+02 -0.67256670771E+02 -0.15378900107E+03  0.17262575084E+03  0.00000000000E+00 0.  1.
<mgrwt>
<rscale>  0 0.16406919E+03</rscale>
<asrwt>0</asrwt>
<pdfrwt beam="2">  1        1 0.10827507E+00 0.17036305E+03</pdfrwt>
<pdfrwt beam="1">  1       -1 0.58703987E-02 0.17036305E+03</pdfrwt>
<totfact> 0.37959141E+03</totfact>
</mgrwt>
</event>
<event>
 7    1  0.4230786E-006  0.1682793E+03  0.7546771E-02  0.1186241E+00
         -2   -1    0    0    0  501 -0.00000000000E+00  0.00000000000E+00  0.11799467198E+03  0.11799467198E+03  0.00000000000E+00 0.  1.
          2   -1    0    0  501    0  0.00000000000E+00 -0.00000000000E+00 -0.27951348295E+03  0.27951348295E+03  0.00000000000E+00 0. -1.
         23    2    1    2    0    0 -0.65091107681E+02 -0.91957534662E+02  0.14975504614E+02  0.16894428637E+03  0.12499946271E+03 0.  0.
          5    1    3    3  502    0 -0.84021674262E+02 -0.98522365623E+02  0.40874122878E+02  0.13586420498E+03  0.47000000000E+01 0.  1.
         -5    1    3    3    0  502  0.18930566581E+02  0.65648309618E+01 -0.25898618264E+02  0.33080081388E+02  0.47000000000E+01 0.  1.
        -11    1    1    2    0    0  0.85773071082E+00  0.78226502014E+02 -0.11107323612E+03  0.13585795929E+03  0.00000000000E+00 0. -1.
         11    1    1    2    0    0  0.64233376970E+02  0.13731032647E+02 -0.65421079467E+02  0.92705909267E+02  0.00000000000E+00 0.  1.
<mgrwt>
<rscale>  0 0.16219430E+03</rscale>
<asrwt>0</asrwt>
<pdfrwt beam="2">  1        2 0.43002074E-01 0.16827925E+03</pdfrwt>
<pdfrwt beam="1">  1       -2 0.18153027E-01 0.16827925E+03</pdfrwt>
<totfact> 0.28672490E+03</totfact>
</mgrwt>
</event>
<event>
 7    1  0.4230786E-006  0.1336909E+03  0.7546771E-02  0.1234638E+00
         -1   -1    0    0    0  501 -0.00000000000E+00  0.00000000000E+00  0.31559738488E+03  0.31559738488E+03  0.00000000000E+00 0.  1.
          1   -1    0    0  501    0  0.00000000000E+00 -0.00000000000E+00 -0.44806870007E+02  0.44806870007E+02  0.00000000000E+00 0. -1.
         23    2    1    2    0    0  0.47167692805E+02 -0.48698563530E+01  0.16960649816E+03  0.21596205465E+03  0.12499895233E+03 0.  0.
          5    1    3    3  502    0  0.59712463665E+02  0.24406242665E+02  0.17191950723E+03  0.18368355932E+03  0.47000000000E+01 0.  1.
         -5    1    3    3    0  502 -0.12544770860E+02 -0.29276099018E+02 -0.23130090713E+01  0.32278495327E+02  0.47000000000E+01 0.  1.
        -11    1    1    2    0    0 -0.10446888476E+02  0.38254065919E+02  0.10427457423E+02  0.41002962167E+02  0.00000000000E+00 0. -1.
         11    1    1    2    0    0 -0.36720804329E+02 -0.33384209566E+02  0.90756559294E+02  0.10343923808E+03  0.00000000000E+00 0.  1.
<mgrwt>
<rscale>  0 0.12527637E+03</rscale>
<asrwt>0</asrwt>
<pdfrwt beam="2">  1        1 0.68933648E-02 0.13369086E+03</pdfrwt>
<pdfrwt beam="1">  1       -1 0.48553443E-01 0.13369086E+03</pdfrwt>
<totfact> 0.44220621E+03</totfact>
</mgrwt>
</event>
<event>
 7    1  0.4230786E-006  0.1444187E+03  0.7546771E-02  0.1227551E+00
         -1   -1    0    0    0  501 -0.00000000000E+00  0.00000000000E+00  0.12495732649E+03  0.12495732649E+03  0.00000000000E+00 0.  1.
          1   -1    0    0  501    0  0.00000000000E+00 -0.00000000000E+00 -0.11782063773E+03  0.11782063773E+03  0.00000000000E+00 0. -1.
         23    2    1    2    0    0 -0.28726369563E+01 -0.72264359906E+02  0.24738374916E+02  0.14652221608E+03  0.12500553131E+03 0.  0.
          5    1    3    3  502    0 -0.13371264244E+02  0.31473674630E+02 -0.10954273922E+02  0.36214210185E+02  0.47000000000E+01 0.  1.
         -5    1    3    3    0  502  0.10498627288E+02 -0.10373803454E+03  0.35692648838E+02  0.11030800590E+03  0.47000000000E+01 0.  1.
        -11    1    1    2    0    0 -0.43533265831E+01  0.25583950103E+02  0.22458015568E+02  0.34319854582E+02  0.00000000000E+00 0.  1.
         11    1    1    2    0    0  0.72259635394E+01  0.46680409802E+02 -0.40059701720E+02  0.61935893554E+02  0.00000000000E+00 0. -1.
<mgrwt>
<rscale>  0 0.12993555E+03</rscale>
<asrwt>0</asrwt>
<pdfrwt beam="2">  1        1 0.18126252E-01 0.14441874E+03</pdfrwt>
<pdfrwt beam="1">  1       -1 0.19224204E-01 0.14441874E+03</pdfrwt>
<totfact> 0.59655834E+03</totfact>
</mgrwt>
</event>
<event>
 7    1  0.4230786E-006  0.1441402E+03  0.7546771E-02  0.1220039E+00
         -2   -1    0    0    0  501 -0.00000000000E+00  0.00000000000E+00  0.27289140008E+02  0.27289140008E+02  0.00000000000E+00 0.  1.
          2   -1    0    0  501    0  0.00000000000E+00 -0.00000000000E+00 -0.63823234599E+03  0.63823234599E+03  0.00000000000E+00 0. -1.
         23    2    1    2    0    0  0.54979593766E+02 -0.46144130160E+02 -0.25924452792E+03  0.29662117222E+03  0.12499743227E+03 0.  0.
          5    1    3    3  502    0  0.64094670891E+02 -0.55155512960E+02 -0.78859339491E+02  0.11572010574E+03  0.47000000000E+01 0. -1.
         -5    1    3    3    0  502 -0.91150771253E+01  0.90113827997E+01 -0.18038518842E+03  0.18090106648E+03  0.47000000000E+01 0. -1.
        -11    1    1    2    0    0 -0.10453545901E+02  0.51869940787E+02 -0.99079849118E+02  0.11232356779E+03  0.00000000000E+00 0.  1.
         11    1    1    2    0    0 -0.44526047865E+02 -0.57258106263E+01 -0.25261882895E+03  0.25657674600E+03  0.00000000000E+00 0. -1.
<mgrwt>
<rscale>  0 0.13512843E+03</rscale>
<asrwt>0</asrwt>
<pdfrwt beam="2">  1        2 0.98189583E-01 0.14414019E+03</pdfrwt>
<pdfrwt beam="1">  1       -2 0.41983296E-02 0.14414019E+03</pdfrwt>
<totfact> 0.11472740E+04</totfact>
</mgrwt>
</event>
<event>
 7    1  0.4230786E-006  0.1635838E+03  0.7546771E-02  0.1191745E+00
          1   -1    0    0  501    0  0.00000000000E+00  0.00000000000E+00  0.29495285638E+02  0.29495285638E+02  0.00000000000E+00 0. -1.
         -1   -1    0    0    0  501 -0.00000000000E+00 -0.00000000000E+00 -0.78473110836E+03  0.78473110836E+03  0.00000000000E+00 0.  1.
         23    2    1    2    0    0  0.47489869514E+02  0.94229902637E+02 -0.43485932220E+03  0.46460981146E+03  0.12500033818E+03 0.  0.
          5    1    3    3  502    0  0.49430140242E+02  0.11598640164E+03 -0.41798269892E+03  0.43660944874E+03  0.47000000000E+01 0.  1.
         -5    1    3    3    0  502 -0.19402707281E+01 -0.21756499002E+02 -0.16876623273E+02  0.28000362720E+02  0.47000000000E+01 0.  1.
        -11    1    1    2    0    0 -0.63727597385E+02 -0.93299932701E+02 -0.31089660155E+03  0.33079114403E+03  0.00000000000E+00 0.  1.
         11    1    1    2    0    0  0.16237727871E+02 -0.92996993628E+00 -0.94798989680E+01  0.18825438506E+02  0.00000000000E+00 0. -1.
<mgrwt>
<rscale>  0 0.15732990E+03</rscale>
<asrwt>0</asrwt>
<pdfrwt beam="1">  1        1 0.45377367E-02 0.16358376E+03</pdfrwt>
<pdfrwt beam="2">  1       -1 0.12072785E+00 0.16358376E+03</pdfrwt>
<totfact> 0.12243167E+03</totfact>
</mgrwt>
</event>
<event>
 7    1  0.4230786E-006  0.1482472E+03  0.7546771E-02  0.1212390E+00
         -2   -1    0    0    0  501 -0.00000000000E+00  0.00000000000E+00  0.53202264363E+02  0.53202264363E+02  0.00000000000E+00 0.  1.
          2   -1    0    0  501    0  0.00000000000E+00 -0.00000000000E+00 -0.36170164098E+03  0.36170164098E+03  0.00000000000E+00 0. -1.
         23    2    1    2    0    0  0.56124836803E+02  0.56602473284E+02 -0.11741719725E+03  0.18911383875E+03  0.12499363387E+03 0.  0.
          5    1    3    3  502    0  0.67341482340E+02  0.76369147253E+02 -0.42061217999E+02  0.11026494436E+03  0.47000000000E+01 0. -1.
         -5    1    3    3    0  502 -0.11216645536E+02 -0.19766673968E+02 -0.75355979248E+02  0.78848894383E+02  0.47000000000E+01 0. -1.
        -11    1    1    2    0    0 -0.65167689545E+02 -0.60845083356E+01 -0.13333800258E+03  0.14853575979E+03  0.00000000000E+00 0.  1.
         11    1    1    2    0    0  0.90428527420E+01 -0.50517964949E+02 -0.57744176792E+02  0.77254306816E+02  0.00000000000E+00 0. -1.
<mgrwt>
<rscale>  0 0.14069993E+03</rscale>
<asrwt>0</asrwt>
<pdfrwt beam="2">  1        2 0.55646407E-01 0.14824725E+03</pdfrwt>
<pdfrwt beam="1">  1       -2 0.81849636E-02 0.14824725E+03</pdfrwt>
<totfact> 0.77906415E+03</totfact>
</mgrwt>
</event>
<event>
 7    1  0.4230786E-006  0.1534560E+03  0.7546771E-02  0.1204287E+00
         -3   -1    0    0    0  501 -0.00000000000E+00  0.00000000000E+00  0.80423963550E+02  0.80423963550E+02  0.00000000000E+00 0.  1.
          3   -1    0    0  501    0  0.00000000000E+00 -0.00000000000E+00 -0.28982519595E+03  0.28982519595E+03  0.00000000000E+00 0. -1.
         23    2    1    2    0    0 -0.85999332522E+02 -0.22981553992E+02 -0.42357822801E+02  0.15919465790E+03  0.12499886773E+03 0.  0.
          5    1    3    3  502    0 -0.60615843245E+02 -0.73370670978E+02 -0.15534255109E+02  0.96545009678E+02  0.47000000000E+01 0. -1.
         -5    1    3    3    0  502 -0.25383489277E+02  0.50389116986E+02 -0.26823567692E+02  0.62649648221E+02  0.47000000000E+01 0. -1.
        -11    1    1    2    0    0  0.14508308928E+02 -0.28994148973E+02 -0.16250213982E+02  0.36265977956E+02  0.00000000000E+00 0.  1.
         11    1    1    2    0    0  0.71491023593E+02  0.51975702965E+02 -0.15079319562E+03  0.17478852364E+03  0.00000000000E+00 0. -1.
<mgrwt>
<rscale>  0 0.14693788E+03</rscale>
<asrwt>0</asrwt>
<pdfrwt beam="2">  1        3 0.44588491E-01 0.15345603E+03</pdfrwt>
<pdfrwt beam="1">  1       -3 0.12372918E-01 0.15345603E+03</pdfrwt>
<totfact> 0.61067740E+02</totfact>
</mgrwt>
</event>
<event>
 7    1  0.4230786E-006  0.1258150E+03  0.7546771E-02  0.1249117E+00
          1   -1    0    0  501    0  0.00000000000E+00  0.00000000000E+00  0.93291816523E+02  0.93291816523E+02  0.00000000000E+00 0. -1.
         -1   -1    0    0    0  501 -0.00000000000E+00 -0.00000000000E+00 -0.16377010777E+03  0.16377010777E+03  0.00000000000E+00 0.  1.
         23    2    1    2    0    0  0.14104287232E+02  0.80178775255E+00 -0.99445775949E+02  0.16037108802E+03  0.12501939745E+03 0.  0.
          5    1    3    3  502    0 -0.46004455119E+02 -0.21800597177E+02 -0.13311085351E+02  0.52829451268E+02  0.47000000000E+01 0.  1.
         -5    1    3    3    0  502  0.60108742351E+02  0.22602384929E+02 -0.86134690598E+02  0.10754163676E+03  0.47000000000E+01 0.  1.
        -11    1    1    2    0    0 -0.46236012461E+02 -0.47254354560E+01  0.41177536146E+02  0.62094187100E+02  0.00000000000E+00 0. -1.
         11    1    1    2    0    0  0.32131725229E+02  0.39236477035E+01 -0.12210051442E+02  0.34596649169E+02  0.00000000000E+00 0.  1.
<mgrwt>
<rscale>  0 0.11642349E+03</rscale>
<asrwt>0</asrwt>
<pdfrwt beam="1">  1        1 0.14352587E-01 0.12581504E+03</pdfrwt>
<pdfrwt beam="2">  1       -1 0.25195401E-01 0.12581504E+03</pdfrwt>
<totfact> 0.51510097E+03</totfact>
</mgrwt>
</event>
<event>
 6    1  0.4230786E-006  0.1667797E+03  0.7546771E-02  0.1194099E+00
         -2   -1    0    0    0  501 -0.00000000000E+00  0.00000000000E+00  0.52742072371E+02  0.52742072371E+02  0.00000000000E+00 0.  1.
          2   -1    0    0  501    0  0.00000000000E+00 -0.00000000000E+00 -0.62150730676E+03  0.62150730676E+03  0.00000000000E+00 0. -1.
          5    1    1    2  502    0  0.53317222361E+02  0.14522778961E+02 -0.12270955295E+03  0.13466017115E+03  0.47000000000E+01 0. -1.
         -5    1    1    2    0  502 -0.13779569259E+02 -0.64302097861E+02  0.99282777894E+01  0.66673060663E+02  0.47000000000E+01 0.  1.
        -11    1    1    2    0    0 -0.64083313450E+02  0.54572254315E+02 -0.42421241631E+03  0.43248234201E+03  0.00000000000E+00 0. -1.
         11    1    1    2    0    0  0.24545660348E+02 -0.47929354153E+01 -0.31771542924E+02  0.40433805307E+02  0.00000000000E+00 0.  1.
<mgrwt>
<rscale>  0 0.15530755E+03</rscale>
<asrwt>0</asrwt>
<pdfrwt beam="2">  1        2 0.95616514E-01 0.16677966E+03</pdfrwt>
<pdfrwt beam="1">  1       -2 0.81141645E-02 0.16677966E+03</pdfrwt>
<totfact> 0.43794961E+03</totfact>
</mgrwt>
</event>
<event>
 7    1  0.4230786E-006  0.1514626E+03  0.7546771E-02  0.1207694E+00
         -4   -1    0    0    0  501 -0.00000000000E+00  0.00000000000E+00  0.13924638579E+04  0.13924638579E+04  0.00000000000E+00 0.  1.
          4   -1    0    0  501    0  0.00000000000E+00 -0.00000000000E+00 -0.14797670797E+02  0.14797670797E+02  0.00000000000E+00 0. -1.
         23    2    1    2    0    0  0.82116067413E+02  0.23934523983E+02  0.94223802069E+03  0.95433401573E+03  0.12500006393E+03 0.  0.
          5    1    3    3  502    0 -0.33311664841E+02  0.43005291221E+01  0.18501345205E+03  0.18809632906E+03  0.47000000000E+01 0. -1.
         -5    1    3    3    0  502  0.11542773225E+03  0.19633994861E+02  0.75722456864E+03  0.76623768667E+03  0.47000000000E+01 0. -1.
        -11    1    1    2    0    0 -0.66243920374E+02 -0.57386524104E+02  0.30892441150E+03  0.32111643084E+03  0.00000000000E+00 0. -1.
         11    1    1    2    0    0 -0.15872147039E+02  0.33452000121E+02  0.12650375488E+03  0.13181108209E+03  0.00000000000E+00 0.  1.
<mgrwt>
<rscale>  0 0.14427138E+03</rscale>
<asrwt>0</asrwt>
<pdfrwt beam="2">  1        4 0.22765658E-02 0.15146262E+03</pdfrwt>
<pdfrwt beam="1">  1       -4 0.21422511E+00 0.15146262E+03</pdfrwt>
<totfact> 0.16923954E+02</totfact>
</mgrwt>
</event>
<event>
 7    1  0.4230786E-006  0.1365758E+03  0.7546771E-02  0.1228758E+00
          1   -1    0    0  501    0  0.00000000000E+00  0.00000000000E+00  0.50795589412E+02  0.50795589412E+02  0.00000000000E+00 0. -1.
         -1   -1    0    0    0  501 -0.00000000000E+00 -0.00000000000E+00 -0.32058392123E+03  0.32058392123E+03  0.00000000000E+00 0.  1.
         23    2    1    2    0    0 -0.46859920774E+01  0.54823236185E+02 -0.19880341042E+03  0.24119651078E+03  0.12500166028E+03 0.  0.
          5    1    3    3  502    0  0.40530230653E+02 -0.62388219250E+00 -0.14281425862E+02  0.43233528082E+02  0.47000000000E+01 0.  1.
         -5    1    3    3    0  502 -0.45216222731E+02  0.55447118377E+02 -0.18452198456E+03  0.19796298270E+03  0.47000000000E+01 0.  1.
        -11    1    1    2    0    0 -0.24094422585E+02 -0.71086539723E+02 -0.57184019517E+02  0.94360210987E+02  0.00000000000E+00 0.  1.
         11    1    1    2    0    0  0.28780414662E+02  0.16263303538E+02 -0.13800901887E+02  0.35822788878E+02  0.00000000000E+00 0. -1.
<mgrwt>
<rscale>  0 0.12912600E+03</rscale>
<asrwt>0</asrwt>
<pdfrwt beam="1">  1        1 0.78147062E-02 0.13657584E+03</pdfrwt>
<pdfrwt beam="2">  1       -1 0.49320602E-01 0.13657584E+03</pdfrwt>
<totfact> 0.36346947E+03</totfact>
</mgrwt>
</event>
<event>
 7    1  0.4230786E-006  0.1415367E+03  0.7546771E-02  0.1222012E+00
         -1   -1    0    0    0  501 -0.00000000000E+00  0.00000000000E+00  0.11701965276E+03  0.11701965276E+03  0.00000000000E+00 0.  1.
          1   -1    0    0  501    0  0.00000000000E+00 -0.00000000000E+00 -0.14240823346E+03  0.14240823346E+03  0.00000000000E+00 0. -1.
         23    2    1    2    0    0 -0.56651030736E+02  0.34602151852E+02  0.80023686945E+01  0.14176272694E+03  0.12500393854E+03 0.  0.
          5    1    3    3  502    0 -0.88510273745E+02  0.53732771749E+02  0.10739520986E+02  0.10420511806E+03  0.47000000000E+01 0.  1.
         -5    1    3    3    0  502  0.31859243009E+02 -0.19130619896E+02 -0.27371522919E+01  0.37557608888E+02  0.47000000000E+01 0.  1.
        -11    1    1    2    0    0  0.42129310673E+02 -0.65241422943E+02 -0.31179115344E+02  0.83686673486E+02  0.00000000000E+00 0.  1.
         11    1    1    2    0    0  0.14521720063E+02  0.30639271091E+02 -0.22118340459E+01  0.33978485788E+02  0.00000000000E+00 0. -1.
<mgrwt>
<rscale>  0 0.13373833E+03</rscale>
<asrwt>0</asrwt>
<pdfrwt beam="2">  1        1 0.21908959E-01 0.14153668E+03</pdfrwt>
<pdfrwt beam="1">  1       -1 0.18003024E-01 0.14153668E+03</pdfrwt>
<totfact> 0.51975664E+03</totfact>
</mgrwt>
</event>
<event>
 7    1  0.4230786E-006  0.1192784E+03  0.7546771E-02  0.1255681E+00
         -2   -1    0    0    0  501 -0.00000000000E+00  0.00000000000E+00  0.12933268970E+02  0.12933268970E+02  0.00000000000E+00 0.  1.
          2   -1    0    0  501    0  0.00000000000E+00 -0.00000000000E+00 -0.90143743114E+03  0.90143743114E+03  0.00000000000E+00 0. -1.
         23    2    1    2    0    0 -0.13858109902E+02 -0.23157673710E+02 -0.43746323219E+03  0.45343291789E+03  0.11618522472E+03 0.  0.
          5    1    3    3  502    0 -0.57960634825E+02  0.14836247562E+02 -0.24890165297E+03  0.25603451385E+03  0.47000000000E+01 0. -1.
         -5    1    3    3    0  502  0.44102524923E+02 -0.37993921272E+02 -0.18856157922E+03  0.19739840404E+03  0.47000000000E+01 0.  1.
        -11    1    1    2    0    0  0.29824855823E+02  0.52539208465E+02 -0.25450162490E+03  0.26157401921E+03  0.00000000000E+00 0. -1.
         11    1    1    2    0    0 -0.15966745921E+02 -0.29381534755E+02 -0.19653930509E+03  0.19936376301E+03  0.00000000000E+00 0.  1.
<mgrwt>
<rscale>  0 0.11268251E+03</rscale>
<asrwt>0</asrwt>
<pdfrwt beam="2">  1        2 0.13868270E+00 0.11927838E+03</pdfrwt>
<pdfrwt beam="1">  1       -2 0.19897335E-02 0.11927838E+03</pdfrwt>
<totfact> 0.22192237E+04</totfact>
</mgrwt>
</event>
<event>
 6    1  0.4230786E-006  0.2727135E+03  0.7546771E-02  0.1108075E+00
          2   -1    0    0  501    0  0.00000000000E+00  0.00000000000E+00  0.42348050394E+03  0.42348050394E+03  0.00000000000E+00 0. -1.
         -2   -1    0    0    0  501 -0.00000000000E+00 -0.00000000000E+00 -0.17049222230E+03  0.17049222230E+03  0.00000000000E+00 0.  1.
          5    1    1    2  502    0  0.28701201702E+02  0.15989645206E+02  0.38624189782E+02  0.50924903232E+02  0.47000000000E+01 0. -1.
         -5    1    1    2    0  502 -0.54739838087E+02 -0.21480480270E+03 -0.18754402162E+02  0.22251150698E+03  0.47000000000E+01 0.  1.
        -11    1    1    2    0    0 -0.29580733142E+02  0.41300595896E+02  0.36590709285E+02  0.62607020378E+02  0.00000000000E+00 0.  1.
         11    1    1    2    0    0  0.55619369527E+02  0.15751456160E+03  0.19652778473E+03  0.25792929565E+03  0.00000000000E+00 0. -1.
<mgrwt>
<rscale>  0 0.25845497E+03</rscale>
<asrwt>0</asrwt>
<pdfrwt beam="1">  1        2 0.65150846E-01 0.27271352E+03</pdfrwt>
<pdfrwt beam="2">  1       -2 0.26229573E-01 0.27271352E+03</pdfrwt>
<totfact> 0.97963746E+02</totfact>
</mgrwt>
</event>
<event>
 7    1  0.4230786E-006  0.3419372E+03  0.7546771E-02  0.1066956E+00
          2   -1    0    0  501    0  0.00000000000E+00  0.00000000000E+00  0.12510726025E+04  0.12510726025E+04  0.00000000000E+00 0. -1.
         -2   -1    0    0    0  501 -0.00000000000E+00 -0.00000000000E+00 -0.98337566582E+02  0.98337566582E+02  0.00000000000E+00 0.  1.
         23    2    1    2    0    0 -0.12616874558E+03  0.29219217569E+03  0.39893838238E+03  0.52542640504E+03  0.12500501703E+03 0.  0.
          5    1    3    3  502    0 -0.12575441199E+03  0.25727323283E+03  0.39779703314E+03  0.49017166181E+03  0.47000000000E+01 0. -1.
         -5    1    3    3    0  502 -0.41433359574E+00  0.34918942853E+02  0.11413492444E+01  0.35254743233E+02  0.47000000000E+01 0. -1.
        -11    1    1    2    0    0  0.12390983171E+03 -0.17973378707E+03  0.53867181652E+03  0.58122732775E+03  0.00000000000E+00 0.  1.
         11    1    1    2    0    0  0.22589138794E+01 -0.11245838862E+03  0.21512483704E+03  0.24275643632E+03  0.00000000000E+00 0. -1.
<mgrwt>
<rscale>  0 0.33962354E+03</rscale>
<asrwt>0</asrwt>
<pdfrwt beam="1">  1        2 0.19247270E+00 0.34193724E+03</pdfrwt>
<pdfrwt beam="2">  1       -2 0.15128857E-01 0.34193724E+03</pdfrwt>
<totfact> 0.62927657E+02</totfact>
</mgrwt>
</event>
<event>
 6    1  0.4230786E-006  0.2714296E+03  0.7546771E-02  0.1122397E+00
          1   -1    0    0  501    0  0.00000000000E+00  0.00000000000E+00  0.44209301873E+03  0.44209301873E+03  0.00000000000E+00 0. -1.
         -1   -1    0    0    0  501 -0.00000000000E+00 -0.00000000000E+00 -0.11796221412E+03  0.11796221412E+03  0.00000000000E+00 0.  1.
          5    1    1    2  502    0  0.10859792230E+03  0.99025435194E+02  0.45820535000E+01  0.14711434586E+03  0.47000000000E+01 0. -1.
         -5    1    1    2    0  502  0.18369888348E+02 -0.10169274398E+03  0.99665632911E+02  0.14364607673E+03  0.47000000000E+01 0.  1.
        -11    1    1    2    0    0 -0.94807727303E+02  0.35589442490E+02  0.18723912277E+03  0.21286991960E+03  0.00000000000E+00 0. -1.
         11    1    1    2    0    0 -0.32160083350E+02 -0.32922133700E+02  0.32643995418E+02  0.56424890654E+02  0.00000000000E+00 0.  1.
<mgrwt>
<rscale>  0 0.23613209E+03</rscale>
<asrwt>0</asrwt>
<pdfrwt beam="1">  1        1 0.68014310E-01 0.27142963E+03</pdfrwt>
<pdfrwt beam="2">  1       -1 0.18148033E-01 0.27142963E+03</pdfrwt>
<totfact> 0.12571972E+03</totfact>
</mgrwt>
</event>
<event>
 7    1  0.4230786E-006  0.3419309E+03  0.7546771E-02  0.1067132E+00
         -2   -1    0    0    0  501 -0.00000000000E+00  0.00000000000E+00  0.48402358445E+03  0.48402358445E+03  0.00000000000E+00 0.  1.
          2   -1    0    0  501    0  0.00000000000E+00 -0.00000000000E+00 -0.25323669283E+03  0.25323669283E+03  0.00000000000E+00 0. -1.
         23    2    1    2    0    0  0.30633202434E+03  0.86336678819E+02  0.21862298416E+03  0.40584817615E+03  0.12499360639E+03 0.  0.
          5    1    3    3  502    0  0.22440885938E+03  0.11784552529E+03  0.15240584089E+03  0.29579813106E+03  0.47000000000E+01 0. -1.
         -5    1    3    3    0  502  0.81923164958E+02 -0.31508846471E+02  0.66217143270E+02  0.11005004510E+03  0.47000000000E+01 0. -1.
        -11    1    1    2    0    0 -0.10068686732E+03 -0.62903732512E+02 -0.24476321922E+02  0.12121804795E+03  0.00000000000E+00 0. -1.
         11    1    1    2    0    0 -0.20564515702E+03 -0.23432946307E+02  0.36640229393E+02  0.21019405317E+03  0.00000000000E+00 0.  1.
<mgrwt>
<rscale>  0 0.33921314E+03</rscale>
<asrwt>0</asrwt>
<pdfrwt beam="2">  1        2 0.38959491E-01 0.34193089E+03</pdfrwt>
<pdfrwt beam="1">  1       -2 0.74465167E-01 0.34193089E+03</pdfrwt>
<totfact> 0.22007115E+02</totfact>
</mgrwt>
</event>
<event>
 7    1  0.4230786E-006  0.1306430E+03  0.7546771E-02  0.1240142E+00
         -1   -1    0    0    0  501 -0.00000000000E+00  0.00000000000E+00  0.17327087270E+02  0.17327087270E+02  0.00000000000E+00 0.  1.
          1   -1    0    0  501    0  0.00000000000E+00 -0.00000000000E+00 -0.76463076043E+03  0.76463076043E+03  0.00000000000E+00 0. -1.
         23    2    1    2    0    0 -0.97036134616E+01  0.36729802883E+02 -0.45814405871E+03  0.47640695192E+03  0.12499746707E+03 0.  0.
          5    1    3    3  502    0 -0.26911151510E+02  0.71036364634E+02 -0.39575795745E+03  0.40300970963E+03  0.47000000000E+01 0.  1.
         -5    1    3    3    0  502  0.17207538049E+02 -0.34306561751E+02 -0.62386101267E+02  0.73397242293E+02  0.47000000000E+01 0.  1.
        -11    1    1    2    0    0  0.39646858180E+02 -0.94288879258E+01 -0.23160412277E+03  0.23516217165E+03  0.00000000000E+00 0.  1.
         11    1    1    2    0    0 -0.29943244719E+02 -0.27300914957E+02 -0.57555491676E+02  0.70388724124E+02  0.00000000000E+00 0. -1.
<mgrwt>
<rscale>  0 0.12180904E+03</rscale>
<asrwt>0</asrwt>
<pdfrwt beam="2">  1        1 0.11763549E+00 0.13064305E+03</pdfrwt>
<pdfrwt beam="1">  1       -1 0.26657060E-02 0.13064305E+03</pdfrwt>
<totfact> 0.10609389E+04</totfact>
</mgrwt>
</event>
<event>
 7    1  0.4230786E-006  0.1562016E+03  0.7546771E-02  0.1201490E+00
         -2   -1    0    0    0  501 -0.00000000000E+00  0.00000000000E+00  0.13106377205E+03  0.13106377205E+03  0.00000000000E+00 0.  1.
          2   -1    0    0  501    0  0.00000000000E+00 -0.00000000000E+00 -0.17618438010E+03  0.17618438010E+03  0.00000000000E+00 0. -1.
         23    2    1    2    0    0 -0.41775155872E+02 -0.83830340893E+02  0.27184859111E+02  0.15854952382E+03  0.12500498084E+03 0.  0.
          5    1    3    3  502    0 -0.32649419312E+01 -0.36125810733E+02 -0.48683566616E+02  0.60892640815E+02  0.47000000000E+01 0.  1.
         -5    1    3    3    0  502 -0.38510213941E+02 -0.47704530160E+02  0.75868425727E+02  0.97656883003E+02  0.47000000000E+01 0.  1.
        -11    1    1    2    0    0  0.14423237781E+02  0.81219614800E+02 -0.13227924735E+02  0.83544201529E+02  0.00000000000E+00 0.  1.
         11    1    1    2    0    0  0.27351918091E+02  0.26107260935E+01 -0.59077542418E+02  0.65154426804E+02  0.00000000000E+00 0. -1.
<mgrwt>
<rscale>  0 0.14917496E+03</rscale>
<asrwt>0</asrwt>
<pdfrwt beam="2">  1        2 0.27105289E-01 0.15620158E+03</pdfrwt>
<pdfrwt beam="1">  1       -2 0.20163657E-01 0.15620158E+03</pdfrwt>
<totfact> 0.39385331E+03</totfact>
</mgrwt>
</event>
<event>
 7    1  0.4230786E-006  0.1518066E+03  0.7546771E-02  0.1202153E+00
          3   -1    0    0  501    0  0.00000000000E+00  0.00000000000E+00  0.61135618995E+02  0.61135618995E+02  0.00000000000E+00 0. -1.
         -3   -1    0    0    0  501 -0.00000000000E+00 -0.00000000000E+00 -0.39628952371E+03  0.39628952371E+03  0.00000000000E+00 0.  1.
         23    2    1    2    0    0  0.37071713740E+02  0.97598224053E+02 -0.25427961930E+03  0.29614753327E+03  0.11020667570E+03 0.  0.
          5    1    3    3  502    0 -0.93198166189E+01 -0.16905479295E+02 -0.97312480241E+01  0.22123322538E+02  0.47000000000E+01 0. -1.
         -5    1    3    3    0  502  0.46391530359E+02  0.11450370335E+03 -0.24454837128E+03  0.27402421073E+03  0.47000000000E+01 0.  1.
        -11    1    1    2    0    0  0.31045525645E+02 -0.25055070767E+02 -0.20047666785E+02  0.44648518197E+02  0.00000000000E+00 0.  1.
         11    1    1    2    0    0 -0.68117239385E+02 -0.72543153286E+02 -0.60826618621E+02  0.11662909124E+03  0.00000000000E+00 0. -1.
<mgrwt>
<rscale>  0 0.14864085E+03</rscale>
<asrwt>0</asrwt>
<pdfrwt beam="1">  1        3 0.94054799E-02 0.15180658E+03</pdfrwt>
<pdfrwt beam="2">  1       -3 0.60967619E-01 0.15180658E+03</pdfrwt>
<totfact> 0.51239982E+02</totfact>
</mgrwt>
</event>
<event>
 7    1  0.4230786E-006  0.1325853E+03  0.7546771E-02  0.1235556E+00
          2   -1    0    0  501    0  0.00000000000E+00  0.00000000000E+00  0.93717588102E+03  0.93717588102E+03  0.00000000000E+00 0. -1.
         -2   -1    0    0    0  501 -0.00000000000E+00 -0.00000000000E+00 -0.15205166569E+02  0.15205166569E+02  0.00000000000E+00 0.  1.
         23    2    1    2    0    0 -0.38058333904E+02 -0.22530237316E+02  0.44862390892E+03  0.46780580028E+03  0.12499122668E+03 0.  0.
          5    1    3    3  502    0  0.13983644824E+01  0.45901757207E+02  0.24569212752E+03  0.24999127638E+03  0.47000000000E+01 0.  1.
         -5    1    3    3    0  502 -0.39456698386E+02 -0.68431994523E+02  0.20293178139E+03  0.21781452390E+03  0.47000000000E+01 0.  1.
        -11    1    1    2    0    0  0.69571599187E+02  0.16824939672E+02  0.33707134605E+03  0.34458725794E+03  0.00000000000E+00 0. -1.
         11    1    1    2    0    0 -0.31513265283E+02  0.57052976442E+01  0.13627545948E+03  0.13998798936E+03  0.00000000000E+00 0.  1.
<mgrwt>
<rscale>  0 0.12468887E+03</rscale>
<asrwt>0</asrwt>
<pdfrwt beam="1">  1        2 0.14418086E+00 0.13258527E+03</pdfrwt>
<pdfrwt beam="2">  1       -2 0.23392571E-02 0.13258527E+03</pdfrwt>
<totfact> 0.16806172E+04</totfact>
</mgrwt>
</event>
<event>
 7    1  0.4230786E-006  0.1369768E+03  0.7546771E-02  0.1229833E+00
         -2   -1    0    0    0  501 -0.00000000000E+00  0.00000000000E+00  0.42077177880E+02  0.42077177880E+02  0.00000000000E+00 0. -1.
          2   -1    0    0  501    0  0.00000000000E+00 -0.00000000000E+00 -0.37273793205E+03  0.37273793205E+03  0.00000000000E+00 0.  1.
         23    2    1    2    0    0 -0.33024041184E+02 -0.45255539585E+02 -0.13465462480E+03  0.19207940860E+03  0.12499592022E+03 0.  0.
          5    1    3    3  502    0  0.27803413733E+02 -0.44339410007E+02 -0.10277109493E+02  0.53541778776E+02  0.47000000000E+01 0.  1.
         -5    1    3    3    0  502 -0.60827454917E+02 -0.91612957877E+00 -0.12437751530E+03  0.13853762983E+03  0.47000000000E+01 0.  1.
        -11    1    1    2    0    0  0.39437604882E+02  0.69525792511E+02 -0.15982700114E+03  0.17870039395E+03  0.00000000000E+00 0.  1.
         11    1    1    2    0    0 -0.64135636985E+01 -0.24270252926E+02 -0.36179128232E+02  0.44035307380E+02  0.00000000000E+00 0. -1.
<mgrwt>
<rscale>  0 0.12841106E+03</rscale>
<asrwt>0</asrwt>
<pdfrwt beam="2">  1        2 0.57344295E-01 0.13697675E+03</pdfrwt>
<pdfrwt beam="1">  1       -2 0.64734122E-02 0.13697675E+03</pdfrwt>
<totfact> 0.10760427E+04</totfact>
</mgrwt>
</event>
<event>
 7    1  0.4230786E-006  0.1312358E+03  0.7546771E-02  0.1239050E+00
         -1   -1    0    0    0  501 -0.00000000000E+00  0.00000000000E+00  0.24119375251E+02  0.24119375251E+02  0.00000000000E+00 0.  1.
          1   -1    0    0  501    0  0.00000000000E+00 -0.00000000000E+00 -0.55338105842E+03  0.55338105842E+03  0.00000000000E+00 0. -1.
         23    2    1    2    0    0  0.29390098357E+00  0.39933090233E+02 -0.28787664794E+03  0.31637919037E+03  0.12501235777E+03 0.  0.
          5    1    3    3  502    0 -0.36077761487E+02  0.57993524450E+01 -0.16415701986E+02  0.40333641472E+02  0.47000000000E+01 0.  1.
         -5    1    3    3    0  502  0.36371662470E+02  0.34133737788E+02 -0.27146094596E+03  0.27604554890E+03  0.47000000000E+01 0.  1.
        -11    1    1    2    0    0 -0.37836798693E+02 -0.47628841414E+02 -0.13597701332E+03  0.14896267325E+03  0.00000000000E+00 0.  1.
         11    1    1    2    0    0  0.37542897709E+02  0.76957511801E+01 -0.10540802191E+03  0.11215857006E+03  0.00000000000E+00 0. -1.
<mgrwt>
<rscale>  0 0.12248695E+03</rscale>
<asrwt>0</asrwt>
<pdfrwt beam="2">  1        1 0.85135539E-01 0.13123577E+03</pdfrwt>
<pdfrwt beam="1">  1       -1 0.37106735E-02 0.13123577E+03</pdfrwt>
<totfact> 0.10295222E+04</totfact>
</mgrwt>
</event>
<event>
 7    1  0.4230786E-006  0.1453616E+03  0.7546771E-02  0.1215953E+00
         -1   -1    0    0    0  501 -0.00000000000E+00  0.00000000000E+00  0.86433258438E+02  0.86433258438E+02  0.00000000000E+00 0.  1.
          1   -1    0    0  501    0  0.00000000000E+00 -0.00000000000E+00 -0.20129668202E+03  0.20129668202E+03  0.00000000000E+00 0. -1.
         23    2    1    2    0    0  0.60859326770E+02 -0.42438642161E+02 -0.67931742559E+02  0.16045162382E+03  0.12500042375E+03 0.  0.
          5    1    3    3  502    0  0.82393574832E+02  0.12516992519E+02 -0.24412936940E+02  0.86968142244E+02  0.47000000000E+01 0. -1.
         -5    1    3    3    0  502 -0.21534248061E+02 -0.54955634680E+02 -0.43518805619E+02  0.73483481581E+02  0.47000000000E+01 0. -1.
        -11    1    1    2    0    0 -0.59216067662E+02  0.68946664269E+02 -0.42578930813E+02  0.10036508622E+03  0.00000000000E+00 0.  1.
         11    1    1    2    0    0 -0.16432591081E+01 -0.26508022108E+02 -0.43527502062E+01  0.26913230407E+02  0.00000000000E+00 0. -1.
<mgrwt>
<rscale>  0 0.13806781E+03</rscale>
<asrwt>0</asrwt>
<pdfrwt beam="2">  1        1 0.30968720E-01 0.14536162E+03</pdfrwt>
<pdfrwt beam="1">  1       -1 0.13297424E-01 0.14536162E+03</pdfrwt>
<totfact> 0.54318299E+03</totfact>
</mgrwt>
</event>
<event>
 7    1  0.4230786E-006  0.1992993E+03  0.7546771E-02  0.1154734E+00
         -2   -1    0    0    0  501 -0.00000000000E+00  0.00000000000E+00  0.12575649712E+03  0.12575649712E+03  0.00000000000E+00 0. -1.
          2   -1    0    0  501    0  0.00000000000E+00 -0.00000000000E+00 -0.30774247101E+03  0.30774247101E+03  0.00000000000E+00 0.  1.
         23    2    1    2    0    0 -0.50490414721E+02 -0.14678952875E+03 -0.37126075949E+02  0.20272782183E+03  0.12499510590E+03 0.  0.
          5    1    3    3  502    0 -0.57381184368E+02 -0.58769876106E+01 -0.60453502914E+01  0.58187417566E+02  0.47000000000E+01 0. -1.
         -5    1    3    3    0  502  0.68907696472E+01 -0.14091254114E+03 -0.31080725657E+02  0.14454040426E+03  0.47000000000E+01 0. -1.
        -11    1    1    2    0    0  0.29073075823E+02  0.46163960892E+01 -0.43870998838E+01  0.29762417510E+02  0.00000000000E+00 0.  1.
         11    1    1    2    0    0  0.21417338898E+02  0.14217313266E+03 -0.14047279806E+03  0.20100872879E+03  0.00000000000E+00 0. -1.
<mgrwt>
<rscale>  0 0.19419177E+03</rscale>
<asrwt>0</asrwt>
<pdfrwt beam="2">  1        2 0.47344995E-01 0.19929933E+03</pdfrwt>
<pdfrwt beam="1">  1       -2 0.19347154E-01 0.19929933E+03</pdfrwt>
<totfact> 0.23374129E+03</totfact>
</mgrwt>
</event>
<event>
 7    1  0.4230786E-006  0.1425125E+03  0.7546771E-02  0.1218079E+00
         -1   -1    0    0    0  501 -0.00000000000E+00  0.00000000000E+00  0.15537598525E+03  0.15537598525E+03  0.00000000000E+00 0.  1.
          1   -1    0    0  501    0  0.00000000000E+00 -0.00000000000E+00 -0.11346012623E+03  0.11346012623E+03  0.00000000000E+00 0. -1.
         23    2    1    2    0    0 -0.50017956587E+02  0.46729717317E+02  0.42775939027E+02  0.14879379375E+03  0.12499739852E+03 0.  0.
          5    1    3    3  502    0 -0.83637416599E+02  0.56933954507E+02  0.49468640306E+02  0.11272057933E+03  0.47000000000E+01 0. -1.
         -5    1    3    3    0  502  0.33619460012E+02 -0.10204237190E+02 -0.66927012785E+01  0.36073214419E+02  0.47000000000E+01 0. -1.
        -11    1    1    2    0    0  0.25888174073E+02  0.28152197015E+02 -0.13089653784E+02  0.40423789899E+02  0.00000000000E+00 0. -1.
         11    1    1    2    0    0  0.24129782514E+02 -0.74881914332E+02  0.12229573774E+02  0.79618527824E+02  0.00000000000E+00 0.  1.
<mgrwt>
<rscale>  0 0.13652762E+03</rscale>
<asrwt>0</asrwt>
<pdfrwt beam="2">  1        1 0.17455404E-01 0.14251250E+03</pdfrwt>
<pdfrwt beam="1">  1       -1 0.23903998E-01 0.14251250E+03</pdfrwt>
<totfact> 0.43966264E+03</totfact>
</mgrwt>
</event>
<event>
 7    1  0.4230786E-006  0.1593609E+03  0.7546771E-02  0.1198426E+00
         -2   -1    0    0    0  501 -0.00000000000E+00  0.00000000000E+00  0.15305370452E+03  0.15305370452E+03  0.00000000000E+00 0. -1.
          2   -1    0    0  501    0  0.00000000000E+00 -0.00000000000E+00 -0.23469456927E+03  0.23469456927E+03  0.00000000000E+00 0.  1.
         23    2    1    2    0    0  0.11408343755E+02 -0.98187445654E+02  0.81229797535E+02  0.17886916777E+03  0.12499989752E+03 0.  0.
          5    1    3    3  502    0 -0.33819651846E+02 -0.40376257453E+02 -0.17549393525E+02  0.55714291075E+02  0.47000000000E+01 0. -1.
         -5    1    3    3    0  502  0.45227995601E+02 -0.57811188201E+02  0.98779191060E+02  0.12315487670E+03  0.47000000000E+01 0. -1.
        -11    1    1    2    0    0  0.36098900647E+01  0.80550287992E+02 -0.16690924346E+03  0.18536471011E+03  0.00000000000E+00 0.  1.
         11    1    1    2    0    0 -0.15018233819E+02  0.17637157662E+02  0.40385811686E+01  0.23514395916E+02  0.00000000000E+00 0. -1.
<mgrwt>
<rscale>  0 0.15167793E+03</rscale>
<asrwt>0</asrwt>
<pdfrwt beam="2">  1        2 0.36106857E-01 0.15936091E+03</pdfrwt>
<pdfrwt beam="1">  1       -2 0.23546724E-01 0.15936091E+03</pdfrwt>
<totfact> 0.22126351E+03</totfact>
</mgrwt>
</event>
<event>
 7    1  0.4230786E-006  0.1320007E+03  0.7546771E-02  0.1237790E+00
          1   -1    0    0  501    0  0.00000000000E+00  0.00000000000E+00  0.32769103725E+02  0.32769103725E+02  0.00000000000E+00 0. -1.
         -1   -1    0    0    0  501 -0.00000000000E+00 -0.00000000000E+00 -0.54917308289E+03  0.54917308289E+03  0.00000000000E+00 0.  1.
         23    2    1    2    0    0  0.39535111188E+02 -0.12229252798E+02 -0.42890307733E+03  0.44875610017E+03  0.12534595348E+03 0.  0.
          5    1    3    3  502    0  0.43812851768E+02 -0.31258107385E+02 -0.42487200704E+03  0.42829306278E+03  0.47000000000E+01 0.  1.
         -5    1    3    3    0  502 -0.42777405805E+01  0.19028854588E+02 -0.40310702872E+01  0.20463037386E+02  0.47000000000E+01 0.  1.
        -11    1    1    2    0    0  0.62737162034E+01  0.43830532190E+02 -0.32349479237E+02  0.54835790082E+02  0.00000000000E+00 0.  1.
         11    1    1    2    0    0 -0.45808827391E+02 -0.31601279392E+02 -0.55151422602E+02  0.78350296369E+02  0.00000000000E+00 0. -1.
<mgrwt>
<rscale>  0 0.12327534E+03</rscale>
<asrwt>0</asrwt>
<pdfrwt beam="1">  1        1 0.50414010E-02 0.13200071E+03</pdfrwt>
<pdfrwt beam="2">  1       -1 0.84488159E-01 0.13200071E+03</pdfrwt>
<totfact> 0.23148252E+03</totfact>
</mgrwt>
</event>
<event>
 7    1  0.4230786E-006  0.1158655E+03  0.7546771E-02  0.1258670E+00
         -2   -1    0    0    0  501 -0.00000000000E+00  0.00000000000E+00  0.46497537147E+02  0.46497537147E+02  0.00000000000E+00 0.  1.
          2   -1    0    0  501    0  0.00000000000E+00 -0.00000000000E+00 -0.25451362481E+03  0.25451362481E+03  0.00000000000E+00 0. -1.
         23    2    1    2    0    0 -0.18814723087E+02  0.26716239091E+02 -0.83915555863E+02  0.14306163883E+03  0.11116231715E+03 0.  0.
          5    1    3    3  502    0 -0.47734265428E+02 -0.94863373454E+00  0.21575230872E+01  0.48022962298E+02  0.47000000000E+01 0. -1.
         -5    1    3    3    0  502  0.28919542341E+02  0.27664872825E+02 -0.86073078950E+02  0.95038676535E+02  0.47000000000E+01 0.  1.
        -11    1    1    2    0    0 -0.17700831514E+02  0.34533922152E+00  0.71188274834E+01  0.19081834299E+02  0.00000000000E+00 0.  1.
         11    1    1    2    0    0  0.36515554602E+02 -0.27061578312E+02 -0.13121935929E+03  0.13886768883E+03  0.00000000000E+00 0. -1.
<mgrwt>
<rscale>  0 0.11103236E+03</rscale>
<asrwt>0</asrwt>
<pdfrwt beam="2">  1        2 0.39155943E-01 0.11586549E+03</pdfrwt>
<pdfrwt beam="1">  1       -2 0.71534672E-02 0.11586549E+03</pdfrwt>
<totfact> 0.13650148E+04</totfact>
</mgrwt>
</event>
<event>
 7    1  0.4230786E-006  0.2483971E+03  0.7546771E-02  0.1116782E+00
          2   -1    0    0  501    0  0.00000000000E+00  0.00000000000E+00  0.25099311999E+03  0.25099311999E+03  0.00000000000E+00 0. -1.
         -2   -1    0    0    0  501 -0.00000000000E+00 -0.00000000000E+00 -0.49311721007E+03  0.49311721007E+03  0.00000000000E+00 0.  1.
         23    2    1    2    0    0 -0.21157650568E+03 -0.36240659636E+02 -0.39387961042E+03  0.46566325502E+03  0.12499246540E+03 0.  0.
          5    1    3    3  502    0 -0.90407767554E+02 -0.57920297108E+02 -0.27161495480E+03  0.29210460270E+03  0.47000000000E+01 0.  1.
         -5    1    3    3    0  502 -0.12116873812E+03  0.21679637472E+02 -0.12226465562E+03  0.17355865232E+03  0.47000000000E+01 0.  1.
        -11    1    1    2    0    0  0.84720748812E+02  0.67125680805E+01  0.11522086254E+03  0.14317301078E+03  0.00000000000E+00 0. -1.
         11    1    1    2    0    0  0.12685575687E+03  0.29528091556E+02  0.36534657793E+02  0.13527406426E+03  0.00000000000E+00 0.  1.
<mgrwt>
<rscale>  0 0.24457523E+03</rscale>
<asrwt>0</asrwt>
<pdfrwt beam="1">  1        2 0.38614326E-01 0.24839710E+03</pdfrwt>
<pdfrwt beam="2">  1       -2 0.75864186E-01 0.24839710E+03</pdfrwt>
<totfact> 0.21428514E+02</totfact>
</mgrwt>
</event>
<event>
 7    1  0.4230786E-006  0.3702005E+03  0.7546771E-02  0.1055604E+00
         -1   -1    0    0    0  501 -0.00000000000E+00  0.00000000000E+00  0.12208326408E+04  0.12208326408E+04  0.00000000000E+00 0.  1.
          1   -1    0    0  501    0  0.00000000000E+00 -0.00000000000E+00 -0.11015637435E+03  0.11015637435E+03  0.00000000000E+00 0. -1.
         23    2    1    2    0    0  0.32437472852E+03 -0.12728942942E+03  0.62531842002E+03  0.72668531591E+03  0.12500743413E+03 0.  0.
          5    1    3    3  502    0  0.10511585009E+03  0.14788570659E+02  0.14333550831E+03  0.17842421838E+03  0.47000000000E+01 0.  1.
         -5    1    3    3    0  502  0.21925887843E+03 -0.14207800008E+03  0.48198291171E+03  0.54826109752E+03  0.47000000000E+01 0.  1.
        -11    1    1    2    0    0 -0.19862446947E+03  0.30525729295E+02  0.28507739818E+03  0.34878736069E+03  0.00000000000E+00 0.  1.
         11    1    1    2    0    0 -0.12575025905E+03  0.96763700130E+02  0.20028044820E+03  0.25551633851E+03  0.00000000000E+00 0. -1.
<mgrwt>
<rscale>  0 0.36762741E+03</rscale>
<asrwt>0</asrwt>
<pdfrwt beam="2">  1        1 0.16947135E-01 0.37020052E+03</pdfrwt>
<pdfrwt beam="1">  1       -1 0.18782040E+00 0.37020052E+03</pdfrwt>
<totfact> 0.63376544E+01</totfact>
</mgrwt>
</event>
<event>
 7    1  0.4230786E-006  0.1342692E+03  0.7546771E-02  0.1232944E+00
          1   -1    0    0  501    0  0.00000000000E+00  0.00000000000E+00  0.64858138909E+02  0.64858138909E+02  0.00000000000E+00 0. -1.
         -1   -1    0    0    0  501 -0.00000000000E+00 -0.00000000000E+00 -0.27072521689E+03  0.27072521689E+03  0.00000000000E+00 0.  1.
         23    2    1    2    0    0  0.20850682769E+02  0.44391982601E+02 -0.18433735293E+03  0.22805366252E+03  0.12499125655E+03 0.  0.
          5    1    3    3  502    0 -0.20880405163E+02  0.69220155963E+02 -0.15507319990E+03  0.17116427384E+03  0.47000000000E+01 0.  1.
         -5    1    3    3    0  502  0.41731087932E+02 -0.24828173362E+02 -0.29264153034E+02  0.56889388688E+02  0.47000000000E+01 0.  1.
        -11    1    1    2    0    0  0.33170661046E+02 -0.34191905217E+02  0.21145387194E+01  0.47684907577E+02  0.00000000000E+00 0.  1.
         11    1    1    2    0    0 -0.54021343815E+02 -0.10200077384E+02 -0.23644263769E+02  0.59844785699E+02  0.00000000000E+00 0. -1.
<mgrwt>
<rscale>  0 0.12636979E+03</rscale>
<asrwt>0</asrwt>
<pdfrwt beam="1">  1        1 0.99781750E-02 0.13426918E+03</pdfrwt>
<pdfrwt beam="2">  1       -1 0.41650034E-01 0.13426918E+03</pdfrwt>
<totfact> 0.35479649E+03</totfact>
</mgrwt>
</event>
<event>
 7    1  0.4230786E-006  0.1304774E+03  0.7546771E-02  0.1240283E+00
          2   -1    0    0  501    0  0.00000000000E+00  0.00000000000E+00  0.74467604045E+02  0.74467604045E+02  0.00000000000E+00 0. -1.
         -2   -1    0    0    0  501 -0.00000000000E+00 -0.00000000000E+00 -0.18546302037E+03  0.18546302037E+03  0.00000000000E+00 0.  1.
         23    2    1    2    0    0  0.36553512820E+02 -0.81296383570E+01 -0.91070556151E+02  0.15911691643E+03  0.12498838577E+03 0.  0.
          5    1    3    3  502    0 -0.38845514730E+02 -0.24573414852E+02 -0.10363375223E+02  0.47353102096E+02  0.47000000000E+01 0. -1.
         -5    1    3    3    0  502  0.75399027549E+02  0.16443776495E+02 -0.80707180928E+02  0.11176381433E+03  0.47000000000E+01 0. -1.
        -11    1    1    2    0    0 -0.96026385706E+00 -0.15000122111E+02  0.31039303221E+02  0.34487158690E+02  0.00000000000E+00 0. -1.
         11    1    1    2    0    0 -0.35593248962E+02  0.23129760468E+02 -0.50964163394E+02  0.66326549296E+02  0.00000000000E+00 0.  1.
<mgrwt>
<rscale>  0 0.12172177E+03</rscale>
<asrwt>0</asrwt>
<pdfrwt beam="1">  1        2 0.11456555E-01 0.13047738E+03</pdfrwt>
<pdfrwt beam="2">  1       -2 0.28532772E-01 0.13047738E+03</pdfrwt>
<totfact> 0.57369443E+03</totfact>
</mgrwt>
</event>
<event>
 7    1  0.4230786E-006  0.2905009E+03  0.7546771E-02  0.1091931E+00
         -1   -1    0    0    0  501 -0.00000000000E+00  0.00000000000E+00  0.16809220794E+03  0.16809220794E+03  0.00000000000E+00 0.  1.
          1   -1    0    0  501    0  0.00000000000E+00 -0.00000000000E+00 -0.64342318370E+03  0.64342318370E+03  0.00000000000E+00 0. -1.
         23    2    1    2    0    0  0.26195751463E+03 -0.12165228281E+02 -0.36579633348E+02  0.29279488059E+03  0.12498416010E+03 0.  0.
          5    1    3    3  502    0  0.26519734438E+03  0.35208373286E+01 -0.51721722457E+02  0.27025775536E+03  0.47000000000E+01 0.  1.
         -5    1    3    3    0  502 -0.32398297481E+01 -0.15686065609E+02  0.15142089108E+02  0.22537125231E+02  0.47000000000E+01 0.  1.
        -11    1    1    2    0    0 -0.98836190933E+02  0.11022383512E+02 -0.91832525125E+02  0.13536357799E+03  0.00000000000E+00 0. -1.
         11    1    1    2    0    0 -0.16312132369E+03  0.11428447682E+01 -0.34691881728E+03  0.38335693306E+03  0.00000000000E+00 0.  1.
<mgrwt>
<rscale>  0 0.28698995E+03</rscale>
<asrwt>0</asrwt>
<pdfrwt beam="2">  1        1 0.98988182E-01 0.29050090E+03</pdfrwt>
<pdfrwt beam="1">  1       -1 0.25860340E-01 0.29050090E+03</pdfrwt>
<totfact> 0.42113279E+02</totfact>
</mgrwt>
</event>
<event>
 7    1  0.4230786E-006  0.1431095E+03  0.7546771E-02  0.1219398E+00
          2   -1    0    0  501    0  0.00000000000E+00  0.00000000000E+00  0.42777933450E+03  0.42777933450E+03  0.00000000000E+00 0. -1.
         -2   -1    0    0    0  501 -0.00000000000E+00 -0.00000000000E+00 -0.39226615458E+02  0.39226615458E+02  0.00000000000E+00 0.  1.
         23    2    1    2    0    0  0.62824586454E+02 -0.30149303643E+02  0.23175774239E+03  0.27238204722E+03  0.12499767726E+03 0.  0.
          5    1    3    3  502    0  0.65775524196E+02  0.19978873202E+02  0.53810222646E+02  0.87425425472E+02  0.47000000000E+01 0.  1.
         -5    1    3    3    0  502 -0.29509377425E+01 -0.50128176845E+02  0.17794751974E+03  0.18495662175E+03  0.47000000000E+01 0.  1.
        -11    1    1    2    0    0 -0.25817246296E+02 -0.18677736144E+00 -0.46528319747E+01  0.26233831925E+02  0.00000000000E+00 0.  1.
         11    1    1    2    0    0 -0.37007340157E+02  0.30336081005E+02  0.16144780863E+03  0.16839007081E+03  0.00000000000E+00 0. -1.
<mgrwt>
<rscale>  0 0.13558370E+03</rscale>
<asrwt>0</asrwt>
<pdfrwt beam="1">  1        2 0.65812202E-01 0.14310950E+03</pdfrwt>
<pdfrwt beam="2">  1       -2 0.60348642E-02 0.14310950E+03</pdfrwt>
<totfact> 0.10363875E+04</totfact>
</mgrwt>
</event>
<event>
 7    1  0.4230786E-006  0.1485349E+03  0.7546771E-02  0.1207252E+00
          2   -1    0    0  501    0  0.00000000000E+00  0.00000000000E+00  0.75243184352E+03  0.75243184352E+03  0.00000000000E+00 0. -1.
         -2   -1    0    0    0  501 -0.00000000000E+00 -0.00000000000E+00 -0.31567461210E+02  0.31567461210E+02  0.00000000000E+00 0.  1.
         23    2    1    2    0    0  0.55894780957E+02  0.79289445601E+02  0.21847701279E+03  0.26418711187E+03  0.11247925248E+03 0.  0.
          5    1    3    3  502    0 -0.20699487059E+02  0.17260793265E+02  0.12605715847E+03  0.12899186389E+03  0.47000000000E+01 0. -1.
         -5    1    3    3    0  502  0.76594268015E+02  0.62028652336E+02  0.92419854322E+02  0.13519524798E+03  0.47000000000E+01 0.  1.
        -11    1    1    2    0    0  0.22857383960E+02 -0.38464157092E+02  0.16517533865E+03  0.17112815046E+03  0.00000000000E+00 0.  1.
         11    1    1    2    0    0 -0.78752164917E+02 -0.40825288508E+02  0.33721203087E+03  0.34868404240E+03  0.00000000000E+00 0. -1.
<mgrwt>
<rscale>  0 0.14461370E+03</rscale>
<asrwt>0</asrwt>
<pdfrwt beam="1">  1        2 0.11575873E+00 0.14853493E+03</pdfrwt>
<pdfrwt beam="2">  1       -2 0.48565331E-02 0.14853493E+03</pdfrwt>
<totfact> 0.76003995E+03</totfact>
</mgrwt>
</event>
<event>
 7    1  0.4230786E-006  0.1395655E+03  0.7546771E-02  0.1222874E+00
         -2   -1    0    0    0  501 -0.00000000000E+00  0.00000000000E+00  0.15003524493E+03  0.15003524493E+03  0.00000000000E+00 0. -1.
          2   -1    0    0  501    0  0.00000000000E+00 -0.00000000000E+00 -0.17507013365E+03  0.17507013365E+03  0.00000000000E+00 0.  1.
         23    2    1    2    0    0 -0.24544860979E+02 -0.57025838548E+02  0.86738775160E+02  0.16432329753E+03  0.12499653808E+03 0.  0.
          5    1    3    3  502    0  0.49487027654E+02 -0.32080551993E+02  0.51722990910E+02  0.78584257398E+02  0.47000000000E+01 0. -1.
         -5    1    3    3    0  502 -0.74031888633E+02 -0.24945286556E+02  0.35015784250E+02  0.85739040131E+02  0.47000000000E+01 0. -1.
        -11    1    1    2    0    0  0.60956916436E+02  0.27230925602E+02 -0.79058564343E+02  0.10347717413E+03  0.00000000000E+00 0.  1.
         11    1    1    2    0    0 -0.36412055457E+02  0.29794912946E+02 -0.32715099538E+02  0.57304906927E+02  0.00000000000E+00 0. -1.
<mgrwt>
<rscale>  0 0.13313717E+03</rscale>
<asrwt>0</asrwt>
<pdfrwt beam="2">  1        2 0.26933867E-01 0.13956551E+03</pdfrwt>
<pdfrwt beam="1">  1       -2 0.23082345E-01 0.13956551E+03</pdfrwt>
<totfact> 0.31277273E+03</totfact>
</mgrwt>
</event>
<event>
 7    1  0.4230786E-006  0.1980602E+03  0.7546771E-02  0.1155066E+00
          2   -1    0    0  501    0  0.00000000000E+00  0.00000000000E+00  0.16168796932E+03  0.16168796932E+03  0.00000000000E+00 0. -1.
         -2   -1    0    0    0  501 -0.00000000000E+00 -0.00000000000E+00 -0.55068216244E+03  0.55068216244E+03  0.00000000000E+00 0.  1.
         23    2    1    2    0    0  0.14879729063E+03 -0.38239880081E+02 -0.47260888236E+03  0.51243241490E+03  0.12499960810E+03 0.  0.
          5    1    3    3  502    0  0.35615021994E+01 -0.51421706418E+02 -0.13839001828E+03  0.14775237172E+03  0.47000000000E+01 0.  1.
         -5    1    3    3    0  502  0.14523578843E+03  0.13181826337E+02 -0.33421886408E+03  0.36468004318E+03  0.47000000000E+01 0.  1.
        -11    1    1    2    0    0 -0.12384290897E+02  0.40102007058E+02  0.44477527556E+01  0.42205735815E+02  0.00000000000E+00 0.  1.
         11    1    1    2    0    0 -0.13641299973E+03 -0.18621269770E+01  0.79166936490E+02  0.15773198105E+03  0.00000000000E+00 0. -1.
<mgrwt>
<rscale>  0 0.19381403E+03</rscale>
<asrwt>0</asrwt>
<pdfrwt beam="1">  1        2 0.24875072E-01 0.19806015E+03</pdfrwt>
<pdfrwt beam="2">  1       -2 0.84720333E-01 0.19806015E+03</pdfrwt>
<totfact> 0.27252233E+02</totfact>
</mgrwt>
</event>
<event>
 7    1  0.4230786E-006  0.1328412E+03  0.7546771E-02  0.1235673E+00
          1   -1    0    0  501    0  0.00000000000E+00  0.00000000000E+00  0.72561465504E+03  0.72561465504E+03  0.00000000000E+00 0. -1.
         -1   -1    0    0    0  501 -0.00000000000E+00 -0.00000000000E+00 -0.19182109132E+02  0.19182109132E+02  0.00000000000E+00 0.  1.
         23    2    1    2    0    0  0.41685937285E+02 -0.16859717427E+02  0.41493231467E+03  0.43567832519E+03  0.12499923938E+03 0.  0.
          5    1    3    3  502    0 -0.89197159447E+00  0.51431731503E+02  0.14270676565E+03  0.15176735347E+03  0.47000000000E+01 0.  1.
         -5    1    3    3    0  502  0.42577908879E+02 -0.68291448930E+02  0.27222554902E+03  0.28391097172E+03  0.47000000000E+01 0.  1.
        -11    1    1    2    0    0 -0.45406441811E+02 -0.90036840648E+01  0.27349793261E+03  0.27738768975E+03  0.00000000000E+00 0. -1.
         11    1    1    2    0    0  0.37205045263E+01  0.25863401492E+02  0.18002298630E+02  0.31730749228E+02  0.00000000000E+00 0.  1.
<mgrwt>
<rscale>  0 0.12461479E+03</rscale>
<asrwt>0</asrwt>
<pdfrwt beam="1">  1        1 0.11163300E+00 0.13284117E+03</pdfrwt>
<pdfrwt beam="2">  1       -1 0.29510943E-02 0.13284117E+03</pdfrwt>
<totfact> 0.98909396E+03</totfact>
</mgrwt>
</event>
<event>
 7    1  0.4230786E-006  0.1599767E+03  0.7546771E-02  0.1196239E+00
          4   -1    0    0  501    0  0.00000000000E+00  0.00000000000E+00  0.12067373332E+03  0.12067373332E+03  0.00000000000E+00 0. -1.
         -4   -1    0    0    0  501 -0.00000000000E+00 -0.00000000000E+00 -0.18754843718E+03  0.18754843718E+03  0.00000000000E+00 0.  1.
         23    2    1    2    0    0 -0.91357092814E+02 -0.40047610957E+02 -0.64826641900E+02  0.17261237758E+03  0.12507041953E+03 0.  0.
          5    1    3    3  502    0 -0.95510809914E+02  0.21579298318E+02 -0.39917798469E+02  0.10584659447E+03  0.47000000000E+01 0.  1.
         -5    1    3    3    0  502  0.41537171001E+01 -0.61626909275E+02 -0.24908843431E+02  0.66765783105E+02  0.47000000000E+01 0.  1.
        -11    1    1    2    0    0  0.59767058966E+02  0.48545200815E+02  0.36365964163E+02  0.85154102714E+02  0.00000000000E+00 0. -1.
         11    1    1    2    0    0  0.31590033848E+02 -0.84975898577E+01 -0.38414026124E+02  0.50455690214E+02  0.00000000000E+00 0.  1.
<mgrwt>
<rscale>  0 0.15349806E+03</rscale>
<asrwt>0</asrwt>
<pdfrwt beam="1">  1        4 0.18565190E-01 0.15997668E+03</pdfrwt>
<pdfrwt beam="2">  1       -4 0.28853606E-01 0.15997668E+03</pdfrwt>
<totfact> 0.50560204E+02</totfact>
</mgrwt>
</event>
<event>
 6    1  0.4230786E-006  0.4943907E+03  0.7546771E-02  0.1064939E+00
         -2   -1    0    0    0  501 -0.00000000000E+00  0.00000000000E+00  0.59558429767E+02  0.59558429767E+02  0.00000000000E+00 0.  1.
          2   -1    0    0  501    0  0.00000000000E+00 -0.00000000000E+00 -0.15893968532E+04  0.15893968532E+04  0.00000000000E+00 0. -1.
          5    1    1    2  502    0 -0.11163579470E+03 -0.11742459841E+03 -0.10970202033E+04  0.11089303420E+04  0.47000000000E+01 0. -1.
         -5    1    1    2    0  502  0.17794171577E+03  0.88328591212E+02 -0.21312727209E+03  0.29139409456E+03  0.47000000000E+01 0.  1.
        -11    1    1    2    0    0 -0.73282360872E+02 -0.12316007132E+02 -0.13505647206E+03  0.15415005382E+03  0.00000000000E+00 0.  1.
         11    1    1    2    0    0  0.69764398054E+01  0.41412014325E+02 -0.84634475967E+02  0.94480792572E+02  0.00000000000E+00 0. -1.
<mgrwt>
<rscale>  0 0.34439581E+03</rscale>
<asrwt>0</asrwt>
<pdfrwt beam="2">  1        2 0.24452258E+00 0.49439066E+03</pdfrwt>
<pdfrwt beam="1">  1       -2 0.91628359E-02 0.49439066E+03</pdfrwt>
<totfact> 0.91871068E+02</totfact>
</mgrwt>
</event>
<event>
 7    1  0.4230786E-006  0.1476584E+03  0.7546771E-02  0.1212162E+00
         -1   -1    0    0    0  501 -0.00000000000E+00  0.00000000000E+00  0.32347754890E+02  0.32347754890E+02  0.00000000000E+00 0.  1.
          1   -1    0    0  501    0  0.00000000000E+00 -0.00000000000E+00 -0.68769235084E+03  0.68769235084E+03  0.00000000000E+00 0. -1.
         23    2    1    2    0    0  0.27201713661E+02  0.73984145412E+02 -0.20031449067E+03  0.24885515274E+03  0.12485753832E+03 0.  0.
          5    1    3    3  502    0  0.44552483174E+02 -0.13870891196E+02 -0.11859172711E+03  0.12752808757E+03  0.47000000000E+01 0. -1.
         -5    1    3    3    0  502 -0.17350769513E+02  0.87855036607E+02 -0.81722763553E+02  0.12132706517E+03  0.47000000000E+01 0. -1.
        -11    1    1    2    0    0 -0.39350103241E+02 -0.76391109198E+02 -0.44946844580E+03  0.45760891158E+03  0.00000000000E+00 0. -1.
         11    1    1    2    0    0  0.12148389580E+02  0.24069637866E+01 -0.55616594806E+01  0.13576041405E+02  0.00000000000E+00 0.  1.
<mgrwt>
<rscale>  0 0.14087060E+03</rscale>
<asrwt>0</asrwt>
<pdfrwt beam="2">  1        1 0.10579882E+00 0.14765836E+03</pdfrwt>
<pdfrwt beam="1">  1       -1 0.49765780E-02 0.14765836E+03</pdfrwt>
<totfact> 0.49897507E+03</totfact>
</mgrwt>
</event>
<event>
 7    1  0.4230786E-006  0.1926980E+03  0.7546771E-02  0.1160756E+00
         -2   -1    0    0    0  501 -0.00000000000E+00  0.00000000000E+00  0.31992619093E+03  0.31992619093E+03  0.00000000000E+00 0.  1.
          2   -1    0    0  501    0  0.00000000000E+00 -0.00000000000E+00 -0.11643132406E+03  0.11643132406E+03  0.00000000000E+00 0. -1.
         23    2    1    2    0    0 -0.49641883785E+02 -0.13799671412E+03  0.36431313535E+02  0.19611159219E+03  0.12500042501E+03 0.  0.
          5    1    3    3  502    0  0.78897237592E+01  0.19240603706E+02 -0.80810157442E+01  0.22800030426E+02  0.47000000000E+01 0.  1.
         -5    1    3    3    0  502 -0.57531607544E+02 -0.15723731783E+03  0.44512329279E+02  0.17331156177E+03  0.47000000000E+01 0.  1.
        -11    1    1    2    0    0  0.66313681385E+02  0.11076441951E+03  0.16319241399E+03  0.20808177468E+03  0.00000000000E+00 0. -1.
         11    1    1    2    0    0 -0.16671797600E+02  0.27232294606E+02  0.38711393457E+01  0.32164148124E+02  0.00000000000E+00 0.  1.
<mgrwt>
<rscale>  0 0.18747755E+03</rscale>
<asrwt>0</asrwt>
<pdfrwt beam="2">  1        2 0.17912512E-01 0.19269799E+03</pdfrwt>
<pdfrwt beam="1">  1       -2 0.49219414E-01 0.19269799E+03</pdfrwt>
<totfact> 0.12391182E+03</totfact>
</mgrwt>
</event>
<event>
 7    1  0.4230786E-006  0.1404488E+03  0.7546771E-02  0.1220763E+00
          1   -1    0    0  501    0  0.00000000000E+00  0.00000000000E+00  0.21772328270E+03  0.21772328270E+03  0.00000000000E+00 0. -1.
         -1   -1    0    0    0  501 -0.00000000000E+00 -0.00000000000E+00 -0.20464539976E+03  0.20464539976E+03  0.00000000000E+00 0.  1.
         23    2    1    2    0    0  0.48874254166E+01 -0.63858445455E+02 -0.15980623229E+03  0.21275314760E+03  0.12499632775E+03 0.  0.
          5    1    3    3  502    0 -0.18641665363E+02 -0.59970162641E+02 -0.13455695753E+02  0.64397809302E+02  0.47000000000E+01 0.  1.
         -5    1    3    3    0  502  0.23529090780E+02 -0.38882828138E+01 -0.14635053654E+03  0.14835533830E+03  0.47000000000E+01 0.  1.
        -11    1    1    2    0    0 -0.40421232345E+01 -0.24879323260E+02  0.66267587040E+02  0.70899312960E+02  0.00000000000E+00 0.  1.
         11    1    1    2    0    0 -0.84530218207E+00  0.88737768715E+02  0.10661652820E+03  0.13871622190E+03  0.00000000000E+00 0. -1.
<mgrwt>
<rscale>  0 0.13461615E+03</rscale>
<asrwt>0</asrwt>
<pdfrwt beam="1">  1        1 0.33495890E-01 0.14044882E+03</pdfrwt>
<pdfrwt beam="2">  1       -1 0.31483907E-01 0.14044882E+03</pdfrwt>
<totfact> 0.12226868E+03</totfact>
</mgrwt>
</event>
<event>
 7    1  0.4230786E-006  0.1452944E+03  0.7546771E-02  0.1215984E+00
          1   -1    0    0  501    0  0.00000000000E+00  0.00000000000E+00  0.14909402519E+03  0.14909402519E+03  0.00000000000E+00 0. -1.
         -1   -1    0    0    0  501 -0.00000000000E+00 -0.00000000000E+00 -0.17001978545E+03  0.17001978545E+03  0.00000000000E+00 0.  1.
         23    2    1    2    0    0 -0.73887838533E+02 -0.51280026346E+01 -0.10031824465E+03  0.17656219476E+03  0.12499899726E+03 0.  0.
          5    1    3    3  502    0 -0.20418040636E+01 -0.51565744184E+02 -0.11350308981E+02  0.53048227596E+02  0.47000000000E+01 0.  1.
         -5    1    3    3    0  502 -0.71846034469E+02  0.46437741550E+02 -0.88967935665E+02  0.12351396717E+03  0.47000000000E+01 0.  1.
        -11    1    1    2    0    0  0.43882551796E+02 -0.41571430099E+02  0.26930672976E+02  0.66174944651E+02  0.00000000000E+00 0.  1.
         11    1    1    2    0    0  0.30005286736E+02  0.46699432733E+02  0.52461811417E+02  0.76376671222E+02  0.00000000000E+00 0. -1.
<mgrwt>
<rscale>  0 0.13804529E+03</rscale>
<asrwt>0</asrwt>
<pdfrwt beam="1">  1        1 0.22937542E-01 0.14529439E+03</pdfrwt>
<pdfrwt beam="2">  1       -1 0.26156890E-01 0.14529439E+03</pdfrwt>
<totfact> 0.26801198E+03</totfact>
</mgrwt>
</event>
<event>
 7    1  0.4230786E-006  0.1672127E+03  0.7546771E-02  0.1187381E+00
          3   -1    0    0  501    0  0.00000000000E+00  0.00000000000E+00  0.69930656319E+02  0.69930656319E+02  0.00000000000E+00 0. -1.
         -3   -1    0    0    0  501 -0.00000000000E+00 -0.00000000000E+00 -0.51897991100E+03  0.51897991100E+03  0.00000000000E+00 0.  1.
         23    2    1    2    0    0  0.76388965923E+02  0.80613574507E+02 -0.40476560831E+03  0.43794439514E+03  0.12500509211E+03 0.  0.
          5    1    3    3  502    0  0.24930234908E+02  0.10227246304E+03 -0.20534655837E+03  0.23080396951E+03  0.47000000000E+01 0. -1.
         -5    1    3    3    0  502  0.51458731015E+02 -0.21658888530E+02 -0.19941904994E+03  0.20714042563E+03  0.47000000000E+01 0. -1.
        -11    1    1    2    0    0 -0.49135937109E+02 -0.52021766494E+01 -0.50359763246E+02  0.70551461443E+02  0.00000000000E+00 0.  1.
         11    1    1    2    0    0 -0.27253028814E+02 -0.75411397857E+02  0.60761168770E+01  0.80414710735E+02  0.00000000000E+00 0. -1.
<mgrwt>
<rscale>  0 0.16117122E+03</rscale>
<asrwt>0</asrwt>
<pdfrwt beam="1">  1        3 0.10758563E-01 0.16721273E+03</pdfrwt>
<pdfrwt beam="2">  1       -3 0.79843060E-01 0.16721273E+03</pdfrwt>
<totfact> 0.23403293E+02</totfact>
</mgrwt>
</event>
<event>
 7    1  0.4230786E-006  0.1378559E+03  0.7546771E-02  0.1227243E+00
         -1   -1    0    0    0  501 -0.00000000000E+00  0.00000000000E+00  0.30301435950E+03  0.30301435950E+03  0.00000000000E+00 0.  1.
          1   -1    0    0  501    0  0.00000000000E+00 -0.00000000000E+00 -0.60565043115E+02  0.60565043115E+02  0.00000000000E+00 0. -1.
         23    2    1    2    0    0  0.23375327524E+02 -0.53212492696E+02  0.20658117898E+03  0.24835462750E+03  0.12500504861E+03 0.  0.
          5    1    3    3  502    0  0.30888722041E+02 -0.85428874175E+02  0.19085936726E+03  0.21142751421E+03  0.47000000000E+01 0. -1.
         -5    1    3    3    0  502 -0.75133945175E+01  0.32216381479E+02  0.15721811717E+02  0.36927113296E+02  0.47000000000E+01 0. -1.
        -11    1    1    2    0    0 -0.19253210780E+02  0.28712864019E+01  0.57180263501E+02  0.60402921660E+02  0.00000000000E+00 0.  1.
         11    1    1    2    0    0 -0.41221167440E+01  0.50341206295E+02 -0.21312126092E+02  0.54821853455E+02  0.00000000000E+00 0. -1.
<mgrwt>
<rscale>  0 0.13014346E+03</rscale>
<asrwt>0</asrwt>
<pdfrwt beam="2">  1        1 0.93176991E-02 0.13785586E+03</pdfrwt>
<pdfrwt beam="1">  1       -1 0.46617593E-01 0.13785586E+03</pdfrwt>
<totfact> 0.31832674E+03</totfact>
</mgrwt>
</event>
<event>
 7    1  0.4230786E-006  0.1324342E+03  0.7546771E-02  0.1236579E+00
         -4   -1    0    0    0  501 -0.00000000000E+00  0.00000000000E+00  0.14868498085E+02  0.14868498085E+02  0.00000000000E+00 0.  1.
          4   -1    0    0  501    0  0.00000000000E+00 -0.00000000000E+00 -0.93069340493E+03  0.93069340493E+03  0.00000000000E+00 0. -1.
         23    2    1    2    0    0  0.97832705752E+01 -0.42636476093E+02 -0.55857239047E+03  0.57405743994E+03  0.12500098992E+03 0.  0.
          5    1    3    3  502    0 -0.26364910448E+02  0.27273414337E+02 -0.75829109318E+02  0.84918145602E+02  0.47000000000E+01 0. -1.
         -5    1    3    3    0  502  0.36148181024E+02 -0.69909890430E+02 -0.48274328115E+03  0.48913929434E+03  0.47000000000E+01 0. -1.
        -11    1    1    2    0    0 -0.40269035561E+02 -0.94968100833E+01 -0.15511902657E+03  0.16054188560E+03  0.00000000000E+00 0.  1.
         11    1    1    2    0    0  0.30485764986E+02  0.52133286177E+02 -0.20213348981E+03  0.21096257748E+03  0.00000000000E+00 0. -1.
<mgrwt>
<rscale>  0 0.12403874E+03</rscale>
<asrwt>0</asrwt>
<pdfrwt beam="2">  1        4 0.14318359E+00 0.13243424E+03</pdfrwt>
<pdfrwt beam="1">  1       -4 0.22874614E-02 0.13243424E+03</pdfrwt>
<totfact> 0.49013477E+02</totfact>
</mgrwt>
</event>
<event>
 7    1  0.4230786E-006  0.1640246E+03  0.7546771E-02  0.1191429E+00
         -1   -1    0    0    0  501 -0.00000000000E+00  0.00000000000E+00  0.34838358326E+02  0.34838358326E+02  0.00000000000E+00 0.  1.
          1   -1    0    0  501    0  0.00000000000E+00 -0.00000000000E+00 -0.72888954961E+03  0.72888954961E+03  0.00000000000E+00 0. -1.
         23    2    1    2    0    0  0.10607805605E+03  0.56226567491E+01 -0.25721291557E+03  0.30506156621E+03  0.12497962633E+03 0.  0.
          5    1    3    3  502    0  0.48398499879E+02 -0.20228190337E+02 -0.15096980105E+02  0.54786889701E+02  0.47000000000E+01 0.  1.
         -5    1    3    3    0  502  0.57679556173E+02  0.25850847086E+02 -0.24211593547E+03  0.25027467651E+03  0.47000000000E+01 0.  1.
        -11    1    1    2    0    0 -0.65281152199E+02  0.32138354054E+02 -0.15281536510E+03  0.16925436019E+03  0.00000000000E+00 0.  1.
         11    1    1    2    0    0 -0.40796903853E+02 -0.37761010803E+02 -0.28402291061E+03  0.28941198153E+03  0.00000000000E+00 0. -1.
<mgrwt>
<rscale>  0 0.15760397E+03</rscale>
<asrwt>0</asrwt>
<pdfrwt beam="2">  1        1 0.11213685E+00 0.16402462E+03</pdfrwt>
<pdfrwt beam="1">  1       -1 0.53597478E-02 0.16402462E+03</pdfrwt>
<totfact> 0.41271294E+03</totfact>
</mgrwt>
</event>
<event>
 7    1  0.4230786E-006  0.1389948E+03  0.7546771E-02  0.1227913E+00
         -1   -1    0    0    0  501 -0.00000000000E+00  0.00000000000E+00  0.11609076465E+04  0.11609076465E+04  0.00000000000E+00 0.  1.
          1   -1    0    0  501    0  0.00000000000E+00 -0.00000000000E+00 -0.15841639695E+02  0.15841639695E+02  0.00000000000E+00 0. -1.
         23    2    1    2    0    0  0.46401197513E+02  0.39249320484E+02  0.88987632669E+03  0.90066610165E+03  0.12500387823E+03 0.  0.
          5    1    3    3  502    0 -0.22336885104E+02 -0.15018385547E+02  0.51268433989E+03  0.51341193082E+03  0.47000000000E+01 0.  1.
         -5    1    3    3    0  502  0.68738082618E+02  0.54267706031E+02  0.37719198680E+03  0.38725417083E+03  0.47000000000E+01 0.  1.
        -11    1    1    2    0    0  0.19512833856E+02 -0.31106165646E+02  0.65330898082E+02  0.74943114897E+02  0.00000000000E+00 0. -1.
         11    1    1    2    0    0 -0.65914031369E+02 -0.81431548383E+01  0.18985878201E+03  0.20114006963E+03  0.00000000000E+00 0.  1.
<mgrwt>
<rscale>  0 0.12969254E+03</rscale>
<asrwt>0</asrwt>
<pdfrwt beam="2">  1        1 0.24371762E-02 0.13899478E+03</pdfrwt>
<pdfrwt beam="1">  1       -1 0.17860111E+00 0.13899478E+03</pdfrwt>
<totfact> 0.10491494E+03</totfact>
</mgrwt>
</event>
<event>
 6    1  0.4230786E-006  0.3487869E+03  0.7546771E-02  0.1063114E+00
         -1   -1    0    0    0  501 -0.00000000000E+00  0.00000000000E+00  0.11498284105E+03  0.11498284105E+03  0.00000000000E+00 0.  1.
          1   -1    0    0  501    0  0.00000000000E+00 -0.00000000000E+00 -0.26450098345E+03  0.26450098345E+03  0.00000000000E+00 0. -1.
          5    1    1    2  502    0 -0.27579993519E+02 -0.10427586187E+03 -0.50608975125E+02  0.11923703189E+03  0.47000000000E+01 0. -1.
         -5    1    1    2    0  502  0.23012815650E+02  0.10307794131E+02  0.53524633071E+02  0.59353320458E+02  0.47000000000E+01 0.  1.
        -11    1    1    2    0    0  0.22441202392E+02  0.41404003465E+02 -0.13456639272E+03  0.14256932740E+03  0.00000000000E+00 0.  1.
         11    1    1    2    0    0 -0.17874024523E+02  0.52564064271E+02 -0.17867407634E+02  0.58324144751E+02  0.00000000000E+00 0. -1.
<mgrwt>
<rscale>  0 0.34878690E+03</rscale>
<asrwt>0</asrwt>
<pdfrwt beam="2">  1        1 0.40692459E-01 0.34878690E+03</pdfrwt>
<pdfrwt beam="1">  1       -1 0.17689668E-01 0.34878690E+03</pdfrwt>
<totfact> 0.25405665E+03</totfact>
</mgrwt>
</event>
<event>
 6    1  0.4230786E-006  0.1355917E+03  0.7546771E-02  0.1234835E+00
          1   -1    0    0  501    0  0.00000000000E+00  0.00000000000E+00  0.46591682495E+03  0.46591682495E+03  0.00000000000E+00 0. -1.
         -1   -1    0    0    0  501 -0.00000000000E+00 -0.00000000000E+00 -0.44504828572E+02  0.44504828572E+02  0.00000000000E+00 0.  1.
          5    1    1    2  502    0  0.59561147120E+01  0.20059355234E+02  0.10145041660E+03  0.10369247834E+03  0.47000000000E+01 0. -1.
         -5    1    1    2    0  502 -0.14347310246E+01 -0.53899873165E+02 -0.16171195728E+02  0.56487630076E+02  0.47000000000E+01 0.  1.
        -11    1    1    2    0    0  0.15032625824E+02 -0.25510950643E+02  0.17364978181E+03  0.17615628052E+03  0.00000000000E+00 0.  1.
         11    1    1    2    0    0 -0.19554009511E+02  0.59351468574E+02  0.16248299369E+03  0.17408526459E+03  0.00000000000E+00 0. -1.
<mgrwt>
<rscale>  0 0.12515010E+03</rscale>
<asrwt>0</asrwt>
<pdfrwt beam="1">  1        1 0.71679508E-01 0.13559175E+03</pdfrwt>
<pdfrwt beam="2">  1       -1 0.68468970E-02 0.13559175E+03</pdfrwt>
<totfact> 0.52192307E+03</totfact>
</mgrwt>
</event>
<event>
 7    1  0.4230786E-006  0.3632434E+03  0.7546771E-02  0.1058509E+00
         -2   -1    0    0    0  501 -0.00000000000E+00  0.00000000000E+00  0.22131088716E+03  0.22131088716E+03  0.00000000000E+00 0.  1.
          2   -1    0    0  501    0  0.00000000000E+00 -0.00000000000E+00 -0.58425637557E+03  0.58425637557E+03  0.00000000000E+00 0. -1.
         23    2    1    2    0    0 -0.23009620372E+03 -0.25174899164E+03 -0.13829374558E+03  0.38867847408E+03  0.12499591348E+03 0.  0.
          5    1    3    3  502    0 -0.56933595893E+00  0.10997477653E+02  0.28345903849E+01  0.12304209069E+02  0.47000000000E+01 0.  1.
         -5    1    3    3    0  502 -0.22952686776E+03 -0.26274646929E+03 -0.14112833596E+03  0.37637426501E+03  0.47000000000E+01 0.  1.
        -11    1    1    2    0    0  0.86063891961E+02  0.15120827719E+03 -0.13131252016E+03  0.21797686699E+03  0.00000000000E+00 0.  1.
         11    1    1    2    0    0  0.14403231176E+03  0.10054071445E+03 -0.93339222675E+02  0.19891192167E+03  0.00000000000E+00 0. -1.
<mgrwt>
<rscale>  0 0.36018945E+03</rscale>
<asrwt>0</asrwt>
<pdfrwt beam="2">  1        2 0.89885595E-01 0.36324344E+03</pdfrwt>
<pdfrwt beam="1">  1       -2 0.34047829E-01 0.36324344E+03</pdfrwt>
<totfact> 0.42179906E+02</totfact>
</mgrwt>
</event>
<event>
 7    1  0.4230786E-006  0.1875621E+03  0.7546771E-02  0.1165447E+00
         -1   -1    0    0    0  501 -0.00000000000E+00  0.00000000000E+00  0.83765879079E+02  0.83765879079E+02  0.00000000000E+00 0.  1.
          1   -1    0    0  501    0  0.00000000000E+00 -0.00000000000E+00 -0.63674776380E+03  0.63674776380E+03  0.00000000000E+00 0. -1.
         23    2    1    2    0    0  0.98386748485E+02 -0.99381323119E+02 -0.55735617871E+02  0.19566804742E+03  0.12499170381E+03 0.  0.
          5    1    3    3  502    0 -0.15145002580E+02 -0.48353023815E+02 -0.49438258030E+02  0.70947990615E+02  0.47000000000E+01 0.  1.
         -5    1    3    3    0  502  0.11353175106E+03 -0.51028299304E+02 -0.62973598407E+01  0.12472005681E+03  0.47000000000E+01 0.  1.
        -11    1    1    2    0    0 -0.79325842476E+02  0.99263950780E+02 -0.48679804302E+03  0.50310859255E+03  0.00000000000E+00 0. -1.
         11    1    1    2    0    0 -0.19060906009E+02  0.11737233907E+00 -0.10448223832E+02  0.21737002907E+02  0.00000000000E+00 0.  1.
<mgrwt>
<rscale>  0 0.18245564E+03</rscale>
<asrwt>0</asrwt>
<pdfrwt beam="2">  1        1 0.97961197E-01 0.18756206E+03</pdfrwt>
<pdfrwt beam="1">  1       -1 0.12887058E-01 0.18756206E+03</pdfrwt>
<totfact> 0.13204743E+03</totfact>
</mgrwt>
</event>
<event>
 7    1  0.4230786E-006  0.3052564E+03  0.7546771E-02  0.1084184E+00
         -1   -1    0    0    0  501 -0.00000000000E+00  0.00000000000E+00  0.73619403156E+03  0.73619403156E+03  0.00000000000E+00 0.  1.
          1   -1    0    0  501    0  0.00000000000E+00 -0.00000000000E+00 -0.12839903013E+03  0.12839903013E+03  0.00000000000E+00 0. -1.
         23    2    1    2    0    0  0.23358825261E+03 -0.15163675778E+03  0.40997524455E+03  0.51113712796E+03  0.12499713747E+03 0.  0.
          5    1    3    3  502    0  0.29236312760E+02 -0.61387135960E+02  0.40296020561E+02  0.79177027718E+02  0.47000000000E+01 0.  1.
         -5    1    3    3    0  502  0.20435193985E+03 -0.90249621823E+02  0.36967922398E+03  0.43196010025E+03  0.47000000000E+01 0.  1.
        -11    1    1    2    0    0 -0.13899700179E+03  0.13891682664E+03  0.14632056982E+03  0.24500563337E+03  0.00000000000E+00 0. -1.
         11    1    1    2    0    0 -0.94591250822E+02  0.12719931141E+02  0.51499187063E+02  0.10845030036E+03  0.00000000000E+00 0.  1.
<mgrwt>
<rscale>  0 0.30212280E+03</rscale>
<asrwt>0</asrwt>
<pdfrwt beam="2">  1        1 0.19753697E-01 0.30525639E+03</pdfrwt>
<pdfrwt beam="1">  1       -1 0.11326062E+00 0.30525639E+03</pdfrwt>
<totfact> 0.19706873E+02</totfact>
</mgrwt>
</event>
<event>
 7    1  0.4230786E-006  0.1359676E+03  0.7546771E-02  0.1231362E+00
          1   -1    0    0  501    0  0.00000000000E+00  0.00000000000E+00  0.10987421458E+03  0.10987421458E+03  0.00000000000E+00 0.  1.
         -1   -1    0    0    0  501 -0.00000000000E+00 -0.00000000000E+00 -0.16055211853E+03  0.16055211853E+03  0.00000000000E+00 0. -1.
         23    2    1    2    0    0  0.20676452838E+02  0.49329565261E+02 -0.84749491527E+02  0.16021757139E+03  0.12500508853E+03 0.  0.
          5    1    3    3  502    0 -0.35963684044E+02  0.17862458005E+02  0.13333383891E+02  0.42571388302E+02  0.47000000000E+01 0. -1.
         -5    1    3    3    0  502  0.56640136883E+02  0.31467107256E+02 -0.98082875418E+02  0.11764618309E+03  0.47000000000E+01 0. -1.
        -11    1    1    2    0    0  0.28389882855E+02 -0.45999193643E+02  0.27325736320E+02  0.60569027809E+02  0.00000000000E+00 0. -1.
         11    1    1    2    0    0 -0.49066335693E+02 -0.33303716175E+01  0.67458512656E+01  0.49639733911E+02  0.00000000000E+00 0.  1.
<mgrwt>
<rscale>  0 0.12740226E+03</rscale>
<asrwt>0</asrwt>
<pdfrwt beam="1">  1        1 0.16903725E-01 0.13596762E+03</pdfrwt>
<pdfrwt beam="2">  1       -1 0.24700326E-01 0.13596762E+03</pdfrwt>
<totfact> 0.43303687E+03</totfact>
</mgrwt>
</event>
<event>
 7    1  0.4230786E-006  0.2961141E+03  0.7546771E-02  0.1088830E+00
         -2   -1    0    0    0  501 -0.00000000000E+00  0.00000000000E+00  0.10638739037E+03  0.10638739037E+03  0.00000000000E+00 0.  1.
          2   -1    0    0  501    0  0.00000000000E+00 -0.00000000000E+00 -0.79036452986E+03  0.79036452986E+03  0.00000000000E+00 0. -1.
         23    2    1    2    0    0 -0.25754208068E+03 -0.75697300894E+02 -0.36274287362E+03  0.46825841643E+03  0.12500219003E+03 0.  0.
          5    1    3    3  502    0 -0.15503038821E+03 -0.85363510436E+02 -0.15071663149E+03  0.23250579173E+03  0.47000000000E+01 0.  1.
         -5    1    3    3    0  502 -0.10251169247E+03  0.96662095419E+01 -0.21202624213E+03  0.23575262470E+03  0.47000000000E+01 0.  1.
        -11    1    1    2    0    0  0.16268046285E+03  0.82317738570E+00 -0.18063115976E+03  0.24309098398E+03  0.00000000000E+00 0.  1.
         11    1    1    2    0    0  0.94861617824E+02  0.74874123508E+02 -0.14060310611E+03  0.18540251982E+03  0.00000000000E+00 0. -1.
<mgrwt>
<rscale>  0 0.29292847E+03</rscale>
<asrwt>0</asrwt>
<pdfrwt beam="2">  1        2 0.12159454E+00 0.29611409E+03</pdfrwt>
<pdfrwt beam="1">  1       -2 0.16367291E-01 0.29611409E+03</pdfrwt>
<totfact> 0.10671748E+03</totfact>
</mgrwt>
</event>
<event>
 7    1  0.4230786E-006  0.1420524E+03  0.7546771E-02  0.1222213E+00
         -2   -1    0    0    0  501 -0.00000000000E+00  0.00000000000E+00  0.50555110836E+03  0.50555110836E+03  0.00000000000E+00 0.  1.
          2   -1    0    0  501    0  0.00000000000E+00 -0.00000000000E+00 -0.31700352410E+02  0.31700352410E+02  0.00000000000E+00 0. -1.
         23    2    1    2    0    0  0.22889145825E+02 -0.63499806125E+02  0.26472422904E+03  0.30042935259E+03  0.12499096001E+03 0.  0.
          5    1    3    3  502    0 -0.48934939981E+01  0.37029595407E+02  0.70967084944E+02  0.80334017484E+02  0.47000000000E+01 0. -1.
         -5    1    3    3    0  502  0.27782639823E+02 -0.10052940153E+03  0.19375714409E+03  0.22009533510E+03  0.47000000000E+01 0. -1.
        -11    1    1    2    0    0 -0.36158693457E+02  0.59157464047E+02  0.21157635628E+03  0.22264683065E+03  0.00000000000E+00 0.  1.
         11    1    1    2    0    0  0.13269547632E+02  0.43423420781E+01 -0.24498293640E+01  0.14175277528E+02  0.00000000000E+00 0. -1.
<mgrwt>
<rscale>  0 0.13359749E+03</rscale>
<asrwt>0</asrwt>
<pdfrwt beam="2">  1        2 0.48769777E-02 0.14205238E+03</pdfrwt>
<pdfrwt beam="1">  1       -2 0.77777088E-01 0.14205238E+03</pdfrwt>
<totfact> 0.23690877E+03</totfact>
</mgrwt>
</event>
<event>
 7    1  0.4230786E-006  0.1328757E+03  0.7546771E-02  0.1235322E+00
         -2   -1    0    0    0  501 -0.00000000000E+00  0.00000000000E+00  0.84137569042E+02  0.84137569042E+02  0.00000000000E+00 0.  1.
          2   -1    0    0  501    0  0.00000000000E+00 -0.00000000000E+00 -0.22260507772E+03  0.22260507772E+03  0.00000000000E+00 0. -1.
         23    2    1    2    0    0 -0.21502342944E+02 -0.39613180487E+02  0.12101179941E+01  0.13288124959E+03  0.12499762913E+03 0.  0.
          5    1    3    3  502    0  0.25370585113E+01 -0.55838016817E+02 -0.49148309252E+02  0.74578596730E+02  0.47000000000E+01 0.  1.
         -5    1    3    3    0  502 -0.24039401456E+02  0.16224836330E+02  0.50358427246E+02  0.58302652864E+02  0.47000000000E+01 0.  1.
        -11    1    1    2    0    0  0.51094004910E+01  0.12716515073E+02  0.12444972238E+02  0.18511970802E+02  0.00000000000E+00 0.  1.
         11    1    1    2    0    0  0.16392942453E+02  0.26896665414E+02 -0.15212259891E+03  0.15534942636E+03  0.00000000000E+00 0. -1.
<mgrwt>
<rscale>  0 0.12483841E+03</rscale>
<asrwt>0</asrwt>
<pdfrwt beam="2">  1        2 0.34246935E-01 0.13287574E+03</pdfrwt>
<pdfrwt beam="1">  1       -2 0.12944241E-01 0.13287574E+03</pdfrwt>
<totfact> 0.62934179E+03</totfact>
</mgrwt>
</event>
<event>
 7    1  0.4230786E-006  0.2151897E+03  0.7546771E-02  0.1141012E+00
          2   -1    0    0  501    0  0.00000000000E+00  0.00000000000E+00  0.15616489189E+04  0.15616489189E+04  0.00000000000E+00 0. -1.
         -2   -1    0    0    0  501 -0.00000000000E+00 -0.00000000000E+00 -0.27665461050E+02  0.27665461050E+02  0.00000000000E+00 0.  1.
         23    2    1    2    0    0  0.15683523604E+03  0.77997603091E+02  0.70801930949E+03  0.73999861926E+03  0.12500278611E+03 0.  0.
          5    1    3    3  502    0  0.33759692677E+01  0.45915743000E+02  0.77524134228E+02  0.90286953717E+02  0.47000000000E+01 0.  1.
         -5    1    3    3    0  502  0.15345926677E+03  0.32081860090E+02  0.63049517527E+03  0.64971166554E+03  0.47000000000E+01 0.  1.
        -11    1    1    2    0    0 -0.11823273298E+03 -0.15991328034E+02  0.60309308158E+03  0.61478123488E+03  0.00000000000E+00 0.  1.
         11    1    1    2    0    0 -0.38602503064E+02 -0.62006275057E+02  0.22287106680E+03  0.23453452583E+03  0.00000000000E+00 0. -1.
<mgrwt>
<rscale>  0 0.21070103E+03</rscale>
<asrwt>0</asrwt>
<pdfrwt beam="1">  1        2 0.24025361E+00 0.21518972E+03</pdfrwt>
<pdfrwt beam="2">  1       -2 0.42562260E-02 0.21518972E+03</pdfrwt>
<totfact> 0.31605933E+03</totfact>
</mgrwt>
</event>
<event>
 7    1  0.4230786E-006  0.1352115E+03  0.7546771E-02  0.1233067E+00
         -3   -1    0    0    0  501 -0.00000000000E+00  0.00000000000E+00  0.85330451189E+02  0.85330451189E+02  0.00000000000E+00 0.  1.
          3   -1    0    0  501    0  0.00000000000E+00 -0.00000000000E+00 -0.19335070904E+03  0.19335070904E+03  0.00000000000E+00 0. -1.
         23    2    1    2    0    0 -0.17603961946E+02  0.48432943425E+02 -0.84256789643E+01  0.13547376291E+03  0.12500599540E+03 0.  0.
          5    1    3    3  502    0 -0.56729324072E+02  0.35958855512E+02 -0.44421264378E+02  0.80663462784E+02  0.47000000000E+01 0.  1.
         -5    1    3    3    0  502  0.39125362126E+02  0.12474087913E+02  0.35995585414E+02  0.54810300127E+02  0.47000000000E+01 0.  1.
        -11    1    1    2    0    0  0.22363163049E+02 -0.60779219702E+02 -0.10912851607E+03  0.12689861161E+03  0.00000000000E+00 0. -1.
         11    1    1    2    0    0 -0.47592011027E+01  0.12346276277E+02  0.95339371828E+01  0.16308785708E+02  0.00000000000E+00 0.  1.
<mgrwt>
<rscale>  0 0.12628987E+03</rscale>
<asrwt>0</asrwt>
<pdfrwt beam="2">  1        3 0.29746263E-01 0.13521149E+03</pdfrwt>
<pdfrwt beam="1">  1       -3 0.13127762E-01 0.13521149E+03</pdfrwt>
<totfact> 0.11712025E+03</totfact>
</mgrwt>
</event>
<event>
 7    1  0.4230786E-006  0.1289335E+03  0.7546771E-02  0.1244001E+00
         -4   -1    0    0    0  501 -0.00000000000E+00  0.00000000000E+00  0.12790138785E+03  0.12790138785E+03  0.00000000000E+00 0.  1.
          4   -1    0    0  501    0  0.00000000000E+00 -0.00000000000E+00 -0.99063160038E+02  0.99063160038E+02  0.00000000000E+00 0. -1.
         23    2    1    2    0    0  0.27356129109E+02 -0.15719849857E+02  0.28127552213E+02  0.13196594966E+03  0.12501352406E+03 0.  0.
          5    1    3    3  502    0  0.47846051926E+02  0.41271136872E+02 -0.35446519898E+01  0.63460270889E+02  0.47000000000E+01 0. -1.
         -5    1    3    3    0  502 -0.20489922817E+02 -0.56990986729E+02  0.31672204203E+02  0.68505678775E+02  0.47000000000E+01 0. -1.
        -11    1    1    2    0    0  0.58714900979E+01 -0.29245311227E+02 -0.19398849375E+02  0.35581989571E+02  0.00000000000E+00 0. -1.
         11    1    1    2    0    0 -0.33227619207E+02  0.44965161084E+02  0.20109524977E+02  0.59416608656E+02  0.00000000000E+00 0.  1.
<mgrwt>
<rscale>  0 0.11945398E+03</rscale>
<asrwt>0</asrwt>
<pdfrwt beam="2">  1        4 0.15240486E-01 0.12893352E+03</pdfrwt>
<pdfrwt beam="1">  1       -4 0.19677137E-01 0.12893352E+03</pdfrwt>
<totfact> 0.13869440E+03</totfact>
</mgrwt>
</event>
<event>
 6    1  0.4230786E-006  0.1960729E+03  0.7546771E-02  0.1182650E+00
         -2   -1    0    0    0  501 -0.00000000000E+00  0.00000000000E+00  0.27268892099E+04  0.27268892099E+04  0.00000000000E+00 0.  1.
          2   -1    0    0  501    0  0.00000000000E+00 -0.00000000000E+00 -0.72356104568E+02  0.72356104568E+02  0.00000000000E+00 0. -1.
          5    1    1    2  502    0 -0.46343142247E+02 -0.23741423943E+02  0.19214970393E+03  0.19913548344E+03  0.47000000000E+01 0. -1.
         -5    1    1    2    0  502  0.15867689701E+02  0.22640085420E+02  0.24952086392E+04  0.24953662257E+04  0.47000000000E+01 0.  1.
        -11    1    1    2    0    0 -0.62293745415E+01  0.29767162075E+02  0.18373823171E+02  0.35531484954E+02  0.00000000000E+00 0.  1.
         11    1    1    2    0    0  0.36704827087E+02 -0.28665823551E+02 -0.51199060953E+02  0.69212120426E+02  0.00000000000E+00 0. -1.
<mgrwt>
<rscale>  0 0.16547532E+03</rscale>
<asrwt>0</asrwt>
<pdfrwt beam="2">  1        2 0.11131711E-01 0.19607294E+03</pdfrwt>
<pdfrwt beam="1">  1       -2 0.41952134E+00 0.19607294E+03</pdfrwt>
<totfact> 0.39131662E+00</totfact>
</mgrwt>
</event>
<event>
 7    1  0.4230786E-006  0.1791950E+03  0.7546771E-02  0.1174258E+00
          4   -1    0    0  501    0  0.00000000000E+00  0.00000000000E+00  0.25471603192E+02  0.25471603192E+02  0.00000000000E+00 0.  1.
         -4   -1    0    0    0  501 -0.00000000000E+00 -0.00000000000E+00 -0.11265633429E+04  0.11265633429E+04  0.00000000000E+00 0. -1.
         23    2    1    2    0    0 -0.61359161019E+02  0.11279535448E+03 -0.65051939651E+03  0.67474908242E+03  0.12499240119E+03 0.  0.
          5    1    3    3  502    0  0.13979244055E+02  0.80593673849E+02 -0.18907115284E+03  0.20606006495E+03  0.47000000000E+01 0. -1.
         -5    1    3    3    0  502 -0.75338405074E+02  0.32201680633E+02 -0.46144824367E+03  0.46868901747E+03  0.47000000000E+01 0. -1.
        -11    1    1    2    0    0  0.35839132076E+02 -0.79101813996E+01 -0.21564176887E+03  0.21874274123E+03  0.00000000000E+00 0. -1.
         11    1    1    2    0    0  0.25520028943E+02 -0.10488517308E+03 -0.23493057431E+03  0.25854312243E+03  0.00000000000E+00 0.  1.
<mgrwt>
<rscale>  0 0.17348861E+03</rscale>
<asrwt>0</asrwt>
<pdfrwt beam="1">  1        4 0.39187084E-02 0.17919497E+03</pdfrwt>
<pdfrwt beam="2">  1       -4 0.17331743E+00 0.17919497E+03</pdfrwt>
<totfact> 0.13440606E+02</totfact>
</mgrwt>
</event>
<event>
 7    1  0.4230786E-006  0.1715775E+03  0.7546771E-02  0.1182542E+00
         -2   -1    0    0    0  501 -0.00000000000E+00  0.00000000000E+00  0.75249391805E+02  0.75249391805E+02  0.00000000000E+00 0.  1.
          2   -1    0    0  501    0  0.00000000000E+00 -0.00000000000E+00 -0.42272245677E+03  0.42272245677E+03  0.00000000000E+00 0. -1.
         23    2    1    2    0    0 -0.49207258482E+02 -0.10674245834E+03 -0.74451325449E+02  0.18703432734E+03  0.12499413203E+03 0.  0.
          5    1    3    3  502    0  0.40540904863E+02 -0.16160635708E+02 -0.21588237401E+02  0.48917002235E+02  0.47000000000E+01 0.  1.
         -5    1    3    3    0  502 -0.89748163345E+02 -0.90581822636E+02 -0.52863088048E+02  0.13811732510E+03  0.47000000000E+01 0.  1.
        -11    1    1    2    0    0  0.19228544556E+02  0.63666375622E+02 -0.53862657327E+02  0.85582300535E+02  0.00000000000E+00 0.  1.
         11    1    1    2    0    0  0.29978713926E+02  0.43076082722E+02 -0.21915908219E+03  0.22535522070E+03  0.00000000000E+00 0. -1.
<mgrwt>
<rscale>  0 0.16557531E+03</rscale>
<asrwt>0</asrwt>
<pdfrwt beam="2">  1        2 0.65034226E-01 0.17157750E+03</pdfrwt>
<pdfrwt beam="1">  1       -2 0.11576829E-01 0.17157750E+03</pdfrwt>
<totfact> 0.38479534E+03</totfact>
</mgrwt>
</event>
<event>
 7    1  0.4230786E-006  0.1729856E+03  0.7546771E-02  0.1182117E+00
          2   -1    0    0  501    0  0.00000000000E+00  0.00000000000E+00  0.49029118873E+03  0.49029118873E+03  0.00000000000E+00 0. -1.
         -2   -1    0    0    0  501 -0.00000000000E+00 -0.00000000000E+00 -0.62687762206E+02  0.62687762206E+02  0.00000000000E+00 0.  1.
         23    2    1    2    0    0 -0.51956931157E+02  0.10770247509E+03  0.11502649929E+03  0.20773809833E+03  0.12499870448E+03 0.  0.
          5    1    3    3  502    0 -0.81419647296E+01  0.77423062134E+02 -0.31226486190E+01  0.78054231623E+02  0.47000000000E+01 0. -1.
         -5    1    3    3    0  502 -0.43814966428E+02  0.30279412951E+02  0.11814914791E+03  0.12968386670E+03  0.47000000000E+01 0. -1.
        -11    1    1    2    0    0  0.64114330544E+02 -0.76449522369E+02  0.15648631360E+03  0.18558863972E+03  0.00000000000E+00 0.  1.
         11    1    1    2    0    0 -0.12157399386E+02 -0.31252952716E+02  0.15609061363E+03  0.15965221288E+03  0.00000000000E+00 0. -1.
<mgrwt>
<rscale>  0 0.16596986E+03</rscale>
<asrwt>0</asrwt>
<pdfrwt beam="1">  1        2 0.75429411E-01 0.17298561E+03</pdfrwt>
<pdfrwt beam="2">  1       -2 0.96442714E-02 0.17298561E+03</pdfrwt>
<totfact> 0.43744688E+03</totfact>
</mgrwt>
</event>
<event>
 7    1  0.4230786E-006  0.1382593E+03  0.7546771E-02  0.1223447E+00
          1   -1    0    0  501    0  0.00000000000E+00  0.00000000000E+00  0.49205381319E+03  0.49205381319E+03  0.00000000000E+00 0. -1.
         -1   -1    0    0    0  501 -0.00000000000E+00 -0.00000000000E+00 -0.33485442016E+02  0.33485442016E+02  0.00000000000E+00 0.  1.
         23    2    1    2    0    0  0.68667613034E+02 -0.11152260813E+02  0.22471589699E+03  0.26384252649E+03  0.11948234357E+03 0.  0.
          5    1    3    3  502    0 -0.26802638976E+02  0.18449550268E+02  0.28186465417E+02  0.43305128956E+02  0.47000000000E+01 0. -1.
         -5    1    3    3    0  502  0.95470252010E+02 -0.29601811081E+02  0.19652943157E+03  0.22053739754E+03  0.47000000000E+01 0.  1.
        -11    1    1    2    0    0 -0.31912589425E+02 -0.37945198486E+02  0.14876228919E+03  0.15680711124E+03  0.00000000000E+00 0. -1.
         11    1    1    2    0    0 -0.36755023609E+02  0.49097459299E+02  0.85090184994E+02  0.10488961747E+03  0.00000000000E+00 0.  1.
<mgrwt>
<rscale>  0 0.13273903E+03</rscale>
<asrwt>0</asrwt>
<pdfrwt beam="1">  1        1 0.75700581E-01 0.13825934E+03</pdfrwt>
<pdfrwt beam="2">  1       -1 0.51516068E-02 0.13825934E+03</pdfrwt>
<totfact> 0.74376415E+03</totfact>
</mgrwt>
</event>
<event>
 7    1  0.4230786E-006  0.1307491E+03  0.7546771E-02  0.1238406E+00
          3   -1    0    0  501    0  0.00000000000E+00  0.00000000000E+00  0.12846439373E+03  0.12846439373E+03  0.00000000000E+00 0. -1.
         -3   -1    0    0    0  501 -0.00000000000E+00 -0.00000000000E+00 -0.10784764309E+03  0.10784764309E+03  0.00000000000E+00 0.  1.
         23    2    1    2    0    0 -0.10749885828E+02  0.36800863767E+02  0.29033180018E+02  0.13393372914E+03  0.12500181855E+03 0.  0.
          5    1    3    3  502    0  0.13914666129E+02  0.69314872174E+02  0.51046604085E+02  0.87327058960E+02  0.47000000000E+01 0.  1.
         -5    1    3    3    0  502 -0.24664551958E+02 -0.32514008407E+02 -0.22013424067E+02  0.46606670179E+02  0.47000000000E+01 0.  1.
        -11    1    1    2    0    0  0.25179388349E+02  0.25090058502E+02 -0.14807906702E+02  0.38506969943E+02  0.00000000000E+00 0.  1.
         11    1    1    2    0    0 -0.14429502521E+02 -0.61890922269E+02  0.63914773310E+01  0.63871337741E+02  0.00000000000E+00 0. -1.
<mgrwt>
<rscale>  0 0.12288894E+03</rscale>
<asrwt>0</asrwt>
<pdfrwt beam="1">  1        3 0.19763753E-01 0.13074907E+03</pdfrwt>
<pdfrwt beam="2">  1       -3 0.16591945E-01 0.13074907E+03</pdfrwt>
<totfact> 0.16299866E+03</totfact>
</mgrwt>
</event>
<event>
 7    1  0.4230786E-006  0.1303353E+03  0.7546771E-02  0.1240133E+00
         -2   -1    0    0    0  501 -0.00000000000E+00  0.00000000000E+00  0.12413622302E+03  0.12413622302E+03  0.00000000000E+00 0.  1.
          2   -1    0    0  501    0  0.00000000000E+00 -0.00000000000E+00 -0.10682185307E+03  0.10682185307E+03  0.00000000000E+00 0. -1.
         23    2    1    2    0    0  0.15345234597E+02  0.33550985665E+02  0.17504896439E+02  0.13150560333E+03  0.12500462969E+03 0.  0.
          5    1    3    3  502    0  0.13045110165E+02  0.22002420469E+02  0.71478529296E+02  0.76062813227E+02  0.47000000000E+01 0.  1.
         -5    1    3    3    0  502  0.23001244323E+01  0.11548565196E+02 -0.53973632857E+02  0.55442790102E+02  0.47000000000E+01 0.  1.
        -11    1    1    2    0    0  0.20363351616E+02 -0.53468629282E+02 -0.81636269230E+01  0.57794508484E+02  0.00000000000E+00 0. -1.
         11    1    1    2    0    0 -0.35708586213E+02  0.19917643618E+02  0.79731004371E+01  0.41657964271E+02  0.00000000000E+00 0.  1.
<mgrwt>
<rscale>  0 0.12181488E+03</rscale>
<asrwt>0</asrwt>
<pdfrwt beam="2">  1        2 0.16434131E-01 0.13033535E+03</pdfrwt>
<pdfrwt beam="1">  1       -2 0.19097881E-01 0.13033535E+03</pdfrwt>
<totfact> 0.74961492E+03</totfact>
</mgrwt>
</event>
<event>
 7    1  0.4230786E-006  0.1632938E+03  0.7546771E-02  0.1192332E+00
          2   -1    0    0  501    0  0.00000000000E+00  0.00000000000E+00  0.48356212889E+03  0.48356212889E+03  0.00000000000E+00 0. -1.
         -2   -1    0    0    0  501 -0.00000000000E+00 -0.00000000000E+00 -0.47245751670E+02  0.47245751670E+02  0.00000000000E+00 0.  1.
         23    2    1    2    0    0 -0.81697153420E+02  0.66076403872E+02  0.22889744009E+03  0.28117414689E+03  0.12499738706E+03 0.  0.
          5    1    3    3  502    0  0.30132165518E+02 -0.45676442477E+01  0.47187323465E+02  0.56369710560E+02  0.47000000000E+01 0. -1.
         -5    1    3    3    0  502 -0.11182931894E+03  0.70644048120E+02  0.18171011663E+03  0.22480443633E+03  0.47000000000E+01 0. -1.
        -11    1    1    2    0    0  0.69169926134E+02 -0.51800172794E+02  0.21297937273E+03  0.22984331574E+03  0.00000000000E+00 0. -1.
         11    1    1    2    0    0  0.12527227286E+02 -0.14276231079E+02 -0.55604356108E+01  0.19790417920E+02  0.00000000000E+00 0.  1.
<mgrwt>
<rscale>  0 0.15682169E+03</rscale>
<asrwt>0</asrwt>
<pdfrwt beam="1">  1        2 0.74394170E-01 0.16329379E+03</pdfrwt>
<pdfrwt beam="2">  1       -2 0.72685775E-02 0.16329379E+03</pdfrwt>
<totfact> 0.68808242E+03</totfact>
</mgrwt>
</event>
<event>
 7    1  0.4230786E-006  0.2851454E+03  0.7546771E-02  0.1094684E+00
         -1   -1    0    0    0  501 -0.00000000000E+00  0.00000000000E+00  0.12980824147E+04  0.12980824147E+04  0.00000000000E+00 0.  1.
          1   -1    0    0  501    0  0.00000000000E+00 -0.00000000000E+00 -0.23818005050E+03  0.23818005050E+03  0.00000000000E+00 0. -1.
         23    2    1    2    0    0 -0.25583129748E+03  0.15371210295E+02  0.11977087324E+04  0.12311840375E+04  0.12498799788E+03 0.  0.
          5    1    3    3  502    0 -0.27390791195E+01 -0.23205312789E+02  0.51878019934E+02  0.57091225668E+02  0.47000000000E+01 0.  1.
         -5    1    3    3    0  502 -0.25309221837E+03  0.38576523084E+02  0.11458307125E+04  0.11740928118E+04  0.47000000000E+01 0.  1.
        -11    1    1    2    0    0  0.59135905138E+02 -0.41459143092E+02 -0.22774030926E+02  0.75726958918E+02  0.00000000000E+00 0.  1.
         11    1    1    2    0    0  0.19669539235E+03  0.26087932796E+02 -0.11503233729E+03  0.22935146878E+03  0.00000000000E+00 0. -1.
<mgrwt>
<rscale>  0 0.28184745E+03</rscale>
<asrwt>0</asrwt>
<pdfrwt beam="2">  1        1 0.36643085E-01 0.28514545E+03</pdfrwt>
<pdfrwt beam="1">  1       -1 0.19970498E+00 0.28514545E+03</pdfrwt>
<totfact> 0.19821101E+01</totfact>
</mgrwt>
</event>
<event>
 7    1  0.4230786E-006  0.3266320E+03  0.7546771E-02  0.1073954E+00
         -1   -1    0    0    0  501 -0.00000000000E+00  0.00000000000E+00  0.22031473056E+03  0.22031473056E+03  0.00000000000E+00 0.  1.
          1   -1    0    0  501    0  0.00000000000E+00 -0.00000000000E+00 -0.46760625653E+03  0.46760625653E+03  0.00000000000E+00 0. -1.
         23    2    1    2    0    0  0.20262523184E+03 -0.22362424166E+03 -0.11720908150E+03  0.34702515900E+03  0.12499482452E+03 0.  0.
          5    1    3    3  502    0  0.18094807895E+03 -0.17295098333E+03 -0.14041290416E+03  0.28704028213E+03  0.47000000000E+01 0. -1.
         -5    1    3    3    0  502  0.21677152888E+02 -0.50673258334E+02  0.23203822659E+02  0.59984876873E+02  0.47000000000E+01 0. -1.
        -11    1    1    2    0    0 -0.12585860755E+03  0.17895101638E+03 -0.12491239670E+03  0.25192650160E+03  0.00000000000E+00 0. -1.
         11    1    1    2    0    0 -0.76766624289E+02  0.44673225280E+02 -0.51700477737E+01  0.88969326487E+02  0.00000000000E+00 0.  1.
<mgrwt>
<rscale>  0 0.32371027E+03</rscale>
<asrwt>0</asrwt>
<pdfrwt beam="2">  1        1 0.71939424E-01 0.32663204E+03</pdfrwt>
<pdfrwt beam="1">  1       -1 0.33894574E-01 0.32663204E+03</pdfrwt>
<totfact> 0.40974018E+02</totfact>
</mgrwt>
</event>
<event>
 7    1  0.4230786E-006  0.1632814E+03  0.7546771E-02  0.1192923E+00
          1   -1    0    0  501    0  0.00000000000E+00  0.00000000000E+00  0.31024761636E+03  0.31024761636E+03  0.00000000000E+00 0. -1.
         -1   -1    0    0    0  501 -0.00000000000E+00 -0.00000000000E+00 -0.73000936404E+02  0.73000936404E+02  0.00000000000E+00 0.  1.
         23    2    1    2    0    0  0.23003391891E+02  0.10250592144E+03  0.11724231838E+03  0.20101390597E+03  0.12499683677E+03 0.  0.
          5    1    3    3  502    0  0.59364258913E+01  0.27280689842E+02 -0.25881415597E+02  0.38359025847E+02  0.47000000000E+01 0.  1.
         -5    1    3    3    0  502  0.17066966000E+02  0.75225231603E+02  0.14312373398E+03  0.16265488012E+03  0.47000000000E+01 0.  1.
        -11    1    1    2    0    0 -0.97587958701E-01 -0.21306070455E+02  0.90315432542E+02  0.92794587756E+02  0.00000000000E+00 0. -1.
         11    1    1    2    0    0 -0.22905803933E+02 -0.81199850989E+02  0.29688929032E+02  0.89440059043E+02  0.00000000000E+00 0.  1.
<mgrwt>
<rscale>  0 0.15631356E+03</rscale>
<asrwt>0</asrwt>
<pdfrwt beam="1">  1        1 0.47730402E-01 0.16328144E+03</pdfrwt>
<pdfrwt beam="2">  1       -1 0.11230913E-01 0.16328144E+03</pdfrwt>
<totfact> 0.41490432E+03</totfact>
</mgrwt>
</event>
<event>
 7    1  0.4230786E-006  0.1406980E+03  0.7546771E-02  0.1223265E+00
          1   -1    0    0  501    0  0.00000000000E+00  0.00000000000E+00  0.23510848730E+03  0.23510848730E+03  0.00000000000E+00 0. -1.
         -1   -1    0    0    0  501 -0.00000000000E+00 -0.00000000000E+00 -0.68662346086E+02  0.68662346086E+02  0.00000000000E+00 0.  1.
         23    2    1    2    0    0  0.18658985635E+02 -0.61815523109E+02  0.10910535989E+03  0.17804468804E+03  0.12500645880E+03 0.  0.
          5    1    3    3  502    0 -0.25091677569E+02  0.22615206890E+02  0.11789966526E+01  0.34125062623E+02  0.47000000000E+01 0. -1.
         -5    1    3    3    0  502  0.43750663204E+02 -0.84430729999E+02  0.10792636324E+03  0.14391962542E+03  0.47000000000E+01 0. -1.
        -11    1    1    2    0    0  0.36085162654E+02  0.12685633084E+02  0.17353330337E+02  0.42002408554E+02  0.00000000000E+00 0. -1.
         11    1    1    2    0    0 -0.54744148290E+02  0.49129890025E+02  0.39987450986E+02  0.83723736791E+02  0.00000000000E+00 0.  1.
<mgrwt>
<rscale>  0 0.13286562E+03</rscale>
<asrwt>0</asrwt>
<pdfrwt beam="1">  1        1 0.36170536E-01 0.14069801E+03</pdfrwt>
<pdfrwt beam="2">  1       -1 0.10563438E-01 0.14069801E+03</pdfrwt>
<totfact> 0.63777159E+03</totfact>
</mgrwt>
</event>
<event>
 7    1  0.4230786E-006  0.1201719E+03  0.7546771E-02  0.1252693E+00
          1   -1    0    0  501    0  0.00000000000E+00  0.00000000000E+00  0.49105850595E+02  0.49105850595E+02  0.00000000000E+00 0. -1.
         -1   -1    0    0    0  501 -0.00000000000E+00 -0.00000000000E+00 -0.61084797651E+03  0.61084797651E+03  0.00000000000E+00 0.  1.
         23    2    1    2    0    0 -0.22277599459E+02 -0.17965118948E+02 -0.54728539459E+03  0.56032363797E+03  0.11671434871E+03 0.  0.
          5    1    3    3  502    0  0.13870488605E+02 -0.59654396850E+02 -0.22125068159E+03  0.22961923182E+03  0.47000000000E+01 0. -1.
         -5    1    3    3    0  502 -0.36148088064E+02  0.41689277902E+02 -0.32603471300E+03  0.33070440614E+03  0.47000000000E+01 0.  1.
        -11    1    1    2    0    0  0.51538463364E+02  0.37121017199E+02 -0.11322390520E+02  0.64516506809E+02  0.00000000000E+00 0.  1.
         11    1    1    2    0    0 -0.29260863904E+02 -0.19155898251E+02 -0.31343408014E+01  0.35113682326E+02  0.00000000000E+00 0. -1.
<mgrwt>
<rscale>  0 0.11436539E+03</rscale>
<asrwt>0</asrwt>
<pdfrwt beam="1">  1        1 0.75547457E-02 0.12017186E+03</pdfrwt>
<pdfrwt beam="2">  1       -1 0.93976619E-01 0.12017186E+03</pdfrwt>
<totfact> 0.10654439E+03</totfact>
</mgrwt>
</event>
<event>
 7    1  0.4230786E-006  0.1273330E+03  0.7546771E-02  0.1246700E+00
          3   -1    0    0  501    0  0.00000000000E+00  0.00000000000E+00  0.90735238141E+02  0.90735238141E+02  0.00000000000E+00 0. -1.
         -3   -1    0    0    0  501 -0.00000000000E+00 -0.00000000000E+00 -0.13442213981E+03  0.13442213981E+03  0.00000000000E+00 0.  1.
         23    2    1    2    0    0  0.89655739139E+01  0.22552564679E+02 -0.21249513965E+02  0.12909388360E+03  0.12499875699E+03 0.  0.
          5    1    3    3  502    0  0.18873796521E+02 -0.49829328381E+02 -0.15344258658E+02  0.55648166509E+02  0.47000000000E+01 0. -1.
         -5    1    3    3    0  502 -0.99082226070E+01  0.72381893060E+02 -0.59052553062E+01  0.73445717087E+02  0.47000000000E+01 0. -1.
        -11    1    1    2    0    0  0.12548955697E+02 -0.34496096565E+01  0.31969771810E+02  0.34517276912E+02  0.00000000000E+00 0. -1.
         11    1    1    2    0    0 -0.21514529611E+02 -0.19102955023E+02 -0.54407159510E+02  0.61546217438E+02  0.00000000000E+00 0.  1.
<mgrwt>
<rscale>  0 0.11784194E+03</rscale>
<asrwt>0</asrwt>
<pdfrwt beam="1">  1        3 0.13959267E-01 0.12733298E+03</pdfrwt>
<pdfrwt beam="2">  1       -3 0.20680329E-01 0.12733298E+03</pdfrwt>
<totfact> 0.20128966E+03</totfact>
</mgrwt>
</event>
<event>
 7    1  0.4230786E-006  0.1506967E+03  0.7546771E-02  0.1208743E+00
          3   -1    0    0  501    0  0.00000000000E+00  0.00000000000E+00  0.19071216593E+02  0.19071216593E+02  0.00000000000E+00 0. -1.
         -3   -1    0    0    0  501 -0.00000000000E+00 -0.00000000000E+00 -0.13439448133E+04  0.13439448133E+04  0.00000000000E+00 0.  1.
         23    2    1    2    0    0 -0.34043230797E+02 -0.76985848271E+02 -0.10598539960E+04  0.10705138954E+04  0.12499497960E+03 0.  0.
          5    1    3    3  502    0  0.13732018641E+02 -0.58472256283E+02 -0.19416209885E+03  0.20329432782E+03  0.47000000000E+01 0.  1.
         -5    1    3    3    0  502 -0.47775249439E+02 -0.18513591988E+02 -0.86569189716E+03  0.86721956756E+03  0.47000000000E+01 0.  1.
        -11    1    1    2    0    0  0.22626822518E+02 -0.10348688687E+02 -0.19346331062E+02  0.31517439305E+02  0.00000000000E+00 0. -1.
         11    1    1    2    0    0  0.11416408279E+02  0.87334536958E+02 -0.24567326961E+03  0.26098469519E+03  0.00000000000E+00 0.  1.
<mgrwt>
<rscale>  0 0.14346393E+03</rscale>
<asrwt>0</asrwt>
<pdfrwt beam="1">  1        3 0.29340331E-02 0.15069674E+03</pdfrwt>
<pdfrwt beam="2">  1       -3 0.20676076E+00 0.15069674E+03</pdfrwt>
<totfact> 0.18291854E+02</totfact>
</mgrwt>
</event>
<event>
 7    1  0.4230786E-006  0.1353441E+03  0.7546771E-02  0.1232828E+00
          1   -1    0    0  501    0  0.00000000000E+00  0.00000000000E+00  0.99441437326E+02  0.99441437326E+02  0.00000000000E+00 0. -1.
         -1   -1    0    0    0  501 -0.00000000000E+00 -0.00000000000E+00 -0.19097163974E+03  0.19097163974E+03  0.00000000000E+00 0.  1.
         23    2    1    2    0    0 -0.36045931654E+02  0.37335667541E+02 -0.12271476238E+03  0.18269359553E+03  0.12499910271E+03 0.  0.
          5    1    3    3  502    0 -0.19825808535E+02  0.76642837530E+02 -0.11425989911E+03  0.13908487255E+03  0.47000000000E+01 0.  1.
         -5    1    3    3    0  502 -0.16220123119E+02 -0.39307169988E+02 -0.84548632787E+01  0.43608722976E+02  0.47000000000E+01 0.  1.
        -11    1    1    2    0    0  0.63306499556E+02 -0.35835862306E+02  0.10570806871E+02  0.73509617542E+02  0.00000000000E+00 0.  1.
         11    1    1    2    0    0 -0.27260567902E+02 -0.14998052355E+01  0.20613753098E+02  0.34209864000E+02  0.00000000000E+00 0. -1.
<mgrwt>
<rscale>  0 0.12644493E+03</rscale>
<asrwt>0</asrwt>
<pdfrwt beam="1">  1        1 0.15298683E-01 0.13534414E+03</pdfrwt>
<pdfrwt beam="2">  1       -1 0.29380252E-01 0.13534414E+03</pdfrwt>
<totfact> 0.36928845E+03</totfact>
</mgrwt>
</event>
<event>
 7    1  0.4230786E-006  0.1279768E+03  0.7546771E-02  0.1243267E+00
         -2   -1    0    0    0  501 -0.00000000000E+00  0.00000000000E+00  0.80612951620E+02  0.80612951620E+02  0.00000000000E+00 0.  1.
          2   -1    0    0  501    0  0.00000000000E+00 -0.00000000000E+00 -0.16172938326E+03  0.16172938326E+03  0.00000000000E+00 0. -1.
         23    2    1    2    0    0  0.10405495982E+02  0.33460840303E+02 -0.30701212936E+02  0.13160782564E+03  0.12308595823E+03 0.  0.
          5    1    3    3  502    0 -0.49261374494E+02 -0.13072908749E+02 -0.44388473649E+01  0.51374870571E+02  0.47000000000E+01 0.  1.
         -5    1    3    3    0  502  0.59666870477E+02  0.46533749053E+02 -0.26262365571E+02  0.80232955067E+02  0.47000000000E+01 0.  1.
        -11    1    1    2    0    0 -0.22810664865E+02 -0.52226629125E+02 -0.16316399021E+01  0.57014116411E+02  0.00000000000E+00 0.  1.
         11    1    1    2    0    0  0.12405168883E+02  0.18765788822E+02 -0.48783578805E+02  0.53720392833E+02  0.00000000000E+00 0. -1.
<mgrwt>
<rscale>  0 0.11989722E+03</rscale>
<asrwt>0</asrwt>
<pdfrwt beam="2">  1        2 0.24881443E-01 0.12797678E+03</pdfrwt>
<pdfrwt beam="1">  1       -2 0.12401993E-01 0.12797678E+03</pdfrwt>
<totfact> 0.95071043E+03</totfact>
</mgrwt>
</event>
<event>
 7    1  0.4230786E-006  0.1566392E+03  0.7546771E-02  0.1200714E+00
          1   -1    0    0  501    0  0.00000000000E+00  0.00000000000E+00  0.55479460398E+03  0.55479460398E+03  0.00000000000E+00 0. -1.
         -1   -1    0    0    0  501 -0.00000000000E+00 -0.00000000000E+00 -0.38800175170E+02  0.38800175170E+02  0.00000000000E+00 0.  1.
         23    2    1    2    0    0  0.47465150479E+02 -0.81595503823E+02  0.22176895984E+03  0.27150930934E+03  0.12500026703E+03 0.  0.
          5    1    3    3  502    0  0.89549414837E+02 -0.47244725007E+02  0.15658399530E+03  0.18652559964E+03  0.47000000000E+01 0. -1.
         -5    1    3    3    0  502 -0.42084264358E+02 -0.34350778816E+02  0.65184964546E+02  0.84983709702E+02  0.47000000000E+01 0. -1.
        -11    1    1    2    0    0  0.26456564077E+02  0.11122155474E+02  0.57345754548E+02  0.64126341622E+02  0.00000000000E+00 0. -1.
         11    1    1    2    0    0 -0.73921714557E+02  0.70473348349E+02  0.23687971442E+03  0.25795912819E+03  0.00000000000E+00 0.  1.
<mgrwt>
<rscale>  0 0.14980383E+03</rscale>
<asrwt>0</asrwt>
<pdfrwt beam="1">  1        1 0.85353010E-01 0.15663918E+03</pdfrwt>
<pdfrwt beam="2">  1       -1 0.59692581E-02 0.15663918E+03</pdfrwt>
<totfact> 0.51336269E+03</totfact>
</mgrwt>
</event>
<event>
 7    1  0.4230786E-006  0.1347971E+03  0.7546771E-02  0.1231560E+00
          2   -1    0    0  501    0  0.00000000000E+00  0.00000000000E+00  0.39475550078E+03  0.39475550078E+03  0.00000000000E+00 0. -1.
         -2   -1    0    0    0  501 -0.00000000000E+00 -0.00000000000E+00 -0.37211933168E+02  0.37211933168E+02  0.00000000000E+00 0.  1.
         23    2    1    2    0    0 -0.50253918116E+02  0.45197917831E+01  0.18566523772E+03  0.22943811010E+03  0.12499752424E+03 0.  0.
          5    1    3    3  502    0  0.33193740515E+02 -0.20196932791E+02  0.99311269226E+02  0.10674529825E+03  0.47000000000E+01 0. -1.
         -5    1    3    3    0  502 -0.83447658631E+02  0.24716724574E+02  0.86353968492E+02  0.12269281185E+03  0.47000000000E+01 0. -1.
        -11    1    1    2    0    0  0.70283456461E+02  0.19449679365E+02  0.96664418403E+02  0.12108701031E+03  0.00000000000E+00 0. -1.
         11    1    1    2    0    0 -0.20029538345E+02 -0.23969471149E+02  0.75213911491E+02  0.81442313543E+02  0.00000000000E+00 0.  1.
<mgrwt>
<rscale>  0 0.12727237E+03</rscale>
<asrwt>0</asrwt>
<pdfrwt beam="1">  1        2 0.60731613E-01 0.13479713E+03</pdfrwt>
<pdfrwt beam="2">  1       -2 0.57249131E-02 0.13479713E+03</pdfrwt>
<totfact> 0.12182532E+04</totfact>
</mgrwt>
</event>
<event>
 7    1  0.4230786E-006  0.1375542E+03  0.7546771E-02  0.1228456E+00
          2   -1    0    0  501    0  0.00000000000E+00  0.00000000000E+00  0.35733078547E+03  0.35733078547E+03  0.00000000000E+00 0. -1.
         -2   -1    0    0    0  501 -0.00000000000E+00 -0.00000000000E+00 -0.46931273369E+02  0.46931273369E+02  0.00000000000E+00 0.  1.
         23    2    1    2    0    0  0.76433785918E+01 -0.56908052998E+02  0.10722812139E+03  0.17441052664E+03  0.12499685618E+03 0.  0.
          5    1    3    3  502    0  0.50676388228E+02  0.13064478365E+02  0.59131804457E+02  0.79103964610E+02  0.47000000000E+01 0.  1.
         -5    1    3    3    0  502 -0.43033009636E+02 -0.69972531363E+02  0.48096316936E+02  0.95306562033E+02  0.47000000000E+01 0.  1.
        -11    1    1    2    0    0 -0.40337889474E+02  0.86853005478E+01  0.43848136255E+02  0.60209956201E+02  0.00000000000E+00 0.  1.
         11    1    1    2    0    0  0.32694510882E+02  0.48222752451E+02  0.15932325445E+03  0.16964157599E+03  0.00000000000E+00 0. -1.
<mgrwt>
<rscale>  0 0.12932807E+03</rscale>
<asrwt>0</asrwt>
<pdfrwt beam="1">  1        2 0.54973965E-01 0.13755421E+03</pdfrwt>
<pdfrwt beam="2">  1       -2 0.72201961E-02 0.13755421E+03</pdfrwt>
<totfact> 0.95278474E+03</totfact>
</mgrwt>
</event>
<event>
 7    1  0.4230786E-006  0.1343291E+03  0.7546771E-02  0.1234048E+00
         -1   -1    0    0    0  501 -0.00000000000E+00  0.00000000000E+00  0.69759906042E+03  0.69759906042E+03  0.00000000000E+00 0.  1.
          1   -1    0    0  501    0  0.00000000000E+00 -0.00000000000E+00 -0.50523106695E+02  0.50523106695E+02  0.00000000000E+00 0. -1.
         23    2    1    2    0    0  0.17007631494E+02 -0.46147146739E+02  0.62962956332E+03  0.64379941305E+03  0.12500191420E+03 0.  0.
          5    1    3    3  502    0  0.68713331971E+01  0.26542468435E+02  0.43257415671E+03  0.43346765612E+03  0.47000000000E+01 0. -1.
         -5    1    3    3    0  502  0.10136298297E+02 -0.72689615174E+02  0.19705540661E+03  0.21033175693E+03  0.47000000000E+01 0. -1.
        -11    1    1    2    0    0 -0.25842246349E+02  0.70927886923E+02  0.63031987587E+01  0.75751680868E+02  0.00000000000E+00 0.  1.
         11    1    1    2    0    0  0.88346148550E+01 -0.24780740184E+02  0.11143191645E+02  0.28571073199E+02  0.00000000000E+00 0. -1.
<mgrwt>
<rscale>  0 0.12565575E+03</rscale>
<asrwt>0</asrwt>
<pdfrwt beam="2">  1        1 0.77727862E-02 0.13432906E+03</pdfrwt>
<pdfrwt beam="1">  1       -1 0.10732293E+00 0.13432906E+03</pdfrwt>
<totfact> 0.76803485E+02</totfact>
</mgrwt>
</event>
<event>
 7    1  0.4230786E-006  0.1717273E+03  0.7546771E-02  0.1182259E+00
         -1   -1    0    0    0  501 -0.00000000000E+00  0.00000000000E+00  0.54585123780E+02  0.54585123780E+02  0.00000000000E+00 0.  1.
          1   -1    0    0  501    0  0.00000000000E+00 -0.00000000000E+00 -0.57284129431E+03  0.57284129431E+03  0.00000000000E+00 0. -1.
         23    2    1    2    0    0  0.96123954590E+02 -0.70685327414E+02 -0.14275973402E+03  0.22331730261E+03  0.12350727035E+03 0.  0.
          5    1    3    3  502    0  0.71206875454E+02  0.15426320817E+02 -0.10018433975E+03  0.12396524681E+03  0.47000000000E+01 0. -1.
         -5    1    3    3    0  502  0.24917079136E+02 -0.86111648231E+02 -0.42575394273E+02  0.99352055798E+02  0.47000000000E+01 0.  1.
        -11    1    1    2    0    0 -0.56659742674E+02  0.58960765678E+02 -0.34017207648E+03  0.34986245861E+03  0.00000000000E+00 0. -1.
         11    1    1    2    0    0 -0.39464211916E+02  0.11724561736E+02 -0.35324360026E+02  0.54246656868E+02  0.00000000000E+00 0.  1.
<mgrwt>
<rscale>  0 0.16583788E+03</rscale>
<asrwt>0</asrwt>
<pdfrwt beam="2">  1        1 0.88129432E-01 0.17172733E+03</pdfrwt>
<pdfrwt beam="1">  1       -1 0.83977112E-02 0.17172733E+03</pdfrwt>
<totfact> 0.29498468E+03</totfact>
</mgrwt>
</event>
<event>
 7    1  0.4230786E-006  0.2118498E+03  0.7546771E-02  0.1143870E+00
          2   -1    0    0  501    0  0.00000000000E+00  0.00000000000E+00  0.49244576306E+03  0.49244576306E+03  0.00000000000E+00 0. -1.
         -2   -1    0    0    0  501 -0.00000000000E+00 -0.00000000000E+00 -0.83733945563E+02  0.83733945563E+02  0.00000000000E+00 0.  1.
         23    2    1    2    0    0  0.51309304308E+02 -0.16317009133E+03  0.19625114880E+03  0.28878165819E+03  0.12499283693E+03 0.  0.
          5    1    3    3  502    0  0.55549992152E+02 -0.64063132296E+02  0.21210862247E+02  0.87532149664E+02  0.47000000000E+01 0.  1.
         -5    1    3    3    0  502 -0.42406878445E+01 -0.99106959035E+02  0.17504028656E+03  0.20124950852E+03  0.47000000000E+01 0.  1.
        -11    1    1    2    0    0 -0.65504723750E+02  0.77981096107E+02  0.14789105086E+03  0.17956526142E+03  0.00000000000E+00 0.  1.
         11    1    1    2    0    0  0.14195419443E+02  0.85188995223E+02  0.64569617835E+02  0.10783278902E+03  0.00000000000E+00 0. -1.
<mgrwt>
<rscale>  0 0.20711629E+03</rscale>
<asrwt>0</asrwt>
<pdfrwt beam="1">  1        2 0.75760885E-01 0.21184979E+03</pdfrwt>
<pdfrwt beam="2">  1       -2 0.12882146E-01 0.21184979E+03</pdfrwt>
<totfact> 0.27604189E+03</totfact>
</mgrwt>
</event>
<event>
 7    1  0.4230786E-006  0.2484459E+03  0.7546771E-02  0.1116824E+00
         -3   -1    0    0    0  501 -0.00000000000E+00  0.00000000000E+00  0.74089417703E+03  0.74089417703E+03  0.00000000000E+00 0.  1.
          3   -1    0    0  501    0  0.00000000000E+00 -0.00000000000E+00 -0.78442693374E+02  0.78442693374E+02  0.00000000000E+00 0. -1.
         23    2    1    2    0    0  0.15883772583E+03  0.14447079143E+03  0.32078789767E+03  0.40574651938E+03  0.12499651985E+03 0.  0.
          5    1    3    3  502    0  0.33316732492E+02  0.64412086907E+02  0.29202454886E+02  0.78318548091E+02  0.47000000000E+01 0. -1.
         -5    1    3    3    0  502  0.12552099334E+03  0.80058704521E+02  0.29158544278E+03  0.32742797129E+03  0.47000000000E+01 0. -1.
        -11    1    1    2    0    0 -0.31944859175E+02  0.75422460698E+01  0.71070603563E+02  0.78284035373E+02  0.00000000000E+00 0.  1.
         11    1    1    2    0    0 -0.12689286666E+03 -0.15201303750E+03  0.27059298243E+03  0.33530631565E+03  0.00000000000E+00 0. -1.
<mgrwt>
<rscale>  0 0.24451010E+03</rscale>
<asrwt>0</asrwt>
<pdfrwt beam="2">  1        3 0.12068107E-01 0.24844589E+03</pdfrwt>
<pdfrwt beam="1">  1       -3 0.11398371E+00 0.24844589E+03</pdfrwt>
<totfact> 0.89315950E+01</totfact>
</mgrwt>
</event>
<event>
 7    1  0.4230786E-006  0.1440159E+03  0.7546771E-02  0.1217733E+00
          1   -1    0    0  501    0  0.00000000000E+00  0.00000000000E+00  0.70918800450E+03  0.70918800450E+03  0.00000000000E+00 0. -1.
         -1   -1    0    0    0  501 -0.00000000000E+00 -0.00000000000E+00 -0.34131116912E+02  0.34131116912E+02  0.00000000000E+00 0.  1.
         23    2    1    2    0    0 -0.30545080097E+02  0.64676556611E+02  0.16071717080E+03  0.21580220759E+03  0.12499809966E+03 0.  0.
          5    1    3    3  502    0  0.13258980991E+02  0.66955444626E+02  0.24584499794E+02  0.72700204760E+02  0.47000000000E+01 0. -1.
         -5    1    3    3    0  502 -0.43804061088E+02 -0.22788880151E+01  0.13613267101E+03  0.14310200283E+03  0.47000000000E+01 0. -1.
        -11    1    1    2    0    0 -0.19933222264E+02  0.13338781007E+02  0.91908102944E+02  0.94986082219E+02  0.00000000000E+00 0.  1.
         11    1    1    2    0    0  0.50478302362E+02 -0.78015337619E+02  0.42243161385E+03  0.43253083160E+03  0.00000000000E+00 0. -1.
<mgrwt>
<rscale>  0 0.13677658E+03</rscale>
<asrwt>0</asrwt>
<pdfrwt beam="1">  1        1 0.10910584E+00 0.14401592E+03</pdfrwt>
<pdfrwt beam="2">  1       -1 0.52509416E-02 0.14401592E+03</pdfrwt>
<totfact> 0.44044854E+03</totfact>
</mgrwt>
</event>
<event>
 7    1  0.4230786E-006  0.1864785E+03  0.7546771E-02  0.1166666E+00
          1   -1    0    0  501    0  0.00000000000E+00  0.00000000000E+00  0.45228887738E+03  0.45228887738E+03  0.00000000000E+00 0. -1.
         -1   -1    0    0    0  501 -0.00000000000E+00 -0.00000000000E+00 -0.76519529280E+02  0.76519529280E+02  0.00000000000E+00 0.  1.
         23    2    1    2    0    0 -0.18279185990E+02  0.13716694924E+03  0.11342269181E+03  0.21826347139E+03  0.12500134129E+03 0.  0.
          5    1    3    3  502    0  0.23314423802E+02 -0.29975930306E+01 -0.10857773620E+02  0.26315948951E+02  0.47000000000E+01 0. -1.
         -5    1    3    3    0  502 -0.41593609792E+02  0.14016454227E+03  0.12428046543E+03  0.19194752244E+03  0.47000000000E+01 0. -1.
        -11    1    1    2    0    0  0.42850598309E+02 -0.70100163173E+02  0.79855086845E+02  0.11457330207E+03  0.00000000000E+00 0.  1.
         11    1    1    2    0    0 -0.24571412320E+02 -0.67066786067E+02  0.18249156945E+03  0.19597163319E+03  0.00000000000E+00 0. -1.
<mgrwt>
<rscale>  0 0.18117972E+03</rscale>
<asrwt>0</asrwt>
<pdfrwt beam="1">  1        1 0.69582903E-01 0.18647851E+03</pdfrwt>
<pdfrwt beam="2">  1       -1 0.11772236E-01 0.18647851E+03</pdfrwt>
<totfact> 0.24057247E+03</totfact>
</mgrwt>
</event>
<event>
 7    1  0.4230786E-006  0.1329949E+03  0.7546771E-02  0.1235306E+00
         -3   -1    0    0    0  501 -0.00000000000E+00  0.00000000000E+00  0.41520765931E+03  0.41520765931E+03  0.00000000000E+00 0.  1.
          3   -1    0    0  501    0  0.00000000000E+00 -0.00000000000E+00 -0.53989681835E+02  0.53989681835E+02  0.00000000000E+00 0. -1.
         23    2    1    2    0    0 -0.45209035075E+02 -0.42938570892E+01  0.33815705438E+03  0.36337012075E+03  0.12500142864E+03 0.  0.
          5    1    3    3  502    0 -0.66555242463E+02 -0.44775461032E+02  0.15581065373E+03  0.17530970317E+03  0.47000000000E+01 0.  1.
         -5    1    3    3    0  502  0.21346207389E+02  0.40481603943E+02  0.18234640066E+03  0.18806041758E+03  0.47000000000E+01 0.  1.
        -11    1    1    2    0    0  0.31121319829E+02  0.48070449522E+02  0.14083781745E+02  0.58971667548E+02  0.00000000000E+00 0. -1.
         11    1    1    2    0    0  0.14087715246E+02 -0.43776592433E+02  0.89771413429E+01  0.46855552847E+02  0.00000000000E+00 0.  1.
<mgrwt>
<rscale>  0 0.12484887E+03</rscale>
<asrwt>0</asrwt>
<pdfrwt beam="2">  1        3 0.83061052E-02 0.13299493E+03</pdfrwt>
<pdfrwt beam="1">  1       -3 0.63878099E-01 0.13299493E+03</pdfrwt>
<totfact> 0.55972565E+02</totfact>
</mgrwt>
</event>
<event>
 7    1  0.4230786E-006  0.1529527E+03  0.7546771E-02  0.1205637E+00
          2   -1    0    0  501    0  0.00000000000E+00  0.00000000000E+00  0.14988046855E+03  0.14988046855E+03  0.00000000000E+00 0. -1.
         -2   -1    0    0    0  501 -0.00000000000E+00 -0.00000000000E+00 -0.13908725307E+03  0.13908725307E+03  0.00000000000E+00 0.  1.
         23    2    1    2    0    0 -0.85760599268E+02  0.20390828103E+02 -0.30289509862E+02  0.15592303199E+03  0.12499548488E+03 0.  0.
          5    1    3    3  502    0  0.64264807001E+01 -0.17349461779E+02  0.32776904114E+02  0.37930448475E+02  0.47000000000E+01 0.  1.
         -5    1    3    3    0  502 -0.92187079968E+02  0.37740289882E+02 -0.63066413976E+02  0.11799258352E+03  0.47000000000E+01 0.  1.
        -11    1    1    2    0    0 -0.98086289734E+00  0.16394563098E+02 -0.15961746802E+02  0.22902426774E+02  0.00000000000E+00 0.  1.
         11    1    1    2    0    0  0.86741462165E+02 -0.36785391201E+02  0.57044472141E+02  0.11014226285E+03  0.00000000000E+00 0. -1.
<mgrwt>
<rscale>  0 0.14587382E+03</rscale>
<asrwt>0</asrwt>
<pdfrwt beam="1">  1        2 0.23058534E-01 0.15295273E+03</pdfrwt>
<pdfrwt beam="2">  1       -2 0.21398039E-01 0.15295273E+03</pdfrwt>
<totfact> 0.42517979E+03</totfact>
</mgrwt>
</event>
<event>
 7    1  0.4230786E-006  0.1310545E+03  0.7546771E-02  0.1240961E+00
          2   -1    0    0  501    0  0.00000000000E+00  0.00000000000E+00  0.19967888039E+03  0.19967888039E+03  0.00000000000E+00 0. -1.
         -2   -1    0    0    0  501 -0.00000000000E+00 -0.00000000000E+00 -0.65205971957E+02  0.65205971957E+02  0.00000000000E+00 0.  1.
         23    2    1    2    0    0  0.17407998257E+02 -0.35335581489E+02  0.65443869357E+02  0.14648610380E+03  0.12499454727E+03 0.  0.
          5    1    3    3  502    0  0.24494770109E+02  0.43599165690E+02  0.36054098230E+02  0.61829353957E+02  0.47000000000E+01 0. -1.
         -5    1    3    3    0  502 -0.70867718519E+01 -0.78934747179E+02  0.29389771126E+02  0.84656749845E+02  0.47000000000E+01 0. -1.
        -11    1    1    2    0    0  0.83822419803E+01 -0.22762132141E+02 -0.40897297917E+00  0.24259923725E+02  0.00000000000E+00 0. -1.
         11    1    1    2    0    0 -0.25790240237E+02  0.58097713630E+02  0.69438012060E+02  0.94138824824E+02  0.00000000000E+00 0.  1.
<mgrwt>
<rscale>  0 0.12130417E+03</rscale>
<asrwt>0</asrwt>
<pdfrwt beam="1">  1        2 0.30719827E-01 0.13105449E+03</pdfrwt>
<pdfrwt beam="2">  1       -2 0.10031688E-01 0.13105449E+03</pdfrwt>
<totfact> 0.10593556E+04</totfact>
</mgrwt>
</event>
<event>
 7    1  0.4230786E-006  0.1296752E+03  0.7546771E-02  0.1240473E+00
         -1   -1    0    0    0  501 -0.00000000000E+00  0.00000000000E+00  0.14248507856E+03  0.14248507856E+03  0.00000000000E+00 0.  1.
          1   -1    0    0  501    0  0.00000000000E+00 -0.00000000000E+00 -0.19209509341E+03  0.19209509341E+03  0.00000000000E+00 0. -1.
         23    2    1    2    0    0  0.36089108507E+02  0.26058304510E+02  0.93473621474E+02  0.15985300257E+03  0.12179575335E+03 0.  0.
          5    1    3    3  502    0  0.50511377549E+01  0.71577526244E+02  0.37207934785E+02  0.80965280626E+02  0.47000000000E+01 0. -1.
         -5    1    3    3    0  502  0.31037970752E+02 -0.45519221734E+02  0.56265686689E+02  0.78887721949E+02  0.47000000000E+01 0.  1.
        -11    1    1    2    0    0 -0.97261600394E+01  0.25921233744E+02 -0.95666809822E+02  0.99592404577E+02  0.00000000000E+00 0.  1.
         11    1    1    2    0    0 -0.26362948468E+02 -0.51979538254E+02 -0.47416826503E+02  0.75134764820E+02  0.00000000000E+00 0. -1.
<mgrwt>
<rscale>  0 0.12160445E+03</rscale>
<asrwt>0</asrwt>
<pdfrwt beam="2">  1        1 0.29553091E-01 0.12967523E+03</pdfrwt>
<pdfrwt beam="1">  1       -1 0.21920781E-01 0.12967523E+03</pdfrwt>
<totfact> 0.25917130E+03</totfact>
</mgrwt>
</event>
<event>
 7    1  0.4230786E-006  0.1406328E+03  0.7546771E-02  0.1223955E+00
          1   -1    0    0  501    0  0.00000000000E+00  0.00000000000E+00  0.32353853908E+03  0.32353853908E+03  0.00000000000E+00 0. -1.
         -1   -1    0    0    0  501 -0.00000000000E+00 -0.00000000000E+00 -0.63489266834E+02  0.63489266834E+02  0.00000000000E+00 0.  1.
         23    2    1    2    0    0  0.61711244258E+02 -0.18516207482E+02  0.49174112884E+02  0.14898215723E+03  0.12500584862E+03 0.  0.
          5    1    3    3  502    0  0.54925843583E+02  0.44139089541E+02  0.29444361209E+01  0.70681448930E+02  0.47000000000E+01 0.  1.
         -5    1    3    3    0  502  0.67854006752E+01 -0.62655297023E+02  0.46229676763E+02  0.78300708305E+02  0.47000000000E+01 0.  1.
        -11    1    1    2    0    0 -0.52108490038E+02 -0.14505788942E+02  0.50415451089E+02  0.73942074324E+02  0.00000000000E+00 0.  1.
         11    1    1    2    0    0 -0.96027542197E+01  0.33021996425E+02  0.16045970828E+03  0.16410357436E+03  0.00000000000E+00 0. -1.
<mgrwt>
<rscale>  0 0.13238794E+03</rscale>
<asrwt>0</asrwt>
<pdfrwt beam="1">  1        1 0.49775159E-01 0.14063282E+03</pdfrwt>
<pdfrwt beam="2">  1       -1 0.97675797E-02 0.14063282E+03</pdfrwt>
<totfact> 0.48410270E+03</totfact>
</mgrwt>
</event>
<event>
 7    1  0.4230786E-006  0.1340314E+03  0.7546771E-02  0.1232890E+00
          1   -1    0    0  501    0  0.00000000000E+00  0.00000000000E+00  0.43166319682E+03  0.43166319682E+03  0.00000000000E+00 0. -1.
         -1   -1    0    0    0  501 -0.00000000000E+00 -0.00000000000E+00 -0.37782265776E+02  0.37782265776E+02  0.00000000000E+00 0.  1.
         23    2    1    2    0    0 -0.19715262002E+02  0.44171805575E+02  0.13756615143E+03  0.19206474457E+03  0.12499832048E+03 0.  0.
          5    1    3    3  502    0  0.14205501650E+02  0.81337896846E+02  0.95307812393E+02  0.12618763348E+03  0.47000000000E+01 0. -1.
         -5    1    3    3    0  502 -0.33920763652E+02 -0.37166091270E+02  0.42258339041E+02  0.65877111090E+02  0.47000000000E+01 0. -1.
        -11    1    1    2    0    0 -0.26958850846E+02 -0.42383057424E+02  0.18821158140E+03  0.19479913391E+03  0.00000000000E+00 0. -1.
         11    1    1    2    0    0  0.46674112848E+02 -0.17887481516E+01  0.68103198207E+02  0.82581584122E+02  0.00000000000E+00 0.  1.
<mgrwt>
<rscale>  0 0.12640500E+03</rscale>
<asrwt>0</asrwt>
<pdfrwt beam="1">  1        1 0.66409719E-01 0.13403141E+03</pdfrwt>
<pdfrwt beam="2">  1       -1 0.58126566E-02 0.13403141E+03</pdfrwt>
<totfact> 0.73432541E+03</totfact>
</mgrwt>
</event>
<event>
 7    1  0.4230786E-006  0.4104395E+03  0.7546771E-02  0.1040962E+00
         -2   -1    0    0    0  501 -0.00000000000E+00  0.00000000000E+00  0.34978487447E+03  0.34978487447E+03  0.00000000000E+00 0. -1.
          2   -1    0    0  501    0  0.00000000000E+00 -0.00000000000E+00 -0.47515734540E+03  0.47515734540E+03  0.00000000000E+00 0.  1.
         23    2    1    2    0    0 -0.32098293947E+03 -0.22317032359E+03 -0.99796202626E+02  0.42239777130E+03  0.12500221747E+03 0.  0.
          5    1    3    3  502    0 -0.11498703958E+03 -0.14960909733E+03 -0.71273899637E+02  0.20175965911E+03  0.47000000000E+01 0.  1.
         -5    1    3    3    0  502 -0.20599589989E+03 -0.73561226266E+02 -0.28522302989E+02  0.22063811219E+03  0.47000000000E+01 0.  1.
        -11    1    1    2    0    0  0.24012570051E+03  0.17743410801E+03  0.19668850987E+02  0.29921577236E+03  0.00000000000E+00 0. -1.
         11    1    1    2    0    0  0.80857238962E+02  0.45736215584E+02 -0.45245119283E+02  0.10332867621E+03  0.00000000000E+00 0.  1.
<mgrwt>
<rscale>  0 0.40824487E+03</rscale>
<asrwt>0</asrwt>
<pdfrwt beam="2">  1        2 0.73101130E-01 0.41043951E+03</pdfrwt>
<pdfrwt beam="1">  1       -2 0.53813058E-01 0.41043951E+03</pdfrwt>
<totfact> 0.21797181E+02</totfact>
</mgrwt>
</event>
<event>
 7    1  0.4230786E-006  0.1534389E+03  0.7546771E-02  0.1205091E+00
         -1   -1    0    0    0  501 -0.00000000000E+00  0.00000000000E+00  0.70944666413E+02  0.70944666413E+02  0.00000000000E+00 0.  1.
          1   -1    0    0  501    0  0.00000000000E+00 -0.00000000000E+00 -0.35092605822E+03  0.35092605822E+03  0.00000000000E+00 0. -1.
         23    2    1    2    0    0  0.22744175291E+02 -0.86029725728E+02 -0.53871264176E+02  0.16262106855E+03  0.12500035046E+03 0.  0.
          5    1    3    3  502    0  0.32320790840E+02 -0.69751070771E+02 -0.91896903607E+02  0.11990402949E+03  0.47000000000E+01 0.  1.
         -5    1    3    3    0  502 -0.95766155494E+01 -0.16278654957E+02  0.38025639431E+02  0.42717039068E+02  0.47000000000E+01 0.  1.
        -11    1    1    2    0    0 -0.11915960478E+01  0.56417165108E+02 -0.21300066718E+03  0.22034881584E+03  0.00000000000E+00 0. -1.
         11    1    1    2    0    0 -0.21552579243E+02  0.29612560620E+02 -0.13109460450E+02  0.38900840245E+02  0.00000000000E+00 0.  1.
<mgrwt>
<rscale>  0 0.14630289E+03</rscale>
<asrwt>0</asrwt>
<pdfrwt beam="2">  1        1 0.53988624E-01 0.15343891E+03</pdfrwt>
<pdfrwt beam="1">  1       -1 0.10914564E-01 0.15343891E+03</pdfrwt>
<totfact> 0.37063436E+03</totfact>
</mgrwt>
</event>
<event>
 7    1  0.4230786E-006  0.1508161E+03  0.7546771E-02  0.1209578E+00
         -2   -1    0    0    0  501 -0.00000000000E+00  0.00000000000E+00  0.49690057923E+02  0.49690057923E+02  0.00000000000E+00 0.  1.
          2   -1    0    0  501    0  0.00000000000E+00 -0.00000000000E+00 -0.39703959893E+03  0.39703959893E+03  0.00000000000E+00 0. -1.
         23    2    1    2    0    0 -0.82564932138E+02 -0.17406302001E+02 -0.13618253662E+03  0.20320229544E+03  0.12500216888E+03 0.  0.
          5    1    3    3  502    0  0.18551161140E+02  0.42300570807E+01  0.11599451034E+02  0.22774464359E+02  0.47000000000E+01 0.  1.
         -5    1    3    3    0  502 -0.10111609328E+03 -0.21636359082E+02 -0.14778198765E+03  0.18042783108E+03  0.47000000000E+01 0.  1.
        -11    1    1    2    0    0  0.88430800596E+02  0.38767649630E+02 -0.18874283203E+03  0.21200658904E+03  0.00000000000E+00 0.  1.
         11    1    1    2    0    0 -0.58658684587E+01 -0.21361347629E+02 -0.22424172357E+02  0.31520772376E+02  0.00000000000E+00 0. -1.
<mgrwt>
<rscale>  0 0.14282438E+03</rscale>
<asrwt>0</asrwt>
<pdfrwt beam="2">  1        2 0.61083012E-01 0.15081608E+03</pdfrwt>
<pdfrwt beam="1">  1       -2 0.76446247E-02 0.15081608E+03</pdfrwt>
<totfact> 0.78460839E+03</totfact>
</mgrwt>
</event>
<event>
 7    1  0.4230786E-006  0.1373318E+03  0.7546771E-02  0.1230220E+00
          2   -1    0    0  501    0  0.00000000000E+00  0.00000000000E+00  0.14409482445E+03  0.14409482445E+03  0.00000000000E+00 0. -1.
         -2   -1    0    0    0  501 -0.00000000000E+00 -0.00000000000E+00 -0.10417559156E+03  0.10417559156E+03  0.00000000000E+00 0.  1.
         23    2    1    2    0    0  0.93093966196E+01  0.56108232479E+02  0.17151891638E+01  0.13734250203E+03  0.12500088949E+03 0.  0.
          5    1    3    3  502    0  0.11489218900E+02  0.74198787071E+01  0.59713571842E+02  0.61439868270E+02  0.47000000000E+01 0.  1.
         -5    1    3    3    0  502 -0.21798222800E+01  0.48688353772E+02 -0.57998382678E+02  0.75902633759E+02  0.47000000000E+01 0.  1.
        -11    1    1    2    0    0 -0.34103071120E+02 -0.32724150867E+02 -0.13362365387E+02  0.49116619575E+02  0.00000000000E+00 0.  1.
         11    1    1    2    0    0  0.24793674501E+02 -0.23384081613E+02  0.51566409113E+02  0.61811294412E+02  0.00000000000E+00 0. -1.
<mgrwt>
<rscale>  0 0.12815462E+03</rscale>
<asrwt>0</asrwt>
<pdfrwt beam="1">  1        2 0.22168435E-01 0.13733179E+03</pdfrwt>
<pdfrwt beam="2">  1       -2 0.16027014E-01 0.13733179E+03</pdfrwt>
<totfact> 0.71668331E+03</totfact>
</mgrwt>
</event>
<event>
 7    1  0.6418442E-006  0.2045972E+03  0.7546771E-02  0.1149798E+00
         -3   -1    0    0    0  501 -0.00000000000E+00  0.00000000000E+00  0.62682567067E+02  0.62682567067E+02  0.00000000000E+00 0.  1.
          3   -1    0    0  501    0  0.00000000000E+00 -0.00000000000E+00 -0.61641888258E+03  0.61641888258E+03  0.00000000000E+00 0. -1.
         23    2    1    2    0    0  0.10339187839E+03  0.12468155904E+03 -0.25551814740E+03  0.32733707057E+03  0.12499864973E+03 0.  0.
          5    1    3    3  502    0  0.90506240013E+02  0.76472092390E+02 -0.75746738015E+02  0.14070898591E+03  0.47000000000E+01 0. -1.
         -5    1    3    3    0  502  0.12885638377E+02  0.48209466654E+02 -0.17977140938E+03  0.18662808466E+03  0.47000000000E+01 0. -1.
        -11    1    1    2    0    0 -0.93585375384E+02 -0.41694213210E+02 -0.15084883873E+03  0.18235131490E+03  0.00000000000E+00 0.  1.
         11    1    1    2    0    0 -0.98065030057E+01 -0.82987345834E+02 -0.14736932939E+03  0.16941306418E+03  0.00000000000E+00 0. -1.
<mgrwt>
<rscale>  0 0.19993031E+03</rscale>
<asrwt>0</asrwt>
<pdfrwt beam="2">  1        3 0.94833673E-01 0.20459725E+03</pdfrwt>
<pdfrwt beam="1">  1       -3 0.96434720E-02 0.20459725E+03</pdfrwt>
<totfact> 0.19626964E+02</totfact>
</mgrwt>
</event>
<event>
 7    1  0.4230786E-006  0.1317274E+03  0.7546771E-02  0.1239910E+00
          2   -1    0    0  501    0  0.00000000000E+00  0.00000000000E+00  0.18086868656E+03  0.18086868656E+03  0.00000000000E+00 0. -1.
         -2   -1    0    0    0  501 -0.00000000000E+00 -0.00000000000E+00 -0.73599398191E+02  0.73599398191E+02  0.00000000000E+00 0.  1.
         23    2    1    2    0    0  0.41360257564E+02 -0.40915928222E+01  0.44131787816E+02  0.13892339501E+03  0.12499873179E+03 0.  0.
          5    1    3    3  502    0  0.36627338974E+01 -0.15835714620E+00  0.83710316158E+02  0.83922271941E+02  0.47000000000E+01 0. -1.
         -5    1    3    3    0  502  0.37697523666E+02 -0.39332356760E+01 -0.39578528342E+02  0.55001123072E+02  0.47000000000E+01 0. -1.
        -11    1    1    2    0    0 -0.64938453603E+02  0.32238853008E+01  0.22963210333E+02  0.68954370576E+02  0.00000000000E+00 0.  1.
         11    1    1    2    0    0  0.23578196039E+02  0.86770752145E+00  0.40174290218E+02  0.46590319159E+02  0.00000000000E+00 0. -1.
<mgrwt>
<rscale>  0 0.12195258E+03</rscale>
<asrwt>0</asrwt>
<pdfrwt beam="1">  1        2 0.27825952E-01 0.13172735E+03</pdfrwt>
<pdfrwt beam="2">  1       -2 0.11322984E-01 0.13172735E+03</pdfrwt>
<totfact> 0.97455869E+03</totfact>
</mgrwt>
</event>
<event>
 7    1  0.4230786E-006  0.1390216E+03  0.7546771E-02  0.1225565E+00
          2   -1    0    0  501    0  0.00000000000E+00  0.00000000000E+00  0.38572891818E+03  0.38572891818E+03  0.00000000000E+00 0. -1.
         -2   -1    0    0    0  501 -0.00000000000E+00 -0.00000000000E+00 -0.45834503962E+02  0.45834503962E+02  0.00000000000E+00 0.  1.
         23    2    1    2    0    0 -0.60844168162E+02  0.12714240471E+01  0.11294724102E+03  0.17912030088E+03  0.12499349430E+03 0.  0.
          5    1    3    3  502    0 -0.24010851365E+02 -0.38248435112E+02 -0.84300372077E+01  0.46180291241E+02  0.47000000000E+01 0.  1.
         -5    1    3    3    0  502 -0.36833316797E+02  0.39519859159E+02  0.12137727822E+03  0.13294000964E+03  0.47000000000E+01 0.  1.
        -11    1    1    2    0    0  0.82199929368E+02 -0.15458859835E+02  0.18859628355E+03  0.20631132519E+03  0.00000000000E+00 0. -1.
         11    1    1    2    0    0 -0.21355761205E+02  0.14187435788E+02  0.38350889651E+02  0.46131796062E+02  0.00000000000E+00 0.  1.
<mgrwt>
<rscale>  0 0.13128247E+03</rscale>
<asrwt>0</asrwt>
<pdfrwt beam="1">  1        2 0.59342908E-01 0.13902159E+03</pdfrwt>
<pdfrwt beam="2">  1       -2 0.70514624E-02 0.13902159E+03</pdfrwt>
<totfact> 0.91134246E+03</totfact>
</mgrwt>
</event>
<event>
 7    1  0.4230786E-006  0.1257842E+03  0.7546771E-02  0.1249240E+00
         -1   -1    0    0    0  501 -0.00000000000E+00  0.00000000000E+00  0.18271652340E+03  0.18271652340E+03  0.00000000000E+00 0.  1.
          1   -1    0    0  501    0  0.00000000000E+00 -0.00000000000E+00 -0.10239778941E+03  0.10239778941E+03  0.00000000000E+00 0. -1.
         23    2    1    2    0    0 -0.88608759218E+01 -0.10667956964E+02  0.12965267535E+03  0.18064188921E+03  0.12501742072E+03 0.  0.
          5    1    3    3  502    0 -0.19368381357E+02 -0.62575054313E+02  0.41467142504E+02  0.77668433267E+02  0.47000000000E+01 0.  1.
         -5    1    3    3    0  502  0.10507505435E+02  0.51907097350E+02  0.88185532846E+02  0.10297345594E+03  0.47000000000E+01 0.  1.
        -11    1    1    2    0    0  0.11886578498E+02  0.32137179806E+02  0.14387794122E+02  0.37163122769E+02  0.00000000000E+00 0.  1.
         11    1    1    2    0    0 -0.30257025762E+01 -0.21469222842E+02 -0.63721735485E+02  0.67309300834E+02  0.00000000000E+00 0. -1.
<mgrwt>
<rscale>  0 0.11635186E+03</rscale>
<asrwt>0</asrwt>
<pdfrwt beam="2">  1        1 0.15753506E-01 0.12578424E+03</pdfrwt>
<pdfrwt beam="1">  1       -1 0.28110234E-01 0.12578424E+03</pdfrwt>
<totfact> 0.38118903E+03</totfact>
</mgrwt>
</event>
<event>
 7    1  0.4230786E-006  0.1608830E+03  0.7546771E-02  0.1195533E+00
         -4   -1    0    0    0  501 -0.00000000000E+00  0.00000000000E+00  0.11055433708E+03  0.11055433708E+03  0.00000000000E+00 0.  1.
          4   -1    0    0  501    0  0.00000000000E+00 -0.00000000000E+00 -0.27091225552E+03  0.27091225552E+03  0.00000000000E+00 0. -1.
         23    2    1    2    0    0 -0.80035046963E+02 -0.62067655770E+02  0.13110422849E+02  0.16141629739E+03  0.12500134096E+03 0.  0.
          5    1    3    3  502    0 -0.95084948576E+02 -0.32954827405E+02  0.49476058700E+02  0.11223697465E+03  0.47000000000E+01 0. -1.
         -5    1    3    3    0  502  0.15049901613E+02 -0.29112828366E+02 -0.36365635851E+02  0.49179322737E+02  0.47000000000E+01 0. -1.
        -11    1    1    2    0    0  0.46340438614E+02  0.35377140152E+02 -0.21531049624E+02  0.62149532534E+02  0.00000000000E+00 0.  1.
         11    1    1    2    0    0  0.33694608349E+02  0.26690515619E+02 -0.15193729166E+03  0.15790076267E+03  0.00000000000E+00 0. -1.
<mgrwt>
<rscale>  0 0.15409214E+03</rscale>
<asrwt>0</asrwt>
<pdfrwt beam="2">  1        4 0.41678808E-01 0.16088299E+03</pdfrwt>
<pdfrwt beam="1">  1       -4 0.17008360E-01 0.16088299E+03</pdfrwt>
<totfact> 0.29037141E+02</totfact>
</mgrwt>
</event>
<event>
 7    1  0.4230786E-006  0.1492747E+03  0.7546771E-02  0.1209721E+00
         -3   -1    0    0    0  501 -0.00000000000E+00  0.00000000000E+00  0.19222610384E+03  0.19222610384E+03  0.00000000000E+00 0.  1.
          3   -1    0    0  501    0  0.00000000000E+00 -0.00000000000E+00 -0.10488651140E+03  0.10488651140E+03  0.00000000000E+00 0. -1.
         23    2    1    2    0    0 -0.56671547310E+02  0.58707683892E+02  0.86229269197E+02  0.17239027938E+03  0.12499866054E+03 0.  0.
          5    1    3    3  502    0 -0.51984440796E+02 -0.26370428201E+02  0.12922586554E+02  0.59890440068E+02  0.47000000000E+01 0. -1.
         -5    1    3    3    0  502 -0.46871065144E+01  0.85078112093E+02  0.73306682644E+02  0.11249983931E+03  0.47000000000E+01 0. -1.
        -11    1    1    2    0    0  0.50008229029E+02 -0.67164280609E+02  0.33803148554E+02  0.90302361057E+02  0.00000000000E+00 0.  1.
         11    1    1    2    0    0  0.66633182814E+01  0.84565967177E+01 -0.32692825312E+02  0.34419974803E+02  0.00000000000E+00 0. -1.
<mgrwt>
<rscale>  0 0.14271555E+03</rscale>
<asrwt>0</asrwt>
<pdfrwt beam="2">  1        3 0.16136386E-01 0.14927465E+03</pdfrwt>
<pdfrwt beam="1">  1       -3 0.29573247E-01 0.14927465E+03</pdfrwt>
<totfact> 0.84500549E+02</totfact>
</mgrwt>
</event>
<event>
 7    1  0.4230786E-006  0.1598156E+03  0.7546771E-02  0.1196514E+00
          2   -1    0    0  501    0  0.00000000000E+00  0.00000000000E+00  0.12440732372E+03  0.12440732372E+03  0.00000000000E+00 0. -1.
         -2   -1    0    0    0  501 -0.00000000000E+00 -0.00000000000E+00 -0.18991942006E+03  0.18991942006E+03  0.00000000000E+00 0.  1.
         23    2    1    2    0    0  0.14573839139E+02  0.98506740137E+02 -0.79347575917E+02  0.17842941871E+03  0.12500018006E+03 0.  0.
          5    1    3    3  502    0  0.45129089641E+02  0.96665397629E+02 -0.16079527407E+02  0.10798830970E+03  0.47000000000E+01 0.  1.
         -5    1    3    3    0  502 -0.30555250502E+02  0.18413425081E+01 -0.63268048509E+02  0.70441109004E+02  0.47000000000E+01 0.  1.
        -11    1    1    2    0    0  0.18880054699E+02 -0.99738095315E+02  0.13628670318E+02  0.10242013853E+03  0.00000000000E+00 0.  1.
         11    1    1    2    0    0 -0.33453893837E+02  0.12313551780E+01  0.20680925801E+00  0.33477186538E+02  0.00000000000E+00 0. -1.
<mgrwt>
<rscale>  0 0.15326799E+03</rscale>
<asrwt>0</asrwt>
<pdfrwt beam="1">  1        2 0.19139588E-01 0.15981558E+03</pdfrwt>
<pdfrwt beam="2">  1       -2 0.29218372E-01 0.15981558E+03</pdfrwt>
<totfact> 0.30467865E+03</totfact>
</mgrwt>
</event>
<event>
 7    1  0.4230786E-006  0.1678481E+03  0.7546771E-02  0.1186920E+00
          2   -1    0    0  501    0  0.00000000000E+00  0.00000000000E+00  0.86208710649E+03  0.86208710649E+03  0.00000000000E+00 0. -1.
         -2   -1    0    0    0  501 -0.00000000000E+00 -0.00000000000E+00 -0.30845625514E+02  0.30845625514E+02  0.00000000000E+00 0.  1.
         23    2    1    2    0    0 -0.10090383676E+03 -0.48641198374E+02  0.31485186727E+03  0.35679780192E+03  0.12500169071E+03 0.  0.
          5    1    3    3  502    0 -0.73507760410E+02 -0.79045591041E+02  0.13828616837E+03  0.17549003010E+03  0.47000000000E+01 0. -1.
         -5    1    3    3    0  502 -0.27396076349E+02  0.30404392667E+02  0.17656569890E+03  0.18130777182E+03  0.47000000000E+01 0. -1.
        -11    1    1    2    0    0 -0.96513335470E+01  0.30460520783E+02  0.12568478349E+03  0.12968290699E+03  0.00000000000E+00 0.  1.
         11    1    1    2    0    0  0.11055517031E+03  0.18180677591E+02  0.39070483022E+03  0.40645202310E+03  0.00000000000E+00 0. -1.
<mgrwt>
<rscale>  0 0.16158435E+03</rscale>
<asrwt>0</asrwt>
<pdfrwt beam="1">  1        2 0.13262877E+00 0.16784807E+03</pdfrwt>
<pdfrwt beam="2">  1       -2 0.47454815E-02 0.16784807E+03</pdfrwt>
<totfact> 0.66731809E+03</totfact>
</mgrwt>
</event>
<event>
 7    1  0.4230786E-006  0.1235501E+03  0.7546771E-02  0.1247807E+00
          3   -1    0    0  501    0  0.00000000000E+00  0.00000000000E+00  0.28245072969E+02  0.28245072969E+02  0.00000000000E+00 0. -1.
         -3   -1    0    0    0  501 -0.00000000000E+00 -0.00000000000E+00 -0.45191442838E+03  0.45191442838E+03  0.00000000000E+00 0.  1.
         23    2    1    2    0    0  0.22079851713E+02 -0.27535375532E+02 -0.19893896018E+03  0.23418229044E+03  0.11840151401E+03 0.  0.
          5    1    3    3  502    0  0.52563480274E+02 -0.24162343457E+02 -0.35965184342E+02  0.68281203743E+02  0.47000000000E+01 0. -1.
         -5    1    3    3    0  502 -0.30483628561E+02 -0.33730320748E+01 -0.16297377584E+03  0.16590108669E+03  0.47000000000E+01 0.  1.
        -11    1    1    2    0    0  0.33440076620E+02  0.12938917954E+02 -0.13313562801E+03  0.13787947551E+03  0.00000000000E+00 0. -1.
         11    1    1    2    0    0 -0.55519928333E+02  0.14596457578E+02 -0.91594767224E+02  0.10809773540E+03  0.00000000000E+00 0.  1.
<mgrwt>
<rscale>  0 0.11718932E+03</rscale>
<asrwt>0</asrwt>
<pdfrwt beam="1">  1        3 0.43453961E-02 0.12355013E+03</pdfrwt>
<pdfrwt beam="2">  1       -3 0.69525292E-01 0.12355013E+03</pdfrwt>
<totfact> 0.13031842E+03</totfact>
</mgrwt>
</event>
<event>
 7    1  0.4230786E-006  0.2133590E+03  0.7546771E-02  0.1140669E+00
         -3   -1    0    0    0  501 -0.00000000000E+00  0.00000000000E+00  0.45078683065E+03  0.45078683065E+03  0.00000000000E+00 0.  1.
          3   -1    0    0  501    0  0.00000000000E+00 -0.00000000000E+00 -0.16734622799E+03  0.16734622799E+03  0.00000000000E+00 0. -1.
         23    2    1    2    0    0  0.16038825445E+03 -0.87711732547E+02  0.34396207245E+03  0.40476163908E+03  0.11001971186E+03 0.  0.
          5    1    3    3  502    0  0.69286144346E+02 -0.14079148262E+02  0.45776330434E+02  0.84358488857E+02  0.47000000000E+01 0. -1.
         -5    1    3    3    0  502  0.91102110100E+02 -0.73632584284E+02  0.29818574202E+03  0.32040315023E+03  0.47000000000E+01 0.  1.
        -11    1    1    2    0    0 -0.36470971135E+02  0.68460674785E+02 -0.36330544514E+02  0.85655730644E+02  0.00000000000E+00 0.  1.
         11    1    1    2    0    0 -0.12391728331E+03  0.19251057761E+02 -0.24190925275E+02  0.12771568891E+03  0.00000000000E+00 0. -1.
<mgrwt>
<rscale>  0 0.21113685E+03</rscale>
<asrwt>0</asrwt>
<pdfrwt beam="2">  1        3 0.25745574E-01 0.21335903E+03</pdfrwt>
<pdfrwt beam="1">  1       -3 0.69351820E-01 0.21335903E+03</pdfrwt>
<totfact> 0.70953380E+01</totfact>
</mgrwt>
</event>
<event>
 7    1  0.4230786E-006  0.3102908E+03  0.7546771E-02  0.1080207E+00
          1   -1    0    0  501    0  0.00000000000E+00  0.00000000000E+00  0.52287705043E+03  0.52287705043E+03  0.00000000000E+00 0. -1.
         -1   -1    0    0    0  501 -0.00000000000E+00 -0.00000000000E+00 -0.46033951760E+02  0.46033951760E+02  0.00000000000E+00 0.  1.
         23    2    1    2    0    0  0.75209772705E+01 -0.25760197154E+02  0.13069183733E+03  0.18282974106E+03  0.12500481997E+03 0.  0.
          5    1    3    3  502    0 -0.52414335276E+02 -0.20971715969E+02  0.10054353042E+03  0.11540436267E+03  0.47000000000E+01 0.  1.
         -5    1    3    3    0  502  0.59935312547E+02 -0.47884811854E+01  0.30148306914E+02  0.67425378396E+02  0.47000000000E+01 0.  1.
        -11    1    1    2    0    0  0.58340325705E+02  0.69332253074E+02  0.20943950426E+03  0.22820048392E+03  0.00000000000E+00 0.  1.
         11    1    1    2    0    0 -0.65861302975E+02 -0.43572055920E+02  0.13671175708E+03  0.15788077721E+03  0.00000000000E+00 0. -1.
<mgrwt>
<rscale>  0 0.31029081E+03</rscale>
<asrwt>0</asrwt>
<pdfrwt beam="1">  1        1 0.80442619E-01 0.31029081E+03</pdfrwt>
<pdfrwt beam="2">  1       -1 0.70821468E-02 0.31029081E+03</pdfrwt>
<totfact> 0.44128235E+03</totfact>
</mgrwt>
</event>
<event>
 7    1  0.4230786E-006  0.2312651E+03  0.7546771E-02  0.1128691E+00
          3   -1    0    0  501    0  0.00000000000E+00  0.00000000000E+00  0.82126187951E+03  0.82126187951E+03  0.00000000000E+00 0. -1.
         -3   -1    0    0    0  501 -0.00000000000E+00 -0.00000000000E+00 -0.75154375642E+02  0.75154375642E+02  0.00000000000E+00 0.  1.
         23    2    1    2    0    0 -0.14516133889E+03 -0.12956489304E+03  0.18714576313E+03  0.29750140411E+03  0.12499869190E+03 0.  0.
          5    1    3    3  502    0 -0.38502529448E+02 -0.11580035313E+03  0.82538610801E+02  0.14740040309E+03  0.47000000000E+01 0.  1.
         -5    1    3    3    0  502 -0.10665880944E+03 -0.13764539916E+02  0.10460715233E+03  0.15010100102E+03  0.47000000000E+01 0.  1.
        -11    1    1    2    0    0  0.26614308382E+02 -0.12865876446E+02  0.68134342219E+02  0.74270726246E+02  0.00000000000E+00 0. -1.
         11    1    1    2    0    0  0.11854703051E+03  0.14243076949E+03  0.49082739853E+03  0.52464412480E+03  0.00000000000E+00 0.  1.
<mgrwt>
<rscale>  0 0.22710892E+03</rscale>
<asrwt>0</asrwt>
<pdfrwt beam="1">  1        3 0.12634797E+00 0.23126511E+03</pdfrwt>
<pdfrwt beam="2">  1       -3 0.11562212E-01 0.23126511E+03</pdfrwt>
<totfact> 0.74906410E+01</totfact>
</mgrwt>
</event>
<event>
 7    1  0.4230786E-006  0.1274519E+03  0.7546771E-02  0.1245642E+00
         -2   -1    0    0    0  501 -0.00000000000E+00  0.00000000000E+00  0.35517429481E+02  0.35517429481E+02  0.00000000000E+00 0.  1.
          2   -1    0    0  501    0  0.00000000000E+00 -0.00000000000E+00 -0.35124364383E+03  0.35124364383E+03  0.00000000000E+00 0. -1.
         23    2    1    2    0    0  0.24908611235E+02  0.12134147823E+01 -0.16458352685E+03  0.20816271412E+03  0.12498826726E+03 0.  0.
          5    1    3    3  502    0  0.44015077022E+02 -0.32491440589E+02 -0.15964436800E+03  0.16882368006E+03  0.47000000000E+01 0. -1.
         -5    1    3    3    0  502 -0.19106465786E+02  0.33704855371E+02 -0.49391588489E+01  0.39339034058E+02  0.47000000000E+01 0. -1.
        -11    1    1    2    0    0  0.26169365912E+02  0.21444739961E+02 -0.88007717988E+02  0.94287173092E+02  0.00000000000E+00 0. -1.
         11    1    1    2    0    0 -0.51077977148E+02 -0.22658154743E+02 -0.63134969517E+02  0.84311186102E+02  0.00000000000E+00 0.  1.
<mgrwt>
<rscale>  0 0.11847052E+03</rscale>
<asrwt>0</asrwt>
<pdfrwt beam="2">  1        2 0.54037485E-01 0.12745187E+03</pdfrwt>
<pdfrwt beam="1">  1       -2 0.54642198E-02 0.12745187E+03</pdfrwt>
<totfact> 0.14731146E+04</totfact>
</mgrwt>
</event>
<event>
 7    1  0.4230786E-006  0.3481237E+03  0.7546771E-02  0.1064523E+00
         -3   -1    0    0    0  501 -0.00000000000E+00  0.00000000000E+00  0.92068022201E+02  0.92068022201E+02  0.00000000000E+00 0. -1.
          3   -1    0    0  501    0  0.00000000000E+00 -0.00000000000E+00 -0.13947011700E+04  0.13947011700E+04  0.00000000000E+00 0.  1.
         23    2    1    2    0    0  0.32284823389E+03  0.36269324888E+02 -0.44365859075E+03  0.56393531350E+03  0.12507456423E+03 0.  0.
          5    1    3    3  502    0  0.26932517867E+03 -0.20248516731E+02 -0.34653425042E+03  0.43937925646E+03  0.47000000000E+01 0. -1.
         -5    1    3    3    0  502  0.53523055222E+02  0.56517841618E+02 -0.97124340327E+02  0.12455605704E+03  0.47000000000E+01 0. -1.
        -11    1    1    2    0    0 -0.80608914663E+02 -0.28660658778E+01 -0.33552109386E+03  0.34508030352E+03  0.00000000000E+00 0.  1.
         11    1    1    2    0    0 -0.24223931923E+03 -0.33403259010E+02 -0.52345346320E+03  0.57775357518E+03  0.00000000000E+00 0. -1.
<mgrwt>
<rscale>  0 0.34539085E+03</rscale>
<asrwt>0</asrwt>
<pdfrwt beam="2">  1        3 0.21456940E+00 0.34812367E+03</pdfrwt>
<pdfrwt beam="1">  1       -3 0.14164312E-01 0.34812367E+03</pdfrwt>
<totfact> 0.13410253E+01</totfact>
</mgrwt>
</event>
<event>
 7    1  0.4230786E-006  0.1257267E+03  0.7546771E-02  0.1234966E+00
         -2   -1    0    0    0  501 -0.00000000000E+00  0.00000000000E+00  0.42985873809E+02  0.42985873809E+02  0.00000000000E+00 0.  1.
          2   -1    0    0  501    0  0.00000000000E+00 -0.00000000000E+00 -0.37468808112E+03  0.37468808112E+03  0.00000000000E+00 0. -1.
         23    2    1    2    0    0  0.10096527512E+02  0.89683866428E+01 -0.12632971670E+03  0.17823131993E+03  0.12499933702E+03 0.  0.
          5    1    3    3  502    0 -0.55849521096E+01 -0.41804222043E+02 -0.14805811636E+01  0.42462533972E+02  0.47000000000E+01 0.  1.
         -5    1    3    3    0  502  0.15681479621E+02  0.50772608686E+02 -0.12484913554E+03  0.13576878596E+03  0.47000000000E+01 0.  1.
        -11    1    1    2    0    0  0.39334933705E+02  0.36699998088E+02 -0.70193070558E+02  0.88437514798E+02  0.00000000000E+00 0.  1.
         11    1    1    2    0    0 -0.49431461216E+02 -0.45668384731E+02 -0.13517942005E+03  0.15100512020E+03  0.00000000000E+00 0. -1.
<mgrwt>
<rscale>  0 0.12506617E+03</rscale>
<asrwt>0</asrwt>
<pdfrwt beam="2">  1        2 0.57644318E-01 0.12572671E+03</pdfrwt>
<pdfrwt beam="1">  1       -2 0.66132116E-02 0.12572671E+03</pdfrwt>
<totfact> 0.10292133E+04</totfact>
</mgrwt>
</event>
<event>
 7    1  0.4230786E-006  0.1352650E+03  0.7546771E-02  0.1232086E+00
          2   -1    0    0  501    0  0.00000000000E+00  0.00000000000E+00  0.47764774392E+03  0.47764774392E+03  0.00000000000E+00 0. -1.
         -2   -1    0    0    0  501 -0.00000000000E+00 -0.00000000000E+00 -0.30803430613E+02  0.30803430613E+02  0.00000000000E+00 0.  1.
         23    2    1    2    0    0  0.27301047908E+02  0.43903632881E+02  0.21533419403E+03  0.25429401929E+03  0.12499502762E+03 0.  0.
          5    1    3    3  502    0 -0.21606012146E+02 -0.29828785054E+02  0.26226491766E+02  0.45458718075E+02  0.47000000000E+01 0.  1.
         -5    1    3    3    0  502  0.48907060054E+02  0.73732417936E+02  0.18910770226E+03  0.20883530122E+03  0.47000000000E+01 0.  1.
        -11    1    1    2    0    0  0.25733353458E+02  0.26776683335E+01  0.11548301631E+03  0.11834569044E+03  0.00000000000E+00 0. -1.
         11    1    1    2    0    0 -0.53034401367E+02 -0.46581301215E+02  0.11602710296E+03  0.13581146481E+03  0.00000000000E+00 0.  1.
<mgrwt>
<rscale>  0 0.12692816E+03</rscale>
<asrwt>0</asrwt>
<pdfrwt beam="1">  1        2 0.73484263E-01 0.13526505E+03</pdfrwt>
<pdfrwt beam="2">  1       -2 0.47389897E-02 0.13526505E+03</pdfrwt>
<totfact> 0.13186700E+04</totfact>
</mgrwt>
</event>
<event>
 7    1  0.4230786E-006  0.1303898E+03  0.7546771E-02  0.1240566E+00
         -4   -1    0    0    0  501 -0.00000000000E+00  0.00000000000E+00  0.10079907170E+04  0.10079907170E+04  0.00000000000E+00 0.  1.
          4   -1    0    0  501    0  0.00000000000E+00 -0.00000000000E+00 -0.13629918088E+02  0.13629918088E+02  0.00000000000E+00 0. -1.
         23    2    1    2    0    0  0.27839758409E+02 -0.24532544887E+02  0.67302493115E+03  0.68553923828E+03  0.12499836544E+03 0.  0.
          5    1    3    3  502    0  0.67529894722E+02 -0.14365872004E+02  0.57560478582E+03  0.57974962218E+03  0.47000000000E+01 0.  1.
         -5    1    3    3    0  502 -0.39690136313E+02 -0.10166672883E+02  0.97420145335E+02  0.10578961610E+03  0.47000000000E+01 0.  1.
        -11    1    1    2    0    0 -0.30578161580E+02  0.50153517576E+02  0.28809983260E+03  0.29402706139E+03  0.00000000000E+00 0.  1.
         11    1    1    2    0    0  0.27384031716E+01 -0.25620972689E+02  0.33236035155E+02  0.42054335404E+02  0.00000000000E+00 0. -1.
<mgrwt>
<rscale>  0 0.12154729E+03</rscale>
<asrwt>0</asrwt>
<pdfrwt beam="2">  1        4 0.20969113E-02 0.13038976E+03</pdfrwt>
<pdfrwt beam="1">  1       -4 0.15507544E+00 0.13038976E+03</pdfrwt>
<totfact> 0.45646069E+02</totfact>
</mgrwt>
</event>
<event>
 7    1  0.4230786E-006  0.1350455E+03  0.7546771E-02  0.1233120E+00
         -1   -1    0    0    0  501 -0.00000000000E+00  0.00000000000E+00  0.58042904434E+02  0.58042904434E+02  0.00000000000E+00 0.  1.
          1   -1    0    0  501    0  0.00000000000E+00 -0.00000000000E+00 -0.24507967570E+03  0.24507967570E+03  0.00000000000E+00 0. -1.
         23    2    1    2    0    0  0.17489527150E+02 -0.48086827037E+02 -0.11377969491E+03  0.17658741111E+03  0.12497627092E+03 0.  0.
          5    1    3    3  502    0  0.43271121610E+02  0.25960494548E+02 -0.20570993372E+02  0.54695456949E+02  0.47000000000E+01 0.  1.
         -5    1    3    3    0  502 -0.25781594460E+02 -0.74047321585E+02 -0.93208701535E+02  0.12189195416E+03  0.47000000000E+01 0.  1.
        -11    1    1    2    0    0 -0.47421123861E+02  0.37261557995E+01 -0.21908293673E+02  0.52370034915E+02  0.00000000000E+00 0.  1.
         11    1    1    2    0    0  0.29931596712E+02  0.44360671237E+02 -0.51348782686E+02  0.74165134111E+02  0.00000000000E+00 0. -1.
<mgrwt>
<rscale>  0 0.12625572E+03</rscale>
<asrwt>0</asrwt>
<pdfrwt beam="2">  1        1 0.37704565E-01 0.13504553E+03</pdfrwt>
<pdfrwt beam="1">  1       -1 0.89296776E-02 0.13504553E+03</pdfrwt>
<totfact> 0.78052610E+03</totfact>
</mgrwt>
</event>
<event>
 7    1  0.4230786E-006  0.1309493E+03  0.7546771E-02  0.1238422E+00
          2   -1    0    0  501    0  0.00000000000E+00  0.00000000000E+00  0.66935444171E+03  0.66935444171E+03  0.00000000000E+00 0. -1.
         -2   -1    0    0    0  501 -0.00000000000E+00 -0.00000000000E+00 -0.22907817761E+02  0.22907817761E+02  0.00000000000E+00 0.  1.
         23    2    1    2    0    0 -0.33624754387E+02  0.19804662936E+02  0.24080590567E+03  0.27410801192E+03  0.12499947686E+03 0.  0.
          5    1    3    3  502    0 -0.69141649335E+02  0.34651561335E+02  0.91748145434E+02  0.12008792848E+03  0.47000000000E+01 0.  1.
         -5    1    3    3    0  502  0.35516894948E+02 -0.14846898398E+02  0.14905776023E+03  0.15402008345E+03  0.47000000000E+01 0.  1.
        -11    1    1    2    0    0 -0.22913397329E+02 -0.36024922418E+02  0.17448490034E+03  0.17963240036E+03  0.00000000000E+00 0. -1.
         11    1    1    2    0    0  0.56538151716E+02  0.16220259482E+02  0.23115581794E+03  0.23852184719E+03  0.00000000000E+00 0.  1.
<mgrwt>
<rscale>  0 0.12287888E+03</rscale>
<asrwt>0</asrwt>
<pdfrwt beam="1">  1        2 0.10297759E+00 0.13094930E+03</pdfrwt>
<pdfrwt beam="2">  1       -2 0.35242802E-02 0.13094930E+03</pdfrwt>
<totfact> 0.13979372E+04</totfact>
</mgrwt>
</event>
<event>
 7    1  0.4230786E-006  0.1263092E+03  0.7546771E-02  0.1246131E+00
         -1   -1    0    0    0  501 -0.00000000000E+00  0.00000000000E+00  0.14671867992E+02  0.14671867992E+02  0.00000000000E+00 0.  1.
          1   -1    0    0  501    0  0.00000000000E+00 -0.00000000000E+00 -0.85377385811E+03  0.85377385811E+03  0.00000000000E+00 0. -1.
         23    2    1    2    0    0  0.34499276850E+02  0.71990762921E+01 -0.43978687388E+03  0.45756584964E+03  0.12129297391E+03 0.  0.
          5    1    3    3  502    0  0.56589641658E+02 -0.42557094156E+02 -0.27208774042E+03  0.28118912193E+03  0.47000000000E+01 0. -1.
         -5    1    3    3    0  502 -0.22090364809E+02  0.49756170448E+02 -0.16769913346E+03  0.17637672771E+03  0.47000000000E+01 0.  1.
        -11    1    1    2    0    0 -0.63136541678E+02 -0.16688782600E+02 -0.23959099210E+03  0.24833159657E+03  0.00000000000E+00 0.  1.
         11    1    1    2    0    0  0.28637264828E+02  0.94897063083E+01 -0.15972412413E+03  0.16254827988E+03  0.00000000000E+00 0. -1.
<mgrwt>
<rscale>  0 0.11817946E+03</rscale>
<asrwt>0</asrwt>
<pdfrwt beam="2">  1        1 0.13134984E+00 0.12630919E+03</pdfrwt>
<pdfrwt beam="1">  1       -1 0.22572102E-02 0.12630919E+03</pdfrwt>
<totfact> 0.11399529E+04</totfact>
</mgrwt>
</event>
<event>
 7    1  0.4230786E-006  0.1491141E+03  0.7546771E-02  0.1210409E+00
         -2   -1    0    0    0  501 -0.00000000000E+00  0.00000000000E+00  0.47708801583E+03  0.47708801583E+03  0.00000000000E+00 0.  1.
          2   -1    0    0  501    0  0.00000000000E+00 -0.00000000000E+00 -0.40778843925E+02  0.40778843925E+02  0.00000000000E+00 0. -1.
         23    2    1    2    0    0 -0.45898128615E+02 -0.67112461536E+02  0.29342900789E+03  0.32914372228E+03  0.12499714614E+03 0.  0.
          5    1    3    3  502    0 -0.37321872191E+02 -0.88837697413E+02  0.11945946872E+03  0.15355036077E+03  0.47000000000E+01 0.  1.
         -5    1    3    3    0  502 -0.85762564240E+01  0.21725235878E+02  0.17396953917E+03  0.17559336151E+03  0.47000000000E+01 0.  1.
        -11    1    1    2    0    0  0.68435785730E+02  0.63365741905E+02  0.83817516125E+02  0.12539557418E+03  0.00000000000E+00 0.  1.
         11    1    1    2    0    0 -0.22537657115E+02  0.37467196307E+01  0.59062647897E+02  0.63327563295E+02  0.00000000000E+00 0. -1.
<mgrwt>
<rscale>  0 0.14219209E+03</rscale>
<asrwt>0</asrwt>
<pdfrwt beam="2">  1        2 0.62736686E-02 0.14911407E+03</pdfrwt>
<pdfrwt beam="1">  1       -2 0.73398153E-01 0.14911407E+03</pdfrwt>
<totfact> 0.19421544E+03</totfact>
</mgrwt>
</event>
<event>
 7    1  0.4230786E-006  0.1321921E+03  0.7546771E-02  0.1238448E+00
          1   -1    0    0  501    0  0.00000000000E+00  0.00000000000E+00  0.14197954282E+03  0.14197954282E+03  0.00000000000E+00 0. -1.
         -1   -1    0    0    0  501 -0.00000000000E+00 -0.00000000000E+00 -0.10372579114E+03  0.10372579114E+03  0.00000000000E+00 0.  1.
         23    2    1    2    0    0 -0.38307762392E+02 -0.19452983308E+02 -0.15950554405E+02  0.13315088738E+03  0.12501534067E+03 0.  0.
          5    1    3    3  502    0 -0.13800830801E+01 -0.54099445689E+02 -0.48458931926E+02  0.72794318024E+02  0.47000000000E+01 0.  1.
         -5    1    3    3    0  502 -0.36927679312E+02  0.34646462381E+02  0.32508377521E+02  0.60356569352E+02  0.47000000000E+01 0.  1.
        -11    1    1    2    0    0  0.65174856613E+02  0.21575276488E+01  0.26960734952E+02  0.70564141667E+02  0.00000000000E+00 0.  1.
         11    1    1    2    0    0 -0.26867094222E+02  0.17295455659E+02  0.27243571134E+02  0.41990304911E+02  0.00000000000E+00 0. -1.
<mgrwt>
<rscale>  0 0.12286278E+03</rscale>
<asrwt>0</asrwt>
<pdfrwt beam="1">  1        1 0.21843007E-01 0.13219205E+03</pdfrwt>
<pdfrwt beam="2">  1       -1 0.15957814E-01 0.13219205E+03</pdfrwt>
<totfact> 0.62867976E+03</totfact>
</mgrwt>
</event>
<event>
 7    1  0.4230786E-006  0.1544784E+03  0.7546771E-02  0.1203724E+00
          1   -1    0    0  501    0  0.00000000000E+00  0.00000000000E+00  0.74859227577E+03  0.74859227577E+03  0.00000000000E+00 0. -1.
         -1   -1    0    0    0  501 -0.00000000000E+00 -0.00000000000E+00 -0.27390209745E+02  0.27390209745E+02  0.00000000000E+00 0.  1.
         23    2    1    2    0    0  0.46170785911E+02 -0.78158491474E+02  0.32987809589E+03  0.36425694121E+03  0.12499227900E+03 0.  0.
          5    1    3    3  502    0  0.11737392715E+02 -0.24425573685E+02 -0.72910582241E+00  0.27513571794E+02  0.47000000000E+01 0.  1.
         -5    1    3    3    0  502  0.34433393196E+02 -0.53732917789E+02  0.33060720171E+03  0.33674336942E+03  0.47000000000E+01 0.  1.
        -11    1    1    2    0    0 -0.44441401200E+02  0.15016030647E+01  0.21338849513E+03  0.21797234413E+03  0.00000000000E+00 0. -1.
         11    1    1    2    0    0 -0.17293847115E+01  0.76656888410E+02  0.17793547501E+03  0.19375320017E+03  0.00000000000E+00 0.  1.
<mgrwt>
<rscale>  0 0.14738438E+03</rscale>
<asrwt>0</asrwt>
<pdfrwt beam="1">  1        1 0.11516803E+00 0.15447835E+03</pdfrwt>
<pdfrwt beam="2">  1       -1 0.42138790E-02 0.15447835E+03</pdfrwt>
<totfact> 0.56554816E+03</totfact>
</mgrwt>
</event>
<event>
 7    1  0.4230786E-006  0.1381891E+03  0.7546771E-02  0.1230130E+00
          3   -1    0    0  501    0  0.00000000000E+00  0.00000000000E+00  0.22262586875E+03  0.22262586875E+03  0.00000000000E+00 0. -1.
         -3   -1    0    0    0  501 -0.00000000000E+00 -0.00000000000E+00 -0.86685498277E+02  0.86685498277E+02  0.00000000000E+00 0.  1.
         23    2    1    2    0    0  0.50632020259E+02  0.30110922232E+02 -0.11529730031E+01  0.13819392704E+03  0.12500385199E+03 0.  0.
          5    1    3    3  502    0  0.50658402808E+02  0.68520701255E+02  0.27918931163E+02  0.89793746958E+02  0.47000000000E+01 0.  1.
         -5    1    3    3    0  502 -0.26382548773E-01 -0.38409779023E+02 -0.29071904166E+02  0.48400180087E+02  0.47000000000E+01 0.  1.
        -11    1    1    2    0    0 -0.42146762775E+02 -0.56452734196E+02  0.73746745154E+02  0.10198942706E+03  0.00000000000E+00 0.  1.
         11    1    1    2    0    0 -0.84852574837E+01  0.26341811964E+02  0.63346598319E+02  0.69128012923E+02  0.00000000000E+00 0. -1.
<mgrwt>
<rscale>  0 0.12821377E+03</rscale>
<asrwt>0</asrwt>
<pdfrwt beam="1">  1        3 0.34250133E-01 0.13818912E+03</pdfrwt>
<pdfrwt beam="2">  1       -3 0.13336231E-01 0.13818912E+03</pdfrwt>
<totfact> 0.87972636E+02</totfact>
</mgrwt>
</event>
<event>
 7    1  0.4230786E-006  0.1287930E+03  0.7546771E-02  0.1243218E+00
          1   -1    0    0  501    0  0.00000000000E+00  0.00000000000E+00  0.26606155103E+03  0.26606155103E+03  0.00000000000E+00 0. -1.
         -1   -1    0    0    0  501 -0.00000000000E+00 -0.00000000000E+00 -0.48538683035E+02  0.48538683035E+02  0.00000000000E+00 0.  1.
         23    2    1    2    0    0 -0.26337216446E+02 -0.16400924850E+02  0.10513756837E+03  0.16625747651E+03  0.12500000362E+03 0.  0.
          5    1    3    3  502    0  0.39367999960E+01 -0.46647394440E+02 -0.56617772602E+01  0.47388010340E+02  0.47000000000E+01 0. -1.
         -5    1    3    3    0  502 -0.30274016442E+02  0.30246469590E+02  0.11079934563E+03  0.11886946617E+03  0.47000000000E+01 0. -1.
        -11    1    1    2    0    0  0.29632826581E+01  0.13530154567E+02 -0.14052138575E+02  0.19730907867E+02  0.00000000000E+00 0.  1.
         11    1    1    2    0    0  0.23373933788E+02  0.28707702833E+01  0.12643743819E+03  0.12861184969E+03  0.00000000000E+00 0. -1.
<mgrwt>
<rscale>  0 0.11992682E+03</rscale>
<asrwt>0</asrwt>
<pdfrwt beam="1">  1        1 0.40932545E-01 0.12879301E+03</pdfrwt>
<pdfrwt beam="2">  1       -1 0.74674899E-02 0.12879301E+03</pdfrwt>
<totfact> 0.92046117E+03</totfact>
</mgrwt>
</event>
<event>
 7    1  0.4230786E-006  0.1630198E+03  0.7546771E-02  0.1192605E+00
         -1   -1    0    0    0  501 -0.00000000000E+00  0.00000000000E+00  0.13119532956E+03  0.13119532956E+03  0.00000000000E+00 0.  1.
          1   -1    0    0  501    0  0.00000000000E+00 -0.00000000000E+00 -0.17870982476E+03  0.17870982476E+03  0.00000000000E+00 0. -1.
         23    2    1    2    0    0  0.99224340654E+02  0.33343868117E+02 -0.51845063000E+02  0.17106538977E+03  0.12497269183E+03 0.  0.
          5    1    3    3  502    0  0.69332015939E+02  0.23080956595E+02  0.33064236472E+02  0.80342969356E+02  0.47000000000E+01 0.  1.
         -5    1    3    3    0  502  0.29892324715E+02  0.10262911521E+02 -0.84909299472E+02  0.90722420419E+02  0.47000000000E+01 0.  1.
        -11    1    1    2    0    0 -0.79949822226E+02  0.16949812988E+02 -0.11895858527E+02  0.82588023856E+02  0.00000000000E+00 0.  1.
         11    1    1    2    0    0 -0.19274518428E+02 -0.50293681105E+02  0.16226426328E+02  0.56251740694E+02  0.00000000000E+00 0. -1.
<mgrwt>
<rscale>  0 0.15658707E+03</rscale>
<asrwt>0</asrwt>
<pdfrwt beam="2">  1        1 0.27493819E-01 0.16301981E+03</pdfrwt>
<pdfrwt beam="1">  1       -1 0.20183897E-01 0.16301981E+03</pdfrwt>
<totfact> 0.32750621E+03</totfact>
</mgrwt>
</event>
<event>
 7    1  0.4230786E-006  0.1636405E+03  0.7546771E-02  0.1192999E+00
          1   -1    0    0  501    0  0.00000000000E+00  0.00000000000E+00  0.11150864230E+03  0.11150864230E+03  0.00000000000E+00 0. -1.
         -1   -1    0    0    0  501 -0.00000000000E+00 -0.00000000000E+00 -0.23850192350E+03  0.23850192350E+03  0.00000000000E+00 0.  1.
         23    2    1    2    0    0 -0.56075409020E+02  0.89487639908E+02 -0.13729364582E+03  0.21360652839E+03  0.12500285835E+03 0.  0.
          5    1    3    3  502    0  0.14652406090E+02  0.19859765921E+02  0.16823605996E+02  0.30236187349E+02  0.47000000000E+01 0.  1.
         -5    1    3    3    0  502 -0.70727815110E+02  0.69627873987E+02 -0.15411725182E+03  0.18337034104E+03  0.47000000000E+01 0.  1.
        -11    1    1    2    0    0  0.38289890515E+02 -0.55182057241E+01  0.29257365446E+02  0.48503193120E+02  0.00000000000E+00 0. -1.
         11    1    1    2    0    0  0.17785518505E+02 -0.83969434184E+02 -0.18957000825E+02  0.87900844285E+02  0.00000000000E+00 0.  1.
<mgrwt>
<rscale>  0 0.15624798E+03</rscale>
<asrwt>0</asrwt>
<pdfrwt beam="1">  1        1 0.17155176E-01 0.16364047E+03</pdfrwt>
<pdfrwt beam="2">  1       -1 0.36692604E-01 0.16364047E+03</pdfrwt>
<totfact> 0.22002539E+03</totfact>
</mgrwt>
</event>
<event>
 7    1  0.4230786E-006  0.2264542E+03  0.7546771E-02  0.1132343E+00
         -1   -1    0    0    0  501 -0.00000000000E+00  0.00000000000E+00  0.11574016037E+03  0.11574016037E+03  0.00000000000E+00 0.  1.
          1   -1    0    0  501    0  0.00000000000E+00 -0.00000000000E+00 -0.41078718688E+03  0.41078718688E+03  0.00000000000E+00 0. -1.
         23    2    1    2    0    0  0.84058900919E+02 -0.16909016345E+03 -0.16097568911E+03  0.27783930267E+03  0.12499649364E+03 0.  0.
          5    1    3    3  502    0  0.47809279997E+02 -0.17831053065E+03 -0.15177237721E+03  0.23903413371E+03  0.47000000000E+01 0.  1.
         -5    1    3    3    0  502  0.36249620922E+02  0.92203671932E+01 -0.92033119004E+01  0.38805168961E+02  0.47000000000E+01 0.  1.
        -11    1    1    2    0    0 -0.39059031139E+02  0.15740846371E+03 -0.11286000016E+03  0.19758646715E+03  0.00000000000E+00 0. -1.
         11    1    1    2    0    0 -0.44999869780E+02  0.11681699742E+02 -0.21211337228E+02  0.51101577432E+02  0.00000000000E+00 0.  1.
<mgrwt>
<rscale>  0 0.22207875E+03</rscale>
<asrwt>0</asrwt>
<pdfrwt beam="2">  1        1 0.63198029E-01 0.22645420E+03</pdfrwt>
<pdfrwt beam="1">  1       -1 0.17806178E-01 0.22645420E+03</pdfrwt>
<totfact> 0.14228176E+03</totfact>
</mgrwt>
</event>
<event>
 7    1  0.4230786E-006  0.1553526E+03  0.7546771E-02  0.1203072E+00
         -2   -1    0    0    0  501 -0.00000000000E+00  0.00000000000E+00  0.18147888662E+02  0.18147888662E+02  0.00000000000E+00 0.  1.
          2   -1    0    0  501    0  0.00000000000E+00 -0.00000000000E+00 -0.11231242647E+04  0.11231242647E+04  0.00000000000E+00 0. -1.
         23    2    1    2    0    0  0.83439299014E+02 -0.39334328525E+02 -0.52995379579E+03  0.55225486993E+03  0.12500043867E+03 0.  0.
          5    1    3    3  502    0  0.98921710616E+02 -0.63032661833E+01 -0.48040227114E+03  0.49054425704E+03  0.47000000000E+01 0. -1.
         -5    1    3    3    0  502 -0.15482411602E+02 -0.33031062341E+02 -0.49551524650E+02  0.61710612892E+02  0.47000000000E+01 0. -1.
        -11    1    1    2    0    0  0.77499797216E+01  0.12722415107E+02 -0.15537545552E+02  0.21525272440E+02  0.00000000000E+00 0.  1.
         11    1    1    2    0    0 -0.91189278735E+02  0.26611913418E+02 -0.55948503468E+03  0.56749201098E+03  0.00000000000E+00 0. -1.
<mgrwt>
<rscale>  0 0.14790411E+03</rscale>
<asrwt>0</asrwt>
<pdfrwt beam="2">  1        2 0.17278835E+00 0.15535255E+03</pdfrwt>
<pdfrwt beam="1">  1       -2 0.27919828E-02 0.15535255E+03</pdfrwt>
<totfact> 0.10164431E+04</totfact>
</mgrwt>
</event>
<event>
 7    1  0.4230786E-006  0.1530488E+03  0.7546771E-02  0.1205569E+00
          1   -1    0    0  501    0  0.00000000000E+00  0.00000000000E+00  0.15890844608E+03  0.15890844608E+03  0.00000000000E+00 0. -1.
         -1   -1    0    0    0  501 -0.00000000000E+00 -0.00000000000E+00 -0.12320552527E+03  0.12320552527E+03  0.00000000000E+00 0.  1.
         23    2    1    2    0    0  0.84175978515E+02  0.26709570218E+02  0.12947353452E+02  0.15359549267E+03  0.12499977963E+03 0.  0.
          5    1    3    3  502    0  0.47740271902E+02 -0.41154242965E+02  0.36404421866E+02  0.72939544876E+02  0.47000000000E+01 0. -1.
         -5    1    3    3    0  502  0.36435706613E+02  0.67863813182E+02 -0.23457068414E+02  0.80655947794E+02  0.47000000000E+01 0. -1.
        -11    1    1    2    0    0 -0.80203937551E+02 -0.41202842365E+02 -0.11703830010E+02  0.90924834091E+02  0.00000000000E+00 0.  1.
         11    1    1    2    0    0 -0.39720409641E+01  0.14493272148E+02  0.34459397368E+02  0.37593644595E+02  0.00000000000E+00 0. -1.
<mgrwt>
<rscale>  0 0.14592669E+03</rscale>
<asrwt>0</asrwt>
<pdfrwt beam="1">  1        1 0.24447453E-01 0.15304882E+03</pdfrwt>
<pdfrwt beam="2">  1       -1 0.18954696E-01 0.15304882E+03</pdfrwt>
<totfact> 0.41869918E+03</totfact>
</mgrwt>
</event>
<event>
 7    1  0.4230786E-006  0.3559591E+03  0.7546771E-02  0.1060195E+00
         -2   -1    0    0    0  501 -0.00000000000E+00  0.00000000000E+00  0.18313351032E+03  0.18313351032E+03  0.00000000000E+00 0.  1.
          2   -1    0    0  501    0  0.00000000000E+00 -0.00000000000E+00 -0.17297064115E+03  0.17297064115E+03  0.00000000000E+00 0. -1.
         23    2    1    2    0    0  0.80226582456E+02  0.52938919866E+02  0.39951512831E+02  0.16266419941E+03  0.12499873849E+03 0.  0.
          5    1    3    3  502    0  0.49605873965E+02  0.59307907593E+02  0.80183967329E+02  0.11148869562E+03  0.47000000000E+01 0. -1.
         -5    1    3    3    0  502  0.30620708491E+02 -0.63689877277E+01 -0.40232454499E+02  0.51175503790E+02  0.47000000000E+01 0. -1.
        -11    1    1    2    0    0  0.31427392754E+02 -0.59909828453E+02  0.20635526386E+02  0.70729721545E+02  0.00000000000E+00 0.  1.
         11    1    1    2    0    0 -0.11165397521E+03  0.69709085871E+01 -0.50424170047E+02  0.12271023051E+03  0.00000000000E+00 0. -1.
<mgrwt>
<rscale>  0 0.35595910E+03</rscale>
<asrwt>0</asrwt>
<pdfrwt beam="2">  1        2 0.26610868E-01 0.35595910E+03</pdfrwt>
<pdfrwt beam="1">  1       -2 0.28174386E-01 0.35595910E+03</pdfrwt>
<totfact> 0.23099946E+03</totfact>
</mgrwt>
</event>
<event>
 7    1  0.4230786E-006  0.1323254E+03  0.7546771E-02  0.1237574E+00
         -3   -1    0    0    0  501 -0.00000000000E+00  0.00000000000E+00  0.87563372777E+02  0.87563372777E+02  0.00000000000E+00 0.  1.
          3   -1    0    0  501    0  0.00000000000E+00 -0.00000000000E+00 -0.15533738028E+03  0.15533738028E+03  0.00000000000E+00 0. -1.
         23    2    1    2    0    0 -0.16528887004E+02  0.40144971003E+02 -0.28488577738E+02  0.13535735579E+03  0.12500076761E+03 0.  0.
          5    1    3    3  502    0 -0.69552973658E+01  0.76873196556E+02  0.13567971283E+02  0.78511428180E+02  0.47000000000E+01 0.  1.
         -5    1    3    3    0  502 -0.95735896380E+01 -0.36728225553E+02 -0.42056549020E+02  0.56845927614E+02  0.47000000000E+01 0.  1.
        -11    1    1    2    0    0  0.33668789128E+02 -0.13851940019E+02  0.19206583741E+02  0.41162561420E+02  0.00000000000E+00 0.  1.
         11    1    1    2    0    0 -0.17139902124E+02 -0.26293030984E+02 -0.58492013510E+02  0.66380835846E+02  0.00000000000E+00 0. -1.
<mgrwt>
<rscale>  0 0.12341076E+03</rscale>
<asrwt>0</asrwt>
<pdfrwt beam="2">  1        3 0.23898058E-01 0.13232541E+03</pdfrwt>
<pdfrwt beam="1">  1       -3 0.13471288E-01 0.13232541E+03</pdfrwt>
<totfact> 0.16641956E+03</totfact>
</mgrwt>
</event>
<event>
 7    1  0.4230786E-006  0.2027630E+03  0.7546771E-02  0.1151544E+00
         -4   -1    0    0    0  501 -0.00000000000E+00  0.00000000000E+00  0.15753348719E+03  0.15753348719E+03  0.00000000000E+00 0.  1.
          4   -1    0    0  501    0  0.00000000000E+00 -0.00000000000E+00 -0.24747328321E+03  0.24747328321E+03  0.00000000000E+00 0. -1.
         23    2    1    2    0    0 -0.49788493672E+02  0.15168693344E+03 -0.60049257968E+01  0.20285187329E+03  0.12500001394E+03 0.  0.
          5    1    3    3  502    0 -0.79978481818E+02  0.10177529289E+03  0.31555878818E+02  0.13331403259E+03  0.47000000000E+01 0.  1.
         -5    1    3    3    0  502  0.30189988146E+02  0.49911640543E+02 -0.37560804615E+02  0.69537840700E+02  0.47000000000E+01 0.  1.
        -11    1    1    2    0    0  0.28113966484E+02 -0.13439360851E+03 -0.28582994249E+02  0.14024630006E+03  0.00000000000E+00 0.  1.
         11    1    1    2    0    0  0.21674527187E+02 -0.17293324927E+02 -0.55351875973E+02  0.61908597057E+02  0.00000000000E+00 0. -1.
<mgrwt>
<rscale>  0 0.19787488E+03</rscale>
<asrwt>0</asrwt>
<pdfrwt beam="2">  1        4 0.38072813E-01 0.20276297E+03</pdfrwt>
<pdfrwt beam="1">  1       -4 0.24235921E-01 0.20276297E+03</pdfrwt>
<totfact> 0.18955181E+02</totfact>
</mgrwt>
</event>
<event>
 7    1  0.4230786E-006  0.1433850E+03  0.7546771E-02  0.1218494E+00
         -2   -1    0    0    0  501 -0.00000000000E+00  0.00000000000E+00  0.18569801479E+03  0.18569801479E+03  0.00000000000E+00 0.  1.
          2   -1    0    0  501    0  0.00000000000E+00 -0.00000000000E+00 -0.92319649773E+02  0.92319649773E+02  0.00000000000E+00 0. -1.
         23    2    1    2    0    0  0.30598094292E+02  0.63224925393E+02  0.66872150801E+02  0.15821234964E+03  0.12500251382E+03 0.  0.
          5    1    3    3  502    0  0.27661504781E+02  0.70111446297E+02 -0.14046299217E+02  0.76812513761E+02  0.47000000000E+01 0.  1.
         -5    1    3    3    0  502  0.29365895115E+01 -0.68865209042E+01  0.80918450018E+02  0.81399835881E+02  0.47000000000E+01 0.  1.
        -11    1    1    2    0    0  0.21107568794E+02 -0.43306158963E+01 -0.19387460699E+02  0.28985467510E+02  0.00000000000E+00 0. -1.
         11    1    1    2    0    0 -0.51705663086E+02 -0.58894309497E+02  0.45893674911E+02  0.90819847408E+02  0.00000000000E+00 0.  1.
<mgrwt>
<rscale>  0 0.13622987E+03</rscale>
<asrwt>0</asrwt>
<pdfrwt beam="2">  1        2 0.14203023E-01 0.14338502E+03</pdfrwt>
<pdfrwt beam="1">  1       -2 0.28568925E-01 0.14338502E+03</pdfrwt>
<totfact> 0.44571188E+03</totfact>
</mgrwt>
</event>
<event>
 7    1  0.4230786E-006  0.1223136E+03  0.7546771E-02  0.1250360E+00
         -1   -1    0    0    0  501 -0.00000000000E+00  0.00000000000E+00  0.40682788257E+03  0.40682788257E+03  0.00000000000E+00 0.  1.
          1   -1    0    0  501    0  0.00000000000E+00 -0.00000000000E+00 -0.91670227672E+02  0.91670227672E+02  0.00000000000E+00 0. -1.
         23    2    1    2    0    0 -0.44480055293E+02  0.13683198351E+02  0.36759315029E+03  0.38740850525E+03  0.11311463461E+03 0.  0.
          5    1    3    3  502    0  0.24967478506E+02  0.14683829457E+02  0.27338952913E+02  0.40106086531E+02  0.47000000000E+01 0. -1.
         -5    1    3    3    0  502 -0.69447533799E+02 -0.10006311058E+01  0.34025419738E+03  0.34730241872E+03  0.47000000000E+01 0.  1.
        -11    1    1    2    0    0  0.98560383382E+01 -0.18763277942E+02  0.20941430614E+02  0.29795060111E+02  0.00000000000E+00 0.  1.
         11    1    1    2    0    0  0.34624016955E+02  0.50800795905E+01 -0.73376926002E+02  0.81294544886E+02  0.00000000000E+00 0. -1.
<mgrwt>
<rscale>  0 0.11570217E+03</rscale>
<asrwt>0</asrwt>
<pdfrwt beam="2">  1        1 0.14103112E-01 0.12231364E+03</pdfrwt>
<pdfrwt beam="1">  1       -1 0.62588904E-01 0.12231364E+03</pdfrwt>
<totfact> 0.10641661E+03</totfact>
</mgrwt>
</event>
<event>
 7    1  0.4230786E-006  0.1469939E+03  0.7546771E-02  0.1213827E+00
          2   -1    0    0  501    0  0.00000000000E+00  0.00000000000E+00  0.31669163436E+03  0.31669163436E+03  0.00000000000E+00 0. -1.
         -2   -1    0    0    0  501 -0.00000000000E+00 -0.00000000000E+00 -0.14150683606E+03  0.14150683606E+03  0.00000000000E+00 0.  1.
         23    2    1    2    0    0  0.77153767036E+02  0.54179360471E+01 -0.86421210137E+02  0.17051633015E+03  0.12500054195E+03 0.  0.
          5    1    3    3  502    0  0.10109892454E+03 -0.14833280567E+02 -0.92866968988E+02  0.13815709423E+03  0.47000000000E+01 0.  1.
         -5    1    3    3    0  502 -0.23945157506E+02  0.20251216615E+02  0.64457588510E+01  0.32359235923E+02  0.47000000000E+01 0.  1.
        -11    1    1    2    0    0 -0.55705392776E+02 -0.46682751336E+02  0.17203118253E+03  0.18675411058E+03  0.00000000000E+00 0.  1.
         11    1    1    2    0    0 -0.21448374260E+02  0.41264815289E+02  0.89574825914E+02  0.10092802969E+03  0.00000000000E+00 0. -1.
<mgrwt>
<rscale>  0 0.13963034E+03</rscale>
<asrwt>0</asrwt>
<pdfrwt beam="1">  1        2 0.48721790E-01 0.14699385E+03</pdfrwt>
<pdfrwt beam="2">  1       -2 0.21770283E-01 0.14699385E+03</pdfrwt>
<totfact> 0.18352099E+03</totfact>
</mgrwt>
</event>
<event>
 7    1  0.4230786E-006  0.1731101E+03  0.7546771E-02  0.1180505E+00
         -4   -1    0    0    0  501 -0.00000000000E+00  0.00000000000E+00  0.73295112032E+02  0.73295112032E+02  0.00000000000E+00 0.  1.
          4   -1    0    0  501    0  0.00000000000E+00 -0.00000000000E+00 -0.36094489070E+03  0.36094489070E+03  0.00000000000E+00 0. -1.
         23    2    1    2    0    0 -0.16360979105E+02 -0.11863729869E+03 -0.14080500348E+03  0.22314379907E+03  0.12499846310E+03 0.  0.
          5    1    3    3  502    0  0.41143595471E+02 -0.73683499871E+02 -0.28650077720E+02  0.89246683720E+02  0.47000000000E+01 0. -1.
         -5    1    3    3    0  502 -0.57504574576E+02 -0.44953798819E+02 -0.11215492576E+03  0.13389711535E+03  0.47000000000E+01 0. -1.
        -11    1    1    2    0    0  0.35189738672E+02  0.82291558727E+02 -0.14465577678E+03  0.17010441529E+03  0.00000000000E+00 0. -1.
         11    1    1    2    0    0 -0.18828759567E+02  0.36345739963E+02 -0.21889984081E+01  0.40991788377E+02  0.00000000000E+00 0.  1.
<mgrwt>
<rscale>  0 0.16747638E+03</rscale>
<asrwt>0</asrwt>
<pdfrwt beam="2">  1        4 0.55529983E-01 0.17311010E+03</pdfrwt>
<pdfrwt beam="1">  1       -4 0.11276171E-01 0.17311010E+03</pdfrwt>
<totfact> 0.33541110E+02</totfact>
</mgrwt>
</event>
<event>
 7    1  0.4230786E-006  0.1191972E+03  0.7546771E-02  0.1255871E+00
          2   -1    0    0  501    0  0.00000000000E+00  0.00000000000E+00  0.10134708349E+02  0.10134708349E+02  0.00000000000E+00 0. -1.
         -2   -1    0    0    0  501 -0.00000000000E+00 -0.00000000000E+00 -0.13808691893E+04  0.13808691893E+04  0.00000000000E+00 0.  1.
         23    2    1    2    0    0 -0.30347934854E+02 -0.10549735160E+02 -0.10440038599E+04  0.10507863914E+04  0.11478539427E+03 0.  0.
          5    1    3    3  502    0  0.22499084751E+02  0.39697375592E+02 -0.36982949832E+03  0.37266343833E+03  0.47000000000E+01 0. -1.
         -5    1    3    3    0  502 -0.52847019605E+02 -0.50247110752E+02 -0.67417436163E+03  0.67812295308E+03  0.47000000000E+01 0.  1.
        -11    1    1    2    0    0 -0.26616696836E+02  0.17777406351E+02 -0.17666550356E+03  0.17954159651E+03  0.00000000000E+00 0.  1.
         11    1    1    2    0    0  0.56964631691E+02 -0.72276711908E+01 -0.15006511746E+03  0.16067590975E+03  0.00000000000E+00 0. -1.
<mgrwt>
<rscale>  0 0.11257711E+03</rscale>
<asrwt>0</asrwt>
<pdfrwt beam="1">  1        2 0.15591861E-02 0.11919723E+03</pdfrwt>
<pdfrwt beam="2">  1       -2 0.21244139E+00 0.11919723E+03</pdfrwt>
<totfact> 0.89895899E+02</totfact>
</mgrwt>
</event>
<event>
 7    1  0.4230786E-006  0.1292371E+03  0.7546771E-02  0.1236771E+00
          2   -1    0    0  501    0  0.00000000000E+00  0.00000000000E+00  0.11590564605E+03  0.11590564605E+03  0.00000000000E+00 0. -1.
         -2   -1    0    0    0  501 -0.00000000000E+00 -0.00000000000E+00 -0.12747403482E+03  0.12747403482E+03  0.00000000000E+00 0.  1.
         23    2    1    2    0    0 -0.14031684014E+02 -0.29655513759E+02 -0.29811725634E+02  0.13263097292E+03  0.12500359330E+03 0.  0.
          5    1    3    3  502    0 -0.14659336753E+02 -0.76282961549E+02 -0.35281255905E+02  0.85444972907E+02  0.47000000000E+01 0. -1.
         -5    1    3    3    0  502  0.62765273839E+00  0.46627447791E+02  0.54695302711E+01  0.47186000009E+02  0.47000000000E+01 0. -1.
        -11    1    1    2    0    0 -0.21267734256E+02  0.49785951151E+02 -0.17223361067E+02  0.56811984817E+02  0.00000000000E+00 0.  1.
         11    1    1    2    0    0  0.35299418271E+02 -0.20130437392E+02  0.35466697931E+02  0.53936723130E+02  0.00000000000E+00 0. -1.
<mgrwt>
<rscale>  0 0.12391724E+03</rscale>
<asrwt>0</asrwt>
<pdfrwt beam="1">  1        2 0.17831638E-01 0.12923713E+03</pdfrwt>
<pdfrwt beam="2">  1       -2 0.19611390E-01 0.12923713E+03</pdfrwt>
<totfact> 0.65218805E+03</totfact>
</mgrwt>
</event>
<event>
 7    1  0.4230786E-006  0.1383368E+03  0.7546771E-02  0.1227493E+00
         -1   -1    0    0    0  501 -0.00000000000E+00  0.00000000000E+00  0.38598907541E+02  0.38598907541E+02  0.00000000000E+00 0.  1.
          1   -1    0    0  501    0  0.00000000000E+00 -0.00000000000E+00 -0.39710512965E+03  0.39710512965E+03  0.00000000000E+00 0. -1.
         23    2    1    2    0    0 -0.32507402386E+01  0.59163716756E+02 -0.17767875640E+03  0.22518172170E+03  0.12500461840E+03 0.  0.
          5    1    3    3  502    0 -0.11828644753E+01 -0.26453852961E+02  0.10744734053E+01  0.26915608816E+02  0.47000000000E+01 0. -1.
         -5    1    3    3    0  502 -0.20678757632E+01  0.85617569717E+02 -0.17875322980E+03  0.19826611288E+03  0.47000000000E+01 0. -1.
        -11    1    1    2    0    0  0.40503783260E+02 -0.53318799655E+02 -0.89982371368E+02  0.11216183848E+03  0.00000000000E+00 0.  1.
         11    1    1    2    0    0 -0.37253043021E+02 -0.58449171014E+01 -0.90845094342E+02  0.98360477003E+02  0.00000000000E+00 0. -1.
<mgrwt>
<rscale>  0 0.12997477E+03</rscale>
<asrwt>0</asrwt>
<pdfrwt beam="2">  1        1 0.61093099E-01 0.13833679E+03</pdfrwt>
<pdfrwt beam="1">  1       -1 0.59382933E-02 0.13833679E+03</pdfrwt>
<totfact> 0.79218462E+03</totfact>
</mgrwt>
</event>
<event>
 7    1  0.4230786E-006  0.1347972E+03  0.7546771E-02  0.1233000E+00
          2   -1    0    0  501    0  0.00000000000E+00  0.00000000000E+00  0.58790371911E+03  0.58790371911E+03  0.00000000000E+00 0. -1.
         -2   -1    0    0    0  501 -0.00000000000E+00 -0.00000000000E+00 -0.24568363245E+02  0.24568363245E+02  0.00000000000E+00 0.  1.
         23    2    1    2    0    0  0.50455536453E+02  0.22156011354E+00  0.28288636642E+03  0.31336078728E+03  0.12499790578E+03 0.  0.
          5    1    3    3  502    0  0.76934890511E+02  0.39088406356E+02  0.20139582531E+03  0.21915576502E+03  0.47000000000E+01 0.  1.
         -5    1    3    3    0  502 -0.26479354058E+02 -0.38866846243E+02  0.81490541114E+02  0.94205022261E+02  0.47000000000E+01 0.  1.
        -11    1    1    2    0    0  0.60756780437E-01 -0.39740211158E+02  0.11440495192E+03  0.12111061514E+03  0.00000000000E+00 0.  1.
         11    1    1    2    0    0 -0.50516293233E+02  0.39518651045E+02  0.16604403751E+03  0.17800067993E+03  0.00000000000E+00 0. -1.
<mgrwt>
<rscale>  0 0.12633354E+03</rscale>
<asrwt>0</asrwt>
<pdfrwt beam="1">  1        2 0.90446716E-01 0.13479721E+03</pdfrwt>
<pdfrwt beam="2">  1       -2 0.37797486E-02 0.13479721E+03</pdfrwt>
<totfact> 0.14664407E+04</totfact>
</mgrwt>
</event>
<event>
 7    1  0.4230786E-006  0.1476563E+03  0.7546771E-02  0.1212991E+00
          2   -1    0    0  501    0  0.00000000000E+00  0.00000000000E+00  0.25159921436E+03  0.25159921436E+03  0.00000000000E+00 0. -1.
         -2   -1    0    0    0  501 -0.00000000000E+00 -0.00000000000E+00 -0.86153223797E+02  0.86153223797E+02  0.00000000000E+00 0.  1.
         23    2    1    2    0    0 -0.59313221727E+02 -0.51563011168E+02  0.19893912741E+02  0.14899044674E+03  0.12500233223E+03 0.  0.
          5    1    3    3  502    0 -0.34363854794E+02 -0.12531140863E+02 -0.51749667218E+02  0.63545433076E+02  0.47000000000E+01 0.  1.
         -5    1    3    3    0  502 -0.24949366933E+02 -0.39031870305E+02  0.71643579959E+02  0.85445013659E+02  0.47000000000E+01 0.  1.
        -11    1    1    2    0    0  0.27552269183E+02  0.28780404783E+02  0.14425203439E+03  0.14965322804E+03  0.00000000000E+00 0. -1.
         11    1    1    2    0    0  0.31760952544E+02  0.22782606385E+02  0.13000434283E+01  0.39108763380E+02  0.00000000000E+00 0.  1.
<mgrwt>
<rscale>  0 0.14025110E+03</rscale>
<asrwt>0</asrwt>
<pdfrwt beam="1">  1        2 0.38707571E-01 0.14765631E+03</pdfrwt>
<pdfrwt beam="2">  1       -2 0.13254342E-01 0.14765631E+03</pdfrwt>
<totfact> 0.53486941E+03</totfact>
</mgrwt>
</event>
<event>
 7    1  0.4230786E-006  0.1198391E+03  0.7546771E-02  0.1252053E+00
         -2   -1    0    0    0  501 -0.00000000000E+00  0.00000000000E+00  0.52783648680E+02  0.52783648680E+02  0.00000000000E+00 0.  1.
          2   -1    0    0  501    0  0.00000000000E+00 -0.00000000000E+00 -0.23326952831E+03  0.23326952831E+03  0.00000000000E+00 0. -1.
         23    2    1    2    0    0 -0.43708950056E+02 -0.87107414005E+01 -0.81922927390E+02  0.14516468400E+03  0.11124329246E+03 0.  0.
          5    1    3    3  502    0  0.21171610212E+02  0.34941505384E+02 -0.33734023477E+02  0.53190414714E+02  0.47000000000E+01 0. -1.
         -5    1    3    3    0  502 -0.64880560268E+02 -0.43652246785E+02 -0.48188903913E+02  0.91974269285E+02  0.47000000000E+01 0.  1.
        -11    1    1    2    0    0 -0.10697297149E+02  0.34081520473E+02 -0.59072796275E+02  0.69033162058E+02  0.00000000000E+00 0. -1.
         11    1    1    2    0    0  0.54406247205E+02 -0.25370779072E+02 -0.39490155969E+02  0.71855330937E+02  0.00000000000E+00 0.  1.
<mgrwt>
<rscale>  0 0.11472987E+03</rscale>
<asrwt>0</asrwt>
<pdfrwt beam="2">  1        2 0.35887620E-01 0.11983914E+03</pdfrwt>
<pdfrwt beam="1">  1       -2 0.81205613E-02 0.11983914E+03</pdfrwt>
<totfact> 0.12363900E+04</totfact>
</mgrwt>
</event>
<event>
 7    1  0.4230786E-006  0.1524698E+03  0.7546771E-02  0.1206075E+00
          2   -1    0    0  501    0  0.00000000000E+00  0.00000000000E+00  0.71921455323E+03  0.71921455323E+03  0.00000000000E+00 0. -1.
         -2   -1    0    0    0  501 -0.00000000000E+00 -0.00000000000E+00 -0.33630083102E+02  0.33630083102E+02  0.00000000000E+00 0.  1.
         23    2    1    2    0    0  0.87025178913E+02  0.69747934010E+01  0.20263797417E+03  0.25359257235E+03  0.12500005866E+03 0.  0.
          5    1    3    3  502    0 -0.20368829121E+02 -0.30785766773E+02  0.36380558256E+02  0.52041211117E+02  0.47000000000E+01 0.  1.
         -5    1    3    3    0  502  0.10739400803E+03  0.37760560174E+02  0.16625741592E+03  0.20155136123E+03  0.47000000000E+01 0.  1.
        -11    1    1    2    0    0 -0.75162349446E+02  0.23940026910E+02  0.42712704255E+03  0.43435010549E+03  0.00000000000E+00 0. -1.
         11    1    1    2    0    0 -0.11862829467E+02 -0.30914820311E+02  0.55819453406E+02  0.64901958494E+02  0.00000000000E+00 0.  1.
<mgrwt>
<rscale>  0 0.14553076E+03</rscale>
<asrwt>0</asrwt>
<pdfrwt beam="1">  1        2 0.11064838E+00 0.15246981E+03</pdfrwt>
<pdfrwt beam="2">  1       -2 0.51738595E-02 0.15246981E+03</pdfrwt>
<totfact> 0.73082070E+03</totfact>
</mgrwt>
</event>
<event>
 7    1  0.4230786E-006  0.1780378E+03  0.7546771E-02  0.1175692E+00
          2   -1    0    0  501    0  0.00000000000E+00  0.00000000000E+00  0.59510484478E+03  0.59510484478E+03  0.00000000000E+00 0. -1.
         -2   -1    0    0    0  501 -0.00000000000E+00 -0.00000000000E+00 -0.50611103860E+02  0.50611103860E+02  0.00000000000E+00 0.  1.
         23    2    1    2    0    0 -0.12634946824E+03  0.10408535988E+02  0.19979190492E+03  0.26760844006E+03  0.12499978470E+03 0.  0.
          5    1    3    3  502    0 -0.37445599018E+02  0.57763884066E+02  0.12234484522E+03  0.14046063627E+03  0.47000000000E+01 0.  1.
         -5    1    3    3    0  502 -0.88903869218E+02 -0.47355348078E+02  0.77447059702E+02  0.12714780380E+03  0.47000000000E+01 0.  1.
        -11    1    1    2    0    0  0.14025094409E+03 -0.50020828742E+01  0.31597488327E+03  0.34573902732E+03  0.00000000000E+00 0. -1.
         11    1    1    2    0    0 -0.13901475855E+02 -0.54064531141E+01  0.28726952724E+02  0.32368481260E+02  0.00000000000E+00 0.  1.
<mgrwt>
<rscale>  0 0.17208370E+03</rscale>
<asrwt>0</asrwt>
<pdfrwt beam="1">  1        2 0.91554587E-01 0.17803784E+03</pdfrwt>
<pdfrwt beam="2">  1       -2 0.77863241E-02 0.17803784E+03</pdfrwt>
<totfact> 0.49219222E+03</totfact>
</mgrwt>
</event>
<event>
 7    1  0.4230786E-006  0.1293373E+03  0.7546771E-02  0.1242457E+00
         -1   -1    0    0    0  501 -0.00000000000E+00  0.00000000000E+00  0.51745881218E+03  0.51745881218E+03  0.00000000000E+00 0.  1.
          1   -1    0    0  501    0  0.00000000000E+00 -0.00000000000E+00 -0.28005898657E+02  0.28005898657E+02  0.00000000000E+00 0. -1.
         23    2    1    2    0    0 -0.22555238465E+02  0.24402459146E+02  0.36742783955E+03  0.38952708485E+03  0.12499565496E+03 0.  0.
          5    1    3    3  502    0 -0.14059927312E+02  0.66603650903E+02  0.31100572461E+03  0.31840285584E+03  0.47000000000E+01 0. -1.
         -5    1    3    3    0  502 -0.84953111528E+01 -0.42201191756E+02  0.56422114942E+02  0.71124229006E+02  0.47000000000E+01 0. -1.
        -11    1    1    2    0    0 -0.29935924214E+02  0.12732534730E+02  0.46489594489E+02  0.56741161381E+02  0.00000000000E+00 0.  1.
         11    1    1    2    0    0  0.52491162678E+02 -0.37134993876E+02  0.75535479485E+02  0.99196464607E+02  0.00000000000E+00 0. -1.
<mgrwt>
<rscale>  0 0.12038882E+03</rscale>
<asrwt>0</asrwt>
<pdfrwt beam="2">  1        1 0.43086002E-02 0.12933728E+03</pdfrwt>
<pdfrwt beam="1">  1       -1 0.79609041E-01 0.12933728E+03</pdfrwt>
<totfact> 0.32402204E+03</totfact>
</mgrwt>
</event>
<event>
 7    1  0.4230786E-006  0.1581688E+03  0.7546771E-02  0.1198964E+00
         -2   -1    0    0    0  501 -0.00000000000E+00  0.00000000000E+00  0.52065305226E+03  0.52065305226E+03  0.00000000000E+00 0.  1.
          2   -1    0    0  501    0  0.00000000000E+00 -0.00000000000E+00 -0.76852268139E+02  0.76852268139E+02  0.00000000000E+00 0. -1.
         23    2    1    2    0    0 -0.24776762907E+02  0.93662388974E+02  0.43743079343E+03  0.46514842360E+03  0.12502330121E+03 0.  0.
          5    1    3    3  502    0 -0.10656686334E+02  0.11773650053E+03  0.40584081519E+03  0.42273432058E+03  0.47000000000E+01 0. -1.
         -5    1    3    3    0  502 -0.14120076573E+02 -0.24074111556E+02  0.31589978237E+02  0.42414103016E+02  0.47000000000E+01 0. -1.
        -11    1    1    2    0    0  0.27372456687E+01 -0.10446350314E+03 -0.63894416322E+01  0.10469451259E+03  0.00000000000E+00 0. -1.
         11    1    1    2    0    0  0.22039517238E+02  0.10801114162E+02  0.12759432322E+02  0.27662384215E+02  0.00000000000E+00 0.  1.
<mgrwt>
<rscale>  0 0.15123464E+03</rscale>
<asrwt>0</asrwt>
<pdfrwt beam="2">  1        2 0.11823426E-01 0.15816876E+03</pdfrwt>
<pdfrwt beam="1">  1       -2 0.80100467E-01 0.15816876E+03</pdfrwt>
<totfact> 0.72947645E+02</totfact>
</mgrwt>
</event>
<event>
 7    1  0.4230786E-006  0.1582002E+03  0.7546771E-02  0.1198766E+00
          2   -1    0    0  501    0  0.00000000000E+00  0.00000000000E+00  0.13301082620E+03  0.13301082620E+03  0.00000000000E+00 0. -1.
         -2   -1    0    0    0  501 -0.00000000000E+00 -0.00000000000E+00 -0.15924958741E+03  0.15924958741E+03  0.00000000000E+00 0.  1.
         23    2    1    2    0    0  0.59632482884E+01 -0.96785495783E+02 -0.19467925268E+02  0.15939351173E+03  0.12499719574E+03 0.  0.
          5    1    3    3  502    0 -0.40267705111E+01 -0.84854551834E+01  0.47103697661E+02  0.48260399540E+02  0.47000000000E+01 0.  1.
         -5    1    3    3    0  502  0.99900187995E+01 -0.88300040600E+02 -0.66571622929E+02  0.11113311219E+03  0.47000000000E+01 0.  1.
        -11    1    1    2    0    0 -0.26116177457E+02  0.82878885340E+02  0.27143767228E+02  0.91037071896E+02  0.00000000000E+00 0. -1.
         11    1    1    2    0    0  0.20152929168E+02  0.13906610443E+02 -0.33914603176E+02  0.41829829986E+02  0.00000000000E+00 0.  1.
<mgrwt>
<rscale>  0 0.15139734E+03</rscale>
<asrwt>0</asrwt>
<pdfrwt beam="1">  1        2 0.20463204E-01 0.15820016E+03</pdfrwt>
<pdfrwt beam="2">  1       -2 0.24499936E-01 0.15820016E+03</pdfrwt>
<totfact> 0.38552526E+03</totfact>
</mgrwt>
</event>
<event>
 7    1  0.4230786E-006  0.2442859E+03  0.7546771E-02  0.1119631E+00
          1   -1    0    0  501    0  0.00000000000E+00  0.00000000000E+00  0.88132836758E+02  0.88132836758E+02  0.00000000000E+00 0. -1.
         -1   -1    0    0    0  501 -0.00000000000E+00 -0.00000000000E+00 -0.87303526095E+03  0.87303526095E+03  0.00000000000E+00 0.  1.
         23    2    1    2    0    0  0.81287072614E+02  0.19350654679E+03 -0.65327696872E+03  0.69745710951E+03  0.12499299953E+03 0.  0.
          5    1    3    3  502    0  0.57119372118E+02  0.19138727800E+03 -0.44587401709E+03  0.48858718973E+03  0.47000000000E+01 0. -1.
         -5    1    3    3    0  502  0.24167700497E+02  0.21192687886E+01 -0.20740295162E+03  0.20886991978E+03  0.47000000000E+01 0. -1.
        -11    1    1    2    0    0 -0.35792146060E+02 -0.19687289505E+02 -0.54680127658E+02  0.68253816364E+02  0.00000000000E+00 0.  1.
         11    1    1    2    0    0 -0.45494926555E+02 -0.17381925729E+03 -0.76945327817E+02  0.19545717183E+03  0.00000000000E+00 0. -1.
<mgrwt>
<rscale>  0 0.24024349E+03</rscale>
<asrwt>0</asrwt>
<pdfrwt beam="1">  1        1 0.13558899E-01 0.24428594E+03</pdfrwt>
<pdfrwt beam="2">  1       -1 0.13431311E+00 0.24428594E+03</pdfrwt>
<totfact> 0.21494547E+02</totfact>
</mgrwt>
</event>
<event>
 7    1  0.4230786E-006  0.1301583E+03  0.7546771E-02  0.1240801E+00
          1   -1    0    0  501    0  0.00000000000E+00  0.00000000000E+00  0.42355243783E+03  0.42355243783E+03  0.00000000000E+00 0. -1.
         -1   -1    0    0    0  501 -0.00000000000E+00 -0.00000000000E+00 -0.32696515518E+02  0.32696515518E+02  0.00000000000E+00 0.  1.
         23    2    1    2    0    0 -0.27796883582E+02  0.23104522451E+02  0.16744794031E+03  0.21208485441E+03  0.12503874224E+03 0.  0.
          5    1    3    3  502    0 -0.68860746908E+02 -0.21094255004E+01  0.14079677456E+03  0.15681860179E+03  0.47000000000E+01 0. -1.
         -5    1    3    3    0  502  0.41063863327E+02  0.25213947952E+02  0.26651165748E+02  0.55266252617E+02  0.47000000000E+01 0. -1.
        -11    1    1    2    0    0  0.50382144185E+01  0.34980522274E+02  0.66468483041E+02  0.75280009172E+02  0.00000000000E+00 0.  1.
         11    1    1    2    0    0  0.22758669163E+02 -0.58085044726E+02  0.15693949896E+03  0.16888408977E+03  0.00000000000E+00 0. -1.
<mgrwt>
<rscale>  0 0.12140264E+03</rscale>
<asrwt>0</asrwt>
<pdfrwt beam="1">  1        1 0.65161909E-01 0.13015826E+03</pdfrwt>
<pdfrwt beam="2">  1       -1 0.50302335E-02 0.13015826E+03</pdfrwt>
<totfact> 0.93017426E+03</totfact>
</mgrwt>
</event>
<event>
 7    1  0.4230786E-006  0.3534319E+03  0.7546771E-02  0.1062409E+00
          2   -1    0    0  501    0  0.00000000000E+00  0.00000000000E+00  0.59935533742E+03  0.59935533742E+03  0.00000000000E+00 0. -1.
         -2   -1    0    0    0  501 -0.00000000000E+00 -0.00000000000E+00 -0.24062305199E+03  0.24062305199E+03  0.00000000000E+00 0.  1.
         23    2    1    2    0    0 -0.18863873143E+03 -0.27045340100E+03  0.12850743535E+02  0.35366545627E+03  0.12721831723E+03 0.  0.
          5    1    3    3  502    0 -0.18058864863E+03 -0.28400572726E+03  0.15767055929E+02  0.33696023977E+03  0.47000000000E+01 0. -1.
         -5    1    3    3    0  502 -0.80500828004E+01  0.13552326263E+02 -0.29163123945E+01  0.16705216497E+02  0.47000000000E+01 0.  1.
        -11    1    1    2    0    0  0.65995038623E+02  0.13103589932E+03  0.97348164612E+02  0.17607503283E+03  0.00000000000E+00 0.  1.
         11    1    1    2    0    0  0.12264369281E+03  0.13941750168E+03  0.24853337728E+03  0.31023790030E+03  0.00000000000E+00 0. -1.
<mgrwt>
<rscale>  0 0.35050195E+03</rscale>
<asrwt>0</asrwt>
<pdfrwt beam="1">  1        2 0.92208513E-01 0.35343191E+03</pdfrwt>
<pdfrwt beam="2">  1       -2 0.37018931E-01 0.35343191E+03</pdfrwt>
<totfact> 0.34977431E+02</totfact>
</mgrwt>
</event>
<event>
 7    1  0.4230786E-006  0.1302140E+03  0.7546771E-02  0.1235927E+00
          2   -1    0    0  501    0  0.00000000000E+00  0.00000000000E+00  0.39972791218E+02  0.39972791218E+02  0.00000000000E+00 0. -1.
         -2   -1    0    0    0  501 -0.00000000000E+00 -0.00000000000E+00 -0.17390978265E+04  0.17390978265E+04  0.00000000000E+00 0.  1.
         23    2    1    2    0    0  0.59321456293E+01 -0.47057010286E+02 -0.16576717071E+04  0.16627781523E+04  0.12126888650E+03 0.  0.
          5    1    3    3  502    0  0.94736100070E+01  0.10994810439E+02 -0.26607386205E+02  0.30670476746E+02  0.47000000000E+01 0. -1.
         -5    1    3    3    0  502 -0.35414643777E+01 -0.58051820726E+02 -0.16310643209E+04  0.16321076756E+04  0.47000000000E+01 0.  1.
        -11    1    1    2    0    0  0.90659066931E+01  0.58128083950E+02  0.11684205854E+02  0.59979875578E+02  0.00000000000E+00 0. -1.
         11    1    1    2    0    0 -0.14998052322E+02 -0.11071073664E+02 -0.53137533988E+02  0.56312589746E+02  0.00000000000E+00 0.  1.
<mgrwt>
<rscale>  0 0.12445266E+03</rscale>
<asrwt>0</asrwt>
<pdfrwt beam="1">  1        2 0.61496614E-02 0.13021404E+03</pdfrwt>
<pdfrwt beam="2">  1       -2 0.26755346E+00 0.13021404E+03</pdfrwt>
<totfact> 0.68903217E+01</totfact>
</mgrwt>
</event>
<event>
 7    1  0.4230786E-006  0.1444940E+03  0.7546771E-02  0.1217802E+00
          2   -1    0    0  501    0  0.00000000000E+00  0.00000000000E+00  0.69268904400E+02  0.69268904400E+02  0.00000000000E+00 0. -1.
         -2   -1    0    0    0  501 -0.00000000000E+00 -0.00000000000E+00 -0.29002243873E+03  0.29002243873E+03  0.00000000000E+00 0.  1.
         23    2    1    2    0    0 -0.22752185672E+02  0.68821952331E+02 -0.19134650769E+03  0.23977489116E+03  0.12499755738E+03 0.  0.
          5    1    3    3  502    0  0.69125327535E+01  0.32030559869E+02  0.86513035284E+01  0.34215127171E+02  0.47000000000E+01 0. -1.
         -5    1    3    3    0  502 -0.29664718426E+02  0.36791392462E+02 -0.19999781122E+03  0.20555976399E+03  0.47000000000E+01 0. -1.
        -11    1    1    2    0    0  0.21976353629E+02 -0.42690637018E+02 -0.61563567226E+02  0.78073833116E+02  0.00000000000E+00 0.  1.
         11    1    1    2    0    0  0.77583204347E+00 -0.26131315313E+02  0.32156540585E+02  0.41442618857E+02  0.00000000000E+00 0. -1.
<mgrwt>
<rscale>  0 0.13672691E+03</rscale>
<asrwt>0</asrwt>
<pdfrwt beam="1">  1        2 0.10656754E-01 0.14449399E+03</pdfrwt>
<pdfrwt beam="2">  1       -2 0.44618837E-01 0.14449399E+03</pdfrwt>
<totfact> 0.27508127E+03</totfact>
</mgrwt>
</event>
<event>
 7    1  0.4230786E-006  0.1250430E+03  0.7546771E-02  0.1241868E+00
          2   -1    0    0  501    0  0.00000000000E+00  0.00000000000E+00  0.41444048696E+03  0.41444048696E+03  0.00000000000E+00 0. -1.
         -2   -1    0    0    0  501 -0.00000000000E+00 -0.00000000000E+00 -0.43456653709E+02  0.43456653709E+02  0.00000000000E+00 0.  1.
         23    2    1    2    0    0  0.31830048901E+01  0.82705207972E+00  0.83028345764E+02  0.15009819034E+03  0.12499978004E+03 0.  0.
          5    1    3    3  502    0 -0.49860982518E+02  0.30254362402E+02  0.63153731885E+02  0.86092554109E+02  0.47000000000E+01 0.  1.
         -5    1    3    3    0  502  0.53043987408E+02 -0.29427310323E+02  0.19874613879E+02  0.64005636235E+02  0.47000000000E+01 0.  1.
        -11    1    1    2    0    0 -0.55810821716E+02 -0.74679981585E+00  0.13706603716E+03  0.14799494611E+03  0.00000000000E+00 0.  1.
         11    1    1    2    0    0  0.52627816826E+02 -0.80252263874E-01  0.15088945032E+03  0.15980400421E+03  0.00000000000E+00 0. -1.
<mgrwt>
<rscale>  0 0.12074808E+03</rscale>
<asrwt>0</asrwt>
<pdfrwt beam="1">  1        2 0.63760072E-01 0.12504303E+03</pdfrwt>
<pdfrwt beam="2">  1       -2 0.66856393E-02 0.12504303E+03</pdfrwt>
<totfact> 0.90887914E+03</totfact>
</mgrwt>
</event>
<event>
 7    1  0.4230786E-006  0.1504594E+03  0.7546771E-02  0.1208876E+00
         -2   -1    0    0    0  501 -0.00000000000E+00  0.00000000000E+00  0.47014145864E+02  0.47014145864E+02  0.00000000000E+00 0.  1.
          2   -1    0    0  501    0  0.00000000000E+00 -0.00000000000E+00 -0.40534110870E+03  0.40534110870E+03  0.00000000000E+00 0. -1.
         23    2    1    2    0    0  0.78413881960E+02  0.29401051422E+02 -0.17188123241E+03  0.22843201622E+03  0.12499947709E+03 0.  0.
          5    1    3    3  502    0  0.97376065224E+02  0.46320730732E+02 -0.83825705323E+02  0.13666216392E+03  0.47000000000E+01 0.  1.
         -5    1    3    3    0  502 -0.18962183263E+02 -0.16919679310E+02 -0.88055527085E+02  0.91769852306E+02  0.47000000000E+01 0.  1.
        -11    1    1    2    0    0 -0.46719831081E+00 -0.43801910963E+02 -0.53554524222E+02  0.69187518693E+02  0.00000000000E+00 0.  1.
         11    1    1    2    0    0 -0.77946683649E+02  0.14400859541E+02 -0.13289120621E+03  0.15473571965E+03  0.00000000000E+00 0. -1.
<mgrwt>
<rscale>  0 0.14336153E+03</rscale>
<asrwt>0</asrwt>
<pdfrwt beam="2">  1        2 0.62360172E-01 0.15045939E+03</pdfrwt>
<pdfrwt beam="1">  1       -2 0.72329454E-02 0.15045939E+03</pdfrwt>
<totfact> 0.83556471E+03</totfact>
</mgrwt>
</event>
<event>
 7    1  0.4230786E-006  0.1575806E+03  0.7546771E-02  0.1198865E+00
          1   -1    0    0  501    0  0.00000000000E+00  0.00000000000E+00  0.53394992106E+02  0.53394992106E+02  0.00000000000E+00 0. -1.
         -1   -1    0    0    0  501 -0.00000000000E+00 -0.00000000000E+00 -0.41186468296E+03  0.41186468296E+03  0.00000000000E+00 0.  1.
         23    2    1    2    0    0  0.48448851434E+02  0.82827993386E+02 -0.23579598688E+03  0.28360429646E+03  0.12499552730E+03 0.  0.
          5    1    3    3  502    0  0.50951215997E+02  0.68179283289E+02 -0.24899343625E+03  0.26318104486E+03  0.47000000000E+01 0. -1.
         -5    1    3    3    0  502 -0.25023645633E+01  0.14648710096E+02  0.13197449366E+02  0.20423251594E+02  0.47000000000E+01 0. -1.
        -11    1    1    2    0    0 -0.29004534689E+02 -0.63369374902E+02 -0.16017407654E+02  0.71508727132E+02  0.00000000000E+00 0. -1.
         11    1    1    2    0    0 -0.19444316745E+02 -0.19458618483E+02 -0.10665629632E+03  0.11014665147E+03  0.00000000000E+00 0.  1.
<mgrwt>
<rscale>  0 0.15131593E+03</rscale>
<asrwt>0</asrwt>
<pdfrwt beam="1">  1        1 0.82146140E-02 0.15758061E+03</pdfrwt>
<pdfrwt beam="2">  1       -1 0.63363798E-01 0.15758061E+03</pdfrwt>
<totfact> 0.21409932E+03</totfact>
</mgrwt>
</event>
<event>
 7    1  0.4230786E-006  0.1415758E+03  0.7546771E-02  0.1223480E+00
          1   -1    0    0  501    0  0.00000000000E+00  0.00000000000E+00  0.10654350611E+03  0.10654350611E+03  0.00000000000E+00 0. -1.
         -1   -1    0    0    0  501 -0.00000000000E+00 -0.00000000000E+00 -0.15235697168E+03  0.15235697168E+03  0.00000000000E+00 0.  1.
         23    2    1    2    0    0  0.61241263455E+02  0.25831624019E+02 -0.48172068612E+02  0.14954683625E+03  0.12500377150E+03 0.  0.
          5    1    3    3  502    0  0.39071865407E+02 -0.28943711104E+01  0.38708564343E+02  0.55275953217E+02  0.47000000000E+01 0.  1.
         -5    1    3    3    0  502  0.22169398047E+02  0.28725995130E+02 -0.86880632955E+02  0.94270883037E+02  0.47000000000E+01 0.  1.
        -11    1    1    2    0    0 -0.53713702876E+02 -0.36350637891E+01  0.38564188906E+02  0.66223653111E+02  0.00000000000E+00 0. -1.
         11    1    1    2    0    0 -0.75275605787E+01 -0.22196560230E+02 -0.36205585863E+02  0.43129988430E+02  0.00000000000E+00 0.  1.
<mgrwt>
<rscale>  0 0.13271647E+03</rscale>
<asrwt>0</asrwt>
<pdfrwt beam="1">  1        1 0.16391309E-01 0.14157580E+03</pdfrwt>
<pdfrwt beam="2">  1       -1 0.23439534E-01 0.14157580E+03</pdfrwt>
<totfact> 0.49206119E+03</totfact>
</mgrwt>
</event>
<event>
 7    1  0.4230786E-006  0.1985755E+03  0.7546771E-02  0.1155144E+00
         -2   -1    0    0    0  501 -0.00000000000E+00  0.00000000000E+00  0.11141886293E+03  0.11141886293E+03  0.00000000000E+00 0.  1.
          2   -1    0    0  501    0  0.00000000000E+00 -0.00000000000E+00 -0.32413361840E+03  0.32413361840E+03  0.00000000000E+00 0. -1.
         23    2    1    2    0    0  0.10126861067E+03  0.11641447114E+03 -0.91442910767E+02  0.21861843639E+03  0.12499821678E+03 0.  0.
          5    1    3    3  502    0  0.29413396014E+02  0.46592038277E+01 -0.79633448772E+02  0.85149469809E+02  0.47000000000E+01 0. -1.
         -5    1    3    3    0  502  0.71855214658E+02  0.11175526732E+03 -0.11809461995E+02  0.13346896658E+03  0.47000000000E+01 0. -1.
        -11    1    1    2    0    0 -0.91856307914E+02 -0.50557367518E+02 -0.10512715031E+03  0.14847675389E+03  0.00000000000E+00 0. -1.
         11    1    1    2    0    0 -0.94123027577E+01 -0.65857103626E+02 -0.16144694405E+02  0.68457291055E+02  0.00000000000E+00 0.  1.
<mgrwt>
<rscale>  0 0.19372443E+03</rscale>
<asrwt>0</asrwt>
<pdfrwt beam="2">  1        2 0.49866711E-01 0.19857546E+03</pdfrwt>
<pdfrwt beam="1">  1       -2 0.17141363E-01 0.19857546E+03</pdfrwt>
<totfact> 0.27110234E+03</totfact>
</mgrwt>
</event>
<event>
 7    1  0.4230786E-006  0.2144143E+03  0.7546771E-02  0.1141718E+00
          2   -1    0    0  501    0  0.00000000000E+00  0.00000000000E+00  0.84895953111E+02  0.84895953111E+02  0.00000000000E+00 0. -1.
         -2   -1    0    0    0  501 -0.00000000000E+00 -0.00000000000E+00 -0.49751507850E+03  0.49751507850E+03  0.00000000000E+00 0.  1.
         23    2    1    2    0    0  0.12088449701E+03 -0.12544289998E+03 -0.21953377959E+03  0.30686896190E+03  0.12499798647E+03 0.  0.
          5    1    3    3  502    0  0.54510882009E+02 -0.13515045016E+03 -0.13364682805E+03  0.19778939578E+03  0.47000000000E+01 0. -1.
         -5    1    3    3    0  502  0.66373615002E+02  0.97075501839E+01 -0.85886951538E+02  0.10907956611E+03  0.47000000000E+01 0. -1.
        -11    1    1    2    0    0 -0.12294561170E+03  0.10198931415E+03 -0.19481672678E+03  0.25193451663E+03  0.00000000000E+00 0.  1.
         11    1    1    2    0    0  0.20611146911E+01  0.23453585832E+02  0.17313809884E+01  0.23607553077E+02  0.00000000000E+00 0. -1.
<mgrwt>
<rscale>  0 0.20980797E+03</rscale>
<asrwt>0</asrwt>
<pdfrwt beam="1">  1        2 0.13060916E-01 0.21441427E+03</pdfrwt>
<pdfrwt beam="2">  1       -2 0.76540781E-01 0.21441427E+03</pdfrwt>
<totfact> 0.72003474E+02</totfact>
</mgrwt>
</event>
<event>
 7    1  0.4230786E-006  0.2596737E+03  0.7546771E-02  0.1109559E+00
         -1   -1    0    0    0  501 -0.00000000000E+00  0.00000000000E+00  0.83857165624E+02  0.83857165624E+02  0.00000000000E+00 0.  1.
          1   -1    0    0  501    0  0.00000000000E+00 -0.00000000000E+00 -0.77884237749E+03  0.77884237749E+03  0.00000000000E+00 0. -1.
         23    2    1    2    0    0  0.20837883279E+03  0.91565450514E+02 -0.42344231026E+03  0.49672308547E+03  0.12499785533E+03 0.  0.
          5    1    3    3  502    0  0.11535223406E+03  0.81052437014E+02 -0.14230530788E+03  0.20037097120E+03  0.47000000000E+01 0. -1.
         -5    1    3    3    0  502  0.93026598727E+02  0.10513013500E+02 -0.28113700238E+03  0.29635211427E+03  0.47000000000E+01 0. -1.
        -11    1    1    2    0    0 -0.67181112490E+02 -0.41246346561E+02 -0.35723089521E+02  0.86548842309E+02  0.00000000000E+00 0.  1.
         11    1    1    2    0    0 -0.14119772030E+03 -0.50319103953E+02 -0.23581981209E+03  0.27942761534E+03  0.00000000000E+00 0. -1.
<mgrwt>
<rscale>  0 0.25601974E+03</rscale>
<asrwt>0</asrwt>
<pdfrwt beam="2">  1        1 0.11982190E+00 0.25967371E+03</pdfrwt>
<pdfrwt beam="1">  1       -1 0.12901103E-01 0.25967371E+03</pdfrwt>
<totfact> 0.98320133E+02</totfact>
</mgrwt>
</event>
<event>
 7    1  0.4230786E-006  0.1277996E+03  0.7546771E-02  0.1245732E+00
          2   -1    0    0  501    0  0.00000000000E+00  0.00000000000E+00  0.12858371718E+02  0.12858371718E+02  0.00000000000E+00 0.  1.
         -2   -1    0    0    0  501 -0.00000000000E+00 -0.00000000000E+00 -0.11985321925E+04  0.11985321925E+04  0.00000000000E+00 0. -1.
         23    2    1    2    0    0 -0.68212745980E+01 -0.25689071250E+02 -0.93328435299E+03  0.94199385252E+03  0.12500510582E+03 0.  0.
          5    1    3    3  502    0  0.29000920931E+01 -0.40733284036E+02 -0.95083664186E+02  0.10358862948E+03  0.47000000000E+01 0. -1.
         -5    1    3    3    0  502 -0.97213666911E+01  0.15044212786E+02 -0.83820068880E+03  0.83840522304E+03  0.47000000000E+01 0. -1.
        -11    1    1    2    0    0  0.57835338812E+00 -0.30241551530E+02 -0.14535466201E+03  0.14846839293E+03  0.00000000000E+00 0. -1.
         11    1    1    2    0    0  0.62429212099E+01  0.55930622780E+02 -0.10703480574E+03  0.12092831873E+03  0.00000000000E+00 0.  1.
<mgrwt>
<rscale>  0 0.11841669E+03</rscale>
<asrwt>0</asrwt>
<pdfrwt beam="1">  1        2 0.19782104E-02 0.12779959E+03</pdfrwt>
<pdfrwt beam="2">  1       -2 0.18438963E+00 0.12779959E+03</pdfrwt>
<totfact> 0.97572629E+02</totfact>
</mgrwt>
</event>
<event>
 7    1  0.4230786E-006  0.2277741E+03  0.7546771E-02  0.1130933E+00
         -2   -1    0    0    0  501 -0.00000000000E+00  0.00000000000E+00  0.76081628169E+02  0.76081628169E+02  0.00000000000E+00 0.  1.
          2   -1    0    0  501    0  0.00000000000E+00 -0.00000000000E+00 -0.10381581350E+04  0.10381581350E+04  0.00000000000E+00 0. -1.
         23    2    1    2    0    0  0.18769955333E+03  0.32016788529E+02 -0.14539707269E+03  0.27022462850E+03  0.12499937614E+03 0.  0.
          5    1    3    3  502    0 -0.46088062577E+01 -0.12329509031E+02 -0.48194491671E+02  0.50180244275E+02  0.47000000000E+01 0. -1.
         -5    1    3    3    0  502  0.19230835959E+03  0.44346297559E+02 -0.97202581018E+02  0.22004438423E+03  0.47000000000E+01 0. -1.
        -11    1    1    2    0    0 -0.14257481774E+03 -0.42241981365E+02 -0.73721053415E+03  0.75205806645E+03  0.00000000000E+00 0.  1.
         11    1    1    2    0    0 -0.45124735589E+02  0.10225192836E+02 -0.79468900033E+02  0.91957068260E+02  0.00000000000E+00 0. -1.
<mgrwt>
<rscale>  0 0.22400399E+03</rscale>
<asrwt>0</asrwt>
<pdfrwt beam="2">  1        2 0.15971662E+00 0.22777410E+03</pdfrwt>
<pdfrwt beam="1">  1       -2 0.11704867E-01 0.22777410E+03</pdfrwt>
<totfact> 0.12829232E+03</totfact>
</mgrwt>
</event>
<event>
 7    1  0.4230786E-006  0.2078683E+03  0.7546771E-02  0.1147153E+00
         -2   -1    0    0    0  501 -0.00000000000E+00  0.00000000000E+00  0.57583816056E+02  0.57583816056E+02  0.00000000000E+00 0.  1.
          2   -1    0    0  501    0  0.00000000000E+00 -0.00000000000E+00 -0.71918590271E+03  0.71918590271E+03  0.00000000000E+00 0. -1.
         23    2    1    2    0    0 -0.14333805993E+03  0.83896218348E+02 -0.26118882420E+03  0.33380954822E+03  0.12499935086E+03 0.  0.
          5    1    3    3  502    0 -0.13973150870E+03  0.79437580545E+02 -0.14240365100E+03  0.21479318784E+03  0.47000000000E+01 0. -1.
         -5    1    3    3    0  502 -0.36065512294E+01  0.44586378026E+01 -0.11878517321E+03  0.11901636038E+03  0.47000000000E+01 0. -1.
        -11    1    1    2    0    0  0.69454266234E+02  0.36484975520E+01 -0.10333596271E+03  0.12456134161E+03  0.00000000000E+00 0.  1.
         11    1    1    2    0    0  0.73883793699E+02 -0.87544715900E+02 -0.29707729973E+03  0.31839882894E+03  0.00000000000E+00 0. -1.
<mgrwt>
<rscale>  0 0.20309635E+03</rscale>
<asrwt>0</asrwt>
<pdfrwt beam="2">  1        2 0.11064399E+00 0.20786826E+03</pdfrwt>
<pdfrwt beam="1">  1       -2 0.88590485E-02 0.20786826E+03</pdfrwt>
<totfact> 0.32346595E+03</totfact>
</mgrwt>
</event>
<event>
 7    1  0.4230786E-006  0.1472809E+03  0.7546771E-02  0.1213289E+00
         -1   -1    0    0    0  501 -0.00000000000E+00  0.00000000000E+00  0.55702131015E+02  0.55702131015E+02  0.00000000000E+00 0. -1.
          1   -1    0    0  501    0  0.00000000000E+00 -0.00000000000E+00 -0.32993244680E+03  0.32993244680E+03  0.00000000000E+00 0.  1.
         23    2    1    2    0    0  0.22939333016E+02  0.74435455578E+02 -0.11982293492E+03  0.18986623047E+03  0.12499919877E+03 0.  0.
          5    1    3    3  502    0  0.75058700784E+01 -0.23423605023E+02  0.95932325532E+01  0.26816477560E+02  0.47000000000E+01 0. -1.
         -5    1    3    3    0  502  0.15433462937E+02  0.97859060601E+02 -0.12941616748E+03  0.16304975291E+03  0.47000000000E+01 0. -1.
        -11    1    1    2    0    0  0.68520183025E+01 -0.69673823812E+02 -0.14966267152E+03  0.16522804582E+03  0.00000000000E+00 0.  1.
         11    1    1    2    0    0 -0.29791351318E+02 -0.47616317659E+01 -0.47447093418E+01  0.30540301524E+02  0.00000000000E+00 0. -1.
<mgrwt>
<rscale>  0 0.14002943E+03</rscale>
<asrwt>0</asrwt>
<pdfrwt beam="2">  1        1 0.50758837E-01 0.14728085E+03</pdfrwt>
<pdfrwt beam="1">  1       -1 0.85695588E-02 0.14728085E+03</pdfrwt>
<totfact> 0.57801441E+03</totfact>
</mgrwt>
</event>
<event>
 7    1  0.4230786E-006  0.1504470E+03  0.7546771E-02  0.1209204E+00
         -2   -1    0    0    0  501 -0.00000000000E+00  0.00000000000E+00  0.27371274279E+02  0.27371274279E+02  0.00000000000E+00 0.  1.
          2   -1    0    0  501    0  0.00000000000E+00 -0.00000000000E+00 -0.69481535849E+03  0.69481535849E+03  0.00000000000E+00 0. -1.
         23    2    1    2    0    0 -0.79966246918E+02  0.24786968954E+02 -0.32131381880E+03  0.35479128426E+03  0.12500116303E+03 0.  0.
          5    1    3    3  502    0 -0.37876595536E+02 -0.44915420494E+02 -0.75394106086E+02  0.95699491744E+02  0.47000000000E+01 0.  1.
         -5    1    3    3    0  502 -0.42089651382E+02  0.69702389448E+02 -0.24591971272E+03  0.25909179252E+03  0.47000000000E+01 0.  1.
        -11    1    1    2    0    0 -0.19024569212E+02  0.60656624264E+00 -0.82086019830E+02  0.84263970995E+02  0.00000000000E+00 0.  1.
         11    1    1    2    0    0  0.98990816130E+02 -0.25393535197E+02 -0.26404424558E+03  0.28313137751E+03  0.00000000000E+00 0. -1.
<mgrwt>
<rscale>  0 0.14311071E+03</rscale>
<asrwt>0</asrwt>
<pdfrwt beam="2">  1        2 0.10689468E+00 0.15044695E+03</pdfrwt>
<pdfrwt beam="1">  1       -2 0.42109649E-02 0.15044695E+03</pdfrwt>
<totfact> 0.10366239E+04</totfact>
</mgrwt>
</event>
<event>
 7    1  0.4230786E-006  0.1953484E+03  0.7546771E-02  0.1158465E+00
         -3   -1    0    0    0  501 -0.00000000000E+00  0.00000000000E+00  0.81322136850E+02  0.81322136850E+02  0.00000000000E+00 0.  1.
          3   -1    0    0  501    0  0.00000000000E+00 -0.00000000000E+00 -0.43613972878E+03  0.43613972878E+03  0.00000000000E+00 0. -1.
         23    2    1    2    0    0 -0.71831914070E+02 -0.13182040941E+03 -0.13910785465E+03  0.23981660351E+03  0.12499825550E+03 0.  0.
          5    1    3    3  502    0 -0.14166965093E+02 -0.13574810922E+03 -0.87537114846E+02  0.16221309605E+03  0.47000000000E+01 0.  1.
         -5    1    3    3    0  502 -0.57664948977E+02  0.39276998012E+01 -0.51570739800E+02  0.77603507458E+02  0.47000000000E+01 0.  1.
        -11    1    1    2    0    0  0.27977019753E+02  0.18061292130E+02 -0.42698837744E+01  0.33573141276E+02  0.00000000000E+00 0.  1.
         11    1    1    2    0    0  0.43854894317E+02  0.11375911728E+03 -0.21143985350E+03  0.24407212084E+03  0.00000000000E+00 0. -1.
<mgrwt>
<rscale>  0 0.18999618E+03</rscale>
<asrwt>0</asrwt>
<pdfrwt beam="2">  1        3 0.67098419E-01 0.19534843E+03</pdfrwt>
<pdfrwt beam="1">  1       -3 0.12511098E-01 0.19534843E+03</pdfrwt>
<totfact> 0.26875565E+02</totfact>
</mgrwt>
</event>
<event>
 7    1  0.4230786E-006  0.1589479E+03  0.7546771E-02  0.1196787E+00
          1   -1    0    0  501    0  0.00000000000E+00  0.00000000000E+00  0.87918634276E+03  0.87918634276E+03  0.00000000000E+00 0. -1.
         -1   -1    0    0    0  501 -0.00000000000E+00 -0.00000000000E+00 -0.26348858425E+02  0.26348858425E+02  0.00000000000E+00 0.  1.
         23    2    1    2    0    0 -0.79080235381E+02  0.58196388562E+02  0.34868537599E+03  0.38320480822E+03  0.12499572130E+03 0.  0.
          5    1    3    3  502    0  0.28119238449E+02  0.10922601756E+02  0.14501256676E+03  0.14819152917E+03  0.47000000000E+01 0. -1.
         -5    1    3    3    0  502 -0.10719947383E+03  0.47273786806E+02  0.20367280923E+03  0.23501327905E+03  0.47000000000E+01 0. -1.
        -11    1    1    2    0    0  0.44032609630E+02 -0.82057524379E+02  0.31456884990E+03  0.32806381902E+03  0.00000000000E+00 0. -1.
         11    1    1    2    0    0  0.35047625752E+02  0.23861135817E+02  0.18958325844E+03  0.19426657395E+03  0.00000000000E+00 0.  1.
<mgrwt>
<rscale>  0 0.15303971E+03</rscale>
<asrwt>0</asrwt>
<pdfrwt beam="1">  1        1 0.13525942E+00 0.15894790E+03</pdfrwt>
<pdfrwt beam="2">  1       -1 0.40536712E-02 0.15894790E+03</pdfrwt>
<totfact> 0.46912415E+03</totfact>
</mgrwt>
</event>
<event>
 7    1  0.4230786E-006  0.1269704E+03  0.7546771E-02  0.1246774E+00
          2   -1    0    0  501    0  0.00000000000E+00  0.00000000000E+00  0.12863404425E+03  0.12863404425E+03  0.00000000000E+00 0. -1.
         -2   -1    0    0    0  501 -0.00000000000E+00 -0.00000000000E+00 -0.14447811362E+03  0.14447811362E+03  0.00000000000E+00 0.  1.
         23    2    1    2    0    0 -0.17258948320E+01  0.22239388975E+02 -0.88061116511E+02  0.15451935944E+03  0.12499561219E+03 0.  0.
          5    1    3    3  502    0 -0.22639036549E+02  0.47556155302E+00  0.26954720757E+02  0.35516180900E+02  0.47000000000E+01 0. -1.
         -5    1    3    3    0  502  0.20913141717E+02  0.21763827422E+02 -0.11501583727E+03  0.11900317854E+03  0.47000000000E+01 0. -1.
        -11    1    1    2    0    0  0.22319362864E+02 -0.32131712629E+02 -0.37144029508E+01  0.39298825738E+02  0.00000000000E+00 0.  1.
         11    1    1    2    0    0 -0.20593468032E+02  0.98923236540E+01  0.75931450087E+02  0.79293972692E+02  0.00000000000E+00 0. -1.
<mgrwt>
<rscale>  0 0.11779808E+03</rscale>
<asrwt>0</asrwt>
<pdfrwt beam="1">  1        2 0.19789853E-01 0.12697036E+03</pdfrwt>
<pdfrwt beam="2">  1       -2 0.22227402E-01 0.12697036E+03</pdfrwt>
<totfact> 0.46766281E+03</totfact>
</mgrwt>
</event>
<event>
 7    1  0.4230786E-006  0.1313681E+03  0.7546771E-02  0.1238940E+00
          1   -1    0    0  501    0  0.00000000000E+00  0.00000000000E+00  0.27147735553E+03  0.27147735553E+03  0.00000000000E+00 0. -1.
         -1   -1    0    0    0  501 -0.00000000000E+00 -0.00000000000E+00 -0.59183134042E+02  0.59183134042E+02  0.00000000000E+00 0.  1.
         23    2    1    2    0    0 -0.39500714962E+02  0.89371931046E+01  0.50550381099E+02  0.14075832953E+03  0.12496954188E+03 0.  0.
          5    1    3    3  502    0 -0.13595140002E+02 -0.21496630288E+01  0.90491188876E+02  0.91652573052E+02  0.47000000000E+01 0. -1.
         -5    1    3    3    0  502 -0.25905574960E+02  0.11086856133E+02 -0.39940807777E+02  0.49105756473E+02  0.47000000000E+01 0. -1.
        -11    1    1    2    0    0  0.34854112589E+02 -0.33635254270E+02  0.32718380461E+02  0.58451962449E+02  0.00000000000E+00 0.  1.
         11    1    1    2    0    0  0.46466023723E+01  0.24698061165E+02  0.12902545993E+03  0.13145019760E+03  0.00000000000E+00 0. -1.
<mgrwt>
<rscale>  0 0.12255510E+03</rscale>
<asrwt>0</asrwt>
<pdfrwt beam="1">  1        1 0.41765746E-01 0.13136806E+03</pdfrwt>
<pdfrwt beam="2">  1       -1 0.91050977E-02 0.13136806E+03</pdfrwt>
<totfact> 0.66662287E+03</totfact>
</mgrwt>
</event>
<event>
 7    1  0.4230786E-006  0.1367881E+03  0.7546771E-02  0.1232167E+00
          2   -1    0    0  501    0  0.00000000000E+00  0.00000000000E+00  0.14962620956E+03  0.14962620956E+03  0.00000000000E+00 0. -1.
         -2   -1    0    0    0  501 -0.00000000000E+00 -0.00000000000E+00 -0.11907903470E+03  0.11907903470E+03  0.00000000000E+00 0.  1.
         23    2    1    2    0    0 -0.62087748194E+01 -0.55208373174E+02 -0.43203623599E+02  0.14344870889E+03  0.12499786253E+03 0.  0.
          5    1    3    3  502    0 -0.44701081112E+02 -0.77401701396E+02 -0.41701252912E+02  0.98743579670E+02  0.47000000000E+01 0.  1.
         -5    1    3    3    0  502  0.38492306293E+02  0.22193328222E+02 -0.15023706876E+01  0.44705129224E+02  0.47000000000E+01 0.  1.
        -11    1    1    2    0    0  0.35313909245E+02  0.54307553318E+02  0.70838706064E+02  0.95992212238E+02  0.00000000000E+00 0.  1.
         11    1    1    2    0    0 -0.29105134425E+02  0.90081985666E+00  0.29120923917E+01  0.29264323133E+02  0.00000000000E+00 0. -1.
<mgrwt>
<rscale>  0 0.12687521E+03</rscale>
<asrwt>0</asrwt>
<pdfrwt beam="1">  1        2 0.23019417E-01 0.13678808E+03</pdfrwt>
<pdfrwt beam="2">  1       -2 0.18319851E-01 0.13678808E+03</pdfrwt>
<totfact> 0.55030919E+03</totfact>
</mgrwt>
</event>
<event>
 7    1  0.4230786E-006  0.1370884E+03  0.7546771E-02  0.1228940E+00
          2   -1    0    0  501    0  0.00000000000E+00  0.00000000000E+00  0.16538811181E+03  0.16538811181E+03  0.00000000000E+00 0. -1.
         -2   -1    0    0    0  501 -0.00000000000E+00 -0.00000000000E+00 -0.12662917953E+03  0.12662917953E+03  0.00000000000E+00 0.  1.
         23    2    1    2    0    0 -0.25548315703E+02  0.50183710229E+02 -0.56602063195E+02  0.14831390168E+03  0.12498839413E+03 0.  0.
          5    1    3    3  502    0 -0.34287932201E+02  0.25536128472E+02 -0.93457535743E+02  0.10287933291E+03  0.47000000000E+01 0. -1.
         -5    1    3    3    0  502  0.87396164975E+01  0.24647581758E+02  0.36855472548E+02  0.45434568775E+02  0.47000000000E+01 0. -1.
        -11    1    1    2    0    0  0.37889054888E+02 -0.40805781697E+02  0.95414668293E+01  0.56495414765E+02  0.00000000000E+00 0.  1.
         11    1    1    2    0    0 -0.12340739185E+02 -0.93779285328E+01  0.85819528649E+02  0.87207974892E+02  0.00000000000E+00 0. -1.
<mgrwt>
<rscale>  0 0.12900479E+03</rscale>
<asrwt>0</asrwt>
<pdfrwt beam="1">  1        2 0.25444325E-01 0.13708837E+03</pdfrwt>
<pdfrwt beam="2">  1       -2 0.19481412E-01 0.13708837E+03</pdfrwt>
<totfact> 0.44427938E+03</totfact>
</mgrwt>
</event>
<event>
 7    1  0.4230786E-006  0.1821209E+03  0.7546771E-02  0.1170892E+00
         -2   -1    0    0    0  501 -0.00000000000E+00  0.00000000000E+00  0.87994187320E+02  0.87994187320E+02  0.00000000000E+00 0.  1.
          2   -1    0    0  501    0  0.00000000000E+00 -0.00000000000E+00 -0.37794078756E+03  0.37794078756E+03  0.00000000000E+00 0. -1.
         23    2    1    2    0    0 -0.59632348159E+02  0.11828274527E+03 -0.75317151834E+02  0.19708046282E+03  0.12498484184E+03 0.  0.
          5    1    3    3  502    0 -0.16340415184E+02  0.24327022118E+02 -0.87887503219E+02  0.92763766610E+02  0.47000000000E+01 0. -1.
         -5    1    3    3    0  502 -0.43291932975E+02  0.93955723157E+02  0.12570351386E+02  0.10431669621E+03  0.47000000000E+01 0. -1.
        -11    1    1    2    0    0  0.73716828615E+02 -0.11192637450E+03 -0.21505350095E+03  0.25339631489E+03  0.00000000000E+00 0.  1.
         11    1    1    2    0    0 -0.14084480456E+02 -0.63563707737E+01  0.42405254135E+00  0.15458197168E+02  0.00000000000E+00 0. -1.
<mgrwt>
<rscale>  0 0.17684495E+03</rscale>
<asrwt>0</asrwt>
<pdfrwt beam="2">  1        2 0.58144737E-01 0.18212094E+03</pdfrwt>
<pdfrwt beam="1">  1       -2 0.13537567E-01 0.18212094E+03</pdfrwt>
<totfact> 0.33817143E+03</totfact>
</mgrwt>
</event>
<event>
 7    1  0.4230786E-006  0.1490191E+03  0.7546771E-02  0.1211149E+00
          3   -1    0    0  501    0  0.00000000000E+00  0.00000000000E+00  0.38931520273E+03  0.38931520273E+03  0.00000000000E+00 0. -1.
         -3   -1    0    0    0  501 -0.00000000000E+00 -0.00000000000E+00 -0.75717228658E+02  0.75717228658E+02  0.00000000000E+00 0.  1.
         23    2    1    2    0    0 -0.73028933188E+02  0.35315557511E+02  0.23996986214E+02  0.15093890628E+03  0.12500513749E+03 0.  0.
          5    1    3    3  502    0 -0.88812202154E+02  0.41331528921E+02 -0.23039280986E+02  0.10074125770E+03  0.47000000000E+01 0.  1.
         -5    1    3    3    0  502  0.15783268967E+02 -0.60159714105E+01  0.47036267201E+02  0.50197648585E+02  0.47000000000E+01 0.  1.
        -11    1    1    2    0    0  0.83086048353E+02 -0.65532472946E+01  0.15394809192E+03  0.17506070800E+03  0.00000000000E+00 0.  1.
         11    1    1    2    0    0 -0.10057115165E+02 -0.28762310216E+02  0.13565289594E+03  0.13903281710E+03  0.00000000000E+00 0. -1.
<mgrwt>
<rscale>  0 0.14163248E+03</rscale>
<asrwt>0</asrwt>
<pdfrwt beam="1">  1        3 0.59894645E-01 0.14901912E+03</pdfrwt>
<pdfrwt beam="2">  1       -3 0.11648805E-01 0.14901912E+03</pdfrwt>
<totfact> 0.37184919E+02</totfact>
</mgrwt>
</event>
<event>
 7    1  0.4230786E-006  0.1341192E+03  0.7546771E-02  0.1234513E+00
          2   -1    0    0  501    0  0.00000000000E+00  0.00000000000E+00  0.52044388455E+02  0.52044388455E+02  0.00000000000E+00 0.  1.
         -2   -1    0    0    0  501 -0.00000000000E+00 -0.00000000000E+00 -0.26934971397E+03  0.26934971397E+03  0.00000000000E+00 0. -1.
         23    2    1    2    0    0  0.22731747833E+02 -0.42965474902E+02 -0.13149284096E+03  0.18782524823E+03  0.12500076902E+03 0.  0.
          5    1    3    3  502    0  0.57425927903E+02 -0.33036178626E+02 -0.13580765913E+03  0.15117849242E+03  0.47000000000E+01 0.  1.
         -5    1    3    3    0  502 -0.34694180070E+02 -0.99292962761E+01  0.43148181650E+01  0.36646755806E+02  0.47000000000E+01 0.  1.
        -11    1    1    2    0    0  0.13925906623E+02  0.44428520543E+02 -0.75954022148E+01  0.47175358480E+02  0.00000000000E+00 0.  1.
         11    1    1    2    0    0 -0.36657654457E+02 -0.14630456408E+01 -0.78217082339E+02  0.86393495718E+02  0.00000000000E+00 0. -1.
<mgrwt>
<rscale>  0 0.12535656E+03</rscale>
<asrwt>0</asrwt>
<pdfrwt beam="1">  1        2 0.80068291E-02 0.13411919E+03</pdfrwt>
<pdfrwt beam="2">  1       -2 0.41438417E-01 0.13411919E+03</pdfrwt>
<totfact> 0.44957529E+03</totfact>
</mgrwt>
</event>
<event>
 6    1  0.4230786E-006  0.1740364E+03  0.7546771E-02  0.1187609E+00
          2   -1    0    0  501    0  0.00000000000E+00  0.00000000000E+00  0.24713887499E+03  0.24713887499E+03  0.00000000000E+00 0. -1.
         -2   -1    0    0    0  501 -0.00000000000E+00 -0.00000000000E+00 -0.10898126622E+03  0.10898126622E+03  0.00000000000E+00 0.  1.
          5    1    1    2  502    0 -0.93659963942E+02  0.48668754461E+02  0.31394910158E+02  0.11022053752E+03  0.47000000000E+01 0. -1.
         -5    1    1    2    0  502  0.55617174994E+01 -0.59258401499E+02 -0.23090883499E+02  0.64013824683E+02  0.47000000000E+01 0.  1.
        -11    1    1    2    0    0  0.89246810955E+02 -0.46213511294E+01  0.53786113410E+02  0.10430386449E+03  0.00000000000E+00 0.  1.
         11    1    1    2    0    0 -0.11485645128E+01  0.15210998168E+02  0.76067468705E+02  0.77581914522E+02  0.00000000000E+00 0. -1.
<mgrwt>
<rscale>  0 0.16096742E+03</rscale>
<asrwt>0</asrwt>
<pdfrwt beam="1">  1        2 0.38021365E-01 0.17403636E+03</pdfrwt>
<pdfrwt beam="2">  1       -2 0.16766349E-01 0.17403636E+03</pdfrwt>
<totfact> 0.37411366E+03</totfact>
</mgrwt>
</event>
<event>
 7    1  0.4230786E-006  0.1936380E+03  0.7546771E-02  0.1160641E+00
         -2   -1    0    0    0  501 -0.00000000000E+00  0.00000000000E+00  0.51443919535E+03  0.51443919535E+03  0.00000000000E+00 0.  1.
          2   -1    0    0  501    0  0.00000000000E+00 -0.00000000000E+00 -0.18538231505E+03  0.18538231505E+03  0.00000000000E+00 0. -1.
         23    2    1    2    0    0  0.43005237116E+02  0.14149767092E+03  0.45053600651E+03  0.49038592831E+03  0.12499849689E+03 0.  0.
          5    1    3    3  502    0  0.45017902093E+02  0.10021435394E+03  0.14473564927E+03  0.18176915694E+03  0.47000000000E+01 0. -1.
         -5    1    3    3    0  502 -0.20126649769E+01  0.41283316979E+02  0.30580035725E+03  0.30861677137E+03  0.47000000000E+01 0. -1.
        -11    1    1    2    0    0  0.16705942391E+02 -0.90650379414E+02 -0.65342990881E+02  0.11298799165E+03  0.00000000000E+00 0.  1.
         11    1    1    2    0    0 -0.59711179507E+02 -0.50847291508E+02 -0.56136135335E+02  0.96447590443E+02  0.00000000000E+00 0. -1.
<mgrwt>
<rscale>  0 0.18760347E+03</rscale>
<asrwt>0</asrwt>
<pdfrwt beam="2">  1        2 0.28520356E-01 0.19363798E+03</pdfrwt>
<pdfrwt beam="1">  1       -2 0.79144491E-01 0.19363798E+03</pdfrwt>
<totfact> 0.27231621E+02</totfact>
</mgrwt>
</event>
<event>
 7    1  0.4426039E-006  0.3198028E+03  0.7546771E-02  0.1077260E+00
         -1   -1    0    0    0  501 -0.00000000000E+00  0.00000000000E+00  0.88519400260E+03  0.88519400260E+03  0.00000000000E+00 0.  1.
          1   -1    0    0  501    0  0.00000000000E+00 -0.00000000000E+00 -0.21101360935E+03  0.21101360935E+03  0.00000000000E+00 0. -1.
         23    2    1    2    0    0 -0.28930063397E+03 -0.54347380064E+02  0.71819093889E+03  0.78617560374E+03  0.12500144272E+03 0.  0.
          5    1    3    3  502    0 -0.17298319331E+03 -0.84552135472E+02  0.51787124158E+03  0.55252598277E+03  0.47000000000E+01 0.  1.
         -5    1    3    3    0  502 -0.11631744066E+03  0.30204755408E+02  0.20031969731E+03  0.23364962097E+03  0.47000000000E+01 0.  1.
        -11    1    1    2    0    0  0.24679130599E+03  0.12295089815E+02 -0.35417994857E+02  0.24962282008E+03  0.00000000000E+00 0. -1.
         11    1    1    2    0    0  0.42509327983E+02  0.42052290249E+02 -0.85925507840E+01  0.60409188124E+02  0.00000000000E+00 0.  1.
<mgrwt>
<rscale>  0 0.31652517E+03</rscale>
<asrwt>0</asrwt>
<pdfrwt beam="2">  1        1 0.32463633E-01 0.31980284E+03</pdfrwt>
<pdfrwt beam="1">  1       -1 0.13618369E+00 0.31980284E+03</pdfrwt>
<totfact> 0.66448273E+01</totfact>
</mgrwt>
</event>
<event>
 7    1  0.4230786E-006  0.1392896E+03  0.7546771E-02  0.1225005E+00
          1   -1    0    0  501    0  0.00000000000E+00  0.00000000000E+00  0.14681195669E+03  0.14681195669E+03  0.00000000000E+00 0. -1.
         -1   -1    0    0    0  501 -0.00000000000E+00 -0.00000000000E+00 -0.23510789391E+03  0.23510789391E+03  0.00000000000E+00 0.  1.
         23    2    1    2    0    0  0.30221186737E+02  0.53504074054E+02 -0.18703572137E+03  0.23320366148E+03  0.12500232234E+03 0.  0.
          5    1    3    3  502    0  0.29497358157E+02  0.89028869188E+02 -0.16838449362E+03  0.19279953677E+03  0.47000000000E+01 0. -1.
         -5    1    3    3    0  502  0.72382857971E+00 -0.35524795134E+02 -0.18651227753E+02  0.40404124713E+02  0.47000000000E+01 0. -1.
        -11    1    1    2    0    0 -0.29110250184E+02  0.21457407447E+02  0.29625068770E+02  0.46749028864E+02  0.00000000000E+00 0. -1.
         11    1    1    2    0    0 -0.11109365529E+01 -0.74961481502E+02  0.69114715375E+02  0.10196716025E+03  0.00000000000E+00 0.  1.
<mgrwt>
<rscale>  0 0.13166545E+03</rscale>
<asrwt>0</asrwt>
<pdfrwt beam="1">  1        1 0.22586455E-01 0.13928958E+03</pdfrwt>
<pdfrwt beam="2">  1       -1 0.36170445E-01 0.13928958E+03</pdfrwt>
<totfact> 0.15786473E+03</totfact>
</mgrwt>
</event>
<event>
 7    1  0.4230786E-006  0.1514816E+03  0.7546771E-02  0.1207905E+00
          3   -1    0    0  501    0  0.00000000000E+00  0.00000000000E+00  0.85986127169E+03  0.85986127169E+03  0.00000000000E+00 0. -1.
         -3   -1    0    0    0  501 -0.00000000000E+00 -0.00000000000E+00 -0.22081123440E+02  0.22081123440E+02  0.00000000000E+00 0.  1.
         23    2    1    2    0    0  0.36424741676E+02 -0.77428965415E+02  0.46691364508E+03  0.49087171600E+03  0.12499873244E+03 0.  0.
          5    1    3    3  502    0  0.98205923857E+01 -0.10830610148E+03  0.36871211861E+03  0.38444423791E+03  0.47000000000E+01 0.  1.
         -5    1    3    3    0  502  0.26604149290E+02  0.30877136062E+02  0.98201526476E+02  0.10642747809E+03  0.47000000000E+01 0.  1.
        -11    1    1    2    0    0 -0.26564005699E+02  0.96503172967E+02  0.27029109943E+03  0.28822870645E+03  0.00000000000E+00 0.  1.
         11    1    1    2    0    0 -0.98607359769E+01 -0.19074207552E+02  0.10057540373E+03  0.10284197268E+03  0.00000000000E+00 0. -1.
<mgrwt>
<rscale>  0 0.14410865E+03</rscale>
<asrwt>0</asrwt>
<pdfrwt beam="1">  1        3 0.13228632E+00 0.15148165E+03</pdfrwt>
<pdfrwt beam="2">  1       -3 0.33970966E-02 0.15148165E+03</pdfrwt>
<totfact> 0.46459577E+02</totfact>
</mgrwt>
</event>
<event>
 7    1  0.4230786E-006  0.1544194E+03  0.7546771E-02  0.1198470E+00
         -2   -1    0    0    0  501 -0.00000000000E+00  0.00000000000E+00  0.71224948564E+02  0.71224948564E+02  0.00000000000E+00 0.  1.
          2   -1    0    0  501    0  0.00000000000E+00 -0.00000000000E+00 -0.33933239810E+03  0.33933239810E+03  0.00000000000E+00 0. -1.
         23    2    1    2    0    0  0.88307486942E+02 -0.20521057027E+02 -0.80035318703E+02  0.17392819730E+03  0.12500415811E+03 0.  0.
          5    1    3    3  502    0  0.66609390980E+02 -0.28157012029E+02 -0.11252609316E+03  0.13384259388E+03  0.47000000000E+01 0. -1.
         -5    1    3    3    0  502  0.21698095962E+02  0.76359550022E+01  0.32490774458E+02  0.40085603426E+02  0.47000000000E+01 0. -1.
        -11    1    1    2    0    0 -0.63029815583E+02 -0.41649934771E+02 -0.86007536030E+02  0.11447607162E+03  0.00000000000E+00 0.  1.
         11    1    1    2    0    0 -0.25277671359E+02  0.62170991798E+02 -0.10206459480E+03  0.12215307774E+03  0.00000000000E+00 0. -1.
<mgrwt>
<rscale>  0 0.15164163E+03</rscale>
<asrwt>0</asrwt>
<pdfrwt beam="2">  1        2 0.52204984E-01 0.15441945E+03</pdfrwt>
<pdfrwt beam="1">  1       -2 0.10957684E-01 0.15441945E+03</pdfrwt>
<totfact> 0.52899770E+03</totfact>
</mgrwt>
</event>
<event>
 7    1  0.4230786E-006  0.1471861E+03  0.7546771E-02  0.1213467E+00
          2   -1    0    0  501    0  0.00000000000E+00  0.00000000000E+00  0.49455312789E+02  0.49455312789E+02  0.00000000000E+00 0. -1.
         -2   -1    0    0    0  501 -0.00000000000E+00 -0.00000000000E+00 -0.39208466714E+03  0.39208466714E+03  0.00000000000E+00 0.  1.
         23    2    1    2    0    0 -0.77721604724E+02 -0.16608887272E+01 -0.24894053412E+03  0.28919741515E+03  0.12498139466E+03 0.  0.
          5    1    3    3  502    0 -0.85452112883E+02 -0.37897664808E+02 -0.22780361728E+03  0.24628210377E+03  0.47000000000E+01 0. -1.
         -5    1    3    3    0  502  0.77305081599E+01  0.36236776081E+02 -0.21136916841E+02  0.42915311378E+02  0.47000000000E+01 0. -1.
        -11    1    1    2    0    0  0.83431402905E+02 -0.28231728655E+02 -0.79946153187E+02  0.11895048089E+03  0.00000000000E+00 0.  1.
         11    1    1    2    0    0 -0.57097981817E+01  0.29892617382E+02 -0.13742667048E+02  0.33392083895E+02  0.00000000000E+00 0. -1.
<mgrwt>
<rscale>  0 0.13989782E+03</rscale>
<asrwt>0</asrwt>
<pdfrwt beam="1">  1        2 0.76085100E-02 0.14718613E+03</pdfrwt>
<pdfrwt beam="2">  1       -2 0.60320715E-01 0.14718613E+03</pdfrwt>
<totfact> 0.22929799E+03</totfact>
</mgrwt>
</event>
<event>
 6    1  0.4230786E-006  0.1582047E+03  0.7546771E-02  0.1201812E+00
         -2   -1    0    0    0  501 -0.00000000000E+00  0.00000000000E+00  0.31923527538E+04  0.31923527538E+04  0.00000000000E+00 0.  1.
          2   -1    0    0  501    0  0.00000000000E+00 -0.00000000000E+00 -0.70836340677E+02  0.70836340677E+02  0.00000000000E+00 0. -1.
          5    1    1    2  502    0  0.86711612438E+01 -0.17782457515E+02  0.79374939096E+02  0.81938243751E+02  0.47000000000E+01 0. -1.
         -5    1    1    2    0  502 -0.92934561816E+02  0.78016523326E+01  0.30549695584E+04  0.30563963734E+04  0.47000000000E+01 0.  1.
        -11    1    1    2    0    0  0.67939110733E+02 -0.84372827511E+00 -0.48965633349E+02  0.83750032203E+02  0.00000000000E+00 0. -1.
         11    1    1    2    0    0  0.16324289839E+02  0.10824533458E+02  0.36137548996E+02  0.41104445146E+02  0.00000000000E+00 0.  1.
<mgrwt>
<rscale>  0 0.14891537E+03</rscale>
<asrwt>0</asrwt>
<pdfrwt beam="2">  1        2 0.10897901E-01 0.15820474E+03</pdfrwt>
<pdfrwt beam="1">  1       -2 0.49113108E+00 0.15820474E+03</pdfrwt>
<totfact> 0.14004403E+00</totfact>
</mgrwt>
</event>
<event>
 7    1  0.4230786E-006  0.1327843E+03  0.7546771E-02  0.1236082E+00
          2   -1    0    0  501    0  0.00000000000E+00  0.00000000000E+00  0.42060388772E+02  0.42060388772E+02  0.00000000000E+00 0. -1.
         -2   -1    0    0    0  501 -0.00000000000E+00 -0.00000000000E+00 -0.36085292373E+03  0.36085292373E+03  0.00000000000E+00 0.  1.
         23    2    1    2    0    0 -0.54437454977E+01  0.44469965694E+02 -0.23857352058E+03  0.27303664243E+03  0.12499788467E+03 0.  0.
          5    1    3    3  502    0  0.18778365438E+02  0.40293649312E+02 -0.13670827591E+02  0.46745980687E+02  0.47000000000E+01 0.  1.
         -5    1    3    3    0  502 -0.24222110935E+02  0.41763163822E+01 -0.22490269299E+03  0.22629066174E+03  0.47000000000E+01 0.  1.
        -11    1    1    2    0    0  0.94376843361E+01 -0.64472532222E+02 -0.86716836150E+02  0.10846929044E+03  0.00000000000E+00 0.  1.
         11    1    1    2    0    0 -0.39939388384E+01  0.20002566529E+02  0.64978217693E+01  0.21407379637E+02  0.00000000000E+00 0. -1.
<mgrwt>
<rscale>  0 0.12435424E+03</rscale>
<asrwt>0</asrwt>
<pdfrwt beam="1">  1        2 0.64708287E-02 0.13278435E+03</pdfrwt>
<pdfrwt beam="2">  1       -2 0.55515837E-01 0.13278435E+03</pdfrwt>
<totfact> 0.33161257E+03</totfact>
</mgrwt>
</event>
<event>
 7    1  0.4230786E-006  0.1922940E+03  0.7546771E-02  0.1161148E+00
         -1   -1    0    0    0  501 -0.00000000000E+00  0.00000000000E+00  0.22525059535E+03  0.22525059535E+03  0.00000000000E+00 0.  1.
          1   -1    0    0  501    0  0.00000000000E+00 -0.00000000000E+00 -0.22126191042E+03  0.22126191042E+03  0.00000000000E+00 0. -1.
         23    2    1    2    0    0 -0.43172753352E+02  0.13960730696E+03  0.13090581376E+03  0.23262265167E+03  0.12499151654E+03 0.  0.
          5    1    3    3  502    0 -0.50641944634E+02  0.54745813461E+01  0.10630423508E+02  0.52246277391E+02  0.47000000000E+01 0.  1.
         -5    1    3    3    0  502  0.74691912826E+01  0.13413272561E+03  0.12027539026E+03  0.18037637428E+03  0.47000000000E+01 0.  1.
        -11    1    1    2    0    0 -0.13657544290E+02 -0.10367059003E+03 -0.83933059747E+02  0.13408533951E+03  0.00000000000E+00 0. -1.
         11    1    1    2    0    0  0.56830297642E+02 -0.35936716924E+02 -0.42984069089E+02  0.79804514589E+02  0.00000000000E+00 0.  1.
<mgrwt>
<rscale>  0 0.18705128E+03</rscale>
<asrwt>0</asrwt>
<pdfrwt beam="2">  1        1 0.34040294E-01 0.19229396E+03</pdfrwt>
<pdfrwt beam="1">  1       -1 0.34653938E-01 0.19229396E+03</pdfrwt>
<totfact> 0.10230464E+03</totfact>
</mgrwt>
</event>
<event>
 7    1  0.4933351E-006  0.1858807E+03  0.7546771E-02  0.1166951E+00
          1   -1    0    0  501    0  0.00000000000E+00  0.00000000000E+00  0.97016675209E+02  0.97016675209E+02  0.00000000000E+00 0. -1.
         -1   -1    0    0    0  501 -0.00000000000E+00 -0.00000000000E+00 -0.32570712592E+03  0.32570712592E+03  0.00000000000E+00 0.  1.
         23    2    1    2    0    0 -0.13747056002E+03  0.52601684243E+01 -0.14764704786E+03  0.23738426247E+03  0.12500325229E+03 0.  0.
          5    1    3    3  502    0 -0.15370460420E+03  0.23365291450E+02 -0.10370685534E+03  0.18694449455E+03  0.47000000000E+01 0. -1.
         -5    1    3    3    0  502  0.16234044177E+02 -0.18105123026E+02 -0.43940192515E+02  0.50439767925E+02  0.47000000000E+01 0. -1.
        -11    1    1    2    0    0  0.36521670522E+02  0.64560251081E+01 -0.74837843351E+02  0.83523741986E+02  0.00000000000E+00 0.  1.
         11    1    1    2    0    0  0.10094888950E+03 -0.11716193532E+02 -0.62055594993E+01  0.10181579667E+03  0.00000000000E+00 0. -1.
<mgrwt>
<rscale>  0 0.18088292E+03</rscale>
<asrwt>0</asrwt>
<pdfrwt beam="1">  1        1 0.14925642E-01 0.18588071E+03</pdfrwt>
<pdfrwt beam="2">  1       -1 0.50108789E-01 0.18588071E+03</pdfrwt>
<totfact> 0.15174481E+03</totfact>
</mgrwt>
</event>
<event>
 7    1  0.4230786E-006  0.1497747E+03  0.7546771E-02  0.1210663E+00
          3   -1    0    0  501    0  0.00000000000E+00  0.00000000000E+00  0.19493965908E+03  0.19493965908E+03  0.00000000000E+00 0. -1.
         -3   -1    0    0    0  501 -0.00000000000E+00 -0.00000000000E+00 -0.13526199205E+03  0.13526199205E+03  0.00000000000E+00 0.  1.
         23    2    1    2    0    0  0.80026860172E+02  0.20151837828E+02 -0.58745547209E+02  0.16088348725E+03  0.12498824839E+03 0.  0.
          5    1    3    3  502    0  0.62448355628E+02  0.65717512528E+02 -0.64676564878E+02  0.11146181686E+03  0.47000000000E+01 0. -1.
         -5    1    3    3    0  502  0.17578504544E+02 -0.45565674701E+02  0.59310176695E+01  0.49421670384E+02  0.47000000000E+01 0. -1.
        -11    1    1    2    0    0 -0.37829595155E+02  0.21835984702E+02  0.87735027018E+01  0.44551799595E+02  0.00000000000E+00 0.  1.
         11    1    1    2    0    0 -0.42197265017E+02 -0.41987822530E+02  0.10964971154E+03  0.12476636428E+03  0.00000000000E+00 0. -1.
<mgrwt>
<rscale>  0 0.14200003E+03</rscale>
<asrwt>0</asrwt>
<pdfrwt beam="1">  1        3 0.29990717E-01 0.14977469E+03</pdfrwt>
<pdfrwt beam="2">  1       -3 0.20809537E-01 0.14977469E+03</pdfrwt>
<totfact> 0.52812270E+02</totfact>
</mgrwt>
</event>
<event>
 7    1  0.4230786E-006  0.1297838E+03  0.7546771E-02  0.1279930E+00
         -4   -1    0    0    0  501 -0.00000000000E+00  0.00000000000E+00  0.66324970845E+02  0.66324970845E+02  0.00000000000E+00 0.  1.
          4   -1    0    0  501    0  0.00000000000E+00 -0.00000000000E+00 -0.21206374740E+03  0.21206374740E+03  0.00000000000E+00 0. -1.
         23    2    1    2    0    0  0.44204066439E+01  0.34199608237E+02 -0.45368914418E+01  0.12986311568E+03  0.12511871256E+03 0.  0.
          5    1    3    3  502    0  0.36960323615E+02 -0.19183796402E+01 -0.50506418747E+02  0.62791193943E+02  0.47000000000E+01 0. -1.
         -5    1    3    3    0  502 -0.32539916972E+02  0.36117987877E+02  0.45969527305E+02  0.67071921737E+02  0.47000000000E+01 0.  1.
        -11    1    1    2    0    0 -0.14634203428E+02 -0.29771711695E+02 -0.85253690620E+02  0.91480634517E+02  0.00000000000E+00 0. -1.
         11    1    1    2    0    0  0.10213796784E+02 -0.44278965411E+01 -0.55948194491E+02  0.57044968045E+02  0.00000000000E+00 0.  1.
<mgrwt>
<rscale>  0 0.10017414E+03</rscale>
<asrwt>0</asrwt>
<pdfrwt beam="2">  1        4 0.32625192E-01 0.12978384E+03</pdfrwt>
<pdfrwt beam="1">  1       -4 0.10203842E-01 0.12978384E+03</pdfrwt>
<totfact> 0.10852927E+03</totfact>
</mgrwt>
</event>
<event>
 7    1  0.4230786E-006  0.1336315E+03  0.7546771E-02  0.1234465E+00
          2   -1    0    0  501    0  0.00000000000E+00  0.00000000000E+00  0.91183367066E+03  0.91183367066E+03  0.00000000000E+00 0. -1.
         -2   -1    0    0    0  501 -0.00000000000E+00 -0.00000000000E+00 -0.15674182298E+02  0.15674182298E+02  0.00000000000E+00 0.  1.
         23    2    1    2    0    0 -0.30308891960E+02  0.36347282645E+02  0.44627617560E+03  0.46585383082E+03  0.12497044811E+03 0.  0.
          5    1    3    3  502    0  0.39298904216E+02  0.96092426607E+01  0.28757462109E+03  0.29044447682E+03  0.47000000000E+01 0. -1.
         -5    1    3    3    0  502 -0.69607796176E+02  0.26738039984E+02  0.15870155450E+03  0.17540935400E+03  0.47000000000E+01 0. -1.
        -11    1    1    2    0    0  0.51164193154E+02 -0.45018577159E+02  0.41160679342E+03  0.41721049764E+03  0.00000000000E+00 0. -1.
         11    1    1    2    0    0 -0.20855301194E+02  0.86712945139E+01  0.38276519345E+02  0.44443524496E+02  0.00000000000E+00 0.  1.
<mgrwt>
<rscale>  0 0.12538733E+03</rscale>
<asrwt>0</asrwt>
<pdfrwt beam="1">  1        2 0.14028206E+00 0.13363146E+03</pdfrwt>
<pdfrwt beam="2">  1       -2 0.24114134E-02 0.13363146E+03</pdfrwt>
<totfact> 0.16680433E+04</totfact>
</mgrwt>
</event>
<event>
 7    1  0.4230786E-006  0.1487110E+03  0.7546771E-02  0.1211239E+00
         -3   -1    0    0    0  501 -0.00000000000E+00  0.00000000000E+00  0.89739577711E+02  0.89739577711E+02  0.00000000000E+00 0.  1.
          3   -1    0    0  501    0  0.00000000000E+00 -0.00000000000E+00 -0.23903949328E+03  0.23903949328E+03  0.00000000000E+00 0. -1.
         23    2    1    2    0    0 -0.22219252941E+02 -0.77433983124E+02 -0.18542234100E+02  0.14986255921E+03  0.12500102106E+03 0.  0.
          5    1    3    3  502    0 -0.25902332035E+02 -0.92976684995E+02 -0.53995483252E+02  0.11069415960E+03  0.47000000000E+01 0.  1.
         -5    1    3    3    0  502  0.36830790936E+01  0.15542701871E+02  0.35453249152E+02  0.39168399616E+02  0.47000000000E+01 0.  1.
        -11    1    1    2    0    0  0.35609030528E+02  0.85757021861E+01 -0.79402000223E+01  0.37477893478E+02  0.00000000000E+00 0.  1.
         11    1    1    2    0    0 -0.13389777587E+02  0.68858280938E+02 -0.12281748145E+03  0.14143861830E+03  0.00000000000E+00 0. -1.
<mgrwt>
<rscale>  0 0.14156471E+03</rscale>
<asrwt>0</asrwt>
<pdfrwt beam="2">  1        3 0.36775306E-01 0.14871104E+03</pdfrwt>
<pdfrwt beam="1">  1       -3 0.13806089E-01 0.14871104E+03</pdfrwt>
<totfact> 0.73292586E+02</totfact>
</mgrwt>
</event>
<event>
 7    1  0.4230786E-006  0.2672082E+03  0.7546771E-02  0.1104966E+00
          1   -1    0    0  501    0  0.00000000000E+00  0.00000000000E+00  0.93925194990E+03  0.93925194990E+03  0.00000000000E+00 0. -1.
         -1   -1    0    0    0  501 -0.00000000000E+00 -0.00000000000E+00 -0.73513685599E+02  0.73513685599E+02  0.00000000000E+00 0.  1.
         23    2    1    2    0    0  0.82294500643E+02 -0.22137074120E+03  0.37422402792E+03  0.45983024288E+03  0.12499135689E+03 0.  0.
          5    1    3    3  502    0  0.10710820633E+02  0.92578933075E+01  0.59133740261E+00  0.14928829393E+02  0.47000000000E+01 0. -1.
         -5    1    3    3    0  502  0.71583680010E+02 -0.23062863451E+03  0.37363269052E+03  0.44490141349E+03  0.47000000000E+01 0. -1.
        -11    1    1    2    0    0 -0.73958439437E+02  0.12838123162E+03  0.37774504422E+03  0.40576213454E+03  0.00000000000E+00 0. -1.
         11    1    1    2    0    0 -0.83360612056E+01  0.92989509578E+02  0.11376919216E+03  0.14717325808E+03  0.00000000000E+00 0.  1.
<mgrwt>
<rscale>  0 0.26365623E+03</rscale>
<asrwt>0</asrwt>
<pdfrwt beam="1">  1        1 0.14450029E+00 0.26720821E+03</pdfrwt>
<pdfrwt beam="2">  1       -1 0.11309798E-01 0.26720821E+03</pdfrwt>
<totfact> 0.89666033E+02</totfact>
</mgrwt>
</event>
<event>
 7    1  0.4230786E-006  0.1322371E+03  0.7546771E-02  0.1231122E+00
         -1   -1    0    0    0  501 -0.00000000000E+00  0.00000000000E+00  0.79048736796E+02  0.79048736796E+02  0.00000000000E+00 0.  1.
          1   -1    0    0  501    0  0.00000000000E+00 -0.00000000000E+00 -0.22763418002E+03  0.22763418002E+03  0.00000000000E+00 0. -1.
         23    2    1    2    0    0  0.41539110024E+02  0.11604269416E+02 -0.18728489451E+02  0.13355676915E+03  0.12500599001E+03 0.  0.
          5    1    3    3  502    0 -0.36130782121E+02 -0.22456748491E+01 -0.37488915552E+02  0.52325760973E+02  0.47000000000E+01 0. -1.
         -5    1    3    3    0  502  0.77669892145E+02  0.13849944265E+02  0.18760426101E+02  0.81231008177E+02  0.47000000000E+01 0. -1.
        -11    1    1    2    0    0  0.16766611483E+02  0.35660062812E+02 -0.42637097904E+02  0.58057570205E+02  0.00000000000E+00 0.  1.
         11    1    1    2    0    0 -0.58305721507E+02 -0.47264332227E+02 -0.87219855872E+02  0.11506857746E+03  0.00000000000E+00 0. -1.
<mgrwt>
<rscale>  0 0.12756005E+03</rscale>
<asrwt>0</asrwt>
<pdfrwt beam="2">  1        1 0.35020643E-01 0.13223711E+03</pdfrwt>
<pdfrwt beam="1">  1       -1 0.12161344E-01 0.13223711E+03</pdfrwt>
<totfact> 0.53247809E+03</totfact>
</mgrwt>
</event>
<event>
 7    1  0.4230786E-006  0.1420159E+03  0.7546771E-02  0.1221369E+00
         -3   -1    0    0    0  501 -0.00000000000E+00  0.00000000000E+00  0.78946709421E+03  0.78946709421E+03  0.00000000000E+00 0.  1.
          3   -1    0    0  501    0  0.00000000000E+00 -0.00000000000E+00 -0.21471640633E+02  0.21471640633E+02  0.00000000000E+00 0. -1.
         23    2    1    2    0    0  0.47889196043E+02 -0.47423197382E+02  0.50557808491E+03  0.52514541084E+03  0.12500467128E+03 0.  0.
          5    1    3    3  502    0  0.22378175799E+02 -0.89487618426E+02  0.34343760326E+03  0.35564068094E+03  0.47000000000E+01 0. -1.
         -5    1    3    3    0  502  0.25511020244E+02  0.42064421045E+02  0.16214048165E+03  0.16950472991E+03  0.47000000000E+01 0. -1.
        -11    1    1    2    0    0 -0.22432670326E+02  0.56087972428E+01  0.48645368865E+01  0.23629367820E+02  0.00000000000E+00 0. -1.
         11    1    1    2    0    0 -0.25456525717E+02  0.41814400139E+02  0.25755283178E+03  0.26216395618E+03  0.00000000000E+00 0.  1.
<mgrwt>
<rscale>  0 0.13418910E+03</rscale>
<asrwt>0</asrwt>
<pdfrwt beam="2">  1        3 0.33033299E-02 0.14201585E+03</pdfrwt>
<pdfrwt beam="1">  1       -3 0.12145645E+00 0.14201585E+03</pdfrwt>
<totfact> 0.58813031E+02</totfact>
</mgrwt>
</event>
<event>
 7    1  0.4230786E-006  0.1490331E+03  0.7546771E-02  0.1210804E+00
          1   -1    0    0  501    0  0.00000000000E+00  0.00000000000E+00  0.68619287090E+02  0.68619287090E+02  0.00000000000E+00 0. -1.
         -1   -1    0    0    0  501 -0.00000000000E+00 -0.00000000000E+00 -0.30832972677E+03  0.30832972677E+03  0.00000000000E+00 0.  1.
         23    2    1    2    0    0 -0.54814939458E+02 -0.59849097905E+02 -0.19749145382E+03  0.24741407676E+03  0.12499703572E+03 0.  0.
          5    1    3    3  502    0 -0.55561535732E+02 -0.38491295595E+02 -0.21105879586E+03  0.22166770040E+03  0.47000000000E+01 0.  1.
         -5    1    3    3    0  502  0.74659627402E+00 -0.21357802310E+02  0.13567342042E+02  0.25746376358E+02  0.47000000000E+01 0.  1.
        -11    1    1    2    0    0  0.66364355182E+02  0.21241994084E+02  0.19982172808E+01  0.69709703942E+02  0.00000000000E+00 0. -1.
         11    1    1    2    0    0 -0.11549415725E+02  0.38607103821E+02 -0.44217203141E+02  0.59825233160E+02  0.00000000000E+00 0.  1.
<mgrwt>
<rscale>  0 0.14189333E+03</rscale>
<asrwt>0</asrwt>
<pdfrwt beam="1">  1        1 0.10556813E-01 0.14903305E+03</pdfrwt>
<pdfrwt beam="2">  1       -1 0.47435344E-01 0.14903305E+03</pdfrwt>
<totfact> 0.26236566E+03</totfact>
</mgrwt>
</event>
<event>
 7    1  0.4230786E-006  0.1346099E+03  0.7546771E-02  0.1232276E+00
          4   -1    0    0  501    0  0.00000000000E+00  0.00000000000E+00  0.85442015357E+03  0.85442015357E+03  0.00000000000E+00 0. -1.
         -4   -1    0    0    0  501 -0.00000000000E+00 -0.00000000000E+00 -0.17073680572E+02  0.17073680572E+02  0.00000000000E+00 0.  1.
         23    2    1    2    0    0 -0.47225135692E+02  0.16332860420E+02  0.42968683301E+03  0.45027834656E+03  0.12499135630E+03 0.  0.
          5    1    3    3  502    0 -0.55080634214E+02 -0.38453404049E+02  0.32357173265E+03  0.33050460922E+03  0.47000000000E+01 0. -1.
         -5    1    3    3    0  502  0.78554985214E+01  0.54786264468E+02  0.10611510036E+03  0.11977373734E+03  0.47000000000E+01 0. -1.
        -11    1    1    2    0    0  0.57326520496E+02  0.22413295335E+02  0.18462891948E+03  0.19461891909E+03  0.00000000000E+00 0.  1.
         11    1    1    2    0    0 -0.10101384804E+02 -0.38746155754E+02  0.22303072051E+03  0.22659656849E+03  0.00000000000E+00 0. -1.
<mgrwt>
<rscale>  0 0.12680449E+03</rscale>
<asrwt>0</asrwt>
<pdfrwt beam="1">  1        4 0.13144922E+00 0.13460986E+03</pdfrwt>
<pdfrwt beam="2">  1       -4 0.26267208E-02 0.13460986E+03</pdfrwt>
<totfact> 0.49043456E+02</totfact>
</mgrwt>
</event>
<event>
 7    1  0.4230786E-006  0.2120558E+03  0.7546771E-02  0.1142019E+00
          2   -1    0    0  501    0  0.00000000000E+00  0.00000000000E+00  0.44783501677E+03  0.44783501677E+03  0.00000000000E+00 0. -1.
         -2   -1    0    0    0  501 -0.00000000000E+00 -0.00000000000E+00 -0.10740713740E+03  0.10740713740E+03  0.00000000000E+00 0.  1.
         23    2    1    2    0    0  0.17029829568E+03  0.18411436133E+02  0.81919858715E+02  0.22732908645E+03  0.12500863892E+03 0.  0.
          5    1    3    3  502    0 -0.96964609666E+01  0.27560986021E+02  0.72694813788E+00  0.29601482384E+02  0.47000000000E+01 0.  1.
         -5    1    3    3    0  502  0.17999475665E+03 -0.91495498878E+01  0.81192910577E+02  0.19772760407E+03  0.47000000000E+01 0.  1.
        -11    1    1    2    0    0 -0.32602730560E+02 -0.38631804314E+02  0.25775382302E+02  0.56742617823E+02  0.00000000000E+00 0.  1.
         11    1    1    2    0    0 -0.13769556512E+03  0.20220368181E+02  0.23273263835E+03  0.27117044989E+03  0.00000000000E+00 0. -1.
<mgrwt>
<rscale>  0 0.20942940E+03</rscale>
<asrwt>0</asrwt>
<pdfrwt beam="1">  1        2 0.68897694E-01 0.21205577E+03</pdfrwt>
<pdfrwt beam="2">  1       -2 0.16524175E-01 0.21205577E+03</pdfrwt>
<totfact> 0.20351559E+03</totfact>
</mgrwt>
</event>
<event>
 7    1  0.4230786E-006  0.1694180E+03  0.7546771E-02  0.1184918E+00
          1   -1    0    0  501    0  0.00000000000E+00  0.00000000000E+00  0.39434742075E+02  0.39434742075E+02  0.00000000000E+00 0. -1.
         -1   -1    0    0    0  501 -0.00000000000E+00 -0.00000000000E+00 -0.76506594114E+03  0.76506594114E+03  0.00000000000E+00 0.  1.
         23    2    1    2    0    0 -0.10362658451E+03 -0.48203649759E+02 -0.55127000569E+03  0.57671576296E+03  0.12506154967E+03 0.  0.
          5    1    3    3  502    0 -0.12929538068E+03 -0.45488056234E+02 -0.50731942077E+03  0.52552977406E+03  0.47000000000E+01 0. -1.
         -5    1    3    3    0  502  0.25668796179E+02 -0.27155935246E+01 -0.43950584921E+02  0.51185988907E+02  0.47000000000E+01 0. -1.
        -11    1    1    2    0    0  0.51865222051E+02  0.15335354719E+02 -0.15393004470E+03  0.16315524210E+03  0.00000000000E+00 0.  1.
         11    1    1    2    0    0  0.51761362454E+02  0.32868295040E+02 -0.20431148666E+02  0.64629678150E+02  0.00000000000E+00 0. -1.
<mgrwt>
<rscale>  0 0.16339335E+03</rscale>
<asrwt>0</asrwt>
<pdfrwt beam="1">  1        1 0.60668835E-02 0.16941798E+03</pdfrwt>
<pdfrwt beam="2">  1       -1 0.11770245E+00 0.16941798E+03</pdfrwt>
<totfact> 0.87337641E+02</totfact>
</mgrwt>
</event>
<event>
 7    1  0.4230786E-006  0.1676187E+03  0.7546771E-02  0.1187350E+00
          1   -1    0    0  501    0  0.00000000000E+00  0.00000000000E+00  0.38725518479E+03  0.38725518479E+03  0.00000000000E+00 0. -1.
         -1   -1    0    0    0  501 -0.00000000000E+00 -0.00000000000E+00 -0.70468737902E+02  0.70468737902E+02  0.00000000000E+00 0.  1.
         23    2    1    2    0    0  0.10266434433E+03  0.43907926582E+02  0.92281485141E+02  0.19134236853E+03  0.12501262289E+03 0.  0.
          5    1    3    3  502    0  0.10534354476E+03  0.62114549023E+02  0.11060016097E+03  0.16495443380E+03  0.47000000000E+01 0.  1.
         -5    1    3    3    0  502 -0.26792004281E+01 -0.18206622441E+02 -0.18318675828E+02  0.26387934738E+02  0.47000000000E+01 0.  1.
        -11    1    1    2    0    0 -0.74069688763E+02 -0.48412369255E+02  0.80923584993E+02  0.11991122924E+03  0.00000000000E+00 0.  1.
         11    1    1    2    0    0 -0.28594655564E+02  0.45044426727E+01  0.14358137675E+03  0.14647032491E+03  0.00000000000E+00 0. -1.
<mgrwt>
<rscale>  0 0.16119847E+03</rscale>
<asrwt>0</asrwt>
<pdfrwt beam="1">  1        1 0.59577719E-01 0.16761870E+03</pdfrwt>
<pdfrwt beam="2">  1       -1 0.10841345E-01 0.16761870E+03</pdfrwt>
<totfact> 0.33208191E+03</totfact>
</mgrwt>
</event>
<event>
 7    1  0.4230786E-006  0.1324384E+03  0.7546771E-02  0.1237614E+00
          1   -1    0    0  501    0  0.00000000000E+00  0.00000000000E+00  0.19480231795E+03  0.19480231795E+03  0.00000000000E+00 0. -1.
         -1   -1    0    0    0  501 -0.00000000000E+00 -0.00000000000E+00 -0.74332608962E+02  0.74332608962E+02  0.00000000000E+00 0.  1.
         23    2    1    2    0    0  0.37145246317E+02  0.23061191872E+02  0.33096648618E+02  0.13651124825E+03  0.12501337870E+03 0.  0.
          5    1    3    3  502    0  0.42743457110E+02 -0.37745170131E+02  0.46604161109E+02  0.73795249350E+02  0.47000000000E+01 0. -1.
         -5    1    3    3    0  502 -0.55982107928E+01  0.60806362003E+02 -0.13507512491E+02  0.62715998898E+02  0.47000000000E+01 0. -1.
        -11    1    1    2    0    0 -0.32822738161E+02 -0.48703404647E+02  0.22782798634E+02  0.62995314732E+02  0.00000000000E+00 0.  1.
         11    1    1    2    0    0 -0.43225081556E+01  0.25642212775E+02  0.64590261733E+02  0.69628363929E+02  0.00000000000E+00 0. -1.
<mgrwt>
<rscale>  0 0.12338591E+03</rscale>
<asrwt>0</asrwt>
<pdfrwt beam="1">  1        1 0.29969587E-01 0.13243841E+03</pdfrwt>
<pdfrwt beam="2">  1       -1 0.11435786E-01 0.13243841E+03</pdfrwt>
<totfact> 0.71016257E+03</totfact>
</mgrwt>
</event>
<event>
 7    1  0.4230786E-006  0.1509729E+03  0.7546771E-02  0.1208192E+00
          2   -1    0    0  501    0  0.00000000000E+00  0.00000000000E+00  0.16312902324E+03  0.16312902324E+03  0.00000000000E+00 0. -1.
         -2   -1    0    0    0  501 -0.00000000000E+00 -0.00000000000E+00 -0.11861979662E+03  0.11861979662E+03  0.00000000000E+00 0.  1.
         23    2    1    2    0    0  0.26087779317E+02  0.80541783409E+02  0.49531969880E+01  0.15105417270E+03  0.12500111130E+03 0.  0.
          5    1    3    3  502    0  0.11674152282E+02  0.16141021435E+02  0.61001573798E+02  0.64343612040E+02  0.47000000000E+01 0.  1.
         -5    1    3    3    0  502  0.14413627035E+02  0.64400761974E+02 -0.56048376810E+02  0.86710560662E+02  0.47000000000E+01 0.  1.
        -11    1    1    2    0    0 -0.30259459772E+02  0.38393478078E+01 -0.10781136330E+02  0.32351327606E+02  0.00000000000E+00 0.  1.
         11    1    1    2    0    0  0.41716804553E+01 -0.84381131217E+02  0.50337165964E+02  0.98343319552E+02  0.00000000000E+00 0. -1.
<mgrwt>
<rscale>  0 0.14388756E+03</rscale>
<asrwt>0</asrwt>
<pdfrwt beam="1">  1        2 0.25096773E-01 0.15097294E+03</pdfrwt>
<pdfrwt beam="2">  1       -2 0.18249199E-01 0.15097294E+03</pdfrwt>
<totfact> 0.50636088E+03</totfact>
</mgrwt>
</event>
<event>
 7    1  0.4230786E-006  0.1426153E+03  0.7546771E-02  0.1213878E+00
          2   -1    0    0  501    0  0.00000000000E+00  0.00000000000E+00  0.12468021294E+04  0.12468021294E+04  0.00000000000E+00 0. -1.
         -2   -1    0    0    0  501 -0.00000000000E+00 -0.00000000000E+00 -0.15629881102E+02  0.15629881102E+02  0.00000000000E+00 0.  1.
         23    2    1    2    0    0 -0.68024992892E+02  0.91370444745E+01  0.51438545488E+03  0.53378977965E+03  0.12501298906E+03 0.  0.
          5    1    3    3  502    0  0.25647552622E+02 -0.30834005357E+02  0.16150077981E+03  0.16647259451E+03  0.47000000000E+01 0.  1.
         -5    1    3    3    0  502 -0.93672545514E+02  0.39971049832E+02  0.35288467507E+03  0.36731718515E+03  0.47000000000E+01 0.  1.
        -11    1    1    2    0    0 -0.26374354308E+02  0.18290850701E+02  0.15022682851E+03  0.15361725745E+03  0.00000000000E+00 0.  1.
         11    1    1    2    0    0  0.94399347199E+02 -0.27427895175E+02  0.56655996491E+03  0.57502497339E+03  0.00000000000E+00 0. -1.
<mgrwt>
<rscale>  0 0.13959310E+03</rscale>
<asrwt>0</asrwt>
<pdfrwt beam="1">  1        2 0.19181563E+00 0.14261533E+03</pdfrwt>
<pdfrwt beam="2">  1       -2 0.24045981E-02 0.14261533E+03</pdfrwt>
<totfact> 0.10746481E+04</totfact>
</mgrwt>
</event>
<event>
 7    1  0.4230786E-006  0.1719100E+03  0.7546771E-02  0.1182243E+00
         -2   -1    0    0    0  501 -0.00000000000E+00  0.00000000000E+00  0.12683209407E+03  0.12683209407E+03  0.00000000000E+00 0.  1.
          2   -1    0    0  501    0  0.00000000000E+00 -0.00000000000E+00 -0.20666217230E+03  0.20666217230E+03  0.00000000000E+00 0. -1.
         23    2    1    2    0    0  0.63387615854E+02 -0.99544827642E+02 -0.65150013078E+02  0.18384119739E+03  0.12500359635E+03 0.  0.
          5    1    3    3  502    0 -0.29895672695E+02  0.37563213283E+01 -0.23441836301E+02  0.38463890664E+02  0.47000000000E+01 0.  1.
         -5    1    3    3    0  502  0.93283288550E+02 -0.10330114897E+03 -0.41708176777E+02  0.14537730673E+03  0.47000000000E+01 0.  1.
        -11    1    1    2    0    0  0.37450843840E+01  0.77678406982E+02 -0.12247406536E+01  0.77778278188E+02  0.00000000000E+00 0.  1.
         11    1    1    2    0    0 -0.67132700238E+02  0.21866420660E+02 -0.13455324507E+02  0.71874790792E+02  0.00000000000E+00 0. -1.
<mgrwt>
<rscale>  0 0.16585266E+03</rscale>
<asrwt>0</asrwt>
<pdfrwt beam="2">  1        2 0.31794180E-01 0.17191004E+03</pdfrwt>
<pdfrwt beam="1">  1       -2 0.19512630E-01 0.17191004E+03</pdfrwt>
<totfact> 0.35155503E+03</totfact>
</mgrwt>
</event>
<event>
 7    1  0.4230786E-006  0.1802218E+03  0.7546771E-02  0.1173180E+00
          1   -1    0    0  501    0  0.00000000000E+00  0.00000000000E+00  0.10393975750E+03  0.10393975750E+03  0.00000000000E+00 0. -1.
         -1   -1    0    0    0  501 -0.00000000000E+00 -0.00000000000E+00 -0.38139534499E+03  0.38139534499E+03  0.00000000000E+00 0.  1.
         23    2    1    2    0    0  0.38416311132E+02 -0.12401335529E+03 -0.27244090267E+03  0.32665568044E+03  0.12499905144E+03 0.  0.
          5    1    3    3  502    0 -0.15743286078E+02 -0.17562553076E+02 -0.16245049176E+03  0.16422102972E+03  0.47000000000E+01 0. -1.
         -5    1    3    3    0  502  0.54159597210E+02 -0.10645080222E+03 -0.10999041091E+03  0.16243465072E+03  0.47000000000E+01 0. -1.
        -11    1    1    2    0    0  0.80508875739E+01 -0.97882833656E+01 -0.11186167296E+02  0.16904366913E+02  0.00000000000E+00 0.  1.
         11    1    1    2    0    0 -0.46467198706E+02  0.13380163866E+03  0.61714824716E+01  0.14177505514E+03  0.00000000000E+00 0. -1.
<mgrwt>
<rscale>  0 0.17455462E+03</rscale>
<asrwt>0</asrwt>
<pdfrwt beam="1">  1        1 0.15990732E-01 0.18022177E+03</pdfrwt>
<pdfrwt beam="2">  1       -1 0.58676206E-01 0.18022177E+03</pdfrwt>
<totfact> 0.10317917E+03</totfact>
</mgrwt>
</event>
<event>
 7    1  0.4230786E-006  0.1300866E+03  0.7546771E-02  0.1241026E+00
         -2   -1    0    0    0  501 -0.00000000000E+00  0.00000000000E+00  0.13161699598E+03  0.13161699598E+03  0.00000000000E+00 0. -1.
          2   -1    0    0  501    0  0.00000000000E+00 -0.00000000000E+00 -0.11430361510E+03  0.11430361510E+03  0.00000000000E+00 0.  1.
         23    2    1    2    0    0  0.14773438650E+02 -0.32846921015E+02  0.54294668358E+02  0.14096248563E+03  0.12500134653E+03 0.  0.
          5    1    3    3  502    0 -0.32940158445E+02 -0.23146893850E+02  0.77013042399E+02  0.87028336953E+02  0.47000000000E+01 0. -1.
         -5    1    3    3    0  502  0.47713597094E+02 -0.97000271648E+01 -0.22718374041E+02  0.53934148679E+02  0.47000000000E+01 0. -1.
        -11    1    1    2    0    0 -0.42689511811E+02 -0.25082056985E+01  0.54062231311E+01  0.43103512189E+02  0.00000000000E+00 0. -1.
         11    1    1    2    0    0  0.27916073162E+02  0.35355126713E+02 -0.42387510613E+02  0.61854613261E+02  0.00000000000E+00 0.  1.
<mgrwt>
<rscale>  0 0.12126411E+03</rscale>
<asrwt>0</asrwt>
<pdfrwt beam="2">  1        2 0.17585172E-01 0.13008655E+03</pdfrwt>
<pdfrwt beam="1">  1       -2 0.20248769E-01 0.13008655E+03</pdfrwt>
<totfact> 0.62811592E+03</totfact>
</mgrwt>
</event>
<event>
 7    1  0.4230786E-006  0.1509911E+03  0.7546771E-02  0.1208187E+00
          2   -1    0    0  501    0  0.00000000000E+00  0.00000000000E+00  0.12958053416E+03  0.12958053416E+03  0.00000000000E+00 0.  1.
         -2   -1    0    0    0  501 -0.00000000000E+00 -0.00000000000E+00 -0.14760697227E+03  0.14760697227E+03  0.00000000000E+00 0. -1.
         23    2    1    2    0    0  0.69161183618E+02 -0.48900241019E+02  0.22969462834E+01  0.15100857746E+03  0.12499524637E+03 0.  0.
          5    1    3    3  502    0  0.34500751546E+02 -0.79479091060E+02  0.35657221014E+02  0.93812340251E+02  0.47000000000E+01 0.  1.
         -5    1    3    3    0  502  0.34660432073E+02  0.30578850040E+02 -0.33360274730E+02  0.57196237213E+02  0.47000000000E+01 0.  1.
        -11    1    1    2    0    0 -0.30557896438E+02 -0.25399547502E+02 -0.14308729503E+02  0.42233420274E+02  0.00000000000E+00 0.  1.
         11    1    1    2    0    0 -0.38603287180E+02  0.74299788522E+02 -0.60146548901E+01  0.83945508688E+02  0.00000000000E+00 0. -1.
<mgrwt>
<rscale>  0 0.14389089E+03</rscale>
<asrwt>0</asrwt>
<pdfrwt beam="1">  1        2 0.19935467E-01 0.15099111E+03</pdfrwt>
<pdfrwt beam="2">  1       -2 0.22708765E-01 0.15099111E+03</pdfrwt>
<totfact> 0.45183760E+03</totfact>
</mgrwt>
</event>
<event>
 7    1  0.4230786E-006  0.1717499E+03  0.7546771E-02  0.1182308E+00
         -1   -1    0    0    0  501 -0.00000000000E+00  0.00000000000E+00  0.11260318027E+03  0.11260318027E+03  0.00000000000E+00 0.  1.
          1   -1    0    0  501    0  0.00000000000E+00 -0.00000000000E+00 -0.28405341280E+03  0.28405341280E+03  0.00000000000E+00 0. -1.
         23    2    1    2    0    0 -0.11111760339E+03 -0.39072789393E+02 -0.31368693944E+01  0.17177849480E+03  0.12499682665E+03 0.  0.
          5    1    3    3  502    0 -0.58158665250E+02  0.13284841682E+02 -0.54701649745E+02  0.81075753756E+02  0.47000000000E+01 0. -1.
         -5    1    3    3    0  502 -0.52958938143E+02 -0.52357631075E+02  0.51564780351E+02  0.90702741048E+02  0.47000000000E+01 0. -1.
        -11    1    1    2    0    0  0.83169364542E+02  0.32252271886E+02 -0.48251632594E+02  0.10141781051E+03  0.00000000000E+00 0.  1.
         11    1    1    2    0    0  0.27948238852E+02  0.68205175071E+01 -0.12006173054E+03  0.12346028776E+03  0.00000000000E+00 0. -1.
<mgrwt>
<rscale>  0 0.16579293E+03</rscale>
<asrwt>0</asrwt>
<pdfrwt beam="2">  1        1 0.43700525E-01 0.17174985E+03</pdfrwt>
<pdfrwt beam="1">  1       -1 0.17323566E-01 0.17174985E+03</pdfrwt>
<totfact> 0.23523461E+03</totfact>
</mgrwt>
</event>
<event>
 6    1  0.4230786E-006  0.1694937E+03  0.7546771E-02  0.1202197E+00
         -3   -1    0    0    0  501 -0.00000000000E+00  0.00000000000E+00  0.78302132395E+03  0.78302132395E+03  0.00000000000E+00 0.  1.
          3   -1    0    0  501    0  0.00000000000E+00 -0.00000000000E+00 -0.34814528948E+02  0.34814528948E+02  0.00000000000E+00 0. -1.
          5    1    1    2  502    0 -0.78679840122E+02 -0.15301826943E+02  0.18610495547E+03  0.20268647612E+03  0.47000000000E+01 0. -1.
         -5    1    1    2    0  502  0.52115929661E+02  0.41009674667E+02  0.48291729329E+03  0.48747211787E+03  0.47000000000E+01 0.  1.
        -11    1    1    2    0    0  0.21864955302E+02  0.26286714952E+02  0.65214100351E+02  0.73633868144E+02  0.00000000000E+00 0.  1.
         11    1    1    2    0    0  0.46989551578E+01 -0.51994562676E+02  0.13970445891E+02  0.54043390770E+02  0.00000000000E+00 0. -1.
<mgrwt>
<rscale>  0 0.14860546E+03</rscale>
<asrwt>0</asrwt>
<pdfrwt beam="2">  1        3 0.53560820E-02 0.16949370E+03</pdfrwt>
<pdfrwt beam="1">  1       -3 0.12046481E+00 0.16949370E+03</pdfrwt>
<totfact> 0.28689287E+02</totfact>
</mgrwt>
</event>
<event>
 7    1  0.4230786E-006  0.1469213E+03  0.7546771E-02  0.1213833E+00
         -4   -1    0    0    0  501 -0.00000000000E+00  0.00000000000E+00  0.26987185502E+03  0.26987185502E+03  0.00000000000E+00 0.  1.
          4   -1    0    0  501    0  0.00000000000E+00 -0.00000000000E+00 -0.76875915739E+02  0.76875915739E+02  0.00000000000E+00 0. -1.
         23    2    1    2    0    0  0.29026128947E+02 -0.71532648548E+02  0.17004860612E+03  0.22472739780E+03  0.12500575550E+03 0.  0.
          5    1    3    3  502    0  0.29946113098E+01 -0.10242957560E+03  0.14257973271E+03  0.17564696363E+03  0.47000000000E+01 0. -1.
         -5    1    3    3    0  502  0.26031517637E+02  0.30896927048E+02  0.27468873407E+02  0.49080434164E+02  0.47000000000E+01 0. -1.
        -11    1    1    2    0    0 -0.58970721793E+02  0.47079934056E+02  0.32558317152E+02  0.82183393914E+02  0.00000000000E+00 0.  1.
         11    1    1    2    0    0  0.29944592846E+02  0.24452714492E+02 -0.96109839856E+01  0.39836979051E+02  0.00000000000E+00 0. -1.
<mgrwt>
<rscale>  0 0.13962621E+03</rscale>
<asrwt>0</asrwt>
<pdfrwt beam="2">  1        4 0.11827064E-01 0.14692132E+03</pdfrwt>
<pdfrwt beam="1">  1       -4 0.41518746E-01 0.14692132E+03</pdfrwt>
<totfact> 0.54185439E+02</totfact>
</mgrwt>
</event>
<event>
 7    1  0.4230786E-006  0.1402388E+03  0.7546771E-02  0.1224722E+00
         -2   -1    0    0    0  501 -0.00000000000E+00  0.00000000000E+00  0.75891099286E+02  0.75891099286E+02  0.00000000000E+00 0. -1.
          2   -1    0    0  501    0  0.00000000000E+00 -0.00000000000E+00 -0.24760318315E+03  0.24760318315E+03  0.00000000000E+00 0.  1.
         23    2    1    2    0    0  0.59781280523E+02  0.21787514487E+02 -0.28423882482E+02  0.14309027469E+03  0.12497364653E+03 0.  0.
          5    1    3    3  502    0 -0.31707757057E+02 -0.55950654022E+01  0.17579982200E+02  0.36984218102E+02  0.47000000000E+01 0.  1.
         -5    1    3    3    0  502  0.91489037580E+02  0.27382579890E+02 -0.46003864682E+02  0.10610605659E+03  0.47000000000E+01 0.  1.
        -11    1    1    2    0    0  0.17564438504E+02 -0.74248405935E+01 -0.26413687636E+01  0.19251352855E+02  0.00000000000E+00 0. -1.
         11    1    1    2    0    0 -0.77345719027E+02 -0.14362673894E+02 -0.14064683262E+03  0.16115265489E+03  0.00000000000E+00 0.  1.
<mgrwt>
<rscale>  0 0.13185981E+03</rscale>
<asrwt>0</asrwt>
<pdfrwt beam="2">  1        2 0.38092797E-01 0.14023876E+03</pdfrwt>
<pdfrwt beam="1">  1       -2 0.11675554E-01 0.14023876E+03</pdfrwt>
<totfact> 0.66476616E+03</totfact>
</mgrwt>
</event>
<event>
 7    1  0.4230786E-006  0.1262511E+03  0.7546771E-02  0.1248101E+00
          2   -1    0    0  501    0  0.00000000000E+00  0.00000000000E+00  0.40449373882E+03  0.40449373882E+03  0.00000000000E+00 0. -1.
         -2   -1    0    0    0  501 -0.00000000000E+00 -0.00000000000E+00 -0.32872009119E+02  0.32872009119E+02  0.00000000000E+00 0.  1.
         23    2    1    2    0    0 -0.17488369003E+02  0.31403257803E+01  0.14455251716E+03  0.19192384729E+03  0.12499451286E+03 0.  0.
          5    1    3    3  502    0 -0.47437258767E+02 -0.20601430825E+01  0.38170906723E+01  0.47866458925E+02  0.47000000000E+01 0.  1.
         -5    1    3    3    0  502  0.29948889764E+02  0.52004688628E+01  0.14073542648E+03  0.14405738836E+03  0.47000000000E+01 0.  1.
        -11    1    1    2    0    0  0.12706739555E+02 -0.42977234681E+02  0.68370950527E+02  0.81750173131E+02  0.00000000000E+00 0.  1.
         11    1    1    2    0    0  0.47816294476E+01  0.39836908901E+02  0.15869826202E+03  0.16369172752E+03  0.00000000000E+00 0. -1.
<mgrwt>
<rscale>  0 0.11701712E+03</rscale>
<asrwt>0</asrwt>
<pdfrwt beam="1">  1        2 0.62229802E-01 0.12625107E+03</pdfrwt>
<pdfrwt beam="2">  1       -2 0.50572325E-02 0.12625107E+03</pdfrwt>
<totfact> 0.14231345E+04</totfact>
</mgrwt>
</event>
<event>
 7    1  0.4230786E-006  0.1550033E+03  0.7546771E-02  0.1203525E+00
          2   -1    0    0  501    0  0.00000000000E+00  0.00000000000E+00  0.97774629211E+03  0.97774629211E+03  0.00000000000E+00 0. -1.
         -2   -1    0    0    0  501 -0.00000000000E+00 -0.00000000000E+00 -0.20373944225E+02  0.20373944225E+02  0.00000000000E+00 0.  1.
         23    2    1    2    0    0  0.37524091396E+02 -0.83610694181E+02  0.51881162892E+03  0.54147164517E+03  0.12500892210E+03 0.  0.
          5    1    3    3  502    0 -0.48370352292E+01  0.18168899907E+02  0.25198792354E+03  0.25273209026E+03  0.47000000000E+01 0. -1.
         -5    1    3    3    0  502  0.42361126625E+02 -0.10177959409E+03  0.26682370538E+03  0.28873955491E+03  0.47000000000E+01 0. -1.
        -11    1    1    2    0    0 -0.48611678136E+02  0.58249891384E+02  0.40968050170E+03  0.41664644313E+03  0.00000000000E+00 0. -1.
         11    1    1    2    0    0  0.11087586740E+02  0.25360802798E+02  0.28880217266E+02  0.40002148037E+02  0.00000000000E+00 0.  1.
<mgrwt>
<rscale>  0 0.14754341E+03</rscale>
<asrwt>0</asrwt>
<pdfrwt beam="1">  1        2 0.15042247E+00 0.15500334E+03</pdfrwt>
<pdfrwt beam="2">  1       -2 0.31344537E-02 0.15500334E+03</pdfrwt>
<totfact> 0.10433791E+04</totfact>
</mgrwt>
</event>
<event>
 7    1  0.4230786E-006  0.1538379E+03  0.7546771E-02  0.1204338E+00
         -2   -1    0    0    0  501 -0.00000000000E+00  0.00000000000E+00  0.50091093486E+02  0.50091093486E+02  0.00000000000E+00 0.  1.
          2   -1    0    0  501    0  0.00000000000E+00 -0.00000000000E+00 -0.40390442541E+03  0.40390442541E+03  0.00000000000E+00 0. -1.
         23    2    1    2    0    0  0.79802356042E+02 -0.40885638286E+02 -0.22419294731E+03  0.27189810018E+03  0.12500419117E+03 0.  0.
          5    1    3    3  502    0  0.27672588905E+02 -0.14173491561E+02  0.79494036637E+01  0.32433671675E+02  0.47000000000E+01 0.  1.
         -5    1    3    3    0  502  0.52129767137E+02 -0.26712146724E+02 -0.23214235097E+03  0.23946442851E+03  0.47000000000E+01 0.  1.
        -11    1    1    2    0    0 -0.52525169797E+02  0.70341591863E+01 -0.88336401043E+01  0.53725283202E+02  0.00000000000E+00 0.  1.
         11    1    1    2    0    0 -0.27277186245E+02  0.33851479099E+02 -0.12078674450E+03  0.12837213551E+03  0.00000000000E+00 0. -1.
<mgrwt>
<rscale>  0 0.14689732E+03</rscale>
<asrwt>0</asrwt>
<pdfrwt beam="2">  1        2 0.62139141E-01 0.15383790E+03</pdfrwt>
<pdfrwt beam="1">  1       -2 0.77063222E-02 0.15383790E+03</pdfrwt>
<totfact> 0.76175711E+03</totfact>
</mgrwt>
</event>
<event>
 7    1  0.4230786E-006  0.1267563E+03  0.7546771E-02  0.1245475E+00
         -1   -1    0    0    0  501 -0.00000000000E+00  0.00000000000E+00  0.13430410013E+03  0.13430410013E+03  0.00000000000E+00 0.  1.
          1   -1    0    0  501    0  0.00000000000E+00 -0.00000000000E+00 -0.93859632478E+02  0.93859632478E+02  0.00000000000E+00 0. -1.
         23    2    1    2    0    0 -0.12609825331E+02  0.16838859482E+02  0.32092563865E+02  0.13075588928E+03  0.12499846016E+03 0.  0.
          5    1    3    3  502    0  0.68220236430E+01  0.88980760489E+01 -0.47125822692E+02  0.48668767483E+02  0.47000000000E+01 0.  1.
         -5    1    3    3    0  502 -0.19431848974E+02  0.79407834328E+01  0.79218386557E+02  0.82087121796E+02  0.47000000000E+01 0.  1.
        -11    1    1    2    0    0 -0.33774953819E+02 -0.25049653006E+02 -0.15236934396E+02  0.44725795588E+02  0.00000000000E+00 0. -1.
         11    1    1    2    0    0  0.46384779150E+02  0.82107935244E+01  0.23588838178E+02  0.52682047736E+02  0.00000000000E+00 0.  1.
<mgrwt>
<rscale>  0 0.11857010E+03</rscale>
<asrwt>0</asrwt>
<pdfrwt beam="2">  1        1 0.14439943E-01 0.12675634E+03</pdfrwt>
<pdfrwt beam="1">  1       -1 0.20662169E-01 0.12675634E+03</pdfrwt>
<totfact> 0.70566131E+03</totfact>
</mgrwt>
</event>
<event>
 7    1  0.4230786E-006  0.1305213E+03  0.7546771E-02  0.1244892E+00
          2   -1    0    0  501    0  0.00000000000E+00  0.00000000000E+00  0.14152449277E+03  0.14152449277E+03  0.00000000000E+00 0. -1.
         -2   -1    0    0    0  501 -0.00000000000E+00 -0.00000000000E+00 -0.92629841955E+02  0.92629841955E+02  0.00000000000E+00 0.  1.
         23    2    1    2    0    0  0.19041225354E+02 -0.32361167203E+02 -0.25391300493E+01  0.13054598670E+03  0.12500397617E+03 0.  0.
          5    1    3    3  502    0 -0.28059222903E+00 -0.53493100720E+02  0.48158761527E+02  0.72131455472E+02  0.47000000000E+01 0.  1.
         -5    1    3    3    0  502  0.19321817583E+02  0.21131933516E+02 -0.50697891577E+02  0.58414531233E+02  0.47000000000E+01 0.  1.
        -11    1    1    2    0    0 -0.48986897099E+01 -0.27642246984E+02  0.12782565148E+02  0.30846149695E+02  0.00000000000E+00 0.  1.
         11    1    1    2    0    0 -0.14142535644E+02  0.60003414188E+02  0.38651215712E+02  0.72762198322E+02  0.00000000000E+00 0. -1.
<mgrwt>
<rscale>  0 0.11891855E+03</rscale>
<asrwt>0</asrwt>
<pdfrwt beam="1">  1        2 0.21772999E-01 0.13052129E+03</pdfrwt>
<pdfrwt beam="2">  1       -2 0.14250745E-01 0.13052129E+03</pdfrwt>
<totfact> 0.88272557E+03</totfact>
</mgrwt>
</event>
<event>
 7    1  0.4230786E-006  0.2208165E+03  0.7546771E-02  0.1136556E+00
         -2   -1    0    0    0  501 -0.00000000000E+00  0.00000000000E+00  0.71728999610E+03  0.71728999610E+03  0.00000000000E+00 0.  1.
          2   -1    0    0  501    0  0.00000000000E+00 -0.00000000000E+00 -0.75616403885E+02  0.75616403885E+02  0.00000000000E+00 0. -1.
         23    2    1    2    0    0  0.86469837284E+02  0.16018507928E+03  0.49419409467E+03  0.54128340140E+03  0.12499450005E+03 0.  0.
          5    1    3    3  502    0  0.56734732819E+02  0.12972241761E+03  0.20651733208E+03  0.25043608764E+03  0.47000000000E+01 0.  1.
         -5    1    3    3    0  502  0.29735104466E+02  0.30462661669E+02  0.28767676259E+03  0.29084731377E+03  0.47000000000E+01 0.  1.
        -11    1    1    2    0    0 -0.30227559232E+02 -0.13302134951E+03  0.74022816962E+02  0.15520232664E+03  0.00000000000E+00 0. -1.
         11    1    1    2    0    0 -0.56242278053E+02 -0.27163729769E+02  0.73456680582E+02  0.96420671941E+02  0.00000000000E+00 0.  1.
<mgrwt>
<rscale>  0 0.21645279E+03</rscale>
<asrwt>0</asrwt>
<pdfrwt beam="2">  1        2 0.11633293E-01 0.22081648E+03</pdfrwt>
<pdfrwt beam="1">  1       -2 0.11035230E+00 0.22081648E+03</pdfrwt>
<totfact> 0.36038541E+02</totfact>
</mgrwt>
</event>
<event>
 7    1  0.4230786E-006  0.1908628E+03  0.7546771E-02  0.1162979E+00
          2   -1    0    0  501    0  0.00000000000E+00  0.00000000000E+00  0.10172396812E+04  0.10172396812E+04  0.00000000000E+00 0. -1.
         -2   -1    0    0    0  501 -0.00000000000E+00 -0.00000000000E+00 -0.32019052518E+02  0.32019052518E+02  0.00000000000E+00 0.  1.
         23    2    1    2    0    0  0.10458788165E+03 -0.99331169945E+02  0.56775973656E+03  0.59898224153E+03  0.12499320339E+03 0.  0.
          5    1    3    3  502    0  0.13341171672E+03 -0.83742195769E+02  0.47848472349E+03  0.50376697204E+03  0.47000000000E+01 0. -1.
         -5    1    3    3    0  502 -0.28823835067E+02 -0.15588974176E+02  0.89275013072E+02  0.95215269483E+02  0.47000000000E+01 0. -1.
        -11    1    1    2    0    0 -0.21728271492E+02  0.75940993127E+02  0.15353081046E+03  0.17265822303E+03  0.00000000000E+00 0.  1.
         11    1    1    2    0    0 -0.82859610159E+02  0.23390176818E+02  0.26393008167E+03  0.27761826918E+03  0.00000000000E+00 0. -1.
<mgrwt>
<rscale>  0 0.18507576E+03</rscale>
<asrwt>0</asrwt>
<pdfrwt beam="1">  1        2 0.15649839E+00 0.19086280E+03</pdfrwt>
<pdfrwt beam="2">  1       -2 0.49260089E-02 0.19086280E+03</pdfrwt>
<totfact> 0.50705413E+03</totfact>
</mgrwt>
</event>
<event>
 7    1  0.4230786E-006  0.1271375E+03  0.7546771E-02  0.1246218E+00
          2   -1    0    0  501    0  0.00000000000E+00  0.00000000000E+00  0.90368931889E+03  0.90368931889E+03  0.00000000000E+00 0.  1.
         -2   -1    0    0    0  501 -0.00000000000E+00 -0.00000000000E+00 -0.13620483163E+02  0.13620483163E+02  0.00000000000E+00 0. -1.
         23    2    1    2    0    0  0.22749711207E+02 -0.46691591509E+01  0.51095800230E+03  0.52653777868E+03  0.12499840740E+03 0.  0.
          5    1    3    3  502    0 -0.36890021972E+02 -0.21156562228E+02  0.76340411330E+02  0.87512411968E+02  0.47000000000E+01 0.  1.
         -5    1    3    3    0  502  0.59639733179E+02  0.16487403078E+02  0.43461759097E+03  0.43902536671E+03  0.47000000000E+01 0.  1.
        -11    1    1    2    0    0 -0.38542830845E+01 -0.42906573683E+02  0.19299977991E+03  0.19774919623E+03  0.00000000000E+00 0.  1.
         11    1    1    2    0    0 -0.18895428123E+02  0.47575732834E+02  0.18611105351E+03  0.19302282714E+03  0.00000000000E+00 0. -1.
<mgrwt>
<rscale>  0 0.11812757E+03</rscale>
<asrwt>0</asrwt>
<pdfrwt beam="1">  1        2 0.13902908E+00 0.12713753E+03</pdfrwt>
<pdfrwt beam="2">  1       -2 0.20954597E-02 0.12713753E+03</pdfrwt>
<totfact> 0.20626787E+04</totfact>
</mgrwt>
</event>
<event>
 7    1  0.4230786E-006  0.2649286E+03  0.7546771E-02  0.1106048E+00
          2   -1    0    0  501    0  0.00000000000E+00  0.00000000000E+00  0.68601280976E+03  0.68601280976E+03  0.00000000000E+00 0. -1.
         -2   -1    0    0    0  501 -0.00000000000E+00 -0.00000000000E+00 -0.99382340861E+02  0.99382340861E+02  0.00000000000E+00 0.  1.
         23    2    1    2    0    0  0.38724177659E+02 -0.23035397383E+03  0.24847604662E+03  0.36321828932E+03  0.12499865902E+03 0.  0.
          5    1    3    3  502    0 -0.33320812269E+02 -0.62462802693E+02  0.26617069404E+02  0.75778866673E+02  0.47000000000E+01 0.  1.
         -5    1    3    3    0  502  0.72044989928E+02 -0.16789117113E+03  0.22185897722E+03  0.28743942264E+03  0.47000000000E+01 0.  1.
        -11    1    1    2    0    0 -0.37796662376E+02  0.14222791422E+03  0.13087921768E+03  0.19694348654E+03  0.00000000000E+00 0.  1.
         11    1    1    2    0    0 -0.92751528265E+00  0.88126059607E+02  0.20727520460E+03  0.22523337476E+03  0.00000000000E+00 0. -1.
<mgrwt>
<rscale>  0 0.26183123E+03</rscale>
<asrwt>0</asrwt>
<pdfrwt beam="1">  1        2 0.10554043E+00 0.26492863E+03</pdfrwt>
<pdfrwt beam="2">  1       -2 0.15289591E-01 0.26492863E+03</pdfrwt>
<totfact> 0.14255203E+03</totfact>
</mgrwt>
</event>
<event>
 7    1  0.5203335E-006  0.3502489E+03  0.7546771E-02  0.1063631E+00
         -1   -1    0    0    0  501 -0.00000000000E+00  0.00000000000E+00  0.35059720459E+03  0.35059720459E+03  0.00000000000E+00 0.  1.
          1   -1    0    0  501    0  0.00000000000E+00 -0.00000000000E+00 -0.34341842546E+03  0.34341842546E+03  0.00000000000E+00 0. -1.
         23    2    1    2    0    0 -0.26487636929E+02 -0.32610814617E+03  0.41799204010E+02  0.35273424885E+03  0.12500463570E+03 0.  0.
          5    1    3    3  502    0 -0.32686639440E+02 -0.11590586806E+03 -0.40088259438E+02  0.12701080739E+03  0.47000000000E+01 0. -1.
         -5    1    3    3    0  502  0.61990025118E+01 -0.21020227812E+03  0.81887463448E+02  0.22572344147E+03  0.47000000000E+01 0. -1.
        -11    1    1    2    0    0  0.16653515741E+02  0.18219972220E+02  0.15555184082E+02  0.29176544108E+02  0.00000000000E+00 0.  1.
         11    1    1    2    0    0  0.98341211871E+01  0.30788817395E+03 -0.50175608955E+02  0.31210483709E+03  0.00000000000E+00 0. -1.
<mgrwt>
<rscale>  0 0.34753550E+03</rscale>
<asrwt>0</asrwt>
<pdfrwt beam="2">  1        1 0.52833604E-01 0.35024888E+03</pdfrwt>
<pdfrwt beam="1">  1       -1 0.53938032E-01 0.35024888E+03</pdfrwt>
<totfact> 0.26316306E+02</totfact>
</mgrwt>
</event>
<event>
 7    1  0.4230786E-006  0.2699102E+03  0.7546771E-02  0.1103352E+00
          2   -1    0    0  501    0  0.00000000000E+00  0.00000000000E+00  0.63772813502E+03  0.63772813502E+03  0.00000000000E+00 0. -1.
         -2   -1    0    0    0  501 -0.00000000000E+00 -0.00000000000E+00 -0.11537632775E+03  0.11537632775E+03  0.00000000000E+00 0.  1.
         23    2    1    2    0    0  0.90691204285E+02 -0.22136219373E+03  0.17568015504E+03  0.32204818583E+03  0.12500160708E+03 0.  0.
          5    1    3    3  502    0  0.48706477084E+02 -0.18023093165E+03  0.67012012073E+02  0.19841423687E+03  0.47000000000E+01 0. -1.
         -5    1    3    3    0  502  0.41984727202E+02 -0.41131262086E+02  0.10866814296E+03  0.12363394896E+03  0.47000000000E+01 0. -1.
        -11    1    1    2    0    0 -0.26378502389E+02  0.14160921295E+03  0.25832783787E+03  0.29577401238E+03  0.00000000000E+00 0.  1.
         11    1    1    2    0    0 -0.64312701896E+02  0.79752980777E+02  0.88343814360E+02  0.13528226456E+03  0.00000000000E+00 0. -1.
<mgrwt>
<rscale>  0 0.26641020E+03</rscale>
<asrwt>0</asrwt>
<pdfrwt beam="1">  1        2 0.98112019E-01 0.26991020E+03</pdfrwt>
<pdfrwt beam="2">  1       -2 0.17750205E-01 0.26991020E+03</pdfrwt>
<totfact> 0.12116612E+03</totfact>
</mgrwt>
</event>
<event>
 7    1  0.4230786E-006  0.1427714E+03  0.7546771E-02  0.1221131E+00
          2   -1    0    0  501    0  0.00000000000E+00  0.00000000000E+00  0.56876926148E+03  0.56876926148E+03  0.00000000000E+00 0. -1.
         -2   -1    0    0    0  501 -0.00000000000E+00 -0.00000000000E+00 -0.32671103400E+02  0.32671103400E+02  0.00000000000E+00 0.  1.
         23    2    1    2    0    0  0.68610414038E+02 -0.71542043887E+01  0.18989034073E+03  0.23757527994E+03  0.12500040231E+03 0.  0.
          5    1    3    3  502    0  0.60249751294E+02  0.18032044951E+02  0.20883976755E+02  0.66433558246E+02  0.47000000000E+01 0. -1.
         -5    1    3    3    0  502  0.83606627441E+01 -0.25186249340E+02  0.16900636398E+03  0.17114172169E+03  0.47000000000E+01 0. -1.
        -11    1    1    2    0    0 -0.54303150439E+02  0.18320106948E+02  0.33982959360E+03  0.34462822164E+03  0.00000000000E+00 0. -1.
         11    1    1    2    0    0 -0.14307263599E+02 -0.11165902560E+02  0.63782237484E+01  0.19236863306E+02  0.00000000000E+00 0.  1.
<mgrwt>
<rscale>  0 0.13435666E+03</rscale>
<asrwt>0</asrwt>
<pdfrwt beam="1">  1        2 0.87502956E-01 0.14277140E+03</pdfrwt>
<pdfrwt beam="2">  1       -2 0.50263240E-02 0.14277140E+03</pdfrwt>
<totfact> 0.99877450E+03</totfact>
</mgrwt>
</event>
<event>
 7    1  0.4230786E-006  0.1743939E+03  0.7546771E-02  0.1179430E+00
         -1   -1    0    0    0  501 -0.00000000000E+00  0.00000000000E+00  0.13661814676E+03  0.13661814676E+03  0.00000000000E+00 0.  1.
          1   -1    0    0  501    0  0.00000000000E+00 -0.00000000000E+00 -0.27385103390E+03  0.27385103390E+03  0.00000000000E+00 0. -1.
         23    2    1    2    0    0 -0.20340487407E+02  0.11989254476E+03  0.38042322339E+02  0.17849500404E+03  0.12500116183E+03 0.  0.
          5    1    3    3  502    0 -0.32722180511E+02  0.58472405024E+02 -0.40096556440E+02  0.78227789723E+02  0.47000000000E+01 0. -1.
         -5    1    3    3    0  502  0.12381693103E+02  0.61420139740E+02  0.78138878778E+02  0.10026721432E+03  0.47000000000E+01 0. -1.
        -11    1    1    2    0    0  0.45489424569E+02 -0.11699101248E+03 -0.15555654090E+03  0.19988502236E+03  0.00000000000E+00 0.  1.
         11    1    1    2    0    0 -0.25148937162E+02 -0.29015322809E+01 -0.19718668585E+02  0.32089154254E+02  0.00000000000E+00 0. -1.
<mgrwt>
<rscale>  0 0.16849150E+03</rscale>
<asrwt>0</asrwt>
<pdfrwt beam="2">  1        1 0.42130929E-01 0.17439395E+03</pdfrwt>
<pdfrwt beam="1">  1       -1 0.21018176E-01 0.17439395E+03</pdfrwt>
<totfact> 0.18048562E+03</totfact>
</mgrwt>
</event>
<event>
 7    1  0.4230786E-006  0.1467410E+03  0.7546771E-02  0.1214758E+00
         -1   -1    0    0    0  501 -0.00000000000E+00  0.00000000000E+00  0.12845179467E+03  0.12845179467E+03  0.00000000000E+00 0.  1.
          1   -1    0    0  501    0  0.00000000000E+00 -0.00000000000E+00 -0.15871512062E+03  0.15871512062E+03  0.00000000000E+00 0. -1.
         23    2    1    2    0    0 -0.27140086767E+02 -0.71889780965E+02  0.37071175294E+02  0.15135123215E+03  0.12501279341E+03 0.  0.
          5    1    3    3  502    0  0.18884271650E+02  0.25665296253E+02 -0.97715971083E+01  0.33658539148E+02  0.47000000000E+01 0. -1.
         -5    1    3    3    0  502 -0.46024358417E+02 -0.97555077218E+02  0.46842772402E+02  0.11769269300E+03  0.47000000000E+01 0. -1.
        -11    1    1    2    0    0  0.43428736038E+02  0.21848553392E+02  0.21373185833E+01  0.48661920739E+02  0.00000000000E+00 0.  1.
         11    1    1    2    0    0 -0.16288649271E+02  0.50041227573E+02 -0.69471819825E+02  0.87153762408E+02  0.00000000000E+00 0. -1.
<mgrwt>
<rscale>  0 0.13894316E+03</rscale>
<asrwt>0</asrwt>
<pdfrwt beam="2">  1        1 0.24417711E-01 0.14674101E+03</pdfrwt>
<pdfrwt beam="1">  1       -1 0.19761815E-01 0.14674101E+03</pdfrwt>
<totfact> 0.39130109E+03</totfact>
</mgrwt>
</event>
<event>
 7    1  0.4230786E-006  0.1277721E+03  0.7546771E-02  0.1244747E+00
         -2   -1    0    0    0  501 -0.00000000000E+00  0.00000000000E+00  0.14678750708E+02  0.14678750708E+02  0.00000000000E+00 0.  1.
          2   -1    0    0  501    0  0.00000000000E+00 -0.00000000000E+00 -0.85687257211E+03  0.85687257211E+03  0.00000000000E+00 0. -1.
         23    2    1    2    0    0  0.10536152635E+01  0.26446303816E+02 -0.50540971279E+03  0.52131053724E+03  0.12500072547E+03 0.  0.
          5    1    3    3  502    0  0.61438380890E+02  0.24562052002E+02 -0.29382690830E+03  0.30122136559E+03  0.47000000000E+01 0. -1.
         -5    1    3    3    0  502 -0.60384765626E+02  0.18842518142E+01 -0.21158280448E+03  0.22008917165E+03  0.47000000000E+01 0. -1.
        -11    1    1    2    0    0  0.42351778970E+02 -0.17713655606E+02 -0.11033963171E+03  0.11950849804E+03  0.00000000000E+00 0.  1.
         11    1    1    2    0    0 -0.43405394233E+02 -0.87326482100E+01 -0.22644447691E+03  0.23073228754E+03  0.00000000000E+00 0. -1.
<mgrwt>
<rscale>  0 0.11900514E+03</rscale>
<asrwt>0</asrwt>
<pdfrwt beam="2">  1        2 0.13182657E+00 0.12777206E+03</pdfrwt>
<pdfrwt beam="1">  1       -2 0.22582690E-02 0.12777206E+03</pdfrwt>
<totfact> 0.19824117E+04</totfact>
</mgrwt>
</event>
<event>
 7    1  0.4230786E-006  0.1278948E+03  0.7546771E-02  0.1243982E+00
         -1   -1    0    0    0  501 -0.00000000000E+00  0.00000000000E+00  0.19775925541E+03  0.19775925541E+03  0.00000000000E+00 0.  1.
          1   -1    0    0  501    0  0.00000000000E+00 -0.00000000000E+00 -0.79542927019E+02  0.79542927019E+02  0.00000000000E+00 0. -1.
         23    2    1    2    0    0 -0.87644803684E+01 -0.25647866945E+02  0.12611626893E+03  0.17961732687E+03  0.12498976609E+03 0.  0.
          5    1    3    3  502    0 -0.87547545432E+00 -0.36098017400E+02  0.14869956101E+03  0.15309305263E+03  0.47000000000E+01 0. -1.
         -5    1    3    3    0  502 -0.78890049141E+01  0.10450150455E+02 -0.22583292078E+02  0.26524274244E+02  0.47000000000E+01 0. -1.
        -11    1    1    2    0    0 -0.17329082837E+02 -0.32554476467E+01 -0.42236277416E+02  0.45768965264E+02  0.00000000000E+00 0. -1.
         11    1    1    2    0    0  0.26093563206E+02  0.28903314592E+02  0.34336336874E+02  0.51915890295E+02  0.00000000000E+00 0.  1.
<mgrwt>
<rscale>  0 0.11946486E+03</rscale>
<asrwt>0</asrwt>
<pdfrwt beam="2">  1        1 0.12237373E-01 0.12789476E+03</pdfrwt>
<pdfrwt beam="1">  1       -1 0.30424501E-01 0.12789476E+03</pdfrwt>
<totfact> 0.46401446E+03</totfact>
</mgrwt>
</event>
<event>
 7    1  0.4230786E-006  0.1729046E+03  0.7546771E-02  0.1180976E+00
         -4   -1    0    0    0  501 -0.00000000000E+00  0.00000000000E+00  0.12297614479E+03  0.12297614479E+03  0.00000000000E+00 0.  1.
          4   -1    0    0  501    0  0.00000000000E+00 -0.00000000000E+00 -0.37650828863E+03  0.37650828863E+03  0.00000000000E+00 0. -1.
         23    2    1    2    0    0  0.15013926239E+02  0.11850052863E+03  0.32778194341E+02  0.17598408643E+03  0.12501278090E+03 0.  0.
          5    1    3    3  502    0 -0.39725560476E+02  0.36232634184E+02  0.52293620859E+02  0.75150759927E+02  0.47000000000E+01 0.  1.
         -5    1    3    3    0  502  0.54739486715E+02  0.82267894444E+02 -0.19515426518E+02  0.10083332651E+03  0.47000000000E+01 0.  1.
        -11    1    1    2    0    0 -0.90668415713E+01 -0.87933032905E+01  0.38757282653E+01  0.13211777641E+02  0.00000000000E+00 0.  1.
         11    1    1    2    0    0 -0.59470846679E+01 -0.10970722534E+03 -0.29018606645E+03  0.31028856935E+03  0.00000000000E+00 0. -1.
<mgrwt>
<rscale>  0 0.16703501E+03</rscale>
<asrwt>0</asrwt>
<pdfrwt beam="2">  1        4 0.57924352E-01 0.17290457E+03</pdfrwt>
<pdfrwt beam="1">  1       -4 0.18919407E-01 0.17290457E+03</pdfrwt>
<totfact> 0.12404531E+02</totfact>
</mgrwt>
</event>
<event>
 7    1  0.4230786E-006  0.1254250E+03  0.7546771E-02  0.1249655E+00
          3   -1    0    0  501    0  0.00000000000E+00  0.00000000000E+00  0.37699231722E+02  0.37699231722E+02  0.00000000000E+00 0. -1.
         -3   -1    0    0    0  501 -0.00000000000E+00 -0.00000000000E+00 -0.33509134572E+03  0.33509134572E+03  0.00000000000E+00 0.  1.
         23    2    1    2    0    0 -0.63769225175E+01 -0.80499631923E+01 -0.21645764017E+03  0.25017060290E+03  0.12500381401E+03 0.  0.
          5    1    3    3  502    0  0.54790750610E+01  0.55280276512E+02 -0.13602874588E+03  0.14700965594E+03  0.47000000000E+01 0. -1.
         -5    1    3    3    0  502 -0.11855997579E+02 -0.63330239705E+02 -0.80428894297E+02  0.10316094696E+03  0.47000000000E+01 0. -1.
        -11    1    1    2    0    0 -0.11675807241E+02 -0.22011530115E+02 -0.83811252173E+02  0.87436593732E+02  0.00000000000E+00 0.  1.
         11    1    1    2    0    0  0.18052729759E+02  0.30061493307E+02  0.28767783487E+01  0.35183380811E+02  0.00000000000E+00 0. -1.
<mgrwt>
<rscale>  0 0.11611042E+03</rscale>
<asrwt>0</asrwt>
<pdfrwt beam="1">  1        3 0.57998817E-02 0.12542496E+03</pdfrwt>
<pdfrwt beam="2">  1       -3 0.51552516E-01 0.12542496E+03</pdfrwt>
<totfact> 0.15312034E+03</totfact>
</mgrwt>
</event>
<event>
 7    1  0.4230786E-006  0.1577409E+03  0.7546771E-02  0.1199143E+00
         -1   -1    0    0    0  501 -0.00000000000E+00  0.00000000000E+00  0.27105924192E+03  0.27105924192E+03  0.00000000000E+00 0.  1.
          1   -1    0    0  501    0  0.00000000000E+00 -0.00000000000E+00 -0.79070985891E+02  0.79070985891E+02  0.00000000000E+00 0. -1.
         23    2    1    2    0    0  0.37913993666E+02 -0.88485344293E+02  0.82329799947E+02  0.17793366685E+03  0.12496026077E+03 0.  0.
          5    1    3    3  502    0 -0.44353628058E+02 -0.48352616995E+02  0.28985755254E+02  0.71885213360E+02  0.47000000000E+01 0.  1.
         -5    1    3    3    0  502  0.82267621724E+02 -0.40132727298E+02  0.53344044693E+02  0.10604845349E+03  0.47000000000E+01 0.  1.
        -11    1    1    2    0    0  0.22570394528E+02  0.11830214717E+02  0.54225655237E+02  0.59914926148E+02  0.00000000000E+00 0.  1.
         11    1    1    2    0    0 -0.60484388194E+02  0.76655129576E+02  0.55432800843E+02  0.11228163481E+03  0.00000000000E+00 0. -1.
<mgrwt>
<rscale>  0 0.15108786E+03</rscale>
<asrwt>0</asrwt>
<pdfrwt beam="2">  1        1 0.12164767E-01 0.15774091E+03</pdfrwt>
<pdfrwt beam="1">  1       -1 0.41701421E-01 0.15774091E+03</pdfrwt>
<totfact> 0.27476456E+03</totfact>
</mgrwt>
</event>
<event>
 7    1  0.4230786E-006  0.1253806E+03  0.7546771E-02  0.1251494E+00
          1   -1    0    0  501    0  0.00000000000E+00  0.00000000000E+00  0.61647780491E+02  0.61647780491E+02  0.00000000000E+00 0. -1.
         -1   -1    0    0    0  501 -0.00000000000E+00 -0.00000000000E+00 -0.18636772797E+03  0.18636772797E+03  0.00000000000E+00 0.  1.
         23    2    1    2    0    0  0.51645205066E+01  0.80751501953E+01 -0.76768169790E+02  0.14701578697E+03  0.12501363687E+03 0.  0.
          5    1    3    3  502    0  0.32972610199E+01 -0.29786865022E+02  0.24365460590E+02  0.38908802704E+02  0.47000000000E+01 0.  1.
         -5    1    3    3    0  502  0.18672594867E+01  0.37862015217E+02 -0.10113363038E+03  0.10810698427E+03  0.47000000000E+01 0.  1.
        -11    1    1    2    0    0 -0.14639347332E+02  0.23793851005E+02  0.13578155460E+02  0.31061618465E+02  0.00000000000E+00 0. -1.
         11    1    1    2    0    0  0.94748268258E+01 -0.31869001200E+02 -0.61529933149E+02  0.69938103021E+02  0.00000000000E+00 0.  1.
<mgrwt>
<rscale>  0 0.11505007E+03</rscale>
<asrwt>0</asrwt>
<pdfrwt beam="1">  1        1 0.94842740E-02 0.12538058E+03</pdfrwt>
<pdfrwt beam="2">  1       -1 0.28671958E-01 0.12538058E+03</pdfrwt>
<totfact> 0.71591862E+03</totfact>
</mgrwt>
</event>
<event>
 7    1  0.4230786E-006  0.1390216E+03  0.7546771E-02  0.1229725E+00
          1   -1    0    0  501    0  0.00000000000E+00  0.00000000000E+00  0.37826016106E+03  0.37826016106E+03  0.00000000000E+00 0. -1.
         -1   -1    0    0    0  501 -0.00000000000E+00 -0.00000000000E+00 -0.40314334380E+02  0.40314334380E+02  0.00000000000E+00 0.  1.
         23    2    1    2    0    0  0.32983964891E+01  0.60766413879E+02  0.14675461543E+03  0.20214829223E+03  0.12499431358E+03 0.  0.
          5    1    3    3  502    0 -0.57427156085E+02  0.49545065077E+02  0.93352841125E+02  0.12037206767E+03  0.47000000000E+01 0. -1.
         -5    1    3    3    0  502  0.60725552574E+02  0.11221348803E+02  0.53401774303E+02  0.81776224559E+02  0.47000000000E+01 0. -1.
        -11    1    1    2    0    0  0.37529999357E+02 -0.41410102061E+02  0.96713394672E+02  0.11169949916E+03  0.00000000000E+00 0.  1.
         11    1    1    2    0    0 -0.40828395846E+02 -0.19356311818E+02  0.94477816580E+02  0.10472670405E+03  0.00000000000E+00 0. -1.
<mgrwt>
<rscale>  0 0.12848244E+03</rscale>
<asrwt>0</asrwt>
<pdfrwt beam="1">  1        1 0.58193869E-01 0.13902163E+03</pdfrwt>
<pdfrwt beam="2">  1       -1 0.62022055E-02 0.13902163E+03</pdfrwt>
<totfact> 0.78951735E+03</totfact>
</mgrwt>
</event>
<event>
 7    1  0.4230786E-006  0.1619496E+03  0.7546771E-02  0.1190908E+00
         -1   -1    0    0    0  501 -0.00000000000E+00  0.00000000000E+00  0.52406096608E+02  0.52406096608E+02  0.00000000000E+00 0.  1.
          1   -1    0    0  501    0  0.00000000000E+00 -0.00000000000E+00 -0.60234656352E+03  0.60234656352E+03  0.00000000000E+00 0. -1.
         23    2    1    2    0    0 -0.98680924806E+01  0.11715645118E+03 -0.12337324902E+03  0.20358933290E+03  0.11137614014E+03 0.  0.
          5    1    3    3  502    0 -0.11490632329E+02  0.93706660437E+02 -0.14380650990E+03  0.17209118261E+03  0.47000000000E+01 0. -1.
         -5    1    3    3    0  502  0.16225398483E+01  0.23449790746E+02  0.20433260879E+02  0.31498150291E+02  0.47000000000E+01 0.  1.
        -11    1    1    2    0    0  0.41841894017E+01  0.13860009951E+02 -0.63749366481E+02  0.65372693409E+02  0.00000000000E+00 0.  1.
         11    1    1    2    0    0  0.56839030789E+01 -0.13101646113E+03 -0.36281785141E+03  0.38579063382E+03  0.00000000000E+00 0. -1.
<mgrwt>
<rscale>  0 0.15805683E+03</rscale>
<asrwt>0</asrwt>
<pdfrwt beam="2">  1        1 0.92668702E-01 0.16194955E+03</pdfrwt>
<pdfrwt beam="1">  1       -1 0.80624764E-02 0.16194955E+03</pdfrwt>
<totfact> 0.29249183E+03</totfact>
</mgrwt>
</event>
<event>
 7    1  0.4230786E-006  0.1287285E+03  0.7546771E-02  0.1243223E+00
          1   -1    0    0  501    0  0.00000000000E+00  0.00000000000E+00  0.32127642555E+03  0.32127642555E+03  0.00000000000E+00 0.  1.
         -1   -1    0    0    0  501 -0.00000000000E+00 -0.00000000000E+00 -0.44659214003E+02  0.44659214003E+02  0.00000000000E+00 0. -1.
         23    2    1    2    0    0  0.15171552708E+02  0.26760306172E+02  0.94762198238E+02  0.15984645869E+03  0.12499890456E+03 0.  0.
          5    1    3    3  502    0  0.49262251587E+02  0.60165562089E+02  0.74467735871E+02  0.10776918845E+03  0.47000000000E+01 0.  1.
         -5    1    3    3    0  502 -0.34090698879E+02 -0.33405255917E+02  0.20294462367E+02  0.52077270241E+02  0.47000000000E+01 0.  1.
        -11    1    1    2    0    0  0.59373170054E+01  0.22110285742E+02  0.79754383650E+01  0.24243021386E+02  0.00000000000E+00 0. -1.
         11    1    1    2    0    0 -0.21108869714E+02 -0.48870591914E+02  0.17387957494E+03  0.18184615948E+03  0.00000000000E+00 0.  1.
<mgrwt>
<rscale>  0 0.11992386E+03</rscale>
<asrwt>0</asrwt>
<pdfrwt beam="1">  1        1 0.49427141E-01 0.12872846E+03</pdfrwt>
<pdfrwt beam="2">  1       -1 0.68706485E-02 0.12872846E+03</pdfrwt>
<totfact> 0.82613268E+03</totfact>
</mgrwt>
</event>
<event>
 7    1  0.9394092E-006  0.1922739E+03  0.7546771E-02  0.1161028E+00
         -1   -1    0    0    0  501 -0.00000000000E+00  0.00000000000E+00  0.64923955168E+02  0.64923955168E+02  0.00000000000E+00 0.  1.
          1   -1    0    0  501    0  0.00000000000E+00 -0.00000000000E+00 -0.56903181651E+03  0.56903181651E+03  0.00000000000E+00 0. -1.
         23    2    1    2    0    0 -0.14448036997E+03 -0.21667909941E+02 -0.16484057315E+03  0.25326207660E+03  0.12500075702E+03 0.  0.
          5    1    3    3  502    0 -0.38553192869E+02 -0.47958146554E+02 -0.81480571111E+01  0.62247998650E+02  0.47000000000E+01 0.  1.
         -5    1    3    3    0  502 -0.10592717710E+03  0.26290236613E+02 -0.15669251604E+03  0.19101407795E+03  0.47000000000E+01 0.  1.
        -11    1    1    2    0    0  0.56952197725E+02 -0.28718491655E+02 -0.79108324588E+02  0.10161905140E+03  0.00000000000E+00 0. -1.
         11    1    1    2    0    0  0.87528172248E+02  0.50386401596E+02 -0.26015896360E+03  0.27907464368E+03  0.00000000000E+00 0.  1.
<mgrwt>
<rscale>  0 0.18718178E+03</rscale>
<asrwt>0</asrwt>
<pdfrwt beam="2">  1        1 0.87543356E-01 0.19227393E+03</pdfrwt>
<pdfrwt beam="1">  1       -1 0.99883008E-02 0.19227393E+03</pdfrwt>
<totfact> 0.22902007E+03</totfact>
</mgrwt>
</event>
<event>
 7    1  0.4230786E-006  0.2117076E+03  0.7546771E-02  0.1143667E+00
          2   -1    0    0  501    0  0.00000000000E+00  0.00000000000E+00  0.21865821678E+03  0.21865821678E+03  0.00000000000E+00 0. -1.
         -2   -1    0    0    0  501 -0.00000000000E+00 -0.00000000000E+00 -0.19563652472E+03  0.19563652472E+03  0.00000000000E+00 0.  1.
         23    2    1    2    0    0  0.16360302363E+03  0.49279428713E+02 -0.26129408736E+02  0.21331393994E+03  0.12500271812E+03 0.  0.
          5    1    3    3  502    0  0.16127828448E+03  0.45738934054E+02  0.18059716475E+02  0.16867417850E+03  0.47000000000E+01 0.  1.
         -5    1    3    3    0  502  0.23247391467E+01  0.35404946593E+01 -0.44189125211E+02  0.44639761440E+02  0.47000000000E+01 0.  1.
        -11    1    1    2    0    0 -0.22921431747E+02 -0.44300364422E+02 -0.50564851640E+01  0.50134642349E+02  0.00000000000E+00 0.  1.
         11    1    1    2    0    0 -0.14068159188E+03 -0.49790642909E+01  0.54207585958E+02  0.15084615922E+03  0.00000000000E+00 0. -1.
<mgrwt>
<rscale>  0 0.20736860E+03</rscale>
<asrwt>0</asrwt>
<pdfrwt beam="1">  1        2 0.33639726E-01 0.21170756E+03</pdfrwt>
<pdfrwt beam="2">  1       -2 0.30097927E-01 0.21170756E+03</pdfrwt>
<totfact> 0.15589186E+03</totfact>
</mgrwt>
</event>
<event>
 7    1  0.4230786E-006  0.2082088E+03  0.7546771E-02  0.1146834E+00
         -1   -1    0    0    0  501 -0.00000000000E+00  0.00000000000E+00  0.32585539366E+02  0.32585539366E+02  0.00000000000E+00 0.  1.
          1   -1    0    0  501    0  0.00000000000E+00 -0.00000000000E+00 -0.12813747923E+04  0.12813747923E+04  0.00000000000E+00 0. -1.
         23    2    1    2    0    0 -0.16438723107E+03  0.26309186547E+02 -0.50356010356E+03  0.54490705541E+03  0.12504233724E+03 0.  0.
          5    1    3    3  502    0 -0.17948727787E+03  0.23859674671E+02 -0.49424827141E+03  0.52639187949E+03  0.47000000000E+01 0. -1.
         -5    1    3    3    0  502  0.15100046796E+02  0.24495118757E+01 -0.93118321475E+01  0.18515175928E+02  0.47000000000E+01 0. -1.
        -11    1    1    2    0    0  0.81997000851E+02  0.22111131853E+02 -0.47235423600E+03  0.47992805145E+03  0.00000000000E+00 0. -1.
         11    1    1    2    0    0  0.82390230222E+02 -0.48420318399E+02 -0.27287491337E+03  0.28912522480E+03  0.00000000000E+00 0.  1.
<mgrwt>
<rscale>  0 0.20348264E+03</rscale>
<asrwt>0</asrwt>
<pdfrwt beam="2">  1        1 0.19713457E+00 0.20820884E+03</pdfrwt>
<pdfrwt beam="1">  1       -1 0.50131603E-02 0.20820884E+03</pdfrwt>
<totfact> 0.17622644E+03</totfact>
</mgrwt>
</event>
<event>
 7    1  0.4230786E-006  0.1629668E+03  0.7546771E-02  0.1193266E+00
         -1   -1    0    0    0  501 -0.00000000000E+00  0.00000000000E+00  0.66614543401E+02  0.66614543401E+02  0.00000000000E+00 0.  1.
          1   -1    0    0  501    0  0.00000000000E+00 -0.00000000000E+00 -0.34544729093E+03  0.34544729093E+03  0.00000000000E+00 0. -1.
         23    2    1    2    0    0  0.58715624512E+02  0.86528234799E+02 -0.18245145354E+03  0.24463586101E+03  0.12499404632E+03 0.  0.
          5    1    3    3  502    0  0.56372633777E+02  0.11734694815E+03 -0.15902005805E+03  0.20556665328E+03  0.47000000000E+01 0. -1.
         -5    1    3    3    0  502  0.23429907350E+01 -0.30818713351E+02 -0.23431395489E+02  0.39069207731E+02  0.47000000000E+01 0. -1.
        -11    1    1    2    0    0  0.11680733957E+00 -0.16235473217E+02  0.15733563555E+02  0.22608610234E+02  0.00000000000E+00 0.  1.
         11    1    1    2    0    0 -0.58832431851E+02 -0.70292761582E+02 -0.11211485755E+03  0.14481736308E+03  0.00000000000E+00 0. -1.
<mgrwt>
<rscale>  0 0.15601868E+03</rscale>
<asrwt>0</asrwt>
<pdfrwt beam="2">  1        1 0.53145737E-01 0.16296678E+03</pdfrwt>
<pdfrwt beam="1">  1       -1 0.10248391E-01 0.16296678E+03</pdfrwt>
<totfact> 0.41762042E+03</totfact>
</mgrwt>
</event>
<event>
 7    1  0.4230786E-006  0.1345041E+03  0.7546771E-02  0.1234741E+00
          1   -1    0    0  501    0  0.00000000000E+00  0.00000000000E+00  0.82080156966E+02  0.82080156966E+02  0.00000000000E+00 0. -1.
         -1   -1    0    0    0  501 -0.00000000000E+00 -0.00000000000E+00 -0.16901006275E+03  0.16901006275E+03  0.00000000000E+00 0.  1.
         23    2    1    2    0    0 -0.10742851748E+00 -0.49641222184E+02 -0.52208953717E+02  0.14428140400E+03  0.12500834457E+03 0.  0.
          5    1    3    3  502    0 -0.45886443100E+02  0.92222905641E+01  0.87564447679E+01  0.47847482991E+02  0.47000000000E+01 0. -1.
         -5    1    3    3    0  502  0.45779014582E+02 -0.58863512748E+02 -0.60965398484E+02  0.96433921011E+02  0.47000000000E+01 0. -1.
        -11    1    1    2    0    0 -0.24521611954E+02  0.19086778001E+01 -0.45781131600E+02  0.51969842355E+02  0.00000000000E+00 0.  1.
         11    1    1    2    0    0  0.24629040472E+02  0.47732544384E+02  0.11060179531E+02  0.54838973360E+02  0.00000000000E+00 0. -1.
<mgrwt>
<rscale>  0 0.12521038E+03</rscale>
<asrwt>0</asrwt>
<pdfrwt beam="1">  1        1 0.12627717E-01 0.13450408E+03</pdfrwt>
<pdfrwt beam="2">  1       -1 0.26001548E-01 0.13450408E+03</pdfrwt>
<totfact> 0.58041490E+03</totfact>
</mgrwt>
</event>
<event>
 7    1  0.4230786E-006  0.1322659E+03  0.7546771E-02  0.1236276E+00
         -1   -1    0    0    0  501 -0.00000000000E+00  0.00000000000E+00  0.72342218500E+02  0.72342218500E+02  0.00000000000E+00 0.  1.
          1   -1    0    0  501    0  0.00000000000E+00 -0.00000000000E+00 -0.21384358327E+03  0.21384358327E+03  0.00000000000E+00 0. -1.
         23    2    1    2    0    0  0.14078239980E+02 -0.40882158921E+02 -0.32376613053E+02  0.13617087815E+03  0.12499886089E+03 0.  0.
          5    1    3    3  502    0  0.54407089577E+02  0.98048667695E+01  0.12949459267E+02  0.56974075718E+02  0.47000000000E+01 0.  1.
         -5    1    3    3    0  502 -0.40328849597E+02 -0.50687025691E+02 -0.45326072320E+02  0.79196802430E+02  0.47000000000E+01 0.  1.
        -11    1    1    2    0    0  0.10603153812E+02 -0.17168363072E+02  0.39253818143E+01  0.20556949767E+02  0.00000000000E+00 0.  1.
         11    1    1    2    0    0 -0.24681393793E+02  0.58050521993E+02 -0.11305013353E+03  0.12945797385E+03  0.00000000000E+00 0. -1.
<mgrwt>
<rscale>  0 0.12423100E+03</rscale>
<asrwt>0</asrwt>
<pdfrwt beam="2">  1        1 0.32899012E-01 0.13226588E+03</pdfrwt>
<pdfrwt beam="1">  1       -1 0.11129572E-01 0.13226588E+03</pdfrwt>
<totfact> 0.65942200E+03</totfact>
</mgrwt>
</event>
<event>
 7    1  0.4230786E-006  0.1519330E+03  0.7546771E-02  0.1207004E+00
         -2   -1    0    0    0  501 -0.00000000000E+00  0.00000000000E+00  0.21428687797E+03  0.21428687797E+03  0.00000000000E+00 0. -1.
          2   -1    0    0  501    0  0.00000000000E+00 -0.00000000000E+00 -0.97500279405E+02  0.97500279405E+02  0.00000000000E+00 0.  1.
         23    2    1    2    0    0  0.65567562263E+02  0.56211990339E+02  0.10741169625E+03  0.18606690741E+03  0.12499891384E+03 0.  0.
          5    1    3    3  502    0 -0.13158758987E+02 -0.23781118912E+02  0.56214272146E+02  0.62616522961E+02  0.47000000000E+01 0. -1.
         -5    1    3    3    0  502  0.78726321250E+02  0.79993109251E+02  0.51197424105E+02  0.12345038445E+03  0.47000000000E+01 0. -1.
        -11    1    1    2    0    0 -0.75063247390E+02 -0.72001377047E+02 -0.20639140422E+01  0.10403340399E+03  0.00000000000E+00 0. -1.
         11    1    1    2    0    0  0.94956851264E+01  0.15789386708E+02  0.11438816356E+02  0.21686845973E+02  0.00000000000E+00 0.  1.
<mgrwt>
<rscale>  0 0.14480634E+03</rscale>
<asrwt>0</asrwt>
<pdfrwt beam="2">  1        2 0.15000043E-01 0.15193295E+03</pdfrwt>
<pdfrwt beam="1">  1       -2 0.32967212E-01 0.15193295E+03</pdfrwt>
<totfact> 0.32371938E+03</totfact>
</mgrwt>
</event>
<event>
 7    1  0.4230786E-006  0.2190757E+03  0.7546771E-02  0.1138075E+00
         -3   -1    0    0    0  501 -0.00000000000E+00  0.00000000000E+00  0.18876360938E+03  0.18876360938E+03  0.00000000000E+00 0.  1.
          3   -1    0    0  501    0  0.00000000000E+00 -0.00000000000E+00 -0.42254690394E+03  0.42254690394E+03  0.00000000000E+00 0. -1.
         23    2    1    2    0    0  0.17990601586E+03 -0.19263125634E+01  0.84455248661E+02  0.23479105667E+03  0.12499706414E+03 0.  0.
          5    1    3    3  502    0  0.90110331799E+02  0.54421627797E+02  0.72715920215E+02  0.12802843638E+03  0.47000000000E+01 0. -1.
         -5    1    3    3    0  502  0.89795684059E+02 -0.56347940360E+02  0.11739328445E+02  0.10676262029E+03  0.47000000000E+01 0. -1.
        -11    1    1    2    0    0 -0.20919980037E+02  0.17080848548E+02 -0.11451970172E+03  0.11766122145E+03  0.00000000000E+00 0. -1.
         11    1    1    2    0    0 -0.15898603582E+03 -0.15154535985E+02 -0.20371884150E+03  0.25885823519E+03  0.00000000000E+00 0.  1.
<mgrwt>
<rscale>  0 0.21446953E+03</rscale>
<asrwt>0</asrwt>
<pdfrwt beam="2">  1        3 0.65007216E-01 0.21907567E+03</pdfrwt>
<pdfrwt beam="1">  1       -3 0.29040555E-01 0.21907567E+03</pdfrwt>
<totfact> 0.65366049E+01</totfact>
</mgrwt>
</event>
<event>
 6    1  0.4230786E-006  0.1676218E+03  0.7546771E-02  0.1207528E+00
          1   -1    0    0  501    0  0.00000000000E+00  0.00000000000E+00  0.98236941028E+02  0.98236941028E+02  0.00000000000E+00 0. -1.
         -1   -1    0    0    0  501 -0.00000000000E+00 -0.00000000000E+00 -0.17294530885E+03  0.17294530885E+03  0.00000000000E+00 0.  1.
          5    1    1    2  502    0 -0.39749934627E+02 -0.91550213684E+02 -0.25134052619E+02  0.10303062423E+03  0.47000000000E+01 0. -1.
         -5    1    1    2    0  502 -0.39969911767E+02  0.53175655178E+02 -0.32821279305E+02  0.74327454722E+02  0.47000000000E+01 0.  1.
        -11    1    1    2    0    0  0.62085663773E+02  0.16907615461E+02 -0.89363928387E+01  0.64964268823E+02  0.00000000000E+00 0. -1.
         11    1    1    2    0    0  0.17634182621E+02  0.21466943046E+02 -0.78166430542E+01  0.28859902097E+02  0.00000000000E+00 0.  1.
<mgrwt>
<rscale>  0 0.14440012E+03</rscale>
<asrwt>0</asrwt>
<pdfrwt beam="1">  1        1 0.15113376E-01 0.16762180E+03</pdfrwt>
<pdfrwt beam="2">  1       -1 0.26606970E-01 0.16762180E+03</pdfrwt>
<totfact> 0.44803394E+03</totfact>
</mgrwt>
</event>
<event>
 6    1  0.4230786E-006  0.1421215E+03  0.7546771E-02  0.1238421E+00
          2   -1    0    0  501    0  0.00000000000E+00  0.00000000000E+00  0.89655924659E+03  0.89655924659E+03  0.00000000000E+00 0. -1.
         -2   -1    0    0    0  501 -0.00000000000E+00 -0.00000000000E+00 -0.13695228308E+02  0.13695228308E+02  0.00000000000E+00 0.  1.
          5    1    1    2  502    0 -0.66916147391E+01  0.40535344954E+01  0.58071925233E+03  0.58079096831E+03  0.47000000000E+01 0. -1.
         -5    1    1    2    0  502 -0.61842418651E+01 -0.11186516511E+02 -0.31739819830E+01  0.13983817817E+02  0.47000000000E+01 0.  1.
        -11    1    1    2    0    0  0.32460547023E+01 -0.35044499576E+02  0.11295272778E+03  0.11830880160E+03  0.00000000000E+00 0. -1.
         11    1    1    2    0    0  0.96298019019E+01  0.42177481593E+02  0.19236602015E+03  0.19717088717E+03  0.00000000000E+00 0.  1.
<mgrwt>
<rscale>  0 0.12287974E+03</rscale>
<asrwt>0</asrwt>
<pdfrwt beam="1">  1        2 0.13793215E+00 0.14212145E+03</pdfrwt>
<pdfrwt beam="2">  1       -2 0.21069589E-02 0.14212145E+03</pdfrwt>
<totfact> 0.20853440E+04</totfact>
</mgrwt>
</event>
<event>
 7    1  0.4230786E-006  0.1252391E+03  0.7546771E-02  0.1250211E+00
         -1   -1    0    0    0  501 -0.00000000000E+00  0.00000000000E+00  0.26685181747E+03  0.26685181747E+03  0.00000000000E+00 0.  1.
          1   -1    0    0  501    0  0.00000000000E+00 -0.00000000000E+00 -0.46035028155E+02  0.46035028155E+02  0.00000000000E+00 0. -1.
         23    2    1    2    0    0 -0.48475895627E+01  0.59955214673E+01  0.15926082322E+03  0.20260513050E+03  0.12500153474E+03 0.  0.
          5    1    3    3  502    0 -0.19290685339E+01  0.63830341013E+02  0.60906186345E+02  0.88372435037E+02  0.47000000000E+01 0.  1.
         -5    1    3    3    0  502 -0.29185210288E+01 -0.57834819546E+02  0.98354636875E+02  0.11423269546E+03  0.47000000000E+01 0.  1.
        -11    1    1    2    0    0  0.34606624506E+02  0.68060057328E+00  0.70465949777E+02  0.78508163619E+02  0.00000000000E+00 0.  1.
         11    1    1    2    0    0 -0.29759034943E+02 -0.66761220406E+01 -0.89099836834E+01  0.31773551509E+02  0.00000000000E+00 0. -1.
<mgrwt>
<rscale>  0 0.11578826E+03</rscale>
<asrwt>0</asrwt>
<pdfrwt beam="2">  1        1 0.70823122E-02 0.12523909E+03</pdfrwt>
<pdfrwt beam="1">  1       -1 0.41054125E-01 0.12523909E+03</pdfrwt>
<totfact> 0.57263603E+03</totfact>
</mgrwt>
</event>
<event>
 7    1  0.4230786E-006  0.1714780E+03  0.7546771E-02  0.1183564E+00
         -1   -1    0    0    0  501 -0.00000000000E+00  0.00000000000E+00  0.46878088982E+03  0.46878088982E+03  0.00000000000E+00 0.  1.
          1   -1    0    0  501    0  0.00000000000E+00 -0.00000000000E+00 -0.60866950474E+02  0.60866950474E+02  0.00000000000E+00 0. -1.
         23    2    1    2    0    0 -0.11631529587E+03  0.15811465129E+02  0.30950732864E+03  0.35383538164E+03  0.12500176132E+03 0.  0.
          5    1    3    3  502    0 -0.39868810458E+02 -0.49418438614E+02  0.73269077967E+02  0.97067769669E+02  0.47000000000E+01 0. -1.
         -5    1    3    3    0  502 -0.76446485412E+02  0.65229903744E+02  0.23623825068E+03  0.25676761197E+03  0.47000000000E+01 0. -1.
        -11    1    1    2    0    0  0.39091482069E+02 -0.45498890517E+02  0.24227581583E+02  0.64693652842E+02  0.00000000000E+00 0. -1.
         11    1    1    2    0    0  0.77223813801E+02  0.29687425387E+02  0.74179029117E+02  0.11111880581E+03  0.00000000000E+00 0.  1.
<mgrwt>
<rscale>  0 0.16463234E+03</rscale>
<asrwt>0</asrwt>
<pdfrwt beam="2">  1        1 0.93641465E-02 0.17147796E+03</pdfrwt>
<pdfrwt beam="1">  1       -1 0.72120135E-01 0.17147796E+03</pdfrwt>
<totfact> 0.13967770E+03</totfact>
</mgrwt>
</event>
<event>
 7    1  0.4230786E-006  0.4766518E+03  0.7546771E-02  0.1021431E+00
         -1   -1    0    0    0  501 -0.00000000000E+00  0.00000000000E+00  0.66630696660E+03  0.66630696660E+03  0.00000000000E+00 0.  1.
          1   -1    0    0  501    0  0.00000000000E+00 -0.00000000000E+00 -0.34857804870E+03  0.34857804870E+03  0.00000000000E+00 0. -1.
         23    2    1    2    0    0  0.37421999011E+03 -0.23527169962E+03  0.28119757774E+03  0.53683536727E+03  0.11716125719E+03 0.  0.
          5    1    3    3  502    0  0.25682461995E+03 -0.20199408758E+03  0.15654645507E+03  0.36233876334E+03  0.47000000000E+01 0. -1.
         -5    1    3    3    0  502  0.11739537016E+03 -0.33277612040E+02  0.12465112267E+03  0.17449660392E+03  0.47000000000E+01 0.  1.
        -11    1    1    2    0    0 -0.22864223501E+03  0.23794419173E+03  0.39990339171E+02  0.33240628338E+03  0.00000000000E+00 0.  1.
         11    1    1    2    0    0 -0.14557775510E+03 -0.26724921102E+01 -0.34589990081E+01  0.14564336466E+03  0.00000000000E+00 0. -1.
<mgrwt>
<rscale>  0 0.47173750E+03</rscale>
<asrwt>0</asrwt>
<pdfrwt beam="2">  1        1 0.53627392E-01 0.47665179E+03</pdfrwt>
<pdfrwt beam="1">  1       -1 0.10250876E+00 0.47665179E+03</pdfrwt>
<totfact> 0.67696434E+01</totfact>
</mgrwt>
</event>
<event>
 7    1  0.4230786E-006  0.1423100E+03  0.7546771E-02  0.1220748E+00
         -1   -1    0    0    0  501 -0.00000000000E+00  0.00000000000E+00  0.85111996771E+02  0.85111996771E+02  0.00000000000E+00 0.  1.
          1   -1    0    0  501    0  0.00000000000E+00 -0.00000000000E+00 -0.21334250701E+03  0.21334250701E+03  0.00000000000E+00 0. -1.
         23    2    1    2    0    0  0.52796543687E+01 -0.67814061177E+02 -0.24622750140E+02  0.14442445288E+03  0.12500208447E+03 0.  0.
          5    1    3    3  502    0 -0.20711651789E+02  0.31496215650E+02 -0.16261952831E+02  0.41322212308E+02  0.47000000000E+01 0. -1.
         -5    1    3    3    0  502  0.25991306158E+02 -0.99310276827E+02 -0.83607973086E+01  0.10310224057E+03  0.47000000000E+01 0. -1.
        -11    1    1    2    0    0  0.27603486295E+01  0.76499304596E+02 -0.11464144578E+03  0.13784928080E+03  0.00000000000E+00 0. -1.
         11    1    1    2    0    0 -0.80400029983E+01 -0.86852434185E+01  0.11033685675E+02  0.16180770100E+02  0.00000000000E+00 0.  1.
<mgrwt>
<rscale>  0 0.13462653E+03</rscale>
<asrwt>0</asrwt>
<pdfrwt beam="2">  1        1 0.32821924E-01 0.14231002E+03</pdfrwt>
<pdfrwt beam="1">  1       -1 0.13094153E-01 0.14231002E+03</pdfrwt>
<totfact> 0.51690822E+03</totfact>
</mgrwt>
</event>
<event>
 7    1  0.4230786E-006  0.1480021E+03  0.7546771E-02  0.1212660E+00
         -2   -1    0    0    0  501 -0.00000000000E+00  0.00000000000E+00  0.65863954897E+02  0.65863954897E+02  0.00000000000E+00 0. -1.
          2   -1    0    0  501    0  0.00000000000E+00 -0.00000000000E+00 -0.27665865646E+03  0.27665865646E+03  0.00000000000E+00 0.  1.
         23    2    1    2    0    0  0.43853631164E+02 -0.65953231089E+02 -0.96644479875E+02  0.17676193647E+03  0.12502662532E+03 0.  0.
          5    1    3    3  502    0  0.80753755169E+02 -0.37533754695E+02 -0.94454236331E+02  0.12989859305E+03  0.47000000000E+01 0. -1.
         -5    1    3    3    0  502 -0.36900124005E+02 -0.28419476394E+02 -0.21902435448E+01  0.46863343424E+02  0.47000000000E+01 0. -1.
        -11    1    1    2    0    0  0.22734509550E+01  0.60477519441E+02 -0.10055215311E+03  0.11736027621E+03  0.00000000000E+00 0.  1.
         11    1    1    2    0    0 -0.46127082119E+02  0.54757116481E+01 -0.13598068581E+02  0.48400398676E+02  0.00000000000E+00 0. -1.
<mgrwt>
<rscale>  0 0.14049816E+03</rscale>
<asrwt>0</asrwt>
<pdfrwt beam="2">  1        2 0.42562871E-01 0.14800212E+03</pdfrwt>
<pdfrwt beam="1">  1       -2 0.10132916E-01 0.14800212E+03</pdfrwt>
<totfact> 0.74204086E+03</totfact>
</mgrwt>
</event>
<event>
 7    1  0.4230786E-006  0.1662829E+03  0.7546771E-02  0.1188731E+00
         -2   -1    0    0    0  501 -0.00000000000E+00  0.00000000000E+00  0.16692681596E+03  0.16692681596E+03  0.00000000000E+00 0.  1.
          2   -1    0    0  501    0  0.00000000000E+00 -0.00000000000E+00 -0.20664440652E+03  0.20664440652E+03  0.00000000000E+00 0. -1.
         23    2    1    2    0    0  0.47188904819E+02  0.98981663165E+02  0.82742388357E+02  0.18573181663E+03  0.12500336995E+03 0.  0.
          5    1    3    3  502    0  0.33781324618E+02  0.12874374263E+03  0.63484905122E+02  0.14754169695E+03  0.47000000000E+01 0.  1.
         -5    1    3    3    0  502  0.13407580202E+02 -0.29762079468E+02  0.19257483235E+02  0.38190119686E+02  0.47000000000E+01 0.  1.
        -11    1    1    2    0    0  0.60537764935E+00 -0.26009490471E+02 -0.91739318156E+02  0.95357026864E+02  0.00000000000E+00 0. -1.
         11    1    1    2    0    0 -0.47794282469E+02 -0.72972172694E+02 -0.30720660759E+02  0.92482378980E+02  0.00000000000E+00 0.  1.
<mgrwt>
<rscale>  0 0.15996997E+03</rscale>
<asrwt>0</asrwt>
<pdfrwt beam="2">  1        2 0.31791447E-01 0.16628291E+03</pdfrwt>
<pdfrwt beam="1">  1       -2 0.25681049E-01 0.16628291E+03</pdfrwt>
<totfact> 0.21845372E+03</totfact>
</mgrwt>
</event>
<event>
 7    1  0.4230786E-006  0.1281647E+03  0.7546771E-02  0.1245424E+00
         -1   -1    0    0    0  501 -0.00000000000E+00  0.00000000000E+00  0.19881323044E+03  0.19881323044E+03  0.00000000000E+00 0.  1.
          1   -1    0    0  501    0  0.00000000000E+00 -0.00000000000E+00 -0.75110035181E+02  0.75110035181E+02  0.00000000000E+00 0. -1.
         23    2    1    2    0    0 -0.28265777679E+02  0.71353978321E+00  0.12625501458E+03  0.17990697206E+03  0.12500690605E+03 0.  0.
          5    1    3    3  502    0 -0.76238435466E+02  0.13832147293E+02  0.85066484858E+02  0.11516086222E+03  0.47000000000E+01 0. -1.
         -5    1    3    3    0  502  0.47972657787E+02 -0.13118607510E+02  0.41188529722E+02  0.64746109835E+02  0.47000000000E+01 0. -1.
        -11    1    1    2    0    0  0.41015622709E+02  0.17514845362E+02 -0.33587705858E+02  0.55831757084E+02  0.00000000000E+00 0. -1.
         11    1    1    2    0    0 -0.12749845030E+02 -0.18228385145E+02  0.31035886539E+02  0.38184536484E+02  0.00000000000E+00 0.  1.
<mgrwt>
<rscale>  0 0.11860066E+03</rscale>
<asrwt>0</asrwt>
<pdfrwt beam="2">  1        1 0.11555390E-01 0.12816470E+03</pdfrwt>
<pdfrwt beam="1">  1       -1 0.30586651E-01 0.12816470E+03</pdfrwt>
<totfact> 0.49585092E+03</totfact>
</mgrwt>
</event>
<event>
 7    1  0.4230786E-006  0.2532706E+03  0.7546771E-02  0.1113794E+00
          2   -1    0    0  501    0  0.00000000000E+00  0.00000000000E+00  0.50124313837E+02  0.50124313837E+02  0.00000000000E+00 0. -1.
         -2   -1    0    0    0  501 -0.00000000000E+00 -0.00000000000E+00 -0.12494372224E+04  0.12494372224E+04  0.00000000000E+00 0.  1.
         23    2    1    2    0    0 -0.19982967489E+03 -0.92685475087E+02 -0.74582726937E+03  0.78765749778E+03  0.12499408711E+03 0.  0.
          5    1    3    3  502    0 -0.21157893233E+02 -0.69316410669E+02 -0.23446108868E+03  0.24545165174E+03  0.47000000000E+01 0.  1.
         -5    1    3    3    0  502 -0.17867178165E+03 -0.23369064418E+02 -0.51136618069E+03  0.54220584604E+03  0.47000000000E+01 0.  1.
        -11    1    1    2    0    0  0.89978918888E+02  0.54458125399E+02 -0.30906037032E+03  0.32646623986E+03  0.00000000000E+00 0.  1.
         11    1    1    2    0    0  0.10985075600E+03  0.38227349688E+02 -0.14442526885E+03  0.18543779857E+03  0.00000000000E+00 0. -1.
<mgrwt>
<rscale>  0 0.24922705E+03</rscale>
<asrwt>0</asrwt>
<pdfrwt beam="1">  1        2 0.77114330E-02 0.25327064E+03</pdfrwt>
<pdfrwt beam="2">  1       -2 0.19222111E+00 0.25327064E+03</pdfrwt>
<totfact> 0.14414943E+02</totfact>
</mgrwt>
</event>
<event>
 7    1  0.4230786E-006  0.1970144E+03  0.7546771E-02  0.1156660E+00
         -2   -1    0    0    0  501 -0.00000000000E+00  0.00000000000E+00  0.11022893535E+03  0.11022893535E+03  0.00000000000E+00 0.  1.
          2   -1    0    0  501    0  0.00000000000E+00 -0.00000000000E+00 -0.31899117060E+03  0.31899117060E+03  0.00000000000E+00 0. -1.
         23    2    1    2    0    0  0.56052959889E+02  0.14159326633E+03 -0.10169108723E+03  0.22171096721E+03  0.12499635345E+03 0.  0.
          5    1    3    3  502    0  0.82625709934E+02  0.41032982657E+02 -0.39763486844E+02  0.10056807890E+03  0.47000000000E+01 0. -1.
         -5    1    3    3    0  502 -0.26572750046E+02  0.10056028368E+03 -0.61927600391E+02  0.12114288831E+03  0.47000000000E+01 0. -1.
        -11    1    1    2    0    0 -0.78880664948E+02 -0.85177811341E+02 -0.79447054254E+02  0.14067428080E+03  0.00000000000E+00 0.  1.
         11    1    1    2    0    0  0.22827705060E+02 -0.56415454991E+02 -0.27624093766E+02  0.66834857945E+02  0.00000000000E+00 0. -1.
<mgrwt>
<rscale>  0 0.19201147E+03</rscale>
<asrwt>0</asrwt>
<pdfrwt beam="2">  1        2 0.49075563E-01 0.19701440E+03</pdfrwt>
<pdfrwt beam="1">  1       -2 0.16958298E-01 0.19701440E+03</pdfrwt>
<totfact> 0.28071366E+03</totfact>
</mgrwt>
</event>
<event>
 7    1  0.4230786E-006  0.1420991E+03  0.7546771E-02  0.1219697E+00
         -1   -1    0    0    0  501 -0.00000000000E+00  0.00000000000E+00  0.20131139290E+02  0.20131139290E+02  0.00000000000E+00 0.  1.
          1   -1    0    0  501    0  0.00000000000E+00 -0.00000000000E+00 -0.83462596150E+03  0.83462596150E+03  0.00000000000E+00 0. -1.
         23    2    1    2    0    0  0.64132275564E+02  0.34408476481E+02 -0.43441962773E+03  0.45706954089E+03  0.12204613977E+03 0.  0.
          5    1    3    3  502    0 -0.22915561581E+02 -0.19026527481E+02 -0.18603260246E+03  0.18846047567E+03  0.47000000000E+01 0. -1.
         -5    1    3    3    0  502  0.87047837145E+02  0.53435003962E+02 -0.24838702527E+03  0.26860906522E+03  0.47000000000E+01 0.  1.
        -11    1    1    2    0    0  0.13948734367E+02 -0.34569438438E+02 -0.15620715935E+03  0.16059355497E+03  0.00000000000E+00 0. -1.
         11    1    1    2    0    0 -0.78081009930E+02  0.16096195686E+00 -0.22386803513E+03  0.23709400493E+03  0.00000000000E+00 0.  1.
<mgrwt>
<rscale>  0 0.13537129E+03</rscale>
<asrwt>0</asrwt>
<pdfrwt beam="2">  1        1 0.12840402E+00 0.14209909E+03</pdfrwt>
<pdfrwt beam="1">  1       -1 0.30970978E-02 0.14209909E+03</pdfrwt>
<totfact> 0.75123926E+03</totfact>
</mgrwt>
</event>
<event>
 7    1  0.4230786E-006  0.1492305E+03  0.7546771E-02  0.1206568E+00
         -2   -1    0    0    0  501 -0.00000000000E+00  0.00000000000E+00  0.55550532806E+02  0.55550532806E+02  0.00000000000E+00 0.  1.
          2   -1    0    0  501    0  0.00000000000E+00 -0.00000000000E+00 -0.56777948776E+03  0.56777948776E+03  0.00000000000E+00 0. -1.
         23    2    1    2    0    0  0.65793074469E+02 -0.72993672028E+02 -0.76704496401E+02  0.16778955690E+03  0.11230739437E+03 0.  0.
          5    1    3    3  502    0  0.43457463231E+01  0.13950779915E+02 -0.57486549893E+02  0.59500446973E+02  0.47000000000E+01 0. -1.
         -5    1    3    3    0  502  0.61447328146E+02 -0.86944451943E+02 -0.19217946508E+02  0.10828910992E+03  0.47000000000E+01 0.  1.
        -11    1    1    2    0    0 -0.20604410039E+02  0.78281040633E+02 -0.20181530976E+03  0.21744397506E+03  0.00000000000E+00 0. -1.
         11    1    1    2    0    0 -0.45188664430E+02 -0.52873686056E+01 -0.23370914879E+03  0.23809648861E+03  0.00000000000E+00 0.  1.
<mgrwt>
<rscale>  0 0.14514569E+03</rscale>
<asrwt>0</asrwt>
<pdfrwt beam="2">  1        2 0.87350695E-01 0.14923055E+03</pdfrwt>
<pdfrwt beam="1">  1       -2 0.85462354E-02 0.14923055E+03</pdfrwt>
<totfact> 0.44584631E+03</totfact>
</mgrwt>
</event>
<event>
 6    1  0.4230786E-006  0.3304353E+03  0.7546771E-02  0.1111320E+00
          2   -1    0    0  501    0  0.00000000000E+00  0.00000000000E+00  0.11376913024E+04  0.11376913024E+04  0.00000000000E+00 0. -1.
         -2   -1    0    0    0  501 -0.00000000000E+00 -0.00000000000E+00 -0.43397016945E+02  0.43397016945E+02  0.00000000000E+00 0.  1.
          5    1    1    2  502    0 -0.85240798172E+02 -0.78273753381E+02  0.81161600093E+03  0.81983864089E+03  0.47000000000E+01 0. -1.
         -5    1    1    2    0  502  0.39768548271E+02  0.24869585218E+02 -0.91303227809E+01  0.48015481822E+02  0.47000000000E+01 0.  1.
        -11    1    1    2    0    0  0.24598361782E+02 -0.23290652813E+02  0.10110545967E+03  0.10662948882E+03  0.00000000000E+00 0.  1.
         11    1    1    2    0    0  0.20873888118E+02  0.76694820976E+02  0.19070314763E+03  0.20660470780E+03  0.00000000000E+00 0. -1.
<mgrwt>
<rscale>  0 0.25316562E+03</rscale>
<asrwt>0</asrwt>
<pdfrwt beam="1">  1        2 0.17502941E+00 0.33043534E+03</pdfrwt>
<pdfrwt beam="2">  1       -2 0.66764650E-02 0.33043534E+03</pdfrwt>
<totfact> 0.27242923E+03</totfact>
</mgrwt>
</event>
<event>
 7    1  0.4230786E-006  0.1333416E+03  0.7546771E-02  0.1235750E+00
         -2   -1    0    0    0  501 -0.00000000000E+00  0.00000000000E+00  0.89893060446E+02  0.89893060446E+02  0.00000000000E+00 0.  1.
          2   -1    0    0  501    0  0.00000000000E+00 -0.00000000000E+00 -0.19554014149E+03  0.19554014149E+03  0.00000000000E+00 0. -1.
         23    2    1    2    0    0 -0.22692539518E+02  0.40529716836E+02  0.73048587153E+01  0.13354152839E+03  0.12498947775E+03 0.  0.
          5    1    3    3  502    0  0.87183276506E+01  0.25761334679E+02  0.62413577719E+02  0.68243683115E+02  0.47000000000E+01 0. -1.
         -5    1    3    3    0  502 -0.31410867169E+02  0.14768382157E+02 -0.55108719003E+02  0.65297845279E+02  0.47000000000E+01 0. -1.
        -11    1    1    2    0    0 -0.34855090432E+02 -0.96200895502E+01 -0.42988190023E+02  0.56173017842E+02  0.00000000000E+00 0. -1.
         11    1    1    2    0    0  0.57547629950E+02 -0.30909627286E+02 -0.69963749735E+02  0.95718655699E+02  0.00000000000E+00 0.  1.
<mgrwt>
<rscale>  0 0.12456528E+03</rscale>
<asrwt>0</asrwt>
<pdfrwt beam="2">  1        2 0.30083098E-01 0.13334159E+03</pdfrwt>
<pdfrwt beam="1">  1       -2 0.13829702E-01 0.13334159E+03</pdfrwt>
<totfact> 0.65048759E+03</totfact>
</mgrwt>
</event>
<event>
 7    1  0.4230786E-006  0.1375831E+03  0.7546771E-02  0.1228569E+00
          2   -1    0    0  501    0  0.00000000000E+00  0.00000000000E+00  0.83550883580E+02  0.83550883580E+02  0.00000000000E+00 0.  1.
         -2   -1    0    0    0  501 -0.00000000000E+00 -0.00000000000E+00 -0.30199565550E+03  0.30199565550E+03  0.00000000000E+00 0. -1.
         23    2    1    2    0    0 -0.48471052421E+02 -0.30912889820E+02 -0.23961744427E+03  0.27630712409E+03  0.12499623013E+03 0.  0.
          5    1    3    3  502    0  0.39295867917E+02  0.94210133831E+01 -0.64362630088E+02  0.76141702636E+02  0.47000000000E+01 0. -1.
         -5    1    3    3    0  502 -0.87766920338E+02 -0.40333903203E+02 -0.17525481418E+03  0.20016542145E+03  0.47000000000E+01 0. -1.
        -11    1    1    2    0    0 -0.25592535864E+02  0.19343304306E+02  0.87811693090E+01  0.33260340465E+02  0.00000000000E+00 0. -1.
         11    1    1    2    0    0  0.74063588284E+02  0.11569585514E+02  0.12391503035E+02  0.75979074527E+02  0.00000000000E+00 0.  1.
<mgrwt>
<rscale>  0 0.12925282E+03</rscale>
<asrwt>0</asrwt>
<pdfrwt beam="1">  1        2 0.12853982E-01 0.13758309E+03</pdfrwt>
<pdfrwt beam="2">  1       -2 0.46460870E-01 0.13758309E+03</pdfrwt>
<totfact> 0.20229453E+03</totfact>
</mgrwt>
</event>
<event>
 6    1  0.4230786E-006  0.2090104E+03  0.7546771E-02  0.1151861E+00
         -2   -1    0    0    0  501 -0.00000000000E+00  0.00000000000E+00  0.51101926513E+02  0.51101926513E+02  0.00000000000E+00 0.  1.
          2   -1    0    0  501    0  0.00000000000E+00 -0.00000000000E+00 -0.69176495946E+03  0.69176495946E+03  0.00000000000E+00 0. -1.
          5    1    1    2  502    0 -0.58108379494E+02 -0.12385212721E+03 -0.29009786092E+03  0.32077218099E+03  0.47000000000E+01 0. -1.
         -5    1    1    2    0  502  0.65146116427E+02 -0.16180019145E+02 -0.82675061000E+02  0.10659767923E+03  0.47000000000E+01 0.  1.
        -11    1    1    2    0    0 -0.47914557679E+02  0.62326006288E+02 -0.13495465903E+03  0.15618289244E+03  0.00000000000E+00 0. -1.
         11    1    1    2    0    0  0.40876820747E+02  0.77706140069E+02 -0.13293545200E+03  0.15931413333E+03  0.00000000000E+00 0.  1.
<mgrwt>
<rscale>  0 0.19750554E+03</rscale>
<asrwt>0</asrwt>
<pdfrwt beam="2">  1        2 0.10642538E+00 0.20901040E+03</pdfrwt>
<pdfrwt beam="1">  1       -2 0.78618350E-02 0.20901040E+03</pdfrwt>
<totfact> 0.40878523E+03</totfact>
</mgrwt>
</event>
<event>
 7    1  0.4230786E-006  0.1543280E+03  0.7546771E-02  0.1205116E+00
          1   -1    0    0  501    0  0.00000000000E+00  0.00000000000E+00  0.28931890103E+03  0.28931890103E+03  0.00000000000E+00 0. -1.
         -1   -1    0    0    0  501 -0.00000000000E+00 -0.00000000000E+00 -0.12752072597E+03  0.12752072597E+03  0.00000000000E+00 0.  1.
         23    2    1    2    0    0 -0.64671697377E+02  0.63317593767E+02 -0.57445824579E+02  0.16467282463E+03  0.12500228113E+03 0.  0.
          5    1    3    3  502    0  0.68686983624E+01 -0.31531310562E+02  0.33097549783E-01  0.32611250488E+02  0.47000000000E+01 0. -1.
         -5    1    3    3    0  502 -0.71540395739E+02  0.94848904328E+02 -0.57478922128E+02  0.13206157414E+03  0.47000000000E+01 0. -1.
        -11    1    1    2    0    0 -0.35414380015E+01 -0.53846813035E+02  0.75787515424E+02  0.93036382944E+02  0.00000000000E+00 0.  1.
         11    1    1    2    0    0  0.68213135378E+02 -0.94707807317E+01  0.14345648421E+03  0.15913041943E+03  0.00000000000E+00 0. -1.
<mgrwt>
<rscale>  0 0.14628355E+03</rscale>
<asrwt>0</asrwt>
<pdfrwt beam="1">  1        1 0.44510600E-01 0.15432795E+03</pdfrwt>
<pdfrwt beam="2">  1       -1 0.19618573E-01 0.15432795E+03</pdfrwt>
<totfact> 0.18775579E+03</totfact>
</mgrwt>
</event>
<event>
 7    1  0.4230786E-006  0.1325244E+03  0.7546771E-02  0.1238699E+00
          2   -1    0    0  501    0  0.00000000000E+00  0.00000000000E+00  0.65020463129E+02  0.65020463129E+02  0.00000000000E+00 0. -1.
         -2   -1    0    0    0  501 -0.00000000000E+00 -0.00000000000E+00 -0.30146414513E+03  0.30146414513E+03  0.00000000000E+00 0.  1.
         23    2    1    2    0    0 -0.41076375476E+02  0.15804930304E+02 -0.23415299840E+03  0.26905451748E+03  0.12500256906E+03 0.  0.
          5    1    3    3  502    0 -0.36415853293E+02  0.46602434440E+02 -0.38150641365E+02  0.70536959839E+02  0.47000000000E+01 0. -1.
         -5    1    3    3    0  502 -0.46605221827E+01 -0.30797504136E+02 -0.19600235703E+03  0.19851755764E+03  0.47000000000E+01 0. -1.
        -11    1    1    2    0    0  0.17804147523E+02 -0.16064191980E+02  0.41447827001E+02  0.47884948534E+02  0.00000000000E+00 0. -1.
         11    1    1    2    0    0  0.23272227953E+02  0.25926167598E+00 -0.43738510606E+02  0.49545142250E+02  0.00000000000E+00 0.  1.
<mgrwt>
<rscale>  0 0.12270579E+03</rscale>
<asrwt>0</asrwt>
<pdfrwt beam="1">  1        2 0.10003148E-01 0.13252436E+03</pdfrwt>
<pdfrwt beam="2">  1       -2 0.46379099E-01 0.13252436E+03</pdfrwt>
<totfact> 0.27438048E+03</totfact>
</mgrwt>
</event>
<event>
 7    1  0.4230786E-006  0.1236539E+03  0.7546771E-02  0.1247039E+00
         -1   -1    0    0    0  501 -0.00000000000E+00  0.00000000000E+00  0.69821022476E+02  0.69821022476E+02  0.00000000000E+00 0.  1.
          1   -1    0    0  501    0  0.00000000000E+00 -0.00000000000E+00 -0.26390765314E+03  0.26390765314E+03  0.00000000000E+00 0. -1.
         23    2    1    2    0    0 -0.41273407445E+02 -0.24691640763E+02 -0.10565904862E+02  0.12410450319E+03  0.11391715446E+03 0.  0.
          5    1    3    3  502    0  0.39513360255E+02 -0.31780053771E+01 -0.36476393170E+01  0.40084917729E+02  0.47000000000E+01 0. -1.
         -5    1    3    3    0  502 -0.80786767700E+02 -0.21513635386E+02 -0.69182655451E+01  0.84019585461E+02  0.47000000000E+01 0.  1.
        -11    1    1    2    0    0  0.11668999370E+02 -0.59953557622E+01  0.66665286349E+01  0.14715720881E+02  0.00000000000E+00 0.  1.
         11    1    1    2    0    0  0.29604408075E+02  0.30686996525E+02 -0.19018725444E+03  0.19490845155E+03  0.00000000000E+00 0. -1.
<mgrwt>
<rscale>  0 0.11764195E+03</rscale>
<asrwt>0</asrwt>
<pdfrwt beam="2">  1        1 0.40601177E-01 0.12365391E+03</pdfrwt>
<pdfrwt beam="1">  1       -1 0.10741696E-01 0.12365391E+03</pdfrwt>
<totfact> 0.53453545E+03</totfact>
</mgrwt>
</event>
<event>
 7    1  0.4315942E-006  0.2349489E+03  0.7546771E-02  0.1127117E+00
         -1   -1    0    0    0  501 -0.00000000000E+00  0.00000000000E+00  0.78334858056E+02  0.78334858056E+02  0.00000000000E+00 0.  1.
          1   -1    0    0  501    0  0.00000000000E+00 -0.00000000000E+00 -0.65751826212E+03  0.65751826212E+03  0.00000000000E+00 0. -1.
         23    2    1    2    0    0  0.12023651784E+03  0.15848884805E+03 -0.24515690955E+03  0.33956281837E+03  0.12500184854E+03 0.  0.
          5    1    3    3  502    0  0.22308204883E+02  0.10038798695E+03 -0.52097519000E+02  0.11537610418E+03  0.47000000000E+01 0.  1.
         -5    1    3    3    0  502  0.97928312957E+02  0.58100861097E+02 -0.19305939055E+03  0.22418671419E+03  0.47000000000E+01 0.  1.
        -11    1    1    2    0    0 -0.67914158066E+02 -0.37251307542E+02 -0.89309239014E+02  0.11822069596E+03  0.00000000000E+00 0. -1.
         11    1    1    2    0    0 -0.52322359774E+02 -0.12123754051E+03 -0.24471725550E+03  0.27806960585E+03  0.00000000000E+00 0.  1.
<mgrwt>
<rscale>  0 0.22932345E+03</rscale>
<asrwt>0</asrwt>
<pdfrwt beam="2">  1        1 0.10115666E+00 0.23494892E+03</pdfrwt>
<pdfrwt beam="1">  1       -1 0.12051517E-01 0.23494892E+03</pdfrwt>
<totfact> 0.14040217E+03</totfact>
</mgrwt>
</event>
<event>
 7    1  0.4230786E-006  0.1350555E+03  0.7546771E-02  0.1231810E+00
          1   -1    0    0  501    0  0.00000000000E+00  0.00000000000E+00  0.13043669252E+03  0.13043669252E+03  0.00000000000E+00 0. -1.
         -1   -1    0    0    0  501 -0.00000000000E+00 -0.00000000000E+00 -0.14119613791E+03  0.14119613791E+03  0.00000000000E+00 0.  1.
         23    2    1    2    0    0 -0.49938444316E+02  0.11006645027E+02 -0.67985897129E+02  0.15120211381E+03  0.12500001023E+03 0.  0.
          5    1    3    3  502    0 -0.89884505898E+02  0.20190825683E+02 -0.57269710636E+02  0.10857625707E+03  0.47000000000E+01 0.  1.
         -5    1    3    3    0  502  0.39946061583E+02 -0.91841806561E+01 -0.10716186493E+02  0.42625856745E+02  0.47000000000E+01 0.  1.
        -11    1    1    2    0    0  0.54130733210E+02 -0.41548936445E+02  0.18061606320E+02  0.70588044459E+02  0.00000000000E+00 0.  1.
         11    1    1    2    0    0 -0.41922888948E+01  0.30542291419E+02  0.39164845418E+02  0.49842672158E+02  0.00000000000E+00 0. -1.
<mgrwt>
<rscale>  0 0.12710874E+03</rscale>
<asrwt>0</asrwt>
<pdfrwt beam="1">  1        1 0.20067184E-01 0.13505553E+03</pdfrwt>
<pdfrwt beam="2">  1       -1 0.21722483E-01 0.13505553E+03</pdfrwt>
<totfact> 0.42860725E+03</totfact>
</mgrwt>
</event>
<event>
 7    1  0.4230786E-006  0.3360237E+03  0.7546771E-02  0.1069693E+00
         -2   -1    0    0    0  501 -0.00000000000E+00  0.00000000000E+00  0.20805558083E+03  0.20805558083E+03  0.00000000000E+00 0. -1.
          2   -1    0    0  501    0  0.00000000000E+00 -0.00000000000E+00 -0.62301085131E+03  0.62301085131E+03  0.00000000000E+00 0.  1.
         23    2    1    2    0    0  0.31003759957E+03 -0.34110451114E+02 -0.45843828953E+02  0.33913649937E+03  0.12500029011E+03 0.  0.
          5    1    3    3  502    0  0.65717296911E+01 -0.26928369908E+02 -0.19896386904E+02  0.34442429485E+02  0.47000000000E+01 0. -1.
         -5    1    3    3    0  502  0.30346586988E+03 -0.71820812060E+01 -0.25947442049E+02  0.30469406988E+03  0.47000000000E+01 0. -1.
        -11    1    1    2    0    0 -0.12676202435E+03  0.31521669086E+02 -0.92331554861E+02  0.15996044031E+03  0.00000000000E+00 0. -1.
         11    1    1    2    0    0 -0.18327557522E+03  0.25887820278E+01 -0.27677988667E+03  0.33196949247E+03  0.00000000000E+00 0.  1.
<mgrwt>
<rscale>  0 0.33328317E+03</rscale>
<asrwt>0</asrwt>
<pdfrwt beam="2">  1        2 0.95847824E-01 0.33602367E+03</pdfrwt>
<pdfrwt beam="1">  1       -2 0.32008551E-01 0.33602367E+03</pdfrwt>
<totfact> 0.43923777E+02</totfact>
</mgrwt>
</event>
<event>
 7    1  0.4230786E-006  0.1354692E+03  0.7546771E-02  0.1233053E+00
         -1   -1    0    0    0  501 -0.00000000000E+00  0.00000000000E+00  0.80437855010E+02  0.80437855010E+02  0.00000000000E+00 0.  1.
          1   -1    0    0  501    0  0.00000000000E+00 -0.00000000000E+00 -0.19250226533E+03  0.19250226533E+03  0.00000000000E+00 0. -1.
         23    2    1    2    0    0  0.39444453347E+02 -0.34189388304E+02 -0.23290705887E+02  0.13745674534E+03  0.12500848245E+03 0.  0.
          5    1    3    3  502    0  0.61699582599E+02 -0.48361379735E+02 -0.55045131170E+02  0.95904734024E+02  0.47000000000E+01 0.  1.
         -5    1    3    3    0  502 -0.22255129252E+02  0.14171991430E+02  0.31754425283E+02  0.41552011313E+02  0.47000000000E+01 0.  1.
        -11    1    1    2    0    0 -0.64432211642E+02  0.36007890261E+02 -0.80217399347E+02  0.10900875752E+03  0.00000000000E+00 0.  1.
         11    1    1    2    0    0  0.24987758295E+02 -0.18185019569E+01 -0.85563050808E+01  0.26474617478E+02  0.00000000000E+00 0. -1.
<mgrwt>
<rscale>  0 0.12629888E+03</rscale>
<asrwt>0</asrwt>
<pdfrwt beam="2">  1        1 0.29615733E-01 0.13546918E+03</pdfrwt>
<pdfrwt beam="1">  1       -1 0.12375055E-01 0.13546918E+03</pdfrwt>
<totfact> 0.63912593E+03</totfact>
</mgrwt>
</event>
<event>
 7    1  0.4230786E-006  0.1497226E+03  0.7546771E-02  0.1212753E+00
         -2   -1    0    0    0  501 -0.00000000000E+00  0.00000000000E+00  0.75974848448E+02  0.75974848448E+02  0.00000000000E+00 0. -1.
          2   -1    0    0  501    0  0.00000000000E+00 -0.00000000000E+00 -0.23240162675E+03  0.23240162675E+03  0.00000000000E+00 0.  1.
         23    2    1    2    0    0 -0.81880267662E+02  0.93750510038E+01 -0.93587475186E+02  0.17656576322E+03  0.12499833366E+03 0.  0.
          5    1    3    3  502    0 -0.10610414836E+03  0.29695264536E+02 -0.46569815063E+02  0.11971105509E+03  0.47000000000E+01 0.  1.
         -5    1    3    3    0  502  0.24223880696E+02 -0.20320213532E+02 -0.47017660124E+02  0.56854708138E+02  0.47000000000E+01 0.  1.
        -11    1    1    2    0    0  0.62821017874E+02 -0.24503620876E+02 -0.78026682975E+02  0.10312648049E+03  0.00000000000E+00 0.  1.
         11    1    1    2    0    0  0.19059249789E+02  0.15128569872E+02  0.15187379857E+02  0.28684231484E+02  0.00000000000E+00 0. -1.
<mgrwt>
<rscale>  0 0.14042872E+03</rscale>
<asrwt>0</asrwt>
<pdfrwt beam="2">  1        2 0.35754095E-01 0.14972259E+03</pdfrwt>
<pdfrwt beam="1">  1       -2 0.11688439E-01 0.14972259E+03</pdfrwt>
<totfact> 0.71320731E+03</totfact>
</mgrwt>
</event>
<event>
 7    1  0.4230786E-006  0.1286813E+03  0.7546771E-02  0.1245423E+00
          1   -1    0    0  501    0  0.00000000000E+00  0.00000000000E+00  0.15392949529E+02  0.15392949529E+02  0.00000000000E+00 0. -1.
         -1   -1    0    0    0  501 -0.00000000000E+00 -0.00000000000E+00 -0.79772591294E+03  0.79772591294E+03  0.00000000000E+00 0.  1.
         23    2    1    2    0    0 -0.28138185805E+02  0.11922458303E+02 -0.44303658153E+03  0.46134616978E+03  0.12499989315E+03 0.  0.
          5    1    3    3  502    0 -0.29984539912E+02  0.14073710854E+02 -0.45068891100E+03  0.45192889537E+03  0.47000000000E+01 0.  1.
         -5    1    3    3    0  502  0.18463541071E+01 -0.21512525510E+01  0.76523294717E+01  0.94172744130E+01  0.47000000000E+01 0.  1.
        -11    1    1    2    0    0 -0.25090728536E+02  0.17356991782E+02 -0.84653723093E+02  0.89983679940E+02  0.00000000000E+00 0. -1.
         11    1    1    2    0    0  0.53228914341E+02 -0.29279450085E+02 -0.25464265880E+03  0.26178901275E+03  0.00000000000E+00 0.  1.
<mgrwt>
<rscale>  0 0.11860077E+03</rscale>
<asrwt>0</asrwt>
<pdfrwt beam="1">  1        1 0.23681454E-02 0.12868130E+03</pdfrwt>
<pdfrwt beam="2">  1       -1 0.12272710E+00 0.12868130E+03</pdfrwt>
<totfact> 0.28660301E+03</totfact>
</mgrwt>
</event>
<event>
 7    1  0.4230786E-006  0.2225887E+03  0.7546771E-02  0.1135136E+00
          1   -1    0    0  501    0  0.00000000000E+00  0.00000000000E+00  0.49005511769E+03  0.49005511769E+03  0.00000000000E+00 0. -1.
         -1   -1    0    0    0  501 -0.00000000000E+00 -0.00000000000E+00 -0.93766447129E+02  0.93766447129E+02  0.00000000000E+00 0.  1.
         23    2    1    2    0    0  0.18213478109E+03  0.27340805839E+02  0.19928637304E+03  0.29876543836E+03  0.12500052214E+03 0.  0.
          5    1    3    3  502    0  0.36890908740E+02  0.87252191969E+01  0.13223808229E+03  0.13764472023E+03  0.47000000000E+01 0.  1.
         -5    1    3    3    0  502  0.14524387235E+03  0.18615586642E+02  0.67048290748E+02  0.16112071813E+03  0.47000000000E+01 0.  1.
        -11    1    1    2    0    0 -0.68995564033E+02  0.29009460712E+02  0.44859171036E+02  0.87259852700E+02  0.00000000000E+00 0. -1.
         11    1    1    2    0    0 -0.11313921705E+03 -0.56350266551E+02  0.15214312648E+03  0.19779627375E+03  0.00000000000E+00 0.  1.
<mgrwt>
<rscale>  0 0.21832744E+03</rscale>
<asrwt>0</asrwt>
<pdfrwt beam="1">  1        1 0.75393094E-01 0.22258870E+03</pdfrwt>
<pdfrwt beam="2">  1       -1 0.14425608E-01 0.22258870E+03</pdfrwt>
<totfact> 0.15814351E+03</totfact>
</mgrwt>
</event>
<event>
 7    1  0.4230786E-006  0.1253166E+03  0.7546771E-02  0.1249788E+00
          2   -1    0    0  501    0  0.00000000000E+00  0.00000000000E+00  0.85584473136E+02  0.85584473136E+02  0.00000000000E+00 0. -1.
         -2   -1    0    0    0  501 -0.00000000000E+00 -0.00000000000E+00 -0.24896932423E+03  0.24896932423E+03  0.00000000000E+00 0.  1.
         23    2    1    2    0    0 -0.16905523941E+01 -0.87765778836E+01 -0.19951906225E+03  0.23561008057E+03  0.12499747029E+03 0.  0.
          5    1    3    3  502    0 -0.47228280116E+02  0.80988524639E+01 -0.24706999316E+02  0.54116796552E+02  0.47000000000E+01 0. -1.
         -5    1    3    3    0  502  0.45537727722E+02 -0.16875430347E+02 -0.17481206294E+03  0.18149328402E+03  0.47000000000E+01 0. -1.
        -11    1    1    2    0    0  0.11690997893E+01  0.23467057796E+02 -0.26029453627E+02  0.35065681970E+02  0.00000000000E+00 0.  1.
         11    1    1    2    0    0  0.52145260480E+00 -0.14690479912E+02  0.62163664789E+02  0.63878034823E+02  0.00000000000E+00 0. -1.
<mgrwt>
<rscale>  0 0.11603332E+03</rscale>
<asrwt>0</asrwt>
<pdfrwt beam="1">  1        2 0.13166842E-01 0.12531661E+03</pdfrwt>
<pdfrwt beam="2">  1       -2 0.38302972E-01 0.12531661E+03</pdfrwt>
<totfact> 0.28289256E+03</totfact>
</mgrwt>
</event>
<event>
 7    1  0.4230786E-006  0.2248397E+03  0.7546771E-02  0.1133002E+00
          2   -1    0    0  501    0  0.00000000000E+00  0.00000000000E+00  0.29572311784E+03  0.29572311784E+03  0.00000000000E+00 0. -1.
         -2   -1    0    0    0  501 -0.00000000000E+00 -0.00000000000E+00 -0.16868852312E+03  0.16868852312E+03  0.00000000000E+00 0.  1.
         23    2    1    2    0    0  0.14498410043E+03  0.11792811737E+03  0.13661505392E+02  0.22525432101E+03  0.12500176864E+03 0.  0.
          5    1    3    3  502    0 -0.56271609568E+01  0.27125060751E+02  0.38412741982E+02  0.47592673888E+02  0.47000000000E+01 0.  1.
         -5    1    3    3    0  502  0.15061126138E+03  0.90803056618E+02 -0.24751236590E+02  0.17766164713E+03  0.47000000000E+01 0.  1.
        -11    1    1    2    0    0 -0.92771356717E+02 -0.54386794728E+02  0.11426546190E+03  0.15691094242E+03  0.00000000000E+00 0. -1.
         11    1    1    2    0    0 -0.52212743710E+02 -0.63541322641E+02 -0.89237256473E+00  0.82246377534E+02  0.00000000000E+00 0.  1.
<mgrwt>
<rscale>  0 0.22118595E+03</rscale>
<asrwt>0</asrwt>
<pdfrwt beam="1">  1        2 0.45495864E-01 0.22483966E+03</pdfrwt>
<pdfrwt beam="2">  1       -2 0.25952080E-01 0.22483966E+03</pdfrwt>
<totfact> 0.14699872E+03</totfact>
</mgrwt>
</event>
<event>
 7    1  0.4230786E-006  0.1405347E+03  0.7546771E-02  0.1224377E+00
         -1   -1    0    0    0  501 -0.00000000000E+00  0.00000000000E+00  0.33762710479E+03  0.33762710479E+03  0.00000000000E+00 0.  1.
          1   -1    0    0  501    0  0.00000000000E+00 -0.00000000000E+00 -0.59906255850E+02  0.59906255850E+02  0.00000000000E+00 0. -1.
         23    2    1    2    0    0 -0.60158941197E+02 -0.22501459692E+02  0.24603998379E+03  0.28334726012E+03  0.12499832920E+03 0.  0.
          5    1    3    3  502    0 -0.85426039305E+02 -0.49942269054E+02  0.20504770692E+03  0.22772459362E+03  0.47000000000E+01 0. -1.
         -5    1    3    3    0  502  0.25267098109E+02  0.27440809362E+02  0.40992276872E+02  0.55622666498E+02  0.47000000000E+01 0. -1.
        -11    1    1    2    0    0  0.74164000017E+01  0.18737267530E+02  0.53359542771E+02  0.57037960940E+02  0.00000000000E+00 0.  1.
         11    1    1    2    0    0  0.52742541195E+02  0.37641921629E+01 -0.21678677617E+02  0.57148139581E+02  0.00000000000E+00 0. -1.
<mgrwt>
<rscale>  0 0.13209684E+03</rscale>
<asrwt>0</asrwt>
<pdfrwt beam="2">  1        1 0.92163472E-02 0.14053468E+03</pdfrwt>
<pdfrwt beam="1">  1       -1 0.51942631E-01 0.14053468E+03</pdfrwt>
<totfact> 0.26551546E+03</totfact>
</mgrwt>
</event>
<event>
 7    1  0.4230786E-006  0.1919258E+03  0.7546771E-02  0.1161716E+00
         -1   -1    0    0    0  501 -0.00000000000E+00  0.00000000000E+00  0.66886726281E+03  0.66886726281E+03  0.00000000000E+00 0.  1.
          1   -1    0    0  501    0  0.00000000000E+00 -0.00000000000E+00 -0.51000306522E+02  0.51000306522E+02  0.00000000000E+00 0. -1.
         23    2    1    2    0    0  0.24254775471E+02 -0.14359791551E+03  0.25870385892E+03  0.32212294546E+03  0.12500739937E+03 0.  0.
          5    1    3    3  502    0 -0.38312316844E+02 -0.75761316703E+02  0.18611139761E+03  0.20461464525E+03  0.47000000000E+01 0.  1.
         -5    1    3    3    0  502  0.62567092315E+02 -0.67836598807E+02  0.72592461310E+02  0.11750830021E+03  0.47000000000E+01 0.  1.
        -11    1    1    2    0    0  0.37065673658E+01  0.11610445779E+03  0.32702496117E+03  0.34704367014E+03  0.00000000000E+00 0.  1.
         11    1    1    2    0    0 -0.27961342836E+02  0.27493457724E+02  0.32138136201E+02  0.50700953732E+02  0.00000000000E+00 0. -1.
<mgrwt>
<rscale>  0 0.18643514E+03</rscale>
<asrwt>0</asrwt>
<pdfrwt beam="2">  1        1 0.78462015E-02 0.19192578E+03</pdfrwt>
<pdfrwt beam="1">  1       -1 0.10290265E+00 0.19192578E+03</pdfrwt>
<totfact> 0.83923299E+02</totfact>
</mgrwt>
</event>
<event>
 7    1  0.4230786E-006  0.1332377E+03  0.7546771E-02  0.1234217E+00
          2   -1    0    0  501    0  0.00000000000E+00  0.00000000000E+00  0.57491840930E+03  0.57491840930E+03  0.00000000000E+00 0. -1.
         -2   -1    0    0    0  501 -0.00000000000E+00 -0.00000000000E+00 -0.25523739419E+02  0.25523739419E+02  0.00000000000E+00 0.  1.
         23    2    1    2    0    0  0.10669920617E+02  0.44941093485E+02  0.25219221207E+03  0.28522482288E+03  0.12497495218E+03 0.  0.
          5    1    3    3  502    0 -0.29528252687E+01  0.23382368048E+02  0.25761397545E+03  0.25873249633E+03  0.47000000000E+01 0. -1.
         -5    1    3    3    0  502  0.13622745886E+02  0.21558725437E+02 -0.54217633791E+01  0.26492326551E+02  0.47000000000E+01 0. -1.
        -11    1    1    2    0    0 -0.10214519230E+02 -0.68715308389E+02  0.27130946840E+03  0.28006241743E+03  0.00000000000E+00 0. -1.
         11    1    1    2    0    0 -0.45540138677E+00  0.23774214903E+02  0.25892989413E+02  0.35154908412E+02  0.00000000000E+00 0.  1.
<mgrwt>
<rscale>  0 0.12554673E+03</rscale>
<asrwt>0</asrwt>
<pdfrwt beam="1">  1        2 0.88448977E-01 0.13323771E+03</pdfrwt>
<pdfrwt beam="2">  1       -2 0.39267296E-02 0.13323771E+03</pdfrwt>
<totfact> 0.14199206E+04</totfact>
</mgrwt>
</event>
<event>
 7    1  0.4230786E-006  0.1265984E+03  0.7546771E-02  0.1247636E+00
          2   -1    0    0  501    0  0.00000000000E+00  0.00000000000E+00  0.29877401339E+02  0.29877401339E+02  0.00000000000E+00 0. -1.
         -2   -1    0    0    0  501 -0.00000000000E+00 -0.00000000000E+00 -0.40621044934E+03  0.40621044934E+03  0.00000000000E+00 0.  1.
         23    2    1    2    0    0  0.17203816936E+02  0.10310050015E+02 -0.23047963916E+03  0.26296010691E+03  0.12499954123E+03 0.  0.
          5    1    3    3  502    0 -0.36385702158E+02 -0.30306880687E+02 -0.44539245503E+02  0.65178683083E+02  0.47000000000E+01 0.  1.
         -5    1    3    3    0  502  0.53589519093E+02  0.40616930703E+02 -0.18594039366E+03  0.19778142383E+03  0.47000000000E+01 0.  1.
        -11    1    1    2    0    0 -0.49012611551E+01 -0.38998462654E+02 -0.13415211677E+03  0.13979160520E+03  0.00000000000E+00 0.  1.
         11    1    1    2    0    0 -0.12302555781E+02  0.28688412639E+02 -0.11701292063E+02  0.33336138565E+02  0.00000000000E+00 0. -1.
<mgrwt>
<rscale>  0 0.11729002E+03</rscale>
<asrwt>0</asrwt>
<pdfrwt beam="1">  1        2 0.45965238E-02 0.12659840E+03</pdfrwt>
<pdfrwt beam="2">  1       -2 0.62493908E-01 0.12659840E+03</pdfrwt>
<totfact> 0.40397825E+03</totfact>
</mgrwt>
</event>
<event>
 7    1  0.4230786E-006  0.1359946E+03  0.7546771E-02  0.1230793E+00
         -2   -1    0    0    0  501 -0.00000000000E+00  0.00000000000E+00  0.13014197485E+03  0.13014197485E+03  0.00000000000E+00 0.  1.
          2   -1    0    0  501    0  0.00000000000E+00 -0.00000000000E+00 -0.21295764989E+03  0.21295764989E+03  0.00000000000E+00 0. -1.
         23    2    1    2    0    0  0.38222323261E+02 -0.37552332363E+02  0.73236471329E+02  0.15446069142E+03  0.12499360304E+03 0.  0.
          5    1    3    3  502    0  0.34790976100E+02 -0.58015274604E+02 -0.10004066101E+02  0.68544550797E+02  0.47000000000E+01 0.  1.
         -5    1    3    3    0  502  0.34313471603E+01  0.20462942240E+02  0.83240537430E+02  0.85916140626E+02  0.47000000000E+01 0.  1.
        -11    1    1    2    0    0 -0.58532855356E+02  0.17904476585E+02 -0.14656010817E+03  0.15882862067E+03  0.00000000000E+00 0. -1.
         11    1    1    2    0    0  0.20310532095E+02  0.19647855779E+02 -0.94920382023E+01  0.29810312644E+02  0.00000000000E+00 0.  1.
<mgrwt>
<rscale>  0 0.12777625E+03</rscale>
<asrwt>0</asrwt>
<pdfrwt beam="2">  1        2 0.32762715E-01 0.13599458E+03</pdfrwt>
<pdfrwt beam="1">  1       -2 0.20021842E-01 0.13599458E+03</pdfrwt>
<totfact> 0.32209888E+03</totfact>
</mgrwt>
</event>
<event>
 7    1  0.4230786E-006  0.1258441E+03  0.7546771E-02  0.1248560E+00
         -4   -1    0    0    0  501 -0.00000000000E+00  0.00000000000E+00  0.15085303474E+03  0.15085303474E+03  0.00000000000E+00 0.  1.
          4   -1    0    0  501    0  0.00000000000E+00 -0.00000000000E+00 -0.87745880008E+02  0.87745880008E+02  0.00000000000E+00 0. -1.
         23    2    1    2    0    0  0.11860660751E+02 -0.84543916830E+01  0.71951207883E+02  0.14496106421E+03  0.12499832723E+03 0.  0.
          5    1    3    3  502    0  0.67764166643E+02 -0.11836169746E+02  0.47146260597E+02  0.83528061652E+02  0.47000000000E+01 0. -1.
         -5    1    3    3    0  502 -0.55903505892E+02  0.33817780626E+01  0.24804947286E+02  0.61433002561E+02  0.47000000000E+01 0. -1.
        -11    1    1    2    0    0  0.23055886915E+02 -0.98273774027E+00 -0.39815722031E+02  0.46019902388E+02  0.00000000000E+00 0. -1.
         11    1    1    2    0    0 -0.34916547666E+02  0.94371294233E+01  0.30971668884E+02  0.47617948152E+02  0.00000000000E+00 0.  1.
<mgrwt>
<rscale>  0 0.11674842E+03</rscale>
<asrwt>0</asrwt>
<pdfrwt beam="2">  1        4 0.13499366E-01 0.12584409E+03</pdfrwt>
<pdfrwt beam="1">  1       -4 0.23208159E-01 0.12584409E+03</pdfrwt>
<totfact> 0.12630912E+03</totfact>
</mgrwt>
</event>
<event>
 7    1  0.4230786E-006  0.2192451E+03  0.7546771E-02  0.1137741E+00
         -2   -1    0    0    0  501 -0.00000000000E+00  0.00000000000E+00  0.56101159829E+02  0.56101159829E+02  0.00000000000E+00 0. -1.
          2   -1    0    0  501    0  0.00000000000E+00 -0.00000000000E+00 -0.79548700602E+03  0.79548700602E+03  0.00000000000E+00 0.  1.
         23    2    1    2    0    0 -0.10758440975E+03 -0.14446207705E+03 -0.35704193625E+03  0.41898373335E+03  0.12499891059E+03 0.  0.
          5    1    3    3  502    0 -0.58445578017E+02 -0.13615855467E+03 -0.17094720375E+03  0.22627433366E+03  0.47000000000E+01 0.  1.
         -5    1    3    3    0  502 -0.49138831729E+02 -0.83035223717E+01 -0.18609473250E+03  0.19270939970E+03  0.47000000000E+01 0.  1.
        -11    1    1    2    0    0  0.78957717646E+02  0.13270286293E+03 -0.36678776365E+03  0.39796687622E+03  0.00000000000E+00 0.  1.
         11    1    1    2    0    0  0.28626692100E+02  0.11759214119E+02 -0.15556146288E+02  0.34637556273E+02  0.00000000000E+00 0. -1.
<mgrwt>
<rscale>  0 0.21490281E+03</rscale>
<asrwt>0</asrwt>
<pdfrwt beam="2">  1        2 0.12238261E+00 0.21924512E+03</pdfrwt>
<pdfrwt beam="1">  1       -2 0.86309480E-02 0.21924512E+03</pdfrwt>
<totfact> 0.29774419E+03</totfact>
</mgrwt>
</event>
<event>
 7    1  0.4230786E-006  0.2162299E+03  0.7546771E-02  0.1140235E+00
         -2   -1    0    0    0  501 -0.00000000000E+00  0.00000000000E+00  0.21116874983E+03  0.21116874983E+03  0.00000000000E+00 0.  1.
          2   -1    0    0  501    0  0.00000000000E+00 -0.00000000000E+00 -0.20686984482E+03  0.20686984482E+03  0.00000000000E+00 0. -1.
         23    2    1    2    0    0  0.12318561412E+03 -0.12631649015E+03  0.27850527195E+02  0.21801610268E+03  0.12499927182E+03 0.  0.
          5    1    3    3  502    0  0.65980379331E+02 -0.22630382985E+02  0.63304228975E+02  0.94313626253E+02  0.47000000000E+01 0. -1.
         -5    1    3    3    0  502  0.57205234787E+02 -0.10368610716E+03 -0.35453701780E+02  0.12370247643E+03  0.47000000000E+01 0. -1.
        -11    1    1    2    0    0 -0.22283260258E+01  0.60732301928E+02 -0.11985767198E+02  0.61943817688E+02  0.00000000000E+00 0.  1.
         11    1    1    2    0    0 -0.12095728809E+03  0.65584188219E+02 -0.11565854988E+02  0.13807867427E+03  0.00000000000E+00 0. -1.
<mgrwt>
<rscale>  0 0.21168916E+03</rscale>
<asrwt>0</asrwt>
<pdfrwt beam="2">  1        2 0.31826130E-01 0.21622990E+03</pdfrwt>
<pdfrwt beam="1">  1       -2 0.32487500E-01 0.21622990E+03</pdfrwt>
<totfact> 0.14410113E+03</totfact>
</mgrwt>
</event>
<event>
 6    1  0.4230786E-006  0.3511040E+03  0.7546771E-02  0.1077295E+00
         -1   -1    0    0    0  501 -0.00000000000E+00  0.00000000000E+00  0.33870690143E+03  0.33870690143E+03  0.00000000000E+00 0.  1.
          1   -1    0    0  501    0  0.00000000000E+00 -0.00000000000E+00 -0.48041625565E+03  0.48041625565E+03  0.00000000000E+00 0. -1.
          5    1    1    2  502    0 -0.49363544967E+02  0.13556189067E+03  0.91076525806E+01  0.14463341630E+03  0.47000000000E+01 0. -1.
         -5    1    1    2    0  502 -0.15654627315E+03 -0.78302914881E+02  0.19255271875E+03  0.26026279337E+03  0.47000000000E+01 0.  1.
        -11    1    1    2    0    0  0.93924364077E+02 -0.46799861200E+02 -0.94893928764E+02  0.14148099127E+03  0.00000000000E+00 0.  1.
         11    1    1    2    0    0  0.11198545404E+03 -0.10459114593E+02 -0.24847579679E+03  0.27274595613E+03  0.00000000000E+00 0. -1.
<mgrwt>
<rscale>  0 0.31644966E+03</rscale>
<asrwt>0</asrwt>
<pdfrwt beam="2">  1        1 0.73910193E-01 0.35110402E+03</pdfrwt>
<pdfrwt beam="1">  1       -1 0.52108754E-01 0.35110402E+03</pdfrwt>
<totfact> 0.18129573E+02</totfact>
</mgrwt>
</event>
<event>
 7    1  0.4230786E-006  0.2073665E+03  0.7546771E-02  0.1147289E+00
          2   -1    0    0  501    0  0.00000000000E+00  0.00000000000E+00  0.25185479128E+03  0.25185479128E+03  0.00000000000E+00 0. -1.
         -2   -1    0    0    0  501 -0.00000000000E+00 -0.00000000000E+00 -0.17374131340E+03  0.17374131340E+03  0.00000000000E+00 0.  1.
         23    2    1    2    0    0 -0.23147555254E+02 -0.16383140090E+03 -0.25644893500E+02  0.20894627310E+03  0.12499738894E+03 0.  0.
          5    1    3    3  502    0 -0.10980019713E+02 -0.10068503415E+03  0.47049783322E+02  0.11177570866E+03  0.47000000000E+01 0.  1.
         -5    1    3    3    0  502 -0.12167535541E+02 -0.63146366749E+02 -0.72694676822E+02  0.97170564437E+02  0.47000000000E+01 0.  1.
        -11    1    1    2    0    0  0.25907709282E+02  0.12631250147E+03  0.11956281538E+03  0.17584460256E+03  0.00000000000E+00 0. -1.
         11    1    1    2    0    0 -0.27601540278E+01  0.37518899434E+02 -0.15804444005E+02  0.40805229019E+02  0.00000000000E+00 0.  1.
<mgrwt>
<rscale>  0 0.20293157E+03</rscale>
<asrwt>0</asrwt>
<pdfrwt beam="1">  1        2 0.38746891E-01 0.20736655E+03</pdfrwt>
<pdfrwt beam="2">  1       -2 0.26729433E-01 0.20736655E+03</pdfrwt>
<totfact> 0.16548378E+03</totfact>
</mgrwt>
</event>
<event>
 7    1  0.4230786E-006  0.1987329E+03  0.7546771E-02  0.1154468E+00
          1   -1    0    0  501    0  0.00000000000E+00  0.00000000000E+00  0.51116525125E+02  0.51116525125E+02  0.00000000000E+00 0. -1.
         -1   -1    0    0    0  501 -0.00000000000E+00 -0.00000000000E+00 -0.92556447041E+03  0.92556447041E+03  0.00000000000E+00 0.  1.
         23    2    1    2    0    0 -0.13195034382E+03  0.80355002122E+02 -0.68710430521E+03  0.71526714001E+03  0.12500774268E+03 0.  0.
          5    1    3    3  502    0 -0.66065296322E+02  0.42150476699E+01 -0.48396868276E+03  0.48849786683E+03  0.47000000000E+01 0.  1.
         -5    1    3    3    0  502 -0.65885047497E+02  0.76139954452E+02 -0.20313562245E+03  0.22676927317E+03  0.47000000000E+01 0.  1.
        -11    1    1    2    0    0  0.12490350529E+03 -0.27129058372E+02 -0.14283815613E+03  0.19167579474E+03  0.00000000000E+00 0. -1.
         11    1    1    2    0    0  0.70468385244E+01 -0.53225943750E+02 -0.44505483940E+02  0.69738060784E+02  0.00000000000E+00 0.  1.
<mgrwt>
<rscale>  0 0.19449534E+03</rscale>
<asrwt>0</asrwt>
<pdfrwt beam="1">  1        1 0.78640815E-02 0.19873287E+03</pdfrwt>
<pdfrwt beam="2">  1       -1 0.14239452E+00 0.19873287E+03</pdfrwt>
<totfact> 0.38584074E+02</totfact>
</mgrwt>
</event>
<event>
 7    1  0.4230786E-006  0.1408310E+03  0.7546771E-02  0.1223008E+00
         -3   -1    0    0    0  501 -0.00000000000E+00  0.00000000000E+00  0.38722317883E+03  0.38722317883E+03  0.00000000000E+00 0.  1.
          3   -1    0    0  501    0  0.00000000000E+00 -0.00000000000E+00 -0.41370291678E+02  0.41370291678E+02  0.00000000000E+00 0. -1.
         23    2    1    2    0    0  0.40080003603E+02 -0.51008269500E+02  0.18558513333E+03  0.23297042810E+03  0.12500051363E+03 0.  0.
          5    1    3    3  502    0  0.52167308290E+02  0.23798163991E+02  0.11819779978E+03  0.13145565997E+03  0.47000000000E+01 0.  1.
         -5    1    3    3    0  502 -0.12087304687E+02 -0.74806433491E+02  0.67387333546E+02  0.10151476813E+03  0.47000000000E+01 0.  1.
        -11    1    1    2    0    0  0.57013669663E+01  0.61748124226E+02  0.67775460947E+02  0.91863211011E+02  0.00000000000E+00 0.  1.
         11    1    1    2    0    0 -0.45781370569E+02 -0.10739854726E+02  0.92492292878E+02  0.10375983140E+03  0.00000000000E+00 0. -1.
<mgrwt>
<rscale>  0 0.13304396E+03</rscale>
<asrwt>0</asrwt>
<pdfrwt beam="2">  1        3 0.63646605E-02 0.14083103E+03</pdfrwt>
<pdfrwt beam="1">  1       -3 0.59572794E-01 0.14083103E+03</pdfrwt>
<totfact> 0.10031067E+03</totfact>
</mgrwt>
</event>
<event>
 7    1  0.4230786E-006  0.2029052E+03  0.7546771E-02  0.1151475E+00
         -2   -1    0    0    0  501 -0.00000000000E+00  0.00000000000E+00  0.48658486782E+02  0.48658486782E+02  0.00000000000E+00 0.  1.
          2   -1    0    0  501    0  0.00000000000E+00 -0.00000000000E+00 -0.77944289130E+03  0.77944289130E+03  0.00000000000E+00 0. -1.
         23    2    1    2    0    0 -0.84587653935E+02 -0.13561381105E+03 -0.43237081595E+03  0.47761388783E+03  0.12499730565E+03 0.  0.
          5    1    3    3  502    0 -0.18854468951E+02  0.22437088738E+02 -0.90702551628E+02  0.95435616109E+02  0.47000000000E+01 0. -1.
         -5    1    3    3    0  502 -0.65733184985E+02 -0.15805089979E+03 -0.34166826432E+03  0.38217827172E+03  0.47000000000E+01 0. -1.
        -11    1    1    2    0    0  0.10290485208E+03  0.12662526983E+03 -0.27070891593E+03  0.31608018714E+03  0.00000000000E+00 0. -1.
         11    1    1    2    0    0 -0.18317198140E+02  0.89885412232E+01 -0.27704672633E+02  0.34407303102E+02  0.00000000000E+00 0.  1.
<mgrwt>
<rscale>  0 0.19795644E+03</rscale>
<asrwt>0</asrwt>
<pdfrwt beam="2">  1        2 0.11991428E+00 0.20290516E+03</pdfrwt>
<pdfrwt beam="1">  1       -2 0.74859216E-02 0.20290516E+03</pdfrwt>
<totfact> 0.38072856E+03</totfact>
</mgrwt>
</event>
<event>
 7    1  0.4230786E-006  0.1267028E+03  0.7546771E-02  0.1251830E+00
         -1   -1    0    0    0  501 -0.00000000000E+00  0.00000000000E+00  0.31637225461E+02  0.31637225461E+02  0.00000000000E+00 0.  1.
          1   -1    0    0  501    0  0.00000000000E+00 -0.00000000000E+00 -0.53541685814E+03  0.53541685814E+03  0.00000000000E+00 0. -1.
         23    2    1    2    0    0 -0.12499225792E+02 -0.16604661490E+02 -0.12230814107E+03  0.17610473905E+03  0.12498660854E+03 0.  0.
          5    1    3    3  502    0  0.53188149574E+02 -0.25929696762E+02 -0.67783023578E+02  0.90099704298E+02  0.47000000000E+01 0. -1.
         -5    1    3    3    0  502 -0.65687375366E+02  0.93250352722E+01 -0.54525117491E+02  0.86005034752E+02  0.47000000000E+01 0. -1.
        -11    1    1    2    0    0 -0.31499000130E+02  0.22285144792E+02 -0.13041257580E+03  0.13600093608E+03  0.00000000000E+00 0.  1.
         11    1    1    2    0    0  0.43998225922E+02 -0.56804833022E+01 -0.25105891581E+03  0.25494840847E+03  0.00000000000E+00 0. -1.
<mgrwt>
<rscale>  0 0.11485771E+03</rscale>
<asrwt>0</asrwt>
<pdfrwt beam="2">  1        1 0.82371826E-01 0.12670279E+03</pdfrwt>
<pdfrwt beam="1">  1       -1 0.48672654E-02 0.12670279E+03</pdfrwt>
<totfact> 0.72025424E+03</totfact>
</mgrwt>
</event>
<event>
 7    1  0.4230786E-006  0.1266437E+03  0.7546771E-02  0.1247339E+00
         -1   -1    0    0    0  501 -0.00000000000E+00  0.00000000000E+00  0.35809496074E+03  0.35809496074E+03  0.00000000000E+00 0.  1.
          1   -1    0    0  501    0  0.00000000000E+00 -0.00000000000E+00 -0.35938645480E+02  0.35938645480E+02  0.00000000000E+00 0. -1.
         23    2    1    2    0    0 -0.20248209582E+02 -0.19240662165E+01  0.23014318372E+03  0.26268708212E+03  0.12499970432E+03 0.  0.
          5    1    3    3  502    0  0.32436410434E+02  0.94693811896E+01  0.93682083127E+01  0.35378570194E+02  0.47000000000E+01 0.  1.
         -5    1    3    3    0  502 -0.52684620016E+02 -0.11393447406E+02  0.22077497541E+03  0.22730851193E+03  0.47000000000E+01 0.  1.
        -11    1    1    2    0    0  0.41396761288E+02  0.31896575541E+02  0.32827220405E+02  0.61714745206E+02  0.00000000000E+00 0.  1.
         11    1    1    2    0    0 -0.21148551706E+02 -0.29972509324E+02  0.59185911133E+02  0.69631778888E+02  0.00000000000E+00 0. -1.
<mgrwt>
<rscale>  0 0.11746497E+03</rscale>
<asrwt>0</asrwt>
<pdfrwt beam="2">  1        1 0.55290226E-02 0.12664367E+03</pdfrwt>
<pdfrwt beam="1">  1       -1 0.55091530E-01 0.12664367E+03</pdfrwt>
<totfact> 0.47102348E+03</totfact>
</mgrwt>
</event>
<event>
 7    1  0.4230786E-006  0.2469546E+03  0.7546771E-02  0.1117746E+00
          1   -1    0    0  501    0  0.00000000000E+00  0.00000000000E+00  0.18371781953E+03  0.18371781953E+03  0.00000000000E+00 0. -1.
         -1   -1    0    0    0  501 -0.00000000000E+00 -0.00000000000E+00 -0.32767953992E+03  0.32767953992E+03  0.00000000000E+00 0.  1.
         23    2    1    2    0    0 -0.15341822653E+03 -0.14773120902E+03 -0.18250739324E+02  0.24762811304E+03  0.12499972213E+03 0.  0.
          5    1    3    3  502    0 -0.83885225076E+02 -0.50770554992E+00 -0.38318185187E+01  0.84105657265E+02  0.47000000000E+01 0.  1.
         -5    1    3    3    0  502 -0.69533001455E+02 -0.14722350347E+03 -0.14418920805E+02  0.16352245578E+03  0.47000000000E+01 0.  1.
        -11    1    1    2    0    0  0.47639945411E+02  0.53645370880E+02  0.38725897533E+01  0.71849754119E+02  0.00000000000E+00 0. -1.
         11    1    1    2    0    0  0.10577828112E+03  0.94085838145E+02 -0.12958357082E+03  0.19191949229E+03  0.00000000000E+00 0.  1.
<mgrwt>
<rscale>  0 0.24309799E+03</rscale>
<asrwt>0</asrwt>
<pdfrwt beam="1">  1        1 0.28264280E-01 0.24695464E+03</pdfrwt>
<pdfrwt beam="2">  1       -1 0.50412237E-01 0.24695464E+03</pdfrwt>
<totfact> 0.66288628E+02</totfact>
</mgrwt>
</event>
<event>
 7    1  0.4230786E-006  0.1321154E+03  0.7546771E-02  0.1237357E+00
         -2   -1    0    0    0  501 -0.00000000000E+00  0.00000000000E+00  0.57428073417E+02  0.57428073417E+02  0.00000000000E+00 0.  1.
          2   -1    0    0  501    0  0.00000000000E+00 -0.00000000000E+00 -0.30575818134E+03  0.30575818134E+03  0.00000000000E+00 0. -1.
         23    2    1    2    0    0 -0.35537927891E+02  0.23799262866E+02 -0.51233405711E+02  0.14170154884E+03  0.12500047141E+03 0.  0.
          5    1    3    3  502    0 -0.32276526994E+02 -0.88061465709E+01  0.35414839763E+02  0.48945104838E+02  0.47000000000E+01 0. -1.
         -5    1    3    3    0  502 -0.32614008969E+01  0.32605409437E+02 -0.86648245474E+02  0.92756444003E+02  0.47000000000E+01 0. -1.
        -11    1    1    2    0    0 -0.42248708237E+01  0.22495609227E+02 -0.12476718611E+03  0.12684933069E+03  0.00000000000E+00 0. -1.
         11    1    1    2    0    0  0.39762798714E+02 -0.46294872093E+02 -0.72329516102E+02  0.94635375221E+02  0.00000000000E+00 0.  1.
<mgrwt>
<rscale>  0 0.12354765E+03</rscale>
<asrwt>0</asrwt>
<pdfrwt beam="2">  1        2 0.47039720E-01 0.13211536E+03</pdfrwt>
<pdfrwt beam="1">  1       -2 0.88350883E-02 0.13211536E+03</pdfrwt>
<totfact> 0.82076983E+03</totfact>
</mgrwt>
</event>
<event>
 7    1  0.4230786E-006  0.1995806E+03  0.7546771E-02  0.1154682E+00
          1   -1    0    0  501    0  0.00000000000E+00  0.00000000000E+00  0.69827748934E+03  0.69827748934E+03  0.00000000000E+00 0. -1.
         -1   -1    0    0    0  501 -0.00000000000E+00 -0.00000000000E+00 -0.11676036093E+03  0.11676036093E+03  0.00000000000E+00 0.  1.
         23    2    1    2    0    0 -0.37743597607E+02 -0.15094139072E+03 -0.71698556519E+01  0.19970933326E+03  0.12499811345E+03 0.  0.
          5    1    3    3  502    0 -0.56496648046E+01 -0.11359489890E+03 -0.58872176072E+02  0.12815515161E+03  0.47000000000E+01 0. -1.
         -5    1    3    3    0  502 -0.32093932802E+02 -0.37346491821E+02  0.51702320420E+02  0.71554181645E+02  0.47000000000E+01 0. -1.
        -11    1    1    2    0    0  0.61700879360E+02  0.64082796305E+02  0.28599451854E+03  0.29951038034E+03  0.00000000000E+00 0.  1.
         11    1    1    2    0    0 -0.23957281753E+02  0.86858594417E+02  0.30269246552E+03  0.31581813668E+03  0.00000000000E+00 0. -1.
<mgrwt>
<rscale>  0 0.19425072E+03</rscale>
<asrwt>0</asrwt>
<pdfrwt beam="1">  1        1 0.10742730E+00 0.19958059E+03</pdfrwt>
<pdfrwt beam="2">  1       -1 0.17963133E-01 0.19958059E+03</pdfrwt>
<totfact> 0.68448817E+02</totfact>
</mgrwt>
</event>
<event>
 7    1  0.4230786E-006  0.1498647E+03  0.7546771E-02  0.1209400E+00
         -1   -1    0    0    0  501 -0.00000000000E+00  0.00000000000E+00  0.21234331661E+02  0.21234331661E+02  0.00000000000E+00 0.  1.
          1   -1    0    0  501    0  0.00000000000E+00 -0.00000000000E+00 -0.88632290911E+03  0.88632290911E+03  0.00000000000E+00 0. -1.
         23    2    1    2    0    0  0.82326768887E+02  0.76992900926E+01 -0.44832401597E+03  0.47270905706E+03  0.12498981315E+03 0.  0.
          5    1    3    3  502    0  0.53624168540E+02  0.53221861857E+02 -0.13511006263E+03  0.15487071077E+03  0.47000000000E+01 0. -1.
         -5    1    3    3    0  502  0.28702600347E+02 -0.45522571764E+02 -0.31321395334E+03  0.31783834629E+03  0.47000000000E+01 0. -1.
        -11    1    1    2    0    0 -0.53773801722E+02  0.40810635206E+02 -0.21207728735E+03  0.22256213853E+03  0.00000000000E+00 0. -1.
         11    1    1    2    0    0 -0.28552967165E+02 -0.48509925298E+02 -0.20468727412E+03  0.21228604517E+03  0.00000000000E+00 0.  1.
<mgrwt>
<rscale>  0 0.14296031E+03</rscale>
<asrwt>0</asrwt>
<pdfrwt beam="2">  1        1 0.13635739E+00 0.14986470E+03</pdfrwt>
<pdfrwt beam="1">  1       -1 0.32668198E-02 0.14986470E+03</pdfrwt>
<totfact> 0.63432293E+03</totfact>
</mgrwt>
</event>
<event>
 7    1  0.4230786E-006  0.1291665E+03  0.7546771E-02  0.1243218E+00
          4   -1    0    0  501    0  0.00000000000E+00  0.00000000000E+00  0.20853204746E+03  0.20853204746E+03  0.00000000000E+00 0. -1.
         -4   -1    0    0    0  501 -0.00000000000E+00 -0.00000000000E+00 -0.86094329529E+02  0.86094329529E+02  0.00000000000E+00 0.  1.
         23    2    1    2    0    0 -0.22329420696E+02  0.23587370192E+02 -0.11685464854E+02  0.12969398464E+03  0.12501604898E+03 0.  0.
          5    1    3    3  502    0  0.25696594152E+02  0.60402920162E+02 -0.19154057639E+02  0.68540467164E+02  0.47000000000E+01 0. -1.
         -5    1    3    3    0  502 -0.48026014848E+02 -0.36815549970E+02  0.74685927842E+01  0.61153517478E+02  0.47000000000E+01 0. -1.
        -11    1    1    2    0    0 -0.35305344426E+02 -0.10419371081E+02  0.48715992179E+02  0.61059630958E+02  0.00000000000E+00 0.  1.
         11    1    1    2    0    0  0.57634765122E+02 -0.13167999111E+02  0.85407190612E+02  0.10387276139E+03  0.00000000000E+00 0. -1.
<mgrwt>
<rscale>  0 0.11992685E+03</rscale>
<asrwt>0</asrwt>
<pdfrwt beam="1">  1        4 0.32081853E-01 0.12916648E+03</pdfrwt>
<pdfrwt beam="2">  1       -4 0.13245282E-01 0.12916648E+03</pdfrwt>
<totfact> 0.71764780E+02</totfact>
</mgrwt>
</event>
<event>
 7    1  0.4230786E-006  0.1361023E+03  0.7546771E-02  0.1235928E+00
         -2   -1    0    0    0  501 -0.00000000000E+00  0.00000000000E+00  0.60428603156E+02  0.60428603156E+02  0.00000000000E+00 0.  1.
          2   -1    0    0  501    0  0.00000000000E+00 -0.00000000000E+00 -0.41737041934E+03  0.41737041934E+03  0.00000000000E+00 0. -1.
         23    2    1    2    0    0 -0.76656371292E+01  0.53280896287E+02 -0.32826036393E+02  0.14000498864E+03  0.12500492901E+03 0.  0.
          5    1    3    3  502    0 -0.40921695855E+02 -0.74148048252E+01 -0.53215411625E+02  0.67701806155E+02  0.47000000000E+01 0. -1.
         -5    1    3    3    0  502  0.33256058726E+02  0.60695701112E+02  0.20389375232E+02  0.72303182487E+02  0.47000000000E+01 0. -1.
        -11    1    1    2    0    0  0.16010214601E+02  0.17071230996E+02 -0.61913922853E+02  0.66189785785E+02  0.00000000000E+00 0.  1.
         11    1    1    2    0    0 -0.83445774717E+01 -0.70352127283E+02 -0.26220185694E+03  0.27160424807E+03  0.00000000000E+00 0. -1.
<mgrwt>
<rscale>  0 0.12445229E+03</rscale>
<asrwt>0</asrwt>
<pdfrwt beam="2">  1        2 0.64210831E-01 0.13610234E+03</pdfrwt>
<pdfrwt beam="1">  1       -2 0.92967086E-02 0.13610234E+03</pdfrwt>
<totfact> 0.54555818E+03</totfact>
</mgrwt>
</event>
<event>
 7    1  0.4230786E-006  0.1552101E+03  0.7546771E-02  0.1202521E+00
          2   -1    0    0  501    0  0.00000000000E+00  0.00000000000E+00  0.82962832901E+02  0.82962832901E+02  0.00000000000E+00 0. -1.
         -2   -1    0    0    0  501 -0.00000000000E+00 -0.00000000000E+00 -0.24681758777E+03  0.24681758777E+03  0.00000000000E+00 0.  1.
         23    2    1    2    0    0  0.14359368387E+02  0.90875640686E+02 -0.10582312406E+03  0.18785285450E+03  0.12500235129E+03 0.  0.
          5    1    3    3  502    0  0.21158851195E+02 -0.27825979923E+02 -0.33282067828E+02  0.48495032544E+02  0.47000000000E+01 0.  1.
         -5    1    3    3    0  502 -0.67994828076E+01  0.11870162061E+03 -0.72541056228E+02  0.13935782196E+03  0.47000000000E+01 0.  1.
        -11    1    1    2    0    0  0.36892411153E+02 -0.31871433021E+02 -0.87491780510E+01  0.49531670273E+02  0.00000000000E+00 0. -1.
         11    1    1    2    0    0 -0.51251779540E+02 -0.59004207665E+02 -0.49282452762E+02  0.92395895896E+02  0.00000000000E+00 0.  1.
<mgrwt>
<rscale>  0 0.14834577E+03</rscale>
<asrwt>0</asrwt>
<pdfrwt beam="1">  1        2 0.12763513E-01 0.15521006E+03</pdfrwt>
<pdfrwt beam="2">  1       -2 0.37971936E-01 0.15521006E+03</pdfrwt>
<totfact> 0.30200063E+03</totfact>
</mgrwt>
</event>
<event>
 7    1  0.9402469E-006  0.2838301E+03  0.7546771E-02  0.1095556E+00
         -1   -1    0    0    0  501 -0.00000000000E+00  0.00000000000E+00  0.67098674190E+02  0.67098674190E+02  0.00000000000E+00 0.  1.
          1   -1    0    0  501    0  0.00000000000E+00 -0.00000000000E+00 -0.12130967678E+04  0.12130967678E+04  0.00000000000E+00 0. -1.
         23    2    1    2    0    0 -0.25455559433E+03 -0.11665192634E+02 -0.43159200445E+03  0.51655705054E+03  0.12499960333E+03 0.  0.
          5    1    3    3  502    0 -0.25137205016E+03 -0.40291264385E+02 -0.38520477146E+03  0.46175328861E+03  0.47000000000E+01 0.  1.
         -5    1    3    3    0  502 -0.31835441793E+01  0.28626071751E+02 -0.46387232989E+02  0.54803761932E+02  0.47000000000E+01 0.  1.
        -11    1    1    2    0    0  0.12443732919E+03  0.39172480841E+02 -0.43597584372E+03  0.45507589308E+03  0.00000000000E+00 0. -1.
         11    1    1    2    0    0  0.13011826514E+03 -0.27507288207E+02 -0.27843024546E+03  0.30856249840E+03  0.00000000000E+00 0.  1.
<mgrwt>
<rscale>  0 0.28024382E+03</rscale>
<asrwt>0</asrwt>
<pdfrwt beam="2">  1        1 0.18663027E+00 0.28383010E+03</pdfrwt>
<pdfrwt beam="1">  1       -1 0.10322873E-01 0.28383010E+03</pdfrwt>
<totfact> 0.65126479E+02</totfact>
</mgrwt>
</event>
<event>
 7    1  0.4230786E-006  0.1368529E+03  0.7546771E-02  0.1231228E+00
          4   -1    0    0  501    0  0.00000000000E+00  0.00000000000E+00  0.61179597013E+02  0.61179597013E+02  0.00000000000E+00 0. -1.
         -4   -1    0    0    0  501 -0.00000000000E+00 -0.00000000000E+00 -0.24464767507E+03  0.24464767507E+03  0.00000000000E+00 0.  1.
         23    2    1    2    0    0 -0.47988526934E+02  0.28291346227E+02 -0.13386780022E+03  0.19144009643E+03  0.12500169438E+03 0.  0.
          5    1    3    3  502    0  0.38564693504E+02  0.75037868971E+01 -0.74455416734E+02  0.84316318017E+02  0.47000000000E+01 0.  1.
         -5    1    3    3    0  502 -0.86553220438E+02  0.20787559330E+02 -0.59412383485E+02  0.10712377842E+03  0.47000000000E+01 0.  1.
        -11    1    1    2    0    0 -0.13585840165E+02  0.29363698545E+01 -0.42814408935E+02  0.45014119267E+02  0.00000000000E+00 0.  1.
         11    1    1    2    0    0  0.61574367099E+02 -0.31227716082E+02 -0.67858689065E+01  0.69373056384E+02  0.00000000000E+00 0. -1.
<mgrwt>
<rscale>  0 0.12749049E+03</rscale>
<asrwt>0</asrwt>
<pdfrwt beam="1">  1        4 0.94122457E-02 0.13685292E+03</pdfrwt>
<pdfrwt beam="2">  1       -4 0.37638104E-01 0.13685292E+03</pdfrwt>
<totfact> 0.95409064E+02</totfact>
</mgrwt>
</event>
<event>
 6    1  0.4230786E-006  0.1646779E+03  0.7546771E-02  0.1194954E+00
         -2   -1    0    0    0  501 -0.00000000000E+00  0.00000000000E+00  0.36450815187E+03  0.36450815187E+03  0.00000000000E+00 0.  1.
          2   -1    0    0  501    0  0.00000000000E+00 -0.00000000000E+00 -0.54150448547E+03  0.54150448547E+03  0.00000000000E+00 0. -1.
          5    1    1    2  502    0 -0.68591558062E+02  0.78055435359E+01  0.46726077990E+02  0.83493381245E+02  0.47000000000E+01 0. -1.
         -5    1    1    2    0  502 -0.16157985716E+02  0.21080325082E+02  0.29095285662E+03  0.29220047122E+03  0.47000000000E+01 0.  1.
        -11    1    1    2    0    0  0.70130286149E+02 -0.60370122214E+02 -0.35011589262E+03  0.36213802197E+03  0.00000000000E+00 0. -1.
         11    1    1    2    0    0  0.14619257629E+02  0.31484253596E+02 -0.16455937559E+03  0.16818076291E+03  0.00000000000E+00 0.  1.
<mgrwt>
<rscale>  0 0.15458149E+03</rscale>
<asrwt>0</asrwt>
<pdfrwt beam="2">  1        2 0.83308382E-01 0.16467789E+03</pdfrwt>
<pdfrwt beam="1">  1       -2 0.56078178E-01 0.16467789E+03</pdfrwt>
<totfact> 0.17697494E+02</totfact>
</mgrwt>
</event>
<event>
 7    1  0.4230786E-006  0.1811522E+03  0.7546771E-02  0.1172040E+00
          2   -1    0    0  501    0  0.00000000000E+00  0.00000000000E+00  0.17438540445E+03  0.17438540445E+03  0.00000000000E+00 0. -1.
         -2   -1    0    0    0  501 -0.00000000000E+00 -0.00000000000E+00 -0.17362979694E+03  0.17362979694E+03  0.00000000000E+00 0.  1.
         23    2    1    2    0    0 -0.98851028387E+02  0.86139170043E+02 -0.33234998472E+02  0.18417572626E+03  0.12499860235E+03 0.  0.
          5    1    3    3  502    0 -0.47502848425E+02 -0.17251326150E+02 -0.45275140547E+02  0.68015124891E+02  0.47000000000E+01 0.  1.
         -5    1    3    3    0  502 -0.51348179962E+02  0.10339049619E+03  0.12040142075E+02  0.11616060137E+03  0.47000000000E+01 0.  1.
        -11    1    1    2    0    0  0.87119683560E+01  0.65326650538E+01  0.32794112385E+02  0.34554708977E+02  0.00000000000E+00 0. -1.
         11    1    1    2    0    0  0.90139060031E+02 -0.92671835097E+02  0.11964935880E+01  0.12928476616E+03  0.00000000000E+00 0.  1.
<mgrwt>
<rscale>  0 0.17569083E+03</rscale>
<asrwt>0</asrwt>
<pdfrwt beam="1">  1        2 0.26828524E-01 0.18115224E+03</pdfrwt>
<pdfrwt beam="2">  1       -2 0.26712276E-01 0.18115224E+03</pdfrwt>
<totfact> 0.24615550E+03</totfact>
</mgrwt>
</event>
<event>
 7    1  0.4230786E-006  0.1445537E+03  0.7546771E-02  0.1214391E+00
         -1   -1    0    0    0  501 -0.00000000000E+00  0.00000000000E+00  0.20620178060E+03  0.20620178060E+03  0.00000000000E+00 0.  1.
          1   -1    0    0  501    0  0.00000000000E+00 -0.00000000000E+00 -0.87733428635E+02  0.87733428635E+02  0.00000000000E+00 0. -1.
         23    2    1    2    0    0 -0.80624817223E+02  0.25569922604E+02  0.67709135450E+02  0.15962551759E+03  0.11722455694E+03 0.  0.
          5    1    3    3  502    0 -0.13356413938E+02 -0.44015052163E+02  0.11656510853E+02  0.47683150645E+02  0.47000000000E+01 0. -1.
         -5    1    3    3    0  502 -0.67268403285E+02  0.69584974766E+02  0.56052624597E+02  0.11194236695E+03  0.47000000000E+01 0.  1.
        -11    1    1    2    0    0  0.87506678568E+02 -0.47338144047E+02  0.50281785520E+02  0.11147455598E+03  0.00000000000E+00 0.  1.
         11    1    1    2    0    0 -0.68818613450E+01  0.21768221444E+02  0.47743099671E+00  0.22835135663E+02  0.00000000000E+00 0. -1.
<mgrwt>
<rscale>  0 0.13921379E+03</rscale>
<asrwt>0</asrwt>
<pdfrwt beam="2">  1        1 0.13497451E-01 0.14455372E+03</pdfrwt>
<pdfrwt beam="1">  1       -1 0.31723351E-01 0.14455372E+03</pdfrwt>
<totfact> 0.38323056E+03</totfact>
</mgrwt>
</event>
<event>
 6    1  0.4230786E-006  0.1558436E+03  0.7546771E-02  0.1216781E+00
         -2   -1    0    0    0  501 -0.00000000000E+00  0.00000000000E+00  0.42558015345E+02  0.42558015345E+02  0.00000000000E+00 0.  1.
          2   -1    0    0  501    0  0.00000000000E+00 -0.00000000000E+00 -0.42171622671E+03  0.42171622671E+03  0.00000000000E+00 0. -1.
          5    1    1    2  502    0 -0.57261731484E+02 -0.16982228034E+02 -0.15311700575E+03  0.16442083023E+03  0.47000000000E+01 0. -1.
         -5    1    1    2    0  502  0.50942052856E+02  0.36512913966E+01  0.37745946900E+01  0.51427251950E+02  0.47000000000E+01 0.  1.
        -11    1    1    2    0    0  0.33011754293E+02  0.23105263566E+02 -0.20986457823E+03  0.21369784819E+03  0.00000000000E+00 0.  1.
         11    1    1    2    0    0 -0.26692075666E+02 -0.97743269284E+01 -0.19951222064E+02  0.34728311679E+02  0.00000000000E+00 0. -1.
<mgrwt>
<rscale>  0 0.13746499E+03</rscale>
<asrwt>0</asrwt>
<pdfrwt beam="2">  1        2 0.64879422E-01 0.15584364E+03</pdfrwt>
<pdfrwt beam="1">  1       -2 0.65473867E-02 0.15584364E+03</pdfrwt>
<totfact> 0.93496072E+03</totfact>
</mgrwt>
</event>
<event>
 7    1  0.4230786E-006  0.1447942E+03  0.7546771E-02  0.1215222E+00
         -2   -1    0    0    0  501 -0.00000000000E+00  0.00000000000E+00  0.34050949772E+02  0.34050949772E+02  0.00000000000E+00 0.  1.
          2   -1    0    0  501    0  0.00000000000E+00 -0.00000000000E+00 -0.59360389234E+03  0.59360389234E+03  0.00000000000E+00 0. -1.
         23    2    1    2    0    0 -0.66859722383E+02 -0.29550289578E+02 -0.19173006381E+03  0.24026189848E+03  0.12498768100E+03 0.  0.
          5    1    3    3  502    0 -0.11142414138E+01  0.36876736154E+02 -0.14644450270E+02  0.39971053614E+02  0.47000000000E+01 0.  1.
         -5    1    3    3    0  502 -0.65745480969E+02 -0.66427025732E+02 -0.17708561354E+03  0.20029084487E+03  0.47000000000E+01 0.  1.
        -11    1    1    2    0    0  0.49598265484E+02 -0.24776427257E+02 -0.10810390448E+03  0.12149203040E+03  0.00000000000E+00 0.  1.
         11    1    1    2    0    0  0.17261456899E+02  0.54326716835E+02 -0.25971897427E+03  0.26590091322E+03  0.00000000000E+00 0. -1.
<mgrwt>
<rscale>  0 0.13860258E+03</rscale>
<asrwt>0</asrwt>
<pdfrwt beam="2">  1        2 0.91323674E-01 0.14479421E+03</pdfrwt>
<pdfrwt beam="1">  1       -2 0.52386078E-02 0.14479421E+03</pdfrwt>
<totfact> 0.89494391E+03</totfact>
</mgrwt>
</event>
<event>
 7    1  0.4230786E-006  0.2411572E+03  0.7546771E-02  0.1121709E+00
         -2   -1    0    0    0  501 -0.00000000000E+00  0.00000000000E+00  0.11719541973E+03  0.11719541973E+03  0.00000000000E+00 0.  1.
          2   -1    0    0  501    0  0.00000000000E+00 -0.00000000000E+00 -0.49905210329E+03  0.49905210329E+03  0.00000000000E+00 0. -1.
         23    2    1    2    0    0  0.20521595343E+03 -0.20481664290E+02 -0.11592427962E+03  0.26757281985E+03  0.12499475671E+03 0.  0.
          5    1    3    3  502    0  0.15674256473E+03  0.41208989401E+02 -0.85434357645E+02  0.18326901503E+03  0.47000000000E+01 0.  1.
         -5    1    3    3    0  502  0.48473388703E+02 -0.61690653691E+02 -0.30489921974E+02  0.84303804820E+02  0.47000000000E+01 0.  1.
        -11    1    1    2    0    0 -0.38342932394E+02 -0.20274046612E+02 -0.10366714116E+03  0.11237479071E+03  0.00000000000E+00 0.  1.
         11    1    1    2    0    0 -0.16687302104E+03  0.40755710902E+02 -0.16226526279E+03  0.23629991246E+03  0.00000000000E+00 0. -1.
<mgrwt>
<rscale>  0 0.23714598E+03</rscale>
<asrwt>0</asrwt>
<pdfrwt beam="2">  1        2 0.76777247E-01 0.24115716E+03</pdfrwt>
<pdfrwt beam="1">  1       -2 0.18030065E-01 0.24115716E+03</pdfrwt>
<totfact> 0.15629274E+03</totfact>
</mgrwt>
</event>
<event>
 6    1  0.4230786E-006  0.2018190E+03  0.7546771E-02  0.1169557E+00
         -3   -1    0    0    0  501 -0.00000000000E+00  0.00000000000E+00  0.64600657367E+02  0.64600657367E+02  0.00000000000E+00 0.  1.
          3   -1    0    0  501    0  0.00000000000E+00 -0.00000000000E+00 -0.60058725154E+03  0.60058725154E+03  0.00000000000E+00 0. -1.
          5    1    1    2  502    0  0.38734865605E+01  0.58958418994E+02 -0.22944881417E+02  0.63558293335E+02  0.47000000000E+01 0. -1.
         -5    1    1    2    0  502 -0.14545096122E+02 -0.13969269379E+03 -0.10465042219E+03  0.17521246926E+03  0.47000000000E+01 0.  1.
        -11    1    1    2    0    0 -0.92117613238E+01  0.96658486444E+02 -0.33031827967E+03  0.34429331308E+03  0.00000000000E+00 0. -1.
         11    1    1    2    0    0  0.19883370886E+02 -0.15924211651E+02 -0.78073010897E+02  0.82123833233E+02  0.00000000000E+00 0.  1.
<mgrwt>
<rscale>  0 0.17819967E+03</rscale>
<asrwt>0</asrwt>
<pdfrwt beam="2">  1        3 0.92398038E-01 0.20181902E+03</pdfrwt>
<pdfrwt beam="1">  1       -3 0.99385628E-02 0.20181902E+03</pdfrwt>
<totfact> 0.19766871E+02</totfact>
</mgrwt>
</event>
<event>
 7    1  0.4230786E-006  0.1660766E+03  0.7546771E-02  0.1188832E+00
         -1   -1    0    0    0  501 -0.00000000000E+00  0.00000000000E+00  0.63209418429E+02  0.63209418429E+02  0.00000000000E+00 0.  1.
          1   -1    0    0  501    0  0.00000000000E+00 -0.00000000000E+00 -0.38498420799E+03  0.38498420799E+03  0.00000000000E+00 0. -1.
         23    2    1    2    0    0  0.93511368908E+02 -0.56661740821E+02 -0.14057273550E+03  0.21758243858E+03  0.12500597835E+03 0.  0.
          5    1    3    3  502    0  0.10950704627E+03 -0.90408148863E+01 -0.68375939696E+02  0.12950246579E+03  0.47000000000E+01 0.  1.
         -5    1    3    3    0  502 -0.15995677367E+02 -0.47620925934E+02 -0.72196795806E+02  0.88079972786E+02  0.47000000000E+01 0.  1.
        -11    1    1    2    0    0 -0.63975757622E+02 -0.13541568764E+02 -0.97983020180E+02  0.11780044097E+03  0.00000000000E+00 0.  1.
         11    1    1    2    0    0 -0.29535611286E+02  0.70203309585E+02 -0.83219033878E+02  0.11281074687E+03  0.00000000000E+00 0. -1.
<mgrwt>
<rscale>  0 0.15988021E+03</rscale>
<asrwt>0</asrwt>
<pdfrwt beam="2">  1        1 0.59228338E-01 0.16607656E+03</pdfrwt>
<pdfrwt beam="1">  1       -1 0.97245262E-02 0.16607656E+03</pdfrwt>
<totfact> 0.39523240E+03</totfact>
</mgrwt>
</event>
<event>
 7    1  0.4230786E-006  0.1419761E+03  0.7546771E-02  0.1220630E+00
         -2   -1    0    0    0  501 -0.00000000000E+00  0.00000000000E+00  0.37438553824E+02  0.37438553824E+02  0.00000000000E+00 0.  1.
          2   -1    0    0  501    0  0.00000000000E+00 -0.00000000000E+00 -0.44364227526E+03  0.44364227526E+03  0.00000000000E+00 0. -1.
         23    2    1    2    0    0 -0.61090850885E+02 -0.28288176747E+02 -0.20648745256E+03  0.25058786420E+03  0.12499958645E+03 0.  0.
          5    1    3    3  502    0 -0.95313769226E+02  0.25760701793E+01 -0.13288543974E+03  0.16362145592E+03  0.47000000000E+01 0. -1.
         -5    1    3    3    0  502  0.34222918342E+02 -0.30864246926E+02 -0.73602012824E+02  0.86966408284E+02  0.47000000000E+01 0. -1.
        -11    1    1    2    0    0 -0.22267334179E+02  0.21754552099E+02 -0.62117194308E+02  0.69481224350E+02  0.00000000000E+00 0.  1.
         11    1    1    2    0    0  0.83358185064E+02  0.65336246478E+01 -0.13759907456E+03  0.16101174053E+03  0.00000000000E+00 0. -1.
<mgrwt>
<rscale>  0 0.13470978E+03</rscale>
<asrwt>0</asrwt>
<pdfrwt beam="2">  1        2 0.68252659E-01 0.14197609E+03</pdfrwt>
<pdfrwt beam="1">  1       -2 0.57597774E-02 0.14197609E+03</pdfrwt>
<totfact> 0.10688923E+04</totfact>
</mgrwt>
</event>
<event>
 7    1  0.4230786E-006  0.1362687E+03  0.7546771E-02  0.1230425E+00
         -1   -1    0    0    0  501 -0.00000000000E+00  0.00000000000E+00  0.86907580516E+02  0.86907580516E+02  0.00000000000E+00 0.  1.
          1   -1    0    0  501    0  0.00000000000E+00 -0.00000000000E+00 -0.17340195725E+03  0.17340195725E+03  0.00000000000E+00 0. -1.
         23    2    1    2    0    0  0.16430586294E+02  0.51724718951E+02 -0.28010897823E+02  0.13911786364E+03  0.12499503538E+03 0.  0.
          5    1    3    3  502    0 -0.27726454530E+02 -0.28001678773E+00 -0.57990824319E+02  0.64450449148E+02  0.47000000000E+01 0.  1.
         -5    1    3    3    0  502  0.44157040824E+02  0.52004735739E+02  0.29979926496E+02  0.74667414488E+02  0.47000000000E+01 0.  1.
        -11    1    1    2    0    0 -0.50258918623E+02 -0.20908112527E+02 -0.51435984256E+02  0.74891712138E+02  0.00000000000E+00 0. -1.
         11    1    1    2    0    0  0.33828332329E+02 -0.30816606424E+02 -0.70474946560E+01  0.46299961993E+02  0.00000000000E+00 0.  1.
<mgrwt>
<rscale>  0 0.12801879E+03</rscale>
<asrwt>0</asrwt>
<pdfrwt beam="2">  1        1 0.26677224E-01 0.13626874E+03</pdfrwt>
<pdfrwt beam="1">  1       -1 0.13370397E-01 0.13626874E+03</pdfrwt>
<totfact> 0.64607962E+03</totfact>
</mgrwt>
</event>
<event>
 7    1  0.4230786E-006  0.1302025E+03  0.7546771E-02  0.1240871E+00
         -2   -1    0    0    0  501 -0.00000000000E+00  0.00000000000E+00  0.21302110362E+03  0.21302110362E+03  0.00000000000E+00 0.  1.
          2   -1    0    0  501    0  0.00000000000E+00 -0.00000000000E+00 -0.67008739948E+02  0.67008739948E+02  0.00000000000E+00 0. -1.
         23    2    1    2    0    0 -0.13713234692E+02  0.33736235845E+02  0.12296601226E+03  0.17909026210E+03  0.12500598142E+03 0.  0.
          5    1    3    3  502    0 -0.37628715184E+02 -0.32625156106E+02  0.85554485685E+02  0.99105908190E+02  0.47000000000E+01 0. -1.
         -5    1    3    3    0  502  0.23915480491E+02  0.66361391950E+02  0.37411526580E+02  0.79984353906E+02  0.47000000000E+01 0. -1.
        -11    1    1    2    0    0 -0.10016187936E+02 -0.36267550719E+02 -0.26449122098E+02  0.45991470032E+02  0.00000000000E+00 0. -1.
         11    1    1    2    0    0  0.23729422629E+02  0.25313148742E+01  0.49495473510E+02  0.54948111444E+02  0.00000000000E+00 0.  1.
<mgrwt>
<rscale>  0 0.12135940E+03</rscale>
<asrwt>0</asrwt>
<pdfrwt beam="2">  1        2 0.10309037E-01 0.13020246E+03</pdfrwt>
<pdfrwt beam="1">  1       -2 0.32772477E-01 0.13020246E+03</pdfrwt>
<totfact> 0.50794910E+03</totfact>
</mgrwt>
</event>
<event>
 7    1  0.4230786E-006  0.1372586E+03  0.7546771E-02  0.1229488E+00
          1   -1    0    0  501    0  0.00000000000E+00  0.00000000000E+00  0.60763359621E+03  0.60763359621E+03  0.00000000000E+00 0. -1.
         -1   -1    0    0    0  501 -0.00000000000E+00 -0.00000000000E+00 -0.25095874277E+02  0.25095874277E+02  0.00000000000E+00 0.  1.
         23    2    1    2    0    0  0.60280266563E+00  0.56670189155E+02  0.27271903564E+03  0.30531230515E+03  0.12501222967E+03 0.  0.
          5    1    3    3  502    0 -0.35487795370E+02  0.46472815812E+01  0.13675509299E+02  0.38601689094E+02  0.47000000000E+01 0. -1.
         -5    1    3    3    0  502  0.36090598036E+02  0.52022907574E+02  0.25904352634E+03  0.26671061606E+03  0.47000000000E+01 0. -1.
        -11    1    1    2    0    0  0.25426398754E+02 -0.46862869947E+02  0.28560507402E+03  0.29053896234E+03  0.00000000000E+00 0. -1.
         11    1    1    2    0    0 -0.26029201420E+02 -0.98073192083E+01  0.24213612277E+02  0.36878202994E+02  0.00000000000E+00 0.  1.
<mgrwt>
<rscale>  0 0.12864019E+03</rscale>
<asrwt>0</asrwt>
<pdfrwt beam="1">  1        1 0.93482081E-01 0.13725863E+03</pdfrwt>
<pdfrwt beam="2">  1       -1 0.38609042E-02 0.13725863E+03</pdfrwt>
<totfact> 0.85880484E+03</totfact>
</mgrwt>
</event>
<event>
 7    1  0.4230786E-006  0.1253172E+03  0.7546771E-02  0.1237067E+00
          3   -1    0    0  501    0  0.00000000000E+00  0.00000000000E+00  0.14151830834E+03  0.14151830834E+03  0.00000000000E+00 0. -1.
         -3   -1    0    0    0  501 -0.00000000000E+00 -0.00000000000E+00 -0.11845003004E+03  0.11845003004E+03  0.00000000000E+00 0.  1.
         23    2    1    2    0    0 -0.80670832649E+01  0.38697060958E+01 -0.31129561957E+02  0.12912569395E+03  0.12499737098E+03 0.  0.
          5    1    3    3  502    0 -0.14803993139E+02  0.12498851199E+02  0.46496634722E+02  0.50590577528E+02  0.47000000000E+01 0.  1.
         -5    1    3    3    0  502  0.67369098739E+01 -0.86291451031E+01 -0.77626196679E+02  0.78535116417E+02  0.47000000000E+01 0.  1.
        -11    1    1    2    0    0  0.56267654165E+02 -0.12881207119E+02 -0.41816954284E-01  0.57723272176E+02  0.00000000000E+00 0.  1.
         11    1    1    2    0    0 -0.48200570900E+02  0.90115010231E+01  0.54239657213E+02  0.73119372264E+02  0.00000000000E+00 0. -1.
<mgrwt>
<rscale>  0 0.12373046E+03</rscale>
<asrwt>0</asrwt>
<pdfrwt beam="1">  1        3 0.21772047E-01 0.12531718E+03</pdfrwt>
<pdfrwt beam="2">  1       -3 0.18223082E-01 0.12531718E+03</pdfrwt>
<totfact> 0.11594830E+03</totfact>
</mgrwt>
</event>
<event>
 7    1  0.4230786E-006  0.1733058E+03  0.7546771E-02  0.1181543E+00
          1   -1    0    0  501    0  0.00000000000E+00  0.00000000000E+00  0.35700912392E+03  0.35700912392E+03  0.00000000000E+00 0. -1.
         -1   -1    0    0    0  501 -0.00000000000E+00 -0.00000000000E+00 -0.72167464669E+02  0.72167464669E+02  0.00000000000E+00 0.  1.
         23    2    1    2    0    0  0.77657380366E+02 -0.91540217378E+02  0.15797861656E+03  0.23450401639E+03  0.12499844115E+03 0.  0.
          5    1    3    3  502    0  0.60397936473E+02 -0.12767429860E+02  0.57585643913E+01  0.62178525709E+02  0.47000000000E+01 0. -1.
         -5    1    3    3    0  502  0.17259443893E+02 -0.78772787518E+02  0.15222005217E+03  0.17232549068E+03  0.47000000000E+01 0. -1.
        -11    1    1    2    0    0 -0.93501221330E+02  0.88940377472E+02  0.99517659246E+02  0.16296206196E+03  0.00000000000E+00 0.  1.
         11    1    1    2    0    0  0.15843840964E+02  0.25998399052E+01  0.27345383445E+02  0.31710510242E+02  0.00000000000E+00 0. -1.
<mgrwt>
<rscale>  0 0.16650403E+03</rscale>
<asrwt>0</asrwt>
<pdfrwt beam="1">  1        1 0.54924479E-01 0.17330577E+03</pdfrwt>
<pdfrwt beam="2">  1       -1 0.11102687E-01 0.17330577E+03</pdfrwt>
<totfact> 0.35517829E+03</totfact>
</mgrwt>
</event>
<event>
 7    1  0.4230786E-006  0.1263654E+03  0.7546771E-02  0.1247646E+00
         -2   -1    0    0    0  501 -0.00000000000E+00  0.00000000000E+00  0.93805322585E+02  0.93805322585E+02  0.00000000000E+00 0.  1.
          2   -1    0    0  501    0  0.00000000000E+00 -0.00000000000E+00 -0.16911069962E+03  0.16911069962E+03  0.00000000000E+00 0. -1.
         23    2    1    2    0    0  0.16691296952E+02 -0.82274514777E+01  0.21453774951E+02  0.12817364362E+03  0.12498771183E+03 0.  0.
          5    1    3    3  502    0 -0.27529318935E+02  0.44797727838E+02 -0.71868066475E+01  0.53277012024E+02  0.47000000000E+01 0. -1.
         -5    1    3    3    0  502  0.44220615886E+02 -0.53025179315E+02  0.28640581599E+02  0.74896631600E+02  0.47000000000E+01 0. -1.
        -11    1    1    2    0    0 -0.48691463497E+02 -0.18431213665E+02 -0.56126379328E+02  0.76555461667E+02  0.00000000000E+00 0.  1.
         11    1    1    2    0    0  0.32000166545E+02  0.26658665143E+02 -0.40632772663E+02  0.58186916918E+02  0.00000000000E+00 0. -1.
<mgrwt>
<rscale>  0 0.11728417E+03</rscale>
<asrwt>0</asrwt>
<pdfrwt beam="2">  1        2 0.26017031E-01 0.12636542E+03</pdfrwt>
<pdfrwt beam="1">  1       -2 0.14431588E-01 0.12636542E+03</pdfrwt>
<totfact> 0.70832839E+03</totfact>
</mgrwt>
</event>
<event>
 7    1  0.4230786E-006  0.2112813E+03  0.7546771E-02  0.1144345E+00
          2   -1    0    0  501    0  0.00000000000E+00  0.00000000000E+00  0.29322731367E+03  0.29322731367E+03  0.00000000000E+00 0. -1.
         -2   -1    0    0    0  501 -0.00000000000E+00 -0.00000000000E+00 -0.14215939233E+03  0.14215939233E+03  0.00000000000E+00 0.  1.
         23    2    1    2    0    0 -0.19027565613E+02  0.16927183966E+03  0.47953375444E+02  0.21665482740E+03  0.12499913625E+03 0.  0.
          5    1    3    3  502    0  0.30116782585E+02  0.15368654651E+03  0.51063567018E+02  0.16479124081E+03  0.47000000000E+01 0. -1.
         -5    1    3    3    0  502 -0.49144348197E+02  0.15585293152E+02 -0.31101915747E+01  0.51863586590E+02  0.47000000000E+01 0. -1.
        -11    1    1    2    0    0  0.40071745886E+02 -0.54496628785E+02  0.78550120746E+01  0.68097933757E+02  0.00000000000E+00 0.  1.
         11    1    1    2    0    0 -0.21044180274E+02 -0.11477521087E+03  0.95259533821E+02  0.15063394484E+03  0.00000000000E+00 0. -1.
<mgrwt>
<rscale>  0 0.20652839E+03</rscale>
<asrwt>0</asrwt>
<pdfrwt beam="1">  1        2 0.45111894E-01 0.21128130E+03</pdfrwt>
<pdfrwt beam="2">  1       -2 0.21870676E-01 0.21128130E+03</pdfrwt>
<totfact> 0.19987148E+03</totfact>
</mgrwt>
</event>
<event>
 7    1  0.4230786E-006  0.1811189E+03  0.7546771E-02  0.1172192E+00
          2   -1    0    0  501    0  0.00000000000E+00  0.00000000000E+00  0.12754593464E+04  0.12754593464E+04  0.00000000000E+00 0. -1.
         -2   -1    0    0    0  501 -0.00000000000E+00 -0.00000000000E+00 -0.22977892436E+02  0.22977892436E+02  0.00000000000E+00 0.  1.
         23    2    1    2    0    0  0.11582128646E+03 -0.61386313512E+02  0.60526776012E+03  0.63178565810E+03  0.12498482490E+03 0.  0.
          5    1    3    3  502    0  0.66215074379E+02 -0.54635621839E+02  0.14346690177E+03  0.16725528139E+03  0.47000000000E+01 0.  1.
         -5    1    3    3    0  502  0.49606212078E+02 -0.67506916728E+01  0.46180085835E+03  0.46453037671E+03  0.47000000000E+01 0.  1.
        -11    1    1    2    0    0 -0.64206856009E+02  0.76545546417E+02  0.50079087422E+03  0.51065961338E+03  0.00000000000E+00 0. -1.
         11    1    1    2    0    0 -0.51614430448E+02 -0.15159232905E+02  0.14642281958E+03  0.15599196732E+03  0.00000000000E+00 0.  1.
<mgrwt>
<rscale>  0 0.17553868E+03</rscale>
<asrwt>0</asrwt>
<pdfrwt beam="1">  1        2 0.19622446E+00 0.18111890E+03</pdfrwt>
<pdfrwt beam="2">  1       -2 0.35350614E-02 0.18111890E+03</pdfrwt>
<totfact> 0.59268454E+03</totfact>
</mgrwt>
</event>
<event>
 7    1  0.4230786E-006  0.1260863E+03  0.7546771E-02  0.1248591E+00
          1   -1    0    0  501    0  0.00000000000E+00  0.00000000000E+00  0.17358278645E+03  0.17358278645E+03  0.00000000000E+00 0. -1.
         -1   -1    0    0    0  501 -0.00000000000E+00 -0.00000000000E+00 -0.69042211351E+02  0.69042211351E+02  0.00000000000E+00 0.  1.
         23    2    1    2    0    0  0.25941612465E+01  0.16305330040E+02  0.65820226767E+02  0.14223240015E+03  0.12500063976E+03 0.  0.
          5    1    3    3  502    0  0.52015689672E+02  0.13326761716E+02  0.74288381316E+02  0.91782831447E+02  0.47000000000E+01 0.  1.
         -5    1    3    3    0  502 -0.49421528425E+02  0.29785683238E+01 -0.84681545489E+01  0.50449568706E+02  0.47000000000E+01 0.  1.
        -11    1    1    2    0    0  0.22549319041E+02  0.29553108001E+02  0.29116774591E+02  0.47219112066E+02  0.00000000000E+00 0. -1.
         11    1    1    2    0    0 -0.25143480287E+02 -0.45858438041E+02  0.96035737439E+01  0.53173485584E+02  0.00000000000E+00 0.  1.
<mgrwt>
<rscale>  0 0.11673016E+03</rscale>
<asrwt>0</asrwt>
<pdfrwt beam="1">  1        1 0.26705044E-01 0.12608629E+03</pdfrwt>
<pdfrwt beam="2">  1       -1 0.10621879E-01 0.12608629E+03</pdfrwt>
<totfact> 0.91464746E+03</totfact>
</mgrwt>
</event>
<event>
 7    1  0.4230786E-006  0.1773034E+03  0.7546771E-02  0.1175896E+00
         -2   -1    0    0    0  501 -0.00000000000E+00  0.00000000000E+00  0.75137586802E+03  0.75137586802E+03  0.00000000000E+00 0.  1.
          2   -1    0    0  501    0  0.00000000000E+00 -0.00000000000E+00 -0.37791210376E+02  0.37791210376E+02  0.00000000000E+00 0. -1.
         23    2    1    2    0    0  0.24539510917E+02 -0.12334412956E+03  0.43190317100E+03  0.46687989742E+03  0.12498210912E+03 0.  0.
          5    1    3    3  502    0 -0.27765058853E+02 -0.99079701723E+02  0.36080419029E+03  0.37521918863E+03  0.47000000000E+01 0. -1.
         -5    1    3    3    0  502  0.52304569771E+02 -0.24264427841E+02  0.71098980713E+02  0.91660708790E+02  0.47000000000E+01 0. -1.
        -11    1    1    2    0    0 -0.12820379859E+02  0.74810700639E+02  0.65006790544E+02  0.99934407922E+02  0.00000000000E+00 0. -1.
         11    1    1    2    0    0 -0.11719131059E+02  0.48533428925E+02  0.21667469609E+03  0.22235277305E+03  0.00000000000E+00 0.  1.
<mgrwt>
<rscale>  0 0.17188498E+03</rscale>
<asrwt>0</asrwt>
<pdfrwt beam="2">  1        2 0.58140329E-02 0.17730338E+03</pdfrwt>
<pdfrwt beam="1">  1       -2 0.11559628E+00 0.17730338E+03</pdfrwt>
<totfact> 0.77138333E+02</totfact>
</mgrwt>
</event>
<event>
 7    1  0.4230786E-006  0.1433660E+03  0.7546771E-02  0.1221615E+00
         -2   -1    0    0    0  501 -0.00000000000E+00  0.00000000000E+00  0.39722574155E+02  0.39722574155E+02  0.00000000000E+00 0.  1.
          2   -1    0    0  501    0  0.00000000000E+00 -0.00000000000E+00 -0.40545560941E+03  0.40545560941E+03  0.00000000000E+00 0. -1.
         23    2    1    2    0    0  0.68584220318E+02  0.14920554719E+02 -0.18780398735E+03  0.23627134122E+03  0.12500956279E+03 0.  0.
          5    1    3    3  502    0  0.42534133142E+02  0.28058952190E+02 -0.53625164243E+01  0.51451956839E+02  0.47000000000E+01 0.  1.
         -5    1    3    3    0  502  0.26050087176E+02 -0.13138397471E+02 -0.18244147093E+03  0.18481938439E+03  0.47000000000E+01 0.  1.
        -11    1    1    2    0    0 -0.47927895036E+02  0.14062795963E+02 -0.33464103852E+02  0.60122305341E+02  0.00000000000E+00 0.  1.
         11    1    1    2    0    0 -0.20656325281E+02 -0.28983350682E+02 -0.14446494405E+03  0.14878453700E+03  0.00000000000E+00 0. -1.
<mgrwt>
<rscale>  0 0.13401604E+03</rscale>
<asrwt>0</asrwt>
<pdfrwt beam="2">  1        2 0.62377787E-01 0.14336600E+03</pdfrwt>
<pdfrwt beam="1">  1       -2 0.61111651E-02 0.14336600E+03</pdfrwt>
<totfact> 0.10772176E+04</totfact>
</mgrwt>
</event>
<event>
 7    1  0.4230786E-006  0.1288031E+03  0.7546771E-02  0.1243495E+00
          2   -1    0    0  501    0  0.00000000000E+00  0.00000000000E+00  0.74419039310E+03  0.74419039310E+03  0.00000000000E+00 0.  1.
         -2   -1    0    0    0  501 -0.00000000000E+00 -0.00000000000E+00 -0.17021858054E+02  0.17021858054E+02  0.00000000000E+00 0. -1.
         23    2    1    2    0    0  0.37690267213E+01  0.30826597751E+02  0.40948716075E+03  0.42926678491E+03  0.12500301245E+03 0.  0.
          5    1    3    3  502    0  0.55754576250E+02  0.47470440411E+02  0.25528804001E+03  0.26562396138E+03  0.47000000000E+01 0.  1.
         -5    1    3    3    0  502 -0.51985549529E+02 -0.16643842660E+02  0.15419912073E+03  0.16364282353E+03  0.47000000000E+01 0.  1.
        -11    1    1    2    0    0 -0.26745573434E+02  0.13210168525E+02  0.40228654251E+02  0.50081721951E+02  0.00000000000E+00 0.  1.
         11    1    1    2    0    0  0.22976546712E+02 -0.44036766276E+02  0.27745272004E+03  0.28186374428E+03  0.00000000000E+00 0. -1.
<mgrwt>
<rscale>  0 0.11975902E+03</rscale>
<asrwt>0</asrwt>
<pdfrwt beam="1">  1        2 0.11449080E+00 0.12880310E+03</pdfrwt>
<pdfrwt beam="2">  1       -2 0.26187480E-02 0.12880310E+03</pdfrwt>
<totfact> 0.19040368E+04</totfact>
</mgrwt>
</event>
<event>
 7    1  0.4230786E-006  0.1285476E+03  0.7546771E-02  0.1244918E+00
         -3   -1    0    0    0  501 -0.00000000000E+00  0.00000000000E+00  0.13810840499E+03  0.13810840499E+03  0.00000000000E+00 0.  1.
          3   -1    0    0  501    0  0.00000000000E+00 -0.00000000000E+00 -0.90184469599E+02  0.90184469599E+02  0.00000000000E+00 0. -1.
         23    2    1    2    0    0 -0.13380975176E+02  0.26826917527E+02  0.35636624530E+02  0.13339584248E+03  0.12500299109E+03 0.  0.
          5    1    3    3  502    0  0.27454954571E+02  0.52590718819E+02 -0.16921851937E+02  0.61870811449E+02  0.47000000000E+01 0. -1.
         -5    1    3    3    0  502 -0.40835929747E+02 -0.25763801291E+02  0.52558476467E+02  0.71525031029E+02  0.47000000000E+01 0. -1.
        -11    1    1    2    0    0  0.16756933776E+01 -0.18033707652E+02  0.50673978724E+02  0.53813331802E+02  0.00000000000E+00 0.  1.
         11    1    1    2    0    0  0.11705281799E+02 -0.87932098753E+01 -0.38386667860E+02  0.41083700312E+02  0.00000000000E+00 0. -1.
<mgrwt>
<rscale>  0 0.11890312E+03</rscale>
<asrwt>0</asrwt>
<pdfrwt beam="2">  1        3 0.13874534E-01 0.12854759E+03</pdfrwt>
<pdfrwt beam="1">  1       -3 0.21247447E-01 0.12854759E+03</pdfrwt>
<totfact> 0.19421286E+03</totfact>
</mgrwt>
</event>
<event>
 7    1  0.4230786E-006  0.1619150E+03  0.7546771E-02  0.1193850E+00
          1   -1    0    0  501    0  0.00000000000E+00  0.00000000000E+00  0.53912560143E+03  0.53912560143E+03  0.00000000000E+00 0. -1.
         -1   -1    0    0    0  501 -0.00000000000E+00 -0.00000000000E+00 -0.49363015525E+02  0.49363015525E+02  0.00000000000E+00 0.  1.
         23    2    1    2    0    0 -0.32576430847E+02  0.97616642368E+02  0.14556735267E+03  0.21772992080E+03  0.12500492604E+03 0.  0.
          5    1    3    3  502    0 -0.26594840895E+02 -0.10950091943E+02  0.91849418625E+02  0.96361796255E+02  0.47000000000E+01 0.  1.
         -5    1    3    3    0  502 -0.59815899519E+01  0.10856673431E+03  0.53717934042E+02  0.12136812454E+03  0.47000000000E+01 0.  1.
        -11    1    1    2    0    0  0.51543524053E+02 -0.39492250853E+02  0.10160016078E+03  0.12057763233E+03  0.00000000000E+00 0.  1.
         11    1    1    2    0    0 -0.18967093206E+02 -0.58124391516E+02  0.24259507246E+03  0.25018106382E+03  0.00000000000E+00 0. -1.
<mgrwt>
<rscale>  0 0.15551978E+03</rscale>
<asrwt>0</asrwt>
<pdfrwt beam="1">  1        1 0.82942396E-01 0.16191499E+03</pdfrwt>
<pdfrwt beam="2">  1       -1 0.75943105E-02 0.16191499E+03</pdfrwt>
<totfact> 0.37199560E+03</totfact>
</mgrwt>
</event>
<event>
 6    1  0.4230786E-006  0.1892301E+03  0.7546771E-02  0.1189892E+00
          1   -1    0    0  501    0  0.00000000000E+00  0.00000000000E+00  0.21667005110E+03  0.21667005110E+03  0.00000000000E+00 0. -1.
         -1   -1    0    0    0  501 -0.00000000000E+00 -0.00000000000E+00 -0.22546610738E+03  0.22546610738E+03  0.00000000000E+00 0.  1.
          5    1    1    2  502    0 -0.27116038310E+02  0.98158954982E+02 -0.13630664356E+03  0.17021178295E+03  0.47000000000E+01 0. -1.
         -5    1    1    2    0  502  0.33737717768E+02 -0.69419823854E+02 -0.34379391586E+02  0.84624926056E+02  0.47000000000E+01 0.  1.
        -11    1    1    2    0    0  0.15350455871E+02  0.28531299458E+02  0.64951188241E+02  0.72583251499E+02  0.00000000000E+00 0. -1.
         11    1    1    2    0    0 -0.21972135328E+02 -0.57270430586E+02  0.96938790624E+02  0.11471619798E+03  0.00000000000E+00 0.  1.
<mgrwt>
<rscale>  0 0.15894605E+03</rscale>
<asrwt>0</asrwt>
<pdfrwt beam="1">  1        1 0.33333854E-01 0.18923009E+03</pdfrwt>
<pdfrwt beam="2">  1       -1 0.34687094E-01 0.18923009E+03</pdfrwt>
<totfact> 0.10482645E+03</totfact>
</mgrwt>
</event>
<event>
 6    1  0.4230786E-006  0.1642077E+03  0.7546771E-02  0.1202081E+00
         -3   -1    0    0    0  501 -0.00000000000E+00  0.00000000000E+00  0.84747552663E+03  0.84747552663E+03  0.00000000000E+00 0.  1.
          3   -1    0    0  501    0  0.00000000000E+00 -0.00000000000E+00 -0.29304517258E+02  0.29304517258E+02  0.00000000000E+00 0. -1.
          5    1    1    2  502    0 -0.65229024631E+02 -0.16997316216E+02  0.20613436528E+03  0.21692671795E+03  0.47000000000E+01 0. -1.
         -5    1    1    2    0  502  0.85934542344E+02 -0.30786408158E+02  0.47573855592E+03  0.48443968880E+03  0.47000000000E+01 0.  1.
        -11    1    1    2    0    0 -0.49451876096E+02  0.19742134860E+02  0.28534581205E+02  0.60410779359E+02  0.00000000000E+00 0. -1.
         11    1    1    2    0    0  0.28746358383E+02  0.28041589514E+02  0.10776350697E+03  0.11500285778E+03  0.00000000000E+00 0.  1.
<mgrwt>
<rscale>  0 0.14869894E+03</rscale>
<asrwt>0</asrwt>
<pdfrwt beam="2">  1        3 0.45083879E-02 0.16420766E+03</pdfrwt>
<pdfrwt beam="1">  1       -3 0.13038083E+00 0.16420766E+03</pdfrwt>
<totfact> 0.31086974E+02</totfact>
</mgrwt>
</event>
<event>
 7    1  0.4230786E-006  0.1800034E+03  0.7546771E-02  0.1173565E+00
          2   -1    0    0  501    0  0.00000000000E+00  0.00000000000E+00  0.12421400636E+04  0.12421400636E+04  0.00000000000E+00 0. -1.
         -2   -1    0    0    0  501 -0.00000000000E+00 -0.00000000000E+00 -0.23023806918E+02  0.23023806918E+02  0.00000000000E+00 0.  1.
         23    2    1    2    0    0 -0.20577604991E+02 -0.12787726435E+03  0.61766664590E+03  0.64336096152E+03  0.12500083516E+03 0.  0.
          5    1    3    3  502    0 -0.55697647616E+02 -0.17368771800E+02  0.28736665336E+03  0.29326708927E+03  0.47000000000E+01 0. -1.
         -5    1    3    3    0  502  0.35120042625E+02 -0.11050849255E+03  0.33029999254E+03  0.35009387225E+03  0.47000000000E+01 0. -1.
        -11    1    1    2    0    0 -0.29004114358E+02  0.75566273957E+02  0.24134688248E+03  0.25455808392E+03  0.00000000000E+00 0.  1.
         11    1    1    2    0    0  0.49581719349E+02  0.52310990388E+02  0.36010272829E+03  0.36724482506E+03  0.00000000000E+00 0. -1.
<mgrwt>
<rscale>  0 0.17417246E+03</rscale>
<asrwt>0</asrwt>
<pdfrwt beam="1">  1        2 0.19109842E+00 0.18000345E+03</pdfrwt>
<pdfrwt beam="2">  1       -2 0.35421251E-02 0.18000345E+03</pdfrwt>
<totfact> 0.61634686E+03</totfact>
</mgrwt>
</event>
<event>
 7    1  0.4230786E-006  0.1419818E+03  0.7546771E-02  0.1222334E+00
         -1   -1    0    0    0  501 -0.00000000000E+00  0.00000000000E+00  0.11961426851E+03  0.11961426851E+03  0.00000000000E+00 0.  1.
          1   -1    0    0  501    0  0.00000000000E+00 -0.00000000000E+00 -0.13813550089E+03  0.13813550089E+03  0.00000000000E+00 0. -1.
         23    2    1    2    0    0 -0.41108773414E+01  0.67207820187E+02 -0.33066366650E+02  0.14578141960E+03  0.12500018916E+03 0.  0.
          5    1    3    3  502    0  0.51716547982E+02 -0.24756466517E+01 -0.18546364955E+02  0.55197715664E+02  0.47000000000E+01 0.  1.
         -5    1    3    3    0  502 -0.55827425323E+02  0.69683466839E+02 -0.14520001695E+02  0.90583703933E+02  0.47000000000E+01 0.  1.
        -11    1    1    2    0    0 -0.93908646975E+01 -0.78437540349E+02  0.33784936505E+02  0.85918903685E+02  0.00000000000E+00 0.  1.
         11    1    1    2    0    0  0.13501742039E+02  0.11229720162E+02 -0.19239802240E+02  0.26049446121E+02  0.00000000000E+00 0. -1.
<mgrwt>
<rscale>  0 0.13351328E+03</rscale>
<asrwt>0</asrwt>
<pdfrwt beam="2">  1        1 0.21251616E-01 0.14198182E+03</pdfrwt>
<pdfrwt beam="1">  1       -1 0.18402195E-01 0.14198182E+03</pdfrwt>
<totfact> 0.52175827E+03</totfact>
</mgrwt>
</event>
<event>
 7    1  0.4230786E-006  0.1557341E+03  0.7546771E-02  0.1202432E+00
          1   -1    0    0  501    0  0.00000000000E+00  0.00000000000E+00  0.43014187561E+03  0.43014187561E+03  0.00000000000E+00 0. -1.
         -1   -1    0    0    0  501 -0.00000000000E+00 -0.00000000000E+00 -0.47577131332E+02  0.47577131332E+02  0.00000000000E+00 0.  1.
         23    2    1    2    0    0  0.90377234446E+02  0.21450906538E+02  0.18193899846E+03  0.23948886238E+03  0.12499972059E+03 0.  0.
          5    1    3    3  502    0  0.98603554984E+02  0.60238979996E+02  0.13038079221E+03  0.17427747056E+03  0.47000000000E+01 0.  1.
         -5    1    3    3    0  502 -0.82263205385E+01 -0.38788073458E+02  0.51558206243E+02  0.65211391821E+02  0.47000000000E+01 0.  1.
        -11    1    1    2    0    0 -0.17350298511E+02 -0.31369729118E+02  0.15653158777E+02  0.39116673466E+02  0.00000000000E+00 0.  1.
         11    1    1    2    0    0 -0.73026935934E+02  0.99188225801E+01  0.18497258705E+03  0.19911347110E+03  0.00000000000E+00 0. -1.
<mgrwt>
<rscale>  0 0.14841674E+03</rscale>
<asrwt>0</asrwt>
<pdfrwt beam="1">  1        1 0.66175670E-01 0.15573412E+03</pdfrwt>
<pdfrwt beam="2">  1       -1 0.73195590E-02 0.15573412E+03</pdfrwt>
<totfact> 0.52690669E+03</totfact>
</mgrwt>
</event>
<event>
 7    1  0.4230786E-006  0.1438557E+03  0.7546771E-02  0.1218711E+00
         -2   -1    0    0    0  501 -0.00000000000E+00  0.00000000000E+00  0.33006095388E+02  0.33006095388E+02  0.00000000000E+00 0.  1.
          2   -1    0    0  501    0  0.00000000000E+00 -0.00000000000E+00 -0.51355981889E+03  0.51355981889E+03  0.00000000000E+00 0. -1.
         23    2    1    2    0    0  0.23479265218E+02 -0.67212447337E+02 -0.23880182656E+03  0.27878447706E+03  0.12500273320E+03 0.  0.
          5    1    3    3  502    0  0.35231837228E+02  0.65631968967E+01 -0.92117542817E+01  0.37300192022E+02  0.47000000000E+01 0.  1.
         -5    1    3    3    0  502 -0.11752572010E+02 -0.73775644234E+02 -0.22959007228E+03  0.24148428504E+03  0.47000000000E+01 0.  1.
        -11    1    1    2    0    0 -0.45665493175E+02  0.18923481141E+02 -0.17825084827E+03  0.18497783736E+03  0.00000000000E+00 0. -1.
         11    1    1    2    0    0  0.22186227957E+02  0.48288966196E+02 -0.63501048675E+02  0.82803599862E+02  0.00000000000E+00 0.  1.
<mgrwt>
<rscale>  0 0.13607404E+03</rscale>
<asrwt>0</asrwt>
<pdfrwt beam="2">  1        2 0.79009199E-01 0.14385573E+03</pdfrwt>
<pdfrwt beam="1">  1       -2 0.50778611E-02 0.14385573E+03</pdfrwt>
<totfact> 0.11027695E+04</totfact>
</mgrwt>
</event>
<event>
 7    1  0.4230786E-006  0.1286271E+03  0.7546771E-02  0.1243856E+00
          3   -1    0    0  501    0  0.00000000000E+00  0.00000000000E+00  0.29485008505E+03  0.29485008505E+03  0.00000000000E+00 0. -1.
         -3   -1    0    0    0  501 -0.00000000000E+00 -0.00000000000E+00 -0.45731270510E+02  0.45731270510E+02  0.00000000000E+00 0.  1.
         23    2    1    2    0    0 -0.21758406583E+02 -0.21065333132E+02  0.98570851557E+02  0.16205290637E+03  0.12501102019E+03 0.  0.
          5    1    3    3  502    0  0.20895415604E+02 -0.29431012992E+02  0.11082404843E+03  0.11664845746E+03  0.47000000000E+01 0.  1.
         -5    1    3    3    0  502 -0.42653822186E+02  0.83656798600E+01 -0.12253196869E+02  0.45404448903E+02  0.47000000000E+01 0.  1.
        -11    1    1    2    0    0  0.28532251713E+02 -0.26670423856E+02  0.31797568003E+02  0.50363540656E+02  0.00000000000E+00 0.  1.
         11    1    1    2    0    0 -0.67738451301E+01  0.47735756988E+02  0.11875039498E+03  0.12816490854E+03  0.00000000000E+00 0. -1.
<mgrwt>
<rscale>  0 0.11954141E+03</rscale>
<asrwt>0</asrwt>
<pdfrwt beam="1">  1        3 0.45361550E-01 0.12862710E+03</pdfrwt>
<pdfrwt beam="2">  1       -3 0.70355803E-02 0.12862710E+03</pdfrwt>
<totfact> 0.14552045E+03</totfact>
</mgrwt>
</event>
<event>
 6    1  0.4230786E-006  0.1687627E+03  0.7546771E-02  0.1203253E+00
          1   -1    0    0  501    0  0.00000000000E+00  0.00000000000E+00  0.50575631022E+03  0.50575631022E+03  0.00000000000E+00 0. -1.
         -1   -1    0    0    0  501 -0.00000000000E+00 -0.00000000000E+00 -0.38455427175E+02  0.38455427175E+02  0.00000000000E+00 0.  1.
          5    1    1    2  502    0 -0.11597159848E+02 -0.54671398711E+01  0.23056765831E+03  0.23097168396E+03  0.47000000000E+01 0. -1.
         -5    1    1    2    0  502 -0.92974218743E+01  0.39780237397E+02 -0.14132395315E+02  0.43482455522E+02  0.47000000000E+01 0.  1.
        -11    1    1    2    0    0 -0.17530142718E+02  0.12572367670E+02  0.15121689069E+02  0.26344559455E+02  0.00000000000E+00 0.  1.
         11    1    1    2    0    0  0.38424724440E+02 -0.46885465196E+02  0.23574393098E+03  0.24341303846E+03  0.00000000000E+00 0. -1.
<mgrwt>
<rscale>  0 0.14776020E+03</rscale>
<asrwt>0</asrwt>
<pdfrwt beam="1">  1        1 0.77808658E-01 0.16876271E+03</pdfrwt>
<pdfrwt beam="2">  1       -1 0.59162199E-02 0.16876271E+03</pdfrwt>
<totfact> 0.59050069E+03</totfact>
</mgrwt>
</event>
<event>
 7    1  0.4230786E-006  0.2114530E+03  0.7546771E-02  0.1144474E+00
          1   -1    0    0  501    0  0.00000000000E+00  0.00000000000E+00  0.21440731246E+03  0.21440731246E+03  0.00000000000E+00 0. -1.
         -1   -1    0    0    0  501 -0.00000000000E+00 -0.00000000000E+00 -0.21329052016E+03  0.21329052016E+03  0.00000000000E+00 0.  1.
         23    2    1    2    0    0 -0.88313638469E+02 -0.14589648605E+03 -0.70543870954E+02  0.22290991130E+03  0.12500922944E+03 0.  0.
          5    1    3    3  502    0 -0.69048214466E+02 -0.90885329326E+02 -0.10489557197E+03  0.15509019964E+03  0.47000000000E+01 0.  1.
         -5    1    3    3    0  502 -0.19265424004E+02 -0.55011156727E+02  0.34351701013E+02  0.67819711655E+02  0.47000000000E+01 0.  1.
        -11    1    1    2    0    0  0.67158920975E+02  0.32826585347E+02  0.43007316371E+02  0.86241142348E+02  0.00000000000E+00 0.  1.
         11    1    1    2    0    0  0.21154717495E+02  0.11306990071E+03  0.28653346880E+02  0.11854677898E+03  0.00000000000E+00 0. -1.
<mgrwt>
<rscale>  0 0.20636956E+03</rscale>
<asrwt>0</asrwt>
<pdfrwt beam="1">  1        1 0.32985740E-01 0.21145305E+03</pdfrwt>
<pdfrwt beam="2">  1       -1 0.32813926E-01 0.21145305E+03</pdfrwt>
<totfact> 0.11707631E+03</totfact>
</mgrwt>
</event>
<event>
 7    1  0.4230786E-006  0.1361557E+03  0.7546771E-02  0.1230958E+00
          1   -1    0    0  501    0  0.00000000000E+00  0.00000000000E+00  0.26175113490E+03  0.26175113490E+03  0.00000000000E+00 0. -1.
         -1   -1    0    0    0  501 -0.00000000000E+00 -0.00000000000E+00 -0.57626581508E+02  0.57626581508E+02  0.00000000000E+00 0.  1.
         23    2    1    2    0    0  0.16577340051E+02 -0.51388198596E+02  0.85418793761E+02  0.16073194081E+03  0.12499132494E+03 0.  0.
          5    1    3    3  502    0  0.22171112936E+02 -0.34044599986E+02  0.11701453410E+03  0.12395597698E+03  0.47000000000E+01 0.  1.
         -5    1    3    3    0  502 -0.55937728844E+01 -0.17343598609E+02 -0.31595740342E+02  0.36775963829E+02  0.47000000000E+01 0.  1.
        -11    1    1    2    0    0  0.17352127183E+02 -0.88477658131E+01  0.73515364656E+02  0.76051877809E+02  0.00000000000E+00 0. -1.
         11    1    1    2    0    0 -0.33929467235E+02  0.60235964409E+02  0.45190394979E+02  0.82593897798E+02  0.00000000000E+00 0.  1.
<mgrwt>
<rscale>  0 0.12766793E+03</rscale>
<asrwt>0</asrwt>
<pdfrwt beam="1">  1        1 0.40269405E-01 0.13615574E+03</pdfrwt>
<pdfrwt beam="2">  1       -1 0.88656281E-02 0.13615574E+03</pdfrwt>
<totfact> 0.72783888E+03</totfact>
</mgrwt>
</event>
<event>
 7    1  0.4230786E-006  0.1923448E+03  0.7546771E-02  0.1161109E+00
         -3   -1    0    0    0  501 -0.00000000000E+00  0.00000000000E+00  0.62470855707E+03  0.62470855707E+03  0.00000000000E+00 0.  1.
          3   -1    0    0  501    0  0.00000000000E+00 -0.00000000000E+00 -0.53216363330E+02  0.53216363330E+02  0.00000000000E+00 0. -1.
         23    2    1    2    0    0  0.90296156668E+02  0.11496993872E+03  0.31072714449E+03  0.36544205068E+03  0.12500020544E+03 0.  0.
          5    1    3    3  502    0  0.58044915008E+02  0.64587006922E+00  0.42640284506E+02  0.72179728242E+02  0.47000000000E+01 0.  1.
         -5    1    3    3    0  502  0.32251241660E+02  0.11432406865E+03  0.26808685999E+03  0.29326232244E+03  0.47000000000E+01 0.  1.
        -11    1    1    2    0    0  0.45940484193E+01 -0.59566141932E+02  0.11865947029E+03  0.13285066968E+03  0.00000000000E+00 0.  1.
         11    1    1    2    0    0 -0.94890205087E+02 -0.55403796791E+02  0.14210557895E+03  0.17963220004E+03  0.00000000000E+00 0. -1.
<mgrwt>
<rscale>  0 0.18709330E+03</rscale>
<asrwt>0</asrwt>
<pdfrwt beam="2">  1        3 0.81871333E-02 0.19234483E+03</pdfrwt>
<pdfrwt beam="1">  1       -3 0.96109004E-01 0.19234483E+03</pdfrwt>
<totfact> 0.24748371E+02</totfact>
</mgrwt>
</event>
<event>
 7    1  0.4230786E-006  0.1296226E+03  0.7546771E-02  0.1240769E+00
          2   -1    0    0  501    0  0.00000000000E+00  0.00000000000E+00  0.60796439209E+03  0.60796439209E+03  0.00000000000E+00 0. -1.
         -2   -1    0    0    0  501 -0.00000000000E+00 -0.00000000000E+00 -0.25539474911E+02  0.25539474911E+02  0.00000000000E+00 0.  1.
         23    2    1    2    0    0  0.29067561209E+02 -0.18208161899E+02  0.20048153273E+03  0.23873594698E+03  0.12500218854E+03 0.  0.
          5    1    3    3  502    0  0.47446955210E+02 -0.45109075049E+02  0.19450416500E+03  0.20528030206E+03  0.47000000000E+01 0.  1.
         -5    1    3    3    0  502 -0.18379394000E+02  0.26900913151E+02  0.59773677280E+01  0.33455644922E+02  0.47000000000E+01 0.  1.
        -11    1    1    2    0    0  0.30166914550E+02 -0.88917872890E+01  0.81805196489E+02  0.87642437137E+02  0.00000000000E+00 0.  1.
         11    1    1    2    0    0 -0.59234475759E+02  0.27099949188E+02  0.30013818796E+03  0.30712548288E+03  0.00000000000E+00 0. -1.
<mgrwt>
<rscale>  0 0.12142220E+03</rscale>
<asrwt>0</asrwt>
<pdfrwt beam="1">  1        2 0.93532972E-01 0.12962256E+03</pdfrwt>
<pdfrwt beam="2">  1       -2 0.39291505E-02 0.12962256E+03</pdfrwt>
<totfact> 0.13288340E+04</totfact>
</mgrwt>
</event>
<event>
 7    1  0.4230786E-006  0.1256253E+03  0.7546771E-02  0.1249476E+00
          1   -1    0    0  501    0  0.00000000000E+00  0.00000000000E+00  0.39542509282E+03  0.39542509282E+03  0.00000000000E+00 0. -1.
         -1   -1    0    0    0  501 -0.00000000000E+00 -0.00000000000E+00 -0.31028246459E+02  0.31028246459E+02  0.00000000000E+00 0.  1.
         23    2    1    2    0    0 -0.12138109892E+02  0.13150040594E+01  0.16996735577E+03  0.21135423317E+03  0.12503058387E+03 0.  0.
          5    1    3    3  502    0 -0.41546257090E+02 -0.25443019019E+02  0.14841110705E+02  0.51144767688E+02  0.47000000000E+01 0. -1.
         -5    1    3    3    0  502  0.29408147197E+02  0.26758023078E+02  0.15512624507E+03  0.16020946548E+03  0.47000000000E+01 0. -1.
        -11    1    1    2    0    0 -0.32241432069E+02 -0.68074997825E+01  0.14389508805E+03  0.14761994567E+03  0.00000000000E+00 0. -1.
         11    1    1    2    0    0  0.44379541961E+02  0.54924957231E+01  0.50534402546E+02  0.67479160447E+02  0.00000000000E+00 0.  1.
<mgrwt>
<rscale>  0 0.11621437E+03</rscale>
<asrwt>0</asrwt>
<pdfrwt beam="1">  1        1 0.60834626E-01 0.12562528E+03</pdfrwt>
<pdfrwt beam="2">  1       -1 0.47735767E-02 0.12562528E+03</pdfrwt>
<totfact> 0.10930049E+04</totfact>
</mgrwt>
</event>
<event>
 7    1  0.4230786E-006  0.1362402E+03  0.7546771E-02  0.1230509E+00
         -1   -1    0    0    0  501 -0.00000000000E+00  0.00000000000E+00  0.51724488330E+02  0.51724488330E+02  0.00000000000E+00 0.  1.
          1   -1    0    0  501    0  0.00000000000E+00 -0.00000000000E+00 -0.34165084339E+03  0.34165084339E+03  0.00000000000E+00 0. -1.
         23    2    1    2    0    0 -0.35663600428E+02 -0.40813911003E+02 -0.79484780883E+02  0.15773145864E+03  0.12499485960E+03 0.  0.
          5    1    3    3  502    0 -0.38984242046E+02 -0.83965058849E+02 -0.53027575084E+02  0.10678911908E+03  0.47000000000E+01 0. -1.
         -5    1    3    3    0  502  0.33206416181E+01  0.43151147846E+02 -0.26457205798E+02  0.50942339560E+02  0.47000000000E+01 0. -1.
        -11    1    1    2    0    0  0.52078676379E+02 -0.39701436889E+01 -0.70100129758E+02  0.87418412056E+02  0.00000000000E+00 0.  1.
         11    1    1    2    0    0 -0.16415075950E+02  0.44784054692E+02 -0.14034144442E+03  0.14822546102E+03  0.00000000000E+00 0. -1.
<mgrwt>
<rscale>  0 0.12796351E+03</rscale>
<asrwt>0</asrwt>
<pdfrwt beam="2">  1        1 0.52561668E-01 0.13624017E+03</pdfrwt>
<pdfrwt beam="1">  1       -1 0.79576136E-02 0.13624017E+03</pdfrwt>
<totfact> 0.61617770E+03</totfact>
</mgrwt>
</event>
<event>
 6    1  0.4230786E-006  0.2614321E+03  0.7546771E-02  0.1112765E+00
         -1   -1    0    0    0  501 -0.00000000000E+00  0.00000000000E+00  0.10590772970E+03  0.10590772970E+03  0.00000000000E+00 0.  1.
          1   -1    0    0  501    0  0.00000000000E+00 -0.00000000000E+00 -0.79270844671E+03  0.79270844671E+03  0.00000000000E+00 0. -1.
          5    1    1    2  502    0  0.18345972600E+01  0.49100286833E+02 -0.78239209823E+02  0.92507663834E+02  0.47000000000E+01 0.  1.
         -5    1    1    2    0  502 -0.18707415087E+03  0.30899525052E+02 -0.37216966622E+02  0.19328401687E+03  0.47000000000E+01 0.  1.
        -11    1    1    2    0    0  0.19494438143E+03 -0.77417635116E+02 -0.52391871761E+03  0.56434707826E+03  0.00000000000E+00 0. -1.
         11    1    1    2    0    0 -0.97048278194E+01 -0.25821767684E+01 -0.47425822953E+02  0.48477417450E+02  0.00000000000E+00 0.  1.
<mgrwt>
<rscale>  0 0.25085670E+03</rscale>
<asrwt>0</asrwt>
<pdfrwt beam="2">  1        1 0.12195515E+00 0.26143213E+03</pdfrwt>
<pdfrwt beam="1">  1       -1 0.16293497E-01 0.26143213E+03</pdfrwt>
<totfact> 0.66049740E+02</totfact>
</mgrwt>
</event>
<event>
 7    1  0.4500684E-006  0.1674700E+03  0.7546771E-02  0.1187364E+00
         -1   -1    0    0    0  501 -0.00000000000E+00  0.00000000000E+00  0.20794333448E+02  0.20794333448E+02  0.00000000000E+00 0. -1.
          1   -1    0    0  501    0  0.00000000000E+00 -0.00000000000E+00 -0.11847771809E+04  0.11847771809E+04  0.00000000000E+00 0.  1.
         23    2    1    2    0    0  0.24477600919E+02 -0.10872777366E+03 -0.70486919378E+03  0.72449071358E+03  0.12500132802E+03 0.  0.
          5    1    3    3  502    0 -0.37045041967E+02  0.53183559972E+01 -0.16860376704E+03  0.17277135268E+03  0.47000000000E+01 0. -1.
         -5    1    3    3    0  502  0.61522642886E+02 -0.11404612966E+03 -0.53626542674E+03  0.55171936090E+03  0.47000000000E+01 0. -1.
        -11    1    1    2    0    0 -0.59058269392E+02  0.63993463980E+02 -0.26997325957E+03  0.28366988472E+03  0.00000000000E+00 0.  1.
         11    1    1    2    0    0  0.34580668473E+02  0.44734309681E+02 -0.18914039413E+03  0.19741091608E+03  0.00000000000E+00 0. -1.
<mgrwt>
<rscale>  0 0.16118579E+03</rscale>
<asrwt>0</asrwt>
<pdfrwt beam="2">  1        1 0.18227344E+00 0.16747004E+03</pdfrwt>
<pdfrwt beam="1">  1       -1 0.31991277E-02 0.16747004E+03</pdfrwt>
<totfact> 0.39802614E+03</totfact>
</mgrwt>
</event>
<event>
 7    1  0.4230786E-006  0.1272678E+03  0.7546771E-02  0.1246688E+00
         -1   -1    0    0    0  501 -0.00000000000E+00  0.00000000000E+00  0.49232200514E+02  0.49232200514E+02  0.00000000000E+00 0.  1.
          1   -1    0    0  501    0  0.00000000000E+00 -0.00000000000E+00 -0.27371844940E+03  0.27371844940E+03  0.00000000000E+00 0. -1.
         23    2    1    2    0    0  0.24090303223E+01  0.23627854075E+02 -0.78438907981E+02  0.14949834498E+03  0.12503205170E+03 0.  0.
          5    1    3    3  502    0 -0.31090374441E+02 -0.23873075765E+02  0.12549898955E+02  0.41426140216E+02  0.47000000000E+01 0. -1.
         -5    1    3    3    0  502  0.33499404763E+02  0.47500929841E+02 -0.90988806936E+02  0.10807220477E+03  0.47000000000E+01 0. -1.
        -11    1    1    2    0    0  0.26054162328E+02 -0.42701300181E+02 -0.46969889421E+02  0.68617715818E+02  0.00000000000E+00 0.  1.
         11    1    1    2    0    0 -0.28463192651E+02  0.19073446106E+02 -0.99077451489E+02  0.10483458912E+03  0.00000000000E+00 0. -1.
<mgrwt>
<rscale>  0 0.11784912E+03</rscale>
<asrwt>0</asrwt>
<pdfrwt beam="2">  1        1 0.42110531E-01 0.12726780E+03</pdfrwt>
<pdfrwt beam="1">  1       -1 0.75741847E-02 0.12726780E+03</pdfrwt>
<totfact> 0.86929285E+03</totfact>
</mgrwt>
</event>
<event>
 7    1  0.4230786E-006  0.1349590E+03  0.7546771E-02  0.1232321E+00
          1   -1    0    0  501    0  0.00000000000E+00  0.00000000000E+00  0.77317770681E+02  0.77317770681E+02  0.00000000000E+00 0. -1.
         -1   -1    0    0    0  501 -0.00000000000E+00 -0.00000000000E+00 -0.19661659211E+03  0.19661659211E+03  0.00000000000E+00 0.  1.
         23    2    1    2    0    0 -0.26813814729E+01  0.50804797032E+02 -0.97814375339E+02  0.16667807746E+03  0.12500244907E+03 0.  0.
          5    1    3    3  502    0  0.22391405079E+02  0.36996315376E+02 -0.12161246320E+03  0.12915797915E+03  0.47000000000E+01 0. -1.
         -5    1    3    3    0  502 -0.25072786552E+02  0.13808481656E+02  0.23798087861E+02  0.37520098307E+02  0.47000000000E+01 0. -1.
        -11    1    1    2    0    0  0.30334478226E+02 -0.34988489707E+02  0.23661461613E+02  0.52002305207E+02  0.00000000000E+00 0. -1.
         11    1    1    2    0    0 -0.27653096753E+02 -0.15816307325E+02 -0.45145907706E+02  0.55253980129E+02  0.00000000000E+00 0.  1.
<mgrwt>
<rscale>  0 0.12677510E+03</rscale>
<asrwt>0</asrwt>
<pdfrwt beam="1">  1        1 0.11895042E-01 0.13495899E+03</pdfrwt>
<pdfrwt beam="2">  1       -1 0.30248706E-01 0.13495899E+03</pdfrwt>
<totfact> 0.48800718E+03</totfact>
</mgrwt>
</event>
<event>
 7    1  0.4230786E-006  0.1914057E+03  0.7546771E-02  0.1162026E+00
         -3   -1    0    0    0  501 -0.00000000000E+00  0.00000000000E+00  0.11093544985E+03  0.11093544985E+03  0.00000000000E+00 0.  1.
          3   -1    0    0  501    0  0.00000000000E+00 -0.00000000000E+00 -0.29859514671E+03  0.29859514671E+03  0.00000000000E+00 0. -1.
         23    2    1    2    0    0  0.44259223685E+02 -0.13803173338E+03 -0.80227642893E+02  0.20753939008E+03  0.12499794179E+03 0.  0.
          5    1    3    3  502    0  0.24014053407E+01 -0.46504055258E+02  0.32017922493E+02  0.56706536341E+02  0.47000000000E+01 0.  1.
         -5    1    3    3    0  502  0.41857818344E+02 -0.91527678119E+02 -0.11224556539E+03  0.15083285374E+03  0.47000000000E+01 0.  1.
        -11    1    1    2    0    0 -0.16569828190E+02 -0.94857566494E+01 -0.34611698302E+01  0.19404084159E+02  0.00000000000E+00 0.  1.
         11    1    1    2    0    0 -0.27689395495E+02  0.14751749003E+03 -0.10397088413E+03  0.18258712231E+03  0.00000000000E+00 0. -1.
<mgrwt>
<rscale>  0 0.18610076E+03</rscale>
<asrwt>0</asrwt>
<pdfrwt beam="2">  1        3 0.45937714E-01 0.19140565E+03</pdfrwt>
<pdfrwt beam="1">  1       -3 0.17066993E-01 0.19140565E+03</pdfrwt>
<totfact> 0.34130331E+02</totfact>
</mgrwt>
</event>
<event>
 7    1  0.4230786E-006  0.3457491E+03  0.7546771E-02  0.1065836E+00
          2   -1    0    0  501    0  0.00000000000E+00  0.00000000000E+00  0.13549171671E+04  0.13549171671E+04  0.00000000000E+00 0. -1.
         -2   -1    0    0    0  501 -0.00000000000E+00 -0.00000000000E+00 -0.84889351883E+02  0.84889351883E+02  0.00000000000E+00 0.  1.
         23    2    1    2    0    0  0.27009070179E+03 -0.17597846809E+03  0.61955340104E+03  0.70949902869E+03  0.12500018618E+03 0.  0.
          5    1    3    3  502    0  0.16115410273E+03 -0.91639791295E+02  0.47421192075E+03  0.50918320078E+03  0.47000000000E+01 0. -1.
         -5    1    3    3    0  502  0.10893659906E+03 -0.84338676799E+02  0.14534148029E+03  0.20031582791E+03  0.47000000000E+01 0. -1.
        -11    1    1    2    0    0 -0.27477922932E+02  0.19611064934E+02  0.26880399132E+02  0.43153052894E+02  0.00000000000E+00 0.  1.
         11    1    1    2    0    0 -0.24261277886E+03  0.15636740316E+03  0.62359401504E+03  0.68715443739E+03  0.00000000000E+00 0. -1.
<mgrwt>
<rscale>  0 0.34226249E+03</rscale>
<asrwt>0</asrwt>
<pdfrwt beam="1">  1        2 0.20844878E+00 0.34574912E+03</pdfrwt>
<pdfrwt beam="2">  1       -2 0.13059901E-01 0.34574912E+03</pdfrwt>
<totfact> 0.70191229E+02</totfact>
</mgrwt>
</event>
<event>
 7    1  0.4230786E-006  0.1377908E+03  0.7546771E-02  0.1229994E+00
          2   -1    0    0  501    0  0.00000000000E+00  0.00000000000E+00  0.39257663475E+03  0.39257663475E+03  0.00000000000E+00 0. -1.
         -2   -1    0    0    0  501 -0.00000000000E+00 -0.00000000000E+00 -0.42006695205E+02  0.42006695205E+02  0.00000000000E+00 0.  1.
         23    2    1    2    0    0  0.30907291727E+02  0.49050919370E+02  0.12364494766E+03  0.18513342620E+03  0.12500023617E+03 0.  0.
          5    1    3    3  502    0  0.48742362612E+02  0.15148800550E+02 -0.43538070769E+01  0.51442683709E+02  0.47000000000E+01 0. -1.
         -5    1    3    3    0  502 -0.17835070885E+02  0.33902118821E+02  0.12799875473E+03  0.13369074249E+03  0.47000000000E+01 0. -1.
        -11    1    1    2    0    0  0.13502410205E+02 -0.34674729739E+02  0.32201273119E+02  0.49209490490E+02  0.00000000000E+00 0.  1.
         11    1    1    2    0    0 -0.44409701932E+02 -0.14376189632E+02  0.19472371877E+03  0.20024041327E+03  0.00000000000E+00 0. -1.
<mgrwt>
<rscale>  0 0.12830445E+03</rscale>
<asrwt>0</asrwt>
<pdfrwt beam="1">  1        2 0.60396403E-01 0.13779083E+03</pdfrwt>
<pdfrwt beam="2">  1       -2 0.64625688E-02 0.13779083E+03</pdfrwt>
<totfact> 0.10212265E+04</totfact>
</mgrwt>
</event>
<event>
 7    1  0.4230786E-006  0.1268973E+03  0.7546771E-02  0.1244448E+00
          2   -1    0    0  501    0  0.00000000000E+00  0.00000000000E+00  0.12409852388E+03  0.12409852388E+03  0.00000000000E+00 0. -1.
         -2   -1    0    0    0  501 -0.00000000000E+00 -0.00000000000E+00 -0.12150918795E+03  0.12150918795E+03  0.00000000000E+00 0.  1.
         23    2    1    2    0    0  0.16826022098E+02  0.13956053783E+02 -0.46731362839E+02  0.13522847511E+03  0.12500013500E+03 0.  0.
          5    1    3    3  502    0 -0.32344594377E+02 -0.13992141386E+02 -0.66271015250E+02  0.75205653166E+02  0.47000000000E+01 0. -1.
         -5    1    3    3    0  502  0.49170616475E+02  0.27948195169E+02  0.19539652411E+02  0.60022821943E+02  0.47000000000E+01 0. -1.
        -11    1    1    2    0    0 -0.28177575457E+01  0.28553342536E+02  0.58072291669E+02  0.64773638058E+02  0.00000000000E+00 0. -1.
         11    1    1    2    0    0 -0.14008264552E+02 -0.42509396319E+02 -0.87515929010E+01  0.45605598664E+02  0.00000000000E+00 0.  1.
<mgrwt>
<rscale>  0 0.11918473E+03</rscale>
<asrwt>0</asrwt>
<pdfrwt beam="1">  1        2 0.19092081E-01 0.12689728E+03</pdfrwt>
<pdfrwt beam="2">  1       -2 0.18693721E-01 0.12689728E+03</pdfrwt>
<totfact> 0.65305379E+03</totfact>
</mgrwt>
</event>
<event>
 7    1  0.4230786E-006  0.1320810E+03  0.7546771E-02  0.1238899E+00
          1   -1    0    0  501    0  0.00000000000E+00  0.00000000000E+00  0.43858976323E+03  0.43858976323E+03  0.00000000000E+00 0. -1.
         -1   -1    0    0    0  501 -0.00000000000E+00 -0.00000000000E+00 -0.39836176681E+02  0.39836176681E+02  0.00000000000E+00 0.  1.
         23    2    1    2    0    0  0.41434787327E+02 -0.10250813537E+02  0.10491223311E+03  0.16867712374E+03  0.12499389840E+03 0.  0.
          5    1    3    3  502    0  0.78394328296E+02  0.15916167755E+02  0.90600364783E+02  0.12095251632E+03  0.47000000000E+01 0. -1.
         -5    1    3    3    0  502 -0.36959540969E+02 -0.26166981292E+02  0.14311868329E+02  0.47724607423E+02  0.47000000000E+01 0. -1.
        -11    1    1    2    0    0 -0.66720401645E+02  0.19250200076E+02  0.23560078684E+03  0.24562148310E+03  0.00000000000E+00 0.  1.
         11    1    1    2    0    0  0.25285614318E+02 -0.89993865389E+01  0.58240566596E+02  0.64127333072E+02  0.00000000000E+00 0. -1.
<mgrwt>
<rscale>  0 0.12258101E+03</rscale>
<asrwt>0</asrwt>
<pdfrwt beam="1">  1        1 0.67475345E-01 0.13208102E+03</pdfrwt>
<pdfrwt beam="2">  1       -1 0.61286429E-02 0.13208102E+03</pdfrwt>
<totfact> 0.66446635E+03</totfact>
</mgrwt>
</event>
<event>
 7    1  0.4230786E-006  0.1398457E+03  0.7546771E-02  0.1224645E+00
         -2   -1    0    0    0  501 -0.00000000000E+00  0.00000000000E+00  0.90551742371E+02  0.90551742371E+02  0.00000000000E+00 0.  1.
          2   -1    0    0  501    0  0.00000000000E+00 -0.00000000000E+00 -0.17435032573E+03  0.17435032573E+03  0.00000000000E+00 0. -1.
         23    2    1    2    0    0 -0.13103189090E+01  0.63512391372E+02 -0.36656772087E+02  0.14457021619E+03  0.12458446001E+03 0.  0.
          5    1    3    3  502    0  0.55252985354E+02  0.25325444470E+02  0.99847756867E+01  0.61774236325E+02  0.47000000000E+01 0.  1.
         -5    1    3    3    0  502 -0.56563304263E+02  0.38186946902E+02 -0.46641547774E+02  0.82795979863E+02  0.47000000000E+01 0.  1.
        -11    1    1    2    0    0  0.34908189158E+02 -0.65817283994E+02 -0.43962002129E+02  0.86505226280E+02  0.00000000000E+00 0. -1.
         11    1    1    2    0    0 -0.33597870249E+02  0.23048926220E+01 -0.31798091394E+01  0.33826625629E+02  0.00000000000E+00 0.  1.
<mgrwt>
<rscale>  0 0.13191273E+03</rscale>
<asrwt>0</asrwt>
<pdfrwt beam="2">  1        2 0.26823127E-01 0.13984573E+03</pdfrwt>
<pdfrwt beam="1">  1       -2 0.13931037E-01 0.13984573E+03</pdfrwt>
<totfact> 0.73068354E+03</totfact>
</mgrwt>
</event>
<event>
 7    1  0.5079133E-006  0.2327974E+03  0.7546771E-02  0.1127879E+00
         -1   -1    0    0    0  501 -0.00000000000E+00  0.00000000000E+00  0.21569556364E+02  0.21569556364E+02  0.00000000000E+00 0.  1.
          1   -1    0    0  501    0  0.00000000000E+00 -0.00000000000E+00 -0.23306326017E+04  0.23306326017E+04  0.00000000000E+00 0. -1.
         23    2    1    2    0    0 -0.68560686698E+02  0.18403245185E+03 -0.11444254147E+04  0.11678630811E+04  0.12500454100E+03 0.  0.
          5    1    3    3  502    0 -0.54786530062E+00  0.13654300111E+03 -0.50855824089E+03  0.52659079529E+03  0.47000000000E+01 0.  1.
         -5    1    3    3    0  502 -0.68012821398E+02  0.47489450742E+02 -0.63586717380E+03  0.64127228579E+03  0.47000000000E+01 0.  1.
        -11    1    1    2    0    0 -0.21300796253E+02 -0.32218377537E+02 -0.22222919196E+03  0.22556054959E+03  0.00000000000E+00 0.  1.
         11    1    1    2    0    0  0.89861482951E+02 -0.15181407432E+03 -0.94240843864E+03  0.95877852734E+03  0.00000000000E+00 0. -1.
<mgrwt>
<rscale>  0 0.22824735E+03</rscale>
<asrwt>0</asrwt>
<pdfrwt beam="2">  1        1 0.35855900E+00 0.23279744E+03</pdfrwt>
<pdfrwt beam="1">  1       -1 0.33183920E-02 0.23279744E+03</pdfrwt>
<totfact> 0.66994372E+02</totfact>
</mgrwt>
</event>
<event>
 7    1  0.4230786E-006  0.1666230E+03  0.7546771E-02  0.1189114E+00
         -2   -1    0    0    0  501 -0.00000000000E+00  0.00000000000E+00  0.24961057828E+02  0.24961057828E+02  0.00000000000E+00 0.  1.
          2   -1    0    0  501    0  0.00000000000E+00 -0.00000000000E+00 -0.97011851999E+03  0.97011851999E+03  0.00000000000E+00 0. -1.
         23    2    1    2    0    0 -0.67071835675E+02  0.87416883635E+02 -0.59341896003E+03  0.61636780790E+03  0.12499147897E+03 0.  0.
          5    1    3    3  502    0 -0.48309675551E+02  0.10718311136E+03 -0.56338616860E+03  0.57554157893E+03  0.47000000000E+01 0. -1.
         -5    1    3    3    0  502 -0.18762160123E+02 -0.19766227724E+02 -0.30032791428E+02  0.40826228969E+02  0.47000000000E+01 0. -1.
        -11    1    1    2    0    0  0.27242669416E+02 -0.46222182469E+02 -0.28820063220E+03  0.29315227713E+03  0.00000000000E+00 0. -1.
         11    1    1    2    0    0  0.39829166259E+02 -0.41194701166E+02 -0.63537869939E+02  0.85559492784E+02  0.00000000000E+00 0.  1.
<mgrwt>
<rscale>  0 0.15963079E+03</rscale>
<asrwt>0</asrwt>
<pdfrwt beam="2">  1        2 0.14924899E+00 0.16662297E+03</pdfrwt>
<pdfrwt beam="1">  1       -2 0.38401630E-02 0.16662297E+03</pdfrwt>
<totfact> 0.78303914E+03</totfact>
</mgrwt>
</event>
<event>
 7    1  0.4230786E-006  0.1667158E+03  0.7546771E-02  0.1187687E+00
          2   -1    0    0  501    0  0.00000000000E+00  0.00000000000E+00  0.35249306848E+03  0.35249306848E+03  0.00000000000E+00 0. -1.
         -2   -1    0    0    0  501 -0.00000000000E+00 -0.00000000000E+00 -0.69822582215E+02  0.69822582215E+02  0.00000000000E+00 0.  1.
         23    2    1    2    0    0  0.10199037806E+03  0.42069698866E+02  0.17728207180E+03  0.24335795110E+03  0.12498904994E+03 0.  0.
          5    1    3    3  502    0  0.67354064593E+02 -0.57165188447E+01  0.13349752723E+02  0.69061961329E+02  0.47000000000E+01 0.  1.
         -5    1    3    3    0  502  0.34636313464E+02  0.47786217710E+02  0.16393231908E+03  0.17429598977E+03  0.47000000000E+01 0.  1.
        -11    1    1    2    0    0 -0.75227890369E+02 -0.41895043750E+02  0.12059138342E+03  0.14817797385E+03  0.00000000000E+00 0. -1.
         11    1    1    2    0    0 -0.26762487687E+02 -0.17465511535E+00 -0.15202968953E+02  0.30779725740E+02  0.00000000000E+00 0.  1.
<mgrwt>
<rscale>  0 0.16089797E+03</rscale>
<asrwt>0</asrwt>
<pdfrwt beam="1">  1        2 0.54229702E-01 0.16671580E+03</pdfrwt>
<pdfrwt beam="2">  1       -2 0.10741936E-01 0.16671580E+03</pdfrwt>
<totfact> 0.52639185E+03</totfact>
</mgrwt>
</event>
<event>
 7    1  0.4230786E-006  0.1371333E+03  0.7546771E-02  0.1229656E+00
         -2   -1    0    0    0  501 -0.00000000000E+00  0.00000000000E+00  0.21148503978E+03  0.21148503978E+03  0.00000000000E+00 0.  1.
          2   -1    0    0  501    0  0.00000000000E+00 -0.00000000000E+00 -0.69780137434E+02  0.69780137434E+02  0.00000000000E+00 0. -1.
         23    2    1    2    0    0 -0.38525000344E+02  0.41206950794E+02  0.78920226133E+02  0.15822116170E+03  0.12499338172E+03 0.  0.
          5    1    3    3  502    0  0.21227627820E+02 -0.27116923052E+02  0.53581676971E+02  0.63867251434E+02  0.47000000000E+01 0.  1.
         -5    1    3    3    0  502 -0.59752628164E+02  0.68323873845E+02  0.25338549162E+02  0.94353910271E+02  0.47000000000E+01 0.  1.
        -11    1    1    2    0    0  0.27260066394E+02  0.17977354033E+02  0.52644938741E+02  0.61949867254E+02  0.00000000000E+00 0.  1.
         11    1    1    2    0    0  0.11264933951E+02 -0.59184304826E+02  0.10139737468E+02  0.61094148252E+02  0.00000000000E+00 0. -1.
<mgrwt>
<rscale>  0 0.12852845E+03</rscale>
<asrwt>0</asrwt>
<pdfrwt beam="2">  1        2 0.10735406E-01 0.13713327E+03</pdfrwt>
<pdfrwt beam="1">  1       -2 0.32536160E-01 0.13713327E+03</pdfrwt>
<totfact> 0.49165345E+03</totfact>
</mgrwt>
</event>
<event>
 7    1  0.4230786E-006  0.1971246E+03  0.7546771E-02  0.1156849E+00
         -2   -1    0    0    0  501 -0.00000000000E+00  0.00000000000E+00  0.65056123386E+03  0.65056123386E+03  0.00000000000E+00 0. -1.
          2   -1    0    0  501    0  0.00000000000E+00 -0.00000000000E+00 -0.53693441957E+02  0.53693441957E+02  0.00000000000E+00 0.  1.
         23    2    1    2    0    0 -0.14590836179E+03 -0.44073642279E+02  0.31634943100E+03  0.37273996729E+03  0.12500553881E+03 0.  0.
          5    1    3    3  502    0 -0.60498177976E+02 -0.29760032410E+01  0.24916686232E+03  0.25646656978E+03  0.47000000000E+01 0. -1.
         -5    1    3    3    0  502 -0.85410183817E+02 -0.41097639038E+02  0.67182568683E+02  0.11627339751E+03  0.47000000000E+01 0. -1.
        -11    1    1    2    0    0  0.10683728313E+03  0.59521994525E+02  0.14529653700E+03  0.18991618300E+03  0.00000000000E+00 0.  1.
         11    1    1    2    0    0  0.39071078659E+02 -0.15448352246E+02  0.13522182390E+03  0.14159852553E+03  0.00000000000E+00 0. -1.
<mgrwt>
<rscale>  0 0.19179837E+03</rscale>
<asrwt>0</asrwt>
<pdfrwt beam="2">  1        2 0.82605300E-02 0.19712463E+03</pdfrwt>
<pdfrwt beam="1">  1       -2 0.10008634E+00 0.19712463E+03</pdfrwt>
<totfact> 0.69253822E+02</totfact>
</mgrwt>
</event>
<event>
 7    1  0.4230786E-006  0.1345855E+03  0.7546771E-02  0.1234805E+00
          1   -1    0    0  501    0  0.00000000000E+00  0.00000000000E+00  0.44448528281E+02  0.44448528281E+02  0.00000000000E+00 0. -1.
         -1   -1    0    0    0  501 -0.00000000000E+00 -0.00000000000E+00 -0.32313765015E+03  0.32313765015E+03  0.00000000000E+00 0.  1.
         23    2    1    2    0    0  0.11990517255E+01 -0.49881463429E+02 -0.19343839421E+03  0.23565158793E+03  0.12499464158E+03 0.  0.
          5    1    3    3  502    0 -0.43607468188E+02  0.17190058192E+02 -0.38219505666E+02  0.60662426556E+02  0.47000000000E+01 0.  1.
         -5    1    3    3    0  502  0.44806519913E+02 -0.67071521621E+02 -0.15521888854E+03  0.17498916138E+03  0.47000000000E+01 0.  1.
        -11    1    1    2    0    0 -0.26053572241E+02 -0.15690861937E+02 -0.22484374470E+02  0.37822465152E+02  0.00000000000E+00 0.  1.
         11    1    1    2    0    0  0.24854520515E+02  0.65572325366E+02 -0.62766353189E+02  0.94112125343E+02  0.00000000000E+00 0. -1.
<mgrwt>
<rscale>  0 0.12516946E+03</rscale>
<asrwt>0</asrwt>
<pdfrwt beam="1">  1        1 0.68382352E-02 0.13458551E+03</pdfrwt>
<pdfrwt beam="2">  1       -1 0.49713484E-01 0.13458551E+03</pdfrwt>
<totfact> 0.42841690E+03</totfact>
</mgrwt>
</event>
<event>
 7    1  0.4230786E-006  0.1409157E+03  0.7546771E-02  0.1223811E+00
         -2   -1    0    0    0  501 -0.00000000000E+00  0.00000000000E+00  0.65169380457E+03  0.65169380457E+03  0.00000000000E+00 0.  1.
          2   -1    0    0  501    0  0.00000000000E+00 -0.00000000000E+00 -0.32296948516E+02  0.32296948516E+02  0.00000000000E+00 0. -1.
         23    2    1    2    0    0 -0.12503261618E+02 -0.63868796522E+02  0.50870491401E+03  0.52786165680E+03  0.12498673713E+03 0.  0.
          5    1    3    3  502    0  0.16174201055E+02 -0.94344910977E+01  0.41630348913E+03  0.41675088418E+03  0.47000000000E+01 0. -1.
         -5    1    3    3    0  502 -0.28677462672E+02 -0.54434305424E+02  0.92401424884E+02  0.11111077262E+03  0.47000000000E+01 0. -1.
        -11    1    1    2    0    0 -0.10819413059E+02  0.16084657171E+02  0.10003965658E+03  0.10190048471E+03  0.00000000000E+00 0.  1.
         11    1    1    2    0    0  0.23322674677E+02  0.47784139351E+02  0.10652285458E+02  0.54228611572E+02  0.00000000000E+00 0. -1.
<mgrwt>
<rscale>  0 0.13248706E+03</rscale>
<asrwt>0</asrwt>
<pdfrwt beam="2">  1        2 0.49687618E-02 0.14091572E+03</pdfrwt>
<pdfrwt beam="1">  1       -2 0.10026058E+00 0.14091572E+03</pdfrwt>
<totfact> 0.13091865E+03</totfact>
</mgrwt>
</event>
<event>
 7    1  0.4230786E-006  0.1536103E+03  0.7546771E-02  0.1204405E+00
          2   -1    0    0  501    0  0.00000000000E+00  0.00000000000E+00  0.16309131205E+03  0.16309131205E+03  0.00000000000E+00 0.  1.
         -2   -1    0    0    0  501 -0.00000000000E+00 -0.00000000000E+00 -0.12318741264E+03  0.12318741264E+03  0.00000000000E+00 0. -1.
         23    2    1    2    0    0 -0.73945570010E+02  0.50030170320E+02  0.66409419822E+01  0.15375378367E+03  0.12500063447E+03 0.  0.
          5    1    3    3  502    0  0.78076010953E+01  0.44595602284E+02 -0.38918894320E+02  0.59887366890E+02  0.47000000000E+01 0. -1.
         -5    1    3    3    0  502 -0.81753171105E+02  0.54345680357E+01  0.45559836302E+02  0.93866416781E+02  0.47000000000E+01 0. -1.
        -11    1    1    2    0    0  0.53011452741E+02 -0.25298203480E+02 -0.26580233258E+02  0.64472645526E+02  0.00000000000E+00 0. -1.
         11    1    1    2    0    0  0.20934117269E+02 -0.24731966840E+02  0.59843190692E+02  0.68052295493E+02  0.00000000000E+00 0.  1.
<mgrwt>
<rscale>  0 0.14684434E+03</rscale>
<asrwt>0</asrwt>
<pdfrwt beam="1">  1        2 0.25090971E-01 0.15361030E+03</pdfrwt>
<pdfrwt beam="2">  1       -2 0.18951910E-01 0.15361030E+03</pdfrwt>
<totfact> 0.47583163E+03</totfact>
</mgrwt>
</event>
<event>
 7    1  0.4230786E-006  0.1751370E+03  0.7546771E-02  0.1178259E+00
         -1   -1    0    0    0  501 -0.00000000000E+00  0.00000000000E+00  0.78228790891E+03  0.78228790891E+03  0.00000000000E+00 0.  1.
          1   -1    0    0  501    0  0.00000000000E+00 -0.00000000000E+00 -0.39352560207E+02  0.39352560207E+02  0.00000000000E+00 0. -1.
         23    2    1    2    0    0  0.42891244324E+02  0.11492991313E+03  0.53450499973E+03  0.56246650588E+03  0.12499772689E+03 0.  0.
          5    1    3    3  502    0 -0.39078121348E+02  0.43574935571E+02  0.27292763380E+03  0.27917281005E+03  0.47000000000E+01 0. -1.
         -5    1    3    3    0  502  0.81969365671E+02  0.71354977557E+02  0.26157736593E+03  0.28329369583E+03  0.47000000000E+01 0. -1.
        -11    1    1    2    0    0 -0.51607448671E+02 -0.42231445099E+02  0.15437760940E+03  0.16816441359E+03  0.00000000000E+00 0.  1.
         11    1    1    2    0    0  0.87162043477E+01 -0.72698468028E+02  0.54052739566E+02  0.91009549645E+02  0.00000000000E+00 0. -1.
<mgrwt>
<rscale>  0 0.16960590E+03</rscale>
<asrwt>0</asrwt>
<pdfrwt beam="2">  1        1 0.60542406E-02 0.17513702E+03</pdfrwt>
<pdfrwt beam="1">  1       -1 0.12035197E+00 0.17513702E+03</pdfrwt>
<totfact> 0.83165669E+02</totfact>
</mgrwt>
</event>
<event>
 6    1  0.4230786E-006  0.4399101E+03  0.7546771E-02  0.1066369E+00
         -2   -1    0    0    0  501 -0.00000000000E+00  0.00000000000E+00  0.35436660997E+03  0.35436660997E+03  0.00000000000E+00 0.  1.
          2   -1    0    0  501    0  0.00000000000E+00 -0.00000000000E+00 -0.41829395257E+03  0.41829395257E+03  0.00000000000E+00 0. -1.
          5    1    1    2  502    0 -0.73895161798E+02  0.42579131004E+02 -0.13168004790E+03  0.15695605229E+03  0.47000000000E+01 0. -1.
         -5    1    1    2    0  502 -0.42991562670E+02  0.19251250691E+02  0.31680071984E+03  0.32031807817E+03  0.47000000000E+01 0.  1.
        -11    1    1    2    0    0  0.50165878234E+02 -0.39427902062E+02 -0.41214669829E+02  0.75959356297E+02  0.00000000000E+00 0.  1.
         11    1    1    2    0    0  0.66720846234E+02 -0.22402479634E+02 -0.20783334471E+03  0.21942707579E+03  0.00000000000E+00 0. -1.
<mgrwt>
<rscale>  0 0.34100349E+03</rscale>
<asrwt>0</asrwt>
<pdfrwt beam="2">  1        2 0.64352916E-01 0.43991014E+03</pdfrwt>
<pdfrwt beam="1">  1       -2 0.54517940E-01 0.43991014E+03</pdfrwt>
<totfact> 0.24447707E+02</totfact>
</mgrwt>
</event>
<event>
 7    1  0.4230786E-006  0.1620288E+03  0.7546771E-02  0.1191917E+00
         -2   -1    0    0    0  501 -0.00000000000E+00  0.00000000000E+00  0.31429269218E+02  0.31429269218E+02  0.00000000000E+00 0.  1.
          2   -1    0    0  501    0  0.00000000000E+00 -0.00000000000E+00 -0.74933071697E+03  0.74933071697E+03  0.00000000000E+00 0. -1.
         23    2    1    2    0    0 -0.10271324537E+03 -0.88176715050E+01 -0.34327244325E+03  0.37959095306E+03  0.12500223694E+03 0.  0.
          5    1    3    3  502    0 -0.11176928582E+03  0.46346535488E+01 -0.15854734883E+03  0.19409586571E+03  0.47000000000E+01 0.  1.
         -5    1    3    3    0  502  0.90560404533E+01 -0.13452325054E+02 -0.18472509443E+03  0.18549508734E+03  0.47000000000E+01 0.  1.
        -11    1    1    2    0    0  0.43864058416E+01  0.12160768842E+02  0.90705128301E+00  0.12959459752E+02  0.00000000000E+00 0.  1.
         11    1    1    2    0    0  0.98326839528E+02 -0.33430973367E+01 -0.37553605578E+03  0.38820957338E+03  0.00000000000E+00 0. -1.
<mgrwt>
<rscale>  0 0.15718111E+03</rscale>
<asrwt>0</asrwt>
<pdfrwt beam="2">  1        2 0.11528165E+00 0.16202877E+03</pdfrwt>
<pdfrwt beam="1">  1       -2 0.48352721E-02 0.16202877E+03</pdfrwt>
<totfact> 0.77246016E+03</totfact>
</mgrwt>
</event>
<event>
 7    1  0.4230786E-006  0.2781974E+03  0.7546771E-02  0.1098586E+00
         -2   -1    0    0    0  501 -0.00000000000E+00  0.00000000000E+00  0.54473903585E+03  0.54473903585E+03  0.00000000000E+00 0.  1.
          2   -1    0    0  501    0  0.00000000000E+00 -0.00000000000E+00 -0.13804694588E+03  0.13804694588E+03  0.00000000000E+00 0. -1.
         23    2    1    2    0    0  0.89846731923E+01 -0.24836965657E+03  0.15985216120E+03  0.32085274132E+03  0.12500223004E+03 0.  0.
          5    1    3    3  502    0  0.83774070205E+01 -0.15282638941E+03  0.24450120266E+02  0.15506767758E+03  0.47000000000E+01 0.  1.
         -5    1    3    3    0  502  0.60726617178E+00 -0.95543267163E+02  0.13540204093E+03  0.16578506374E+03  0.47000000000E+01 0.  1.
        -11    1    1    2    0    0 -0.12744591749E+02  0.14465029058E+03  0.80945382133E+02  0.16624766487E+03  0.00000000000E+00 0. -1.
         11    1    1    2    0    0  0.37599185568E+01  0.10371936599E+03  0.16589454665E+03  0.19568557554E+03  0.00000000000E+00 0.  1.
<mgrwt>
<rscale>  0 0.27475964E+03</rscale>
<asrwt>0</asrwt>
<pdfrwt beam="2">  1        2 0.21237992E-01 0.27819735E+03</pdfrwt>
<pdfrwt beam="1">  1       -2 0.83806004E-01 0.27819735E+03</pdfrwt>
<totfact> 0.33381504E+02</totfact>
</mgrwt>
</event>
<event>
 7    1  0.4230786E-006  0.1425998E+03  0.7546771E-02  0.1220197E+00
         -2   -1    0    0    0  501 -0.00000000000E+00  0.00000000000E+00  0.71285487434E+03  0.71285487434E+03  0.00000000000E+00 0. -1.
          2   -1    0    0  501    0  0.00000000000E+00 -0.00000000000E+00 -0.24719007969E+02  0.24719007969E+02  0.00000000000E+00 0.  1.
         23    2    1    2    0    0  0.65849846809E+02  0.19345770904E+02  0.47014766198E+03  0.49129779424E+03  0.12499694951E+03 0.  0.
          5    1    3    3  502    0  0.32387782793E+02  0.65023391932E+02  0.36079394081E+03  0.36806435266E+03  0.47000000000E+01 0. -1.
         -5    1    3    3    0  502  0.33462064016E+02 -0.45677621029E+02  0.10935372116E+03  0.12323344158E+03  0.47000000000E+01 0. -1.
        -11    1    1    2    0    0  0.19885912113E+02  0.65044982882E+00  0.14681761553E+02  0.24727044058E+02  0.00000000000E+00 0.  1.
         11    1    1    2    0    0 -0.85735758922E+02 -0.19996220732E+02  0.20330644284E+03  0.22154904401E+03  0.00000000000E+00 0. -1.
<mgrwt>
<rscale>  0 0.13501589E+03</rscale>
<asrwt>0</asrwt>
<pdfrwt beam="2">  1        2 0.38029248E-02 0.14259978E+03</pdfrwt>
<pdfrwt beam="1">  1       -2 0.10966996E+00 0.14259978E+03</pdfrwt>
<totfact> 0.15121525E+03</totfact>
</mgrwt>
</event>
<event>
 7    1  0.4230786E-006  0.1909637E+03  0.7546771E-02  0.1162474E+00
         -2   -1    0    0    0  501 -0.00000000000E+00  0.00000000000E+00  0.13297951545E+03  0.13297951545E+03  0.00000000000E+00 0.  1.
          2   -1    0    0  501    0  0.00000000000E+00 -0.00000000000E+00 -0.25048359146E+03  0.25048359146E+03  0.00000000000E+00 0. -1.
         23    2    1    2    0    0  0.26669045054E+02  0.14188208321E+03 -0.35239221797E+02  0.19418789674E+03  0.12500149194E+03 0.  0.
          5    1    3    3  502    0 -0.22054344265E+02 -0.29445499876E+01  0.21333111577E+02  0.31181021874E+02  0.47000000000E+01 0. -1.
         -5    1    3    3    0  502  0.48723389319E+02  0.14482663320E+03 -0.56572333374E+02  0.16300687487E+03  0.47000000000E+01 0. -1.
        -11    1    1    2    0    0  0.19078206511E+02 -0.16537142080E+02  0.98866578414E+01  0.27114590816E+02  0.00000000000E+00 0.  1.
         11    1    1    2    0    0 -0.45747251565E+02 -0.12534494113E+03 -0.92151512053E+02  0.16216061935E+03  0.00000000000E+00 0. -1.
<mgrwt>
<rscale>  0 0.18561821E+03</rscale>
<asrwt>0</asrwt>
<pdfrwt beam="2">  1        2 0.38535937E-01 0.19096370E+03</pdfrwt>
<pdfrwt beam="1">  1       -2 0.20458387E-01 0.19096370E+03</pdfrwt>
<totfact> 0.26466233E+03</totfact>
</mgrwt>
</event>
<event>
 7    1  0.4230786E-006  0.1316711E+03  0.7546771E-02  0.1237577E+00
          1   -1    0    0  501    0  0.00000000000E+00  0.00000000000E+00  0.85341747980E+02  0.85341747980E+02  0.00000000000E+00 0. -1.
         -1   -1    0    0    0  501 -0.00000000000E+00 -0.00000000000E+00 -0.17291441334E+03  0.17291441334E+03  0.00000000000E+00 0.  1.
         23    2    1    2    0    0  0.24188241255E+02 -0.33496083403E+02 -0.84795686361E+02  0.15661282507E+03  0.12502083799E+03 0.  0.
          5    1    3    3  502    0  0.29069474535E+02 -0.71484386414E+02 -0.88891095894E+02  0.11780818639E+03  0.47000000000E+01 0. -1.
         -5    1    3    3    0  502 -0.48812332805E+01  0.37988303011E+02  0.40954095331E+01  0.38804638682E+02  0.47000000000E+01 0. -1.
        -11    1    1    2    0    0  0.13860370396E+02  0.28404539763E+02 -0.38082026368E+02  0.49489074339E+02  0.00000000000E+00 0.  1.
         11    1    1    2    0    0 -0.38048611651E+02  0.50915436407E+01  0.35305047373E+02  0.52154261908E+02  0.00000000000E+00 0. -1.
<mgrwt>
<rscale>  0 0.12340903E+03</rscale>
<asrwt>0</asrwt>
<pdfrwt beam="1">  1        1 0.13129500E-01 0.13167106E+03</pdfrwt>
<pdfrwt beam="2">  1       -1 0.26602217E-01 0.13167106E+03</pdfrwt>
<totfact> 0.53044406E+03</totfact>
</mgrwt>
</event>
<event>
 7    1  0.4230786E-006  0.1301442E+03  0.7546771E-02  0.1240510E+00
          2   -1    0    0  501    0  0.00000000000E+00  0.00000000000E+00  0.39673846939E+03  0.39673846939E+03  0.00000000000E+00 0.  1.
         -2   -1    0    0    0  501 -0.00000000000E+00 -0.00000000000E+00 -0.33235588468E+02  0.33235588468E+02  0.00000000000E+00 0. -1.
         23    2    1    2    0    0  0.28517344078E+02  0.22376581672E+02  0.19391324799E+03  0.23353769771E+03  0.12499423261E+03 0.  0.
          5    1    3    3  502    0 -0.47553902944E+01  0.84241212539E+00 -0.17310725604E+02  0.18576184107E+02  0.47000000000E+01 0. -1.
         -5    1    3    3    0  502  0.33272734373E+02  0.21534169546E+02  0.21122397360E+03  0.21496151361E+03  0.47000000000E+01 0. -1.
        -11    1    1    2    0    0 -0.16296019024E+02 -0.53231955505E+02  0.14443694958E+03  0.15479416568E+03  0.00000000000E+00 0.  1.
         11    1    1    2    0    0 -0.12221325054E+02  0.30855373834E+02  0.25152683351E+02  0.41642194470E+02  0.00000000000E+00 0. -1.
<mgrwt>
<rscale>  0 0.12158192E+03</rscale>
<asrwt>0</asrwt>
<pdfrwt beam="1">  1        2 0.61036684E-01 0.13014418E+03</pdfrwt>
<pdfrwt beam="2">  1       -2 0.51131677E-02 0.13014418E+03</pdfrwt>
<totfact> 0.14326674E+04</totfact>
</mgrwt>
</event>
<event>
 7    1  0.4230786E-006  0.1152405E+03  0.7546771E-02  0.1258931E+00
          2   -1    0    0  501    0  0.00000000000E+00  0.00000000000E+00  0.11625804178E+03  0.11625804178E+03  0.00000000000E+00 0. -1.
         -2   -1    0    0    0  501 -0.00000000000E+00 -0.00000000000E+00 -0.16036401736E+03  0.16036401736E+03  0.00000000000E+00 0.  1.
         23    2    1    2    0    0 -0.19992697941E+02  0.25160038641E+02 -0.10883258205E+03  0.15850837055E+03  0.11066904311E+03 0.  0.
          5    1    3    3  502    0 -0.19010009940E+02 -0.19522994297E+02  0.11583212368E+02  0.29979803085E+02  0.47000000000E+01 0. -1.
         -5    1    3    3    0  502 -0.98268800094E+00  0.44683032939E+02 -0.12041579442E+03  0.12852856746E+03  0.47000000000E+01 0.  1.
        -11    1    1    2    0    0 -0.22947007772E+01  0.31835373699E+02  0.42178101278E+02  0.52893751026E+02  0.00000000000E+00 0.  1.
         11    1    1    2    0    0  0.22287398718E+02 -0.56995412340E+02  0.22548505203E+02  0.65219937568E+02  0.00000000000E+00 0. -1.
<mgrwt>
<rscale>  0 0.11088999E+03</rscale>
<asrwt>0</asrwt>
<pdfrwt beam="1">  1        2 0.17885853E-01 0.11524050E+03</pdfrwt>
<pdfrwt beam="2">  1       -2 0.24671387E-01 0.11524050E+03</pdfrwt>
<totfact> 0.43540898E+03</totfact>
</mgrwt>
</event>
<event>
 6    1  0.4230786E-006  0.2573881E+03  0.7546771E-02  0.1124822E+00
          2   -1    0    0  501    0  0.00000000000E+00  0.00000000000E+00  0.16997202150E+03  0.16997202150E+03  0.00000000000E+00 0. -1.
         -2   -1    0    0    0  501 -0.00000000000E+00 -0.00000000000E+00 -0.27629255787E+03  0.27629255787E+03  0.00000000000E+00 0.  1.
          5    1    1    2  502    0  0.96218339572E+00  0.11683171672E+03  0.42590086732E+02  0.12444509358E+03  0.47000000000E+01 0. -1.
         -5    1    1    2    0  502 -0.57831714153E+02  0.16111098789E+02 -0.13710757945E+03  0.14974863274E+03  0.47000000000E+01 0.  1.
        -11    1    1    2    0    0 -0.24479976022E+02 -0.35804189435E+02 -0.13276081874E+02  0.45359272008E+02  0.00000000000E+00 0.  1.
         11    1    1    2    0    0  0.81349506779E+02 -0.97138626072E+02  0.14730382277E+01  0.12671158104E+03  0.00000000000E+00 0. -1.
<mgrwt>
<rscale>  0 0.23260132E+03</rscale>
<asrwt>0</asrwt>
<pdfrwt beam="1">  1        2 0.26149542E-01 0.25738812E+03</pdfrwt>
<pdfrwt beam="2">  1       -2 0.42506547E-01 0.25738812E+03</pdfrwt>
<totfact> 0.10820450E+03</totfact>
</mgrwt>
</event>
<event>
 7    1  0.4230786E-006  0.1788162E+03  0.7546771E-02  0.1175393E+00
          2   -1    0    0  501    0  0.00000000000E+00  0.00000000000E+00  0.18125320403E+03  0.18125320403E+03  0.00000000000E+00 0. -1.
         -2   -1    0    0    0  501 -0.00000000000E+00 -0.00000000000E+00 -0.21517962685E+03  0.21517962685E+03  0.00000000000E+00 0.  1.
         23    2    1    2    0    0  0.10836971422E+03 -0.67894102301E+02 -0.12406278830E+03  0.21763919554E+03  0.12498655891E+03 0.  0.
          5    1    3    3  502    0 -0.65636077891E+01 -0.21616860958E+02 -0.84343936313E+02  0.87443462978E+02  0.47000000000E+01 0. -1.
         -5    1    3    3    0  502  0.11493332200E+03 -0.46277241342E+02 -0.39718851984E+02  0.13019573256E+03  0.47000000000E+01 0. -1.
        -11    1    1    2    0    0 -0.47934431710E+02  0.64966886533E+02  0.86281651609E+02  0.11816484034E+03  0.00000000000E+00 0. -1.
         11    1    1    2    0    0 -0.60435282506E+02  0.29272157679E+01  0.38547138661E+01  0.60628794996E+02  0.00000000000E+00 0.  1.
<mgrwt>
<rscale>  0 0.17237505E+03</rscale>
<asrwt>0</asrwt>
<pdfrwt beam="1">  1        2 0.27885108E-01 0.17881623E+03</pdfrwt>
<pdfrwt beam="2">  1       -2 0.33104558E-01 0.17881623E+03</pdfrwt>
<totfact> 0.16003089E+03</totfact>
</mgrwt>
</event>
<event>
 7    1  0.4230786E-006  0.1260113E+03  0.7546771E-02  0.1248738E+00
          1   -1    0    0  501    0  0.00000000000E+00  0.00000000000E+00  0.59774351260E+02  0.59774351260E+02  0.00000000000E+00 0. -1.
         -1   -1    0    0    0  501 -0.00000000000E+00 -0.00000000000E+00 -0.19973390698E+03  0.19973390698E+03  0.00000000000E+00 0.  1.
         23    2    1    2    0    0  0.80542137583E+01 -0.13663776001E+02 -0.80022597700E+02  0.14927315624E+03  0.12500915925E+03 0.  0.
          5    1    3    3  502    0  0.52040849801E+02  0.30834274949E+02 -0.24302757473E+02  0.65358370393E+02  0.47000000000E+01 0. -1.
         -5    1    3    3    0  502 -0.43986636043E+02 -0.44498050949E+02 -0.55719840228E+02  0.83914785847E+02  0.47000000000E+01 0. -1.
        -11    1    1    2    0    0  0.14836718891E+02  0.30639461720E+02 -0.71725723003E+02  0.79394484583E+02  0.00000000000E+00 0.  1.
         11    1    1    2    0    0 -0.22890932649E+02 -0.16975685719E+02  0.11788764979E+02  0.30840617421E+02  0.00000000000E+00 0. -1.
<mgrwt>
<rscale>  0 0.11664396E+03</rscale>
<asrwt>0</asrwt>
<pdfrwt beam="1">  1        1 0.91960541E-02 0.12601134E+03</pdfrwt>
<pdfrwt beam="2">  1       -1 0.30728293E-01 0.12601134E+03</pdfrwt>
<totfact> 0.66445087E+03</totfact>
</mgrwt>
</event>
<event>
 7    1  0.4230786E-006  0.1798293E+03  0.7546771E-02  0.1173582E+00
          2   -1    0    0  501    0  0.00000000000E+00  0.00000000000E+00  0.19063532439E+03  0.19063532439E+03  0.00000000000E+00 0. -1.
         -2   -1    0    0    0  501 -0.00000000000E+00 -0.00000000000E+00 -0.15110647716E+03  0.15110647716E+03  0.00000000000E+00 0.  1.
         23    2    1    2    0    0 -0.82913885873E+02 -0.99198035559E+02  0.53815279279E+01  0.17990975684E+03  0.12499438801E+03 0.  0.
          5    1    3    3  502    0  0.10091178448E+02  0.12217157112E+02 -0.26510439626E+02  0.31240746143E+02  0.47000000000E+01 0. -1.
         -5    1    3    3    0  502 -0.93005064321E+02 -0.11141519267E+03  0.31891967554E+02  0.14866901070E+03  0.47000000000E+01 0. -1.
        -11    1    1    2    0    0  0.75741489866E+02  0.11045461325E+03  0.48305484883E+02  0.14237420674E+03  0.00000000000E+00 0. -1.
         11    1    1    2    0    0  0.71723960070E+01 -0.11256577691E+02 -0.14158165581E+02  0.19457837968E+02  0.00000000000E+00 0.  1.
<mgrwt>
<rscale>  0 0.17415619E+03</rscale>
<asrwt>0</asrwt>
<pdfrwt beam="1">  1        2 0.29328511E-01 0.17982925E+03</pdfrwt>
<pdfrwt beam="2">  1       -2 0.23247150E-01 0.17982925E+03</pdfrwt>
<totfact> 0.28479427E+03</totfact>
</mgrwt>
</event>
<event>
 7    1  0.4230786E-006  0.1319535E+03  0.7546771E-02  0.1237175E+00
          1   -1    0    0  501    0  0.00000000000E+00  0.00000000000E+00  0.18344901448E+03  0.18344901448E+03  0.00000000000E+00 0. -1.
         -1   -1    0    0    0  501 -0.00000000000E+00 -0.00000000000E+00 -0.75403260057E+02  0.75403260057E+02  0.00000000000E+00 0.  1.
         23    2    1    2    0    0  0.21948373124E+01 -0.42217662039E+02  0.46500095241E+02  0.13990703326E+03  0.12499828318E+03 0.  0.
          5    1    3    3  502    0  0.30882567587E+02  0.29615874653E+02 -0.97686406410E+01  0.44140110469E+02  0.47000000000E+01 0. -1.
         -5    1    3    3    0  502 -0.28687730275E+02 -0.71833536693E+02  0.56268735882E+02  0.95766922786E+02  0.47000000000E+01 0. -1.
        -11    1    1    2    0    0  0.86188213028E+00  0.23744538444E+02 -0.22569732651E+02  0.32771005152E+02  0.00000000000E+00 0.  1.
         11    1    1    2    0    0 -0.30567194427E+01  0.18473123595E+02  0.84115391834E+02  0.86174236129E+02  0.00000000000E+00 0. -1.
<mgrwt>
<rscale>  0 0.12366196E+03</rscale>
<asrwt>0</asrwt>
<pdfrwt beam="1">  1        1 0.28222925E-01 0.13195347E+03</pdfrwt>
<pdfrwt beam="2">  1       -1 0.11600502E-01 0.13195347E+03</pdfrwt>
<totfact> 0.74841149E+03</totfact>
</mgrwt>
</event>
<event>
 7    1  0.4230786E-006  0.1367585E+03  0.7546771E-02  0.1232874E+00
          1   -1    0    0  501    0  0.00000000000E+00  0.00000000000E+00  0.15854113233E+02  0.15854113233E+02  0.00000000000E+00 0. -1.
         -1   -1    0    0    0  501 -0.00000000000E+00 -0.00000000000E+00 -0.10762400746E+04  0.10762400746E+04  0.00000000000E+00 0.  1.
         23    2    1    2    0    0 -0.83150311196E+01  0.54841921576E+02 -0.82723368498E+03  0.83846196371E+03  0.12500447559E+03 0.  0.
          5    1    3    3  502    0 -0.45925546997E+02 -0.21926770100E+02 -0.31841045397E+03  0.32248604050E+03  0.47000000000E+01 0. -1.
         -5    1    3    3    0  502  0.37610515878E+02  0.76768691677E+02 -0.50882323101E+03  0.51597592322E+03  0.47000000000E+01 0. -1.
        -11    1    1    2    0    0  0.10447201399E+01 -0.61811514556E+02 -0.23534149731E+03  0.24332565654E+03  0.00000000000E+00 0.  1.
         11    1    1    2    0    0  0.72703109797E+01  0.69695929800E+01  0.21892208895E+01  0.10306567622E+02  0.00000000000E+00 0. -1.
<mgrwt>
<rscale>  0 0.12641512E+03</rscale>
<asrwt>0</asrwt>
<pdfrwt beam="1">  1        1 0.24390941E-02 0.13675853E+03</pdfrwt>
<pdfrwt beam="2">  1       -1 0.16557542E+00 0.13675853E+03</pdfrwt>
<totfact> 0.12924283E+03</totfact>
</mgrwt>
</event>
<event>
 7    1  0.4230786E-006  0.1297562E+03  0.7546771E-02  0.1240669E+00
          2   -1    0    0  501    0  0.00000000000E+00  0.00000000000E+00  0.43257503864E+02  0.43257503864E+02  0.00000000000E+00 0. -1.
         -2   -1    0    0    0  501 -0.00000000000E+00 -0.00000000000E+00 -0.31012072877E+03  0.31012072877E+03  0.00000000000E+00 0.  1.
         23    2    1    2    0    0  0.33740750271E+02  0.86118426760E+01 -0.17462656121E+03  0.21755714035E+03  0.12499628545E+03 0.  0.
          5    1    3    3  502    0  0.11010227172E+01 -0.45677444821E+02 -0.13521617005E+03  0.14280456526E+03  0.47000000000E+01 0. -1.
         -5    1    3    3    0  502  0.32639727554E+02  0.54289287497E+02 -0.39410391167E+02  0.74752575097E+02  0.47000000000E+01 0. -1.
        -11    1    1    2    0    0  0.21866143964E+02  0.71816068612E+01 -0.70335091776E+02  0.74004924594E+02  0.00000000000E+00 0.  1.
         11    1    1    2    0    0 -0.55606894236E+02 -0.15793449537E+02 -0.21901571916E+02  0.61816167685E+02  0.00000000000E+00 0. -1.
<mgrwt>
<rscale>  0 0.12148373E+03</rscale>
<asrwt>0</asrwt>
<pdfrwt beam="1">  1        2 0.66550006E-02 0.12975621E+03</pdfrwt>
<pdfrwt beam="2">  1       -2 0.47710881E-01 0.12975621E+03</pdfrwt>
<totfact> 0.43169402E+03</totfact>
</mgrwt>
</event>
<event>
 7    1  0.4230786E-006  0.1310996E+03  0.7546771E-02  0.1239190E+00
         -1   -1    0    0    0  501 -0.00000000000E+00  0.00000000000E+00  0.48343711841E+02  0.48343711841E+02  0.00000000000E+00 0. -1.
          1   -1    0    0  501    0  0.00000000000E+00 -0.00000000000E+00 -0.29850987963E+03  0.29850987963E+03  0.00000000000E+00 0.  1.
         23    2    1    2    0    0  0.38702769877E+02 -0.79616226800E+01 -0.92841020738E+02  0.16064416465E+03  0.12500320265E+03 0.  0.
          5    1    3    3  502    0  0.39284914655E+02  0.51412528175E+02 -0.22945742210E+02  0.68812423721E+02  0.47000000000E+01 0.  1.
         -5    1    3    3    0  502 -0.58214477817E+00 -0.59374150855E+02 -0.69895278528E+02  0.91831740933E+02  0.47000000000E+01 0.  1.
        -11    1    1    2    0    0  0.24071624322E+02  0.11110759888E+02 -0.14620508924E+02  0.30276250824E+02  0.00000000000E+00 0. -1.
         11    1    1    2    0    0 -0.62774394199E+02 -0.31491372084E+01 -0.14270463813E+03  0.15593317599E+03  0.00000000000E+00 0.  1.
<mgrwt>
<rscale>  0 0.12239957E+03</rscale>
<asrwt>0</asrwt>
<pdfrwt beam="2">  1        1 0.45924597E-01 0.13109955E+03</pdfrwt>
<pdfrwt beam="1">  1       -1 0.74374941E-02 0.13109955E+03</pdfrwt>
<totfact> 0.80447937E+03</totfact>
</mgrwt>
</event>
<event>
 7    1  0.4230786E-006  0.4145834E+03  0.7546771E-02  0.1038844E+00
          1   -1    0    0  501    0  0.00000000000E+00  0.00000000000E+00  0.22633478124E+03  0.22633478124E+03  0.00000000000E+00 0. -1.
         -1   -1    0    0    0  501 -0.00000000000E+00 -0.00000000000E+00 -0.18985081083E+03  0.18985081083E+03  0.00000000000E+00 0.  1.
         23    2    1    2    0    0 -0.14458136342E+02 -0.40547539156E+02 -0.14286546653E+03  0.18717691436E+03  0.11301112823E+03 0.  0.
          5    1    3    3  502    0  0.30473224403E+02  0.25518171791E+02 -0.37370993149E+02  0.54758338415E+02  0.47000000000E+01 0. -1.
         -5    1    3    3    0  502 -0.44931360745E+02 -0.66065710948E+02 -0.10549447338E+03  0.13241857594E+03  0.47000000000E+01 0.  1.
        -11    1    1    2    0    0 -0.60603406917E+02  0.23081024740E+02  0.91431225548E+02  0.11209449424E+03  0.00000000000E+00 0.  1.
         11    1    1    2    0    0  0.75061543259E+02  0.17466514416E+02  0.87918211396E+02  0.11691418347E+03  0.00000000000E+00 0. -1.
<mgrwt>
<rscale>  0 0.41458337E+03</rscale>
<asrwt>0</asrwt>
<pdfrwt beam="1">  1        1 0.34820736E-01 0.41458337E+03</pdfrwt>
<pdfrwt beam="2">  1       -1 0.29207817E-01 0.41458337E+03</pdfrwt>
<totfact> 0.13471942E+03</totfact>
</mgrwt>
</event>
<event>
 7    1  0.4230786E-006  0.1541093E+03  0.7546771E-02  0.1203660E+00
         -1   -1    0    0    0  501 -0.00000000000E+00  0.00000000000E+00  0.16703558114E+03  0.16703558114E+03  0.00000000000E+00 0.  1.
          1   -1    0    0  501    0  0.00000000000E+00 -0.00000000000E+00 -0.14359331120E+03  0.14359331120E+03  0.00000000000E+00 0. -1.
         23    2    1    2    0    0  0.71809903238E+02  0.54483509381E+02  0.75278033665E+02  0.17151224646E+03  0.12499821333E+03 0.  0.
          5    1    3    3  502    0  0.68662556645E+02  0.62349235682E+02 -0.27289419757E+01  0.92905925535E+02  0.47000000000E+01 0. -1.
         -5    1    3    3    0  502  0.31473465937E+01 -0.78657263014E+01  0.78006975641E+02  0.78606320926E+02  0.47000000000E+01 0. -1.
        -11    1    1    2    0    0 -0.26868502194E+02  0.22170754741E+01  0.22697570670E+02  0.35242184213E+02  0.00000000000E+00 0.  1.
         11    1    1    2    0    0 -0.44941401044E+02 -0.56700584855E+02 -0.74533334390E+02  0.10387446166E+03  0.00000000000E+00 0. -1.
<mgrwt>
<rscale>  0 0.14743552E+03</rscale>
<asrwt>0</asrwt>
<pdfrwt beam="2">  1        1 0.22091279E-01 0.15410927E+03</pdfrwt>
<pdfrwt beam="1">  1       -1 0.25697782E-01 0.15410927E+03</pdfrwt>
<totfact> 0.29020172E+03</totfact>
</mgrwt>
</event>
<event>
 7    1  0.4230786E-006  0.1535418E+03  0.7546771E-02  0.1204567E+00
         -2   -1    0    0    0  501 -0.00000000000E+00  0.00000000000E+00  0.12125870743E+03  0.12125870743E+03  0.00000000000E+00 0.  1.
          2   -1    0    0  501    0  0.00000000000E+00 -0.00000000000E+00 -0.17646921543E+03  0.17646921543E+03  0.00000000000E+00 0. -1.
         23    2    1    2    0    0  0.74257555686E+02 -0.49349795785E+02  0.10385034269E+02  0.15389259084E+03  0.12500197462E+03 0.  0.
          5    1    3    3  502    0 -0.28725412922E+02 -0.33417650203E+02 -0.14541835729E+02  0.46641651761E+02  0.47000000000E+01 0. -1.
         -5    1    3    3    0  502  0.10298296861E+03 -0.15932145583E+02  0.24926869998E+02  0.10725093908E+03  0.47000000000E+01 0. -1.
        -11    1    1    2    0    0  0.33649947093E+01  0.45015872058E+02 -0.53022930840E+01  0.45451801268E+02  0.00000000000E+00 0.  1.
         11    1    1    2    0    0 -0.77622550396E+02  0.43339237270E+01 -0.60293249184E+02  0.98383530745E+02  0.00000000000E+00 0. -1.
<mgrwt>
<rscale>  0 0.14671634E+03</rscale>
<asrwt>0</asrwt>
<pdfrwt beam="2">  1        2 0.27149110E-01 0.15354179E+03</pdfrwt>
<pdfrwt beam="1">  1       -2 0.18655186E-01 0.15354179E+03</pdfrwt>
<totfact> 0.44795433E+03</totfact>
</mgrwt>
</event>
<event>
 7    1  0.4230786E-006  0.1379355E+03  0.7546771E-02  0.1228408E+00
          1   -1    0    0  501    0  0.00000000000E+00  0.00000000000E+00  0.83249260408E+02  0.83249260408E+02  0.00000000000E+00 0. -1.
         -1   -1    0    0    0  501 -0.00000000000E+00 -0.00000000000E+00 -0.19949712610E+03  0.19949712610E+03  0.00000000000E+00 0.  1.
         23    2    1    2    0    0 -0.58073482927E+02  0.54047533107E+01 -0.10898630598E+03  0.17579594537E+03  0.12499783494E+03 0.  0.
          5    1    3    3  502    0 -0.81856049494E+02 -0.36305376260E+02 -0.72376909808E+02  0.11523454455E+03  0.47000000000E+01 0. -1.
         -5    1    3    3    0  502  0.23782566566E+02  0.41710129571E+02 -0.36609396168E+02  0.60561400818E+02  0.47000000000E+01 0. -1.
        -11    1    1    2    0    0  0.47557310492E+01 -0.18500409972E+02  0.33505042718E+02  0.38567733074E+02  0.00000000000E+00 0. -1.
         11    1    1    2    0    0  0.53317751878E+02  0.13095656661E+02 -0.40766602437E+02  0.68382708070E+02  0.00000000000E+00 0.  1.
<mgrwt>
<rscale>  0 0.12936054E+03</rscale>
<asrwt>0</asrwt>
<pdfrwt beam="1">  1        1 0.12807579E-01 0.13793549E+03</pdfrwt>
<pdfrwt beam="2">  1       -1 0.30691866E-01 0.13793549E+03</pdfrwt>
<totfact> 0.43282720E+03</totfact>
</mgrwt>
</event>
<event>
 7    1  0.4726262E-006  0.1475497E+03  0.7546771E-02  0.1213165E+00
          1   -1    0    0  501    0  0.00000000000E+00  0.00000000000E+00  0.25818418906E+03  0.25818418906E+03  0.00000000000E+00 0. -1.
         -1   -1    0    0    0  501 -0.00000000000E+00 -0.00000000000E+00 -0.78003356580E+02  0.78003356580E+02  0.00000000000E+00 0.  1.
         23    2    1    2    0    0 -0.78077194030E+02 -0.70519151797E+01  0.42504241972E+02  0.15354979410E+03  0.12500060379E+03 0.  0.
          5    1    3    3  502    0 -0.47049351739E+02  0.54796522816E+02  0.32722598497E+00  0.72377465337E+02  0.47000000000E+01 0.  1.
         -5    1    3    3    0  502 -0.31027842291E+02 -0.61848437996E+02  0.42177015987E+02  0.81172328766E+02  0.47000000000E+01 0.  1.
        -11    1    1    2    0    0  0.67413428336E+02 -0.10508103151E+02  0.32680395832E+02  0.75650504450E+02  0.00000000000E+00 0.  1.
         11    1    1    2    0    0  0.10663765694E+02  0.17560018331E+02  0.10499619468E+03  0.10698724709E+03  0.00000000000E+00 0. -1.
<mgrwt>
<rscale>  0 0.14012176E+03</rscale>
<asrwt>0</asrwt>
<pdfrwt beam="1">  1        1 0.39720644E-01 0.14754975E+03</pdfrwt>
<pdfrwt beam="2">  1       -1 0.12000516E-01 0.14754975E+03</pdfrwt>
<totfact> 0.46800096E+03</totfact>
</mgrwt>
</event>
<event>
 7    1  0.4230786E-006  0.2143802E+03  0.7546771E-02  0.1141689E+00
         -3   -1    0    0    0  501 -0.00000000000E+00  0.00000000000E+00  0.97350953583E+02  0.97350953583E+02  0.00000000000E+00 0. -1.
          3   -1    0    0  501    0  0.00000000000E+00 -0.00000000000E+00 -0.62716115345E+03  0.62716115345E+03  0.00000000000E+00 0.  1.
         23    2    1    2    0    0  0.17405603308E+03  0.61834295735E+01 -0.71926214825E+02  0.22612442790E+03  0.12500055624E+03 0.  0.
          5    1    3    3  502    0  0.10893353033E+03  0.58244979069E+02 -0.13811678486E+02  0.12438586768E+03  0.47000000000E+01 0. -1.
         -5    1    3    3    0  502  0.65122502752E+02 -0.52061549496E+02 -0.58114536339E+02  0.10173856021E+03  0.47000000000E+01 0. -1.
        -11    1    1    2    0    0 -0.12758983993E+03  0.35563616528E+02 -0.34175197244E+03  0.36652196215E+03  0.00000000000E+00 0.  1.
         11    1    1    2    0    0 -0.46466193156E+02 -0.41747046101E+02 -0.11613201261E+03  0.13186571699E+03  0.00000000000E+00 0. -1.
<mgrwt>
<rscale>  0 0.20984471E+03</rscale>
<asrwt>0</asrwt>
<pdfrwt beam="2">  1        3 0.96486330E-01 0.21438021E+03</pdfrwt>
<pdfrwt beam="1">  1       -3 0.14977070E-01 0.21438021E+03</pdfrwt>
<totfact> 0.89946886E+01</totfact>
</mgrwt>
</event>
<event>
 7    1  0.4230786E-006  0.2132263E+03  0.7546771E-02  0.1142418E+00
          2   -1    0    0  501    0  0.00000000000E+00  0.00000000000E+00  0.17389488565E+04  0.17389488565E+04  0.00000000000E+00 0. -1.
         -2   -1    0    0    0  501 -0.00000000000E+00 -0.00000000000E+00 -0.24214584319E+02  0.24214584319E+02  0.00000000000E+00 0.  1.
         23    2    1    2    0    0  0.94076934395E+02 -0.14487980374E+03  0.94110788087E+03  0.96496087891E+03  0.12499930916E+03 0.  0.
          5    1    3    3  502    0  0.67206672113E+02 -0.34343211625E+02  0.61330155524E+03  0.61794585573E+03  0.47000000000E+01 0. -1.
         -5    1    3    3    0  502  0.26870262282E+02 -0.11053659211E+03  0.32780632563E+03  0.34701502318E+03  0.47000000000E+01 0. -1.
        -11    1    1    2    0    0 -0.34741286921E+02  0.11010355825E+03  0.60799021035E+03  0.61885527100E+03  0.00000000000E+00 0.  1.
         11    1    1    2    0    0 -0.59335647475E+02  0.34776245492E+02  0.16563618095E+03  0.17934729089E+03  0.00000000000E+00 0. -1.
<mgrwt>
<rscale>  0 0.20892745E+03</rscale>
<asrwt>0</asrwt>
<pdfrwt beam="1">  1        2 0.26753050E+00 0.21322630E+03</pdfrwt>
<pdfrwt beam="2">  1       -2 0.37253220E-02 0.21322630E+03</pdfrwt>
<totfact> 0.31171191E+03</totfact>
</mgrwt>
</event>
<event>
 6    1  0.4230786E-006  0.1361540E+03  0.7546771E-02  0.1236672E+00
          1   -1    0    0  501    0  0.00000000000E+00  0.00000000000E+00  0.20630310311E+03  0.20630310311E+03  0.00000000000E+00 0. -1.
         -1   -1    0    0    0  501 -0.00000000000E+00 -0.00000000000E+00 -0.64744367498E+02  0.64744367498E+02  0.00000000000E+00 0.  1.
          5    1    1    2  502    0 -0.75000413120E+02  0.21535727618E+02  0.84994275018E+02  0.11547712465E+03  0.47000000000E+01 0. -1.
         -5    1    1    2    0  502  0.44822649307E+02 -0.23285372289E+02  0.13277273148E+02  0.52437147480E+02  0.47000000000E+01 0.  1.
        -11    1    1    2    0    0 -0.22512226836E+02  0.13472357981E+02 -0.92402990316E+01  0.27815246051E+02  0.00000000000E+00 0.  1.
         11    1    1    2    0    0  0.52689990649E+02 -0.11722713309E+02  0.52527486480E+02  0.75317952428E+02  0.00000000000E+00 0. -1.
<mgrwt>
<rscale>  0 0.12398020E+03</rscale>
<asrwt>0</asrwt>
<pdfrwt beam="1">  1        1 0.31738939E-01 0.13615398E+03</pdfrwt>
<pdfrwt beam="2">  1       -1 0.99606720E-02 0.13615398E+03</pdfrwt>
<totfact> 0.81866904E+03</totfact>
</mgrwt>
</event>
<event>
 7    1  0.4230786E-006  0.2850899E+03  0.7546771E-02  0.1094469E+00
         -2   -1    0    0    0  501 -0.00000000000E+00  0.00000000000E+00  0.14534682668E+03  0.14534682668E+03  0.00000000000E+00 0.  1.
          2   -1    0    0  501    0  0.00000000000E+00 -0.00000000000E+00 -0.54662186452E+03  0.54662186452E+03  0.00000000000E+00 0. -1.
         23    2    1    2    0    0  0.15253742643E+03 -0.20587220280E+03 -0.15971403377E+03  0.32677943891E+03  0.12500079507E+03 0.  0.
          5    1    3    3  502    0  0.52040952414E+02 -0.16391678574E+03 -0.12400206103E+03  0.21207445512E+03  0.47000000000E+01 0.  1.
         -5    1    3    3    0  502  0.10049647402E+03 -0.41955417057E+02 -0.35711972741E+02  0.11470498379E+03  0.47000000000E+01 0.  1.
        -11    1    1    2    0    0 -0.72272606845E+01  0.60845009462E+02 -0.23318387424E+02  0.65559863220E+02  0.00000000000E+00 0.  1.
         11    1    1    2    0    0 -0.14531016575E+03  0.14502719333E+03 -0.21824261664E+03  0.29962938907E+03  0.00000000000E+00 0. -1.
<mgrwt>
<rscale>  0 0.28224567E+03</rscale>
<asrwt>0</asrwt>
<pdfrwt beam="2">  1        2 0.84095672E-01 0.28508986E+03</pdfrwt>
<pdfrwt beam="1">  1       -2 0.22361050E-01 0.28508986E+03</pdfrwt>
<totfact> 0.97542136E+02</totfact>
</mgrwt>
</event>
<event>
 7    1  0.4230786E-006  0.1366287E+03  0.7546771E-02  0.1229813E+00
         -3   -1    0    0    0  501 -0.00000000000E+00  0.00000000000E+00  0.28290683255E+03  0.28290683255E+03  0.00000000000E+00 0.  1.
          3   -1    0    0  501    0  0.00000000000E+00 -0.00000000000E+00 -0.59926949068E+02  0.59926949068E+02  0.00000000000E+00 0. -1.
         23    2    1    2    0    0 -0.14958424183E+02 -0.53064272851E+02  0.18422748908E+03  0.22936250677E+03  0.12501128059E+03 0.  0.
          5    1    3    3  502    0 -0.45334650034E+02  0.21578407208E+02  0.41162015634E+02  0.65094236937E+02  0.47000000000E+01 0.  1.
         -5    1    3    3    0  502  0.30376225851E+02 -0.74642680059E+02  0.14306547344E+03  0.16426826983E+03  0.47000000000E+01 0.  1.
        -11    1    1    2    0    0  0.31388428057E+02 -0.13332901657E+02  0.28221219951E+02  0.44265527648E+02  0.00000000000E+00 0.  1.
         11    1    1    2    0    0 -0.16430003874E+02  0.66397174508E+02  0.10531174456E+02  0.69205747198E+02  0.00000000000E+00 0. -1.
<mgrwt>
<rscale>  0 0.12842378E+03</rscale>
<asrwt>0</asrwt>
<pdfrwt beam="2">  1        3 0.92195308E-02 0.13662866E+03</pdfrwt>
<pdfrwt beam="1">  1       -3 0.43524127E-01 0.13662866E+03</pdfrwt>
<totfact> 0.10261779E+03</totfact>
</mgrwt>
</event>
<event>
 7    1  0.4230786E-006  0.1696093E+03  0.7546771E-02  0.1185545E+00
          2   -1    0    0  501    0  0.00000000000E+00  0.00000000000E+00  0.69958544812E+03  0.69958544812E+03  0.00000000000E+00 0. -1.
         -2   -1    0    0    0  501 -0.00000000000E+00 -0.00000000000E+00 -0.35206582238E+02  0.35206582238E+02  0.00000000000E+00 0.  1.
         23    2    1    2    0    0  0.81366597170E+02 -0.80871439315E+02  0.34558058528E+03  0.38495876267E+03  0.12492635911E+03 0.  0.
          5    1    3    3  502    0  0.10268348667E+03 -0.43973634729E+02  0.16466679609E+03  0.19903472742E+03  0.47000000000E+01 0.  1.
         -5    1    3    3    0  502 -0.21316889503E+02 -0.36897804586E+02  0.18091378920E+03  0.18592403525E+03  0.47000000000E+01 0.  1.
        -11    1    1    2    0    0 -0.31869829114E+02 -0.95239651732E+01  0.36860253241E+02  0.49649473203E+02  0.00000000000E+00 0.  1.
         11    1    1    2    0    0 -0.49496768056E+02  0.90395404488E+02  0.28193802736E+03  0.30018379448E+03  0.00000000000E+00 0. -1.
<mgrwt>
<rscale>  0 0.16282347E+03</rscale>
<asrwt>0</asrwt>
<pdfrwt beam="1">  1        2 0.10762852E+00 0.16960928E+03</pdfrwt>
<pdfrwt beam="2">  1       -2 0.54163978E-02 0.16960928E+03</pdfrwt>
<totfact> 0.70876672E+03</totfact>
</mgrwt>
</event>
<event>
 7    1  0.4230786E-006  0.1289188E+03  0.7546771E-02  0.1245605E+00
          1   -1    0    0  501    0  0.00000000000E+00  0.00000000000E+00  0.17895357808E+03  0.17895357808E+03  0.00000000000E+00 0. -1.
         -1   -1    0    0    0  501 -0.00000000000E+00 -0.00000000000E+00 -0.69557872671E+02  0.69557872671E+02  0.00000000000E+00 0.  1.
         23    2    1    2    0    0  0.13495281262E+02 -0.28501888585E+02  0.46440282591E+02  0.13702830357E+03  0.12500230343E+03 0.  0.
          5    1    3    3  502    0  0.24236496817E+02 -0.37191868881E+02 -0.33471455437E+02  0.55794903154E+02  0.47000000000E+01 0.  1.
         -5    1    3    3    0  502 -0.10741215555E+02  0.86899802959E+01  0.79911738029E+02  0.81233400421E+02  0.47000000000E+01 0.  1.
        -11    1    1    2    0    0 -0.35709832897E+02  0.33946506416E+02  0.54190514655E+01  0.49567364083E+02  0.00000000000E+00 0.  1.
         11    1    1    2    0    0  0.22214551635E+02 -0.54446178310E+01  0.57536371351E+02  0.61915783092E+02  0.00000000000E+00 0. -1.
<mgrwt>
<rscale>  0 0.11849260E+03</rscale>
<asrwt>0</asrwt>
<pdfrwt beam="1">  1        1 0.27531320E-01 0.12891880E+03</pdfrwt>
<pdfrwt beam="2">  1       -1 0.10701211E-01 0.12891880E+03</pdfrwt>
<totfact> 0.87209652E+03</totfact>
</mgrwt>
</event>
<event>
 7    1  0.4230786E-006  0.1294152E+03  0.7546771E-02  0.1247730E+00
          1   -1    0    0  501    0  0.00000000000E+00  0.00000000000E+00  0.53633108942E+03  0.53633108942E+03  0.00000000000E+00 0. -1.
         -1   -1    0    0    0  501 -0.00000000000E+00 -0.00000000000E+00 -0.24504213969E+02  0.24504213969E+02  0.00000000000E+00 0.  1.
         23    2    1    2    0    0  0.31883986241E+02 -0.10661493869E+02  0.20996462044E+03  0.24664433518E+03  0.12497211773E+03 0.  0.
          5    1    3    3  502    0 -0.37488304312E+02 -0.39023993753E+02  0.89162685669E+02  0.10440459551E+03  0.47000000000E+01 0. -1.
         -5    1    3    3    0  502  0.69372290553E+02  0.28362499883E+02  0.12080193477E+03  0.14223973967E+03  0.47000000000E+01 0. -1.
        -11    1    1    2    0    0 -0.37944178777E+02  0.39323073056E+02  0.23363278106E+03  0.23993820280E+03  0.00000000000E+00 0. -1.
         11    1    1    2    0    0  0.60601925359E+01 -0.28661579187E+02  0.68229473954E+02  0.74252765410E+02  0.00000000000E+00 0.  1.
<mgrwt>
<rscale>  0 0.11723462E+03</rscale>
<asrwt>0</asrwt>
<pdfrwt beam="1">  1        1 0.82512466E-01 0.12941517E+03</pdfrwt>
<pdfrwt beam="2">  1       -1 0.37698795E-02 0.12941517E+03</pdfrwt>
<totfact> 0.10475217E+04</totfact>
</mgrwt>
</event>
<event>
 7    1  0.4230786E-006  0.1268633E+03  0.7546771E-02  0.1247931E+00
         -4   -1    0    0    0  501 -0.00000000000E+00  0.00000000000E+00  0.60452891376E+02  0.60452891376E+02  0.00000000000E+00 0.  1.
          4   -1    0    0  501    0  0.00000000000E+00 -0.00000000000E+00 -0.24425961081E+03  0.24425961081E+03  0.00000000000E+00 0. -1.
         23    2    1    2    0    0 -0.75720947595E+00  0.21690493618E+02 -0.38362748350E+02  0.13253676258E+03  0.12499296818E+03 0.  0.
          5    1    3    3  502    0  0.22722517603E+02 -0.29444271589E+02  0.26972928788E+02  0.46183404195E+02  0.47000000000E+01 0. -1.
         -5    1    3    3    0  502 -0.23479727079E+02  0.51134765208E+02 -0.65335677138E+02  0.86353358381E+02  0.47000000000E+01 0. -1.
        -11    1    1    2    0    0 -0.28291794587E+02  0.15549174374E+02 -0.19615079369E+02  0.37775042069E+02  0.00000000000E+00 0.  1.
         11    1    1    2    0    0  0.29049004063E+02 -0.37239667993E+02 -0.12582889171E+03  0.13440069754E+03  0.00000000000E+00 0. -1.
<mgrwt>
<rscale>  0 0.11711671E+03</rscale>
<asrwt>0</asrwt>
<pdfrwt beam="2">  1        4 0.37578402E-01 0.12686328E+03</pdfrwt>
<pdfrwt beam="1">  1       -4 0.93004447E-02 0.12686328E+03</pdfrwt>
<totfact> 0.96086062E+02</totfact>
</mgrwt>
</event>
<event>
 7    1  0.4230786E-006  0.1426574E+03  0.7546771E-02  0.1220021E+00
         -1   -1    0    0    0  501 -0.00000000000E+00  0.00000000000E+00  0.34462829788E+03  0.34462829788E+03  0.00000000000E+00 0.  1.
          1   -1    0    0  501    0  0.00000000000E+00 -0.00000000000E+00 -0.73526459149E+02  0.73526459149E+02  0.00000000000E+00 0. -1.
         23    2    1    2    0    0  0.17959194750E+02  0.66354068314E+02  0.26756108123E+03  0.30321618708E+03  0.12500291543E+03 0.  0.
          5    1    3    3  502    0  0.53017843092E+02  0.45322987431E+02  0.61573739099E+02  0.93158360990E+02  0.47000000000E+01 0. -1.
         -5    1    3    3    0  502 -0.35058648342E+02  0.21031080884E+02  0.20598734213E+03  0.21005782609E+03  0.47000000000E+01 0. -1.
        -11    1    1    2    0    0 -0.34696599795E+02 -0.71833441687E+02 -0.23056428862E+02  0.83039125078E+02  0.00000000000E+00 0. -1.
         11    1    1    2    0    0  0.16737405045E+02  0.54793733722E+01  0.26597186373E+02  0.31899444872E+02  0.00000000000E+00 0.  1.
<mgrwt>
<rscale>  0 0.13514051E+03</rscale>
<asrwt>0</asrwt>
<pdfrwt beam="2">  1        1 0.11311763E-01 0.14265737E+03</pdfrwt>
<pdfrwt beam="1">  1       -1 0.53019737E-01 0.14265737E+03</pdfrwt>
<totfact> 0.19497224E+03</totfact>
</mgrwt>
</event>
<event>
 7    1  0.4230786E-006  0.1289679E+03  0.7546771E-02  0.1243246E+00
          2   -1    0    0  501    0  0.00000000000E+00  0.00000000000E+00  0.63599136621E+02  0.63599136621E+02  0.00000000000E+00 0.  1.
         -2   -1    0    0    0  501 -0.00000000000E+00 -0.00000000000E+00 -0.22322298230E+03  0.22322298230E+03  0.00000000000E+00 0. -1.
         23    2    1    2    0    0 -0.29090578585E+02  0.12702607562E+02 -0.13633742477E+03  0.18767156037E+03  0.12500041271E+03 0.  0.
          5    1    3    3  502    0  0.19956927932E+02  0.38901241318E+02 -0.12253399626E+03  0.13018546688E+03  0.47000000000E+01 0.  1.
         -5    1    3    3    0  502 -0.49047506516E+02 -0.26198633756E+02 -0.13803428512E+02  0.57486093491E+02  0.47000000000E+01 0.  1.
        -11    1    1    2    0    0  0.16607895393E+02  0.15562604525E+02 -0.52129596545E+02  0.56881558390E+02  0.00000000000E+00 0. -1.
         11    1    1    2    0    0  0.12482683192E+02 -0.28265212087E+02  0.28843175633E+02  0.42269000161E+02  0.00000000000E+00 0.  1.
<mgrwt>
<rscale>  0 0.11990986E+03</rscale>
<asrwt>0</asrwt>
<pdfrwt beam="1">  1        2 0.97844827E-02 0.12896791E+03</pdfrwt>
<pdfrwt beam="2">  1       -2 0.34341997E-01 0.12896791E+03</pdfrwt>
<totfact> 0.49669942E+03</totfact>
</mgrwt>
</event>
<event>
 6    1  0.4230786E-006  0.1682436E+03  0.7546771E-02  0.1192058E+00
          2   -1    0    0  501    0  0.00000000000E+00  0.00000000000E+00  0.48253101270E+03  0.48253101270E+03  0.00000000000E+00 0. -1.
         -2   -1    0    0    0  501 -0.00000000000E+00 -0.00000000000E+00 -0.55824752212E+02  0.55824752212E+02  0.00000000000E+00 0.  1.
          5    1    1    2  502    0 -0.76259211173E+00  0.56112709045E+02  0.15082178835E+03  0.16099229641E+03  0.47000000000E+01 0. -1.
         -5    1    1    2    0  502 -0.15867804367E+02  0.32361352200E+02 -0.29186770236E+02  0.46615468339E+02  0.47000000000E+01 0.  1.
        -11    1    1    2    0    0 -0.28336723185E+02 -0.42606848263E+01  0.41600633267E+02  0.50514710770E+02  0.00000000000E+00 0. -1.
         11    1    1    2    0    0  0.44967119664E+02 -0.84213376419E+02  0.26347060911E+03  0.28023328939E+03  0.00000000000E+00 0.  1.
<mgrwt>
<rscale>  0 0.15705911E+03</rscale>
<asrwt>0</asrwt>
<pdfrwt beam="1">  1        2 0.74235538E-01 0.16824359E+03</pdfrwt>
<pdfrwt beam="2">  1       -2 0.85884237E-02 0.16824359E+03</pdfrwt>
<totfact> 0.53329727E+03</totfact>
</mgrwt>
</event>
<event>
 7    1  0.4230786E-006  0.1268913E+03  0.7546771E-02  0.1246233E+00
         -2   -1    0    0    0  501 -0.00000000000E+00  0.00000000000E+00  0.94738510320E+02  0.94738510320E+02  0.00000000000E+00 0.  1.
          2   -1    0    0  501    0  0.00000000000E+00 -0.00000000000E+00 -0.13028754918E+03  0.13028754918E+03  0.00000000000E+00 0. -1.
         23    2    1    2    0    0 -0.19539965441E+02  0.97557860278E+01 -0.22225242196E+02  0.12882301751E+03  0.12499769134E+03 0.  0.
          5    1    3    3  502    0 -0.21682224345E+02 -0.53708133318E+02 -0.28718240116E+02  0.64819053930E+02  0.47000000000E+01 0. -1.
         -5    1    3    3    0  502  0.21422589046E+01  0.63463919345E+02  0.64929979201E+01  0.64003963579E+02  0.47000000000E+01 0. -1.
        -11    1    1    2    0    0  0.49157658370E+02  0.81044487082E+01 -0.29629426077E+02  0.57966027593E+02  0.00000000000E+00 0.  1.
         11    1    1    2    0    0 -0.29617692930E+02 -0.17860234736E+02  0.16305629415E+02  0.38237014396E+02  0.00000000000E+00 0. -1.
<mgrwt>
<rscale>  0 0.11811899E+03</rscale>
<asrwt>0</asrwt>
<pdfrwt beam="2">  1        2 0.20044238E-01 0.12689133E+03</pdfrwt>
<pdfrwt beam="1">  1       -2 0.14575155E-01 0.12689133E+03</pdfrwt>
<totfact> 0.93176092E+03</totfact>
</mgrwt>
</event>
<event>
 6    1  0.4230786E-006  0.1342148E+03  0.7546771E-02  0.1238267E+00
         -1   -1    0    0    0  501 -0.00000000000E+00  0.00000000000E+00  0.38120812596E+03  0.38120812596E+03  0.00000000000E+00 0.  1.
          1   -1    0    0  501    0  0.00000000000E+00 -0.00000000000E+00 -0.76226251881E+02  0.76226251881E+02  0.00000000000E+00 0. -1.
          5    1    1    2  502    0  0.42442696869E+02 -0.19983137185E+02  0.22661310785E+03  0.23146554590E+03  0.47000000000E+01 0. -1.
         -5    1    1    2    0  502 -0.64560013274E+02  0.27557899604E+02  0.10617639661E+03  0.12736934617E+03  0.47000000000E+01 0.  1.
        -11    1    1    2    0    0  0.13451339893E+02 -0.40025717631E+02  0.14440624270E+02  0.44626541946E+02  0.00000000000E+00 0.  1.
         11    1    1    2    0    0  0.86659765115E+01  0.32450955212E+02 -0.42248254662E+02  0.53972943824E+02  0.00000000000E+00 0. -1.
<mgrwt>
<rscale>  0 0.12297583E+03</rscale>
<asrwt>0</asrwt>
<pdfrwt beam="2">  1        1 0.11727116E-01 0.13421485E+03</pdfrwt>
<pdfrwt beam="1">  1       -1 0.58647403E-01 0.13421485E+03</pdfrwt>
<totfact> 0.15364464E+03</totfact>
</mgrwt>
</event>
<event>
 7    1  0.4230786E-006  0.2268595E+03  0.7546771E-02  0.1131973E+00
          1   -1    0    0  501    0  0.00000000000E+00  0.00000000000E+00  0.13513274593E+03  0.13513274593E+03  0.00000000000E+00 0. -1.
         -1   -1    0    0    0  501 -0.00000000000E+00 -0.00000000000E+00 -0.38605156081E+03  0.38605156081E+03  0.00000000000E+00 0.  1.
         23    2    1    2    0    0 -0.16860600371E+03 -0.86095055971E+02 -0.20552515127E+03  0.30611406916E+03  0.12499956953E+03 0.  0.
          5    1    3    3  502    0 -0.46022931827E+02  0.24574425063E+02 -0.91285828030E+02  0.10524830174E+03  0.47000000000E+01 0.  1.
         -5    1    3    3    0  502 -0.12258307188E+03 -0.11066948103E+03 -0.11423932324E+03  0.20086576741E+03  0.47000000000E+01 0.  1.
        -11    1    1    2    0    0  0.13455415355E+03  0.10545107526E+03 -0.39553235469E+02  0.17546853834E+03  0.00000000000E+00 0.  1.
         11    1    1    2    0    0  0.34051850152E+02 -0.19356019292E+02 -0.58404281498E+01  0.39601699238E+02  0.00000000000E+00 0. -1.
<mgrwt>
<rscale>  0 0.22258142E+03</rscale>
<asrwt>0</asrwt>
<pdfrwt beam="1">  1        1 0.20789653E-01 0.22685951E+03</pdfrwt>
<pdfrwt beam="2">  1       -1 0.59392547E-01 0.22685951E+03</pdfrwt>
<totfact> 0.72016665E+02</totfact>
</mgrwt>
</event>
<event>
 7    1  0.4230786E-006  0.1303704E+03  0.7546771E-02  0.1240930E+00
         -1   -1    0    0    0  501 -0.00000000000E+00  0.00000000000E+00  0.79432098983E+02  0.79432098983E+02  0.00000000000E+00 0.  1.
          1   -1    0    0  501    0  0.00000000000E+00 -0.00000000000E+00 -0.16952393280E+03  0.16952393280E+03  0.00000000000E+00 0. -1.
         23    2    1    2    0    0 -0.18214437134E+02  0.32169344900E+02 -0.28663978159E+02  0.13348431668E+03  0.12501922526E+03 0.  0.
          5    1    3    3  502    0 -0.24779979923E+02  0.17370661433E+02 -0.76693624133E+02  0.82582015392E+02  0.47000000000E+01 0.  1.
         -5    1    3    3    0  502  0.65655427884E+01  0.14798683467E+02  0.48029645974E+02  0.50902301292E+02  0.47000000000E+01 0.  1.
        -11    1    1    2    0    0 -0.71404588311E+01 -0.34014247692E+02 -0.77816268262E+02  0.85225153591E+02  0.00000000000E+00 0. -1.
         11    1    1    2    0    0  0.25354895966E+02  0.18449027918E+01  0.16388412600E+02  0.30246561512E+02  0.00000000000E+00 0.  1.
<mgrwt>
<rscale>  0 0.12132306E+03</rscale>
<asrwt>0</asrwt>
<pdfrwt beam="2">  1        1 0.26080605E-01 0.13037039E+03</pdfrwt>
<pdfrwt beam="1">  1       -1 0.12220323E-01 0.13037039E+03</pdfrwt>
<totfact> 0.76159100E+03</totfact>
</mgrwt>
</event>
<event>
 7    1  0.4230786E-006  0.1189506E+03  0.7546771E-02  0.1257333E+00
          3   -1    0    0  501    0  0.00000000000E+00  0.00000000000E+00  0.32266191735E+02  0.32266191735E+02  0.00000000000E+00 0. -1.
         -3   -1    0    0    0  501 -0.00000000000E+00 -0.00000000000E+00 -0.45156022862E+03  0.45156022862E+03  0.00000000000E+00 0.  1.
         23    2    1    2    0    0 -0.40675398940E+02 -0.67015759622E+00 -0.34526930496E+03  0.36518508883E+03  0.11177798962E+03 0.  0.
          5    1    3    3  502    0 -0.43932752500E+02 -0.42313895023E+02 -0.10715424543E+03  0.12338830888E+03  0.47000000000E+01 0. -1.
         -5    1    3    3    0  502  0.32573535594E+01  0.41643737426E+02 -0.23811505953E+03  0.24179677995E+03  0.47000000000E+01 0.  1.
        -11    1    1    2    0    0  0.49065045537E+02 -0.18426478866E+02 -0.12786365109E+02  0.53948169103E+02  0.00000000000E+00 0. -1.
         11    1    1    2    0    0 -0.83896465960E+01  0.19096636462E+02 -0.61238366816E+02  0.64693162424E+02  0.00000000000E+00 0.  1.
<mgrwt>
<rscale>  0 0.11176680E+03</rscale>
<asrwt>0</asrwt>
<pdfrwt beam="1">  1        3 0.49640298E-02 0.11895065E+03</pdfrwt>
<pdfrwt beam="2">  1       -3 0.69470800E-01 0.11895065E+03</pdfrwt>
<totfact> 0.10520824E+03</totfact>
</mgrwt>
</event>
<event>
 7    1  0.4230786E-006  0.1587149E+03  0.7546771E-02  0.1197840E+00
         -1   -1    0    0    0  501 -0.00000000000E+00  0.00000000000E+00  0.12949241203E+03  0.12949241203E+03  0.00000000000E+00 0.  1.
          1   -1    0    0  501    0  0.00000000000E+00 -0.00000000000E+00 -0.17968588179E+03  0.17968588179E+03  0.00000000000E+00 0. -1.
         23    2    1    2    0    0 -0.92370463982E+02 -0.32161571662E+02  0.16227924235E+02  0.15954233318E+03  0.12499496488E+03 0.  0.
          5    1    3    3  502    0 -0.97098988107E+02 -0.31391026473E+02 -0.34917834199E+02  0.10795811771E+03  0.47000000000E+01 0.  1.
         -5    1    3    3    0  502  0.47285241251E+01 -0.77054518807E+00  0.51145758434E+02  0.51584215474E+02  0.47000000000E+01 0.  1.
        -11    1    1    2    0    0  0.76836215818E+02  0.55688084068E+02 -0.22631983333E+02  0.97556001548E+02  0.00000000000E+00 0. -1.
         11    1    1    2    0    0  0.15534248164E+02 -0.23526512406E+02 -0.43789410666E+02  0.52079959087E+02  0.00000000000E+00 0.  1.
<mgrwt>
<rscale>  0 0.15216307E+03</rscale>
<asrwt>0</asrwt>
<pdfrwt beam="2">  1        1 0.27643982E-01 0.15871487E+03</pdfrwt>
<pdfrwt beam="1">  1       -1 0.19921910E-01 0.15871487E+03</pdfrwt>
<totfact> 0.33179370E+03</totfact>
</mgrwt>
</event>
<event>
 7    1  0.4230786E-006  0.3065642E+03  0.7546771E-02  0.1083500E+00
          1   -1    0    0  501    0  0.00000000000E+00  0.00000000000E+00  0.46192695642E+03  0.46192695642E+03  0.00000000000E+00 0. -1.
         -1   -1    0    0    0  501 -0.00000000000E+00 -0.00000000000E+00 -0.19966605211E+03  0.19966605211E+03  0.00000000000E+00 0.  1.
         23    2    1    2    0    0  0.27616065643E+03 -0.45712226625E+02  0.86174728214E+02  0.31844575920E+03  0.12500920744E+03 0.  0.
          5    1    3    3  502    0  0.21884044235E+03  0.23445725492E+01  0.22418284511E+02  0.22004841674E+03  0.47000000000E+01 0.  1.
         -5    1    3    3    0  502  0.57320214078E+02 -0.48056799174E+02  0.63756443702E+02  0.98397342456E+02  0.47000000000E+01 0.  1.
        -11    1    1    2    0    0 -0.59037062152E+02  0.34038057677E+02  0.80930591607E+02  0.10580040045E+03  0.00000000000E+00 0.  1.
         11    1    1    2    0    0 -0.21712359428E+03  0.11674168948E+02  0.95155584492E+02  0.23734684888E+03  0.00000000000E+00 0. -1.
<mgrwt>
<rscale>  0 0.30350848E+03</rscale>
<asrwt>0</asrwt>
<pdfrwt beam="1">  1        1 0.71065685E-01 0.30656421E+03</pdfrwt>
<pdfrwt beam="2">  1       -1 0.30717854E-01 0.30656421E+03</pdfrwt>
<totfact> 0.49421969E+02</totfact>
</mgrwt>
</event>
<event>
 7    1  0.4230786E-006  0.1327377E+03  0.7546771E-02  0.1235780E+00
          1   -1    0    0  501    0  0.00000000000E+00  0.00000000000E+00  0.10578782884E+03  0.10578782884E+03  0.00000000000E+00 0.  1.
         -1   -1    0    0    0  501 -0.00000000000E+00 -0.00000000000E+00 -0.13134043739E+03  0.13134043739E+03  0.00000000000E+00 0. -1.
         23    2    1    2    0    0  0.98821992601E+01  0.43544835971E+02 -0.18255507183E+02  0.13398716695E+03  0.12500194704E+03 0.  0.
          5    1    3    3  502    0 -0.15314333080E+02  0.18653842910E+02  0.50687365586E+02  0.56336432999E+02  0.47000000000E+01 0. -1.
         -5    1    3    3    0  502  0.25196532340E+02  0.24890993061E+02 -0.68942872769E+02  0.77650733951E+02  0.47000000000E+01 0. -1.
        -11    1    1    2    0    0 -0.26046886595E+02  0.22787596838E+02 -0.22402205641E+01  0.34680447793E+02  0.00000000000E+00 0. -1.
         11    1    1    2    0    0  0.16164687335E+02 -0.66332432809E+02 -0.50568807987E+01  0.68460651490E+02  0.00000000000E+00 0.  1.
<mgrwt>
<rscale>  0 0.12454642E+03</rscale>
<asrwt>0</asrwt>
<pdfrwt beam="1">  1        1 0.16275051E-01 0.13273770E+03</pdfrwt>
<pdfrwt beam="2">  1       -1 0.20206221E-01 0.13273770E+03</pdfrwt>
<totfact> 0.62889448E+03</totfact>
</mgrwt>
</event>
<event>
 7    1  0.4230786E-006  0.1361362E+03  0.7546771E-02  0.1230292E+00
          1   -1    0    0  501    0  0.00000000000E+00  0.00000000000E+00  0.24604562828E+03  0.24604562828E+03  0.00000000000E+00 0. -1.
         -1   -1    0    0    0  501 -0.00000000000E+00 -0.00000000000E+00 -0.64242471317E+02  0.64242471317E+02  0.00000000000E+00 0.  1.
         23    2    1    2    0    0  0.44095059433E+02 -0.31042273183E+02  0.61298027455E+02  0.14930003619E+03  0.12500022259E+03 0.  0.
          5    1    3    3  502    0  0.73264632814E+02 -0.56403934066E+02  0.24598789526E+02  0.95793009378E+02  0.47000000000E+01 0. -1.
         -5    1    3    3    0  502 -0.29169573381E+02  0.25361660883E+02  0.36699237929E+02  0.53507026815E+02  0.47000000000E+01 0. -1.
        -11    1    1    2    0    0  0.20788973214E+02 -0.27082753607E+01  0.11363551601E+01  0.20995415351E+02  0.00000000000E+00 0.  1.
         11    1    1    2    0    0 -0.64884032647E+02  0.33750548543E+02  0.11936877435E+03  0.13999264805E+03  0.00000000000E+00 0. -1.
<mgrwt>
<rscale>  0 0.12810692E+03</rscale>
<asrwt>0</asrwt>
<pdfrwt beam="1">  1        1 0.37853173E-01 0.13613615E+03</pdfrwt>
<pdfrwt beam="2">  1       -1 0.98834572E-02 0.13613615E+03</pdfrwt>
<totfact> 0.66599768E+03</totfact>
</mgrwt>
</event>
<event>
 7    1  0.4230786E-006  0.1391790E+03  0.7546771E-02  0.1225673E+00
         -2   -1    0    0    0  501 -0.00000000000E+00  0.00000000000E+00  0.34031763178E+02  0.34031763178E+02  0.00000000000E+00 0.  1.
          2   -1    0    0  501    0  0.00000000000E+00 -0.00000000000E+00 -0.49318302943E+03  0.49318302943E+03  0.00000000000E+00 0. -1.
         23    2    1    2    0    0 -0.56965135586E+02 -0.22380944458E+02 -0.18245381943E+03  0.22947808692E+03  0.12499945122E+03 0.  0.
          5    1    3    3  502    0 -0.68041699673E+02 -0.42246385112E+02 -0.18902087067E+03  0.20534217662E+03  0.47000000000E+01 0. -1.
         -5    1    3    3    0  502  0.11076564087E+02  0.19865440654E+02  0.65670512370E+01  0.24135910306E+02  0.47000000000E+01 0. -1.
        -11    1    1    2    0    0 -0.11817682854E+02  0.37386972297E+02 -0.88262380427E+02  0.96579972687E+02  0.00000000000E+00 0.  1.
         11    1    1    2    0    0  0.68782818439E+02 -0.15006027839E+02 -0.18843506639E+03  0.20115673300E+03  0.00000000000E+00 0. -1.
<mgrwt>
<rscale>  0 0.13120915E+03</rscale>
<asrwt>0</asrwt>
<pdfrwt beam="2">  1        2 0.75874312E-01 0.13917901E+03</pdfrwt>
<pdfrwt beam="1">  1       -2 0.52356559E-02 0.13917901E+03</pdfrwt>
<totfact> 0.10985952E+04</totfact>
</mgrwt>
</event>
<event>
 7    1  0.4230786E-006  0.1365371E+03  0.7546771E-02  0.1228330E+00
          1   -1    0    0  501    0  0.00000000000E+00  0.00000000000E+00  0.45784531616E+03  0.45784531616E+03  0.00000000000E+00 0. -1.
         -1   -1    0    0    0  501 -0.00000000000E+00 -0.00000000000E+00 -0.48829242832E+02  0.48829242832E+02  0.00000000000E+00 0.  1.
         23    2    1    2    0    0  0.28215337101E+02 -0.47131343687E+02  0.76787508830E+02  0.15664832500E+03  0.12499962963E+03 0.  0.
          5    1    3    3  502    0  0.48424484337E+02  0.94708034722E+00 -0.15046137322E+02  0.50934309584E+02  0.47000000000E+01 0. -1.
         -5    1    3    3    0  502 -0.20209147237E+02 -0.48078424034E+02  0.91833646152E+02  0.10571401542E+03  0.47000000000E+01 0. -1.
        -11    1    1    2    0    0  0.22591194377E+02  0.46298062384E+02  0.10216928917E+03  0.11442218445E+03  0.00000000000E+00 0.  1.
         11    1    1    2    0    0 -0.50806531477E+02  0.83328130288E+00  0.23005927533E+03  0.23560404955E+03  0.00000000000E+00 0. -1.
<mgrwt>
<rscale>  0 0.12941264E+03</rscale>
<asrwt>0</asrwt>
<pdfrwt beam="1">  1        1 0.70437738E-01 0.13653709E+03</pdfrwt>
<pdfrwt beam="2">  1       -1 0.75121915E-02 0.13653709E+03</pdfrwt>
<totfact> 0.46458996E+03</totfact>
</mgrwt>
</event>
<event>
 6    1  0.4230786E-006  0.1550587E+03  0.7546771E-02  0.1206973E+00
          2   -1    0    0  501    0  0.00000000000E+00  0.00000000000E+00  0.26049389348E+03  0.26049389348E+03  0.00000000000E+00 0. -1.
         -2   -1    0    0    0  501 -0.00000000000E+00 -0.00000000000E+00 -0.18316698046E+03  0.18316698046E+03  0.00000000000E+00 0.  1.
          5    1    1    2  502    0  0.38831178461E+02  0.29313386798E+02 -0.25887998504E+02  0.55311965548E+02  0.47000000000E+01 0. -1.
         -5    1    1    2    0  502 -0.19651114212E+02 -0.10166295031E+03 -0.10592855942E+03  0.14820415466E+03  0.47000000000E+01 0.  1.
        -11    1    1    2    0    0 -0.14859915450E+02  0.51375763401E+01 -0.43221567285E+01  0.16306220182E+02  0.00000000000E+00 0.  1.
         11    1    1    2    0    0 -0.43201487985E+01  0.67211987175E+02  0.21346562767E+03  0.22383853355E+03  0.00000000000E+00 0. -1.
<mgrwt>
<rscale>  0 0.14483057E+03</rscale>
<asrwt>0</asrwt>
<pdfrwt beam="1">  1        2 0.40075983E-01 0.15505872E+03</pdfrwt>
<pdfrwt beam="2">  1       -2 0.28179536E-01 0.15505872E+03</pdfrwt>
<totfact> 0.14410821E+03</totfact>
</mgrwt>
</event>
<event>
 7    1  0.4230786E-006  0.2036977E+03  0.7546771E-02  0.1151237E+00
         -4   -1    0    0    0  501 -0.00000000000E+00  0.00000000000E+00  0.45994889663E+03  0.45994889663E+03  0.00000000000E+00 0.  1.
          4   -1    0    0  501    0  0.00000000000E+00 -0.00000000000E+00 -0.84567584867E+02  0.84567584867E+02  0.00000000000E+00 0. -1.
         23    2    1    2    0    0 -0.98116410502E+02  0.12735226594E+03  0.25208039970E+03  0.32409457406E+03  0.12508930959E+03 0.  0.
          5    1    3    3  502    0 -0.89579917175E+01  0.16982064847E+02  0.14483473642E+03  0.14617738202E+03  0.47000000000E+01 0. -1.
         -5    1    3    3    0  502 -0.89158418784E+02  0.11037020109E+03  0.10724566328E+03  0.17791719203E+03  0.47000000000E+01 0. -1.
        -11    1    1    2    0    0 -0.29746872012E+01 -0.62463181336E+02  0.39766328482E+02  0.74107075691E+02  0.00000000000E+00 0.  1.
         11    1    1    2    0    0  0.10109109770E+03 -0.64889084603E+02  0.83534583585E+02  0.14631483175E+03  0.00000000000E+00 0. -1.
<mgrwt>
<rscale>  0 0.19823477E+03</rscale>
<asrwt>0</asrwt>
<pdfrwt beam="2">  1        4 0.13010398E-01 0.20369773E+03</pdfrwt>
<pdfrwt beam="1">  1       -4 0.70761367E-01 0.20369773E+03</pdfrwt>
<totfact> 0.16040551E+02</totfact>
</mgrwt>
</event>
<event>
 7    1  0.4230786E-006  0.1804516E+03  0.7546771E-02  0.1172973E+00
          1   -1    0    0  501    0  0.00000000000E+00  0.00000000000E+00  0.16189270596E+04  0.16189270596E+04  0.00000000000E+00 0. -1.
         -1   -1    0    0    0  501 -0.00000000000E+00 -0.00000000000E+00 -0.17771770484E+02  0.17771770484E+02  0.00000000000E+00 0.  1.
         23    2    1    2    0    0 -0.68683027176E+01 -0.13000094746E+03  0.83758278108E+03  0.85680085264E+03  0.12496145806E+03 0.  0.
          5    1    3    3  502    0 -0.30447638645E+02 -0.41942139975E+02  0.92394863213E+02  0.10604292788E+03  0.47000000000E+01 0.  1.
         -5    1    3    3    0  502  0.23579335927E+02 -0.88058807488E+02  0.74518791787E+03  0.75075792477E+03  0.47000000000E+01 0.  1.
        -11    1    1    2    0    0 -0.17230348705E+02  0.12882898842E+03  0.69864482062E+03  0.71063237933E+03  0.00000000000E+00 0. -1.
         11    1    1    2    0    0  0.24098651422E+02  0.11719590440E+01  0.64927687382E+02  0.69265598079E+02  0.00000000000E+00 0.  1.
<mgrwt>
<rscale>  0 0.17475962E+03</rscale>
<asrwt>0</asrwt>
<pdfrwt beam="1">  1        1 0.24906559E+00 0.18045162E+03</pdfrwt>
<pdfrwt beam="2">  1       -1 0.27341198E-02 0.18045162E+03</pdfrwt>
<totfact> 0.25801537E+03</totfact>
</mgrwt>
</event>
<event>
 7    1  0.4230786E-006  0.1632394E+03  0.7546771E-02  0.1191629E+00
         -1   -1    0    0    0  501 -0.00000000000E+00  0.00000000000E+00  0.20189711971E+03  0.20189711971E+03  0.00000000000E+00 0. -1.
          1   -1    0    0  501    0  0.00000000000E+00 -0.00000000000E+00 -0.11478549521E+03  0.11478549521E+03  0.00000000000E+00 0.  1.
         23    2    1    2    0    0 -0.41467149696E+02  0.96446132545E+02  0.48134704069E+02  0.17018824886E+03  0.12500283727E+03 0.  0.
          5    1    3    3  502    0 -0.70560419356E+02  0.54967344826E+02  0.71106464082E+02  0.11436083688E+03  0.47000000000E+01 0.  1.
         -5    1    3    3    0  502  0.29093269661E+02  0.41478787719E+02 -0.22971760013E+02  0.55827411979E+02  0.47000000000E+01 0.  1.
        -11    1    1    2    0    0  0.48953139024E+02 -0.16382196774E+02 -0.96585016394E+01  0.52517357562E+02  0.00000000000E+00 0. -1.
         11    1    1    2    0    0 -0.74859893281E+01 -0.80063935771E+02  0.48635422064E+02  0.93977008501E+02  0.00000000000E+00 0.  1.
<mgrwt>
<rscale>  0 0.15743023E+03</rscale>
<asrwt>0</asrwt>
<pdfrwt beam="2">  1        1 0.17659307E-01 0.16323937E+03</pdfrwt>
<pdfrwt beam="1">  1       -1 0.31061095E-01 0.16323937E+03</pdfrwt>
<totfact> 0.28205126E+03</totfact>
</mgrwt>
</event>
<event>
 7    1  0.4230786E-006  0.1261443E+03  0.7546771E-02  0.1248378E+00
         -2   -1    0    0    0  501 -0.00000000000E+00  0.00000000000E+00  0.50829477819E+03  0.50829477819E+03  0.00000000000E+00 0.  1.
          2   -1    0    0  501    0  0.00000000000E+00 -0.00000000000E+00 -0.23756330848E+02  0.23756330848E+02  0.00000000000E+00 0. -1.
         23    2    1    2    0    0 -0.95223951836E+01 -0.13974845589E+02  0.30033014929E+03  0.32574619547E+03  0.12500565174E+03 0.  0.
          5    1    3    3  502    0 -0.32531180134E+01  0.54773508309E+02  0.16144188726E+03  0.17057635519E+03  0.47000000000E+01 0. -1.
         -5    1    3    3    0  502 -0.62692771702E+01 -0.68748353898E+02  0.13888826204E+03  0.15516984028E+03  0.47000000000E+01 0. -1.
        -11    1    1    2    0    0 -0.46296865790E+01 -0.37959195918E+02  0.63269406468E+02  0.73928021394E+02  0.00000000000E+00 0. -1.
         11    1    1    2    0    0  0.14152081763E+02  0.51934041507E+02  0.12093889157E+03  0.13237689217E+03  0.00000000000E+00 0.  1.
<mgrwt>
<rscale>  0 0.11685463E+03</rscale>
<asrwt>0</asrwt>
<pdfrwt beam="2">  1        2 0.36548205E-02 0.12614430E+03</pdfrwt>
<pdfrwt beam="1">  1       -2 0.78199188E-01 0.12614430E+03</pdfrwt>
<totfact> 0.33970317E+03</totfact>
</mgrwt>
</event>
<event>
 7    1  0.4230786E-006  0.1559531E+03  0.7546771E-02  0.1200861E+00
         -1   -1    0    0    0  501 -0.00000000000E+00  0.00000000000E+00  0.66536498360E+03  0.66536498360E+03  0.00000000000E+00 0.  1.
          1   -1    0    0  501    0  0.00000000000E+00 -0.00000000000E+00 -0.34170421993E+02  0.34170421993E+02  0.00000000000E+00 0. -1.
         23    2    1    2    0    0  0.13298296989E+02  0.93825697391E+02  0.44148526771E+03  0.46822070169E+03  0.12385991155E+03 0.  0.
          5    1    3    3  502    0 -0.10227726100E+02  0.86371184859E+02  0.43304585653E+03  0.44171867949E+03  0.47000000000E+01 0.  1.
         -5    1    3    3    0  502  0.23526023089E+02  0.74545125317E+01  0.84394111837E+01  0.26502022198E+02  0.47000000000E+01 0.  1.
        -11    1    1    2    0    0  0.30620950192E+02 -0.16345556177E+02  0.95774761420E+02  0.10187062738E+03  0.00000000000E+00 0.  1.
         11    1    1    2    0    0 -0.43919247181E+02 -0.77480141214E+02  0.93934532470E+02  0.12944407652E+03  0.00000000000E+00 0. -1.
<mgrwt>
<rscale>  0 0.14968480E+03</rscale>
<asrwt>0</asrwt>
<pdfrwt beam="2">  1        1 0.52569885E-02 0.15595315E+03</pdfrwt>
<pdfrwt beam="1">  1       -1 0.10236383E+00 0.15595315E+03</pdfrwt>
<totfact> 0.14576915E+03</totfact>
</mgrwt>
</event>
<event>
 7    1  0.4230786E-006  0.1164236E+03  0.7546771E-02  0.1261264E+00
         -1   -1    0    0    0  501 -0.00000000000E+00  0.00000000000E+00  0.57213453838E+02  0.57213453838E+02  0.00000000000E+00 0.  1.
          1   -1    0    0  501    0  0.00000000000E+00 -0.00000000000E+00 -0.20356679196E+03  0.20356679196E+03  0.00000000000E+00 0. -1.
         23    2    1    2    0    0 -0.96917883128E+01 -0.11044995180E+02 -0.46602252702E+02  0.12540428107E+03  0.11549260182E+03 0.  0.
          5    1    3    3  502    0  0.37625991699E+02 -0.97467111174E+01 -0.63772940653E+02  0.74831755214E+02  0.47000000000E+01 0. -1.
         -5    1    3    3    0  502 -0.47317780011E+02 -0.12982840629E+01  0.17170687951E+02  0.50572525856E+02  0.47000000000E+01 0.  1.
        -11    1    1    2    0    0  0.40479747452E+02  0.33342480280E+02 -0.47481257624E+02  0.70744616548E+02  0.00000000000E+00 0.  1.
         11    1    1    2    0    0 -0.30787959139E+02 -0.22297485100E+02 -0.52269827797E+02  0.64631348180E+02  0.00000000000E+00 0. -1.
<mgrwt>
<rscale>  0 0.10962583E+03</rscale>
<asrwt>0</asrwt>
<pdfrwt beam="2">  1        1 0.31317968E-01 0.11642364E+03</pdfrwt>
<pdfrwt beam="1">  1       -1 0.88020697E-02 0.11642364E+03</pdfrwt>
<totfact> 0.99204270E+03</totfact>
</mgrwt>
</event>
<event>
 7    1  0.4230786E-006  0.1251020E+03  0.7546771E-02  0.1249950E+00
          1   -1    0    0  501    0  0.00000000000E+00  0.00000000000E+00  0.24149758489E+03  0.24149758489E+03  0.00000000000E+00 0. -1.
         -1   -1    0    0    0  501 -0.00000000000E+00 -0.00000000000E+00 -0.50130695949E+02  0.50130695949E+02  0.00000000000E+00 0.  1.
         23    2    1    2    0    0 -0.46974919102E+01 -0.23974368075E+00  0.87382783929E+02  0.15259837927E+03  0.12501356135E+03 0.  0.
          5    1    3    3  502    0  0.25950820357E+02  0.18755537728E+02  0.10664639100E+03  0.11144845439E+03  0.47000000000E+01 0. -1.
         -5    1    3    3    0  502 -0.30648312267E+02 -0.18995281409E+02 -0.19263607070E+02  0.41149924884E+02  0.47000000000E+01 0. -1.
        -11    1    1    2    0    0  0.26930562352E+02 -0.38305465520E+02  0.43276202740E+02  0.63760439152E+02  0.00000000000E+00 0.  1.
         11    1    1    2    0    0 -0.22233070442E+02  0.38545209200E+02  0.60707902271E+02  0.75269462411E+02  0.00000000000E+00 0. -1.
<mgrwt>
<rscale>  0 0.11593956E+03</rscale>
<asrwt>0</asrwt>
<pdfrwt beam="1">  1        1 0.37153474E-01 0.12510202E+03</pdfrwt>
<pdfrwt beam="2">  1       -1 0.77124149E-02 0.12510202E+03</pdfrwt>
<totfact> 0.98596702E+03</totfact>
</mgrwt>
</event>
<event>
 7    1  0.4230786E-006  0.1292558E+03  0.7546771E-02  0.1241654E+00
          2   -1    0    0  501    0  0.00000000000E+00  0.00000000000E+00  0.25338655760E+03  0.25338655760E+03  0.00000000000E+00 0. -1.
         -2   -1    0    0    0  501 -0.00000000000E+00 -0.00000000000E+00 -0.53886055913E+02  0.53886055913E+02  0.00000000000E+00 0.  1.
         23    2    1    2    0    0  0.32388188632E+02 -0.54107981947E+01  0.79327514827E+02  0.15165726395E+03  0.12501519747E+03 0.  0.
          5    1    3    3  502    0 -0.37480718600E+02 -0.27569193564E+02  0.47856795896E+01  0.47009120707E+02  0.47000000000E+01 0. -1.
         -5    1    3    3    0  502  0.69868907232E+02  0.22158395369E+02  0.74541835238E+02  0.10464814324E+03  0.47000000000E+01 0. -1.
        -11    1    1    2    0    0  0.23350869281E+02  0.25642431714E+02  0.69267226360E+02  0.77464482493E+02  0.00000000000E+00 0.  1.
         11    1    1    2    0    0 -0.55739057913E+02 -0.20231633519E+02  0.50905760500E+02  0.78150867071E+02  0.00000000000E+00 0. -1.
<mgrwt>
<rscale>  0 0.12087874E+03</rscale>
<asrwt>0</asrwt>
<pdfrwt beam="1">  1        2 0.38982547E-01 0.12925584E+03</pdfrwt>
<pdfrwt beam="2">  1       -2 0.82901626E-02 0.12925584E+03</pdfrwt>
<totfact> 0.11035574E+04</totfact>
</mgrwt>
</event>
<event>
 7    1  0.4230786E-006  0.1279097E+03  0.7546771E-02  0.1245431E+00
         -2   -1    0    0    0  501 -0.00000000000E+00  0.00000000000E+00  0.95696924246E+02  0.95696924246E+02  0.00000000000E+00 0.  1.
          2   -1    0    0  501    0  0.00000000000E+00 -0.00000000000E+00 -0.13063259597E+03  0.13063259597E+03  0.00000000000E+00 0. -1.
         23    2    1    2    0    0  0.21696785582E+02  0.16249717481E+02 -0.85985296290E+01  0.12819841388E+03  0.12500437907E+03 0.  0.
          5    1    3    3  502    0  0.61502010617E+02 -0.19105818759E+02 -0.29265582639E+02  0.70894950086E+02  0.47000000000E+01 0.  1.
         -5    1    3    3    0  502 -0.39805225035E+02  0.35355536240E+02  0.20667053010E+02  0.57303463796E+02  0.47000000000E+01 0.  1.
        -11    1    1    2    0    0 -0.23721248776E+02 -0.50827337347E+02 -0.29455644390E+02  0.63354169963E+02  0.00000000000E+00 0. -1.
         11    1    1    2    0    0  0.20244631935E+01  0.34577619866E+02  0.31185022956E+01  0.34776936371E+02  0.00000000000E+00 0.  1.
<mgrwt>
<rscale>  0 0.11859626E+03</rscale>
<asrwt>0</asrwt>
<pdfrwt beam="2">  1        2 0.20097322E-01 0.12790973E+03</pdfrwt>
<pdfrwt beam="1">  1       -2 0.14722604E-01 0.12790973E+03</pdfrwt>
<totfact> 0.91448913E+03</totfact>
</mgrwt>
</event>
<event>
 7    1  0.4230786E-006  0.1725430E+03  0.7546771E-02  0.1179116E+00
         -2   -1    0    0    0  501 -0.00000000000E+00  0.00000000000E+00  0.21064702370E+03  0.21064702370E+03  0.00000000000E+00 0.  1.
          2   -1    0    0  501    0  0.00000000000E+00 -0.00000000000E+00 -0.16826882684E+03  0.16826882684E+03  0.00000000000E+00 0. -1.
         23    2    1    2    0    0  0.24928350187E+02 -0.11628577907E+03  0.11256593586E+03  0.20601502631E+03  0.12500918403E+03 0.  0.
          5    1    3    3  502    0  0.20047336230E+02  0.15977959029E+02  0.56456651947E+02  0.62182267679E+02  0.47000000000E+01 0. -1.
         -5    1    3    3    0  502  0.48810139575E+01 -0.13226373810E+03  0.56109283910E+02  0.14383275863E+03  0.47000000000E+01 0. -1.
        -11    1    1    2    0    0 -0.98755894152E+01  0.52998890032E+02  0.23526643436E+02  0.58821021432E+02  0.00000000000E+00 0.  1.
         11    1    1    2    0    0 -0.15052760772E+02  0.63286889040E+02 -0.93714382437E+02  0.11407980280E+03  0.00000000000E+00 0. -1.
<mgrwt>
<rscale>  0 0.16879006E+03</rscale>
<asrwt>0</asrwt>
<pdfrwt beam="2">  1        2 0.25887512E-01 0.17254304E+03</pdfrwt>
<pdfrwt beam="1">  1       -2 0.32407234E-01 0.17254304E+03</pdfrwt>
<totfact> 0.18041000E+03</totfact>
</mgrwt>
</event>
<event>
 6    1  0.4230786E-006  0.3199579E+03  0.7546771E-02  0.1075669E+00
          2   -1    0    0  501    0  0.00000000000E+00  0.00000000000E+00  0.27236773351E+03  0.27236773351E+03  0.00000000000E+00 0. -1.
         -2   -1    0    0    0  501 -0.00000000000E+00 -0.00000000000E+00 -0.93965840816E+02  0.93965840816E+02  0.00000000000E+00 0.  1.
          5    1    1    2  502    0  0.14007457368E+00  0.60551800318E+01  0.81679256991E+02  0.82038258445E+02  0.47000000000E+01 0. -1.
         -5    1    1    2    0  502  0.76544792991E+02  0.70885934280E+02 -0.11651979134E+02  0.10507987262E+03  0.47000000000E+01 0.  1.
        -11    1    1    2    0    0 -0.84518990109E+02 -0.23762009284E+02  0.78196923672E+02  0.11757062408E+03  0.00000000000E+00 0. -1.
         11    1    1    2    0    0  0.78341225448E+01 -0.53179105028E+02  0.30177691164E+02  0.61644819179E+02  0.00000000000E+00 0.  1.
<mgrwt>
<rscale>  0 0.31995789E+03</rscale>
<asrwt>0</asrwt>
<pdfrwt beam="1">  1        2 0.41902728E-01 0.31995789E+03</pdfrwt>
<pdfrwt beam="2">  1       -2 0.14456283E-01 0.31995789E+03</pdfrwt>
<totfact> 0.44227057E+03</totfact>
</mgrwt>
</event>
<event>
 7    1  0.4230786E-006  0.1304569E+03  0.7546771E-02  0.1242169E+00
          1   -1    0    0  501    0  0.00000000000E+00  0.00000000000E+00  0.88374029183E+02  0.88374029183E+02  0.00000000000E+00 0. -1.
         -1   -1    0    0    0  501 -0.00000000000E+00 -0.00000000000E+00 -0.14896806658E+03  0.14896806658E+03  0.00000000000E+00 0.  1.
         23    2    1    2    0    0  0.35394025219E+02 -0.11929659128E+02 -0.56284973449E+02  0.14208095017E+03  0.12499577744E+03 0.  0.
          5    1    3    3  502    0 -0.39909102891E+02  0.91741351255E+00 -0.51591653156E+02  0.65401581147E+02  0.47000000000E+01 0. -1.
         -5    1    3    3    0  502  0.75303128109E+02 -0.12847072641E+02 -0.46933202929E+01  0.76679369024E+02  0.47000000000E+01 0. -1.
        -11    1    1    2    0    0 -0.45479669722E+02 -0.47832496485E+01 -0.35891369006E+02  0.58133210856E+02  0.00000000000E+00 0.  1.
         11    1    1    2    0    0  0.10085644503E+02  0.16712908777E+02  0.31582305060E+02  0.37127934736E+02  0.00000000000E+00 0. -1.
<mgrwt>
<rscale>  0 0.12056410E+03</rscale>
<asrwt>0</asrwt>
<pdfrwt beam="1">  1        1 0.13596005E-01 0.13045688E+03</pdfrwt>
<pdfrwt beam="2">  1       -1 0.22918164E-01 0.13045688E+03</pdfrwt>
<totfact> 0.64672305E+03</totfact>
</mgrwt>
</event>
<event>
 7    1  0.4230786E-006  0.1516380E+03  0.7546771E-02  0.1207277E+00
          2   -1    0    0  501    0  0.00000000000E+00  0.00000000000E+00  0.10897232497E+03  0.10897232497E+03  0.00000000000E+00 0.  1.
         -2   -1    0    0    0  501 -0.00000000000E+00 -0.00000000000E+00 -0.17706230630E+03  0.17706230630E+03  0.00000000000E+00 0. -1.
         23    2    1    2    0    0 -0.79254563588E+02  0.32959762064E+02 -0.48100722035E+02  0.15908413497E+03  0.12500580297E+03 0.  0.
          5    1    3    3  502    0  0.26450376472E+02  0.12617039665E+02 -0.41651152641E+02  0.51144116198E+02  0.47000000000E+01 0.  1.
         -5    1    3    3    0  502 -0.10570494006E+03  0.20342722399E+02 -0.64495693944E+01  0.10794001878E+03  0.47000000000E+01 0.  1.
        -11    1    1    2    0    0  0.51018045629E+02 -0.53096093230E+02  0.17700884965E+02  0.75732142612E+02  0.00000000000E+00 0.  1.
         11    1    1    2    0    0  0.28236517959E+02  0.20136331166E+02 -0.37690144261E+02  0.51218353680E+02  0.00000000000E+00 0. -1.
<mgrwt>
<rscale>  0 0.14459449E+03</rscale>
<asrwt>0</asrwt>
<pdfrwt beam="1">  1        2 0.16764973E-01 0.15163800E+03</pdfrwt>
<pdfrwt beam="2">  1       -2 0.27240355E-01 0.15163800E+03</pdfrwt>
<totfact> 0.40098059E+03</totfact>
</mgrwt>
</event>
<event>
 7    1  0.4230786E-006  0.1848771E+03  0.7546771E-02  0.1168507E+00
         -1   -1    0    0    0  501 -0.00000000000E+00  0.00000000000E+00  0.47372967579E+03  0.47372967579E+03  0.00000000000E+00 0.  1.
          1   -1    0    0  501    0  0.00000000000E+00 -0.00000000000E+00 -0.11324192608E+03  0.11324192608E+03  0.00000000000E+00 0. -1.
         23    2    1    2    0    0 -0.11994600156E+03  0.64553304926E+02  0.37976336735E+03  0.42237396410E+03  0.12500151158E+03 0.  0.
          5    1    3    3  502    0  0.10611324276E+02  0.38926428523E+02  0.16305568907E+03  0.16803902755E+03  0.47000000000E+01 0. -1.
         -5    1    3    3    0  502 -0.13055732584E+03  0.25626876403E+02  0.21670767828E+03  0.25433493655E+03  0.47000000000E+01 0. -1.
        -11    1    1    2    0    0  0.30642784123E+02 -0.61349172897E+02 -0.29503412114E+02  0.74653550219E+02  0.00000000000E+00 0. -1.
         11    1    1    2    0    0  0.89303217439E+02 -0.32041320295E+01  0.10227794470E+02  0.89944087558E+02  0.00000000000E+00 0.  1.
<mgrwt>
<rscale>  0 0.17927454E+03</rscale>
<asrwt>0</asrwt>
<pdfrwt beam="2">  1        1 0.17421835E-01 0.18487712E+03</pdfrwt>
<pdfrwt beam="1">  1       -1 0.72881488E-01 0.18487712E+03</pdfrwt>
<totfact> 0.60462505E+02</totfact>
</mgrwt>
</event>
<event>
 7    1  0.4230786E-006  0.1329442E+03  0.7546771E-02  0.1273050E+00
          2   -1    0    0  501    0  0.00000000000E+00  0.00000000000E+00  0.34191779210E+03  0.34191779210E+03  0.00000000000E+00 0. -1.
         -2   -1    0    0    0  501 -0.00000000000E+00 -0.00000000000E+00 -0.24174917296E+02  0.24174917296E+02  0.00000000000E+00 0.  1.
         23    2    1    2    0    0 -0.45262743371E+02 -0.44301089842E-01  0.23294820545E+03  0.26821452218E+03  0.12500178234E+03 0.  0.
          5    1    3    3  502    0 -0.49907550314E+02 -0.47606812141E+02  0.70182308638E+02  0.98513037647E+02  0.47000000000E+01 0. -1.
         -5    1    3    3    0  502  0.46448069430E+01  0.47562511051E+02  0.16276589681E+03  0.16970148454E+03  0.47000000000E+01 0. -1.
        -11    1    1    2    0    0  0.33796608606E+02 -0.50437467348E+01  0.73257561319E+02  0.80835143500E+02  0.00000000000E+00 0.  1.
         11    1    1    2    0    0  0.11466134765E+02  0.50880478247E+01  0.11537108034E+02  0.17043043710E+02  0.00000000000E+00 0. -1.
<mgrwt>
<rscale>  0 0.10352659E+03</rscale>
<asrwt>0</asrwt>
<pdfrwt beam="1">  1        2 0.52602734E-01 0.13294421E+03</pdfrwt>
<pdfrwt beam="2">  1       -2 0.37192183E-02 0.13294421E+03</pdfrwt>
<totfact> 0.27023024E+04</totfact>
</mgrwt>
</event>
<event>
 7    1  0.4230786E-006  0.1542660E+03  0.7546771E-02  0.1203112E+00
         -2   -1    0    0    0  501 -0.00000000000E+00  0.00000000000E+00  0.31137008886E+02  0.31137008886E+02  0.00000000000E+00 0.  1.
          2   -1    0    0  501    0  0.00000000000E+00 -0.00000000000E+00 -0.89499399927E+03  0.89499399927E+03  0.00000000000E+00 0. -1.
         23    2    1    2    0    0 -0.88527850540E+02 -0.18317312697E+02 -0.21671439385E+03  0.26601338582E+03  0.12500115466E+03 0.  0.
          5    1    3    3  502    0 -0.47479736799E+02  0.44671359141E+02 -0.15641540246E+03  0.16952204536E+03  0.47000000000E+01 0. -1.
         -5    1    3    3    0  502 -0.41048113740E+02 -0.62988671838E+02 -0.60298991392E+02  0.96491340463E+02  0.47000000000E+01 0. -1.
        -11    1    1    2    0    0  0.17961588666E+02  0.48849933133E+02 -0.30815832243E+03  0.31252277728E+03  0.00000000000E+00 0.  1.
         11    1    1    2    0    0  0.70566261873E+02 -0.30532620436E+02 -0.33898427409E+03  0.34759484505E+03  0.00000000000E+00 0. -1.
<mgrwt>
<rscale>  0 0.14787216E+03</rscale>
<asrwt>0</asrwt>
<pdfrwt beam="2">  1        2 0.13769135E+00 0.15426598E+03</pdfrwt>
<pdfrwt beam="1">  1       -2 0.47903102E-02 0.15426598E+03</pdfrwt>
<totfact> 0.62432375E+03</totfact>
</mgrwt>
</event>
<event>
 7    1  0.4230786E-006  0.1338123E+03  0.7546771E-02  0.1240062E+00
         -1   -1    0    0    0  501 -0.00000000000E+00  0.00000000000E+00  0.18735822132E+03  0.18735822132E+03  0.00000000000E+00 0.  1.
          1   -1    0    0  501    0  0.00000000000E+00 -0.00000000000E+00 -0.70253263270E+02  0.70253263270E+02  0.00000000000E+00 0. -1.
         23    2    1    2    0    0  0.44839466352E+02 -0.16412194971E+02  0.91431866037E+02  0.16206641335E+03  0.12500319325E+03 0.  0.
          5    1    3    3  502    0  0.19942734755E+02 -0.61401543104E+02  0.97880044599E+01  0.65465694805E+02  0.47000000000E+01 0.  1.
         -5    1    3    3    0  502  0.24896731597E+02  0.44989348133E+02  0.81643861577E+02  0.96600718542E+02  0.47000000000E+01 0.  1.
        -11    1    1    2    0    0 -0.39598102358E+02  0.45477245239E+02  0.72473747896E+01  0.60734783989E+02  0.00000000000E+00 0. -1.
         11    1    1    2    0    0 -0.52413639947E+01 -0.29065050267E+02  0.18425717224E+02  0.34810287255E+02  0.00000000000E+00 0.  1.
<mgrwt>
<rscale>  0 0.12185852E+03</rscale>
<asrwt>0</asrwt>
<pdfrwt beam="2">  1        1 0.10808194E-01 0.13381232E+03</pdfrwt>
<pdfrwt beam="1">  1       -1 0.28824341E-01 0.13381232E+03</pdfrwt>
<totfact> 0.59986922E+03</totfact>
</mgrwt>
</event>
<event>
 7    1  0.4230786E-006  0.1713112E+03  0.7546771E-02  0.1182842E+00
          1   -1    0    0  501    0  0.00000000000E+00  0.00000000000E+00  0.10242408434E+04  0.10242408434E+04  0.00000000000E+00 0. -1.
         -1   -1    0    0    0  501 -0.00000000000E+00 -0.00000000000E+00 -0.26360385706E+02  0.26360385706E+02  0.00000000000E+00 0.  1.
         23    2    1    2    0    0  0.28959180993E+01  0.11711721758E+03  0.41203166776E+03  0.44622599536E+03  0.12499085848E+03 0.  0.
          5    1    3    3  502    0  0.33126684979E+02  0.13867835799E+02  0.24383236846E+03  0.24650762268E+03  0.47000000000E+01 0. -1.
         -5    1    3    3    0  502 -0.30230766880E+02  0.10324938178E+03  0.16819929930E+03  0.19971837268E+03  0.47000000000E+01 0. -1.
        -11    1    1    2    0    0 -0.45952782738E+02 -0.50618829560E+02  0.23837211100E+03  0.24798223212E+03  0.00000000000E+00 0. -1.
         11    1    1    2    0    0  0.43056864638E+02 -0.66498388016E+02  0.34747667899E+03  0.35639300167E+03  0.00000000000E+00 0.  1.
<mgrwt>
<rscale>  0 0.16529777E+03</rscale>
<asrwt>0</asrwt>
<pdfrwt beam="1">  1        1 0.15757548E+00 0.17131125E+03</pdfrwt>
<pdfrwt beam="2">  1       -1 0.40554448E-02 0.17131125E+03</pdfrwt>
<totfact> 0.36522966E+03</totfact>
</mgrwt>
</event>
<event>
 7    1  0.4230786E-006  0.1441319E+03  0.7546771E-02  0.1218714E+00
          1   -1    0    0  501    0  0.00000000000E+00  0.00000000000E+00  0.50631825836E+02  0.50631825836E+02  0.00000000000E+00 0. -1.
         -1   -1    0    0    0  501 -0.00000000000E+00 -0.00000000000E+00 -0.33421238385E+03  0.33421238385E+03  0.00000000000E+00 0.  1.
         23    2    1    2    0    0 -0.66304992284E+02  0.26874106310E+02 -0.13708895011E+03  0.19891555592E+03  0.12512173494E+03 0.  0.
          5    1    3    3  502    0 -0.89610525786E+02  0.40031476149E+02 -0.14058480353E+03  0.17151892723E+03  0.47000000000E+01 0.  1.
         -5    1    3    3    0  502  0.23305533502E+02 -0.13157369839E+02  0.34958534166E+01  0.27396628698E+02  0.47000000000E+01 0.  1.
        -11    1    1    2    0    0  0.57255347782E+02 -0.56802083099E+02 -0.12183025451E+03  0.14610702381E+03  0.00000000000E+00 0.  1.
         11    1    1    2    0    0  0.90496445015E+01  0.29927976789E+02 -0.24661353393E+02  0.39821629945E+02  0.00000000000E+00 0. -1.
<mgrwt>
<rscale>  0 0.13607213E+03</rscale>
<asrwt>0</asrwt>
<pdfrwt beam="1">  1        1 0.77895119E-02 0.14413195E+03</pdfrwt>
<pdfrwt beam="2">  1       -1 0.51417288E-01 0.14413195E+03</pdfrwt>
<totfact> 0.33931065E+03</totfact>
</mgrwt>
</event>
<event>
 7    1  0.4230786E-006  0.1248625E+03  0.7546771E-02  0.1242948E+00
         -2   -1    0    0    0  501 -0.00000000000E+00  0.00000000000E+00  0.66196335164E+03  0.66196335164E+03  0.00000000000E+00 0.  1.
          2   -1    0    0  501    0  0.00000000000E+00 -0.00000000000E+00 -0.90723009757E+02  0.90723009757E+02  0.00000000000E+00 0. -1.
         23    2    1    2    0    0 -0.50677910537E+02 -0.27932336090E+02  0.62199414962E+03  0.63440315347E+03  0.11064435348E+03 0.  0.
          5    1    3    3  502    0 -0.37856700770E+02 -0.69234401626E+02  0.33963438656E+03  0.34871211435E+03  0.47000000000E+01 0. -1.
         -5    1    3    3    0  502 -0.12821209767E+02  0.41302065536E+02  0.28235976307E+03  0.28569103913E+03  0.47000000000E+01 0.  1.
        -11    1    1    2    0    0  0.27975155607E+02  0.58826765049E+02 -0.45791248268E+02  0.79624343233E+02  0.00000000000E+00 0.  1.
         11    1    1    2    0    0  0.22702754929E+02 -0.30894428959E+02 -0.49625594786E+01  0.38658864684E+02  0.00000000000E+00 0. -1.
<mgrwt>
<rscale>  0 0.12009040E+03</rscale>
<asrwt>0</asrwt>
<pdfrwt beam="2">  1        2 0.13957387E-01 0.12486248E+03</pdfrwt>
<pdfrwt beam="1">  1       -2 0.10184051E+00 0.12486248E+03</pdfrwt>
<totfact> 0.34677487E+02</totfact>
</mgrwt>
</event>
<event>
 7    1  0.4230786E-006  0.1285265E+03  0.7546771E-02  0.1244173E+00
          2   -1    0    0  501    0  0.00000000000E+00  0.00000000000E+00  0.92197858391E+02  0.92197858391E+02  0.00000000000E+00 0. -1.
         -2   -1    0    0    0  501 -0.00000000000E+00 -0.00000000000E+00 -0.17693751514E+03  0.17693751514E+03  0.00000000000E+00 0.  1.
         23    2    1    2    0    0  0.14452497900E+02  0.26178677064E+02 -0.11121884829E+03  0.16996674505E+03  0.12499945752E+03 0.  0.
          5    1    3    3  502    0  0.31539194346E+02 -0.26907200336E+02  0.39603136429E+01  0.41910527246E+02  0.47000000000E+01 0.  1.
         -5    1    3    3    0  502 -0.17086696446E+02  0.53085877401E+02 -0.11517916194E+03  0.12805621781E+03  0.47000000000E+01 0.  1.
        -11    1    1    2    0    0  0.33189925215E+02  0.97682419725E+01  0.17640827984E+02  0.38835402650E+02  0.00000000000E+00 0. -1.
         11    1    1    2    0    0 -0.47642423115E+02 -0.35946919037E+02  0.88383635589E+01  0.60333225829E+02  0.00000000000E+00 0.  1.
<mgrwt>
<rscale>  0 0.11935010E+03</rscale>
<asrwt>0</asrwt>
<pdfrwt beam="1">  1        2 0.14184286E-01 0.12852650E+03</pdfrwt>
<pdfrwt beam="2">  1       -2 0.27221156E-01 0.12852650E+03</pdfrwt>
<totfact> 0.48298249E+03</totfact>
</mgrwt>
</event>
<event>
 7    1  0.4230786E-006  0.1290911E+03  0.7546771E-02  0.1283650E+00
          2   -1    0    0  501    0  0.00000000000E+00  0.00000000000E+00  0.39924899555E+02  0.39924899555E+02  0.00000000000E+00 0. -1.
         -2   -1    0    0    0  501 -0.00000000000E+00 -0.00000000000E+00 -0.20275653787E+03  0.20275653787E+03  0.00000000000E+00 0.  1.
         23    2    1    2    0    0 -0.43405162458E+01 -0.36828996978E+02 -0.14850576546E+03  0.19677007650E+03  0.12364985051E+03 0.  0.
          5    1    3    3  502    0 -0.60014154820E+02 -0.36592005945E+02 -0.10260561059E+03  0.12446154025E+03  0.47000000000E+01 0. -1.
         -5    1    3    3    0  502  0.55673638574E+02 -0.23699103341E+00 -0.45900154867E+02  0.72308536243E+02  0.47000000000E+01 0.  1.
        -11    1    1    2    0    0 -0.29331401549E+01  0.27512294176E+02 -0.43409719439E+00  0.27671611489E+02  0.00000000000E+00 0. -1.
         11    1    1    2    0    0  0.72736564007E+01  0.93167028019E+01 -0.13891775666E+02  0.18239749442E+02  0.00000000000E+00 0.  1.
<mgrwt>
<rscale>  0 0.98421774E+02</rscale>
<asrwt>0</asrwt>
<pdfrwt beam="1">  1        2 0.61422922E-02 0.12909106E+03</pdfrwt>
<pdfrwt beam="2">  1       -2 0.31193314E-01 0.12909106E+03</pdfrwt>
<totfact> 0.10625701E+04</totfact>
</mgrwt>
</event>
<event>
 7    1  0.4230786E-006  0.1870344E+03  0.7546771E-02  0.1166769E+00
          2   -1    0    0  501    0  0.00000000000E+00  0.00000000000E+00  0.26884193236E+03  0.26884193236E+03  0.00000000000E+00 0. -1.
         -2   -1    0    0    0  501 -0.00000000000E+00 -0.00000000000E+00 -0.11480705121E+03  0.11480705121E+03  0.00000000000E+00 0.  1.
         23    2    1    2    0    0 -0.12991499123E+03  0.49790283262E+02  0.84534962372E+02  0.20525115661E+03  0.12499960070E+03 0.  0.
          5    1    3    3  502    0  0.90191327806E+01  0.39355152062E+02 -0.28071874181E+01  0.40744853063E+02  0.47000000000E+01 0.  1.
         -5    1    3    3    0  502 -0.13893412401E+03  0.10435131200E+02  0.87342149790E+02  0.16450630355E+03  0.47000000000E+01 0.  1.
        -11    1    1    2    0    0  0.14019655541E+03 -0.36709572251E+02  0.71569432109E+02  0.16163183614E+03  0.00000000000E+00 0.  1.
         11    1    1    2    0    0 -0.10281564177E+02 -0.13080711011E+02 -0.20695133280E+01  0.16765990811E+02  0.00000000000E+00 0. -1.
<mgrwt>
<rscale>  0 0.18107258E+03</rscale>
<asrwt>0</asrwt>
<pdfrwt beam="1">  1        2 0.41360297E-01 0.18703443E+03</pdfrwt>
<pdfrwt beam="2">  1       -2 0.17662623E-01 0.18703443E+03</pdfrwt>
<totfact> 0.31433937E+03</totfact>
</mgrwt>
</event>
<event>
 7    1  0.4230786E-006  0.1415396E+03  0.7546771E-02  0.1221994E+00
         -1   -1    0    0    0  501 -0.00000000000E+00  0.00000000000E+00  0.11931871129E+03  0.11931871129E+03  0.00000000000E+00 0.  1.
          1   -1    0    0  501    0  0.00000000000E+00 -0.00000000000E+00 -0.13641890801E+03  0.13641890801E+03  0.00000000000E+00 0. -1.
         23    2    1    2    0    0  0.49520884107E+02  0.44142912761E+02  0.30928418268E+00  0.14153989804E+03  0.12503012585E+03 0.  0.
          5    1    3    3  502    0  0.22530069424E+01  0.43254192627E+02 -0.53999517508E+02  0.69383276885E+02  0.47000000000E+01 0. -1.
         -5    1    3    3    0  502  0.47267877164E+02  0.88872013347E+00  0.54308801691E+02  0.72156621153E+02  0.47000000000E+01 0. -1.
        -11    1    1    2    0    0 -0.30706590966E+02 -0.27138366696E+02  0.36336068435E+02  0.54769476399E+02  0.00000000000E+00 0.  1.
         11    1    1    2    0    0 -0.18814293140E+02 -0.17004546064E+02 -0.53745549344E+02  0.59428244863E+02  0.00000000000E+00 0. -1.
<mgrwt>
<rscale>  0 0.13375073E+03</rscale>
<asrwt>0</asrwt>
<pdfrwt beam="2">  1        1 0.20987524E-01 0.14153956E+03</pdfrwt>
<pdfrwt beam="1">  1       -1 0.18356725E-01 0.14153956E+03</pdfrwt>
<totfact> 0.53209319E+03</totfact>
</mgrwt>
</event>
<event>
 7    1  0.4230786E-006  0.1303664E+03  0.7546771E-02  0.1239858E+00
          1   -1    0    0  501    0  0.00000000000E+00  0.00000000000E+00  0.65463592865E+03  0.65463592865E+03  0.00000000000E+00 0. -1.
         -1   -1    0    0    0  501 -0.00000000000E+00 -0.00000000000E+00 -0.28002889737E+02  0.28002889737E+02  0.00000000000E+00 0.  1.
         23    2    1    2    0    0 -0.35864555756E+02 -0.91817953732E+01  0.16486770380E+03  0.21018267189E+03  0.12499929633E+03 0.  0.
          5    1    3    3  502    0  0.39089212206E+02 -0.20843450532E+02  0.10287093726E+03  0.11210234464E+03  0.47000000000E+01 0. -1.
         -5    1    3    3    0  502 -0.74953767962E+02  0.11661655159E+02  0.61996766541E+02  0.98080327254E+02  0.47000000000E+01 0. -1.
        -11    1    1    2    0    0 -0.24586028206E+02 -0.20338054764E+02  0.12265879009E+03  0.12674102746E+03  0.00000000000E+00 0.  1.
         11    1    1    2    0    0  0.60450583962E+02  0.29519850137E+02  0.33910654502E+03  0.34571511904E+03  0.00000000000E+00 0. -1.
<mgrwt>
<rscale>  0 0.12198510E+03</rscale>
<asrwt>0</asrwt>
<pdfrwt beam="1">  1        1 0.10071321E+00 0.13036639E+03</pdfrwt>
<pdfrwt beam="2">  1       -1 0.43081374E-02 0.13036639E+03</pdfrwt>
<totfact> 0.65765643E+03</totfact>
</mgrwt>
</event>
<event>
 7    1  0.4230786E-006  0.1586977E+03  0.7546771E-02  0.1193620E+00
          2   -1    0    0  501    0  0.00000000000E+00  0.00000000000E+00  0.98270262473E+03  0.98270262473E+03  0.00000000000E+00 0. -1.
         -2   -1    0    0    0  501 -0.00000000000E+00 -0.00000000000E+00 -0.51444916802E+02  0.51444916802E+02  0.00000000000E+00 0.  1.
         23    2    1    2    0    0  0.11274418888E+03  0.15674196814E+02  0.94807295315E+02  0.18486048273E+03  0.11058047865E+03 0.  0.
          5    1    3    3  502    0  0.18213125426E+01  0.31919726915E+01  0.70209818841E+02  0.70462859229E+02  0.47000000000E+01 0. -1.
         -5    1    3    3    0  502  0.11092287634E+03  0.12482224123E+02  0.24597476474E+02  0.11439762350E+03  0.47000000000E+01 0.  1.
        -11    1    1    2    0    0  0.94079066016E+01 -0.22619235878E+02  0.12182361167E+03  0.12426234706E+03  0.00000000000E+00 0.  1.
         11    1    1    2    0    0 -0.12215209548E+03  0.69450390636E+01  0.71462680095E+03  0.72502471174E+03  0.00000000000E+00 0. -1.
<mgrwt>
<rscale>  0 0.15571601E+03</rscale>
<asrwt>0</asrwt>
<pdfrwt beam="1">  1        2 0.15118501E+00 0.15869775E+03</pdfrwt>
<pdfrwt beam="2">  1       -2 0.79146033E-02 0.15869775E+03</pdfrwt>
<totfact> 0.25638851E+03</totfact>
</mgrwt>
</event>
<event>
 7    1  0.4230786E-006  0.1493398E+03  0.7546771E-02  0.1216286E+00
          3   -1    0    0  501    0  0.00000000000E+00  0.00000000000E+00  0.33692023395E+03  0.33692023395E+03  0.00000000000E+00 0. -1.
         -3   -1    0    0    0  501 -0.00000000000E+00 -0.00000000000E+00 -0.52766749988E+02  0.52766749988E+02  0.00000000000E+00 0.  1.
         23    2    1    2    0    0 -0.24596690244E+02 -0.77930255382E+02  0.11361405592E+03  0.18764465204E+03  0.12499695941E+03 0.  0.
          5    1    3    3  502    0 -0.53316269968E+02  0.11460347049E+02  0.50000897550E+02  0.74135982853E+02  0.47000000000E+01 0. -1.
         -5    1    3    3    0  502  0.28719579724E+02 -0.89390602430E+02  0.63613158367E+02  0.11350866918E+03  0.47000000000E+01 0. -1.
        -11    1    1    2    0    0  0.33149884105E+02  0.44501379530E+01  0.41484768700E+02  0.53288878559E+02  0.00000000000E+00 0.  1.
         11    1    1    2    0    0 -0.85531938610E+01  0.73480117429E+02  0.12905465935E+03  0.14875345334E+03  0.00000000000E+00 0. -1.
<mgrwt>
<rscale>  0 0.13782503E+03</rscale>
<asrwt>0</asrwt>
<pdfrwt beam="1">  1        3 0.51833881E-01 0.14933975E+03</pdfrwt>
<pdfrwt beam="2">  1       -3 0.81179617E-02 0.14933975E+03</pdfrwt>
<totfact> 0.90679948E+02</totfact>
</mgrwt>
</event>
<event>
 7    1  0.5012297E-006  0.1604504E+03  0.7546771E-02  0.1195752E+00
          1   -1    0    0  501    0  0.00000000000E+00  0.00000000000E+00  0.89616535457E+03  0.89616535457E+03  0.00000000000E+00 0. -1.
         -1   -1    0    0    0  501 -0.00000000000E+00 -0.00000000000E+00 -0.26801058074E+02  0.26801058074E+02  0.00000000000E+00 0.  1.
         23    2    1    2    0    0 -0.30921216367E+02 -0.95726458450E+02  0.33257163097E+03  0.36925361578E+03  0.12499866629E+03 0.  0.
          5    1    3    3  502    0 -0.63482726013E+02 -0.10269474164E+03  0.29525330153E+03  0.31901860216E+03  0.47000000000E+01 0.  1.
         -5    1    3    3    0  502  0.32561509647E+02  0.69682831916E+01  0.37318329441E+02  0.50235013620E+02  0.47000000000E+01 0.  1.
        -11    1    1    2    0    0 -0.27775363790E+02  0.61934270948E+02  0.25258020553E+03  0.26154174615E+03  0.00000000000E+00 0.  1.
         11    1    1    2    0    0  0.58696580156E+02  0.33792187502E+02  0.28421245999E+03  0.29217105071E+03  0.00000000000E+00 0. -1.
<mgrwt>
<rscale>  0 0.15390744E+03</rscale>
<asrwt>0</asrwt>
<pdfrwt beam="1">  1        1 0.13787157E+00 0.16045044E+03</pdfrwt>
<pdfrwt beam="2">  1       -1 0.41232404E-02 0.16045044E+03</pdfrwt>
<totfact> 0.44393301E+03</totfact>
</mgrwt>
</event>
<event>
 7    1  0.4230786E-006  0.2546158E+03  0.7546771E-02  0.1112892E+00
         -1   -1    0    0    0  501 -0.00000000000E+00  0.00000000000E+00  0.18210927901E+03  0.18210927901E+03  0.00000000000E+00 0.  1.
          1   -1    0    0  501    0  0.00000000000E+00 -0.00000000000E+00 -0.33605666253E+03  0.33605666253E+03  0.00000000000E+00 0. -1.
         23    2    1    2    0    0  0.10979124860E+03 -0.19274027069E+03 -0.95954759484E+02  0.27209654570E+03  0.12500513629E+03 0.  0.
          5    1    3    3  502    0  0.84703850707E+02 -0.91220519899E+02  0.76625650133E+01  0.12480677256E+03  0.47000000000E+01 0.  1.
         -5    1    3    3    0  502  0.25087397894E+02 -0.10151975079E+03 -0.10361732450E+03  0.14728977313E+03  0.47000000000E+01 0.  1.
        -11    1    1    2    0    0 -0.39987919747E+01  0.13152895053E+02 -0.33491081695E+02  0.36202783576E+02  0.00000000000E+00 0. -1.
         11    1    1    2    0    0 -0.10579245663E+03  0.17958737563E+03 -0.24501542342E+02  0.20986661226E+03  0.00000000000E+00 0.  1.
<mgrwt>
<rscale>  0 0.25065490E+03</rscale>
<asrwt>0</asrwt>
<pdfrwt beam="2">  1        1 0.51701024E-01 0.25461582E+03</pdfrwt>
<pdfrwt beam="1">  1       -1 0.28016812E-01 0.25461582E+03</pdfrwt>
<totfact> 0.87240089E+02</totfact>
</mgrwt>
</event>
<event>
 7    1  0.4230786E-006  0.1585221E+03  0.7546771E-02  0.1198068E+00
         -1   -1    0    0    0  501 -0.00000000000E+00  0.00000000000E+00  0.35971730232E+02  0.35971730232E+02  0.00000000000E+00 0.  1.
          1   -1    0    0  501    0  0.00000000000E+00 -0.00000000000E+00 -0.64296246030E+03  0.64296246030E+03  0.00000000000E+00 0. -1.
         23    2    1    2    0    0  0.28062096015E+01  0.97446465393E+02 -0.23404709706E+03  0.28267877432E+03  0.12500222949E+03 0.  0.
          5    1    3    3  502    0 -0.42433457845E+02  0.80548061385E+02 -0.20912558855E+03  0.22813195814E+03  0.47000000000E+01 0.  1.
         -5    1    3    3    0  502  0.45239667447E+02  0.16898404008E+02 -0.24921508508E+02  0.54546816177E+02  0.47000000000E+01 0.  1.
        -11    1    1    2    0    0 -0.31562181586E+02 -0.10187856600E+02 -0.17385463559E+03  0.17698982469E+03  0.00000000000E+00 0. -1.
         11    1    1    2    0    0  0.28755971984E+02 -0.87258608794E+02 -0.19908899742E+03  0.21926559153E+03  0.00000000000E+00 0.  1.
<mgrwt>
<rscale>  0 0.15197392E+03</rscale>
<asrwt>0</asrwt>
<pdfrwt beam="2">  1        1 0.98917298E-01 0.15852207E+03</pdfrwt>
<pdfrwt beam="1">  1       -1 0.55341125E-02 0.15852207E+03</pdfrwt>
<totfact> 0.47003182E+03</totfact>
</mgrwt>
</event>
<event>
 7    1  0.4230786E-006  0.1296581E+03  0.7546771E-02  0.1241161E+00
         -1   -1    0    0    0  501 -0.00000000000E+00  0.00000000000E+00  0.26223493586E+02  0.26223493586E+02  0.00000000000E+00 0.  1.
          1   -1    0    0  501    0  0.00000000000E+00 -0.00000000000E+00 -0.49860109062E+03  0.49860109062E+03  0.00000000000E+00 0. -1.
         23    2    1    2    0    0 -0.19499827284E+02  0.28391199220E+02 -0.26016430596E+03  0.29068315756E+03  0.12499971413E+03 0.  0.
          5    1    3    3  502    0  0.41103591028E+02 -0.16255104379E+02 -0.15515175094E+03  0.16139358547E+03  0.47000000000E+01 0.  1.
         -5    1    3    3    0  502 -0.60603418312E+02  0.44646303599E+02 -0.10501255503E+03  0.12928957208E+03  0.47000000000E+01 0.  1.
        -11    1    1    2    0    0 -0.37205774568E+02 -0.83194743212E+01 -0.69523468721E+02  0.79290579625E+02  0.00000000000E+00 0. -1.
         11    1    1    2    0    0  0.56705601852E+02 -0.20071724899E+02 -0.14268982235E+03  0.15485084702E+03  0.00000000000E+00 0.  1.
<mgrwt>
<rscale>  0 0.12118115E+03</rscale>
<asrwt>0</asrwt>
<pdfrwt beam="2">  1        1 0.76707855E-01 0.12965814E+03</pdfrwt>
<pdfrwt beam="1">  1       -1 0.40343839E-02 0.12965814E+03</pdfrwt>
<totfact> 0.10437589E+04</totfact>
</mgrwt>
</event>
<event>
 7    1  0.4230786E-006  0.1752742E+03  0.7546771E-02  0.1178389E+00
         -2   -1    0    0    0  501 -0.00000000000E+00  0.00000000000E+00  0.25011650661E+02  0.25011650661E+02  0.00000000000E+00 0.  1.
          2   -1    0    0  501    0  0.00000000000E+00 -0.00000000000E+00 -0.11038611520E+04  0.11038611520E+04  0.00000000000E+00 0. -1.
         23    2    1    2    0    0  0.85990390734E+02 -0.87757310481E+02 -0.48966939012E+03  0.52009340988E+03  0.12500140216E+03 0.  0.
          5    1    3    3  502    0  0.93276242344E+02 -0.65828269625E+01 -0.26458016515E+03  0.28065734408E+03  0.47000000000E+01 0. -1.
         -5    1    3    3    0  502 -0.72858516104E+01 -0.81174483519E+02 -0.22508922497E+03  0.23943606580E+03  0.47000000000E+01 0. -1.
        -11    1    1    2    0    0 -0.10725096934E+01  0.58620739336E+02 -0.31076491224E+03  0.31624732732E+03  0.00000000000E+00 0.  1.
         11    1    1    2    0    0 -0.84917881040E+02  0.29136571145E+02 -0.27841519894E+03  0.29253206542E+03  0.00000000000E+00 0. -1.
<mgrwt>
<rscale>  0 0.16948207E+03</rscale>
<asrwt>0</asrwt>
<pdfrwt beam="2">  1        2 0.16982480E+00 0.17527419E+03</pdfrwt>
<pdfrwt beam="1">  1       -2 0.38479460E-02 0.17527419E+03</pdfrwt>
<totfact> 0.65155370E+03</totfact>
</mgrwt>
</event>
<event>
 7    1  0.9656176E-006  0.3697834E+03  0.7546771E-02  0.1055785E+00
          1   -1    0    0  501    0  0.00000000000E+00  0.00000000000E+00  0.26832055431E+03  0.26832055431E+03  0.00000000000E+00 0. -1.
         -1   -1    0    0    0  501 -0.00000000000E+00 -0.00000000000E+00 -0.53276717451E+03  0.53276717451E+03  0.00000000000E+00 0.  1.
         23    2    1    2    0    0  0.34061256116E+03  0.71389867268E+02 -0.24006119869E+03  0.44087319128E+03  0.12500544668E+03 0.  0.
          5    1    3    3  502    0  0.29465947971E+03  0.32698298006E+02 -0.14940930939E+03  0.33202201645E+03  0.47000000000E+01 0. -1.
         -5    1    3    3    0  502  0.45953081448E+02  0.38691569262E+02 -0.90651889302E+02  0.10885117482E+03  0.47000000000E+01 0. -1.
        -11    1    1    2    0    0 -0.10411681827E+03 -0.44769369702E+02 -0.43644435431E+02  0.12144729332E+03  0.00000000000E+00 0.  1.
         11    1    1    2    0    0 -0.23649574289E+03 -0.26620497566E+02  0.19259013931E+02  0.23876724422E+03  0.00000000000E+00 0. -1.
<mgrwt>
<rscale>  0 0.36715677E+03</rscale>
<asrwt>0</asrwt>
<pdfrwt beam="1">  1        1 0.41280085E-01 0.36978344E+03</pdfrwt>
<pdfrwt beam="2">  1       -1 0.81964181E-01 0.36978344E+03</pdfrwt>
<totfact> 0.15623037E+02</totfact>
</mgrwt>
</event>
<event>
 7    1  0.4230786E-006  0.1776428E+03  0.7546771E-02  0.1175709E+00
         -2   -1    0    0    0  501 -0.00000000000E+00  0.00000000000E+00  0.66819427913E+02  0.66819427913E+02  0.00000000000E+00 0.  1.
          2   -1    0    0  501    0  0.00000000000E+00 -0.00000000000E+00 -0.44014446617E+03  0.44014446617E+03  0.00000000000E+00 0. -1.
         23    2    1    2    0    0 -0.17546316537E+02 -0.12498533360E+03 -0.14043269138E+03  0.22644711205E+03  0.12501098715E+03 0.  0.
          5    1    3    3  502    0 -0.19460962860E+02 -0.14495352650E+03 -0.89561833364E+02  0.17156242571E+03  0.47000000000E+01 0.  1.
         -5    1    3    3    0  502  0.19146463228E+01  0.19968192907E+02 -0.50870858017E+02  0.54884686333E+02  0.47000000000E+01 0.  1.
        -11    1    1    2    0    0  0.16080864332E+02  0.44488251156E+02 -0.17518844785E+03  0.18146291894E+03  0.00000000000E+00 0. -1.
         11    1    1    2    0    0  0.14654522050E+01  0.80497082442E+02 -0.57703899025E+02  0.99053863098E+02  0.00000000000E+00 0.  1.
<mgrwt>
<rscale>  0 0.17206690E+03</rscale>
<asrwt>0</asrwt>
<pdfrwt beam="2">  1        2 0.67714536E-01 0.17764277E+03</pdfrwt>
<pdfrwt beam="1">  1       -2 0.10279912E-01 0.17764277E+03</pdfrwt>
<totfact> 0.44566648E+03</totfact>
</mgrwt>
</event>
<event>
 7    1  0.4230786E-006  0.1297437E+03  0.7546771E-02  0.1242353E+00
          2   -1    0    0  501    0  0.00000000000E+00  0.00000000000E+00  0.36994263464E+03  0.36994263464E+03  0.00000000000E+00 0. -1.
         -2   -1    0    0    0  501 -0.00000000000E+00 -0.00000000000E+00 -0.34558712897E+02  0.34558712897E+02  0.00000000000E+00 0.  1.
         23    2    1    2    0    0  0.28705644640E+02  0.18589520288E+02  0.19023282201E+03  0.23026498642E+03  0.12515531592E+03 0.  0.
          5    1    3    3  502    0  0.53282466356E+02 -0.14968070747E+02  0.27015942522E+02  0.61765811848E+02  0.47000000000E+01 0.  1.
         -5    1    3    3    0  502 -0.24576821716E+02  0.33557591036E+02  0.16321687949E+03  0.16849917457E+03  0.47000000000E+01 0.  1.
        -11    1    1    2    0    0  0.94260583327E+00 -0.45990404168E+02  0.11496935238E+03  0.12383035883E+03  0.00000000000E+00 0.  1.
         11    1    1    2    0    0 -0.29648250473E+02  0.27400883880E+02  0.30181747359E+02  0.50406002293E+02  0.00000000000E+00 0. -1.
<mgrwt>
<rscale>  0 0.12045190E+03</rscale>
<asrwt>0</asrwt>
<pdfrwt beam="1">  1        2 0.56914249E-01 0.12974374E+03</pdfrwt>
<pdfrwt beam="2">  1       -2 0.53167253E-02 0.12974374E+03</pdfrwt>
<totfact> 0.14550019E+04</totfact>
</mgrwt>
</event>
<event>
 7    1  0.4230786E-006  0.1575529E+03  0.7546771E-02  0.1198792E+00
         -1   -1    0    0    0  501 -0.00000000000E+00  0.00000000000E+00  0.19559649951E+03  0.19559649951E+03  0.00000000000E+00 0.  1.
          1   -1    0    0  501    0  0.00000000000E+00 -0.00000000000E+00 -0.42424056903E+03  0.42424056903E+03  0.00000000000E+00 0. -1.
         23    2    1    2    0    0 -0.94677330382E+02 -0.15429344630E+02  0.15034016782E+03  0.21777303438E+03  0.12498426652E+03 0.  0.
          5    1    3    3  502    0 -0.62784621808E+02 -0.87864320935E+01  0.16856224736E+03  0.18015113477E+03  0.47000000000E+01 0.  1.
         -5    1    3    3    0  502 -0.31892708574E+02 -0.66429125369E+01 -0.18222079542E+02  0.37621899606E+02  0.47000000000E+01 0.  1.
        -11    1    1    2    0    0  0.69895520003E+02  0.75357009200E+01 -0.36655974391E+03  0.37324015910E+03  0.00000000000E+00 0. -1.
         11    1    1    2    0    0  0.24781810378E+02  0.78936437105E+01 -0.12424493421E+02  0.28823875059E+02  0.00000000000E+00 0.  1.
<mgrwt>
<rscale>  0 0.15137655E+03</rscale>
<asrwt>0</asrwt>
<pdfrwt beam="2">  1        1 0.65267780E-01 0.15755294E+03</pdfrwt>
<pdfrwt beam="1">  1       -1 0.30091769E-01 0.15755294E+03</pdfrwt>
<totfact> 0.57489386E+02</totfact>
</mgrwt>
</event>
<event>
 6    1  0.4230786E-006  0.2592209E+03  0.7546771E-02  0.1107612E+00
          2   -1    0    0  501    0  0.00000000000E+00  0.00000000000E+00  0.37452449241E+03  0.37452449241E+03  0.00000000000E+00 0. -1.
         -2   -1    0    0    0  501 -0.00000000000E+00 -0.00000000000E+00 -0.44853842974E+02  0.44853842974E+02  0.00000000000E+00 0.  1.
          5    1    1    2  502    0  0.37846747876E+02  0.11542041677E+02  0.15192415461E+03  0.15706251559E+03  0.47000000000E+01 0. -1.
         -5    1    1    2    0  502 -0.71478626572E+01 -0.48475593510E+01 -0.30631250790E+02  0.32170705575E+02  0.47000000000E+01 0.  1.
        -11    1    1    2    0    0 -0.63957600308E+02 -0.68703777285E+01  0.14260013673E+03  0.15643713026E+03  0.00000000000E+00 0.  1.
         11    1    1    2    0    0  0.33258715088E+02  0.17589540256E+00  0.65777608889E+02  0.73707983961E+02  0.00000000000E+00 0. -1.
<mgrwt>
<rscale>  0 0.25922085E+03</rscale>
<asrwt>0</asrwt>
<pdfrwt beam="1">  1        2 0.57619150E-01 0.25922085E+03</pdfrwt>
<pdfrwt beam="2">  1       -2 0.69005915E-02 0.25922085E+03</pdfrwt>
<totfact> 0.10117196E+04</totfact>
</mgrwt>
</event>
<event>
 7    1  0.4230786E-006  0.1923343E+03  0.7546771E-02  0.1161277E+00
          1   -1    0    0  501    0  0.00000000000E+00  0.00000000000E+00  0.11304466975E+04  0.11304466975E+04  0.00000000000E+00 0. -1.
         -1   -1    0    0    0  501 -0.00000000000E+00 -0.00000000000E+00 -0.30135897223E+02  0.30135897223E+02  0.00000000000E+00 0.  1.
         23    2    1    2    0    0  0.10237983040E+03 -0.10433553737E+03  0.67821531758E+03  0.70495993786E+03  0.12499985186E+03 0.  0.
          5    1    3    3  502    0  0.12857287750E+03 -0.65839627024E+02  0.47944961430E+03  0.50075928746E+03  0.47000000000E+01 0. -1.
         -5    1    3    3    0  502 -0.26193047102E+02 -0.38495910344E+02  0.19876570327E+03  0.20420065041E+03  0.47000000000E+01 0. -1.
        -11    1    1    2    0    0 -0.66178097187E+02  0.10626276817E+03  0.24813712255E+03  0.27792687533E+03  0.00000000000E+00 0. -1.
         11    1    1    2    0    0 -0.36201733211E+02 -0.19272307983E+01  0.17395836017E+03  0.17769578155E+03  0.00000000000E+00 0.  1.
<mgrwt>
<rscale>  0 0.18691176E+03</rscale>
<asrwt>0</asrwt>
<pdfrwt beam="1">  1        1 0.17391484E+00 0.19233434E+03</pdfrwt>
<pdfrwt beam="2">  1       -1 0.46362928E-02 0.19233434E+03</pdfrwt>
<totfact> 0.25182142E+03</totfact>
</mgrwt>
</event>
<event>
 7    1  0.4230786E-006  0.1335445E+03  0.7546771E-02  0.1236931E+00
          1   -1    0    0  501    0  0.00000000000E+00  0.00000000000E+00  0.16566118734E+03  0.16566118734E+03  0.00000000000E+00 0. -1.
         -1   -1    0    0    0  501 -0.00000000000E+00 -0.00000000000E+00 -0.95709384631E+02  0.95709384631E+02  0.00000000000E+00 0.  1.
         23    2    1    2    0    0 -0.21963462028E+02  0.41572047080E+02 -0.10632952092E+02  0.13396717474E+03  0.12499406175E+03 0.  0.
          5    1    3    3  502    0  0.29492198066E+02  0.60797533947E+02 -0.31905892396E+02  0.74874600836E+02  0.47000000000E+01 0.  1.
         -5    1    3    3    0  502 -0.51455660094E+02 -0.19225486867E+02  0.21272940304E+02  0.59092573900E+02  0.47000000000E+01 0.  1.
        -11    1    1    2    0    0 -0.14224612981E+02  0.13085303773E+02 -0.46475601511E+01  0.19878747563E+02  0.00000000000E+00 0.  1.
         11    1    1    2    0    0  0.36188075009E+02 -0.54657350853E+02  0.85232314947E+02  0.10752464967E+03  0.00000000000E+00 0. -1.
<mgrwt>
<rscale>  0 0.12381600E+03</rscale>
<asrwt>0</asrwt>
<pdfrwt beam="1">  1        1 0.25486337E-01 0.13354454E+03</pdfrwt>
<pdfrwt beam="2">  1       -1 0.14724521E-01 0.13354454E+03</pdfrwt>
<totfact> 0.58779527E+03</totfact>
</mgrwt>
</event>
<event>
 6    1  0.4230786E-006  0.1437223E+03  0.7546771E-02  0.1228022E+00
          2   -1    0    0  501    0  0.00000000000E+00  0.00000000000E+00  0.22819999720E+03  0.22819999720E+03  0.00000000000E+00 0. -1.
         -2   -1    0    0    0  501 -0.00000000000E+00 -0.00000000000E+00 -0.70752527373E+02  0.70752527373E+02  0.00000000000E+00 0.  1.
          5    1    1    2  502    0  0.10102655173E+02  0.32673980184E+01  0.90132595660E+02  0.90877468780E+02  0.47000000000E+01 0. -1.
         -5    1    1    2    0  502 -0.66071664325E+01 -0.34237998241E+02 -0.47428832194E+02  0.59054883753E+02  0.47000000000E+01 0.  1.
        -11    1    1    2    0    0  0.16536780582E+02  0.57415015422E+02  0.57882124861E+02  0.83188277338E+02  0.00000000000E+00 0. -1.
         11    1    1    2    0    0 -0.20032269322E+02 -0.26444415199E+02  0.56861581494E+02  0.65831894697E+02  0.00000000000E+00 0.  1.
<mgrwt>
<rscale>  0 0.12961926E+03</rscale>
<asrwt>0</asrwt>
<pdfrwt beam="1">  1        2 0.35107691E-01 0.14372230E+03</pdfrwt>
<pdfrwt beam="2">  1       -2 0.10885004E-01 0.14372230E+03</pdfrwt>
<totfact> 0.81226794E+03</totfact>
</mgrwt>
</event>
<event>
 6    1  0.4230786E-006  0.2602021E+03  0.7546771E-02  0.1107022E+00
         -1   -1    0    0    0  501 -0.00000000000E+00  0.00000000000E+00  0.35602923741E+02  0.35602923741E+02  0.00000000000E+00 0.  1.
          1   -1    0    0  501    0  0.00000000000E+00 -0.00000000000E+00 -0.47541846624E+03  0.47541846624E+03  0.00000000000E+00 0. -1.
          5    1    1    2  502    0  0.42148306949E+02  0.30360136906E+02 -0.16912521037E+03  0.17698487075E+03  0.47000000000E+01 0. -1.
         -5    1    1    2    0  502  0.63671022490E+00 -0.15916267621E+02  0.19655009462E+02  0.25732127232E+02  0.47000000000E+01 0.  1.
        -11    1    1    2    0    0  0.14952203456E+02 -0.38228166300E+02 -0.10601683522E+03  0.11368610486E+03  0.00000000000E+00 0. -1.
         11    1    1    2    0    0 -0.57737220630E+02  0.23784297015E+02 -0.18432850637E+03  0.19461828715E+03  0.00000000000E+00 0.  1.
<mgrwt>
<rscale>  0 0.26020213E+03</rscale>
<asrwt>0</asrwt>
<pdfrwt beam="2">  1        1 0.73141297E-01 0.26020213E+03</pdfrwt>
<pdfrwt beam="1">  1       -1 0.54773733E-02 0.26020213E+03</pdfrwt>
<totfact> 0.73503762E+03</totfact>
</mgrwt>
</event>
<event>
 7    1  0.4230786E-006  0.1351237E+03  0.7546771E-02  0.1229449E+00
         -1   -1    0    0    0  501 -0.00000000000E+00  0.00000000000E+00  0.48406720315E+03  0.48406720315E+03  0.00000000000E+00 0.  1.
          1   -1    0    0  501    0  0.00000000000E+00 -0.00000000000E+00 -0.37375433999E+02  0.37375433999E+02  0.00000000000E+00 0. -1.
         23    2    1    2    0    0 -0.17760488179E+01  0.67759785520E+02  0.34624446614E+03  0.37167680610E+03  0.11689257879E+03 0.  0.
          5    1    3    3  502    0  0.31873457724E+02 -0.20419204103E+02  0.13446887327E+03  0.13977420750E+03  0.47000000000E+01 0. -1.
         -5    1    3    3    0  502 -0.33649506542E+02  0.88178989623E+02  0.21177559287E+03  0.23190259860E+03  0.47000000000E+01 0.  1.
        -11    1    1    2    0    0 -0.21670443405E+02 -0.40032656941E+02  0.28252704157E+01  0.45609252263E+02  0.00000000000E+00 0. -1.
         11    1    1    2    0    0  0.23446492223E+02 -0.27727128579E+02  0.97622032594E+02  0.10415657879E+03  0.00000000000E+00 0.  1.
<mgrwt>
<rscale>  0 0.12866597E+03</rscale>
<asrwt>0</asrwt>
<pdfrwt beam="2">  1        1 0.57500671E-02 0.13512371E+03</pdfrwt>
<pdfrwt beam="1">  1       -1 0.74471873E-01 0.13512371E+03</pdfrwt>
<totfact> 0.25064383E+03</totfact>
</mgrwt>
</event>
<event>
 7    1  0.4230786E-006  0.1331268E+03  0.7546771E-02  0.1241977E+00
         -1   -1    0    0    0  501 -0.00000000000E+00  0.00000000000E+00  0.24841387217E+02  0.24841387217E+02  0.00000000000E+00 0.  1.
          1   -1    0    0  501    0  0.00000000000E+00 -0.00000000000E+00 -0.56333351219E+03  0.56333351219E+03  0.00000000000E+00 0. -1.
         23    2    1    2    0    0 -0.45780356666E+02  0.12920182933E+01 -0.21912153543E+03  0.25639223957E+03  0.12500089142E+03 0.  0.
          5    1    3    3  502    0 -0.43016942010E+02  0.37814634479E+02 -0.32231703431E+02  0.65889123433E+02  0.47000000000E+01 0.  1.
         -5    1    3    3    0  502 -0.27634146554E+01 -0.36522616186E+02 -0.18688983200E+03  0.19050311614E+03  0.47000000000E+01 0.  1.
        -11    1    1    2    0    0  0.50197692824E+02 -0.22061454547E+02 -0.29219426223E+03  0.29729447190E+03  0.00000000000E+00 0.  1.
         11    1    1    2    0    0 -0.44173361582E+01  0.20769436254E+02 -0.27176327316E+02  0.34488187940E+02  0.00000000000E+00 0. -1.
<mgrwt>
<rscale>  0 0.12068129E+03</rscale>
<asrwt>0</asrwt>
<pdfrwt beam="2">  1        1 0.86666699E-01 0.13312676E+03</pdfrwt>
<pdfrwt beam="1">  1       -1 0.38217517E-02 0.13312676E+03</pdfrwt>
<totfact> 0.96377574E+03</totfact>
</mgrwt>
</event>
<event>
 7    1  0.4230786E-006  0.1296770E+03  0.7546771E-02  0.1242287E+00
          2   -1    0    0  501    0  0.00000000000E+00  0.00000000000E+00  0.29424226808E+03  0.29424226808E+03  0.00000000000E+00 0. -1.
         -2   -1    0    0    0  501 -0.00000000000E+00 -0.00000000000E+00 -0.49455324808E+02  0.49455324808E+02  0.00000000000E+00 0.  1.
         23    2    1    2    0    0  0.26438630022E+01  0.34409200717E+02  0.79163465623E+02  0.15193086376E+03  0.12500059987E+03 0.  0.
          5    1    3    3  502    0  0.12178770515E+02 -0.31429001311E+02 -0.14465060326E+02  0.36978812108E+02  0.47000000000E+01 0.  1.
         -5    1    3    3    0  502 -0.95349075127E+01  0.65838202028E+02  0.93628525950E+02  0.11495205165E+03  0.47000000000E+01 0.  1.
        -11    1    1    2    0    0  0.16655781933E+02 -0.40525993210E+02  0.16582915244E+03  0.17151990846E+03  0.00000000000E+00 0. -1.
         11    1    1    2    0    0 -0.19299644935E+02  0.61167924925E+01 -0.20567479737E+00  0.20246820667E+02  0.00000000000E+00 0.  1.
<mgrwt>
<rscale>  0 0.12049252E+03</rscale>
<asrwt>0</asrwt>
<pdfrwt beam="1">  1        2 0.45268040E-01 0.12967703E+03</pdfrwt>
<pdfrwt beam="2">  1       -2 0.76085117E-02 0.12967703E+03</pdfrwt>
<totfact> 0.10754229E+04</totfact>
</mgrwt>
</event>
<event>
 7    1  0.4230786E-006  0.1273672E+03  0.7546771E-02  0.1246085E+00
         -1   -1    0    0    0  501 -0.00000000000E+00  0.00000000000E+00  0.33561848838E+03  0.33561848838E+03  0.00000000000E+00 0.  1.
          1   -1    0    0  501    0  0.00000000000E+00 -0.00000000000E+00 -0.37291430882E+02  0.37291430882E+02  0.00000000000E+00 0. -1.
         23    2    1    2    0    0 -0.14852051824E+00 -0.24454049668E+02  0.19480799049E+03  0.23274999865E+03  0.12499754440E+03 0.  0.
          5    1    3    3  502    0  0.14266698673E+01 -0.74798208243E+02  0.96533359612E+02  0.12221942097E+03  0.47000000000E+01 0.  1.
         -5    1    3    3    0  502 -0.15751903855E+01  0.50344158575E+02  0.98274630882E+02  0.11053057768E+03  0.47000000000E+01 0.  1.
        -11    1    1    2    0    0 -0.22940400911E+02 -0.43920229597E+01 -0.63826771301E+01  0.24213434845E+02  0.00000000000E+00 0. -1.
         11    1    1    2    0    0  0.23088921430E+02  0.28846072628E+02  0.10990174413E+03  0.11594648577E+03  0.00000000000E+00 0.  1.
<mgrwt>
<rscale>  0 0.11820646E+03</rscale>
<asrwt>0</asrwt>
<pdfrwt beam="2">  1        1 0.57371434E-02 0.12736722E+03</pdfrwt>
<pdfrwt beam="1">  1       -1 0.51633612E-01 0.12736722E+03</pdfrwt>
<totfact> 0.50512335E+03</totfact>
</mgrwt>
</event>
<event>
 7    1  0.4230786E-006  0.1326803E+03  0.7546771E-02  0.1236061E+00
         -1   -1    0    0    0  501 -0.00000000000E+00  0.00000000000E+00  0.28897405270E+03  0.28897405270E+03  0.00000000000E+00 0.  1.
          1   -1    0    0  501    0  0.00000000000E+00 -0.00000000000E+00 -0.50024403928E+02  0.50024403928E+02  0.00000000000E+00 0. -1.
         23    2    1    2    0    0  0.42539562356E+02  0.13059815133E+02  0.16947029419E+03  0.21523069454E+03  0.12499559242E+03 0.  0.
          5    1    3    3  502    0  0.58117468916E+02  0.46977080974E+02  0.50147657924E+02  0.90118610316E+02  0.47000000000E+01 0.  1.
         -5    1    3    3    0  502 -0.15577906560E+02 -0.33917265841E+02  0.11932263626E+03  0.12511208423E+03  0.47000000000E+01 0.  1.
        -11    1    1    2    0    0 -0.57205810291E+02  0.24403031965E+02  0.42485546095E+02  0.75319548107E+02  0.00000000000E+00 0.  1.
         11    1    1    2    0    0  0.14666247935E+02 -0.37462847098E+02  0.26993808496E+02  0.48448213984E+02  0.00000000000E+00 0. -1.
<mgrwt>
<rscale>  0 0.12436765E+03</rscale>
<asrwt>0</asrwt>
<pdfrwt beam="2">  1        1 0.76960624E-02 0.13268033E+03</pdfrwt>
<pdfrwt beam="1">  1       -1 0.44457545E-01 0.13268033E+03</pdfrwt>
<totfact> 0.44656265E+03</totfact>
</mgrwt>
</event>
<event>
 6    1  0.4230786E-006  0.1901595E+03  0.7546771E-02  0.1170064E+00
          2   -1    0    0  501    0  0.00000000000E+00  0.00000000000E+00  0.27072472817E+03  0.27072472817E+03  0.00000000000E+00 0. -1.
         -2   -1    0    0    0  501 -0.00000000000E+00 -0.00000000000E+00 -0.11813903687E+03  0.11813903687E+03  0.00000000000E+00 0.  1.
          5    1    1    2  502    0 -0.38944294888E+01  0.42393489798E+02  0.52779363350E+02  0.67971506927E+02  0.47000000000E+01 0. -1.
         -5    1    1    2    0  502  0.11456942155E+03 -0.27786052537E+02 -0.34870421037E+02  0.12302948156E+03  0.47000000000E+01 0.  1.
        -11    1    1    2    0    0  0.11861743363E+02 -0.18484785291E+02  0.25956931225E+02  0.34002213479E+02  0.00000000000E+00 0.  1.
         11    1    1    2    0    0 -0.12253673543E+03  0.38773480302E+01  0.10871981776E+03  0.16386056307E+03  0.00000000000E+00 0. -1.
<mgrwt>
<rscale>  0 0.17768330E+03</rscale>
<asrwt>0</asrwt>
<pdfrwt beam="1">  1        2 0.41649958E-01 0.19015953E+03</pdfrwt>
<pdfrwt beam="2">  1       -2 0.18175237E-01 0.19015953E+03</pdfrwt>
<totfact> 0.29755900E+03</totfact>
</mgrwt>
</event>
<event>
 7    1  0.4230786E-006  0.1333183E+03  0.7546771E-02  0.1234979E+00
         -4   -1    0    0    0  501 -0.00000000000E+00  0.00000000000E+00  0.56132422133E+02  0.56132422133E+02  0.00000000000E+00 0.  1.
          4   -1    0    0  501    0  0.00000000000E+00 -0.00000000000E+00 -0.24942018416E+03  0.24942018416E+03  0.00000000000E+00 0. -1.
         23    2    1    2    0    0  0.17650002296E+02  0.42846673714E+02 -0.10435495850E+03  0.16930363025E+03  0.12500560716E+03 0.  0.
          5    1    3    3  502    0  0.16829044097E+01  0.86122682128E+02 -0.75888104501E+02  0.11489579169E+03  0.47000000000E+01 0.  1.
         -5    1    3    3    0  502  0.15967097886E+02 -0.43276008414E+02 -0.28466854000E+02  0.54407838551E+02  0.47000000000E+01 0.  1.
        -11    1    1    2    0    0 -0.28852401500E+02 -0.68309704318E+02 -0.54738295313E+02  0.92168095077E+02  0.00000000000E+00 0.  1.
         11    1    1    2    0    0  0.11202399204E+02  0.25463030604E+02 -0.34194508216E+02  0.44080880975E+02  0.00000000000E+00 0. -1.
<mgrwt>
<rscale>  0 0.12505761E+03</rscale>
<asrwt>0</asrwt>
<pdfrwt beam="2">  1        4 0.38372336E-01 0.13331827E+03</pdfrwt>
<pdfrwt beam="1">  1       -4 0.86357572E-02 0.13331827E+03</pdfrwt>
<totfact> 0.10552606E+03</totfact>
</mgrwt>
</event>
<event>
 7    1  0.4230786E-006  0.2100941E+03  0.7546771E-02  0.1145201E+00
         -2   -1    0    0    0  501 -0.00000000000E+00  0.00000000000E+00  0.48549312103E+02  0.48549312103E+02  0.00000000000E+00 0.  1.
          2   -1    0    0  501    0  0.00000000000E+00 -0.00000000000E+00 -0.84284202066E+03  0.84284202066E+03  0.00000000000E+00 0. -1.
         23    2    1    2    0    0 -0.16549926262E+03 -0.33540094881E+02 -0.46160054045E+03  0.50716329603E+03  0.12499842403E+03 0.  0.
          5    1    3    3  502    0 -0.13841216706E+03 -0.60714277105E+02 -0.25089412236E+03  0.29294044117E+03  0.47000000000E+01 0. -1.
         -5    1    3    3    0  502 -0.27087095559E+02  0.27174182224E+02 -0.21070641809E+03  0.21422285487E+03  0.47000000000E+01 0. -1.
        -11    1    1    2    0    0  0.11454111437E+03  0.62815634384E+02 -0.25799869414E+03  0.28918643983E+03  0.00000000000E+00 0.  1.
         11    1    1    2    0    0  0.50958148258E+02 -0.29275539504E+02 -0.74693473969E+02  0.95041596896E+02  0.00000000000E+00 0. -1.
<mgrwt>
<rscale>  0 0.20547454E+03</rscale>
<asrwt>0</asrwt>
<pdfrwt beam="2">  1        2 0.12966801E+00 0.21009415E+03</pdfrwt>
<pdfrwt beam="1">  1       -2 0.74691244E-02 0.21009415E+03</pdfrwt>
<totfact> 0.34620326E+03</totfact>
</mgrwt>
</event>
<event>
 7    1  0.4230786E-006  0.1310318E+03  0.7546771E-02  0.1241587E+00
         -1   -1    0    0    0  501 -0.00000000000E+00  0.00000000000E+00  0.14619443537E+04  0.14619443537E+04  0.00000000000E+00 0.  1.
          1   -1    0    0  501    0  0.00000000000E+00 -0.00000000000E+00 -0.10657942201E+02  0.10657942201E+02  0.00000000000E+00 0. -1.
         23    2    1    2    0    0  0.20261645859E+02 -0.33672317984E+02  0.11295533730E+04  0.11371280282E+04  0.12499988305E+03 0.  0.
          5    1    3    3  502    0 -0.35718114750E+02  0.29243662890E+02  0.43743407388E+03  0.43988820686E+03  0.47000000000E+01 0.  1.
         -5    1    3    3    0  502  0.55979760608E+02 -0.62915980874E+02  0.69211929911E+03  0.69723982133E+03  0.47000000000E+01 0.  1.
        -11    1    1    2    0    0 -0.48843954939E+02  0.39631453246E+02  0.25482689806E+03  0.26247501213E+03  0.00000000000E+00 0.  1.
         11    1    1    2    0    0  0.28582309081E+02 -0.59591352621E+01  0.66906140469E+02  0.72999255598E+02  0.00000000000E+00 0. -1.
<mgrwt>
<rscale>  0 0.12092010E+03</rscale>
<asrwt>0</asrwt>
<pdfrwt beam="2">  1        1 0.16396846E-02 0.13103179E+03</pdfrwt>
<pdfrwt beam="1">  1       -1 0.22491436E+00 0.13103179E+03</pdfrwt>
<totfact> 0.90228569E+02</totfact>
</mgrwt>
</event>
<event>
 7    1  0.4230786E-006  0.1344085E+03  0.7546771E-02  0.1235515E+00
          2   -1    0    0  501    0  0.00000000000E+00  0.00000000000E+00  0.99637275730E+02  0.99637275730E+02  0.00000000000E+00 0. -1.
         -2   -1    0    0    0  501 -0.00000000000E+00 -0.00000000000E+00 -0.14028668555E+03  0.14028668555E+03  0.00000000000E+00 0.  1.
         23    2    1    2    0    0  0.21788642300E+02 -0.44341244653E+02 -0.40201909239E+02  0.14029195303E+03  0.12499899067E+03 0.  0.
          5    1    3    3  502    0 -0.21453373043E+02  0.27158199828E+02 -0.44405679818E+02  0.56495747034E+02  0.47000000000E+01 0. -1.
         -5    1    3    3    0  502  0.43242015343E+02 -0.71499444480E+02  0.42037705795E+01  0.83796205994E+02  0.47000000000E+01 0. -1.
        -11    1    1    2    0    0 -0.16476839356E+02  0.15473327862E+02 -0.42624293264E+02  0.48246662957E+02  0.00000000000E+00 0.  1.
         11    1    1    2    0    0 -0.53118029442E+01  0.28867916791E+02  0.42176792681E+02  0.51385345296E+02  0.00000000000E+00 0. -1.
<mgrwt>
<rscale>  0 0.12471498E+03</rscale>
<asrwt>0</asrwt>
<pdfrwt beam="1">  1        2 0.15328812E-01 0.13440848E+03</pdfrwt>
<pdfrwt beam="2">  1       -2 0.21582567E-01 0.13440848E+03</pdfrwt>
<totfact> 0.66213756E+03</totfact>
</mgrwt>
</event>
<event>
 6    1  0.4230786E-006  0.1869808E+03  0.7546771E-02  0.1174353E+00
          2   -1    0    0  501    0  0.00000000000E+00  0.00000000000E+00  0.77017026778E+03  0.77017026778E+03  0.00000000000E+00 0. -1.
         -2   -1    0    0    0  501 -0.00000000000E+00 -0.00000000000E+00 -0.39420813463E+02  0.39420813463E+02  0.00000000000E+00 0.  1.
          5    1    1    2  502    0  0.80691879523E+02 -0.94923892032E+02  0.25689190496E+03  0.28554730875E+03  0.47000000000E+01 0. -1.
         -5    1    1    2    0  502 -0.40076602675E+02  0.69431991636E+00  0.12258651686E+02  0.42177964665E+02  0.47000000000E+01 0.  1.
        -11    1    1    2    0    0 -0.45963335239E+02  0.41130958449E+01  0.19543127878E+03  0.20080570328E+03  0.00000000000E+00 0. -1.
         11    1    1    2    0    0  0.53480583908E+01  0.90116476271E+02  0.26616761888E+03  0.28106010454E+03  0.00000000000E+00 0.  1.
<mgrwt>
<rscale>  0 0.17339516E+03</rscale>
<asrwt>0</asrwt>
<pdfrwt beam="1">  1        2 0.11848772E+00 0.18698084E+03</pdfrwt>
<pdfrwt beam="2">  1       -2 0.60647411E-02 0.18698084E+03</pdfrwt>
<totfact> 0.53300760E+03</totfact>
</mgrwt>
</event>
<event>
 7    1  0.4230786E-006  0.1287783E+03  0.7546771E-02  0.1244698E+00
          3   -1    0    0  501    0  0.00000000000E+00  0.00000000000E+00  0.38334765596E+02  0.38334765596E+02  0.00000000000E+00 0. -1.
         -3   -1    0    0    0  501 -0.00000000000E+00 -0.00000000000E+00 -0.51469623376E+03  0.51469623376E+03  0.00000000000E+00 0.  1.
         23    2    1    2    0    0 -0.30099603455E+02 -0.71838498869E+01 -0.42871419441E+03  0.44763793469E+03  0.12500506493E+03 0.  0.
          5    1    3    3  502    0 -0.15039651694E+02 -0.84324579793E+01 -0.43124158819E+03  0.43161174087E+03  0.47000000000E+01 0.  1.
         -5    1    3    3    0  502 -0.15059951760E+02  0.12486080924E+01  0.25273937772E+01  0.16026193824E+02  0.47000000000E+01 0.  1.
        -11    1    1    2    0    0 -0.27384132701E+02  0.18908500497E+01  0.42392040517E+01  0.27774752721E+02  0.00000000000E+00 0. -1.
         11    1    1    2    0    0  0.57483736156E+02  0.52929998372E+01 -0.51886477798E+02  0.77618311938E+02  0.00000000000E+00 0.  1.
<mgrwt>
<rscale>  0 0.11903451E+03</rscale>
<asrwt>0</asrwt>
<pdfrwt beam="1">  1        3 0.58976562E-02 0.12877834E+03</pdfrwt>
<pdfrwt beam="2">  1       -3 0.79184037E-01 0.12877834E+03</pdfrwt>
<totfact> 0.61311999E+02</totfact>
</mgrwt>
</event>
<event>
 7    1  0.4230786E-006  0.1291121E+03  0.7546771E-02  0.1246609E+00
          1   -1    0    0  501    0  0.00000000000E+00  0.00000000000E+00  0.94444102321E+02  0.94444102321E+02  0.00000000000E+00 0. -1.
         -1   -1    0    0    0  501 -0.00000000000E+00 -0.00000000000E+00 -0.12694590876E+03  0.12694590876E+03  0.00000000000E+00 0.  1.
         23    2    1    2    0    0  0.32251394038E+02  0.21860877527E+01 -0.22723185015E+02  0.13109640782E+03  0.12499997444E+03 0.  0.
          5    1    3    3  502    0  0.49385234568E+02  0.33418616779E+01 -0.66965569859E+02  0.83405916933E+02  0.47000000000E+01 0. -1.
         -5    1    3    3    0  502 -0.17133840531E+02 -0.11557739252E+01  0.44242384844E+02  0.47690490890E+02  0.47000000000E+01 0. -1.
        -11    1    1    2    0    0 -0.37750807256E+02 -0.16518704651E+02 -0.39348494574E+02  0.56976267666E+02  0.00000000000E+00 0.  1.
         11    1    1    2    0    0  0.54994132189E+01  0.14332616898E+02  0.29569873150E+02  0.33317335592E+02  0.00000000000E+00 0. -1.
<mgrwt>
<rscale>  0 0.11789595E+03</rscale>
<asrwt>0</asrwt>
<pdfrwt beam="1">  1        1 0.14529862E-01 0.12911206E+03</pdfrwt>
<pdfrwt beam="2">  1       -1 0.19530140E-01 0.12911206E+03</pdfrwt>
<totfact> 0.76730370E+03</totfact>
</mgrwt>
</event>
<event>
 7    1  0.4230786E-006  0.2183209E+03  0.7546771E-02  0.1138490E+00
         -2   -1    0    0    0  501 -0.00000000000E+00  0.00000000000E+00  0.10551847203E+03  0.10551847203E+03  0.00000000000E+00 0.  1.
          2   -1    0    0  501    0  0.00000000000E+00 -0.00000000000E+00 -0.41924793638E+03  0.41924793638E+03  0.00000000000E+00 0. -1.
         23    2    1    2    0    0 -0.45707828399E+02 -0.17305826720E+03 -0.14469018779E+03  0.26191459585E+03  0.12500254257E+03 0.  0.
          5    1    3    3  502    0 -0.14310693765E+02 -0.11379976124E+02 -0.84367110114E+02  0.86453450374E+02  0.47000000000E+01 0.  1.
         -5    1    3    3    0  502 -0.31397134633E+02 -0.16167829108E+03 -0.60323077680E+02  0.17546114547E+03  0.47000000000E+01 0.  1.
        -11    1    1    2    0    0  0.40272043763E+02  0.16031576165E+03 -0.10164443551E+03  0.19404786062E+03  0.00000000000E+00 0.  1.
         11    1    1    2    0    0  0.54357846353E+01  0.12742505557E+02 -0.67394841049E+02  0.68803951940E+02  0.00000000000E+00 0. -1.
<mgrwt>
<rscale>  0 0.21393204E+03</rscale>
<asrwt>0</asrwt>
<pdfrwt beam="2">  1        2 0.64499683E-01 0.21832088E+03</pdfrwt>
<pdfrwt beam="1">  1       -2 0.16233611E-01 0.21832088E+03</pdfrwt>
<totfact> 0.22548762E+03</totfact>
</mgrwt>
</event>
<event>
 7    1  0.4230786E-006  0.2237022E+03  0.7546771E-02  0.1134306E+00
         -1   -1    0    0    0  501 -0.00000000000E+00  0.00000000000E+00  0.10043673761E+03  0.10043673761E+03  0.00000000000E+00 0.  1.
          1   -1    0    0  501    0  0.00000000000E+00 -0.00000000000E+00 -0.49890427961E+03  0.49890427961E+03  0.00000000000E+00 0. -1.
         23    2    1    2    0    0  0.96602926495E+02  0.15837369698E+03 -0.12486629068E+03  0.25619188923E+03  0.12501336032E+03 0.  0.
          5    1    3    3  502    0  0.55537490123E+02  0.57223527632E+02  0.12299723844E+02  0.80822757503E+02  0.47000000000E+01 0.  1.
         -5    1    3    3    0  502  0.41065436372E+02  0.10115016935E+03 -0.13716601452E+03  0.17536913173E+03  0.47000000000E+01 0.  1.
        -11    1    1    2    0    0 -0.51844166650E+02 -0.56286911121E+02 -0.44887244393E+02  0.88718085464E+02  0.00000000000E+00 0.  1.
         11    1    1    2    0    0 -0.44758759845E+02 -0.10208678586E+03 -0.22871400693E+03  0.25443104251E+03  0.00000000000E+00 0. -1.
<mgrwt>
<rscale>  0 0.21943299E+03</rscale>
<asrwt>0</asrwt>
<pdfrwt beam="2">  1        1 0.76754502E-01 0.22370224E+03</pdfrwt>
<pdfrwt beam="1">  1       -1 0.15451806E-01 0.22370224E+03</pdfrwt>
<totfact> 0.13850692E+03</totfact>
</mgrwt>
</event>
<event>
 7    1  0.4230786E-006  0.1460018E+03  0.7546771E-02  0.1215482E+00
         -4   -1    0    0    0  501 -0.00000000000E+00  0.00000000000E+00  0.37987925343E+03  0.37987925343E+03  0.00000000000E+00 0.  1.
          4   -1    0    0  501    0  0.00000000000E+00 -0.00000000000E+00 -0.50256626353E+02  0.50256626353E+02  0.00000000000E+00 0. -1.
         23    2    1    2    0    0 -0.75581429520E+01  0.75077444371E+02  0.24420557474E+03  0.28452221366E+03  0.12499111630E+03 0.  0.
          5    1    3    3  502    0 -0.61092693201E+02  0.49032890991E+02  0.18246447578E+03  0.19862506509E+03  0.47000000000E+01 0.  1.
         -5    1    3    3    0  502  0.53534550249E+02  0.26044553380E+02  0.61741098962E+02  0.85897148568E+02  0.47000000000E+01 0.  1.
        -11    1    1    2    0    0  0.41395452286E+02 -0.22269865047E+02  0.10969358741E+02  0.48268594244E+02  0.00000000000E+00 0. -1.
         11    1    1    2    0    0 -0.33837309334E+02 -0.52807579325E+02  0.74447693593E+02  0.97345071875E+02  0.00000000000E+00 0.  1.
<mgrwt>
<rscale>  0 0.13841205E+03</rscale>
<asrwt>0</asrwt>
<pdfrwt beam="2">  1        4 0.77317889E-02 0.14600181E+03</pdfrwt>
<pdfrwt beam="1">  1       -4 0.58442960E-01 0.14600181E+03</pdfrwt>
<totfact> 0.55147754E+02</totfact>
</mgrwt>
</event>
<event>
 7    1  0.4230786E-006  0.1274005E+03  0.7546771E-02  0.1245798E+00
         -1   -1    0    0    0  501 -0.00000000000E+00  0.00000000000E+00  0.21274709331E+03  0.21274709331E+03  0.00000000000E+00 0.  1.
          1   -1    0    0  501    0  0.00000000000E+00 -0.00000000000E+00 -0.61232573816E+02  0.61232573816E+02  0.00000000000E+00 0. -1.
         23    2    1    2    0    0 -0.24271644633E+02  0.38919043505E+01  0.11689200531E+03  0.17290060784E+03  0.12500647838E+03 0.  0.
          5    1    3    3  502    0  0.26193337966E+02  0.41655890403E+02  0.93018563832E+02  0.10533682821E+03  0.47000000000E+01 0. -1.
         -5    1    3    3    0  502 -0.50464982599E+02 -0.37763986053E+02  0.23873441473E+02  0.67563779639E+02  0.47000000000E+01 0. -1.
        -11    1    1    2    0    0  0.53693342555E+01  0.38791728731E+02  0.37616595860E+02  0.54301346690E+02  0.00000000000E+00 0.  1.
         11    1    1    2    0    0  0.18902310377E+02 -0.42683633082E+02 -0.29940816660E+01  0.46777712596E+02  0.00000000000E+00 0. -1.
<mgrwt>
<rscale>  0 0.11837735E+03</rscale>
<asrwt>0</asrwt>
<pdfrwt beam="2">  1        1 0.94203961E-02 0.12740047E+03</pdfrwt>
<pdfrwt beam="1">  1       -1 0.32730322E-01 0.12740047E+03</pdfrwt>
<totfact> 0.57890664E+03</totfact>
</mgrwt>
</event>
<event>
 7    1  0.4230786E-006  0.1548738E+03  0.7546771E-02  0.1203008E+00
          2   -1    0    0  501    0  0.00000000000E+00  0.00000000000E+00  0.78832108990E+02  0.78832108990E+02  0.00000000000E+00 0. -1.
         -2   -1    0    0    0  501 -0.00000000000E+00 -0.00000000000E+00 -0.27708066143E+03  0.27708066143E+03  0.00000000000E+00 0.  1.
         23    2    1    2    0    0 -0.18984951829E+02  0.89496150112E+02 -0.15686326691E+03  0.22043584770E+03  0.12496355135E+03 0.  0.
          5    1    3    3  502    0  0.56667840755E+01  0.35980561743E+02  0.14255880612E+02  0.39395855076E+02  0.47000000000E+01 0.  1.
         -5    1    3    3    0  502 -0.24651735905E+02  0.53515588369E+02 -0.17111914752E+03  0.18103999263E+03  0.47000000000E+01 0.  1.
        -11    1    1    2    0    0  0.27635713999E+02  0.47857266221E+01  0.73470520930E+01  0.28993362033E+02  0.00000000000E+00 0.  1.
         11    1    1    2    0    0 -0.86507621697E+01 -0.94281876734E+02 -0.48732337628E+02  0.10648356069E+03  0.00000000000E+00 0. -1.
<mgrwt>
<rscale>  0 0.14795567E+03</rscale>
<asrwt>0</asrwt>
<pdfrwt beam="1">  1        2 0.12128017E-01 0.15487375E+03</pdfrwt>
<pdfrwt beam="2">  1       -2 0.42627794E-01 0.15487375E+03</pdfrwt>
<totfact> 0.25774805E+03</totfact>
</mgrwt>
</event>
<event>
 7    1  0.4230786E-006  0.1321043E+03  0.7546771E-02  0.1232146E+00
         -4   -1    0    0    0  501 -0.00000000000E+00  0.00000000000E+00  0.20992860651E+03  0.20992860651E+03  0.00000000000E+00 0.  1.
          4   -1    0    0  501    0  0.00000000000E+00 -0.00000000000E+00 -0.82102306301E+02  0.82102306301E+02  0.00000000000E+00 0. -1.
         23    2    1    2    0    0 -0.53966936063E+01 -0.65022978508E+02  0.12137621393E+03  0.17939822572E+03  0.11486699287E+03 0.  0.
          5    1    3    3  502    0  0.39490320530E+02 -0.14293813784E+02  0.22987557066E+01  0.42322249537E+02  0.47000000000E+01 0. -1.
         -5    1    3    3    0  502 -0.44887014137E+02 -0.50729164724E+02  0.11907745822E+03  0.13707597619E+03  0.47000000000E+01 0.  1.
        -11    1    1    2    0    0  0.12256285726E+02  0.82420651542E+02 -0.14468191223E+02  0.84573689157E+02  0.00000000000E+00 0. -1.
         11    1    1    2    0    0 -0.68595921194E+01 -0.17397673034E+02  0.20918277510E+02  0.28058997934E+02  0.00000000000E+00 0.  1.
<mgrwt>
<rscale>  0 0.12688942E+03</rscale>
<asrwt>0</asrwt>
<pdfrwt beam="2">  1        4 0.12631124E-01 0.13210427E+03</pdfrwt>
<pdfrwt beam="1">  1       -4 0.32296708E-01 0.13210427E+03</pdfrwt>
<totfact> 0.77254274E+02</totfact>
</mgrwt>
</event>
<event>
 7    1  0.4230786E-006  0.1842859E+03  0.7546771E-02  0.1169086E+00
         -2   -1    0    0    0  501 -0.00000000000E+00  0.00000000000E+00  0.49355007257E+02  0.49355007257E+02  0.00000000000E+00 0.  1.
          2   -1    0    0  501    0  0.00000000000E+00 -0.00000000000E+00 -0.81135962247E+03  0.81135962247E+03  0.00000000000E+00 0. -1.
         23    2    1    2    0    0  0.30643590677E+02 -0.13189685004E+03 -0.18484213509E+03  0.26101325244E+03  0.12500197735E+03 0.  0.
          5    1    3    3  502    0  0.10354167036E+02  0.21113928088E+02 -0.52200168136E+02  0.57445228590E+02  0.47000000000E+01 0.  1.
         -5    1    3    3    0  502  0.20289423640E+02 -0.15301077813E+03 -0.13264196696E+03  0.20356802385E+03  0.47000000000E+01 0.  1.
        -11    1    1    2    0    0 -0.23198434971E+02  0.50158057532E+02 -0.89549497120E+02  0.10522884849E+03  0.00000000000E+00 0.  1.
         11    1    1    2    0    0 -0.74451557053E+01  0.81738792509E+02 -0.48761298300E+03  0.49447252880E+03  0.00000000000E+00 0. -1.
<mgrwt>
<rscale>  0 0.17868022E+03</rscale>
<asrwt>0</asrwt>
<pdfrwt beam="2">  1        2 0.12482455E+00 0.18428593E+03</pdfrwt>
<pdfrwt beam="1">  1       -2 0.75930783E-02 0.18428593E+03</pdfrwt>
<totfact> 0.35308794E+03</totfact>
</mgrwt>
</event>
<event>
 7    1  0.4230786E-006  0.1579045E+03  0.7546771E-02  0.1198914E+00
          1   -1    0    0  501    0  0.00000000000E+00  0.00000000000E+00  0.41389673694E+03  0.41389673694E+03  0.00000000000E+00 0. -1.
         -1   -1    0    0    0  501 -0.00000000000E+00 -0.00000000000E+00 -0.52368531536E+02  0.52368531536E+02  0.00000000000E+00 0.  1.
         23    2    1    2    0    0 -0.92427072852E+02 -0.27683910421E+02  0.15998908886E+03  0.22478951698E+03  0.12499862278E+03 0.  0.
          5    1    3    3  502    0 -0.26120276975E+02  0.44562601578E+01  0.14746376192E+03  0.14989922683E+03  0.47000000000E+01 0. -1.
         -5    1    3    3    0  502 -0.66306795877E+02 -0.32140170579E+02  0.12525326942E+02  0.74890290153E+02  0.47000000000E+01 0. -1.
        -11    1    1    2    0    0  0.11436250726E+02  0.40619861058E+02  0.31399837212E+02  0.52599531557E+02  0.00000000000E+00 0.  1.
         11    1    1    2    0    0  0.80990822126E+02 -0.12935950637E+02  0.17013927933E+03  0.18887621994E+03  0.00000000000E+00 0. -1.
<mgrwt>
<rscale>  0 0.15127582E+03</rscale>
<asrwt>0</asrwt>
<pdfrwt beam="1">  1        1 0.63676419E-01 0.15790446E+03</pdfrwt>
<pdfrwt beam="2">  1       -1 0.80566974E-02 0.15790446E+03</pdfrwt>
<totfact> 0.47906493E+03</totfact>
</mgrwt>
</event>
<event>
 7    1  0.4230786E-006  0.1778319E+03  0.7546771E-02  0.1172340E+00
         -2   -1    0    0    0  501 -0.00000000000E+00  0.00000000000E+00  0.11770930527E+03  0.11770930527E+03  0.00000000000E+00 0.  1.
          2   -1    0    0  501    0  0.00000000000E+00 -0.00000000000E+00 -0.25568194842E+03  0.25568194842E+03  0.00000000000E+00 0. -1.
         23    2    1    2    0    0  0.87944016674E+02  0.70370421046E+02 -0.53916032789E+02  0.17669425862E+03  0.12501110435E+03 0.  0.
          5    1    3    3  502    0 -0.13064725231E+01 -0.31716272908E+02 -0.15756547683E+02  0.35748952887E+02  0.47000000000E+01 0.  1.
         -5    1    3    3    0  502  0.89250489197E+02  0.10208669395E+03 -0.38159485107E+02  0.14094530573E+03  0.47000000000E+01 0.  1.
        -11    1    1    2    0    0 -0.27811107502E+02 -0.72710542503E+02 -0.10697476866E+03  0.13230223664E+03  0.00000000000E+00 0. -1.
         11    1    1    2    0    0 -0.60132909172E+02  0.23401214569E+01  0.22918158296E+02  0.64394758433E+02  0.00000000000E+00 0.  1.
<mgrwt>
<rscale>  0 0.17539100E+03</rscale>
<asrwt>0</asrwt>
<pdfrwt beam="2">  1        2 0.39335684E-01 0.17783193E+03</pdfrwt>
<pdfrwt beam="1">  1       -2 0.18109124E-01 0.17783193E+03</pdfrwt>
<totfact> 0.31741471E+03</totfact>
</mgrwt>
</event>
<event>
 7    1  0.4230786E-006  0.1661337E+03  0.7546771E-02  0.1189331E+00
         -2   -1    0    0    0  501 -0.00000000000E+00  0.00000000000E+00  0.30970623048E+02  0.30970623048E+02  0.00000000000E+00 0.  1.
          2   -1    0    0  501    0  0.00000000000E+00 -0.00000000000E+00 -0.78912581181E+03  0.78912581181E+03  0.00000000000E+00 0. -1.
         23    2    1    2    0    0 -0.64004827943E+02 -0.88768482076E+02 -0.33209278984E+03  0.37133008833E+03  0.12499580804E+03 0.  0.
          5    1    3    3  502    0  0.15106665957E+01  0.17151643058E+02 -0.14765708207E+03  0.14873185556E+03  0.47000000000E+01 0. -1.
         -5    1    3    3    0  502 -0.65515494539E+02 -0.10592012513E+03 -0.18443570777E+03  0.22259823277E+03  0.47000000000E+01 0. -1.
        -11    1    1    2    0    0  0.15648598526E+02  0.57641637154E+02 -0.91308205685E+02  0.10910831955E+03  0.00000000000E+00 0.  1.
         11    1    1    2    0    0  0.48356229417E+02  0.31126844921E+02 -0.33475419325E+03  0.33965802698E+03  0.00000000000E+00 0. -1.
<mgrwt>
<rscale>  0 0.15943967E+03</rscale>
<asrwt>0</asrwt>
<pdfrwt beam="2">  1        2 0.12140397E+00 0.16613372E+03</pdfrwt>
<pdfrwt beam="1">  1       -2 0.47647113E-02 0.16613372E+03</pdfrwt>
<totfact> 0.74176140E+03</totfact>
</mgrwt>
</event>
<event>
 7    1  0.4230786E-006  0.1813307E+03  0.7546771E-02  0.1168473E+00
          2   -1    0    0  501    0  0.00000000000E+00  0.00000000000E+00  0.32635265748E+03  0.32635265748E+03  0.00000000000E+00 0. -1.
         -2   -1    0    0    0  501 -0.00000000000E+00 -0.00000000000E+00 -0.14444969794E+03  0.14444969794E+03  0.00000000000E+00 0.  1.
         23    2    1    2    0    0 -0.11782572731E+03  0.81029071226E+02 -0.43455584088E+02  0.18646506626E+03  0.11149986883E+03 0.  0.
          5    1    3    3  502    0 -0.96922477987E+02  0.65009719483E+02  0.19171810560E+02  0.11836333337E+03  0.47000000000E+01 0. -1.
         -5    1    3    3    0  502 -0.20903249319E+02  0.16019351743E+02 -0.62627394648E+02  0.68101732891E+02  0.47000000000E+01 0.  1.
        -11    1    1    2    0    0  0.40015190199E+02 -0.27873492382E+02  0.10729759201E+02  0.49932702278E+02  0.00000000000E+00 0.  1.
         11    1    1    2    0    0  0.77810537107E+02 -0.53155578844E+02  0.21462878443E+03  0.23440458688E+03  0.00000000000E+00 0. -1.
<mgrwt>
<rscale>  0 0.17930995E+03</rscale>
<asrwt>0</asrwt>
<pdfrwt beam="1">  1        2 0.50208101E-01 0.18133073E+03</pdfrwt>
<pdfrwt beam="2">  1       -2 0.22223030E-01 0.18133073E+03</pdfrwt>
<totfact> 0.17261199E+03</totfact>
</mgrwt>
</event>
<event>
 7    1  0.4230786E-006  0.1499562E+03  0.7546771E-02  0.1209851E+00
          2   -1    0    0  501    0  0.00000000000E+00  0.00000000000E+00  0.12282235270E+03  0.12282235270E+03  0.00000000000E+00 0.  1.
         -2   -1    0    0    0  501 -0.00000000000E+00 -0.00000000000E+00 -0.18784958117E+03  0.18784958117E+03  0.00000000000E+00 0. -1.
         23    2    1    2    0    0  0.79957078715E+02 -0.21625794189E+02 -0.10337424143E+03  0.18213483766E+03  0.12500422348E+03 0.  0.
          5    1    3    3  502    0  0.41549284177E+02 -0.22932080889E+02  0.20826926662E+02  0.52039160482E+02  0.47000000000E+01 0. -1.
         -5    1    3    3    0  502  0.38407794538E+02  0.13062866993E+01 -0.12420116809E+03  0.13009567718E+03  0.47000000000E+01 0. -1.
        -11    1    1    2    0    0  0.19009667817E+02  0.12132226844E+02  0.18433074940E+01  0.22626448710E+02  0.00000000000E+00 0.  1.
         11    1    1    2    0    0 -0.98966746532E+02  0.94935673455E+01  0.36503705472E+02  0.10591064750E+03  0.00000000000E+00 0. -1.
<mgrwt>
<rscale>  0 0.14261660E+03</rscale>
<asrwt>0</asrwt>
<pdfrwt beam="1">  1        2 0.18895747E-01 0.14995621E+03</pdfrwt>
<pdfrwt beam="2">  1       -2 0.28899936E-01 0.14995621E+03</pdfrwt>
<totfact> 0.31425918E+03</totfact>
</mgrwt>
</event>
<event>
 7    1  0.4230786E-006  0.1295862E+03  0.7546771E-02  0.1241028E+00
         -1   -1    0    0    0  501 -0.00000000000E+00  0.00000000000E+00  0.75848162801E+03  0.75848162801E+03  0.00000000000E+00 0.  1.
          1   -1    0    0  501    0  0.00000000000E+00 -0.00000000000E+00 -0.22178173263E+02  0.22178173263E+02  0.00000000000E+00 0. -1.
         23    2    1    2    0    0 -0.21480520295E+02 -0.26614103326E+02  0.58823707939E+03  0.60234163994E+03  0.12499146529E+03 0.  0.
          5    1    3    3  502    0 -0.37968505588E+00 -0.68915454264E+02  0.20850282569E+03  0.21964745006E+03  0.47000000000E+01 0. -1.
         -5    1    3    3    0  502 -0.21100835239E+02  0.42301350938E+02  0.37973425369E+03  0.38269418988E+03  0.47000000000E+01 0. -1.
        -11    1    1    2    0    0  0.52127815443E+00 -0.20609472966E+02 -0.91097464423E+00  0.20636181373E+02  0.00000000000E+00 0. -1.
         11    1    1    2    0    0  0.20959242141E+02  0.47223576292E+02  0.14897735000E+03  0.15768197996E+03  0.00000000000E+00 0.  1.
<mgrwt>
<rscale>  0 0.12126325E+03</rscale>
<asrwt>0</asrwt>
<pdfrwt beam="2">  1        1 0.34120272E-02 0.12958622E+03</pdfrwt>
<pdfrwt beam="1">  1       -1 0.11668946E+00 0.12958622E+03</pdfrwt>
<totfact> 0.19464115E+03</totfact>
</mgrwt>
</event>
<event>
 7    1  0.4230786E-006  0.1883942E+03  0.7546771E-02  0.1165107E+00
         -2   -1    0    0    0  501 -0.00000000000E+00  0.00000000000E+00  0.31700197930E+02  0.31700197930E+02  0.00000000000E+00 0.  1.
          2   -1    0    0  501    0  0.00000000000E+00 -0.00000000000E+00 -0.10542481218E+04  0.10542481218E+04  0.00000000000E+00 0. -1.
         23    2    1    2    0    0 -0.16175280012E+02  0.14001781095E+03 -0.41326935172E+03  0.45418492069E+03  0.12500303211E+03 0.  0.
          5    1    3    3  502    0 -0.21233670329E+01  0.95786071244E+02 -0.39081357279E+03  0.40241374083E+03  0.47000000000E+01 0. -1.
         -5    1    3    3    0  502 -0.14051912979E+02  0.44231739711E+02 -0.22455778932E+02  0.51771179855E+02  0.47000000000E+01 0. -1.
        -11    1    1    2    0    0 -0.57255916278E+01 -0.44537661732E+02 -0.66662860129E+02  0.80376132232E+02  0.00000000000E+00 0.  1.
         11    1    1    2    0    0  0.21900871639E+02 -0.95480149223E+02 -0.54261571205E+03  0.55138726684E+03  0.00000000000E+00 0. -1.
<mgrwt>
<rscale>  0 0.18281431E+03</rscale>
<asrwt>0</asrwt>
<pdfrwt beam="2">  1        2 0.16219199E+00 0.18839423E+03</pdfrwt>
<pdfrwt beam="1">  1       -2 0.48769543E-02 0.18839423E+03</pdfrwt>
<totfact> 0.48908870E+03</totfact>
</mgrwt>
</event>
<event>
 7    1  0.4230786E-006  0.1345174E+03  0.7546771E-02  0.1232315E+00
         -1   -1    0    0    0  501 -0.00000000000E+00  0.00000000000E+00  0.40724460373E+02  0.40724460373E+02  0.00000000000E+00 0.  1.
          1   -1    0    0  501    0  0.00000000000E+00 -0.00000000000E+00 -0.47052709645E+03  0.47052709645E+03  0.00000000000E+00 0. -1.
         23    2    1    2    0    0  0.40963515737E+02 -0.28135662370E+02 -0.10833853733E+03  0.17271993285E+03  0.12500124565E+03 0.  0.
          5    1    3    3  502    0  0.34455845503E+02  0.46654684014E+02 -0.58342666646E+02  0.82400373671E+02  0.47000000000E+01 0.  1.
         -5    1    3    3    0  502  0.65076702341E+01 -0.74790346384E+02 -0.49995870687E+02  0.90319559177E+02  0.47000000000E+01 0.  1.
        -11    1    1    2    0    0 -0.67382380281E+02  0.19516519120E+01 -0.17840119661E+03  0.19071229921E+03  0.00000000000E+00 0.  1.
         11    1    1    2    0    0  0.26418864543E+02  0.26184010458E+02 -0.14306290213E+03  0.14781932477E+03  0.00000000000E+00 0. -1.
<mgrwt>
<rscale>  0 0.12677916E+03</rscale>
<asrwt>0</asrwt>
<pdfrwt beam="2">  1        1 0.72388785E-01 0.13451742E+03</pdfrwt>
<pdfrwt beam="1">  1       -1 0.62653016E-02 0.13451742E+03</pdfrwt>
<totfact> 0.58821833E+03</totfact>
</mgrwt>
</event>
<event>
 6    1  0.4230786E-006  0.1684182E+03  0.7546771E-02  0.1188100E+00
          2   -1    0    0  501    0  0.00000000000E+00  0.00000000000E+00  0.24298472314E+03  0.24298472314E+03  0.00000000000E+00 0. -1.
         -2   -1    0    0    0  501 -0.00000000000E+00 -0.00000000000E+00 -0.97486602396E+02  0.97486602396E+02  0.00000000000E+00 0.  1.
          5    1    1    2  502    0  0.48610481350E+02  0.11029009965E+03  0.80465914124E+02  0.14499564929E+03  0.47000000000E+01 0. -1.
         -5    1    1    2    0  502 -0.33361499876E+02 -0.14600289765E+02 -0.92419751417E+01  0.37863732512E+02  0.47000000000E+01 0.  1.
        -11    1    1    2    0    0 -0.85531333021E+01 -0.74793051122E+02 -0.49130008573E+01  0.75440666506E+02  0.00000000000E+00 0.  1.
         11    1    1    2    0    0 -0.66958481717E+01 -0.20896758765E+02  0.79187182616E+02  0.82171277222E+02  0.00000000000E+00 0. -1.
<mgrwt>
<rscale>  0 0.16053008E+03</rscale>
<asrwt>0</asrwt>
<pdfrwt beam="1">  1        2 0.37382265E-01 0.16841824E+03</pdfrwt>
<pdfrwt beam="2">  1       -2 0.14997939E-01 0.16841824E+03</pdfrwt>
<totfact> 0.45732012E+03</totfact>
</mgrwt>
</event>
<event>
 7    1  0.4230786E-006  0.1456243E+03  0.7546771E-02  0.1215926E+00
         -2   -1    0    0    0  501 -0.00000000000E+00  0.00000000000E+00  0.41129429025E+02  0.41129429025E+02  0.00000000000E+00 0. -1.
          2   -1    0    0  501    0  0.00000000000E+00 -0.00000000000E+00 -0.43171410607E+03  0.43171410607E+03  0.00000000000E+00 0.  1.
         23    2    1    2    0    0 -0.64143355016E+02 -0.38302964216E+02 -0.25148425189E+03  0.29060414816E+03  0.12499981966E+03 0.  0.
          5    1    3    3  502    0 -0.97362501214E+02 -0.44969351484E+01 -0.15843450237E+03  0.18607326678E+03  0.47000000000E+01 0. -1.
         -5    1    3    3    0  502  0.33219146198E+02 -0.33806029067E+02 -0.93049749523E+02  0.10453088138E+03  0.47000000000E+01 0. -1.
        -11    1    1    2    0    0  0.99070984328E+01 -0.19215835512E+02  0.70342934066E+00  0.21630851731E+02  0.00000000000E+00 0. -1.
         11    1    1    2    0    0  0.54236256584E+02  0.57518799728E+02 -0.13980385449E+03  0.16060853521E+03  0.00000000000E+00 0.  1.
<mgrwt>
<rscale>  0 0.13808761E+03</rscale>
<asrwt>0</asrwt>
<pdfrwt beam="2">  1        2 0.66417560E-01 0.14562432E+03</pdfrwt>
<pdfrwt beam="1">  1       -2 0.63276040E-02 0.14562432E+03</pdfrwt>
<totfact> 0.95600830E+03</totfact>
</mgrwt>
</event>
<event>
 7    1  0.4230786E-006  0.1462586E+03  0.7546771E-02  0.1214451E+00
         -3   -1    0    0    0  501 -0.00000000000E+00  0.00000000000E+00  0.52600845092E+03  0.52600845092E+03  0.00000000000E+00 0.  1.
          3   -1    0    0  501    0  0.00000000000E+00 -0.00000000000E+00 -0.36814872843E+02  0.36814872843E+02  0.00000000000E+00 0. -1.
         23    2    1    2    0    0 -0.24153942357E+02 -0.71991723458E+02  0.34865027694E+03  0.37808544145E+03  0.12500145699E+03 0.  0.
          5    1    3    3  502    0 -0.55240751407E+01  0.32760585448E+02  0.13828914167E+03  0.14230160951E+03  0.47000000000E+01 0. -1.
         -5    1    3    3    0  502 -0.18629867216E+02 -0.10475230891E+03  0.21036113528E+03  0.23578383195E+03  0.47000000000E+01 0. -1.
        -11    1    1    2    0    0  0.29358665464E+02 -0.14524866467E+02  0.31494103124E+02  0.45439867025E+02  0.00000000000E+00 0.  1.
         11    1    1    2    0    0 -0.52047231067E+01  0.86516589925E+02  0.10904919801E+03  0.13929801528E+03  0.00000000000E+00 0. -1.
<mgrwt>
<rscale>  0 0.13916967E+03</rscale>
<asrwt>0</asrwt>
<pdfrwt beam="2">  1        3 0.56638270E-02 0.14625863E+03</pdfrwt>
<pdfrwt beam="1">  1       -3 0.80924372E-01 0.14625863E+03</pdfrwt>
<totfact> 0.63560073E+02</totfact>
</mgrwt>
</event>
<event>
 7    1  0.4230786E-006  0.1828141E+03  0.7546771E-02  0.1168952E+00
          2   -1    0    0  501    0  0.00000000000E+00  0.00000000000E+00  0.75063813055E+03  0.75063813055E+03  0.00000000000E+00 0. -1.
         -2   -1    0    0    0  501 -0.00000000000E+00 -0.00000000000E+00 -0.47828267034E+02  0.47828267034E+02  0.00000000000E+00 0.  1.
         23    2    1    2    0    0 -0.12697429755E+03 -0.51062111160E+02  0.21213719616E+03  0.28004137523E+03  0.12120713845E+03 0.  0.
          5    1    3    3  502    0 -0.56164603565E+02 -0.19777334212E+02  0.19032422483E+03  0.19947683123E+03  0.47000000000E+01 0. -1.
         -5    1    3    3    0  502 -0.70809693984E+02 -0.31284776948E+02  0.21812971333E+02  0.80564543995E+02  0.47000000000E+01 0.  1.
        -11    1    1    2    0    0 -0.10491679570E+02  0.22718920011E+02  0.10693277968E+03  0.10982187412E+03  0.00000000000E+00 0.  1.
         11    1    1    2    0    0  0.13746597712E+03  0.28343191149E+02  0.38373988768E+03  0.40860314823E+03  0.00000000000E+00 0. -1.
<mgrwt>
<rscale>  0 0.17881804E+03</rscale>
<asrwt>0</asrwt>
<pdfrwt beam="1">  1        2 0.11548278E+00 0.18281406E+03</pdfrwt>
<pdfrwt beam="2">  1       -2 0.73581955E-02 0.18281406E+03</pdfrwt>
<totfact> 0.40837379E+03</totfact>
</mgrwt>
</event>
<event>
 7    1  0.4230786E-006  0.1671167E+03  0.7546771E-02  0.1187120E+00
          1   -1    0    0  501    0  0.00000000000E+00  0.00000000000E+00  0.26890357518E+03  0.26890357518E+03  0.00000000000E+00 0. -1.
         -1   -1    0    0    0  501 -0.00000000000E+00 -0.00000000000E+00 -0.14689078063E+03  0.14689078063E+03  0.00000000000E+00 0.  1.
         23    2    1    2    0    0  0.56969934934E+02  0.95175425846E+02 -0.64641522517E+02  0.17918294801E+03  0.12499626896E+03 0.  0.
          5    1    3    3  502    0  0.16069025818E+02  0.75558035041E+02  0.22700671400E+02  0.80651352946E+02  0.47000000000E+01 0. -1.
         -5    1    3    3    0  502  0.40900909116E+02  0.19617390805E+02 -0.87342193917E+02  0.98531595069E+02  0.47000000000E+01 0. -1.
        -11    1    1    2    0    0  0.50350140371E+01 -0.24335529284E+02 -0.28470569664E+01  0.25013498061E+02  0.00000000000E+00 0.  1.
         11    1    1    2    0    0 -0.62004948971E+02 -0.70839896563E+02  0.18950137403E+03  0.21159790973E+03  0.00000000000E+00 0. -1.
<mgrwt>
<rscale>  0 0.16140472E+03</rscale>
<asrwt>0</asrwt>
<pdfrwt beam="1">  1        1 0.41369781E-01 0.16711673E+03</pdfrwt>
<pdfrwt beam="2">  1       -1 0.22598582E-01 0.16711673E+03</pdfrwt>
<totfact> 0.16388217E+03</totfact>
</mgrwt>
</event>
<event>
 6    1  0.4230786E-006  0.1309610E+03  0.7546771E-02  0.1242833E+00
         -1   -1    0    0    0  501 -0.00000000000E+00  0.00000000000E+00  0.64886486685E+02  0.64886486685E+02  0.00000000000E+00 0.  1.
          1   -1    0    0  501    0  0.00000000000E+00 -0.00000000000E+00 -0.26356018153E+03  0.26356018153E+03  0.00000000000E+00 0. -1.
          5    1    1    2  502    0  0.29694639773E+02 -0.65430245221E+02 -0.98123565557E+01  0.72672284690E+02  0.47000000000E+01 0. -1.
         -5    1    1    2    0  502 -0.25684733380E+02  0.52370700308E+02 -0.17819023257E+02  0.61171916509E+02  0.47000000000E+01 0.  1.
        -11    1    1    2    0    0  0.55568159783E+01 -0.29707617750E+02 -0.13355599751E+03  0.13693292236E+03  0.00000000000E+00 0. -1.
         11    1    1    2    0    0 -0.95667223714E+01  0.42767162663E+02 -0.37486317523E+02  0.57669544654E+02  0.00000000000E+00 0.  1.
<mgrwt>
<rscale>  0 0.12016033E+03</rscale>
<asrwt>0</asrwt>
<pdfrwt beam="2">  1        1 0.40547720E-01 0.13096098E+03</pdfrwt>
<pdfrwt beam="1">  1       -1 0.99825364E-02 0.13096098E+03</pdfrwt>
<totfact> 0.60100885E+03</totfact>
</mgrwt>
</event>
<event>
 6    1  0.4230786E-006  0.1528630E+03  0.7546771E-02  0.1242199E+00
          2   -1    0    0  501    0  0.00000000000E+00  0.00000000000E+00  0.42560961018E+03  0.42560961018E+03  0.00000000000E+00 0. -1.
         -2   -1    0    0    0  501 -0.00000000000E+00 -0.00000000000E+00 -0.30625085634E+02  0.30625085634E+02  0.00000000000E+00 0.  1.
          5    1    1    2  502    0  0.77117992888E+02  0.60209198940E+02  0.10034984797E+03  0.14023021946E+03  0.47000000000E+01 0. -1.
         -5    1    1    2    0  502 -0.23657934742E+02 -0.44900491108E+02  0.95108779634E+02  0.10790515253E+03  0.47000000000E+01 0.  1.
        -11    1    1    2    0    0 -0.28924063936E+02 -0.16802556869E+02  0.13407020493E+03  0.13818012608E+03  0.00000000000E+00 0.  1.
         11    1    1    2    0    0 -0.24535994209E+02  0.14938490362E+01  0.65455692013E+02  0.69919197747E+02  0.00000000000E+00 0. -1.
<mgrwt>
<rscale>  0 0.12054624E+03</rscale>
<asrwt>0</asrwt>
<pdfrwt beam="1">  1        2 0.65478397E-01 0.15286297E+03</pdfrwt>
<pdfrwt beam="2">  1       -2 0.47115519E-02 0.15286297E+03</pdfrwt>
<totfact> 0.15217667E+04</totfact>
</mgrwt>
</event>
<event>
 7    1  0.4230786E-006  0.1368408E+03  0.7546771E-02  0.1230160E+00
          1   -1    0    0  501    0  0.00000000000E+00  0.00000000000E+00  0.83268125308E+03  0.83268125308E+03  0.00000000000E+00 0. -1.
         -1   -1    0    0    0  501 -0.00000000000E+00 -0.00000000000E+00 -0.17670478111E+02  0.17670478111E+02  0.00000000000E+00 0.  1.
         23    2    1    2    0    0 -0.31741988391E+02 -0.45760072716E+02  0.43717746414E+03  0.45809336325E+03  0.12499542479E+03 0.  0.
          5    1    3    3  502    0 -0.30653619274E+02  0.15716733735E+02  0.34764617975E+03  0.34938033200E+03  0.47000000000E+01 0.  1.
         -5    1    3    3    0  502 -0.10883691173E+01 -0.61476806450E+02  0.89531284388E+02  0.10871303125E+03  0.47000000000E+01 0.  1.
        -11    1    1    2    0    0  0.28952341960E+01 -0.24009306037E+02  0.46275181243E+02  0.52213231623E+02  0.00000000000E+00 0.  1.
         11    1    1    2    0    0  0.28846754195E+02  0.69769378753E+02  0.33155812959E+03  0.34004513632E+03  0.00000000000E+00 0. -1.
<mgrwt>
<rscale>  0 0.12819442E+03</rscale>
<asrwt>0</asrwt>
<pdfrwt beam="1">  1        1 0.12810478E+00 0.13684076E+03</pdfrwt>
<pdfrwt beam="2">  1       -1 0.27185357E-02 0.13684076E+03</pdfrwt>
<totfact> 0.90961544E+03</totfact>
</mgrwt>
</event>
<event>
 7    1  0.4230786E-006  0.1549453E+03  0.7546771E-02  0.1203506E+00
         -1   -1    0    0    0  501 -0.00000000000E+00  0.00000000000E+00  0.42225899220E+02  0.42225899220E+02  0.00000000000E+00 0.  1.
          1   -1    0    0  501    0  0.00000000000E+00 -0.00000000000E+00 -0.47346594413E+03  0.47346594413E+03  0.00000000000E+00 0. -1.
         23    2    1    2    0    0 -0.90183464732E+02  0.15813596014E+02 -0.25022223945E+03  0.29431144885E+03  0.12499973071E+03 0.  0.
          5    1    3    3  502    0 -0.93389243434E+02  0.52743120934E+02 -0.22479565517E+03  0.24911556390E+03  0.47000000000E+01 0.  1.
         -5    1    3    3    0  502  0.32057787016E+01 -0.36929524920E+02 -0.25426584279E+02  0.45195884945E+02  0.47000000000E+01 0.  1.
        -11    1    1    2    0    0  0.27019082811E+02 -0.82002553525E+00  0.20827210555E+01  0.27111639656E+02  0.00000000000E+00 0.  1.
         11    1    1    2    0    0  0.63164381921E+02 -0.14993570479E+02 -0.18310052652E+03  0.19426875485E+03  0.00000000000E+00 0. -1.
<mgrwt>
<rscale>  0 0.14755818E+03</rscale>
<asrwt>0</asrwt>
<pdfrwt beam="2">  1        1 0.72840914E-01 0.15494534E+03</pdfrwt>
<pdfrwt beam="1">  1       -1 0.64962923E-02 0.15494534E+03</pdfrwt>
<totfact> 0.55703560E+03</totfact>
</mgrwt>
</event>
<event>
 7    1  0.4230786E-006  0.1436417E+03  0.7546771E-02  0.1219333E+00
         -1   -1    0    0    0  501 -0.00000000000E+00  0.00000000000E+00  0.52087556188E+02  0.52087556188E+02  0.00000000000E+00 0.  1.
          1   -1    0    0  501    0  0.00000000000E+00 -0.00000000000E+00 -0.32505787971E+03  0.32505787971E+03  0.00000000000E+00 0. -1.
         23    2    1    2    0    0  0.61653088634E+02  0.34737977550E+02 -0.12628662480E+03  0.19126223888E+03  0.12500040798E+03 0.  0.
          5    1    3    3  502    0  0.71136300718E+02  0.10302505666E+02 -0.10911283163E+02  0.72853695878E+02  0.47000000000E+01 0. -1.
         -5    1    3    3    0  502 -0.94832120845E+01  0.24435471885E+02 -0.11537534164E+03  0.11840854300E+03  0.47000000000E+01 0. -1.
        -11    1    1    2    0    0 -0.85070133270E+01 -0.54760570384E+02 -0.55296586282E+02  0.78286664247E+02  0.00000000000E+00 0. -1.
         11    1    1    2    0    0 -0.53146075306E+02  0.20022592833E+02 -0.91387112439E+02  0.10759653277E+03  0.00000000000E+00 0.  1.
<mgrwt>
<rscale>  0 0.13562986E+03</rscale>
<asrwt>0</asrwt>
<pdfrwt beam="2">  1        1 0.50008905E-01 0.14364168E+03</pdfrwt>
<pdfrwt beam="1">  1       -1 0.80134701E-02 0.14364168E+03</pdfrwt>
<totfact> 0.65078911E+03</totfact>
</mgrwt>
</event>
<event>
 7    1  0.4230786E-006  0.1808717E+03  0.7546771E-02  0.1172623E+00
         -2   -1    0    0    0  501 -0.00000000000E+00  0.00000000000E+00  0.37473771694E+02  0.37473771694E+02  0.00000000000E+00 0.  1.
          2   -1    0    0  501    0  0.00000000000E+00 -0.00000000000E+00 -0.79530335446E+03  0.79530335446E+03  0.00000000000E+00 0. -1.
         23    2    1    2    0    0  0.64138972015E+02  0.11391762920E+03 -0.32874979842E+03  0.37522125544E+03  0.12499410625E+03 0.  0.
          5    1    3    3  502    0  0.36400743439E+01 -0.35717618474E+01 -0.16317699298E+03  0.16332430517E+03  0.47000000000E+01 0.  1.
         -5    1    3    3    0  502  0.60498897671E+02  0.11748939105E+03 -0.16557280545E+03  0.21189695027E+03  0.47000000000E+01 0.  1.
        -11    1    1    2    0    0 -0.22611707962E+02 -0.84133643305E+02 -0.14693673567E+03  0.17082202306E+03  0.00000000000E+00 0.  1.
         11    1    1    2    0    0 -0.41527264053E+02 -0.29783985897E+02 -0.28214304867E+03  0.28673384765E+03  0.00000000000E+00 0. -1.
<mgrwt>
<rscale>  0 0.17510804E+03</rscale>
<asrwt>0</asrwt>
<pdfrwt beam="2">  1        2 0.12235436E+00 0.18087167E+03</pdfrwt>
<pdfrwt beam="1">  1       -2 0.57651956E-02 0.18087167E+03</pdfrwt>
<totfact> 0.55246930E+03</totfact>
</mgrwt>
</event>
<event>
 7    1  0.4230786E-006  0.1921023E+03  0.7546771E-02  0.1160003E+00
          1   -1    0    0  501    0  0.00000000000E+00  0.00000000000E+00  0.81756740822E+03  0.81756740822E+03  0.00000000000E+00 0. -1.
         -1   -1    0    0    0  501 -0.00000000000E+00 -0.00000000000E+00 -0.42979371912E+02  0.42979371912E+02  0.00000000000E+00 0.  1.
         23    2    1    2    0    0  0.86843299546E+02 -0.11718183719E+03  0.32920455766E+03  0.38115475316E+03  0.12501985211E+03 0.  0.
          5    1    3    3  502    0  0.65724838008E+01 -0.39160235634E+02  0.22374339746E+03  0.22728818602E+03  0.47000000000E+01 0. -1.
         -5    1    3    3    0  502  0.80270815745E+02 -0.78021601559E+02  0.10546116021E+03  0.15386656714E+03  0.47000000000E+01 0. -1.
        -11    1    1    2    0    0 -0.53055341170E+02  0.14723735842E+02  0.25205003057E+03  0.25799394477E+03  0.00000000000E+00 0. -1.
         11    1    1    2    0    0 -0.33787958375E+02  0.10245810135E+03  0.19333344807E+03  0.22139808221E+03  0.00000000000E+00 0.  1.
<mgrwt>
<rscale>  0 0.18830096E+03</rscale>
<asrwt>0</asrwt>
<pdfrwt beam="1">  1        1 0.12577959E+00 0.19210233E+03</pdfrwt>
<pdfrwt beam="2">  1       -1 0.66122117E-02 0.19210233E+03</pdfrwt>
<totfact> 0.25476207E+03</totfact>
</mgrwt>
</event>
<event>
 7    1  0.4230786E-006  0.1709606E+03  0.7546771E-02  0.1183758E+00
          1   -1    0    0  501    0  0.00000000000E+00  0.00000000000E+00  0.65055746337E+02  0.65055746337E+02  0.00000000000E+00 0. -1.
         -1   -1    0    0    0  501 -0.00000000000E+00 -0.00000000000E+00 -0.38806297899E+03  0.38806297899E+03  0.00000000000E+00 0.  1.
         23    2    1    2    0    0 -0.64440915572E+02  0.97210391160E+02 -0.16215849032E+03  0.23563296687E+03  0.12500010938E+03 0.  0.
          5    1    3    3  502    0 -0.48152796833E+02  0.30375576954E+01 -0.12306465076E+03  0.13226835172E+03  0.47000000000E+01 0. -1.
         -5    1    3    3    0  502 -0.16288118740E+02  0.94172833465E+02 -0.39093839563E+02  0.10336461516E+03  0.47000000000E+01 0. -1.
        -11    1    1    2    0    0  0.44793468841E+02 -0.71197226648E+02 -0.16442414141E+03  0.18469108861E+03  0.00000000000E+00 0.  1.
         11    1    1    2    0    0  0.19647446731E+02 -0.26013164513E+02  0.35753990860E+01  0.32794669836E+02  0.00000000000E+00 0. -1.
<mgrwt>
<rscale>  0 0.16445384E+03</rscale>
<asrwt>0</asrwt>
<pdfrwt beam="1">  1        1 0.10008576E-01 0.17096058E+03</pdfrwt>
<pdfrwt beam="2">  1       -1 0.59701997E-01 0.17096058E+03</pdfrwt>
<totfact> 0.18479186E+03</totfact>
</mgrwt>
</event>
<event>
 7    1  0.4230786E-006  0.1549170E+03  0.7546771E-02  0.1203189E+00
         -2   -1    0    0    0  501 -0.00000000000E+00  0.00000000000E+00  0.92079896172E+02  0.92079896172E+02  0.00000000000E+00 0.  1.
          2   -1    0    0  501    0  0.00000000000E+00 -0.00000000000E+00 -0.23754685470E+03  0.23754685470E+03  0.00000000000E+00 0. -1.
         23    2    1    2    0    0  0.49190459267E+02  0.77161807019E+02 -0.31790364024E+02  0.15814522651E+03  0.12500255868E+03 0.  0.
          5    1    3    3  502    0  0.90443673826E+02  0.46726851308E+02 -0.31491426522E+02  0.10666422415E+03  0.47000000000E+01 0. -1.
         -5    1    3    3    0  502 -0.41253214558E+02  0.30434955711E+02 -0.29893750189E+00  0.51481002362E+02  0.47000000000E+01 0. -1.
        -11    1    1    2    0    0 -0.10799447152E+02 -0.15336192665E+02  0.14754307363E+02  0.23864543784E+02  0.00000000000E+00 0.  1.
         11    1    1    2    0    0 -0.38391012115E+02 -0.61825614354E+02 -0.12843090187E+03  0.14761698058E+03  0.00000000000E+00 0. -1.
<mgrwt>
<rscale>  0 0.14781064E+03</rscale>
<asrwt>0</asrwt>
<pdfrwt beam="2">  1        2 0.36545670E-01 0.15491703E+03</pdfrwt>
<pdfrwt beam="1">  1       -2 0.14166138E-01 0.15491703E+03</pdfrwt>
<totfact> 0.51205435E+03</totfact>
</mgrwt>
</event>
<event>
 7    1  0.4230786E-006  0.1443152E+03  0.7546771E-02  0.1217524E+00
         -3   -1    0    0    0  501 -0.00000000000E+00  0.00000000000E+00  0.20585302309E+03  0.20585302309E+03  0.00000000000E+00 0.  1.
          3   -1    0    0  501    0  0.00000000000E+00 -0.00000000000E+00 -0.98626917602E+02  0.98626917602E+02  0.00000000000E+00 0. -1.
         23    2    1    2    0    0 -0.68929162970E+02 -0.21227965288E+02  0.11883739636E+03  0.18694709246E+03  0.12500013035E+03 0.  0.
          5    1    3    3  502    0 -0.90073821412E+02  0.23849965900E+02  0.66600886581E+02  0.11462932553E+03  0.47000000000E+01 0. -1.
         -5    1    3    3    0  502  0.21144658442E+02 -0.45077931188E+02  0.52236509778E+02  0.72317766936E+02  0.47000000000E+01 0. -1.
        -11    1    1    2    0    0  0.24768177682E+02  0.21188102754E+02  0.38694804993E+02  0.50593342027E+02  0.00000000000E+00 0.  1.
         11    1    1    2    0    0  0.44160985288E+02  0.39862534072E-01 -0.50306095860E+02  0.66939506208E+02  0.00000000000E+00 0. -1.
<mgrwt>
<rscale>  0 0.13692777E+03</rscale>
<asrwt>0</asrwt>
<pdfrwt beam="2">  1        3 0.15173372E-01 0.14431524E+03</pdfrwt>
<pdfrwt beam="1">  1       -3 0.31669696E-01 0.14431524E+03</pdfrwt>
<totfact> 0.82296438E+02</totfact>
</mgrwt>
</event>
<event>
 7    1  0.4230786E-006  0.1703855E+03  0.7546771E-02  0.1183532E+00
         -2   -1    0    0    0  501 -0.00000000000E+00  0.00000000000E+00  0.31515257494E+02  0.31515257494E+02  0.00000000000E+00 0. -1.
          2   -1    0    0  501    0  0.00000000000E+00 -0.00000000000E+00 -0.83083939761E+03  0.83083939761E+03  0.00000000000E+00 0.  1.
         23    2    1    2    0    0  0.11211054766E+03 -0.28889818279E+02 -0.35368097301E+03  0.39258303734E+03  0.12501125568E+03 0.  0.
          5    1    3    3  502    0  0.96333805452E+02  0.32865386291E+02 -0.17113586787E+03  0.19917306786E+03  0.47000000000E+01 0.  1.
         -5    1    3    3    0  502  0.15776742208E+02 -0.61755204570E+02 -0.18254510514E+03  0.19340996948E+03  0.47000000000E+01 0.  1.
        -11    1    1    2    0    0 -0.71408420655E+02 -0.28374941478E+02 -0.19908033584E+03  0.21339465776E+03  0.00000000000E+00 0. -1.
         11    1    1    2    0    0 -0.40702127005E+02  0.57264759757E+02 -0.24656283127E+03  0.25637696000E+03  0.00000000000E+00 0.  1.
<mgrwt>
<rscale>  0 0.16466180E+03</rscale>
<asrwt>0</asrwt>
<pdfrwt beam="2">  1        2 0.12782143E+00 0.17038548E+03</pdfrwt>
<pdfrwt beam="1">  1       -2 0.48485016E-02 0.17038548E+03</pdfrwt>
<totfact> 0.67788586E+03</totfact>
</mgrwt>
</event>
<event>
 7    1  0.4230786E-006  0.1546017E+03  0.7546771E-02  0.1203669E+00
          1   -1    0    0  501    0  0.00000000000E+00  0.00000000000E+00  0.54070066566E+03  0.54070066566E+03  0.00000000000E+00 0. -1.
         -1   -1    0    0    0  501 -0.00000000000E+00 -0.00000000000E+00 -0.45170071535E+02  0.45170071535E+02  0.00000000000E+00 0.  1.
         23    2    1    2    0    0  0.54676889600E+02  0.72710002094E+02  0.14193815136E+03  0.20987648391E+03  0.12500157210E+03 0.  0.
          5    1    3    3  502    0  0.26392320497E+02 -0.77116150907E+00  0.12674277724E+03  0.12954910596E+03  0.47000000000E+01 0. -1.
         -5    1    3    3    0  502  0.28284569103E+02  0.73481163603E+02  0.15195374114E+02  0.80327377950E+02  0.47000000000E+01 0. -1.
        -11    1    1    2    0    0  0.11543216107E+02  0.11477703006E+02  0.90180735249E+02  0.91638138973E+02  0.00000000000E+00 0. -1.
         11    1    1    2    0    0 -0.66220105707E+02 -0.84187705100E+02  0.26341170752E+03  0.28435611431E+03  0.00000000000E+00 0.  1.
<mgrwt>
<rscale>  0 0.14742828E+03</rscale>
<asrwt>0</asrwt>
<pdfrwt beam="1">  1        1 0.83184713E-01 0.15460175E+03</pdfrwt>
<pdfrwt beam="2">  1       -1 0.69492422E-02 0.15460175E+03</pdfrwt>
<totfact> 0.42278633E+03</totfact>
</mgrwt>
</event>
<event>
 7    1  0.4230786E-006  0.1658834E+03  0.7546771E-02  0.1189203E+00
          1   -1    0    0  501    0  0.00000000000E+00  0.00000000000E+00  0.50430109843E+03  0.50430109843E+03  0.00000000000E+00 0. -1.
         -1   -1    0    0    0  501 -0.00000000000E+00 -0.00000000000E+00 -0.52745273513E+02  0.52745273513E+02  0.00000000000E+00 0.  1.
         23    2    1    2    0    0 -0.70884071590E+02  0.82892788051E+02  0.14959359696E+03  0.22337310887E+03  0.12498614163E+03 0.  0.
          5    1    3    3  502    0 -0.78489295691E+01  0.76939501637E+02  0.13881503703E+03  0.15897483170E+03  0.47000000000E+01 0.  1.
         -5    1    3    3    0  502 -0.63035142021E+02  0.59532864145E+01  0.10778559930E+02  0.64398277174E+02  0.47000000000E+01 0.  1.
        -11    1    1    2    0    0  0.28103245926E+01 -0.35372627081E+02  0.22208164080E+02  0.41860759940E+02  0.00000000000E+00 0.  1.
         11    1    1    2    0    0  0.68073746997E+02 -0.47520160970E+02  0.27975406387E+03  0.29181250313E+03  0.00000000000E+00 0. -1.
<mgrwt>
<rscale>  0 0.15955283E+03</rscale>
<asrwt>0</asrwt>
<pdfrwt beam="1">  1        1 0.77584781E-01 0.16588340E+03</pdfrwt>
<pdfrwt beam="2">  1       -1 0.81146578E-02 0.16588340E+03</pdfrwt>
<totfact> 0.36793030E+03</totfact>
</mgrwt>
</event>
<event>
 7    1  0.4230786E-006  0.1394459E+03  0.7546771E-02  0.1224777E+00
          2   -1    0    0  501    0  0.00000000000E+00  0.00000000000E+00  0.15932408723E+03  0.15932408723E+03  0.00000000000E+00 0. -1.
         -2   -1    0    0    0  501 -0.00000000000E+00 -0.00000000000E+00 -0.14409428933E+03  0.14409428933E+03  0.00000000000E+00 0.  1.
         23    2    1    2    0    0 -0.54333655092E+02 -0.29469535392E+02 -0.76580376477E+02  0.15909030776E+03  0.12499828947E+03 0.  0.
          5    1    3    3  502    0  0.38324684353E+02 -0.19881928685E+01 -0.55569238471E+01  0.39060257863E+02  0.47000000000E+01 0. -1.
         -5    1    3    3    0  502 -0.92658339445E+02 -0.27481342524E+02 -0.71023452630E+02  0.12003004990E+03  0.47000000000E+01 0. -1.
        -11    1    1    2    0    0  0.15434274554E+02  0.53914227018E+02  0.20924866722E+02  0.59856584878E+02  0.00000000000E+00 0. -1.
         11    1    1    2    0    0  0.38899380537E+02 -0.24444691626E+02  0.70885307650E+02  0.84471483920E+02  0.00000000000E+00 0.  1.
<mgrwt>
<rscale>  0 0.13182222E+03</rscale>
<asrwt>0</asrwt>
<pdfrwt beam="1">  1        2 0.24511398E-01 0.13944595E+03</pdfrwt>
<pdfrwt beam="2">  1       -2 0.22168352E-01 0.13944595E+03</pdfrwt>
<totfact> 0.37195493E+03</totfact>
</mgrwt>
</event>
<event>
 7    1  0.4230786E-006  0.1334151E+03  0.7546771E-02  0.1234922E+00
          1   -1    0    0  501    0  0.00000000000E+00  0.00000000000E+00  0.79324550291E+03  0.79324550291E+03  0.00000000000E+00 0. -1.
         -1   -1    0    0    0  501 -0.00000000000E+00 -0.00000000000E+00 -0.17753190779E+02  0.17753190779E+02  0.00000000000E+00 0.  1.
         23    2    1    2    0    0 -0.13049582749E+02  0.44765372305E+02  0.40393873872E+03  0.42540110710E+03  0.12500146847E+03 0.  0.
          5    1    3    3  502    0 -0.14412639603E+02  0.36444337319E+02  0.41134467273E+03  0.41323412696E+03  0.47000000000E+01 0. -1.
         -5    1    3    3    0  502  0.13630568548E+01  0.83210349862E+01 -0.74059340100E+01  0.12166980143E+02  0.47000000000E+01 0. -1.
        -11    1    1    2    0    0  0.43247556002E+02  0.50182674248E+01  0.12883439289E+03  0.13599203983E+03  0.00000000000E+00 0.  1.
         11    1    1    2    0    0 -0.30197973254E+02 -0.49783639730E+02  0.24271918053E+03  0.24960554675E+03  0.00000000000E+00 0. -1.
<mgrwt>
<rscale>  0 0.12509445E+03</rscale>
<asrwt>0</asrwt>
<pdfrwt beam="1">  1        1 0.12203774E+00 0.13341513E+03</pdfrwt>
<pdfrwt beam="2">  1       -1 0.27312607E-02 0.13341513E+03</pdfrwt>
<totfact> 0.97100502E+03</totfact>
</mgrwt>
</event>
<event>
 7    1  0.4230786E-006  0.1414229E+03  0.7546771E-02  0.1221953E+00
          3   -1    0    0  501    0  0.00000000000E+00  0.00000000000E+00  0.13064235319E+03  0.13064235319E+03  0.00000000000E+00 0. -1.
         -3   -1    0    0    0  501 -0.00000000000E+00 -0.00000000000E+00 -0.14349030070E+03  0.14349030070E+03  0.00000000000E+00 0.  1.
         23    2    1    2    0    0 -0.36057383356E+02 -0.55457247357E+02 -0.57151992199E+02  0.15253453776E+03  0.12499917527E+03 0.  0.
          5    1    3    3  502    0  0.18774390058E+02 -0.16157860635E+02 -0.77836171125E+02  0.81817563626E+02  0.47000000000E+01 0.  1.
         -5    1    3    3    0  502 -0.54831773414E+02 -0.39299386722E+02  0.20684178926E+02  0.70716974131E+02  0.47000000000E+01 0.  1.
        -11    1    1    2    0    0 -0.14990306180E+02  0.63291314248E+01  0.47970744221E+02  0.50655300661E+02  0.00000000000E+00 0. -1.
         11    1    1    2    0    0  0.51047689535E+02  0.49128115932E+02 -0.36666995358E+01  0.70942815474E+02  0.00000000000E+00 0.  1.
<mgrwt>
<rscale>  0 0.13377950E+03</rscale>
<asrwt>0</asrwt>
<pdfrwt beam="1">  1        3 0.20098824E-01 0.14142289E+03</pdfrwt>
<pdfrwt beam="2">  1       -3 0.22075431E-01 0.14142289E+03</pdfrwt>
<totfact> 0.97151106E+02</totfact>
</mgrwt>
</event>
<event>
 7    1  0.4230786E-006  0.1315842E+03  0.7546771E-02  0.1238811E+00
          3   -1    0    0  501    0  0.00000000000E+00  0.00000000000E+00  0.82704627079E+02  0.82704627079E+02  0.00000000000E+00 0. -1.
         -3   -1    0    0    0  501 -0.00000000000E+00 -0.00000000000E+00 -0.16116064886E+03  0.16116064886E+03  0.00000000000E+00 0.  1.
         23    2    1    2    0    0  0.23224923649E+02  0.33909067703E+02 -0.46850265808E+02  0.13967588315E+03  0.12500073190E+03 0.  0.
          5    1    3    3  502    0 -0.41864437855E+02 -0.71474229773E+01  0.99985941551E+01  0.43883695118E+02  0.47000000000E+01 0. -1.
         -5    1    3    3    0  502  0.65089361504E+02  0.41056490680E+02 -0.56848859963E+02  0.95792188028E+02  0.47000000000E+01 0. -1.
        -11    1    1    2    0    0 -0.28682497758E+02  0.11293793133E+02 -0.46930052283E+02  0.56148599700E+02  0.00000000000E+00 0.  1.
         11    1    1    2    0    0  0.54575741085E+01 -0.45202860837E+02  0.15324296315E+02  0.48040793088E+02  0.00000000000E+00 0. -1.
<mgrwt>
<rscale>  0 0.12263607E+03</rscale>
<asrwt>0</asrwt>
<pdfrwt beam="1">  1        3 0.12723789E-01 0.13158421E+03</pdfrwt>
<pdfrwt beam="2">  1       -3 0.24793946E-01 0.13158421E+03</pdfrwt>
<totfact> 0.17133210E+03</totfact>
</mgrwt>
</event>
<event>
 7    1  0.4230786E-006  0.1261008E+03  0.7546771E-02  0.1248296E+00
         -1   -1    0    0    0  501 -0.00000000000E+00  0.00000000000E+00  0.12704164873E+03  0.12704164873E+03  0.00000000000E+00 0.  1.
          1   -1    0    0  501    0  0.00000000000E+00 -0.00000000000E+00 -0.98376831746E+02  0.98376831746E+02  0.00000000000E+00 0. -1.
         23    2    1    2    0    0 -0.45218804843E+01 -0.15917531292E+02  0.38277127545E+02  0.13178216993E+03  0.12501034602E+03 0.  0.
          5    1    3    3  502    0  0.56546036769E+01  0.31247257167E+02 -0.32704010524E+02  0.45825843446E+02  0.47000000000E+01 0. -1.
         -5    1    3    3    0  502 -0.10176484161E+02 -0.47164788459E+02  0.70981138069E+02  0.85956326479E+02  0.47000000000E+01 0. -1.
        -11    1    1    2    0    0  0.18389674552E+02  0.17987849519E+02 -0.47069766731E+02  0.53640523865E+02  0.00000000000E+00 0. -1.
         11    1    1    2    0    0 -0.13867794067E+02 -0.20703182271E+01  0.37457456166E+02  0.39995786682E+02  0.00000000000E+00 0.  1.
<mgrwt>
<rscale>  0 0.11690262E+03</rscale>
<asrwt>0</asrwt>
<pdfrwt beam="2">  1        1 0.15134897E-01 0.12610076E+03</pdfrwt>
<pdfrwt beam="1">  1       -1 0.19544869E-01 0.12610076E+03</pdfrwt>
<totfact> 0.72568065E+03</totfact>
</mgrwt>
</event>
<event>
 7    1  0.4230786E-006  0.2024325E+03  0.7546771E-02  0.1151810E+00
         -2   -1    0    0    0  501 -0.00000000000E+00  0.00000000000E+00  0.95227862617E+02  0.95227862617E+02  0.00000000000E+00 0.  1.
          2   -1    0    0  501    0  0.00000000000E+00 -0.00000000000E+00 -0.39386004967E+03  0.39386004967E+03  0.00000000000E+00 0. -1.
         23    2    1    2    0    0 -0.14540203571E+03  0.64896001445E+02 -0.17610690870E+03  0.26831432014E+03  0.12500275242E+03 0.  0.
          5    1    3    3  502    0 -0.14673788025E+03  0.93076547707E+02 -0.15134765311E+03  0.23048525188E+03  0.47000000000E+01 0.  1.
         -5    1    3    3    0  502  0.13358445464E+01 -0.28180546263E+02 -0.24759255589E+02  0.37829068262E+02  0.47000000000E+01 0.  1.
        -11    1    1    2    0    0  0.66164324884E+02 -0.70344682029E+02 -0.35340325895E+02  0.10283496882E+03  0.00000000000E+00 0.  1.
         11    1    1    2    0    0  0.79237710821E+02  0.54486805841E+01 -0.87184952462E+02  0.11793862333E+03  0.00000000000E+00 0. -1.
<mgrwt>
<rscale>  0 0.19756496E+03</rscale>
<asrwt>0</asrwt>
<pdfrwt beam="2">  1        2 0.60593853E-01 0.20243253E+03</pdfrwt>
<pdfrwt beam="1">  1       -2 0.14650441E-01 0.20243253E+03</pdfrwt>
<totfact> 0.28534919E+03</totfact>
</mgrwt>
</event>
<event>
 7    1  0.4230786E-006  0.1765141E+03  0.7546771E-02  0.1177031E+00
         -1   -1    0    0    0  501 -0.00000000000E+00  0.00000000000E+00  0.47505147460E+03  0.47505147460E+03  0.00000000000E+00 0.  1.
          1   -1    0    0  501    0  0.00000000000E+00 -0.00000000000E+00 -0.89763206322E+02  0.89763206322E+02  0.00000000000E+00 0. -1.
         23    2    1    2    0    0 -0.78768175684E+02  0.96569057238E+02  0.36927686925E+03  0.40929527292E+03  0.12500882349E+03 0.  0.
          5    1    3    3  502    0 -0.79414998314E+01  0.18906094673E+02 -0.40510096115E+01  0.21424483989E+02  0.47000000000E+01 0. -1.
         -5    1    3    3    0  502 -0.70826675853E+02  0.77662962565E+02  0.37332787887E+03  0.38787078893E+03  0.47000000000E+01 0. -1.
        -11    1    1    2    0    0  0.15094433589E+02 -0.86548745472E+02  0.22630653748E+02  0.90723060780E+02  0.00000000000E+00 0.  1.
         11    1    1    2    0    0  0.63673742095E+02 -0.10020311766E+02 -0.66192547256E+01  0.64796347222E+02  0.00000000000E+00 0. -1.
<mgrwt>
<rscale>  0 0.17078595E+03</rscale>
<asrwt>0</asrwt>
<pdfrwt beam="2">  1        1 0.13809724E-01 0.17651406E+03</pdfrwt>
<pdfrwt beam="1">  1       -1 0.73084841E-01 0.17651406E+03</pdfrwt>
<totfact> 0.81327939E+02</totfact>
</mgrwt>
</event>
<event>
 7    1  0.4230786E-006  0.2853824E+03  0.7546771E-02  0.1094651E+00
         -2   -1    0    0    0  501 -0.00000000000E+00  0.00000000000E+00  0.46286298181E+03  0.46286298181E+03  0.00000000000E+00 0. -1.
          2   -1    0    0  501    0  0.00000000000E+00 -0.00000000000E+00 -0.16983083330E+03  0.16983083330E+03  0.00000000000E+00 0.  1.
         23    2    1    2    0    0  0.23723090574E+03  0.97673900357E+02  0.11416642179E+03  0.30737125173E+03  0.12499768428E+03 0.  0.
          5    1    3    3  502    0  0.17471657784E+03  0.40194842946E+02  0.19957980939E+02  0.18044921440E+03  0.47000000000E+01 0. -1.
         -5    1    3    3    0  502  0.62514327892E+02  0.57479057411E+02  0.94208440849E+02  0.12692203733E+03  0.47000000000E+01 0. -1.
        -11    1    1    2    0    0 -0.16354514591E+03 -0.63466607522E+02  0.16882010928E+03  0.24346509877E+03  0.00000000000E+00 0. -1.
         11    1    1    2    0    0 -0.73685759824E+02 -0.34207292836E+02  0.10045617439E+02  0.81857464618E+02  0.00000000000E+00 0.  1.
<mgrwt>
<rscale>  0 0.28190851E+03</rscale>
<asrwt>0</asrwt>
<pdfrwt beam="2">  1        2 0.26127821E-01 0.28538240E+03</pdfrwt>
<pdfrwt beam="1">  1       -2 0.71209689E-01 0.28538240E+03</pdfrwt>
<totfact> 0.37762203E+02</totfact>
</mgrwt>
</event>
<event>
 6    1  0.4230786E-006  0.2030131E+03  0.7546771E-02  0.1166209E+00
          2   -1    0    0  501    0  0.00000000000E+00  0.00000000000E+00  0.28087541447E+03  0.28087541447E+03  0.00000000000E+00 0. -1.
         -2   -1    0    0    0  501 -0.00000000000E+00 -0.00000000000E+00 -0.11583826076E+03  0.11583826076E+03  0.00000000000E+00 0.  1.
          5    1    1    2  502    0  0.24817537485E+02  0.45837536812E+01  0.76820994727E+02  0.80996766575E+02  0.47000000000E+01 0. -1.
         -5    1    1    2    0  502 -0.75894312000E+02 -0.81124609969E+02 -0.53426658061E+02  0.12335982623E+03  0.47000000000E+01 0.  1.
        -11    1    1    2    0    0  0.51142137167E+02 -0.20669958534E+01  0.48985572355E+02  0.70847561460E+02  0.00000000000E+00 0.  1.
         11    1    1    2    0    0 -0.65362652778E-01  0.78607852141E+02  0.92657244686E+02  0.12150952096E+03  0.00000000000E+00 0. -1.
<mgrwt>
<rscale>  0 0.18165720E+03</rscale>
<asrwt>0</asrwt>
<pdfrwt beam="1">  1        2 0.43211602E-01 0.20301311E+03</pdfrwt>
<pdfrwt beam="2">  1       -2 0.17821271E-01 0.20301311E+03</pdfrwt>
<totfact> 0.29640630E+03</totfact>
</mgrwt>
</event>
<event>
 7    1  0.4230786E-006  0.1297564E+03  0.7546771E-02  0.1243957E+00
         -3   -1    0    0    0  501 -0.00000000000E+00  0.00000000000E+00  0.31306748678E+02  0.31306748678E+02  0.00000000000E+00 0.  1.
          3   -1    0    0  501    0  0.00000000000E+00 -0.00000000000E+00 -0.39835888851E+03  0.39835888851E+03  0.00000000000E+00 0. -1.
         23    2    1    2    0    0  0.31327845941E+02 -0.15133298809E+02 -0.20225620101E+03  0.24030042634E+03  0.12500509345E+03 0.  0.
          5    1    3    3  502    0 -0.47961606305E+02  0.29462313991E+01 -0.77027040916E+02  0.90907925899E+02  0.47000000000E+01 0. -1.
         -5    1    3    3    0  502  0.79289452246E+02 -0.18079530208E+02 -0.12522916009E+03  0.14939250044E+03  0.47000000000E+01 0. -1.
        -11    1    1    2    0    0 -0.45437300701E+01 -0.35602910761E+02 -0.61617317250E+02  0.71308530504E+02  0.00000000000E+00 0. -1.
         11    1    1    2    0    0 -0.26784115871E+02  0.50736209570E+02 -0.10317862157E+03  0.11805668035E+03  0.00000000000E+00 0.  1.
<mgrwt>
<rscale>  0 0.11948015E+03</rscale>
<asrwt>0</asrwt>
<pdfrwt beam="2">  1        3 0.61285979E-01 0.12975640E+03</pdfrwt>
<pdfrwt beam="1">  1       -3 0.48164232E-02 0.12975640E+03</pdfrwt>
<totfact> 0.14557418E+03</totfact>
</mgrwt>
</event>
<event>
 7    1  0.4230786E-006  0.1320282E+03  0.7546771E-02  0.1238607E+00
         -2   -1    0    0    0  501 -0.00000000000E+00  0.00000000000E+00  0.18875270362E+02  0.18875270362E+02  0.00000000000E+00 0.  1.
          2   -1    0    0  501    0  0.00000000000E+00 -0.00000000000E+00 -0.72179563512E+03  0.72179563512E+03  0.00000000000E+00 0. -1.
         23    2    1    2    0    0 -0.36953696966E+02  0.20987895840E+02 -0.34521237514E+03  0.36959848765E+03  0.12500156251E+03 0.  0.
          5    1    3    3  502    0 -0.60626273684E+02  0.55463373515E+02 -0.16313162655E+03  0.18271767414E+03  0.47000000000E+01 0.  1.
         -5    1    3    3    0  502  0.23672576718E+02 -0.34475477675E+02 -0.18208074860E+03  0.18688081351E+03  0.47000000000E+01 0.  1.
        -11    1    1    2    0    0 -0.21953488349E+02 -0.20262755574E+02 -0.54092248416E+02  0.61794063250E+02  0.00000000000E+00 0.  1.
         11    1    1    2    0    0  0.58907185315E+02 -0.72514026531E+00 -0.30361574119E+03  0.30927835458E+03  0.00000000000E+00 0. -1.
<mgrwt>
<rscale>  0 0.12276329E+03</rscale>
<asrwt>0</asrwt>
<pdfrwt beam="2">  1        2 0.11104549E+00 0.13202825E+03</pdfrwt>
<pdfrwt beam="1">  1       -2 0.29038876E-02 0.13202825E+03</pdfrwt>
<totfact> 0.17012955E+04</totfact>
</mgrwt>
</event>
<event>
 7    1  0.4230786E-006  0.1409017E+03  0.7546771E-02  0.1222884E+00
          2   -1    0    0  501    0  0.00000000000E+00  0.00000000000E+00  0.73746718594E+03  0.73746718594E+03  0.00000000000E+00 0. -1.
         -2   -1    0    0    0  501 -0.00000000000E+00 -0.00000000000E+00 -0.21767375918E+02  0.21767375918E+02  0.00000000000E+00 0.  1.
         23    2    1    2    0    0  0.49188338475E+02 -0.42540688100E+02  0.41333481041E+03  0.43669090507E+03  0.12499631310E+03 0.  0.
          5    1    3    3  502    0  0.61263280488E+02  0.21254736988E+01  0.84036371891E+02  0.10412448787E+03  0.47000000000E+01 0.  1.
         -5    1    3    3    0  502 -0.12074942013E+02 -0.44666161798E+02  0.32929843852E+03  0.33256641719E+03  0.47000000000E+01 0.  1.
        -11    1    1    2    0    0 -0.72893591879E+02  0.44856503122E+02  0.20187341712E+03  0.21926800530E+03  0.00000000000E+00 0. -1.
         11    1    1    2    0    0  0.23705253404E+02 -0.23158150228E+01  0.10049158250E+03  0.10327565149E+03  0.00000000000E+00 0.  1.
<mgrwt>
<rscale>  0 0.13312993E+03</rscale>
<asrwt>0</asrwt>
<pdfrwt beam="1">  1        2 0.11345647E+00 0.14090167E+03</pdfrwt>
<pdfrwt beam="2">  1       -2 0.33488276E-02 0.14090167E+03</pdfrwt>
<totfact> 0.13503892E+04</totfact>
</mgrwt>
</event>
<event>
 7    1  0.4230786E-006  0.1690419E+03  0.7546771E-02  0.1189434E+00
          1   -1    0    0  501    0  0.00000000000E+00  0.00000000000E+00  0.13134745799E+04  0.13134745799E+04  0.00000000000E+00 0. -1.
         -1   -1    0    0    0  501 -0.00000000000E+00 -0.00000000000E+00 -0.21984106686E+02  0.21984106686E+02  0.00000000000E+00 0.  1.
         23    2    1    2    0    0  0.25951451241E+02 -0.11080810821E+03  0.10085013485E+04  0.10225703557E+04  0.12499299102E+03 0.  0.
          5    1    3    3  502    0 -0.45042565588E+02 -0.14218254859E+02  0.22646464852E+03  0.23138564890E+03  0.47000000000E+01 0.  1.
         -5    1    3    3    0  502  0.70994016829E+02 -0.96589853354E+02  0.78203670001E+03  0.79118470685E+03  0.47000000000E+01 0.  1.
        -11    1    1    2    0    0 -0.35406492777E+02  0.78272781589E+02  0.12743943696E+03  0.15369143815E+03  0.00000000000E+00 0. -1.
         11    1    1    2    0    0  0.94550415359E+01  0.32535326624E+02  0.15554968772E+03  0.15919689268E+03  0.00000000000E+00 0.  1.
<mgrwt>
<rscale>  0 0.15934845E+03</rscale>
<asrwt>0</asrwt>
<pdfrwt beam="1">  1        1 0.20207295E+00 0.16904190E+03</pdfrwt>
<pdfrwt beam="2">  1       -1 0.33821713E-02 0.16904190E+03</pdfrwt>
<totfact> 0.29979162E+03</totfact>
</mgrwt>
</event>
<event>
 7    1  0.4230786E-006  0.2026066E+03  0.7546771E-02  0.1151961E+00
          1   -1    0    0  501    0  0.00000000000E+00  0.00000000000E+00  0.24295982131E+03  0.24295982131E+03  0.00000000000E+00 0. -1.
         -1   -1    0    0    0  501 -0.00000000000E+00 -0.00000000000E+00 -0.32905661488E+03  0.32905661488E+03  0.00000000000E+00 0.  1.
         23    2    1    2    0    0  0.14358754374E+02 -0.15880311947E+03 -0.25338377110E+03  0.32442681064E+03  0.12499926170E+03 0.  0.
          5    1    3    3  502    0  0.11249317611E+02 -0.11392212364E+01  0.11058501888E+02  0.16499255612E+02  0.47000000000E+01 0. -1.
         -5    1    3    3    0  502  0.31094367627E+01 -0.15766389824E+03 -0.26444227299E+03  0.30792755503E+03  0.47000000000E+01 0. -1.
        -11    1    1    2    0    0 -0.40958374866E+02  0.14765610494E+03  0.13412283219E+03  0.20363901373E+03  0.00000000000E+00 0.  1.
         11    1    1    2    0    0  0.26599620492E+02  0.11147014528E+02  0.33164145335E+02  0.43950611816E+02  0.00000000000E+00 0. -1.
<mgrwt>
<rscale>  0 0.19738822E+03</rscale>
<asrwt>0</asrwt>
<pdfrwt beam="1">  1        1 0.37378434E-01 0.20260656E+03</pdfrwt>
<pdfrwt beam="2">  1       -1 0.50624095E-01 0.20260656E+03</pdfrwt>
<totfact> 0.46279450E+02</totfact>
</mgrwt>
</event>
<event>
 7    1  0.4230786E-006  0.1390763E+03  0.7546771E-02  0.1230989E+00
         -2   -1    0    0    0  501 -0.00000000000E+00  0.00000000000E+00  0.16314905123E+03  0.16314905123E+03  0.00000000000E+00 0.  1.
          2   -1    0    0  501    0  0.00000000000E+00 -0.00000000000E+00 -0.19014215906E+03  0.19014215906E+03  0.00000000000E+00 0. -1.
         23    2    1    2    0    0 -0.11856909445E+02 -0.59800369711E+02  0.11493393544E+03  0.18042182736E+03  0.12500222300E+03 0.  0.
          5    1    3    3  502    0  0.17592957763E+02 -0.75638561744E+02  0.12315264696E+03  0.14566869478E+03  0.47000000000E+01 0.  1.
         -5    1    3    3    0  502 -0.29449867208E+02  0.15838192033E+02 -0.82187115166E+01  0.34753132585E+02  0.47000000000E+01 0.  1.
        -11    1    1    2    0    0 -0.28024725129E+02  0.40668229773E+02 -0.10179443646E+03  0.11314326063E+03  0.00000000000E+00 0.  1.
         11    1    1    2    0    0  0.39881634574E+02  0.19132139938E+02 -0.40132606822E+02  0.59726122302E+02  0.00000000000E+00 0. -1.
<mgrwt>
<rscale>  0 0.12764764E+03</rscale>
<asrwt>0</asrwt>
<pdfrwt beam="2">  1        2 0.29252640E-01 0.13907633E+03</pdfrwt>
<pdfrwt beam="1">  1       -2 0.25099854E-01 0.13907633E+03</pdfrwt>
<totfact> 0.24706939E+03</totfact>
</mgrwt>
</event>
<event>
 7    1  0.4230786E-006  0.1968048E+03  0.7546771E-02  0.1155853E+00
          1   -1    0    0  501    0  0.00000000000E+00  0.00000000000E+00  0.59988703147E+03  0.59988703147E+03  0.00000000000E+00 0. -1.
         -1   -1    0    0    0  501 -0.00000000000E+00 -0.00000000000E+00 -0.10276083421E+03  0.10276083421E+03  0.00000000000E+00 0.  1.
         23    2    1    2    0    0 -0.14661074293E+03  0.55528541768E+02  0.27031989028E+02  0.19865261656E+03  0.11897060452E+03 0.  0.
          5    1    3    3  502    0  0.30937070378E+01 -0.17263518714E+02 -0.18590467869E+02  0.25986450263E+02  0.47000000000E+01 0. -1.
         -5    1    3    3    0  502 -0.14970444997E+03  0.72792060482E+02  0.45622456897E+02  0.17266616630E+03  0.47000000000E+01 0.  1.
        -11    1    1    2    0    0  0.13118689134E+03 -0.75519223652E+02  0.35091502825E+03  0.38217078728E+03  0.00000000000E+00 0. -1.
         11    1    1    2    0    0  0.15423851593E+02  0.19990681884E+02  0.11917917998E+03  0.12182446184E+03  0.00000000000E+00 0.  1.
<mgrwt>
<rscale>  0 0.19292045E+03</rscale>
<asrwt>0</asrwt>
<pdfrwt beam="1">  1        1 0.92290310E-01 0.19680481E+03</pdfrwt>
<pdfrwt beam="2">  1       -1 0.15809359E-01 0.19680481E+03</pdfrwt>
<totfact> 0.10401257E+03</totfact>
</mgrwt>
</event>
<event>
 7    1  0.4230786E-006  0.1296885E+03  0.7546771E-02  0.1236134E+00
          2   -1    0    0  501    0  0.00000000000E+00  0.00000000000E+00  0.77533381677E+02  0.77533381677E+02  0.00000000000E+00 0. -1.
         -2   -1    0    0    0  501 -0.00000000000E+00 -0.00000000000E+00 -0.18790142636E+03  0.18790142636E+03  0.00000000000E+00 0.  1.
         23    2    1    2    0    0 -0.36711727670E+02  0.43560781280E+02 -0.77551385620E+02  0.15110696486E+03  0.11650667279E+03 0.  0.
          5    1    3    3  502    0 -0.34814322573E+02  0.69701462290E+02 -0.10243281774E+02  0.78723222261E+02  0.47000000000E+01 0. -1.
         -5    1    3    3    0  502 -0.18974050972E+01 -0.26140681010E+02 -0.67308103846E+02  0.72383742603E+02  0.47000000000E+01 0.  1.
        -11    1    1    2    0    0  0.27574565883E+00 -0.39967344681E+02  0.24085380825E+02  0.46664443059E+02  0.00000000000E+00 0. -1.
         11    1    1    2    0    0  0.36435982011E+02 -0.35934365996E+01 -0.56902039883E+02  0.67663400111E+02  0.00000000000E+00 0.  1.
<mgrwt>
<rscale>  0 0.12432148E+03</rscale>
<asrwt>0</asrwt>
<pdfrwt beam="1">  1        2 0.11928213E-01 0.12968846E+03</pdfrwt>
<pdfrwt beam="2">  1       -2 0.28907911E-01 0.12968846E+03</pdfrwt>
<totfact> 0.53366394E+03</totfact>
</mgrwt>
</event>
<event>
 7    1  0.4230786E-006  0.1227305E+03  0.7546771E-02  0.1247504E+00
         -2   -1    0    0    0  501 -0.00000000000E+00  0.00000000000E+00  0.26834729687E+02  0.26834729687E+02  0.00000000000E+00 0.  1.
          2   -1    0    0  501    0  0.00000000000E+00 -0.00000000000E+00 -0.67119186217E+03  0.67119186217E+03  0.00000000000E+00 0. -1.
         23    2    1    2    0    0 -0.33750091864E+02 -0.41255132729E+02 -0.15340043229E+03  0.19645472333E+03  0.11055184763E+03 0.  0.
          5    1    3    3  502    0 -0.68687023650E+01 -0.45444989238E+02 -0.16126090511E+03  0.16774860845E+03  0.47000000000E+01 0. -1.
         -5    1    3    3    0  502 -0.26881389499E+02  0.41898565089E+01  0.78604728142E+01  0.28706114886E+02  0.47000000000E+01 0.  1.
        -11    1    1    2    0    0 -0.24536916658E+02  0.36338337759E+02 -0.22962897835E+03  0.23377767808E+03  0.00000000000E+00 0.  1.
         11    1    1    2    0    0  0.58287008523E+02  0.49167949704E+01 -0.26132772184E+03  0.26779419045E+03  0.00000000000E+00 0. -1.
<mgrwt>
<rscale>  0 0.11736754E+03</rscale>
<asrwt>0</asrwt>
<pdfrwt beam="2">  1        2 0.10326029E+00 0.12273046E+03</pdfrwt>
<pdfrwt beam="1">  1       -2 0.41284196E-02 0.12273046E+03</pdfrwt>
<totfact> 0.10973391E+04</totfact>
</mgrwt>
</event>
<event>
 7    1  0.4230786E-006  0.1301615E+03  0.7546771E-02  0.1241041E+00
          4   -1    0    0  501    0  0.00000000000E+00  0.00000000000E+00  0.29033717035E+03  0.29033717035E+03  0.00000000000E+00 0. -1.
         -4   -1    0    0    0  501 -0.00000000000E+00 -0.00000000000E+00 -0.45392899122E+02  0.45392899122E+02  0.00000000000E+00 0.  1.
         23    2    1    2    0    0 -0.29388649843E+02  0.21232265220E+02  0.15791548321E+03  0.20464438518E+03  0.12501009049E+03 0.  0.
          5    1    3    3  502    0 -0.70974520822E+02 -0.16262113637E+02  0.10164878282E+03  0.12512555292E+03  0.47000000000E+01 0. -1.
         -5    1    3    3    0  502  0.41585870980E+02  0.37494378857E+02  0.56266700397E+02  0.79518832264E+02  0.47000000000E+01 0. -1.
        -11    1    1    2    0    0 -0.28558153062E+02 -0.26894806785E+02  0.28171205960E+02  0.48296123898E+02  0.00000000000E+00 0.  1.
         11    1    1    2    0    0  0.57946802905E+02  0.56625415648E+01  0.58857582051E+02  0.82789560385E+02  0.00000000000E+00 0. -1.
<mgrwt>
<rscale>  0 0.12125490E+03</rscale>
<asrwt>0</asrwt>
<pdfrwt beam="1">  1        4 0.44667256E-01 0.13016153E+03</pdfrwt>
<pdfrwt beam="2">  1       -4 0.69835231E-02 0.13016153E+03</pdfrwt>
<totfact> 0.11042747E+03</totfact>
</mgrwt>
</event>
<event>
 7    1  0.4230786E-006  0.1650118E+03  0.7546771E-02  0.1190272E+00
          1   -1    0    0  501    0  0.00000000000E+00  0.00000000000E+00  0.48507355423E+02  0.48507355423E+02  0.00000000000E+00 0. -1.
         -1   -1    0    0    0  501 -0.00000000000E+00 -0.00000000000E+00 -0.48597340051E+03  0.48597340051E+03  0.00000000000E+00 0.  1.
         23    2    1    2    0    0  0.33006322549E+02  0.10253766484E+03 -0.25935088334E+03  0.30739515690E+03  0.12500204702E+03 0.  0.
          5    1    3    3  502    0  0.25788835216E+02  0.34059389318E+02 -0.43261095928E+01  0.43196194818E+02  0.47000000000E+01 0. -1.
         -5    1    3    3    0  502  0.72174873337E+01  0.68478275524E+02 -0.25502477375E+03  0.26419896208E+03  0.47000000000E+01 0. -1.
        -11    1    1    2    0    0 -0.38462299993E+02 -0.38546638684E+02 -0.22833932352E+02  0.59047272090E+02  0.00000000000E+00 0. -1.
         11    1    1    2    0    0  0.54559774440E+01 -0.63991026159E+02 -0.15528122940E+03  0.16803832694E+03  0.00000000000E+00 0.  1.
<mgrwt>
<rscale>  0 0.15861229E+03</rscale>
<asrwt>0</asrwt>
<pdfrwt beam="1">  1        1 0.74626696E-02 0.16501182E+03</pdfrwt>
<pdfrwt beam="2">  1       -1 0.74765144E-01 0.16501182E+03</pdfrwt>
<totfact> 0.17613955E+03</totfact>
</mgrwt>
</event>
<event>
 7    1  0.4230786E-006  0.1413836E+03  0.7546771E-02  0.1218929E+00
         -3   -1    0    0    0  501 -0.00000000000E+00  0.00000000000E+00  0.11401972648E+03  0.11401972648E+03  0.00000000000E+00 0.  1.
          3   -1    0    0  501    0  0.00000000000E+00 -0.00000000000E+00 -0.22726947666E+03  0.22726947666E+03  0.00000000000E+00 0. -1.
         23    2    1    2    0    0 -0.32790207775E+02 -0.71602789510E+02  0.39284995752E+02  0.14674005659E+03  0.11741880652E+03 0.  0.
          5    1    3    3  502    0 -0.50106940062E+02 -0.63249290068E+02 -0.20814258712E+02  0.83465570759E+02  0.47000000000E+01 0. -1.
         -5    1    3    3    0  502  0.17316732287E+02 -0.83534994420E+01  0.60099254464E+02  0.63274485831E+02  0.47000000000E+01 0.  1.
        -11    1    1    2    0    0  0.42294517334E+01  0.85335444589E+02 -0.13038339627E+03  0.15588411205E+03  0.00000000000E+00 0. -1.
         11    1    1    2    0    0  0.28560756042E+02 -0.13732655079E+02 -0.22151349665E+02  0.38665034504E+02  0.00000000000E+00 0.  1.
<mgrwt>
<rscale>  0 0.13591846E+03</rscale>
<asrwt>0</asrwt>
<pdfrwt beam="2">  1        3 0.34964535E-01 0.14138364E+03</pdfrwt>
<pdfrwt beam="1">  1       -3 0.17541496E-01 0.14138364E+03</pdfrwt>
<totfact> 0.53060043E+02</totfact>
</mgrwt>
</event>
<event>
 7    1  0.4230786E-006  0.1328615E+03  0.7546771E-02  0.1236092E+00
          2   -1    0    0  501    0  0.00000000000E+00  0.00000000000E+00  0.56226861628E+03  0.56226861628E+03  0.00000000000E+00 0. -1.
         -2   -1    0    0    0  501 -0.00000000000E+00 -0.00000000000E+00 -0.25603176904E+02  0.25603176904E+02  0.00000000000E+00 0.  1.
         23    2    1    2    0    0 -0.29614788493E+02 -0.33951010244E+02  0.24203386130E+03  0.27610244684E+03  0.12498985695E+03 0.  0.
          5    1    3    3  502    0 -0.61108306215E+02  0.24659565704E+02  0.12568276792E+03  0.14198791294E+03  0.47000000000E+01 0. -1.
         -5    1    3    3    0  502  0.31493517723E+02 -0.58610575948E+02  0.11635109338E+03  0.13411453389E+03  0.47000000000E+01 0. -1.
        -11    1    1    2    0    0  0.60983971542E+02  0.32168192604E+02  0.22608854920E+03  0.23636808050E+03  0.00000000000E+00 0. -1.
         11    1    1    2    0    0 -0.31369183049E+02  0.17828176406E+01  0.68543028883E+02  0.75401265854E+02  0.00000000000E+00 0.  1.
<mgrwt>
<rscale>  0 0.12434793E+03</rscale>
<asrwt>0</asrwt>
<pdfrwt beam="1">  1        2 0.86502855E-01 0.13286147E+03</pdfrwt>
<pdfrwt beam="2">  1       -2 0.39389507E-02 0.13286147E+03</pdfrwt>
<totfact> 0.14488409E+04</totfact>
</mgrwt>
</event>
<event>
 6    1  0.4230786E-006  0.1561638E+03  0.7546771E-02  0.1216980E+00
         -2   -1    0    0    0  501 -0.00000000000E+00  0.00000000000E+00  0.12362252610E+03  0.12362252610E+03  0.00000000000E+00 0.  1.
          2   -1    0    0  501    0  0.00000000000E+00 -0.00000000000E+00 -0.14879234651E+03  0.14879234651E+03  0.00000000000E+00 0. -1.
          5    1    1    2  502    0 -0.42351231765E+02  0.56892566439E+02 -0.13272615133E+02  0.72309358043E+02  0.47000000000E+01 0. -1.
         -5    1    1    2    0  502  0.22789160439E+02 -0.68740711807E+02  0.49959131046E+02  0.88105823123E+02  0.47000000000E+01 0.  1.
        -11    1    1    2    0    0 -0.12767263951E+02  0.36219541891E+02 -0.60290637915E+02  0.71482999824E+02  0.00000000000E+00 0. -1.
         11    1    1    2    0    0  0.32329335277E+02 -0.24371396523E+02 -0.15656984042E+01  0.40516691615E+02  0.00000000000E+00 0.  1.
<mgrwt>
<rscale>  0 0.13732059E+03</rscale>
<asrwt>0</asrwt>
<pdfrwt beam="2">  1        2 0.22891130E-01 0.15616379E+03</pdfrwt>
<pdfrwt beam="1">  1       -2 0.19018850E-01 0.15616379E+03</pdfrwt>
<totfact> 0.52436775E+03</totfact>
</mgrwt>
</event>
<event>
 7    1  0.4230786E-006  0.2157160E+03  0.7546771E-02  0.1140807E+00
          2   -1    0    0  501    0  0.00000000000E+00  0.00000000000E+00  0.12952660376E+04  0.12952660376E+04  0.00000000000E+00 0. -1.
         -2   -1    0    0    0  501 -0.00000000000E+00 -0.00000000000E+00 -0.51143484310E+02  0.51143484310E+02  0.00000000000E+00 0.  1.
         23    2    1    2    0    0 -0.45787221434E+02  0.16973984851E+03  0.23837889371E+03  0.32149320099E+03  0.12500118197E+03 0.  0.
          5    1    3    3  502    0 -0.48994485592E+02  0.34633160802E+01  0.54939306268E+02  0.73843561330E+02  0.47000000000E+01 0.  1.
         -5    1    3    3    0  502  0.32072641584E+01  0.16627653243E+03  0.18343958745E+03  0.24764963966E+03  0.47000000000E+01 0.  1.
        -11    1    1    2    0    0  0.66796445325E+02 -0.79284780550E+02  0.48485109054E+03  0.49581087274E+03  0.00000000000E+00 0. -1.
         11    1    1    2    0    0 -0.21009223891E+02 -0.90455067964E+02  0.52089256905E+03  0.52910544818E+03  0.00000000000E+00 0.  1.
<mgrwt>
<rscale>  0 0.21096076E+03</rscale>
<asrwt>0</asrwt>
<pdfrwt beam="1">  1        2 0.19927167E+00 0.21571597E+03</pdfrwt>
<pdfrwt beam="2">  1       -2 0.78682293E-02 0.21571597E+03</pdfrwt>
<totfact> 0.17154716E+03</totfact>
</mgrwt>
</event>
<event>
 7    1  0.4230786E-006  0.1251491E+03  0.7546771E-02  0.1251423E+00
         -1   -1    0    0    0  501 -0.00000000000E+00  0.00000000000E+00  0.54269720400E+03  0.54269720400E+03  0.00000000000E+00 0.  1.
          1   -1    0    0  501    0  0.00000000000E+00 -0.00000000000E+00 -0.34143610708E+02  0.34143610708E+02  0.00000000000E+00 0. -1.
         23    2    1    2    0    0 -0.57400445958E+01 -0.40238650445E+01  0.45639262969E+03  0.47324045550E+03  0.12495261773E+03 0.  0.
          5    1    3    3  502    0 -0.47534488096E+02  0.39725702506E+02  0.18527754423E+03  0.19541626697E+03  0.47000000000E+01 0.  1.
         -5    1    3    3    0  502  0.41794443500E+02 -0.43749567551E+02  0.27111508546E+03  0.27782418853E+03  0.47000000000E+01 0.  1.
        -11    1    1    2    0    0  0.26593672112E+02  0.39552737404E+02  0.21722385037E+02  0.52378473100E+02  0.00000000000E+00 0.  1.
         11    1    1    2    0    0 -0.20853627517E+02 -0.35528872360E+02  0.30438578559E+02  0.51221886108E+02  0.00000000000E+00 0. -1.
<mgrwt>
<rscale>  0 0.11509070E+03</rscale>
<asrwt>0</asrwt>
<pdfrwt beam="2">  1        1 0.52528636E-02 0.12514910E+03</pdfrwt>
<pdfrwt beam="1">  1       -1 0.83491871E-01 0.12514910E+03</pdfrwt>
<totfact> 0.22370604E+03</totfact>
</mgrwt>
</event>
<event>
 7    1  0.4230786E-006  0.1336207E+03  0.7546771E-02  0.1235607E+00
          2   -1    0    0  501    0  0.00000000000E+00  0.00000000000E+00  0.39863299350E+03  0.39863299350E+03  0.00000000000E+00 0.  1.
         -2   -1    0    0    0  501 -0.00000000000E+00 -0.00000000000E+00 -0.34932350492E+02  0.34932350492E+02  0.00000000000E+00 0. -1.
         23    2    1    2    0    0 -0.27487052795E+01 -0.47291609386E+02  0.18529160980E+03  0.22844577691E+03  0.12494174894E+03 0.  0.
          5    1    3    3  502    0 -0.59248173745E+02 -0.48487638835E+02  0.11281157803E+03  0.13641825153E+03  0.47000000000E+01 0. -1.
         -5    1    3    3    0  502  0.56499468466E+02  0.11960294487E+01  0.72480031770E+02  0.92027525386E+02  0.47000000000E+01 0. -1.
        -11    1    1    2    0    0 -0.21100698325E+02  0.64846569309E+02  0.97668066180E+02  0.11911913437E+03  0.00000000000E+00 0. -1.
         11    1    1    2    0    0  0.23849403604E+02 -0.17554959923E+02  0.80740967025E+02  0.86000432710E+02  0.00000000000E+00 0.  1.
<mgrwt>
<rscale>  0 0.12465662E+03</rscale>
<asrwt>0</asrwt>
<pdfrwt beam="1">  1        2 0.61328150E-01 0.13362070E+03</pdfrwt>
<pdfrwt beam="2">  1       -2 0.53742080E-02 0.13362070E+03</pdfrwt>
<totfact> 0.13253942E+04</totfact>
</mgrwt>
</event>
<event>
 7    1  0.4230786E-006  0.1503942E+03  0.7546771E-02  0.1208827E+00
          2   -1    0    0  501    0  0.00000000000E+00  0.00000000000E+00  0.36746845942E+02  0.36746845942E+02  0.00000000000E+00 0.  1.
         -2   -1    0    0    0  501 -0.00000000000E+00 -0.00000000000E+00 -0.52807611944E+03  0.52807611944E+03  0.00000000000E+00 0. -1.
         23    2    1    2    0    0  0.65874498380E+02 -0.51514631247E+02 -0.31524796727E+03  0.34928453854E+03  0.12500080491E+03 0.  0.
          5    1    3    3  502    0  0.68240010939E+02 -0.42810786112E+02 -0.79366462581E+02  0.11318386759E+03  0.47000000000E+01 0. -1.
         -5    1    3    3    0  502 -0.23655125590E+01 -0.87038451351E+01 -0.23588150469E+03  0.23610067095E+03  0.47000000000E+01 0. -1.
        -11    1    1    2    0    0 -0.96585583585E+01  0.64735463065E+02 -0.79136401025E+02  0.10269633827E+03  0.00000000000E+00 0.  1.
         11    1    1    2    0    0 -0.56215940022E+02 -0.13220831819E+02 -0.96944905207E+02  0.11284208857E+03  0.00000000000E+00 0. -1.
<mgrwt>
<rscale>  0 0.14339929E+03</rscale>
<asrwt>0</asrwt>
<pdfrwt beam="1">  1        2 0.56533615E-02 0.15039418E+03</pdfrwt>
<pdfrwt beam="2">  1       -2 0.81242472E-01 0.15039418E+03</pdfrwt>
<totfact> 0.17824061E+03</totfact>
</mgrwt>
</event>
<event>
 7    1  0.4230786E-006  0.1270549E+03  0.7546771E-02  0.1245346E+00
         -1   -1    0    0    0  501 -0.00000000000E+00  0.00000000000E+00  0.94496025958E+02  0.94496025958E+02  0.00000000000E+00 0.  1.
          1   -1    0    0  501    0  0.00000000000E+00 -0.00000000000E+00 -0.15770204735E+03  0.15770204735E+03  0.00000000000E+00 0. -1.
         23    2    1    2    0    0  0.18181422702E+02 -0.13740883249E+02  0.14945563528E+02  0.12793089244E+03  0.12499426934E+03 0.  0.
          5    1    3    3  502    0  0.54236029962E+02  0.32717013556E+02  0.24676146473E+02  0.68139211374E+02  0.47000000000E+01 0.  1.
         -5    1    3    3    0  502 -0.36054607259E+02 -0.46457896805E+02 -0.97305829452E+01  0.59791681065E+02  0.47000000000E+01 0.  1.
        -11    1    1    2    0    0 -0.28814427110E+02 -0.33048309238E+02 -0.56785325153E+02  0.71742840102E+02  0.00000000000E+00 0. -1.
         11    1    1    2    0    0  0.10633004408E+02  0.46789192487E+02 -0.21366259765E+02  0.52524340764E+02  0.00000000000E+00 0.  1.
<mgrwt>
<rscale>  0 0.11864675E+03</rscale>
<asrwt>0</asrwt>
<pdfrwt beam="2">  1        1 0.24261853E-01 0.12705488E+03</pdfrwt>
<pdfrwt beam="1">  1       -1 0.14537850E-01 0.12705488E+03</pdfrwt>
<totfact> 0.63564169E+03</totfact>
</mgrwt>
</event>
<event>
 7    1  0.4230786E-006  0.2227722E+03  0.7546771E-02  0.1135046E+00
         -2   -1    0    0    0  501 -0.00000000000E+00  0.00000000000E+00  0.16714888070E+03  0.16714888070E+03  0.00000000000E+00 0.  1.
          2   -1    0    0  501    0  0.00000000000E+00 -0.00000000000E+00 -0.35521459341E+03  0.35521459341E+03  0.00000000000E+00 0. -1.
         23    2    1    2    0    0 -0.13287477872E+03 -0.12785081401E+03  0.27207879003E+02  0.22442754451E+03  0.12500366632E+03 0.  0.
          5    1    3    3  502    0 -0.82092356327E+01 -0.19796699474E+02  0.53017782070E+02  0.57378358947E+02  0.47000000000E+01 0. -1.
         -5    1    3    3    0  502 -0.12466554308E+03 -0.10805411454E+03 -0.25809903067E+02  0.16704918556E+03  0.47000000000E+01 0. -1.
        -11    1    1    2    0    0  0.38434646592E+02  0.80084590068E+02 -0.14774954458E+03  0.17239690122E+03  0.00000000000E+00 0. -1.
         11    1    1    2    0    0  0.94440132125E+02  0.47766223943E+02 -0.67524047129E+02  0.12553902838E+03  0.00000000000E+00 0.  1.
<mgrwt>
<rscale>  0 0.21844698E+03</rscale>
<asrwt>0</asrwt>
<pdfrwt beam="2">  1        2 0.54648398E-01 0.22277220E+03</pdfrwt>
<pdfrwt beam="1">  1       -2 0.25715213E-01 0.22277220E+03</pdfrwt>
<totfact> 0.12260489E+03</totfact>
</mgrwt>
</event>
<event>
 7    1  0.4230786E-006  0.1237953E+03  0.7546771E-02  0.1245773E+00
          1   -1    0    0  501    0  0.00000000000E+00  0.00000000000E+00  0.21394068147E+03  0.21394068147E+03  0.00000000000E+00 0. -1.
         -1   -1    0    0    0  501 -0.00000000000E+00 -0.00000000000E+00 -0.16015988774E+03  0.16015988774E+03  0.00000000000E+00 0.  1.
         23    2    1    2    0    0 -0.22458683318E+02  0.42270163932E+02 -0.11960988097E+03  0.17213891712E+03  0.11416708784E+03 0.  0.
          5    1    3    3  502    0  0.29135915273E+02  0.24870093523E+02  0.21727723846E+01  0.38655323702E+02  0.47000000000E+01 0. -1.
         -5    1    3    3    0  502 -0.51594598591E+02  0.17400070409E+02 -0.12178265336E+03  0.13348359342E+03  0.47000000000E+01 0.  1.
        -11    1    1    2    0    0 -0.28564006073E+02 -0.43525352162E+02  0.78057605234E+02  0.93826160844E+02  0.00000000000E+00 0. -1.
         11    1    1    2    0    0  0.51022689391E+02  0.12551882301E+01  0.95333069473E+02  0.10813549124E+03  0.00000000000E+00 0.  1.
<mgrwt>
<rscale>  0 0.11839237E+03</rscale>
<asrwt>0</asrwt>
<pdfrwt beam="1">  1        1 0.32913951E-01 0.12379533E+03</pdfrwt>
<pdfrwt beam="2">  1       -1 0.24639983E-01 0.12379533E+03</pdfrwt>
<totfact> 0.18713301E+03</totfact>
</mgrwt>
</event>
<event>
 6    1  0.4230786E-006  0.2573901E+03  0.7546771E-02  0.1108721E+00
          1   -1    0    0  501    0  0.00000000000E+00  0.00000000000E+00  0.27660841682E+02  0.27660841682E+02  0.00000000000E+00 0. -1.
         -1   -1    0    0    0  501 -0.00000000000E+00 -0.00000000000E+00 -0.59876781530E+03  0.59876781530E+03  0.00000000000E+00 0.  1.
          5    1    1    2  502    0  0.39443511204E+02  0.48335161068E+02 -0.81604526735E+02  0.10282736579E+03  0.47000000000E+01 0. -1.
         -5    1    1    2    0  502 -0.93060052197E+01 -0.23269097969E+02 -0.35536242653E+03  0.35627601216E+03  0.47000000000E+01 0.  1.
        -11    1    1    2    0    0  0.20514636502E+02 -0.41388361422E+02 -0.53183345680E+02  0.70443701136E+02  0.00000000000E+00 0. -1.
         11    1    1    2    0    0 -0.50652142486E+02  0.16322298323E+02 -0.80956674673E+02  0.96881577893E+02  0.00000000000E+00 0.  1.
<mgrwt>
<rscale>  0 0.25739015E+03</rscale>
<asrwt>0</asrwt>
<pdfrwt beam="1">  1        1 0.42555145E-02 0.25739015E+03</pdfrwt>
<pdfrwt beam="2">  1       -1 0.92118117E-01 0.25739015E+03</pdfrwt>
<totfact> 0.25086903E+03</totfact>
</mgrwt>
</event>
<event>
 7    1  0.4230786E-006  0.1132291E+03  0.7546771E-02  0.1265377E+00
         -4   -1    0    0    0  501 -0.00000000000E+00  0.00000000000E+00  0.72462835721E+02  0.72462835721E+02  0.00000000000E+00 0.  1.
          4   -1    0    0  501    0  0.00000000000E+00 -0.00000000000E+00 -0.16860789272E+03  0.16860789272E+03  0.00000000000E+00 0. -1.
         23    2    1    2    0    0 -0.16753277226E+02  0.80428224973E+00 -0.75356695855E+01  0.11347962358E+03  0.11197999591E+03 0.  0.
          5    1    3    3  502    0 -0.11750311442E+02 -0.47447337622E+02 -0.32334640949E+02  0.58795736849E+02  0.47000000000E+01 0. -1.
         -5    1    3    3    0  502 -0.50029657845E+01  0.48251619872E+02  0.24798971363E+02  0.54683886727E+02  0.47000000000E+01 0.  1.
        -11    1    1    2    0    0 -0.14592967051E+02  0.36307115301E+02 -0.58689692357E+02  0.70538225792E+02  0.00000000000E+00 0.  1.
         11    1    1    2    0    0  0.31346244277E+02 -0.37111397551E+02 -0.29919695059E+02  0.57052879076E+02  0.00000000000E+00 0. -1.
<mgrwt>
<rscale>  0 0.10744430E+03</rscale>
<asrwt>0</asrwt>
<pdfrwt beam="2">  1        4 0.25939675E-01 0.11322914E+03</pdfrwt>
<pdfrwt beam="1">  1       -4 0.11148129E-01 0.11322914E+03</pdfrwt>
<totfact> 0.13943005E+03</totfact>
</mgrwt>
</event>
<event>
 7    1  0.4230786E-006  0.1836007E+03  0.7546771E-02  0.1169754E+00
          2   -1    0    0  501    0  0.00000000000E+00  0.00000000000E+00  0.67162490458E+03  0.67162490458E+03  0.00000000000E+00 0. -1.
         -2   -1    0    0    0  501 -0.00000000000E+00 -0.00000000000E+00 -0.44795023863E+02  0.44795023863E+02  0.00000000000E+00 0.  1.
         23    2    1    2    0    0 -0.91487891035E+02 -0.98560035433E+02  0.30417283817E+03  0.35528905998E+03  0.12500034348E+03 0.  0.
          5    1    3    3  502    0 -0.12320420379E+02 -0.48853931027E+02  0.23101931445E+03  0.23649632763E+03  0.47000000000E+01 0. -1.
         -5    1    3    3    0  502 -0.79167470656E+02 -0.49706104406E+02  0.73153523719E+02  0.11879273234E+03  0.47000000000E+01 0. -1.
        -11    1    1    2    0    0  0.57417605671E+02  0.10344618683E+03  0.18788367435E+03  0.22203191234E+03  0.00000000000E+00 0.  1.
         11    1    1    2    0    0  0.34070285364E+02 -0.48861513940E+01  0.13477336820E+03  0.13909895613E+03  0.00000000000E+00 0. -1.
<mgrwt>
<rscale>  0 0.17799857E+03</rscale>
<asrwt>0</asrwt>
<pdfrwt beam="1">  1        2 0.10332690E+00 0.18360066E+03</pdfrwt>
<pdfrwt beam="2">  1       -2 0.68915426E-02 0.18360066E+03</pdfrwt>
<totfact> 0.51686154E+03</totfact>
</mgrwt>
</event>
<event>
 7    1  0.4230786E-006  0.1733764E+03  0.7546771E-02  0.1180422E+00
          1   -1    0    0  501    0  0.00000000000E+00  0.00000000000E+00  0.15942416656E+03  0.15942416656E+03  0.00000000000E+00 0. -1.
         -1   -1    0    0    0  501 -0.00000000000E+00 -0.00000000000E+00 -0.17026620741E+03  0.17026620741E+03  0.00000000000E+00 0.  1.
         23    2    1    2    0    0 -0.60646574260E+02 -0.10369420112E+03 -0.34030285856E+02  0.17668461177E+03  0.12501558849E+03 0.  0.
          5    1    3    3  502    0 -0.57566942773E+02 -0.40394321695E+02 -0.73534389148E+02  0.10185799189E+03  0.47000000000E+01 0. -1.
         -5    1    3    3    0  502 -0.30796314871E+01 -0.63299879420E+02  0.39504103293E+02  0.74826619873E+02  0.47000000000E+01 0. -1.
        -11    1    1    2    0    0 -0.23402163283E+02  0.23372246472E+02  0.15410319838E+02  0.36488369503E+02  0.00000000000E+00 0.  1.
         11    1    1    2    0    0  0.84048737543E+02  0.80321954643E+02  0.77779251658E+01  0.11651739269E+03  0.00000000000E+00 0. -1.
<mgrwt>
<rscale>  0 0.16755528E+03</rscale>
<asrwt>0</asrwt>
<pdfrwt beam="1">  1        1 0.24526795E-01 0.17337644E+03</pdfrwt>
<pdfrwt beam="2">  1       -1 0.26194801E-01 0.17337644E+03</pdfrwt>
<totfact> 0.24746853E+03</totfact>
</mgrwt>
</event>
<event>
 7    1  0.4230786E-006  0.1399889E+03  0.7546771E-02  0.1222614E+00
          1   -1    0    0  501    0  0.00000000000E+00  0.00000000000E+00  0.34902753400E+02  0.34902753400E+02  0.00000000000E+00 0. -1.
         -1   -1    0    0    0  501 -0.00000000000E+00 -0.00000000000E+00 -0.48014432960E+03  0.48014432960E+03  0.00000000000E+00 0.  1.
         23    2    1    2    0    0  0.59120530376E+02 -0.21834833744E+02 -0.28723028148E+03  0.31952796120E+03  0.12499954525E+03 0.  0.
          5    1    3    3  502    0  0.83180351103E+02  0.15027578049E+02 -0.24137341961E+03  0.25578900798E+03  0.47000000000E+01 0.  1.
         -5    1    3    3    0  502 -0.24059820727E+02 -0.36862411793E+02 -0.45856861874E+02  0.63738953220E+02  0.47000000000E+01 0.  1.
        -11    1    1    2    0    0 -0.78100567675E+02  0.11719623776E+02 -0.72032585022E+02  0.10689126044E+03  0.00000000000E+00 0. -1.
         11    1    1    2    0    0  0.18980037299E+02  0.10115209968E+02 -0.85978709699E+02  0.88627861365E+02  0.00000000000E+00 0.  1.
<mgrwt>
<rscale>  0 0.13331798E+03</rscale>
<asrwt>0</asrwt>
<pdfrwt beam="1">  1        1 0.53696541E-02 0.13998887E+03</pdfrwt>
<pdfrwt beam="2">  1       -1 0.73868362E-01 0.13998887E+03</pdfrwt>
<totfact> 0.28017368E+03</totfact>
</mgrwt>
</event>
<event>
 7    1  0.4230786E-006  0.1276041E+03  0.7546771E-02  0.1247470E+00
         -4   -1    0    0    0  501 -0.00000000000E+00  0.00000000000E+00  0.41436469103E+02  0.41436469103E+02  0.00000000000E+00 0.  1.
          4   -1    0    0  501    0  0.00000000000E+00 -0.00000000000E+00 -0.36705921772E+03  0.36705921772E+03  0.00000000000E+00 0. -1.
         23    2    1    2    0    0  0.25257942758E+02 -0.46144217565E+01 -0.91074787251E+02  0.15677184609E+03  0.12499415303E+03 0.  0.
          5    1    3    3  502    0  0.35275079631E+02 -0.59599904209E+02 -0.36129274617E+02  0.78255314894E+02  0.47000000000E+01 0. -1.
         -5    1    3    3    0  502 -0.10017136873E+02  0.54985482453E+02 -0.54945512634E+02  0.78516531192E+02  0.47000000000E+01 0. -1.
        -11    1    1    2    0    0  0.19343281017E+02  0.19951369786E+02 -0.16725749600E+03  0.16955025698E+03  0.00000000000E+00 0. -1.
         11    1    1    2    0    0 -0.44601223776E+02 -0.15336948030E+02 -0.67290465372E+02  0.82173583755E+02  0.00000000000E+00 0.  1.
<mgrwt>
<rscale>  0 0.11738784E+03</rscale>
<asrwt>0</asrwt>
<pdfrwt beam="2">  1        4 0.56470650E-01 0.12760405E+03</pdfrwt>
<pdfrwt beam="1">  1       -4 0.63748413E-02 0.12760405E+03</pdfrwt>
<totfact> 0.79169673E+02</totfact>
</mgrwt>
</event>
<event>
 7    1  0.4230786E-006  0.1274463E+03  0.7546771E-02  0.1245769E+00
         -1   -1    0    0    0  501 -0.00000000000E+00  0.00000000000E+00  0.64469269243E+02  0.64469269243E+02  0.00000000000E+00 0.  1.
          1   -1    0    0  501    0  0.00000000000E+00 -0.00000000000E+00 -0.22096041902E+03  0.22096041902E+03  0.00000000000E+00 0. -1.
         23    2    1    2    0    0 -0.52975328507E+01  0.24282489960E+02 -0.36765884554E+02  0.13264350393E+03  0.12499946278E+03 0.  0.
          5    1    3    3  502    0 -0.41466530236E+02 -0.29113490652E+02 -0.44398629935E+02  0.67530710110E+02  0.47000000000E+01 0. -1.
         -5    1    3    3    0  502  0.36168997386E+02  0.53395980613E+02  0.76327453808E+01  0.65112793824E+02  0.47000000000E+01 0. -1.
        -11    1    1    2    0    0 -0.18471377057E+02 -0.43614642389E+02 -0.25685034602E+02  0.53880885327E+02  0.00000000000E+00 0.  1.
         11    1    1    2    0    0  0.23768909907E+02  0.19332152429E+02 -0.94040230626E+02  0.98905299008E+02  0.00000000000E+00 0. -1.
<mgrwt>
<rscale>  0 0.11839490E+03</rscale>
<asrwt>0</asrwt>
<pdfrwt beam="2">  1        1 0.33993911E-01 0.12744634E+03</pdfrwt>
<pdfrwt beam="1">  1       -1 0.99183490E-02 0.12744634E+03</pdfrwt>
<totfact> 0.75320467E+03</totfact>
</mgrwt>
</event>
<event>
 7    1  0.4230786E-006  0.1197207E+03  0.7546771E-02  0.1252181E+00
         -1   -1    0    0    0  501 -0.00000000000E+00  0.00000000000E+00  0.33500850998E+02  0.33500850998E+02  0.00000000000E+00 0.  1.
          1   -1    0    0  501    0  0.00000000000E+00 -0.00000000000E+00 -0.36639809721E+03  0.36639809721E+03  0.00000000000E+00 0. -1.
         23    2    1    2    0    0 -0.49685899929E+01 -0.39550500988E+02 -0.16042176454E+03  0.20017041500E+03  0.11288987328E+03 0.  0.
          5    1    3    3  502    0  0.49430088116E+02 -0.41859143848E+02 -0.82499611969E+02  0.10499427370E+03  0.47000000000E+01 0. -1.
         -5    1    3    3    0  502 -0.54398678109E+02  0.23086428599E+01 -0.77922152569E+02  0.95176141301E+02  0.47000000000E+01 0.  1.
        -11    1    1    2    0    0 -0.31012587909E+02 -0.10729641004E+02 -0.30192529482E+02  0.44592540199E+02  0.00000000000E+00 0.  1.
         11    1    1    2    0    0  0.35981177902E+02  0.50280141992E+02 -0.14228295219E+03  0.15513599301E+03  0.00000000000E+00 0. -1.
<mgrwt>
<rscale>  0 0.11465725E+03</rscale>
<asrwt>0</asrwt>
<pdfrwt beam="2">  1        1 0.56368940E-01 0.11972073E+03</pdfrwt>
<pdfrwt beam="1">  1       -1 0.51539769E-02 0.11972073E+03</pdfrwt>
<totfact> 0.10697246E+04</totfact>
</mgrwt>
</event>
<event>
 7    1  0.4230786E-006  0.1536767E+03  0.7546771E-02  0.1204136E+00
          1   -1    0    0  501    0  0.00000000000E+00  0.00000000000E+00  0.37912959153E+03  0.37912959153E+03  0.00000000000E+00 0. -1.
         -1   -1    0    0    0  501 -0.00000000000E+00 -0.00000000000E+00 -0.52823173929E+02  0.52823173929E+02  0.00000000000E+00 0.  1.
         23    2    1    2    0    0  0.65684483595E+02  0.60650194221E+02  0.19011987689E+03  0.24446285198E+03  0.12499448373E+03 0.  0.
          5    1    3    3  502    0  0.75934450073E+02  0.75902215607E+02  0.19690081991E+03  0.22431943724E+03  0.47000000000E+01 0.  1.
         -5    1    3    3    0  502 -0.10249966477E+02 -0.15252021385E+02 -0.67809430197E+01  0.20143414739E+02  0.47000000000E+01 0.  1.
        -11    1    1    2    0    0  0.10335664662E+02 -0.21925410049E+02  0.84118287284E+02  0.87541052229E+02  0.00000000000E+00 0. -1.
         11    1    1    2    0    0 -0.76020148258E+02 -0.38724784172E+02  0.52068253423E+02  0.99948861248E+02  0.00000000000E+00 0.  1.
<mgrwt>
<rscale>  0 0.14705781E+03</rscale>
<asrwt>0</asrwt>
<pdfrwt beam="1">  1        1 0.58327628E-01 0.15367667E+03</pdfrwt>
<pdfrwt beam="2">  1       -1 0.81266424E-02 0.15367667E+03</pdfrwt>
<totfact> 0.52759697E+03</totfact>
</mgrwt>
</event>
<event>
 7    1  0.4230786E-006  0.1251052E+03  0.7546771E-02  0.1250907E+00
          1   -1    0    0  501    0  0.00000000000E+00  0.00000000000E+00  0.96464575566E+02  0.96464575566E+02  0.00000000000E+00 0. -1.
         -1   -1    0    0    0  501 -0.00000000000E+00 -0.00000000000E+00 -0.12222092289E+03  0.12222092289E+03  0.00000000000E+00 0.  1.
         23    2    1    2    0    0 -0.20889443463E+01  0.46910594950E+01 -0.27688782007E+02  0.12813267119E+03  0.12499977220E+03 0.  0.
          5    1    3    3  502    0  0.14729951417E+02  0.26198720287E+02 -0.70702292875E+02  0.76969140772E+02  0.47000000000E+01 0. -1.
         -5    1    3    3    0  502 -0.16818895764E+02 -0.21507660792E+02  0.43013510868E+02  0.51163530417E+02  0.47000000000E+01 0. -1.
        -11    1    1    2    0    0  0.39145443105E+02 -0.25422207193E+02  0.89190001432E+01  0.47520552375E+02  0.00000000000E+00 0.  1.
         11    1    1    2    0    0 -0.37056498759E+02  0.20731147698E+02 -0.69865654556E+01  0.43032274888E+02  0.00000000000E+00 0. -1.
<mgrwt>
<rscale>  0 0.11538711E+03</rscale>
<asrwt>0</asrwt>
<pdfrwt beam="1">  1        1 0.14840704E-01 0.12510521E+03</pdfrwt>
<pdfrwt beam="2">  1       -1 0.18803219E-01 0.12510521E+03</pdfrwt>
<totfact> 0.79123371E+03</totfact>
</mgrwt>
</event>
<event>
 7    1  0.4230786E-006  0.1258686E+03  0.7546771E-02  0.1248728E+00
         -3   -1    0    0    0  501 -0.00000000000E+00  0.00000000000E+00  0.63193516823E+03  0.63193516823E+03  0.00000000000E+00 0.  1.
          3   -1    0    0  501    0  0.00000000000E+00 -0.00000000000E+00 -0.36849425746E+02  0.36849425746E+02  0.00000000000E+00 0. -1.
         23    2    1    2    0    0 -0.10931601292E+02  0.98562805726E+01  0.55245843665E+03  0.56661558333E+03  0.12500499537E+03 0.  0.
          5    1    3    3  502    0  0.51396356473E+02 -0.20236961924E+02  0.28237032015E+03  0.28776067797E+03  0.47000000000E+01 0.  1.
         -5    1    3    3    0  502 -0.62327957765E+02  0.30093242497E+02  0.27008811650E+03  0.27885490535E+03  0.47000000000E+01 0.  1.
        -11    1    1    2    0    0  0.24041430573E+01  0.19175547906E+02  0.62863832714E+02  0.65767339956E+02  0.00000000000E+00 0.  1.
         11    1    1    2    0    0  0.85274582349E+01 -0.29031828479E+02 -0.20236526885E+02  0.36401670691E+02  0.00000000000E+00 0. -1.
<mgrwt>
<rscale>  0 0.11665015E+03</rscale>
<asrwt>0</asrwt>
<pdfrwt beam="2">  1        3 0.56691429E-02 0.12586856E+03</pdfrwt>
<pdfrwt beam="1">  1       -3 0.97220787E-01 0.12586856E+03</pdfrwt>
<totfact> 0.41376912E+02</totfact>
</mgrwt>
</event>
<event>
 6    1  0.4230786E-006  0.2868526E+03  0.7546771E-02  0.1110007E+00
         -3   -1    0    0    0  501 -0.00000000000E+00  0.00000000000E+00  0.52160005412E+03  0.52160005412E+03  0.00000000000E+00 0.  1.
          3   -1    0    0  501    0  0.00000000000E+00 -0.00000000000E+00 -0.10677449000E+03  0.10677449000E+03  0.00000000000E+00 0. -1.
          5    1    1    2  502    0 -0.87993516367E+00  0.92329513809E+02  0.76489894280E+02  0.11999294701E+03  0.47000000000E+01 0. -1.
         -5    1    1    2    0  502 -0.15108829207E+03 -0.11951040725E+03  0.22263245818E+03  0.29444475013E+03  0.47000000000E+01 0.  1.
        -11    1    1    2    0    0  0.63149864831E+02 -0.32067596218E+02  0.63358335324E+02  0.95029020885E+02  0.00000000000E+00 0.  1.
         11    1    1    2    0    0  0.88818362401E+02  0.59248489664E+02  0.52344876336E+02  0.11890782609E+03  0.00000000000E+00 0. -1.
<mgrwt>
<rscale>  0 0.25528873E+03</rscale>
<asrwt>0</asrwt>
<pdfrwt beam="2">  1        3 0.16426845E-01 0.28685262E+03</pdfrwt>
<pdfrwt beam="1">  1       -3 0.80246161E-01 0.28685262E+03</pdfrwt>
<totfact> 0.11826233E+02</totfact>
</mgrwt>
</event>
<event>
 7    1  0.4230786E-006  0.1609881E+03  0.7546771E-02  0.1195394E+00
          1   -1    0    0  501    0  0.00000000000E+00  0.00000000000E+00  0.15844205889E+03  0.15844205889E+03  0.00000000000E+00 0. -1.
         -1   -1    0    0    0  501 -0.00000000000E+00 -0.00000000000E+00 -0.19895901016E+03  0.19895901016E+03  0.00000000000E+00 0.  1.
         23    2    1    2    0    0  0.35960470729E+02 -0.94863071833E+02 -0.11953378316E+03  0.20051307991E+03  0.12500004818E+03 0.  0.
          5    1    3    3  502    0  0.79934590249E+02 -0.42768841418E+02 -0.83108511055E+02  0.12307650923E+03  0.47000000000E+01 0.  1.
         -5    1    3    3    0  502 -0.43974119520E+02 -0.52094230414E+02 -0.36425272106E+02  0.77436570676E+02  0.47000000000E+01 0.  1.
        -11    1    1    2    0    0 -0.64236711437E+02  0.46212137919E+02  0.49591153413E+02  0.93387361480E+02  0.00000000000E+00 0. -1.
         11    1    1    2    0    0  0.28276240708E+02  0.48650933914E+02  0.29425678485E+02  0.63500627662E+02  0.00000000000E+00 0.  1.
<mgrwt>
<rscale>  0 0.15420893E+03</rscale>
<asrwt>0</asrwt>
<pdfrwt beam="1">  1        1 0.24375701E-01 0.16098810E+03</pdfrwt>
<pdfrwt beam="2">  1       -1 0.30609078E-01 0.16098810E+03</pdfrwt>
<totfact> 0.19159957E+03</totfact>
</mgrwt>
</event>
<event>
 7    1  0.4230786E-006  0.1266069E+03  0.7546771E-02  0.1248862E+00
          3   -1    0    0  501    0  0.00000000000E+00  0.00000000000E+00  0.33983375092E+02  0.33983375092E+02  0.00000000000E+00 0. -1.
         -3   -1    0    0    0  501 -0.00000000000E+00 -0.00000000000E+00 -0.59764142325E+03  0.59764142325E+03  0.00000000000E+00 0.  1.
         23    2    1    2    0    0  0.19981019476E+02  0.95144315720E+00 -0.51109205310E+03  0.52654003129E+03  0.12501668458E+03 0.  0.
          5    1    3    3  502    0 -0.49462452841E+02  0.21346461480E+02 -0.21713273862E+03  0.22376532761E+03  0.47000000000E+01 0. -1.
         -5    1    3    3    0  502  0.69443472316E+02 -0.20395018322E+02 -0.29395931448E+03  0.30277470368E+03  0.47000000000E+01 0. -1.
        -11    1    1    2    0    0 -0.11657333679E+01 -0.42418648248E+02 -0.11996892812E+02  0.44097914810E+02  0.00000000000E+00 0. -1.
         11    1    1    2    0    0 -0.18815286108E+02  0.41467205091E+02 -0.40569102246E+02  0.60986852242E+02  0.00000000000E+00 0.  1.
<mgrwt>
<rscale>  0 0.11657206E+03</rscale>
<asrwt>0</asrwt>
<pdfrwt beam="1">  1        3 0.52282117E-02 0.12660694E+03</pdfrwt>
<pdfrwt beam="2">  1       -3 0.91944831E-01 0.12660694E+03</pdfrwt>
<totfact> 0.53352913E+02</totfact>
</mgrwt>
</event>
<event>
 7    1  0.4230786E-006  0.1280510E+03  0.7546771E-02  0.1245662E+00
          1   -1    0    0  501    0  0.00000000000E+00  0.00000000000E+00  0.14996898459E+03  0.14996898459E+03  0.00000000000E+00 0. -1.
         -1   -1    0    0    0  501 -0.00000000000E+00 -0.00000000000E+00 -0.87738518060E+02  0.87738518060E+02  0.00000000000E+00 0.  1.
         23    2    1    2    0    0 -0.86326618549E+01 -0.26429378616E+02  0.56417619335E+01  0.12817520108E+03  0.12499607110E+03 0.  0.
          5    1    3    3  502    0 -0.29063248910E+02  0.42948801171E+02 -0.12315474439E+02  0.53507316041E+02  0.47000000000E+01 0. -1.
         -5    1    3    3    0  502  0.20430587055E+02 -0.69378179788E+02  0.17957236373E+02  0.74667885039E+02  0.47000000000E+01 0. -1.
        -11    1    1    2    0    0  0.18808535182E+02 -0.24504079951E+02  0.47712660339E+02  0.56839325177E+02  0.00000000000E+00 0. -1.
         11    1    1    2    0    0 -0.10175873327E+02  0.50933458568E+02  0.88760442591E+01  0.52692976395E+02  0.00000000000E+00 0.  1.
<mgrwt>
<rscale>  0 0.11845869E+03</rscale>
<asrwt>0</asrwt>
<pdfrwt beam="1">  1        1 0.23072151E-01 0.12805098E+03</pdfrwt>
<pdfrwt beam="2">  1       -1 0.13498234E-01 0.12805098E+03</pdfrwt>
<totfact> 0.76043089E+03</totfact>
</mgrwt>
</event>
<event>
 7    1  0.4230786E-006  0.1356674E+03  0.7546771E-02  0.1232067E+00
          1   -1    0    0  501    0  0.00000000000E+00  0.00000000000E+00  0.44711140280E+02  0.44711140280E+02  0.00000000000E+00 0. -1.
         -1   -1    0    0    0  501 -0.00000000000E+00 -0.00000000000E+00 -0.33142898705E+03  0.33142898705E+03  0.00000000000E+00 0.  1.
         23    2    1    2    0    0 -0.16124204369E+02  0.50203336495E+02 -0.19458065235E+03  0.23720725373E+03  0.12500114397E+03 0.  0.
          5    1    3    3  502    0  0.36967691994E+02  0.14181325617E+02 -0.15852295946E+03  0.16346051182E+03  0.47000000000E+01 0.  1.
         -5    1    3    3    0  502 -0.53091896363E+02  0.36022010878E+02 -0.36057692886E+02  0.73746741917E+02  0.47000000000E+01 0.  1.
        -11    1    1    2    0    0 -0.35280207440E+02 -0.32010975060E+02 -0.30160983430E+02  0.56383335152E+02  0.00000000000E+00 0. -1.
         11    1    1    2    0    0  0.51404411809E+02 -0.18192361435E+02 -0.61976210989E+02  0.82549538440E+02  0.00000000000E+00 0.  1.
<mgrwt>
<rscale>  0 0.12694055E+03</rscale>
<asrwt>0</asrwt>
<pdfrwt beam="1">  1        1 0.68786372E-02 0.13566743E+03</pdfrwt>
<pdfrwt beam="2">  1       -1 0.50989073E-01 0.13566743E+03</pdfrwt>
<totfact> 0.40599178E+03</totfact>
</mgrwt>
</event>
<event>
 7    1  0.4230786E-006  0.1517241E+03  0.7546771E-02  0.1207511E+00
         -2   -1    0    0    0  501 -0.00000000000E+00  0.00000000000E+00  0.30558108948E+02  0.30558108948E+02  0.00000000000E+00 0.  1.
          2   -1    0    0  501    0  0.00000000000E+00 -0.00000000000E+00 -0.67102581107E+03  0.67102581107E+03  0.00000000000E+00 0. -1.
         23    2    1    2    0    0 -0.84953534047E+02 -0.13299779902E+02 -0.25745978968E+03  0.29884067525E+03  0.12500487506E+03 0.  0.
          5    1    3    3  502    0  0.29771502994E+02 -0.17488687286E+02 -0.41258634963E+02  0.54005199125E+02  0.47000000000E+01 0.  1.
         -5    1    3    3    0  502 -0.11472503704E+03  0.41889073838E+01 -0.21620115472E+03  0.24483547613E+03  0.47000000000E+01 0.  1.
        -11    1    1    2    0    0  0.72423630774E+02 -0.10656019277E+02 -0.35962295854E+03  0.36699782745E+03  0.00000000000E+00 0. -1.
         11    1    1    2    0    0  0.12529903273E+02  0.23955799179E+02 -0.23384953900E+02  0.35745417318E+02  0.00000000000E+00 0.  1.
<mgrwt>
<rscale>  0 0.14441328E+03</rscale>
<asrwt>0</asrwt>
<pdfrwt beam="2">  1        2 0.10323475E+00 0.15172411E+03</pdfrwt>
<pdfrwt beam="1">  1       -2 0.47012471E-02 0.15172411E+03</pdfrwt>
<totfact> 0.91650762E+03</totfact>
</mgrwt>
</event>
<event>
 7    1  0.4230786E-006  0.1469325E+03  0.7546771E-02  0.1213451E+00
         -1   -1    0    0    0  501 -0.00000000000E+00  0.00000000000E+00  0.72654570797E+03  0.72654570797E+03  0.00000000000E+00 0.  1.
          1   -1    0    0  501    0  0.00000000000E+00 -0.00000000000E+00 -0.25413885921E+02  0.25413885921E+02  0.00000000000E+00 0. -1.
         23    2    1    2    0    0 -0.54567116723E+02 -0.54651334247E+02  0.44810036112E+03  0.47157513473E+03  0.12499934199E+03 0.  0.
          5    1    3    3  502    0 -0.58484812097E+02 -0.65412014220E+02  0.45047981027E+03  0.45896988388E+03  0.47000000000E+01 0. -1.
         -5    1    3    3    0  502  0.39176953738E+01  0.10760679973E+02 -0.23794491562E+01  0.12605250843E+02  0.47000000000E+01 0. -1.
        -11    1    1    2    0    0  0.22743794465E+02  0.68529874124E+02  0.22327263233E+03  0.23465781935E+03  0.00000000000E+00 0.  1.
         11    1    1    2    0    0  0.31823322258E+02 -0.13878539878E+02  0.29758828598E+02  0.45726639808E+02  0.00000000000E+00 0. -1.
<mgrwt>
<rscale>  0 0.13990955E+03</rscale>
<asrwt>0</asrwt>
<pdfrwt beam="2">  1        1 0.39098291E-02 0.14693255E+03</pdfrwt>
<pdfrwt beam="1">  1       -1 0.11177625E+00 0.14693255E+03</pdfrwt>
<totfact> 0.17913125E+03</totfact>
</mgrwt>
</event>
<event>
 7    1  0.4230786E-006  0.2533638E+03  0.7546771E-02  0.1113393E+00
          1   -1    0    0  501    0  0.00000000000E+00  0.00000000000E+00  0.29950854510E+03  0.29950854510E+03  0.00000000000E+00 0. -1.
         -1   -1    0    0    0  501 -0.00000000000E+00 -0.00000000000E+00 -0.25550728364E+03  0.25550728364E+03  0.00000000000E+00 0.  1.
         23    2    1    2    0    0 -0.17296711779E+03 -0.13655279690E+03 -0.10342493039E+03  0.27366021242E+03  0.12501562085E+03 0.  0.
          5    1    3    3  502    0 -0.18712198310E+03 -0.14163456736E+03 -0.10624515414E+03  0.25765308073E+03  0.47000000000E+01 0.  1.
         -5    1    3    3    0  502  0.14154865310E+02  0.50817704624E+01  0.28202237449E+01  0.16007131690E+02  0.47000000000E+01 0.  1.
        -11    1    1    2    0    0  0.16267474517E+02  0.58697319128E+02  0.60987349194E+02  0.86194331378E+02  0.00000000000E+00 0. -1.
         11    1    1    2    0    0  0.15669964327E+03  0.77855477772E+02  0.86438842667E+02  0.19516128495E+03  0.00000000000E+00 0.  1.
<mgrwt>
<rscale>  0 0.24986039E+03</rscale>
<asrwt>0</asrwt>
<pdfrwt beam="1">  1        1 0.46078238E-01 0.25336376E+03</pdfrwt>
<pdfrwt beam="2">  1       -1 0.39308813E-01 0.25336376E+03</pdfrwt>
<totfact> 0.56178168E+02</totfact>
</mgrwt>
</event>
<event>
 7    1  0.4230786E-006  0.1363294E+03  0.7546771E-02  0.1230622E+00
         -2   -1    0    0    0  501 -0.00000000000E+00  0.00000000000E+00  0.28406800940E+03  0.28406800940E+03  0.00000000000E+00 0.  1.
          2   -1    0    0  501    0  0.00000000000E+00 -0.00000000000E+00 -0.71490734382E+02  0.71490734382E+02  0.00000000000E+00 0. -1.
         23    2    1    2    0    0 -0.35286855919E+02 -0.41313478530E+02  0.20948305568E+03  0.24993769967E+03  0.12503494468E+03 0.  0.
          5    1    3    3  502    0  0.31305875296E+02 -0.54069129110E+02  0.65074763035E+02  0.90334618695E+02  0.47000000000E+01 0.  1.
         -5    1    3    3    0  502 -0.66592731215E+02  0.12755650580E+02  0.14440829265E+03  0.15960308098E+03  0.47000000000E+01 0.  1.
        -11    1    1    2    0    0 -0.20814623956E+02 -0.29177386352E+01  0.23298718747E+02  0.31378210026E+02  0.00000000000E+00 0.  1.
         11    1    1    2    0    0  0.56101479876E+02  0.44231217166E+02 -0.20204499411E+02  0.74242834083E+02  0.00000000000E+00 0. -1.
<mgrwt>
<rscale>  0 0.12788898E+03</rscale>
<asrwt>0</asrwt>
<pdfrwt beam="2">  1        2 0.10998575E-01 0.13632939E+03</pdfrwt>
<pdfrwt beam="1">  1       -2 0.43702770E-01 0.13632939E+03</pdfrwt>
<totfact> 0.27463150E+03</totfact>
</mgrwt>
</event>
<event>
 7    1  0.4230786E-006  0.1303974E+03  0.7546771E-02  0.1241085E+00
          1   -1    0    0  501    0  0.00000000000E+00  0.00000000000E+00  0.66578682515E+03  0.66578682515E+03  0.00000000000E+00 0. -1.
         -1   -1    0    0    0  501 -0.00000000000E+00 -0.00000000000E+00 -0.19660059659E+02  0.19660059659E+02  0.00000000000E+00 0.  1.
         23    2    1    2    0    0 -0.32158707911E+02 -0.18612244844E+02  0.33759702112E+03  0.36190501378E+03  0.12499156843E+03 0.  0.
          5    1    3    3  502    0  0.87007429137E+01  0.37819631222E+02  0.38877708326E+02  0.55132509808E+02  0.47000000000E+01 0.  1.
         -5    1    3    3    0  502 -0.40859450825E+02 -0.56431876065E+02  0.29871931279E+03  0.30677250397E+03  0.47000000000E+01 0.  1.
        -11    1    1    2    0    0 -0.11892138459E+02 -0.13462909613E+02  0.11000369567E+02  0.21063737156E+02  0.00000000000E+00 0.  1.
         11    1    1    2    0    0  0.44050846370E+02  0.32075154457E+02  0.29752937480E+03  0.30247813387E+03  0.00000000000E+00 0. -1.
<mgrwt>
<rscale>  0 0.12122797E+03</rscale>
<asrwt>0</asrwt>
<pdfrwt beam="1">  1        1 0.10242873E+00 0.13039743E+03</pdfrwt>
<pdfrwt beam="2">  1       -1 0.30246251E-02 0.13039743E+03</pdfrwt>
<totfact> 0.10773883E+04</totfact>
</mgrwt>
</event>
<event>
 7    1  0.4230786E-006  0.1780961E+03  0.7546771E-02  0.1175479E+00
          2   -1    0    0  501    0  0.00000000000E+00  0.00000000000E+00  0.30794444612E+03  0.30794444612E+03  0.00000000000E+00 0. -1.
         -2   -1    0    0    0  501 -0.00000000000E+00 -0.00000000000E+00 -0.91791990588E+02  0.91791990588E+02  0.00000000000E+00 0.  1.
         23    2    1    2    0    0  0.75701986840E+02  0.10177024953E+03  0.92515009795E+02  0.20069188694E+03  0.12502092603E+03 0.  0.
          5    1    3    3  502    0  0.34165739056E+02  0.10213522523E+02 -0.26609508777E+02  0.44741141301E+02  0.47000000000E+01 0. -1.
         -5    1    3    3    0  502  0.41536247783E+02  0.91556727007E+02  0.11912451857E+03  0.15595074564E+03  0.47000000000E+01 0. -1.
        -11    1    1    2    0    0 -0.85192891095E+01 -0.85986151447E+02  0.60242344867E+02  0.10533440389E+03  0.00000000000E+00 0.  1.
         11    1    1    2    0    0 -0.67182697730E+02 -0.15784098083E+02  0.63395100870E+02  0.93710145880E+02  0.00000000000E+00 0. -1.
<mgrwt>
<rscale>  0 0.17229160E+03</rscale>
<asrwt>0</asrwt>
<pdfrwt beam="1">  1        2 0.47376068E-01 0.17809606E+03</pdfrwt>
<pdfrwt beam="2">  1       -2 0.14121845E-01 0.17809606E+03</pdfrwt>
<totfact> 0.39277032E+03</totfact>
</mgrwt>
</event>
<event>
 7    1  0.4230786E-006  0.1588066E+03  0.7546771E-02  0.1197098E+00
          2   -1    0    0  501    0  0.00000000000E+00  0.00000000000E+00  0.54745693228E+03  0.54745693228E+03  0.00000000000E+00 0.  1.
         -2   -1    0    0    0  501 -0.00000000000E+00 -0.00000000000E+00 -0.40497272694E+02  0.40497272694E+02  0.00000000000E+00 0. -1.
         23    2    1    2    0    0  0.21190859523E+02 -0.95637837905E+02  0.23150150382E+03  0.28073559659E+03  0.12499552134E+03 0.  0.
          5    1    3    3  502    0 -0.28789754650E+02 -0.10069025171E+03  0.12688731739E+03  0.16458996955E+03  0.47000000000E+01 0. -1.
         -5    1    3    3    0  502  0.49980614173E+02  0.50524138036E+01  0.10461418644E+03  0.11614562705E+03  0.47000000000E+01 0. -1.
        -11    1    1    2    0    0  0.24144013839E+02  0.80667388643E+02  0.20955373650E+03  0.22583828168E+03  0.00000000000E+00 0.  1.
         11    1    1    2    0    0 -0.45334873362E+02  0.14970449262E+02  0.65904419263E+02  0.81380326691E+02  0.00000000000E+00 0. -1.
<mgrwt>
<rscale>  0 0.15277970E+03</rscale>
<asrwt>0</asrwt>
<pdfrwt beam="1">  1        2 0.84224138E-01 0.15880658E+03</pdfrwt>
<pdfrwt beam="2">  1       -2 0.62303500E-02 0.15880658E+03</pdfrwt>
<totfact> 0.75811977E+03</totfact>
</mgrwt>
</event>
<event>
 7    1  0.4230786E-006  0.1954410E+03  0.7546771E-02  0.1158282E+00
          2   -1    0    0  501    0  0.00000000000E+00  0.00000000000E+00  0.44373802809E+03  0.44373802809E+03  0.00000000000E+00 0. -1.
         -2   -1    0    0    0  501 -0.00000000000E+00 -0.00000000000E+00 -0.77837299275E+02  0.77837299275E+02  0.00000000000E+00 0.  1.
         23    2    1    2    0    0 -0.11056470337E+02 -0.14984889424E+03  0.17419111128E+03  0.26180093957E+03  0.12498100684E+03 0.  0.
          5    1    3    3  502    0 -0.26865654386E+02 -0.26643688258E+02 -0.10158615125E+02  0.39458040636E+02  0.47000000000E+01 0. -1.
         -5    1    3    3    0  502  0.15809184048E+02 -0.12320520598E+03  0.18434972641E+03  0.22234289894E+03  0.47000000000E+01 0. -1.
        -11    1    1    2    0    0  0.39394025241E+02  0.63271516985E+02  0.12965041754E+03  0.14954733316E+03  0.00000000000E+00 0. -1.
         11    1    1    2    0    0 -0.28337554904E+02  0.86577377252E+02  0.62059199990E+02  0.11022705463E+03  0.00000000000E+00 0.  1.
<mgrwt>
<rscale>  0 0.19019862E+03</rscale>
<asrwt>0</asrwt>
<pdfrwt beam="1">  1        2 0.68267388E-01 0.19544101E+03</pdfrwt>
<pdfrwt beam="2">  1       -2 0.11974969E-01 0.19544101E+03</pdfrwt>
<totfact> 0.34754217E+03</totfact>
</mgrwt>
</event>
<event>
 7    1  0.4230786E-006  0.1643299E+03  0.7546771E-02  0.1191539E+00
          2   -1    0    0  501    0  0.00000000000E+00  0.00000000000E+00  0.37520631703E+03  0.37520631703E+03  0.00000000000E+00 0. -1.
         -2   -1    0    0    0  501 -0.00000000000E+00 -0.00000000000E+00 -0.61250141764E+02  0.61250141764E+02  0.00000000000E+00 0.  1.
         23    2    1    2    0    0  0.57972955147E+01  0.10651280862E+03  0.17742791920E+03  0.24183668587E+03  0.12500291631E+03 0.  0.
          5    1    3    3  502    0 -0.57014778183E+02  0.71858644375E+02  0.10959891642E+03  0.14299776985E+03  0.47000000000E+01 0. -1.
         -5    1    3    3    0  502  0.62812073698E+02  0.34654164249E+02  0.67829002781E+02  0.98838916021E+02  0.47000000000E+01 0. -1.
        -11    1    1    2    0    0  0.78686140788E+01 -0.68145007819E+02  0.13773607298E+03  0.15387294427E+03  0.00000000000E+00 0. -1.
         11    1    1    2    0    0 -0.13665909594E+02 -0.38367800805E+02 -0.12078169105E+01  0.40746828653E+02  0.00000000000E+00 0.  1.
<mgrwt>
<rscale>  0 0.15750861E+03</rscale>
<asrwt>0</asrwt>
<pdfrwt beam="1">  1        2 0.57724047E-01 0.16432990E+03</pdfrwt>
<pdfrwt beam="2">  1       -2 0.94230990E-02 0.16432990E+03</pdfrwt>
<totfact> 0.60504459E+03</totfact>
</mgrwt>
</event>
<event>
 7    1  0.4230786E-006  0.1406012E+03  0.7546771E-02  0.1221754E+00
          1   -1    0    0  501    0  0.00000000000E+00  0.00000000000E+00  0.18008180564E+03  0.18008180564E+03  0.00000000000E+00 0. -1.
         -1   -1    0    0    0  501 -0.00000000000E+00 -0.00000000000E+00 -0.12406873624E+03  0.12406873624E+03  0.00000000000E+00 0.  1.
         23    2    1    2    0    0 -0.37067962620E+02  0.52632029169E+02 -0.47987913599E+02  0.14856488766E+03  0.12499808657E+03 0.  0.
          5    1    3    3  502    0 -0.28740792850E+02  0.29822437690E+01  0.38509416874E+02  0.48373465242E+02  0.47000000000E+01 0.  1.
         -5    1    3    3    0  502 -0.83271697704E+01  0.49649785400E+02 -0.86497330472E+02  0.10019142242E+03  0.47000000000E+01 0.  1.
        -11    1    1    2    0    0  0.24965195824E+02 -0.63759229644E+02  0.11636418947E+03  0.13501527676E+03  0.00000000000E+00 0. -1.
         11    1    1    2    0    0  0.12102766796E+02  0.11127200475E+02 -0.12363206477E+02  0.20570377462E+02  0.00000000000E+00 0.  1.
<mgrwt>
<rscale>  0 0.13391895E+03</rscale>
<asrwt>0</asrwt>
<pdfrwt beam="1">  1        1 0.27704893E-01 0.14060116E+03</pdfrwt>
<pdfrwt beam="2">  1       -1 0.19087498E-01 0.14060116E+03</pdfrwt>
<totfact> 0.35229319E+03</totfact>
</mgrwt>
</event>
<event>
 7    1  0.4230786E-006  0.1340863E+03  0.7546771E-02  0.1233230E+00
         -2   -1    0    0    0  501 -0.00000000000E+00  0.00000000000E+00  0.16078194940E+02  0.16078194940E+02  0.00000000000E+00 0.  1.
          2   -1    0    0  501    0  0.00000000000E+00 -0.00000000000E+00 -0.92566708393E+03  0.92566708393E+03  0.00000000000E+00 0. -1.
         23    2    1    2    0    0 -0.45254078748E+02 -0.17469505359E+02 -0.41592827429E+03  0.43700738200E+03  0.12500402918E+03 0.  0.
          5    1    3    3  502    0  0.10043903427E+02  0.27437898333E+02 -0.22557331703E+02  0.37210770948E+02  0.47000000000E+01 0. -1.
         -5    1    3    3    0  502 -0.55297982175E+02 -0.44907403693E+02 -0.39337094258E+03  0.39979661105E+03  0.47000000000E+01 0. -1.
        -11    1    1    2    0    0  0.49660369396E+02 -0.28401025175E+02 -0.31965075682E+03  0.32472969815E+03  0.00000000000E+00 0.  1.
         11    1    1    2    0    0 -0.44062906477E+01  0.45870530534E+02 -0.17400985788E+03  0.18000819873E+03  0.00000000000E+00 0. -1.
<mgrwt>
<rscale>  0 0.12618430E+03</rscale>
<asrwt>0</asrwt>
<pdfrwt beam="2">  1        2 0.14241037E+00 0.13408625E+03</pdfrwt>
<pdfrwt beam="1">  1       -2 0.24735676E-02 0.13408625E+03</pdfrwt>
<totfact> 0.15760079E+04</totfact>
</mgrwt>
</event>
<event>
 7    1  0.4230786E-006  0.1179250E+03  0.7546771E-02  0.1254535E+00
         -1   -1    0    0    0  501 -0.00000000000E+00  0.00000000000E+00  0.53067922409E+02  0.53067922409E+02  0.00000000000E+00 0.  1.
          1   -1    0    0  501    0  0.00000000000E+00 -0.00000000000E+00 -0.23618559126E+03  0.23618559126E+03  0.00000000000E+00 0. -1.
         23    2    1    2    0    0  0.26717735377E+02  0.30976181617E+02 -0.66969494730E+02  0.13561422479E+03  0.11060263799E+03 0.  0.
          5    1    3    3  502    0 -0.19246471487E+02 -0.87205958451E+00 -0.76204370316E+02  0.78742512075E+02  0.47000000000E+01 0. -1.
         -5    1    3    3    0  502  0.45964206864E+02  0.31848241202E+02  0.92348755860E+01  0.56871712717E+02  0.47000000000E+01 0.  1.
        -11    1    1    2    0    0  0.29371474671E+02 -0.22494102605E+02 -0.74778739032E+02  0.83429778782E+02  0.00000000000E+00 0. -1.
         11    1    1    2    0    0 -0.56089210048E+02 -0.84820790124E+01 -0.41369435087E+02  0.70209510094E+02  0.00000000000E+00 0.  1.
<mgrwt>
<rscale>  0 0.11332433E+03</rscale>
<asrwt>0</asrwt>
<pdfrwt beam="2">  1        1 0.36336244E-01 0.11792500E+03</pdfrwt>
<pdfrwt beam="1">  1       -1 0.81642958E-02 0.11792500E+03</pdfrwt>
<totfact> 0.92590426E+03</totfact>
</mgrwt>
</event>
<event>
 7    1  0.4230786E-006  0.1680993E+03  0.7546771E-02  0.1186627E+00
         -2   -1    0    0    0  501 -0.00000000000E+00  0.00000000000E+00  0.17451322488E+02  0.17451322488E+02  0.00000000000E+00 0.  1.
          2   -1    0    0  501    0  0.00000000000E+00 -0.00000000000E+00 -0.14070957023E+04  0.14070957023E+04  0.00000000000E+00 0. -1.
         23    2    1    2    0    0  0.11228909279E+03 -0.48252147630E+01 -0.69474168860E+03  0.71478905380E+03  0.12500101798E+03 0.  0.
          5    1    3    3  502    0  0.12655927578E+03 -0.31510921837E+02 -0.62712232305E+03  0.64055810552E+03  0.47000000000E+01 0. -1.
         -5    1    3    3    0  502 -0.14270182997E+02  0.26685707074E+02 -0.67619365555E+02  0.74230948282E+02  0.47000000000E+01 0. -1.
        -11    1    1    2    0    0 -0.12481452257E+03  0.17798840947E+02 -0.62291895515E+03  0.63554975295E+03  0.00000000000E+00 0.  1.
         11    1    1    2    0    0  0.12525429782E+02 -0.12973626184E+02 -0.71983736009E+02  0.74208217991E+02  0.00000000000E+00 0. -1.
<mgrwt>
<rscale>  0 0.16184749E+03</rscale>
<asrwt>0</asrwt>
<pdfrwt beam="2">  1        2 0.21647631E+00 0.16809931E+03</pdfrwt>
<pdfrwt beam="1">  1       -2 0.26848182E-02 0.16809931E+03</pdfrwt>
<totfact> 0.75428386E+03</totfact>
</mgrwt>
</event>
<event>
 7    1  0.4230786E-006  0.1504778E+03  0.7546771E-02  0.1208890E+00
          1   -1    0    0  501    0  0.00000000000E+00  0.00000000000E+00  0.50739513888E+02  0.50739513888E+02  0.00000000000E+00 0.  1.
         -1   -1    0    0    0  501 -0.00000000000E+00 -0.00000000000E+00 -0.37476360816E+03  0.37476360816E+03  0.00000000000E+00 0. -1.
         23    2    1    2    0    0 -0.80840424265E+02  0.21945073422E+02 -0.19869794166E+03  0.24924776442E+03  0.12500726220E+03 0.  0.
          5    1    3    3  502    0 -0.83670349414E+01 -0.85293465067E+01  0.16026073382E+02  0.20534898432E+02  0.47000000000E+01 0.  1.
         -5    1    3    3    0  502 -0.72473389324E+02  0.30474419928E+02 -0.21472401504E+03  0.22871286598E+03  0.47000000000E+01 0.  1.
        -11    1    1    2    0    0  0.84790291190E+02  0.58908127515E+01 -0.56910806245E+02  0.10228848920E+03  0.00000000000E+00 0.  1.
         11    1    1    2    0    0 -0.39498669242E+01 -0.27835886173E+02 -0.68415346370E+02  0.73966868439E+02  0.00000000000E+00 0. -1.
<mgrwt>
<rscale>  0 0.14335103E+03</rscale>
<asrwt>0</asrwt>
<pdfrwt beam="1">  1        1 0.78060791E-02 0.15047783E+03</pdfrwt>
<pdfrwt beam="2">  1       -1 0.57655940E-01 0.15047783E+03</pdfrwt>
<totfact> 0.27400543E+03</totfact>
</mgrwt>
</event>
<event>
 7    1  0.4230786E-006  0.1542472E+03  0.7546771E-02  0.1202633E+00
         -2   -1    0    0    0  501 -0.00000000000E+00  0.00000000000E+00  0.84817037380E+02  0.84817037380E+02  0.00000000000E+00 0. -1.
          2   -1    0    0  501    0  0.00000000000E+00 -0.00000000000E+00 -0.26130609568E+03  0.26130609568E+03  0.00000000000E+00 0.  1.
         23    2    1    2    0    0 -0.87214822010E+02 -0.25666251737E+02 -0.46465633165E+02  0.16109395620E+03  0.12460748775E+03 0.  0.
          5    1    3    3  502    0 -0.85543953617E+02 -0.63113303080E+02 -0.72731565160E+01  0.10665854786E+03  0.47000000000E+01 0.  1.
         -5    1    3    3    0  502 -0.16708683927E+01  0.37447051344E+02 -0.39192476649E+02  0.54435408343E+02  0.47000000000E+01 0.  1.
        -11    1    1    2    0    0  0.10641363717E+03  0.12689410321E+02 -0.11607519410E+03  0.15798206859E+03  0.00000000000E+00 0.  1.
         11    1    1    2    0    0 -0.19198815159E+02  0.12976841415E+02 -0.13948231028E+02  0.27047108264E+02  0.00000000000E+00 0. -1.
<mgrwt>
<rscale>  0 0.14825588E+03</rscale>
<asrwt>0</asrwt>
<pdfrwt beam="2">  1        2 0.40200938E-01 0.15424723E+03</pdfrwt>
<pdfrwt beam="1">  1       -2 0.13048775E-01 0.15424723E+03</pdfrwt>
<totfact> 0.52817807E+03</totfact>
</mgrwt>
</event>
<event>
 7    1  0.4230786E-006  0.1317373E+03  0.7546771E-02  0.1238600E+00
         -1   -1    0    0    0  501 -0.00000000000E+00  0.00000000000E+00  0.26083776766E+02  0.26083776766E+02  0.00000000000E+00 0.  1.
          1   -1    0    0  501    0  0.00000000000E+00 -0.00000000000E+00 -0.52918169047E+03  0.52918169047E+03  0.00000000000E+00 0. -1.
         23    2    1    2    0    0 -0.40433163327E+02  0.96842861165E+01 -0.23589306885E+03  0.27018560047E+03  0.12500437064E+03 0.  0.
          5    1    3    3  502    0  0.19775757555E+02  0.26462357060E+02 -0.86700703758E+01  0.34476035856E+02  0.47000000000E+01 0. -1.
         -5    1    3    3    0  502 -0.60208920882E+02 -0.16778070944E+02 -0.22722299847E+03  0.23570956462E+03  0.47000000000E+01 0. -1.
        -11    1    1    2    0    0 -0.39031172699E+01 -0.35466506684E+02 -0.18330745860E+03  0.18674777589E+03  0.00000000000E+00 0. -1.
         11    1    1    2    0    0  0.44336280597E+02  0.25782220568E+02 -0.83897386260E+02  0.98332090875E+02  0.00000000000E+00 0.  1.
<mgrwt>
<rscale>  0 0.12276733E+03</rscale>
<asrwt>0</asrwt>
<pdfrwt beam="2">  1        1 0.81412562E-01 0.13173731E+03</pdfrwt>
<pdfrwt beam="1">  1       -1 0.40128890E-02 0.13173731E+03</pdfrwt>
<totfact> 0.97420536E+03</totfact>
</mgrwt>
</event>
<event>
 7    1  0.4230786E-006  0.1939087E+03  0.7546771E-02  0.1163911E+00
          2   -1    0    0  501    0  0.00000000000E+00  0.00000000000E+00  0.32615540376E+03  0.32615540376E+03  0.00000000000E+00 0. -1.
         -2   -1    0    0    0  501 -0.00000000000E+00 -0.00000000000E+00 -0.94648275366E+02  0.94648275366E+02  0.00000000000E+00 0.  1.
         23    2    1    2    0    0 -0.12685680508E+03 -0.76703364514E+02  0.12677870611E+03  0.23167521651E+03  0.12499804199E+03 0.  0.
          5    1    3    3  502    0 -0.12585103987E+03 -0.25467699851E+02  0.47151460302E+02  0.13686649765E+03  0.47000000000E+01 0.  1.
         -5    1    3    3    0  502 -0.10057652084E+01 -0.51235664663E+02  0.79627245806E+02  0.94808718860E+02  0.47000000000E+01 0.  1.
        -11    1    1    2    0    0  0.11060078835E+03  0.41194416118E+02  0.84443548887E+02  0.14512142244E+03  0.00000000000E+00 0.  1.
         11    1    1    2    0    0  0.16256016727E+02  0.35508948396E+02  0.20284873403E+02  0.44007040175E+02  0.00000000000E+00 0. -1.
<mgrwt>
<rscale>  0 0.18408047E+03</rscale>
<asrwt>0</asrwt>
<pdfrwt beam="1">  1        2 0.50177754E-01 0.19390865E+03</pdfrwt>
<pdfrwt beam="2">  1       -2 0.14561273E-01 0.19390865E+03</pdfrwt>
<totfact> 0.35258781E+03</totfact>
</mgrwt>
</event>
<event>
 7    1  0.4230786E-006  0.1477860E+03  0.7546771E-02  0.1212406E+00
          2   -1    0    0  501    0  0.00000000000E+00  0.00000000000E+00  0.48888114651E+03  0.48888114651E+03  0.00000000000E+00 0. -1.
         -2   -1    0    0    0  501 -0.00000000000E+00 -0.00000000000E+00 -0.41507423147E+02  0.41507423147E+02  0.00000000000E+00 0.  1.
         23    2    1    2    0    0 -0.73674079133E+02  0.28080027200E+02  0.15672597245E+03  0.21541527276E+03  0.12499740570E+03 0.  0.
          5    1    3    3  502    0 -0.66714919352E+02  0.54850668419E+02  0.39878058247E+02  0.95246132833E+02  0.47000000000E+01 0.  1.
         -5    1    3    3    0  502 -0.69591597811E+01 -0.26770641220E+02  0.11684791420E+03  0.12016913992E+03  0.47000000000E+01 0.  1.
        -11    1    1    2    0    0  0.45877351144E+02  0.22496592703E+02  0.20790672205E+03  0.21409351486E+03  0.00000000000E+00 0. -1.
         11    1    1    2    0    0  0.27796727988E+02 -0.50576619902E+02  0.82741028863E+02  0.10087978204E+03  0.00000000000E+00 0.  1.
<mgrwt>
<rscale>  0 0.14068830E+03</rscale>
<asrwt>0</asrwt>
<pdfrwt beam="1">  1        2 0.75212480E-01 0.14778603E+03</pdfrwt>
<pdfrwt beam="2">  1       -2 0.63857577E-02 0.14778603E+03</pdfrwt>
<totfact> 0.82426143E+03</totfact>
</mgrwt>
</event>
<event>
 7    1  0.4230786E-006  0.1144240E+03  0.7546771E-02  0.1262708E+00
         -4   -1    0    0    0  501 -0.00000000000E+00  0.00000000000E+00  0.94795909906E+02  0.94795909906E+02  0.00000000000E+00 0.  1.
          4   -1    0    0  501    0  0.00000000000E+00 -0.00000000000E+00 -0.34504801050E+03  0.34504801050E+03  0.00000000000E+00 0. -1.
         23    2    1    2    0    0  0.16448224009E+02 -0.39539443327E+01  0.50320451872E+02  0.12500003343E+03  0.11316661492E+03 0.  0.
          5    1    3    3  502    0  0.37535808701E+02 -0.50323903752E+02  0.23164600785E+02  0.67082940851E+02  0.47000000000E+01 0. -1.
         -5    1    3    3    0  502 -0.21087584692E+02  0.46369959420E+02  0.27155851087E+02  0.57917092581E+02  0.47000000000E+01 0.  1.
        -11    1    1    2    0    0  0.32705061180E+02  0.21763428160E+02 -0.96706933458E+02  0.10438150608E+03  0.00000000000E+00 0.  1.
         11    1    1    2    0    0 -0.49153285189E+02 -0.17809483827E+02 -0.20386561900E+03  0.21046238089E+03  0.00000000000E+00 0. -1.
<mgrwt>
<rscale>  0 0.10885344E+03</rscale>
<asrwt>0</asrwt>
<pdfrwt beam="2">  1        4 0.53084309E-01 0.11442404E+03</pdfrwt>
<pdfrwt beam="1">  1       -4 0.14583986E-01 0.11442404E+03</pdfrwt>
<totfact> 0.21947599E+02</totfact>
</mgrwt>
</event>
<event>
 7    1  0.4230786E-006  0.1333071E+03  0.7546771E-02  0.1235188E+00
          2   -1    0    0  501    0  0.00000000000E+00  0.00000000000E+00  0.13732865388E+03  0.13732865388E+03  0.00000000000E+00 0.  1.
         -2   -1    0    0    0  501 -0.00000000000E+00 -0.00000000000E+00 -0.10535512732E+03  0.10535512732E+03  0.00000000000E+00 0. -1.
         23    2    1    2    0    0 -0.16840621839E+02 -0.43158602250E+02  0.41027036077E+02  0.13947755658E+03  0.12499799842E+03 0.  0.
          5    1    3    3  502    0  0.30236531511E+02 -0.15591900712E+02  0.69675389105E+02  0.77679502139E+02  0.47000000000E+01 0.  1.
         -5    1    3    3    0  502 -0.47077153351E+02 -0.27566701539E+02 -0.28648353028E+02  0.61798054440E+02  0.47000000000E+01 0.  1.
        -11    1    1    2    0    0  0.51513377833E+02  0.79338977517E+01 -0.12698877433E+02  0.53645468750E+02  0.00000000000E+00 0. -1.
         11    1    1    2    0    0 -0.34672755994E+02  0.35224704499E+02  0.36453679208E+01  0.49560755871E+02  0.00000000000E+00 0.  1.
<mgrwt>
<rscale>  0 0.12492431E+03</rscale>
<asrwt>0</asrwt>
<pdfrwt beam="1">  1        2 0.21127485E-01 0.13330706E+03</pdfrwt>
<pdfrwt beam="2">  1       -2 0.16208481E-01 0.13330706E+03</pdfrwt>
<totfact> 0.74089671E+03</totfact>
</mgrwt>
</event>
<event>
 7    1  0.4230786E-006  0.1365341E+03  0.7546771E-02  0.1230490E+00
         -3   -1    0    0    0  501 -0.00000000000E+00  0.00000000000E+00  0.27409153884E+02  0.27409153884E+02  0.00000000000E+00 0.  1.
          3   -1    0    0  501    0  0.00000000000E+00 -0.00000000000E+00 -0.54767443081E+03  0.54767443081E+03  0.00000000000E+00 0. -1.
         23    2    1    2    0    0 -0.54731396856E+02 -0.45704542039E+01 -0.33812924666E+03  0.36465456106E+03  0.12500058642E+03 0.  0.
          5    1    3    3  502    0 -0.38198433677E+02  0.53836787103E+02 -0.10849048732E+03  0.12708184694E+03  0.47000000000E+01 0.  1.
         -5    1    3    3    0  502 -0.16532963178E+02 -0.58407241307E+02 -0.22963875933E+03  0.23757271413E+03  0.47000000000E+01 0.  1.
        -11    1    1    2    0    0 -0.17080403814E+02 -0.17013992336E+02 -0.81098919262E+02  0.84606446771E+02  0.00000000000E+00 0. -1.
         11    1    1    2    0    0  0.71811800669E+02  0.21584446540E+02 -0.10103711101E+03  0.12582257687E+03  0.00000000000E+00 0.  1.
<mgrwt>
<rscale>  0 0.12797634E+03</rscale>
<asrwt>0</asrwt>
<pdfrwt beam="2">  1        3 0.84257609E-01 0.13653410E+03</pdfrwt>
<pdfrwt beam="1">  1       -3 0.42167927E-02 0.13653410E+03</pdfrwt>
<totfact> 0.91986301E+02</totfact>
</mgrwt>
</event>
<event>
 7    1  0.4230786E-006  0.1386752E+03  0.7546771E-02  0.1226193E+00
          2   -1    0    0  501    0  0.00000000000E+00  0.00000000000E+00  0.61659169577E+02  0.61659169577E+02  0.00000000000E+00 0. -1.
         -2   -1    0    0    0  501 -0.00000000000E+00 -0.00000000000E+00 -0.27733860011E+03  0.27733860011E+03  0.00000000000E+00 0.  1.
         23    2    1    2    0    0 -0.58712032579E+02 -0.12651649971E+02 -0.17140058798E+03  0.22047439836E+03  0.12499452690E+03 0.  0.
          5    1    3    3  502    0 -0.70208924718E+02  0.11390562450E+02 -0.31415650024E+02  0.77897824677E+02  0.47000000000E+01 0. -1.
         -5    1    3    3    0  502  0.11496892139E+02 -0.24042212421E+02 -0.13998493796E+03  0.14257657368E+03  0.47000000000E+01 0. -1.
        -11    1    1    2    0    0 -0.16926929888E+01  0.14439434402E+02 -0.55226955561E+02  0.57108485323E+02  0.00000000000E+00 0.  1.
         11    1    1    2    0    0  0.60404725568E+02 -0.17877844311E+01  0.10948113014E+02  0.61414886002E+02  0.00000000000E+00 0. -1.
<mgrwt>
<rscale>  0 0.13085478E+03</rscale>
<asrwt>0</asrwt>
<pdfrwt beam="1">  1        2 0.94860260E-02 0.13867516E+03</pdfrwt>
<pdfrwt beam="2">  1       -2 0.42667477E-01 0.13867516E+03</pdfrwt>
<totfact> 0.34502898E+03</totfact>
</mgrwt>
</event>
<event>
 7    1  0.4230786E-006  0.1760068E+03  0.7546771E-02  0.1177493E+00
         -1   -1    0    0    0  501 -0.00000000000E+00  0.00000000000E+00  0.11073907659E+03  0.11073907659E+03  0.00000000000E+00 0.  1.
          1   -1    0    0  501    0  0.00000000000E+00 -0.00000000000E+00 -0.28333220264E+03  0.28333220264E+03  0.00000000000E+00 0. -1.
         23    2    1    2    0    0  0.11256482962E+03 -0.51815175661E+02 -0.20270569143E+02  0.17717023128E+03  0.12499096600E+03 0.  0.
          5    1    3    3  502    0  0.13949043126E+03 -0.47116628671E+02 -0.10185029964E+02  0.14765968287E+03  0.47000000000E+01 0. -1.
         -5    1    3    3    0  502 -0.26925601632E+02 -0.46985469898E+01 -0.10085539179E+02  0.29510548413E+02  0.47000000000E+01 0. -1.
        -11    1    1    2    0    0 -0.55791122737E+02  0.29748776715E+02 -0.12588136955E+02  0.64467823636E+02  0.00000000000E+00 0.  1.
         11    1    1    2    0    0 -0.56773706887E+02  0.22066398946E+02 -0.13973441995E+03  0.15243322432E+03  0.00000000000E+00 0. -1.
<mgrwt>
<rscale>  0 0.17034103E+03</rscale>
<asrwt>0</asrwt>
<pdfrwt beam="2">  1        1 0.43589569E-01 0.17600680E+03</pdfrwt>
<pdfrwt beam="1">  1       -1 0.17036781E-01 0.17600680E+03</pdfrwt>
<totfact> 0.24254593E+03</totfact>
</mgrwt>
</event>
<event>
 6    1  0.4230786E-006  0.1849319E+03  0.7546771E-02  0.1178228E+00
         -1   -1    0    0    0  501 -0.00000000000E+00  0.00000000000E+00  0.21926352727E+03  0.21926352727E+03  0.00000000000E+00 0.  1.
          1   -1    0    0  501    0  0.00000000000E+00 -0.00000000000E+00 -0.15323971704E+03  0.15323971704E+03  0.00000000000E+00 0. -1.
          5    1    1    2  502    0 -0.60170946705E+02  0.69856903154E+01  0.32663956960E+02  0.68980916062E+02  0.47000000000E+01 0. -1.
         -5    1    1    2    0  502  0.72196508414E+02 -0.99763101133E+02  0.98051265328E+02  0.15748381760E+03  0.47000000000E+01 0.  1.
        -11    1    1    2    0    0  0.10097353880E+02 -0.16441757366E+02 -0.12457375254E+02  0.22966805151E+02  0.00000000000E+00 0.  1.
         11    1    1    2    0    0 -0.22122915589E+02  0.10921916818E+03 -0.52234036802E+02  0.12307170550E+03  0.00000000000E+00 0. -1.
<mgrwt>
<rscale>  0 0.16963576E+03</rscale>
<asrwt>0</asrwt>
<pdfrwt beam="2">  1        1 0.23575341E-01 0.18493190E+03</pdfrwt>
<pdfrwt beam="1">  1       -1 0.33732851E-01 0.18493190E+03</pdfrwt>
<totfact> 0.17008023E+03</totfact>
</mgrwt>
</event>
<event>
 7    1  0.4230786E-006  0.1414328E+03  0.7546771E-02  0.1222470E+00
          2   -1    0    0  501    0  0.00000000000E+00  0.00000000000E+00  0.90054097638E+03  0.90054097638E+03  0.00000000000E+00 0. -1.
         -2   -1    0    0    0  501 -0.00000000000E+00 -0.00000000000E+00 -0.18634199852E+02  0.18634199852E+02  0.00000000000E+00 0.  1.
         23    2    1    2    0    0  0.58800310753E+02 -0.30415270597E+02  0.39510430156E+03  0.41965537653E+03  0.12498264162E+03 0.  0.
          5    1    3    3  502    0  0.84655555635E+02 -0.18893247279E+02  0.15367179615E+03  0.17652373445E+03  0.47000000000E+01 0. -1.
         -5    1    3    3    0  502 -0.25855244882E+02 -0.11522023318E+02  0.24143250541E+03  0.24313164207E+03  0.47000000000E+01 0. -1.
        -11    1    1    2    0    0 -0.52026647005E+00 -0.28294557793E+02  0.97435851770E+02  0.10146229787E+03  0.00000000000E+00 0.  1.
         11    1    1    2    0    0 -0.58280044282E+02  0.58709828390E+02  0.38936662319E+03  0.39805750184E+03  0.00000000000E+00 0. -1.
<mgrwt>
<rscale>  0 0.13341797E+03</rscale>
<asrwt>0</asrwt>
<pdfrwt beam="1">  1        2 0.13854473E+00 0.14143276E+03</pdfrwt>
<pdfrwt beam="2">  1       -2 0.28668007E-02 0.14143276E+03</pdfrwt>
<totfact> 0.13212504E+04</totfact>
</mgrwt>
</event>
<event>
 7    1  0.4230786E-006  0.1663491E+03  0.7546771E-02  0.1188642E+00
         -2   -1    0    0    0  501 -0.00000000000E+00  0.00000000000E+00  0.92364636992E+02  0.92364636992E+02  0.00000000000E+00 0.  1.
          2   -1    0    0  501    0  0.00000000000E+00 -0.00000000000E+00 -0.48183360209E+03  0.48183360209E+03  0.00000000000E+00 0. -1.
         23    2    1    2    0    0 -0.87286270242E+02  0.66542780030E+02 -0.75213438174E+01  0.16651907359E+03  0.12500078683E+03 0.  0.
          5    1    3    3  502    0 -0.20025456679E+01  0.78027144577E+02 -0.16353288281E+02  0.79885953193E+02  0.47000000000E+01 0.  1.
         -5    1    3    3    0  502 -0.85283724574E+02 -0.11484364547E+02  0.88319444634E+01  0.86633120395E+02  0.47000000000E+01 0.  1.
        -11    1    1    2    0    0  0.92672634606E+01 -0.23190380332E+02 -0.13128960808E+02  0.28214278723E+02  0.00000000000E+00 0.  1.
         11    1    1    2    0    0  0.78019006782E+02 -0.43352399698E+02 -0.36881866047E+03  0.37946488677E+03  0.00000000000E+00 0. -1.
<mgrwt>
<rscale>  0 0.16004841E+03</rscale>
<asrwt>0</asrwt>
<pdfrwt beam="2">  1        2 0.74128245E-01 0.16634912E+03</pdfrwt>
<pdfrwt beam="1">  1       -2 0.14209944E-01 0.16634912E+03</pdfrwt>
<totfact> 0.23929154E+03</totfact>
</mgrwt>
</event>
<event>
 7    1  0.4230786E-006  0.1894805E+03  0.7546771E-02  0.1164017E+00
         -1   -1    0    0    0  501 -0.00000000000E+00  0.00000000000E+00  0.29971410643E+03  0.29971410643E+03  0.00000000000E+00 0.  1.
          1   -1    0    0  501    0  0.00000000000E+00 -0.00000000000E+00 -0.11330145672E+03  0.11330145672E+03  0.00000000000E+00 0. -1.
         23    2    1    2    0    0 -0.99922397985E+02  0.10145622277E+03  0.14770395259E+03  0.24024848858E+03  0.12500011157E+03 0.  0.
          5    1    3    3  502    0 -0.11630508282E+03  0.11617574514E+03  0.11554527378E+03  0.20098874680E+03  0.47000000000E+01 0. -1.
         -5    1    3    3    0  502  0.16382684836E+02 -0.14719522363E+02  0.32158678818E+02  0.39259741777E+02  0.47000000000E+01 0. -1.
        -11    1    1    2    0    0  0.39012569817E+02  0.10917641647E+02  0.76385845583E+01  0.41225277160E+02  0.00000000000E+00 0.  1.
         11    1    1    2    0    0  0.60909828169E+02 -0.11237386442E+03  0.31070112555E+02  0.13154179741E+03  0.00000000000E+00 0. -1.
<mgrwt>
<rscale>  0 0.18396822E+03</rscale>
<asrwt>0</asrwt>
<pdfrwt beam="2">  1        1 0.17430993E-01 0.18948055E+03</pdfrwt>
<pdfrwt beam="1">  1       -1 0.46109862E-01 0.18948055E+03</pdfrwt>
<totfact> 0.14443404E+03</totfact>
</mgrwt>
</event>
<event>
 7    1  0.4230786E-006  0.1589081E+03  0.7546771E-02  0.1195939E+00
          1   -1    0    0  501    0  0.00000000000E+00  0.00000000000E+00  0.42449365405E+03  0.42449365405E+03  0.00000000000E+00 0. -1.
         -1   -1    0    0    0  501 -0.00000000000E+00 -0.00000000000E+00 -0.16661660618E+03  0.16661660618E+03  0.00000000000E+00 0.  1.
         23    2    1    2    0    0  0.99172365542E+02 -0.36028339842E+02 -0.11297434034E+03  0.19497432155E+03  0.11882165262E+03 0.  0.
          5    1    3    3  502    0  0.46763013750E+02 -0.35853063499E+02 -0.12737166921E+03  0.14042027536E+03  0.47000000000E+01 0.  1.
         -5    1    3    3    0  502  0.52409351792E+02 -0.17527634310E+00  0.14397328867E+02  0.54554046189E+02  0.47000000000E+01 0. -1.
        -11    1    1    2    0    0 -0.72860515735E+02 -0.99815262464E+01  0.12849422521E+03  0.14805084104E+03  0.00000000000E+00 0. -1.
         11    1    1    2    0    0 -0.26311849808E+02  0.46009866089E+02  0.24235716300E+03  0.24808509765E+03  0.00000000000E+00 0.  1.
<mgrwt>
<rscale>  0 0.15374994E+03</rscale>
<asrwt>0</asrwt>
<pdfrwt beam="1">  1        1 0.65306716E-01 0.15890810E+03</pdfrwt>
<pdfrwt beam="2">  1       -1 0.25633324E-01 0.15890810E+03</pdfrwt>
<totfact> 0.75086771E+02</totfact>
</mgrwt>
</event>
<event>
 7    1  0.4230786E-006  0.2744798E+03  0.7546771E-02  0.1100636E+00
         -1   -1    0    0    0  501 -0.00000000000E+00  0.00000000000E+00  0.45843394650E+03  0.45843394650E+03  0.00000000000E+00 0.  1.
          1   -1    0    0  501    0  0.00000000000E+00 -0.00000000000E+00 -0.16417821009E+03  0.16417821009E+03  0.00000000000E+00 0. -1.
         23    2    1    2    0    0 -0.63778212483E+02 -0.23589334254E+03  0.21763984978E+03  0.35029454637E+03  0.12500334220E+03 0.  0.
          5    1    3    3  502    0 -0.22323647001E+02 -0.91484570115E+02  0.16682019885E+03  0.19162160768E+03  0.47000000000E+01 0. -1.
         -5    1    3    3    0  502 -0.41454565482E+02 -0.14440877243E+03  0.50819650937E+02  0.15867293870E+03  0.47000000000E+01 0. -1.
        -11    1    1    2    0    0  0.24721326611E+02  0.95877785138E+01  0.26038801001E+02  0.37163001006E+02  0.00000000000E+00 0. -1.
         11    1    1    2    0    0  0.39056885872E+02  0.22630556403E+03  0.50577085615E+02  0.23515460921E+03  0.00000000000E+00 0.  1.
<mgrwt>
<rscale>  0 0.27112837E+03</rscale>
<asrwt>0</asrwt>
<pdfrwt beam="2">  1        1 0.25258186E-01 0.27447981E+03</pdfrwt>
<pdfrwt beam="1">  1       -1 0.70528299E-01 0.27447981E+03</pdfrwt>
<totfact> 0.40027752E+02</totfact>
</mgrwt>
</event>
<event>
 7    1  0.4230786E-006  0.1368713E+03  0.7546771E-02  0.1227958E+00
          1   -1    0    0  501    0  0.00000000000E+00  0.00000000000E+00  0.44471505685E+02  0.44471505685E+02  0.00000000000E+00 0. -1.
         -1   -1    0    0    0  501 -0.00000000000E+00 -0.00000000000E+00 -0.35161014296E+03  0.35161014296E+03  0.00000000000E+00 0.  1.
         23    2    1    2    0    0 -0.15152413147E+02 -0.53651993794E+02 -0.20007552697E+03  0.24241279594E+03  0.12500246029E+03 0.  0.
          5    1    3    3  502    0  0.50132177024E+02 -0.12263784553E+02 -0.43216620275E+02  0.67478899315E+02  0.47000000000E+01 0.  1.
         -5    1    3    3    0  502 -0.65284590171E+02 -0.41388209240E+02 -0.15685890669E+03  0.17493389662E+03  0.47000000000E+01 0.  1.
        -11    1    1    2    0    0  0.38109502301E+02  0.70675102097E+02 -0.88958477949E+02  0.11983703526E+03  0.00000000000E+00 0.  1.
         11    1    1    2    0    0 -0.22957089154E+02 -0.17023108303E+02 -0.18104632354E+02  0.33831817442E+02  0.00000000000E+00 0. -1.
<mgrwt>
<rscale>  0 0.12966222E+03</rscale>
<asrwt>0</asrwt>
<pdfrwt beam="1">  1        1 0.68417699E-02 0.13687128E+03</pdfrwt>
<pdfrwt beam="2">  1       -1 0.54093870E-01 0.13687128E+03</pdfrwt>
<totfact> 0.36691701E+03</totfact>
</mgrwt>
</event>
<event>
 7    1  0.4230786E-006  0.1265564E+03  0.7546771E-02  0.1247399E+00
          2   -1    0    0  501    0  0.00000000000E+00  0.00000000000E+00  0.89570305409E+02  0.89570305409E+02  0.00000000000E+00 0. -1.
         -2   -1    0    0    0  501 -0.00000000000E+00 -0.00000000000E+00 -0.13685343658E+03  0.13685343658E+03  0.00000000000E+00 0.  1.
         23    2    1    2    0    0  0.18087551158E+02 -0.79543270662E+01 -0.38087034266E+02  0.13216334910E+03  0.12500439129E+03 0.  0.
          5    1    3    3  502    0  0.93301717733E+01  0.26635366979E+02  0.38250837483E+02  0.47767263346E+02  0.47000000000E+01 0. -1.
         -5    1    3    3    0  502  0.87573793850E+01 -0.34589694045E+02 -0.76337871749E+02  0.84396085757E+02  0.47000000000E+01 0. -1.
        -11    1    1    2    0    0  0.22158039065E+02  0.27678712893E+02 -0.28471428164E+02  0.45472102045E+02  0.00000000000E+00 0.  1.
         11    1    1    2    0    0 -0.40245590224E+02 -0.19724385827E+02  0.19275331255E+02  0.48788290846E+02  0.00000000000E+00 0. -1.
<mgrwt>
<rscale>  0 0.11742925E+03</rscale>
<asrwt>0</asrwt>
<pdfrwt beam="1">  1        2 0.13780047E-01 0.12655642E+03</pdfrwt>
<pdfrwt beam="2">  1       -2 0.21054375E-01 0.12655642E+03</pdfrwt>
<totfact> 0.77907908E+03</totfact>
</mgrwt>
</event>
<event>
 7    1  0.4230786E-006  0.1382884E+03  0.7546771E-02  0.1227523E+00
          1   -1    0    0  501    0  0.00000000000E+00  0.00000000000E+00  0.72572533586E+02  0.72572533586E+02  0.00000000000E+00 0. -1.
         -1   -1    0    0    0  501 -0.00000000000E+00 -0.00000000000E+00 -0.24320207282E+03  0.24320207282E+03  0.00000000000E+00 0.  1.
         23    2    1    2    0    0  0.55944683046E+02 -0.19157304379E+02 -0.15344692570E+03  0.20656629088E+03  0.12500745438E+03 0.  0.
          5    1    3    3  502    0 -0.25534189873E+02  0.18012754626E+02 -0.93499666776E+02  0.98695146127E+02  0.47000000000E+01 0.  1.
         -5    1    3    3    0  502  0.81478872919E+02 -0.37170059005E+02 -0.59947258926E+02  0.10787114476E+03  0.47000000000E+01 0.  1.
        -11    1    1    2    0    0 -0.76334737013E+02  0.28298852080E+02 -0.65385087478E+00  0.81414032113E+02  0.00000000000E+00 0. -1.
         11    1    1    2    0    0  0.20390053967E+02 -0.91415477012E+01 -0.16528762653E+02  0.27794283405E+02  0.00000000000E+00 0.  1.
<mgrwt>
<rscale>  0 0.12995482E+03</rscale>
<asrwt>0</asrwt>
<pdfrwt beam="1">  1        1 0.11165005E-01 0.13828837E+03</pdfrwt>
<pdfrwt beam="2">  1       -1 0.37415704E-01 0.13828837E+03</pdfrwt>
<totfact> 0.36950146E+03</totfact>
</mgrwt>
</event>
<event>
 7    1  0.4230786E-006  0.1290536E+03  0.7546771E-02  0.1254808E+00
          2   -1    0    0  501    0  0.00000000000E+00  0.00000000000E+00  0.28532615829E+03  0.28532615829E+03  0.00000000000E+00 0. -1.
         -2   -1    0    0    0  501 -0.00000000000E+00 -0.00000000000E+00 -0.37103790388E+02  0.37103790388E+02  0.00000000000E+00 0.  1.
         23    2    1    2    0    0  0.24969701133E+02  0.20151142467E+02  0.16569700184E+03  0.21002457944E+03  0.12500109214E+03 0.  0.
          5    1    3    3  502    0 -0.40601865630E+02 -0.25559398167E+02  0.51366005490E+02  0.70443955364E+02  0.47000000000E+01 0.  1.
         -5    1    3    3    0  502  0.65571566763E+02  0.45710540634E+02  0.11433099635E+03  0.13958062408E+03  0.47000000000E+01 0.  1.
        -11    1    1    2    0    0 -0.46557575904E+02 -0.13102595697E+02  0.73461733000E+02  0.87954034037E+02  0.00000000000E+00 0.  1.
         11    1    1    2    0    0  0.21587874771E+02 -0.70485467701E+01  0.90636330696E+01  0.24451335201E+02  0.00000000000E+00 0. -1.
<mgrwt>
<rscale>  0 0.11317101E+03</rscale>
<asrwt>0</asrwt>
<pdfrwt beam="1">  1        2 0.43896331E-01 0.12905358E+03</pdfrwt>
<pdfrwt beam="2">  1       -2 0.57082756E-02 0.12905358E+03</pdfrwt>
<totfact> 0.17203493E+04</totfact>
</mgrwt>
</event>
<event>
 7    1  0.4230786E-006  0.2714121E+03  0.7546771E-02  0.1102464E+00
          2   -1    0    0  501    0  0.00000000000E+00  0.00000000000E+00  0.90735314504E+02  0.90735314504E+02  0.00000000000E+00 0. -1.
         -2   -1    0    0    0  501 -0.00000000000E+00 -0.00000000000E+00 -0.91029433540E+03  0.91029433540E+03  0.00000000000E+00 0.  1.
         23    2    1    2    0    0 -0.17487971059E+03  0.16569797470E+03 -0.61401126719E+03  0.67132284654E+03  0.12500318417E+03 0.  0.
          5    1    3    3  502    0 -0.43659769845E+02  0.64114358050E+01 -0.34706482403E+02  0.56337482485E+02  0.47000000000E+01 0. -1.
         -5    1    3    3    0  502 -0.13121994075E+03  0.15928653889E+03 -0.57930478479E+03  0.61498536405E+03  0.47000000000E+01 0. -1.
        -11    1    1    2    0    0  0.11618608688E+03 -0.74421078383E+02 -0.66055536174E+02  0.15297397671E+03  0.00000000000E+00 0. -1.
         11    1    1    2    0    0  0.58693623711E+02 -0.91276896313E+02 -0.13949221753E+03  0.17673282665E+03  0.00000000000E+00 0.  1.
<mgrwt>
<rscale>  0 0.26794105E+03</rscale>
<asrwt>0</asrwt>
<pdfrwt beam="1">  1        2 0.13959279E-01 0.27141210E+03</pdfrwt>
<pdfrwt beam="2">  1       -2 0.14004528E+00 0.27141210E+03</pdfrwt>
<totfact> 0.16109129E+02</totfact>
</mgrwt>
</event>
<event>
 7    1  0.4230786E-006  0.1376108E+03  0.7546771E-02  0.1228214E+00
         -3   -1    0    0    0  501 -0.00000000000E+00  0.00000000000E+00  0.29304705120E+03  0.29304705120E+03  0.00000000000E+00 0. -1.
          3   -1    0    0  501    0  0.00000000000E+00 -0.00000000000E+00 -0.59934722496E+02  0.59934722496E+02  0.00000000000E+00 0.  1.
         23    2    1    2    0    0  0.48775616125E+02 -0.30559245227E+02  0.19477185018E+03  0.23848020588E+03  0.12499522702E+03 0.  0.
          5    1    3    3  502    0  0.11962683275E+02 -0.49088121391E+02  0.13479106756E+02  0.52502626332E+02  0.47000000000E+01 0.  1.
         -5    1    3    3    0  502  0.36812932850E+02  0.18528876164E+02  0.18129274342E+03  0.18597757955E+03  0.47000000000E+01 0.  1.
        -11    1    1    2    0    0 -0.13827360041E+02 -0.83523871569E+01 -0.26598360113E+02  0.31119624317E+02  0.00000000000E+00 0.  1.
         11    1    1    2    0    0 -0.34948256084E+02  0.38911632384E+02  0.64938838643E+02  0.83381943503E+02  0.00000000000E+00 0. -1.
<mgrwt>
<rscale>  0 0.12949005E+03</rscale>
<asrwt>0</asrwt>
<pdfrwt beam="2">  1        3 0.92207267E-02 0.13761081E+03</pdfrwt>
<pdfrwt beam="1">  1       -3 0.45084161E-01 0.13761081E+03</pdfrwt>
<totfact> 0.95867765E+02</totfact>
</mgrwt>
</event>
<event>
 7    1  0.4230786E-006  0.1617633E+03  0.7546771E-02  0.1194223E+00
         -1   -1    0    0    0  501 -0.00000000000E+00  0.00000000000E+00  0.24500820554E+03  0.24500820554E+03  0.00000000000E+00 0.  1.
          1   -1    0    0  501    0  0.00000000000E+00 -0.00000000000E+00 -0.93392232104E+02  0.93392232104E+02  0.00000000000E+00 0. -1.
         23    2    1    2    0    0  0.51145357737E+02  0.89030563848E+02  0.10821938269E+03  0.19462473394E+03  0.12500025342E+03 0.  0.
          5    1    3    3  502    0  0.90248499937E+02  0.52875449143E+02  0.90224460025E+02  0.13821413839E+03  0.47000000000E+01 0.  1.
         -5    1    3    3    0  502 -0.39103142200E+02  0.36155114705E+02  0.17994922666E+02  0.56410595556E+02  0.47000000000E+01 0.  1.
        -11    1    1    2    0    0 -0.71110162552E+02 -0.56008019749E+02  0.51787043433E+02  0.10428543217E+03  0.00000000000E+00 0.  1.
         11    1    1    2    0    0  0.19964804815E+02 -0.33022544099E+02 -0.83904526842E+01  0.39490271540E+02  0.00000000000E+00 0. -1.
<mgrwt>
<rscale>  0 0.15520136E+03</rscale>
<asrwt>0</asrwt>
<pdfrwt beam="2">  1        1 0.14368036E-01 0.16176326E+03</pdfrwt>
<pdfrwt beam="1">  1       -1 0.37693570E-01 0.16176326E+03</pdfrwt>
<totfact> 0.26414038E+03</totfact>
</mgrwt>
</event>
<event>
 7    1  0.4230786E-006  0.1367788E+03  0.7546771E-02  0.1229682E+00
         -1   -1    0    0    0  501 -0.00000000000E+00  0.00000000000E+00  0.24403531848E+02  0.24403531848E+02  0.00000000000E+00 0.  1.
          1   -1    0    0  501    0  0.00000000000E+00 -0.00000000000E+00 -0.77767602593E+03  0.77767602593E+03  0.00000000000E+00 0. -1.
         23    2    1    2    0    0  0.44745721317E+02  0.32876838504E+02 -0.22620798345E+03  0.26434541232E+03  0.12500151659E+03 0.  0.
          5    1    3    3  502    0 -0.60105679391E-01  0.38367705893E+02 -0.21383964590E+03  0.21730524298E+03  0.47000000000E+01 0. -1.
         -5    1    3    3    0  502  0.44805826996E+02 -0.54908673890E+01 -0.12368337549E+02  0.47040169337E+02  0.47000000000E+01 0. -1.
        -11    1    1    2    0    0 -0.13126212556E+01 -0.55942105932E+02 -0.23591443296E+03  0.24246002118E+03  0.00000000000E+00 0.  1.
         11    1    1    2    0    0 -0.43433100061E+02  0.23065267428E+02 -0.29115007766E+03  0.29527412428E+03  0.00000000000E+00 0. -1.
<mgrwt>
<rscale>  0 0.12851129E+03</rscale>
<asrwt>0</asrwt>
<pdfrwt beam="2">  1        1 0.11964247E+00 0.13677882E+03</pdfrwt>
<pdfrwt beam="1">  1       -1 0.37543893E-02 0.13677882E+03</pdfrwt>
<totfact> 0.62971643E+03</totfact>
</mgrwt>
</event>
<event>
 7    1  0.4230786E-006  0.1955314E+03  0.7546771E-02  0.1158256E+00
          2   -1    0    0  501    0  0.00000000000E+00  0.00000000000E+00  0.10539321365E+03  0.10539321365E+03  0.00000000000E+00 0. -1.
         -2   -1    0    0    0  501 -0.00000000000E+00 -0.00000000000E+00 -0.42825990284E+03  0.42825990284E+03  0.00000000000E+00 0.  1.
         23    2    1    2    0    0  0.84781326679E+02 -0.12417560244E+03 -0.29844642168E+03  0.35679519814E+03  0.12500037283E+03 0.  0.
          5    1    3    3  502    0  0.36874276226E+01 -0.63354677107E+02 -0.21859241469E+03  0.22766674328E+03  0.47000000000E+01 0.  1.
         -5    1    3    3    0  502  0.81093899057E+02 -0.60820925334E+02 -0.79854006986E+02  0.12912845486E+03  0.47000000000E+01 0.  1.
        -11    1    1    2    0    0 -0.25769785274E+02  0.70431727154E+02 -0.53265296447E+02  0.91988596188E+02  0.00000000000E+00 0.  1.
         11    1    1    2    0    0 -0.59011541405E+02  0.53743875287E+02  0.28845028944E+02  0.84869322164E+02  0.00000000000E+00 0. -1.
<mgrwt>
<rscale>  0 0.19022762E+03</rscale>
<asrwt>0</asrwt>
<pdfrwt beam="1">  1        2 0.16214340E-01 0.19553145E+03</pdfrwt>
<pdfrwt beam="2">  1       -2 0.65886139E-01 0.19553145E+03</pdfrwt>
<totfact> 0.76663043E+02</totfact>
</mgrwt>
</event>
