<event>
 7    1  0.1243146E-005  0.1073475E+03  0.7561462E-02  0.1265562E+00
         -1   -1    0    0    0  501 -0.00000000000E+00  0.00000000000E+00  0.52153140125E+02  0.52153140125E+02  0.00000000000E+00 0.  1.
          1   -1    0    0  501    0  0.00000000000E+00 -0.00000000000E+00 -0.24826975256E+03  0.24826975256E+03  0.00000000000E+00 0. -1.
         23    2    1    2    0    0  0.15724712946E+02  0.15288944917E+01 -0.73224619252E+02  0.14580429446E+03  0.12508974099E+03 0.  0.
          5    1    3    3  502    0 -0.63649966614E+01  0.61445098727E+02 -0.32189835492E+02  0.69783029807E+02  0.41800000000E+01 0.  1.
         -5    1    3    3    0  502  0.22089709608E+02 -0.59916204235E+02 -0.41034783760E+02  0.76021264648E+02  0.41800000000E+01 0.  1.
        -11    1    1    2    0    0  0.16199721909E+02  0.36022242311E+02 -0.80257220496E+02  0.89449730982E+02  0.00000000000E+00 0. -1.
         11    1    1    2    0    0 -0.31924434855E+02 -0.37551136802E+02 -0.42634772683E+02  0.65168867243E+02  0.00000000000E+00 0.  1.
</event>
<event>
 7    1  0.1390542E-005  0.2301740E+03  0.7561462E-02  0.1126517E+00
         -3   -1    0    0    0  501 -0.00000000000E+00  0.00000000000E+00  0.97597015670E+02  0.97597015670E+02  0.00000000000E+00 0.  1.
          3   -1    0    0  501    0  0.00000000000E+00 -0.00000000000E+00 -0.75810636613E+03  0.75810636613E+03  0.00000000000E+00 0. -1.
         23    2    1    2    0    0  0.14507440779E+02 -0.21827038206E+03 -0.15140193168E+03  0.29397729714E+03  0.12509069029E+03 0.  0.
          5    1    3    3  502    0 -0.13502526865E+02 -0.15538245950E+03 -0.16116885217E+03  0.22431874255E+03  0.41800000000E+01 0.  1.
         -5    1    3    3    0  502  0.28009967644E+02 -0.62887922561E+02  0.97669204916E+01  0.69658554588E+02  0.41800000000E+01 0.  1.
        -11    1    1    2    0    0 -0.44978963818E+02  0.64758329089E+02 -0.13743513026E+03  0.15844608989E+03  0.00000000000E+00 0.  1.
         11    1    1    2    0    0  0.30471523040E+02  0.15351205297E+03 -0.37167228852E+03  0.40327999477E+03  0.00000000000E+00 0. -1.
</event>
<event>
 7    1  0.3772904E-005  0.1374058E+03  0.7561462E-02  0.1216863E+00
          1   -1    0    0  501    0  0.00000000000E+00  0.00000000000E+00  0.31868424627E+03  0.31868424627E+03  0.00000000000E+00 0. -1.
         -1   -1    0    0    0  501 -0.00000000000E+00 -0.00000000000E+00 -0.84380422117E+02  0.84380422117E+02  0.00000000000E+00 0.  1.
         23    2    1    2    0    0  0.11579016518E+03 -0.15904751044E+02  0.84006278425E+02  0.19069542185E+03  0.12508943057E+03 0.  0.
          5    1    3    3  502    0 -0.59672204933E+01  0.17487393464E+02  0.58940367159E+02  0.61910063248E+02  0.41800000000E+01 0.  1.
         -5    1    3    3    0  502  0.12175738568E+03 -0.33392144508E+02  0.25065911266E+02  0.12878535860E+03  0.41800000000E+01 0.  1.
        -11    1    1    2    0    0 -0.63603233784E+02 -0.19448700746E+02  0.23096622099E+02  0.70406514335E+02  0.00000000000E+00 0.  1.
         11    1    1    2    0    0 -0.52186931401E+02  0.35353451791E+02  0.12720092363E+03  0.14196273220E+03  0.00000000000E+00 0. -1.
</event>
<event>
 7    1  0.1243146E-005  0.2708487E+03  0.7561462E-02  0.1100795E+00
         -2   -1    0    0    0  501 -0.00000000000E+00  0.00000000000E+00  0.93887516701E+03  0.93887516701E+03  0.00000000000E+00 0.  1.
          2   -1    0    0  501    0  0.00000000000E+00 -0.00000000000E+00 -0.95004521109E+02  0.95004521109E+02  0.00000000000E+00 0. -1.
         23    2    1    2    0    0  0.59221390388E+02 -0.25988610454E+03  0.56764305528E+03  0.63946326580E+03  0.12508664869E+03 0.  0.
          5    1    3    3  502    0  0.61501432618E+01 -0.62886476531E+02  0.43036671602E+02  0.76564748385E+02  0.41800000000E+01 0.  1.
         -5    1    3    3    0  502  0.53071247127E+02 -0.19699962801E+03  0.52460638368E+03  0.56289851742E+03  0.41800000000E+01 0.  1.
        -11    1    1    2    0    0 -0.80739061402E+01  0.17511338747E+03  0.21732135546E+03  0.27921041881E+03  0.00000000000E+00 0.  1.
         11    1    1    2    0    0 -0.51147484248E+02  0.84772717074E+02  0.58906235152E+02  0.11520600351E+03  0.00000000000E+00 0. -1.
</event>
<event>
 7    1  0.1243146E-005  0.9748783E+02  0.7561462E-02  0.1285669E+00
          2   -1    0    0  501    0  0.00000000000E+00  0.00000000000E+00  0.26496972207E+03  0.26496972207E+03  0.00000000000E+00 0. -1.
         -2   -1    0    0    0  501 -0.00000000000E+00 -0.00000000000E+00 -0.51665857249E+02  0.51665857249E+02  0.00000000000E+00 0.  1.
         23    2    1    2    0    0  0.41186099646E+02  0.43505800957E+01  0.10312778728E+03  0.16190308197E+03  0.11773718652E+03 0.  0.
          5    1    3    3  502    0  0.58743178722E+02  0.45918319500E+02  0.41583334936E+02  0.85474553268E+02  0.41800000000E+01 0. -1.
         -5    1    3    3    0  502 -0.17557079076E+02 -0.41567739404E+02  0.61544452345E+02  0.76428528700E+02  0.41800000000E+01 0.  1.
        -11    1    1    2    0    0  0.13277782051E+02 -0.14412033523E+02 -0.10297906509E+02  0.22137142654E+02  0.00000000000E+00 0.  1.
         11    1    1    2    0    0 -0.54463881697E+02  0.10061453427E+02  0.12047398405E+03  0.13259535470E+03  0.00000000000E+00 0. -1.
</event>
<event>
 7    1  0.1243146E-005  0.8616742E+02  0.7561462E-02  0.1312408E+00
          3   -1    0    0  501    0  0.00000000000E+00  0.00000000000E+00  0.62435721701E+02  0.62435721701E+02  0.00000000000E+00 0. -1.
         -3   -1    0    0    0  501 -0.00000000000E+00 -0.00000000000E+00 -0.20423421670E+03  0.20423421670E+03  0.00000000000E+00 0.  1.
         23    2    1    2    0    0  0.20866526414E+02  0.21722726386E+02 -0.98025390796E+02  0.16175542514E+03  0.12509417074E+03 0.  0.
          5    1    3    3  502    0  0.16169378076E+02 -0.45755724019E+02 -0.76422025408E+02  0.90624684470E+02  0.41800000000E+01 0. -1.
         -5    1    3    3    0  502  0.46971483377E+01  0.67478450405E+02 -0.21603365388E+02  0.71130740666E+02  0.41800000000E+01 0. -1.
        -11    1    1    2    0    0  0.94827578950E+01  0.87103153464E+01 -0.58177478189E+02  0.59585327549E+02  0.00000000000E+00 0.  1.
         11    1    1    2    0    0 -0.30349284309E+02 -0.30433041733E+02  0.14404373989E+02  0.45329185711E+02  0.00000000000E+00 0. -1.
</event>
<event>
 7    1  0.1243146E-005  0.1363172E+03  0.7561462E-02  0.1218372E+00
          2   -1    0    0  501    0  0.00000000000E+00  0.00000000000E+00  0.11035874262E+03  0.11035874262E+03  0.00000000000E+00 0.  1.
         -2   -1    0    0    0  501 -0.00000000000E+00 -0.00000000000E+00 -0.28933563486E+03  0.28933563486E+03  0.00000000000E+00 0. -1.
         23    2    1    2    0    0 -0.12507453602E+03 -0.40091877406E+02 -0.19347475004E+03  0.26478288713E+03  0.12420346299E+03 0.  0.
          5    1    3    3  502    0 -0.14719490960E+02 -0.21835802663E+02 -0.13669693036E+03  0.13927307300E+03  0.41800000000E+01 0. -1.
         -5    1    3    3    0  502 -0.11035504506E+03 -0.18256074743E+02 -0.56777819680E+02  0.12550981413E+03  0.41800000000E+01 0.  1.
        -11    1    1    2    0    0  0.11350573194E+03  0.44132879688E+02  0.11719928528E+02  0.12234630758E+03  0.00000000000E+00 0.  1.
         11    1    1    2    0    0  0.11568804078E+02 -0.40410022823E+01  0.27779292727E+01  0.12565182780E+02  0.00000000000E+00 0. -1.
</event>
<event>
 7    1  0.1243146E-005  0.1344627E+03  0.7561462E-02  0.1220980E+00
          2   -1    0    0  501    0  0.00000000000E+00  0.00000000000E+00  0.76332562765E+02  0.76332562765E+02  0.00000000000E+00 0. -1.
         -2   -1    0    0    0  501 -0.00000000000E+00 -0.00000000000E+00 -0.32624297595E+03  0.32624297595E+03  0.00000000000E+00 0.  1.
         23    2    1    2    0    0 -0.96887520640E+02 -0.50962279422E+02 -0.17512130398E+03  0.24145357047E+03  0.12509200616E+03 0.  0.
          5    1    3    3  502    0 -0.96316357570E+02 -0.63106067428E+02 -0.68475597848E+02  0.13403580261E+03  0.41800000000E+01 0. -1.
         -5    1    3    3    0  502 -0.57116307066E+00  0.12143788006E+02 -0.10664570613E+03  0.10741776785E+03  0.41800000000E+01 0. -1.
        -11    1    1    2    0    0  0.58230154789E+02 -0.18714076799E+02 -0.45485489839E+02  0.76222682865E+02  0.00000000000E+00 0.  1.
         11    1    1    2    0    0  0.38657365851E+02  0.69676356221E+02 -0.29303619370E+02  0.84899285386E+02  0.00000000000E+00 0. -1.
</event>
<event>
 7    1  0.1243146E-005  0.1175290E+03  0.7561462E-02  0.1247230E+00
          2   -1    0    0  501    0  0.00000000000E+00  0.00000000000E+00  0.35841720501E+03  0.35841720501E+03  0.00000000000E+00 0. -1.
         -2   -1    0    0    0  501 -0.00000000000E+00 -0.00000000000E+00 -0.59746062313E+02  0.59746062313E+02  0.00000000000E+00 0.  1.
         23    2    1    2    0    0 -0.62452493082E+02 -0.41632866463E+02  0.50364016434E+02  0.14383779032E+03  0.11188908039E+03 0.  0.
          5    1    3    3  502    0 -0.26830353289E+02  0.34710536521E+02  0.38768884052E+02  0.58695723642E+02  0.41800000000E+01 0. -1.
         -5    1    3    3    0  502 -0.35622139793E+02 -0.76343402984E+02  0.11595132381E+02  0.85142066674E+02  0.41800000000E+01 0.  1.
        -11    1    1    2    0    0  0.58985576055E+02 -0.56260552679E+01  0.19091736154E+03  0.19990094952E+03  0.00000000000E+00 0. -1.
         11    1    1    2    0    0  0.34669170278E+01  0.47258921731E+02  0.57389764720E+02  0.74424527486E+02  0.00000000000E+00 0.  1.
</event>
<event>
 7    1  0.1243146E-005  0.1061647E+03  0.7561462E-02  0.1267842E+00
         -1   -1    0    0    0  501 -0.00000000000E+00  0.00000000000E+00  0.22427478019E+03  0.22427478019E+03  0.00000000000E+00 0.  1.
          1   -1    0    0  501    0  0.00000000000E+00 -0.00000000000E+00 -0.71221564027E+02  0.71221564027E+02  0.00000000000E+00 0. -1.
         23    2    1    2    0    0  0.36889439689E+02 -0.54129445685E+02  0.86835887821E+02  0.16576672645E+03  0.12508920230E+03 0.  0.
          5    1    3    3  502    0  0.40117806668E+02  0.25422737788E+02  0.69326945069E+02  0.84139477780E+02  0.41800000000E+01 0. -1.
         -5    1    3    3    0  502 -0.32283669789E+01 -0.79552183472E+02  0.17508942752E+02  0.81627248666E+02  0.41800000000E+01 0. -1.
        -11    1    1    2    0    0 -0.46651140268E+02  0.22445309266E+02  0.78786491252E+02  0.94273177522E+02  0.00000000000E+00 0.  1.
         11    1    1    2    0    0  0.97617005789E+01  0.31684136419E+02 -0.12569162910E+02  0.35456440248E+02  0.00000000000E+00 0. -1.
</event>
<event>
 7    1  0.1243146E-005  0.2099361E+03  0.7561462E-02  0.1141617E+00
         -2   -1    0    0    0  501 -0.00000000000E+00  0.00000000000E+00  0.14563270715E+03  0.14563270715E+03  0.00000000000E+00 0.  1.
          2   -1    0    0  501    0  0.00000000000E+00 -0.00000000000E+00 -0.34312003302E+03  0.34312003302E+03  0.00000000000E+00 0. -1.
         23    2    1    2    0    0 -0.13304316915E+03 -0.13262384280E+03 -0.67035851076E+02  0.23543801781E+03  0.12509071254E+03 0.  0.
          5    1    3    3  502    0 -0.89717454545E+02 -0.22269459843E+02 -0.71169291399E+02  0.11673770141E+03  0.41800000000E+01 0.  1.
         -5    1    3    3    0  502 -0.43325714603E+02 -0.11035438296E+03  0.41334403226E+01  0.11870031640E+03  0.41800000000E+01 0.  1.
        -11    1    1    2    0    0  0.14589957582E+03  0.11012173254E+03 -0.86351232405E+02  0.20216334371E+03  0.00000000000E+00 0.  1.
         11    1    1    2    0    0 -0.12856406675E+02  0.22502110266E+02 -0.44100242389E+02  0.51151378650E+02  0.00000000000E+00 0. -1.
</event>
<event>
 7    1  0.1243146E-005  0.1270757E+03  0.7561462E-02  0.1231860E+00
         -1   -1    0    0    0  501 -0.00000000000E+00  0.00000000000E+00  0.87234080109E+02  0.87234080109E+02  0.00000000000E+00 0.  1.
          1   -1    0    0  501    0  0.00000000000E+00 -0.00000000000E+00 -0.22171322353E+03  0.22171322353E+03  0.00000000000E+00 0. -1.
         23    2    1    2    0    0  0.21750630216E+01 -0.85425560593E+02 -0.80801789139E+02  0.17173461386E+03  0.12514627907E+03 0.  0.
          5    1    3    3  502    0  0.43836721315E+02 -0.71199339645E+02 -0.93718899862E+02  0.12566506552E+03  0.41800000000E+01 0.  1.
         -5    1    3    3    0  502 -0.41661658293E+02 -0.14226220948E+02  0.12917110723E+02  0.46069548333E+02  0.41800000000E+01 0.  1.
        -11    1    1    2    0    0 -0.25480349755E+02  0.96929963397E+02 -0.40834220347E+02  0.10822245414E+03  0.00000000000E+00 0.  1.
         11    1    1    2    0    0  0.23305286733E+02 -0.11504402804E+02 -0.12843133931E+02  0.28990235645E+02  0.00000000000E+00 0. -1.
</event>
<event>
 7    1  0.1243146E-005  0.1310223E+03  0.7561462E-02  0.1225947E+00
         -2   -1    0    0    0  501 -0.00000000000E+00  0.00000000000E+00  0.48226791532E+02  0.48226791532E+02  0.00000000000E+00 0.  1.
          2   -1    0    0  501    0  0.00000000000E+00 -0.00000000000E+00 -0.52742596390E+03  0.52742596390E+03  0.00000000000E+00 0. -1.
         23    2    1    2    0    0 -0.97492031620E+02 -0.42588644741E+02 -0.16966356860E+03  0.23611796738E+03  0.12508988416E+03 0.  0.
          5    1    3    3  502    0 -0.81596202201E+02  0.55589493152E+00 -0.26813730225E+02  0.85992428512E+02  0.41800000000E+01 0. -1.
         -5    1    3    3    0  502 -0.15895829419E+02 -0.43144539672E+02 -0.14284983837E+03  0.15012553887E+03  0.41800000000E+01 0. -1.
        -11    1    1    2    0    0  0.99440180216E+02  0.82559234463E+01 -0.26571213417E+03  0.28382996311E+03  0.00000000000E+00 0. -1.
         11    1    1    2    0    0 -0.19481485967E+01  0.34332721295E+02 -0.43823469606E+02  0.55704824951E+02  0.00000000000E+00 0.  1.
</event>
<event>
 7    1  0.1243146E-005  0.9425062E+02  0.7561462E-02  0.1292873E+00
         -2   -1    0    0    0  501 -0.00000000000E+00  0.00000000000E+00  0.11973522460E+04  0.11973522460E+04  0.00000000000E+00 0.  1.
          2   -1    0    0  501    0  0.00000000000E+00 -0.00000000000E+00 -0.13815382596E+02  0.13815382596E+02  0.00000000000E+00 0. -1.
         23    2    1    2    0    0 -0.72936358268E-01  0.16352239291E+02  0.10157850637E+04  0.10235886382E+04  0.12508798354E+03 0.  0.
          5    1    3    3  502    0 -0.50295783945E+02  0.31228144732E+02  0.29618658538E+03  0.30207421053E+03  0.41800000000E+01 0.  1.
         -5    1    3    3    0  502  0.50222847587E+02 -0.14875905441E+02  0.71959847829E+03  0.72151442768E+03  0.41800000000E+01 0.  1.
        -11    1    1    2    0    0  0.48966014985E+01 -0.46155599507E+02  0.13628031190E+03  0.14396749454E+03  0.00000000000E+00 0.  1.
         11    1    1    2    0    0 -0.48236651402E+01  0.29803360215E+02  0.31471487874E+02  0.43611495899E+02  0.00000000000E+00 0. -1.
</event>
<event>
 7    1  0.1243146E-005  0.1138530E+03  0.7561462E-02  0.1253597E+00
         -3   -1    0    0    0  501 -0.00000000000E+00  0.00000000000E+00  0.74651340244E+03  0.74651340244E+03  0.00000000000E+00 0.  1.
          3   -1    0    0  501    0  0.00000000000E+00 -0.00000000000E+00 -0.25240038570E+02  0.25240038570E+02  0.00000000000E+00 0. -1.
         23    2    1    2    0    0  0.23579045080E+02 -0.35361160065E+02  0.60163570988E+03  0.61595945614E+03  0.12503655940E+03 0.  0.
          5    1    3    3  502    0  0.72129751134E+02 -0.93496321417E+01  0.41402514577E+03  0.42038602539E+03  0.41800000000E+01 0. -1.
         -5    1    3    3    0  502 -0.48550706054E+02 -0.26011527923E+02  0.18761056412E+03  0.19557343074E+03  0.41800000000E+01 0. -1.
        -11    1    1    2    0    0  0.34765621793E+02  0.12287054994E+02  0.48832835946E+02  0.61190408118E+02  0.00000000000E+00 0. -1.
         11    1    1    2    0    0 -0.58344666873E+02  0.23074105071E+02  0.70804818036E+02  0.94603576753E+02  0.00000000000E+00 0.  1.
</event>
<event>
 7    1  0.1243146E-005  0.1072695E+03  0.7561462E-02  0.1265711E+00
         -4   -1    0    0    0  501 -0.00000000000E+00  0.00000000000E+00  0.11954674917E+04  0.11954674917E+04  0.00000000000E+00 0. -1.
          4   -1    0    0  501    0  0.00000000000E+00 -0.00000000000E+00 -0.13808650174E+02  0.13808650174E+02  0.00000000000E+00 0.  1.
         23    2    1    2    0    0  0.17794433071E+02 -0.64778042191E+02  0.82148031065E+03  0.83366055541E+03  0.12508870557E+03 0.  0.
          5    1    3    3  502    0 -0.34502383523E+02 -0.27545587886E+02  0.63205762323E+03  0.63361146246E+03  0.41800000000E+01 0. -1.
         -5    1    3    3    0  502  0.52296816593E+02 -0.37232454305E+02  0.18942268743E+03  0.20004909295E+03  0.41800000000E+01 0. -1.
        -11    1    1    2    0    0 -0.49254636067E+02  0.25279080188E+02  0.20997761699E+03  0.21715351875E+03  0.00000000000E+00 0. -1.
         11    1    1    2    0    0  0.31460202997E+02  0.39498962003E+02  0.15020091390E+03  0.15846206773E+03  0.00000000000E+00 0.  1.
</event>
<event>
 7    1  0.1243146E-005  0.9063623E+02  0.7561462E-02  0.1301318E+00
          1   -1    0    0  501    0  0.00000000000E+00  0.00000000000E+00  0.85504313684E+02  0.85504313684E+02  0.00000000000E+00 0. -1.
         -1   -1    0    0    0  501 -0.00000000000E+00 -0.00000000000E+00 -0.18959152849E+03  0.18959152849E+03  0.00000000000E+00 0.  1.
         23    2    1    2    0    0 -0.35526480366E+01 -0.68844891307E+02 -0.68235524130E+02  0.15828898791E+03  0.12508827512E+03 0.  0.
          5    1    3    3  502    0  0.19860845029E+02 -0.60588251525E+02  0.19664386342E+02  0.66854692268E+02  0.41800000000E+01 0.  1.
         -5    1    3    3    0  502 -0.23413493065E+02 -0.82566397826E+01 -0.87899910472E+02  0.91434295639E+02  0.41800000000E+01 0.  1.
        -11    1    1    2    0    0  0.31882408176E+02  0.27643428441E+02 -0.49432484387E+02  0.64993981258E+02  0.00000000000E+00 0.  1.
         11    1    1    2    0    0 -0.28329760140E+02  0.41201462866E+02  0.13580793708E+02  0.51812873011E+02  0.00000000000E+00 0. -1.
</event>
<event>
 7    1  0.1243146E-005  0.2192337E+03  0.7561462E-02  0.1134456E+00
          2   -1    0    0  501    0  0.00000000000E+00  0.00000000000E+00  0.70955656959E+03  0.70955656959E+03  0.00000000000E+00 0. -1.
         -2   -1    0    0    0  501 -0.00000000000E+00 -0.00000000000E+00 -0.71006878316E+02  0.71006878316E+02  0.00000000000E+00 0.  1.
         23    2    1    2    0    0 -0.19022969842E+03 -0.27386690676E+02  0.26517040828E+03  0.35057152540E+03  0.12509068714E+03 0.  0.
          5    1    3    3  502    0  0.61981717520E+01 -0.27766227963E+02  0.14875348179E+02  0.32374822498E+02  0.41800000000E+01 0.  1.
         -5    1    3    3    0  502 -0.19642787017E+03  0.37953728666E+00  0.25029506010E+03  0.31819670290E+03  0.41800000000E+01 0.  1.
        -11    1    1    2    0    0  0.83594193990E+02  0.58648845641E+02  0.18196518181E+03  0.20866001954E+03  0.00000000000E+00 0. -1.
         11    1    1    2    0    0  0.10663550443E+03 -0.31262154965E+02  0.19141410119E+03  0.22133190296E+03  0.00000000000E+00 0.  1.
</event>
<event>
 7    1  0.1243146E-005  0.1138045E+03  0.7561462E-02  0.1253683E+00
         -3   -1    0    0    0  501 -0.00000000000E+00  0.00000000000E+00  0.59916317525E+02  0.59916317525E+02  0.00000000000E+00 0.  1.
          3   -1    0    0  501    0  0.00000000000E+00 -0.00000000000E+00 -0.38124855512E+03  0.38124855512E+03  0.00000000000E+00 0. -1.
         23    2    1    2    0    0  0.70752920644E+02  0.87991071728E+01 -0.62331991748E+02  0.15682226630E+03  0.12499818377E+03 0.  0.
          5    1    3    3  502    0  0.65578955368E+02 -0.51343972047E+02 -0.36323786430E+02  0.90959841212E+02  0.41800000000E+01 0. -1.
         -5    1    3    3    0  502  0.51739652763E+01  0.60143079220E+02 -0.26008205318E+02  0.65862425089E+02  0.41800000000E+01 0. -1.
        -11    1    1    2    0    0 -0.19137578225E+02 -0.23243719708E+02 -0.13389153516E+02  0.32951279763E+02  0.00000000000E+00 0.  1.
         11    1    1    2    0    0 -0.51615342420E+02  0.14444612535E+02 -0.24561109233E+03  0.25139132658E+03  0.00000000000E+00 0. -1.
</event>
<event>
 7    1  0.1243146E-005  0.1272023E+03  0.7561462E-02  0.1231667E+00
          1   -1    0    0  501    0  0.00000000000E+00  0.00000000000E+00  0.60775142170E+03  0.60775142170E+03  0.00000000000E+00 0. -1.
         -1   -1    0    0    0  501 -0.00000000000E+00 -0.00000000000E+00 -0.31866262494E+02  0.31866262494E+02  0.00000000000E+00 0.  1.
         23    2    1    2    0    0  0.81347928629E+02  0.33823653774E+02  0.21282754303E+03  0.26212333902E+03  0.12510618186E+03 0.  0.
          5    1    3    3  502    0  0.34421425053E+02  0.78792034647E+02  0.14067430112E+03  0.16492346899E+03  0.41800000000E+01 0. -1.
         -5    1    3    3    0  502  0.46926503576E+02 -0.44968380872E+02  0.72153241906E+02  0.97199870029E+02  0.41800000000E+01 0. -1.
        -11    1    1    2    0    0 -0.65253219819E+02 -0.48584117350E+02  0.27606524929E+03  0.28780274672E+03  0.00000000000E+00 0. -1.
         11    1    1    2    0    0 -0.16094708810E+02  0.14760463576E+02  0.86992366888E+02  0.89691598455E+02  0.00000000000E+00 0.  1.
</event>
<event>
 7    1  0.1243146E-005  0.1060858E+03  0.7561462E-02  0.1267995E+00
          1   -1    0    0  501    0  0.00000000000E+00  0.00000000000E+00  0.24598921837E+03  0.24598921837E+03  0.00000000000E+00 0. -1.
         -1   -1    0    0    0  501 -0.00000000000E+00 -0.00000000000E+00 -0.68461823731E+02  0.68461823731E+02  0.00000000000E+00 0.  1.
         23    2    1    2    0    0  0.59841386781E+02  0.35314771737E+02  0.79529756557E+02  0.16370626410E+03  0.12508650628E+03 0.  0.
          5    1    3    3  502    0  0.59626924692E+02  0.72432681060E+02  0.84113326267E+02  0.12607294511E+03  0.41800000000E+01 0.  1.
         -5    1    3    3    0  502  0.21446208847E+00 -0.37117909324E+02 -0.45835697099E+01  0.37633318985E+02  0.41800000000E+01 0.  1.
        -11    1    1    2    0    0 -0.58086953149E+02 -0.14302767541E+02  0.10492462173E+02  0.60735122029E+02  0.00000000000E+00 0.  1.
         11    1    1    2    0    0 -0.17544336317E+01 -0.21012004196E+02  0.87505175905E+02  0.90009655970E+02  0.00000000000E+00 0. -1.
</event>
<event>
 6    1  0.1243146E-005  0.1001355E+03  0.7561462E-02  0.1280011E+00
          1   -1    0    0  501    0  0.00000000000E+00  0.00000000000E+00  0.49458932773E+02  0.49458932773E+02  0.00000000000E+00 0. -1.
         -1   -1    0    0    0  501 -0.00000000000E+00 -0.00000000000E+00 -0.26580440640E+03  0.26580440640E+03  0.00000000000E+00 0.  1.
          5    1    1    2  502    0 -0.54309645332E+02  0.39754197668E+02 -0.66091642263E+02  0.94421985709E+02  0.41800000000E+01 0. -1.
         -5    1    1    2    0  502  0.56253075826E+02 -0.40243413989E+02 -0.10550517672E+03  0.12622501980E+03  0.41800000000E+01 0.  1.
        -11    1    1    2    0    0 -0.30018445163E+02  0.13118123706E+02  0.78355349954E+01  0.33683643334E+02  0.00000000000E+00 0. -1.
         11    1    1    2    0    0  0.28075014669E+02 -0.12628907385E+02 -0.52584189637E+02  0.60932690324E+02  0.00000000000E+00 0.  1.
</event>
<event>
 7    1  0.1243146E-005  0.6624011E+02  0.7561462E-02  0.1373367E+00
         -1   -1    0    0    0  501 -0.00000000000E+00  0.00000000000E+00  0.62372647634E+02  0.62372647634E+02  0.00000000000E+00 0.  1.
          1   -1    0    0  501    0  0.00000000000E+00 -0.00000000000E+00 -0.21692551986E+03  0.21692551986E+03  0.00000000000E+00 0. -1.
         23    2    1    2    0    0  0.32749106943E+02 -0.22373270948E+02 -0.63347066834E+02  0.14571609595E+03  0.12508901824E+03 0.  0.
          5    1    3    3  502    0  0.12420987593E+02 -0.49823074036E+02  0.20217828852E+02  0.55343045116E+02  0.41800000000E+01 0.  1.
         -5    1    3    3    0  502  0.20328119350E+02  0.27449803088E+02 -0.83564895686E+02  0.90373050833E+02  0.41800000000E+01 0.  1.
        -11    1    1    2    0    0 -0.23819662141E+02  0.15230363228E+01 -0.10456761178E+03  0.10725708078E+03  0.00000000000E+00 0. -1.
         11    1    1    2    0    0 -0.89294448023E+01  0.20850234625E+02  0.13361806394E+02  0.26324990760E+02  0.00000000000E+00 0.  1.
</event>
<event>
 7    1  0.1243146E-005  0.9310083E+02  0.7561462E-02  0.1295512E+00
          3   -1    0    0  501    0  0.00000000000E+00  0.00000000000E+00  0.79016451452E+02  0.79016451452E+02  0.00000000000E+00 0. -1.
         -3   -1    0    0    0  501 -0.00000000000E+00 -0.00000000000E+00 -0.20796106457E+03  0.20796106457E+03  0.00000000000E+00 0.  1.
         23    2    1    2    0    0 -0.44845811816E+02 -0.19368509104E+01 -0.12818080862E+03  0.18522181707E+03  0.12594404945E+03 0.  0.
          5    1    3    3  502    0 -0.54434202879E+00 -0.58397795638E+02 -0.37609611064E+02  0.69588462320E+02  0.41800000000E+01 0. -1.
         -5    1    3    3    0  502 -0.44301469788E+02  0.56460944727E+02 -0.90571197553E+02  0.11563335475E+03  0.41800000000E+01 0.  1.
        -11    1    1    2    0    0  0.80400602774E+00  0.10807476978E+02  0.39786143662E+02  0.41235727371E+02  0.00000000000E+00 0.  1.
         11    1    1    2    0    0  0.44041805789E+02 -0.88706260672E+01 -0.40549948158E+02  0.60519971576E+02  0.00000000000E+00 0. -1.
</event>
<event>
 7    1  0.1243146E-005  0.1242861E+03  0.7561462E-02  0.1236189E+00
          1   -1    0    0  501    0  0.00000000000E+00  0.00000000000E+00  0.28264505788E+03  0.28264505788E+03  0.00000000000E+00 0. -1.
         -1   -1    0    0    0  501 -0.00000000000E+00 -0.00000000000E+00 -0.66299258995E+02  0.66299258995E+02  0.00000000000E+00 0.  1.
         23    2    1    2    0    0 -0.83188996065E+01  0.81293238642E+02  0.13890828680E+03  0.20400925228E+03  0.12508584306E+03 0.  0.
          5    1    3    3  502    0  0.49640684613E+02  0.53221909463E+02  0.33073858000E+02  0.80050744523E+02  0.41800000000E+01 0.  1.
         -5    1    3    3    0  502 -0.57959584219E+02  0.28071329178E+02  0.10583442880E+03  0.12395850775E+03  0.41800000000E+01 0.  1.
        -11    1    1    2    0    0 -0.41681839301E+01 -0.93548850255E+02  0.36659274380E+02  0.10056173994E+03  0.00000000000E+00 0.  1.
         11    1    1    2    0    0  0.12487083537E+02  0.12255611613E+02  0.40778237699E+02  0.44373324657E+02  0.00000000000E+00 0. -1.
</event>
<event>
 6    1  0.1243146E-005  0.1801461E+03  0.7561462E-02  0.1167662E+00
         -1   -1    0    0    0  501 -0.00000000000E+00  0.00000000000E+00  0.15457744694E+03  0.15457744694E+03  0.00000000000E+00 0.  1.
          1   -1    0    0  501    0  0.00000000000E+00 -0.00000000000E+00 -0.45730222807E+03  0.45730222807E+03  0.00000000000E+00 0. -1.
          5    1    1    2  502    0  0.16747980728E+02  0.78076655093E+02  0.27390116138E+01  0.80008958959E+02  0.41800000000E+01 0. -1.
         -5    1    1    2    0  502 -0.13653676839E+03 -0.34749022113E+02  0.45006080206E+02  0.14796216853E+03  0.41800000000E+01 0.  1.
        -11    1    1    2    0    0  0.25083255317E+02  0.13948317837E+02 -0.16847342258E+03  0.17090061259E+03  0.00000000000E+00 0.  1.
         11    1    1    2    0    0  0.94705532348E+02 -0.57275950817E+02 -0.18199645037E+03  0.21300793494E+03  0.00000000000E+00 0. -1.
</event>
<event>
 7    1  0.1243146E-005  0.1104894E+03  0.7561462E-02  0.1259666E+00
         -2   -1    0    0    0  501 -0.00000000000E+00  0.00000000000E+00  0.19673584582E+03  0.19673584582E+03  0.00000000000E+00 0.  1.
          2   -1    0    0  501    0  0.00000000000E+00 -0.00000000000E+00 -0.91467048500E+02  0.91467048500E+02  0.00000000000E+00 0. -1.
         23    2    1    2    0    0  0.34671239170E+00  0.64872150948E+02  0.10633380304E+03  0.17653036467E+03  0.12509027062E+03 0.  0.
          5    1    3    3  502    0  0.50669300198E+02 -0.29222964342E+01  0.17362502090E+02  0.53803779401E+02  0.41800000000E+01 0. -1.
         -5    1    3    3    0  502 -0.50322587806E+02  0.67794447382E+02  0.88971300949E+02  0.12272658527E+03  0.41800000000E+01 0. -1.
        -11    1    1    2    0    0  0.27481456831E+02 -0.37446686557E+02  0.35266220099E+02  0.58319731513E+02  0.00000000000E+00 0.  1.
         11    1    1    2    0    0 -0.27828169223E+02 -0.27425464391E+02 -0.36331225820E+02  0.53352798136E+02  0.00000000000E+00 0. -1.
</event>
<event>
 7    1  0.1280890E-005  0.2274805E+03  0.7561462E-02  0.1128426E+00
          1   -1    0    0  501    0  0.00000000000E+00  0.00000000000E+00  0.60927874112E+03  0.60927874112E+03  0.00000000000E+00 0. -1.
         -1   -1    0    0    0  501 -0.00000000000E+00 -0.00000000000E+00 -0.11506196487E+03  0.11506196487E+03  0.00000000000E+00 0.  1.
         23    2    1    2    0    0 -0.20318835744E+03 -0.97407443238E+02  0.13604108651E+03  0.29142280076E+03  0.12508538279E+03 0.  0.
          5    1    3    3  502    0 -0.64841584308E+02 -0.23611729584E+02 -0.18146499458E+02  0.71475259161E+02  0.41800000000E+01 0.  1.
         -5    1    3    3    0  502 -0.13834677313E+03 -0.73795713653E+02  0.15418758597E+03  0.21994754160E+03  0.41800000000E+01 0.  1.
        -11    1    1    2    0    0  0.15156307492E+03  0.52043681948E+02  0.17506109728E+03  0.23733162092E+03  0.00000000000E+00 0.  1.
         11    1    1    2    0    0  0.51625282521E+02  0.45363761290E+02  0.18311459246E+03  0.19558628430E+03  0.00000000000E+00 0. -1.
</event>
<event>
 7    1  0.1243146E-005  0.9885681E+02  0.7561462E-02  0.1282718E+00
          1   -1    0    0  501    0  0.00000000000E+00  0.00000000000E+00  0.27794881072E+03  0.27794881072E+03  0.00000000000E+00 0. -1.
         -1   -1    0    0    0  501 -0.00000000000E+00 -0.00000000000E+00 -0.12700448975E+03  0.12700448975E+03  0.00000000000E+00 0.  1.
         23    2    1    2    0    0  0.77468264238E+02 -0.22917009915E+02 -0.60182777379E+02  0.16061123488E+03  0.12508989075E+03 0.  0.
          5    1    3    3  502    0  0.67090556498E+01 -0.26531799656E+02  0.33257401298E+02  0.43272103737E+02  0.41800000000E+01 0. -1.
         -5    1    3    3    0  502  0.70759208588E+02  0.36147897415E+01 -0.93440178678E+02  0.11733913114E+03  0.41800000000E+01 0. -1.
        -11    1    1    2    0    0 -0.51072881204E+02  0.42293083542E+02  0.19844041910E+03  0.20922653761E+03  0.00000000000E+00 0.  1.
         11    1    1    2    0    0 -0.26395383034E+02 -0.19376073627E+02  0.12686679248E+02  0.35115527977E+02  0.00000000000E+00 0. -1.
</event>
<event>
 6    1  0.1243146E-005  0.1574561E+03  0.7561462E-02  0.1191599E+00
         -1   -1    0    0    0  501 -0.00000000000E+00  0.00000000000E+00  0.15208960817E+03  0.15208960817E+03  0.00000000000E+00 0.  1.
          1   -1    0    0  501    0  0.00000000000E+00 -0.00000000000E+00 -0.38641986799E+03  0.38641986799E+03  0.00000000000E+00 0. -1.
          5    1    1    2  502    0  0.10407785591E+03 -0.66500003230E+02 -0.15421045193E+03  0.19761777857E+03  0.41800000000E+01 0. -1.
         -5    1    1    2    0  502 -0.62701565039E+02  0.66245022465E+02  0.99481237997E+02  0.13503287886E+03  0.41800000000E+01 0.  1.
        -11    1    1    2    0    0 -0.18050963142E+02  0.45593436020E+02 -0.77022978803E+02  0.91307929240E+02  0.00000000000E+00 0.  1.
         11    1    1    2    0    0 -0.23325327729E+02 -0.45338455255E+02 -0.10257806708E+03  0.11455088950E+03  0.00000000000E+00 0. -1.
</event>
<event>
 6    1  0.1243146E-005  0.1463462E+03  0.7561462E-02  0.1205036E+00
         -1   -1    0    0    0  501 -0.00000000000E+00  0.00000000000E+00  0.50511058959E+03  0.50511058959E+03  0.00000000000E+00 0.  1.
          1   -1    0    0  501    0  0.00000000000E+00 -0.00000000000E+00 -0.18286105874E+03  0.18286105874E+03  0.00000000000E+00 0. -1.
          5    1    1    2  502    0 -0.62442796302E+02  0.46559215364E+02 -0.11865289679E+03  0.14199593537E+03  0.41800000000E+01 0. -1.
         -5    1    1    2    0  502  0.10726712206E+03 -0.76030051114E+02  0.44100709129E+03  0.46020813891E+03  0.41800000000E+01 0.  1.
        -11    1    1    2    0    0 -0.38206080279E+02 -0.12850136290E+02  0.10469032732E+02  0.41646503086E+02  0.00000000000E+00 0. -1.
         11    1    1    2    0    0 -0.66182454815E+01  0.42320972040E+02 -0.10573696383E+02  0.44121070962E+02  0.00000000000E+00 0.  1.
</event>
<event>
 7    1  0.1243146E-005  0.1558929E+03  0.7561462E-02  0.1193413E+00
          1   -1    0    0  501    0  0.00000000000E+00  0.00000000000E+00  0.78661995750E+03  0.78661995750E+03  0.00000000000E+00 0.  1.
         -1   -1    0    0    0  501 -0.00000000000E+00 -0.00000000000E+00 -0.62585604934E+02  0.62585604934E+02  0.00000000000E+00 0. -1.
         23    2    1    2    0    0 -0.38283328025E+02 -0.14756756377E+03  0.14859481958E+03  0.24692104020E+03  0.12509108922E+03 0.  0.
          5    1    3    3  502    0 -0.14221050513E+02 -0.86926104730E+02  0.15793268364E+03  0.18088280991E+03  0.41800000000E+01 0.  1.
         -5    1    3    3    0  502 -0.24062277512E+02 -0.60641459043E+02 -0.93378640519E+01  0.66038230283E+02  0.41800000000E+01 0.  1.
        -11    1    1    2    0    0  0.37240952904E+02  0.59743534490E+02  0.39933293459E+03  0.40549102473E+03  0.00000000000E+00 0.  1.
         11    1    1    2    0    0  0.10423751208E+01  0.87824029282E+02  0.17610659839E+03  0.19679349751E+03  0.00000000000E+00 0. -1.
</event>
<event>
 7    1  0.1243146E-005  0.1066688E+03  0.7561462E-02  0.1266866E+00
          1   -1    0    0  501    0  0.00000000000E+00  0.00000000000E+00  0.11084933932E+02  0.11084933932E+02  0.00000000000E+00 0. -1.
         -1   -1    0    0    0  501 -0.00000000000E+00 -0.00000000000E+00 -0.15699257604E+04  0.15699257604E+04  0.00000000000E+00 0.  1.
         23    2    1    2    0    0 -0.23292683694E+02 -0.26229177646E+02 -0.12029136301E+04  0.12099088845E+04  0.12509112053E+03 0.  0.
          5    1    3    3  502    0 -0.16945870312E+02  0.39415826618E+02 -0.18942300481E+03  0.19426609859E+03  0.41800000000E+01 0.  1.
         -5    1    3    3    0  502 -0.63468133821E+01 -0.65645004264E+02 -0.10134906253E+04  0.10156427859E+04  0.41800000000E+01 0.  1.
        -11    1    1    2    0    0  0.61715486740E+02  0.21877174437E+02 -0.24628761912E+03  0.25484309565E+03  0.00000000000E+00 0.  1.
         11    1    1    2    0    0 -0.38422803046E+02  0.43520032094E+01 -0.10963957722E+03  0.11625871416E+03  0.00000000000E+00 0. -1.
</event>
<event>
 7    1  0.1243146E-005  0.1570348E+03  0.7561462E-02  0.1192086E+00
         -2   -1    0    0    0  501 -0.00000000000E+00  0.00000000000E+00  0.92313822158E+02  0.92313822158E+02  0.00000000000E+00 0.  1.
          2   -1    0    0  501    0  0.00000000000E+00 -0.00000000000E+00 -0.36869314135E+03  0.36869314135E+03  0.00000000000E+00 0. -1.
         23    2    1    2    0    0  0.38699814552E+02  0.14364627934E+03 -0.15770785527E+03  0.25030293636E+03  0.12509141907E+03 0.  0.
          5    1    3    3  502    0 -0.12292026673E+02  0.78689893933E+02 -0.14657896098E+03  0.16687138019E+03  0.41800000000E+01 0. -1.
         -5    1    3    3    0  502  0.50991841225E+02  0.64956385408E+02 -0.11128894293E+02  0.83431556170E+02  0.41800000000E+01 0. -1.
        -11    1    1    2    0    0 -0.33811448812E+02 -0.69152695908E+02 -0.11179671134E+03  0.13573435118E+03  0.00000000000E+00 0. -1.
         11    1    1    2    0    0 -0.48883657407E+01 -0.74493583432E+02 -0.68747525825E+01  0.74969675972E+02  0.00000000000E+00 0.  1.
</event>
<event>
 7    1  0.1243146E-005  0.1264672E+03  0.7561462E-02  0.1232794E+00
          2   -1    0    0  501    0  0.00000000000E+00  0.00000000000E+00  0.12510612958E+03  0.12510612958E+03  0.00000000000E+00 0. -1.
         -2   -1    0    0    0  501 -0.00000000000E+00 -0.00000000000E+00 -0.17287361839E+03  0.17287361839E+03  0.00000000000E+00 0.  1.
         23    2    1    2    0    0  0.21515539490E+02 -0.83475255273E+02 -0.73968293786E+02  0.16896771147E+03  0.12509093633E+03 0.  0.
          5    1    3    3  502    0 -0.47298979961E+02 -0.61467706722E+01 -0.17486468775E+02  0.50972789655E+02  0.41800000000E+01 0.  1.
         -5    1    3    3    0  502  0.68814519451E+02 -0.77328484601E+02 -0.56481825011E+02  0.11799492182E+03  0.41800000000E+01 0.  1.
        -11    1    1    2    0    0  0.57578569205E+01  0.71396376098E+02  0.52848257983E+02  0.89014233739E+02  0.00000000000E+00 0. -1.
         11    1    1    2    0    0 -0.27273396411E+02  0.12078879175E+02 -0.26647453001E+02  0.39997802757E+02  0.00000000000E+00 0.  1.
</event>
<event>
 7    1  0.1243146E-005  0.8302896E+02  0.7561462E-02  0.1320669E+00
          2   -1    0    0  501    0  0.00000000000E+00  0.00000000000E+00  0.45056083840E+03  0.45056083840E+03  0.00000000000E+00 0. -1.
         -2   -1    0    0    0  501 -0.00000000000E+00 -0.00000000000E+00 -0.38488266951E+02  0.38488266951E+02  0.00000000000E+00 0.  1.
         23    2    1    2    0    0  0.45554014397E+02 -0.55493708754E+02  0.19492586151E+03  0.24248849119E+03  0.12509938823E+03 0.  0.
          5    1    3    3  502    0 -0.92975765126E+01 -0.33053859172E+02 -0.40554641068E+01  0.34827025774E+02  0.41800000000E+01 0. -1.
         -5    1    3    3    0  502  0.54851590910E+02 -0.22439849582E+02  0.19898132562E+03  0.20766146542E+03  0.41800000000E+01 0. -1.
        -11    1    1    2    0    0 -0.75252631009E+01  0.13082323237E+02 -0.60124291001E+01  0.16245801603E+02  0.00000000000E+00 0.  1.
         11    1    1    2    0    0 -0.38028751296E+02  0.42411385517E+02  0.22315913904E+03  0.23031481256E+03  0.00000000000E+00 0. -1.
</event>
<event>
 7    1  0.1243146E-005  0.1484232E+03  0.7561462E-02  0.1202424E+00
         -2   -1    0    0    0  501 -0.00000000000E+00  0.00000000000E+00  0.87841624399E+02  0.87841624399E+02  0.00000000000E+00 0.  1.
          2   -1    0    0  501    0  0.00000000000E+00 -0.00000000000E+00 -0.38521127548E+03  0.38521127548E+03  0.00000000000E+00 0. -1.
         23    2    1    2    0    0  0.88564242013E+01  0.13982568441E+03 -0.94655783242E+02  0.21032919642E+03  0.12509594435E+03 0.  0.
          5    1    3    3  502    0 -0.16781314099E+02  0.64040886063E+02 -0.11029274131E+03  0.12870434638E+03  0.41800000000E+01 0. -1.
         -5    1    3    3    0  502  0.25637738301E+02  0.75784798351E+02  0.15636958070E+02  0.81624850040E+02  0.41800000000E+01 0. -1.
        -11    1    1    2    0    0  0.22715967453E+02 -0.73715492948E+02 -0.46204294370E+02  0.89915659905E+02  0.00000000000E+00 0.  1.
         11    1    1    2    0    0 -0.31572391654E+02 -0.66110191466E+02 -0.15650957347E+03  0.17280804356E+03  0.00000000000E+00 0. -1.
</event>
<event>
 7    1  0.1243146E-005  0.1681265E+03  0.7561462E-02  0.1179816E+00
         -1   -1    0    0    0  501 -0.00000000000E+00  0.00000000000E+00  0.50995955298E+02  0.50995955298E+02  0.00000000000E+00 0.  1.
          1   -1    0    0  501    0  0.00000000000E+00 -0.00000000000E+00 -0.70814296308E+03  0.70814296308E+03  0.00000000000E+00 0. -1.
         23    2    1    2    0    0 -0.15425653085E+03 -0.23339031346E+02 -0.34309205167E+03  0.39711243541E+03  0.12508534184E+03 0.  0.
          5    1    3    3  502    0 -0.11752956208E+03  0.24137171947E+02 -0.13577506738E+03  0.18124056487E+03  0.41800000000E+01 0.  1.
         -5    1    3    3    0  502 -0.36726968769E+02 -0.47476203293E+02 -0.20731698429E+03  0.21587187054E+03  0.41800000000E+01 0.  1.
        -11    1    1    2    0    0  0.48399697964E+02  0.83827238629E+01 -0.19898520807E+03  0.20495832224E+03  0.00000000000E+00 0. -1.
         11    1    1    2    0    0  0.10585683289E+03  0.14956307483E+02 -0.11506974805E+03  0.15706816074E+03  0.00000000000E+00 0.  1.
</event>
<event>
 7    1  0.1243146E-005  0.2071451E+03  0.7561462E-02  0.1143847E+00
         -2   -1    0    0    0  501 -0.00000000000E+00  0.00000000000E+00  0.37593629940E+02  0.37593629940E+02  0.00000000000E+00 0.  1.
          2   -1    0    0  501    0  0.00000000000E+00 -0.00000000000E+00 -0.11421931216E+04  0.11421931216E+04  0.00000000000E+00 0. -1.
         23    2    1    2    0    0  0.17413352981E+03 -0.30570191224E+02 -0.56317156800E+03  0.60337956501E+03  0.12509061384E+03 0.  0.
          5    1    3    3  502    0 -0.92634480076E+01 -0.31514289529E+02 -0.83547687780E+02  0.89870186641E+02  0.41800000000E+01 0.  1.
         -5    1    3    3    0  502  0.18339697781E+03  0.94409830557E+00 -0.47962388022E+03  0.51350937837E+03  0.41800000000E+01 0.  1.
        -11    1    1    2    0    0 -0.48698592745E+02  0.51143052584E+02 -0.19072252795E+03  0.20337710646E+03  0.00000000000E+00 0. -1.
         11    1    1    2    0    0 -0.12543493706E+03 -0.20572861360E+02 -0.35070539568E+03  0.37303008004E+03  0.00000000000E+00 0.  1.
</event>
<event>
 7    1  0.1243146E-005  0.3628153E+03  0.7561462E-02  0.1057475E+00
         -1   -1    0    0    0  501 -0.00000000000E+00  0.00000000000E+00  0.18123182291E+03  0.18123182291E+03  0.00000000000E+00 0.  1.
          1   -1    0    0  501    0  0.00000000000E+00 -0.00000000000E+00 -0.79470859201E+03  0.79470859201E+03  0.00000000000E+00 0. -1.
         23    2    1    2    0    0  0.17350828631E+03  0.31458584990E+03 -0.24238654305E+03  0.45107503206E+03  0.12509222966E+03 0.  0.
          5    1    3    3  502    0  0.20218628434E+02  0.28368636631E+02 -0.81420899889E+02  0.88658940997E+02  0.41800000000E+01 0. -1.
         -5    1    3    3    0  502  0.15328965788E+03  0.28621721327E+03 -0.16096564316E+03  0.36241609106E+03  0.41800000000E+01 0. -1.
        -11    1    1    2    0    0  0.18957248736E+01 -0.39763309477E+02 -0.72786760362E+02  0.82961599776E+02  0.00000000000E+00 0. -1.
         11    1    1    2    0    0 -0.17540401119E+03 -0.27482254042E+03 -0.29830346569E+03  0.44190378308E+03  0.00000000000E+00 0.  1.
</event>
<event>
 7    1  0.1243146E-005  0.7806574E+02  0.7561462E-02  0.1334632E+00
         -2   -1    0    0    0  501 -0.00000000000E+00  0.00000000000E+00  0.76531802326E+03  0.76531802326E+03  0.00000000000E+00 0. -1.
          2   -1    0    0  501    0  0.00000000000E+00 -0.00000000000E+00 -0.27237671752E+02  0.27237671752E+02  0.00000000000E+00 0.  1.
         23    2    1    2    0    0 -0.27175746326E+02  0.40756238728E+02  0.62142271027E+03  0.63577745694E+03  0.12508875943E+03 0.  0.
          5    1    3    3  502    0 -0.32494253141E+02  0.54628262902E+02  0.13673913801E+03  0.15084822789E+03  0.41800000000E+01 0. -1.
         -5    1    3    3    0  502  0.53185068147E+01 -0.13872024173E+02  0.48468357226E+03  0.48492922905E+03  0.41800000000E+01 0. -1.
        -11    1    1    2    0    0 -0.10668447861E+02 -0.37530460285E+02  0.11189118808E+03  0.11849889957E+03  0.00000000000E+00 0. -1.
         11    1    1    2    0    0  0.37844194187E+02 -0.32257784428E+01  0.47664531583E+01  0.38279338500E+02  0.00000000000E+00 0.  1.
</event>
<event>
 7    1  0.1243146E-005  0.1590740E+03  0.7561462E-02  0.1189746E+00
         -2   -1    0    0    0  501 -0.00000000000E+00  0.00000000000E+00  0.30702131060E+02  0.30702131060E+02  0.00000000000E+00 0.  1.
          2   -1    0    0  501    0  0.00000000000E+00 -0.00000000000E+00 -0.87595214435E+03  0.87595214435E+03  0.00000000000E+00 0. -1.
         23    2    1    2    0    0 -0.79141795375E+02  0.92341609328E+02 -0.38964829796E+03  0.42692425066E+03  0.12509245824E+03 0.  0.
          5    1    3    3  502    0  0.33155287758E+02  0.33208613436E+02 -0.11818674733E+03  0.12723075398E+03  0.41800000000E+01 0.  1.
         -5    1    3    3    0  502 -0.11229708313E+03  0.59132995892E+02 -0.27146155063E+03  0.29969349668E+03  0.41800000000E+01 0.  1.
        -11    1    1    2    0    0  0.34384233382E+02 -0.93143734180E+02 -0.24366234853E+03  0.26311474838E+03  0.00000000000E+00 0.  1.
         11    1    1    2    0    0  0.44757561993E+02  0.80212485277E+00 -0.21193936680E+03  0.21661527638E+03  0.00000000000E+00 0. -1.
</event>
<event>
 7    1  0.1243146E-005  0.9995917E+02  0.7561462E-02  0.1280382E+00
          2   -1    0    0  501    0  0.00000000000E+00  0.00000000000E+00  0.24928857861E+02  0.24928857861E+02  0.00000000000E+00 0. -1.
         -2   -1    0    0    0  501 -0.00000000000E+00 -0.00000000000E+00 -0.49186121460E+03  0.49186121460E+03  0.00000000000E+00 0.  1.
         23    2    1    2    0    0  0.12054665747E+02  0.22092450315E+02 -0.26883457611E+03  0.29377028615E+03  0.11573919124E+03 0.  0.
          5    1    3    3  502    0  0.26011355590E+02 -0.33347081632E+02 -0.41795059341E+02  0.59606357533E+02  0.41800000000E+01 0. -1.
         -5    1    3    3    0  502 -0.13956689843E+02  0.55439531948E+02 -0.22703951676E+03  0.23416392862E+03  0.41800000000E+01 0.  1.
        -11    1    1    2    0    0 -0.40152429833E+02 -0.47513604050E+02 -0.98965208797E+02  0.11689256924E+03  0.00000000000E+00 0.  1.
         11    1    1    2    0    0  0.28097764086E+02  0.25421153735E+02 -0.99132571831E+02  0.10612721706E+03  0.00000000000E+00 0. -1.
</event>
<event>
 7    1  0.1243146E-005  0.2452515E+03  0.7561462E-02  0.1116343E+00
          2   -1    0    0  501    0  0.00000000000E+00  0.00000000000E+00  0.19091262622E+04  0.19091262622E+04  0.00000000000E+00 0. -1.
         -2   -1    0    0    0  501 -0.00000000000E+00 -0.00000000000E+00 -0.37403351850E+02  0.37403351850E+02  0.00000000000E+00 0.  1.
         23    2    1    2    0    0  0.20137136614E+03 -0.13224619354E+03  0.82459173800E+03  0.86812389812E+03  0.12509230712E+03 0.  0.
          5    1    3    3  502    0  0.12519422675E+03 -0.54557735270E+02  0.63460987240E+03  0.64915121770E+03  0.41800000000E+01 0. -1.
         -5    1    3    3    0  502  0.76177139391E+02 -0.77688458271E+02  0.18998186559E+03  0.21897268042E+03  0.41800000000E+01 0. -1.
        -11    1    1    2    0    0 -0.52804548852E+01  0.16411640435E+02  0.20357057942E+02  0.26676486905E+02  0.00000000000E+00 0.  1.
         11    1    1    2    0    0 -0.19609091125E+03  0.11583455311E+03  0.10267741144E+04  0.10517292290E+04  0.00000000000E+00 0. -1.
</event>
<event>
 7    1  0.1243146E-005  0.9141316E+02  0.7561462E-02  0.1299465E+00
          2   -1    0    0  501    0  0.00000000000E+00  0.00000000000E+00  0.28951139248E+03  0.28951139248E+03  0.00000000000E+00 0. -1.
         -2   -1    0    0    0  501 -0.00000000000E+00 -0.00000000000E+00 -0.42371337670E+02  0.42371337670E+02  0.00000000000E+00 0.  1.
         23    2    1    2    0    0 -0.11520089632E+02  0.49235737936E+01  0.11422354442E+03  0.16985513546E+03  0.12508714921E+03 0.  0.
          5    1    3    3  502    0 -0.65377265502E+01 -0.59412283173E+02  0.66339740490E+02  0.89392364487E+02  0.41800000000E+01 0. -1.
         -5    1    3    3    0  502 -0.49823630815E+01  0.64335856967E+02  0.47883803929E+02  0.80462770970E+02  0.41800000000E+01 0. -1.
        -11    1    1    2    0    0  0.17941692712E+02 -0.28573507870E+02  0.79267776601E+01  0.34658094198E+02  0.00000000000E+00 0.  1.
         11    1    1    2    0    0 -0.64216030804E+01  0.23649934076E+02  0.12498973273E+03  0.12736950049E+03  0.00000000000E+00 0. -1.
</event>
<event>
 7    1  0.1243146E-005  0.2740230E+03  0.7561462E-02  0.1098999E+00
          2   -1    0    0  501    0  0.00000000000E+00  0.00000000000E+00  0.38060434425E+04  0.38060434425E+04  0.00000000000E+00 0. -1.
         -2   -1    0    0    0  501 -0.00000000000E+00 -0.00000000000E+00 -0.23587906587E+02  0.23587906587E+02  0.00000000000E+00 0.  1.
         23    2    1    2    0    0  0.25996813883E+03 -0.33610059196E+02  0.25349379644E+04  0.25515233746E+04  0.12509188083E+03 0.  0.
          5    1    3    3  502    0 -0.32864482217E+01 -0.99606257552E+01  0.41689254121E+03  0.41704541494E+03  0.41800000000E+01 0. -1.
         -5    1    3    3    0  502  0.26325458705E+03 -0.23649433440E+02  0.21180454232E+04  0.21344779597E+04  0.41800000000E+01 0. -1.
        -11    1    1    2    0    0 -0.20357138993E+01  0.13543294061E+02  0.24900637549E+02  0.28418421762E+02  0.00000000000E+00 0.  1.
         11    1    1    2    0    0 -0.25793242493E+03  0.20066765135E+02  0.12226169340E+04  0.12496895527E+04  0.00000000000E+00 0. -1.
</event>
<event>
 7    1  0.1243146E-005  0.1672264E+03  0.7561462E-02  0.1180772E+00
         -2   -1    0    0    0  501 -0.00000000000E+00  0.00000000000E+00  0.74706737836E+02  0.74706737836E+02  0.00000000000E+00 0.  1.
          2   -1    0    0  501    0  0.00000000000E+00 -0.00000000000E+00 -0.40106106390E+03  0.40106106390E+03  0.00000000000E+00 0. -1.
         23    2    1    2    0    0 -0.61227719660E+02 -0.11332227590E+03 -0.11889104235E+03  0.21534385227E+03  0.12508846025E+03 0.  0.
          5    1    3    3  502    0 -0.61839344674E+02 -0.13888811969E+03 -0.11089244433E+03  0.18822492117E+03  0.41800000000E+01 0.  1.
         -5    1    3    3    0  502  0.61162501355E+00  0.25565843785E+02 -0.79985980222E+01  0.27118931098E+02  0.41800000000E+01 0.  1.
        -11    1    1    2    0    0  0.63128898088E+02  0.24671341986E+02 -0.75775756950E+02  0.10166561971E+03  0.00000000000E+00 0.  1.
         11    1    1    2    0    0 -0.19011784281E+01  0.88650933916E+02 -0.13168752677E+03  0.15875832976E+03  0.00000000000E+00 0. -1.
</event>
<event>
 7    1  0.1243146E-005  0.1472286E+03  0.7561462E-02  0.1203920E+00
          1   -1    0    0  501    0  0.00000000000E+00  0.00000000000E+00  0.72496681606E+03  0.72496681606E+03  0.00000000000E+00 0. -1.
         -1   -1    0    0    0  501 -0.00000000000E+00 -0.00000000000E+00 -0.39614269136E+02  0.39614269136E+02  0.00000000000E+00 0.  1.
         23    2    1    2    0    0  0.28397801504E+02  0.10822812181E+03  0.21436089146E+03  0.27224615518E+03  0.12509043027E+03 0.  0.
          5    1    3    3  502    0  0.49998317905E+02  0.11707095745E+03  0.12014947462E+03  0.17509657199E+03  0.41800000000E+01 0.  1.
         -5    1    3    3    0  502 -0.21600516401E+02 -0.88428356445E+01  0.94211416842E+02  0.97149583192E+02  0.41800000000E+01 0.  1.
        -11    1    1    2    0    0 -0.60601184060E+02 -0.59202687510E+02  0.27499191288E+03  0.28774644023E+03  0.00000000000E+00 0.  1.
         11    1    1    2    0    0  0.32203382556E+02 -0.49025434300E+02  0.19599974259E+03  0.20458848978E+03  0.00000000000E+00 0. -1.
</event>
<event>
 7    1  0.1243146E-005  0.1219333E+03  0.7561462E-02  0.1239941E+00
          1   -1    0    0  501    0  0.00000000000E+00  0.00000000000E+00  0.57788989595E+03  0.57788989595E+03  0.00000000000E+00 0. -1.
         -1   -1    0    0    0  501 -0.00000000000E+00 -0.00000000000E+00 -0.30420332728E+02  0.30420332728E+02  0.00000000000E+00 0.  1.
         23    2    1    2    0    0  0.46292523542E+02  0.64763394976E+02  0.30041893693E+03  0.33501615763E+03  0.12508794163E+03 0.  0.
          5    1    3    3  502    0  0.12993317197E+02 -0.28853406924E+02  0.20449136906E+02  0.37907584770E+02  0.41800000000E+01 0.  1.
         -5    1    3    3    0  502  0.33299206345E+02  0.93616801899E+02  0.27996980003E+03  0.29710857286E+03  0.41800000000E+01 0.  1.
        -11    1    1    2    0    0  0.22477574474E+02 -0.10072265478E+02  0.90272791664E+02  0.93572799472E+02  0.00000000000E+00 0. -1.
         11    1    1    2    0    0 -0.68770098016E+02 -0.54691129497E+02  0.15677783462E+03  0.17972127157E+03  0.00000000000E+00 0.  1.
</event>
<event>
 7    1  0.1243146E-005  0.1023491E+03  0.7561462E-02  0.1275432E+00
         -2   -1    0    0    0  501 -0.00000000000E+00  0.00000000000E+00  0.16209819143E+02  0.16209819143E+02  0.00000000000E+00 0.  1.
          2   -1    0    0  501    0  0.00000000000E+00 -0.00000000000E+00 -0.83050044320E+03  0.83050044320E+03  0.00000000000E+00 0. -1.
         23    2    1    2    0    0 -0.39147144752E+02 -0.10473233700E+01 -0.48781707675E+03  0.50512090034E+03  0.12509207713E+03 0.  0.
          5    1    3    3  502    0 -0.71862319070E+02 -0.50018085410E+01 -0.15872726816E+03  0.17435890871E+03  0.41800000000E+01 0.  1.
         -5    1    3    3    0  502  0.32715174318E+02  0.39544851709E+01 -0.32908980859E+03  0.33076199162E+03  0.41800000000E+01 0.  1.
        -11    1    1    2    0    0  0.39475752004E+02 -0.41209041456E+02 -0.21268021593E+03  0.22020307524E+03  0.00000000000E+00 0. -1.
         11    1    1    2    0    0 -0.32860725284E+00  0.42256364826E+02 -0.11379333138E+03  0.12138628678E+03  0.00000000000E+00 0.  1.
</event>
<event>
 7    1  0.1243146E-005  0.1080113E+03  0.7561462E-02  0.1264298E+00
         -1   -1    0    0    0  501 -0.00000000000E+00  0.00000000000E+00  0.87285685939E+02  0.87285685939E+02  0.00000000000E+00 0.  1.
          1   -1    0    0  501    0  0.00000000000E+00 -0.00000000000E+00 -0.16395356146E+03  0.16395356146E+03  0.00000000000E+00 0. -1.
         23    2    1    2    0    0 -0.14804420383E+02 -0.44219568180E+02 -0.31827927379E+02  0.13724481025E+03  0.12509428406E+03 0.  0.
          5    1    3    3  502    0  0.24557223221E+02  0.36124125254E+02 -0.85738289439E+01  0.44710094838E+02  0.41800000000E+01 0. -1.
         -5    1    3    3    0  502 -0.39361643603E+02 -0.80343693433E+02 -0.23254098435E+02  0.92534715408E+02  0.41800000000E+01 0. -1.
        -11    1    1    2    0    0 -0.14356493033E+02 -0.12347561868E+02  0.16860105001E+02  0.25354177505E+02  0.00000000000E+00 0.  1.
         11    1    1    2    0    0  0.29160913416E+02  0.56567130048E+02 -0.61700053147E+02  0.88640259654E+02  0.00000000000E+00 0. -1.
</event>
<event>
 7    1  0.1243146E-005  0.3310554E+03  0.7561462E-02  0.1070671E+00
         -4   -1    0    0    0  501 -0.00000000000E+00  0.00000000000E+00  0.65656329710E+02  0.65656329710E+02  0.00000000000E+00 0.  1.
          4   -1    0    0  501    0  0.00000000000E+00 -0.00000000000E+00 -0.17975765122E+04  0.17975765122E+04  0.00000000000E+00 0. -1.
         23    2    1    2    0    0  0.31738392799E+03 -0.71479889253E+02 -0.87781725764E+03  0.94448980791E+03  0.12512364734E+03 0.  0.
          5    1    3    3  502    0  0.44081674303E+02  0.18204852376E+02 -0.55445694426E+02  0.73255089173E+02  0.41800000000E+01 0.  1.
         -5    1    3    3    0  502  0.27330225369E+03 -0.89684741629E+02 -0.82237156322E+03  0.87123471874E+03  0.41800000000E+01 0.  1.
        -11    1    1    2    0    0 -0.81285315733E+02  0.57619624217E+01 -0.12202585741E+03  0.14673381560E+03  0.00000000000E+00 0.  1.
         11    1    1    2    0    0 -0.23609861226E+03  0.65717926832E+02 -0.73207706744E+03  0.77200921839E+03  0.00000000000E+00 0. -1.
</event>
<event>
 7    1  0.1243146E-005  0.9017507E+02  0.7561462E-02  0.1302428E+00
          1   -1    0    0  501    0  0.00000000000E+00  0.00000000000E+00  0.17614967303E+03  0.17614967303E+03  0.00000000000E+00 0. -1.
         -1   -1    0    0    0  501 -0.00000000000E+00 -0.00000000000E+00 -0.62305407487E+02  0.62305407487E+02  0.00000000000E+00 0.  1.
         23    2    1    2    0    0 -0.58963864396E+01 -0.81247557951E+01  0.58653197874E+02  0.13117942455E+03  0.11690622214E+03 0.  0.
          5    1    3    3  502    0  0.30581446813E+02  0.26519741359E+02  0.68567517741E+02  0.79733922895E+02  0.41800000000E+01 0. -1.
         -5    1    3    3    0  502 -0.36477833253E+02 -0.34644497154E+02 -0.99143198677E+01  0.51445501653E+02  0.41800000000E+01 0.  1.
        -11    1    1    2    0    0 -0.23259302400E+02  0.39816344117E+02  0.15323932338E+02  0.48591761743E+02  0.00000000000E+00 0.  1.
         11    1    1    2    0    0  0.29155688840E+02 -0.31691588322E+02  0.39867135335E+02  0.58683894229E+02  0.00000000000E+00 0. -1.
</event>
<event>
 7    1  0.1243146E-005  0.1140598E+03  0.7561462E-02  0.1253231E+00
          1   -1    0    0  501    0  0.00000000000E+00  0.00000000000E+00  0.35930128782E+03  0.35930128782E+03  0.00000000000E+00 0. -1.
         -1   -1    0    0    0  501 -0.00000000000E+00 -0.00000000000E+00 -0.60652726579E+02  0.60652726579E+02  0.00000000000E+00 0.  1.
         23    2    1    2    0    0 -0.38633677285E+02  0.82145715582E+02  0.10560294287E+03  0.18718658321E+03  0.12508539396E+03 0.  0.
          5    1    3    3  502    0  0.26083977576E+02  0.60592012584E+02  0.98299740094E+02  0.11845706892E+03  0.41800000000E+01 0.  1.
         -5    1    3    3    0  502 -0.64717654861E+02  0.21553702998E+02  0.73032027716E+01  0.68729514289E+02  0.41800000000E+01 0.  1.
        -11    1    1    2    0    0  0.35752912213E+02 -0.50348259755E+02  0.33887487562E+02  0.70438482418E+02  0.00000000000E+00 0.  1.
         11    1    1    2    0    0  0.28807650721E+01 -0.31797455828E+02  0.15915813081E+03  0.16232894877E+03  0.00000000000E+00 0. -1.
</event>
<event>
 7    1  0.1243146E-005  0.2141324E+03  0.7561462E-02  0.1138335E+00
         -3   -1    0    0    0  501 -0.00000000000E+00  0.00000000000E+00  0.20465802597E+03  0.20465802597E+03  0.00000000000E+00 0.  1.
          3   -1    0    0  501    0  0.00000000000E+00 -0.00000000000E+00 -0.27133031935E+03  0.27133031935E+03  0.00000000000E+00 0. -1.
         23    2    1    2    0    0 -0.20139645425E+03 -0.16578919970E+02  0.21178735729E+02  0.23858539149E+03  0.12505621862E+03 0.  0.
          5    1    3    3  502    0 -0.18043015209E+03  0.34851910400E+00 -0.27721838910E+02  0.18259554759E+03  0.41800000000E+01 0. -1.
         -5    1    3    3    0  502 -0.20966302163E+02 -0.16927439074E+02  0.48900574639E+02  0.55989843901E+02  0.41800000000E+01 0. -1.
        -11    1    1    2    0    0  0.74128713402E+02 -0.36495823353E+02 -0.34911546523E+02  0.89698535960E+02  0.00000000000E+00 0. -1.
         11    1    1    2    0    0  0.12726774085E+03  0.53074743323E+02 -0.52939482595E+02  0.14770441787E+03  0.00000000000E+00 0.  1.
</event>
<event>
 7    1  0.1243146E-005  0.1471770E+03  0.7561462E-02  0.1203985E+00
         -2   -1    0    0    0  501 -0.00000000000E+00  0.00000000000E+00  0.88161076190E+02  0.88161076190E+02  0.00000000000E+00 0.  1.
          2   -1    0    0  501    0  0.00000000000E+00 -0.00000000000E+00 -0.27850515359E+03  0.27850515359E+03  0.00000000000E+00 0. -1.
         23    2    1    2    0    0  0.84858314678E+02 -0.64997015766E+02 -0.59325574351E+02  0.17490985596E+03  0.12509351827E+03 0.  0.
          5    1    3    3  502    0  0.10133325831E+03 -0.90809078847E+01 -0.18177625248E+02  0.10343495825E+03  0.41800000000E+01 0.  1.
         -5    1    3    3    0  502 -0.16474943632E+02 -0.55916107881E+02 -0.41147949102E+02  0.71474897716E+02  0.41800000000E+01 0.  1.
        -11    1    1    2    0    0 -0.52542634685E+02 -0.90304289310E+01 -0.80276867352E+02  0.96367279396E+02  0.00000000000E+00 0.  1.
         11    1    1    2    0    0 -0.32315679993E+02  0.74027444697E+02 -0.50741635700E+02  0.95389094425E+02  0.00000000000E+00 0. -1.
</event>
<event>
 7    1  0.1243146E-005  0.1463514E+03  0.7561462E-02  0.1205029E+00
          2   -1    0    0  501    0  0.00000000000E+00  0.00000000000E+00  0.16668179326E+03  0.16668179326E+03  0.00000000000E+00 0. -1.
         -2   -1    0    0    0  501 -0.00000000000E+00 -0.00000000000E+00 -0.16970511990E+03  0.16970511990E+03  0.00000000000E+00 0.  1.
         23    2    1    2    0    0  0.94954633376E+02 -0.72662290461E+02 -0.36482426140E+02  0.17685180412E+03  0.12509757131E+03 0.  0.
          5    1    3    3  502    0  0.89174797646E+02  0.76253004163E+01 -0.35124198826E+02  0.96236539239E+02  0.41800000000E+01 0.  1.
         -5    1    3    3    0  502  0.57798357307E+01 -0.80287590877E+02 -0.13582273138E+01  0.80615264878E+02  0.41800000000E+01 0.  1.
        -11    1    1    2    0    0 -0.40773546287E+02  0.15176979769E+02  0.61827867925E+02  0.75600979120E+02  0.00000000000E+00 0. -1.
         11    1    1    2    0    0 -0.54181087089E+02  0.57485310692E+02 -0.28368768433E+02  0.83934129923E+02  0.00000000000E+00 0.  1.
</event>
<event>
 7    1  0.1243146E-005  0.8429299E+02  0.7561462E-02  0.1317292E+00
         -4   -1    0    0    0  501 -0.00000000000E+00  0.00000000000E+00  0.23551516654E+03  0.23551516654E+03  0.00000000000E+00 0.  1.
          4   -1    0    0  501    0  0.00000000000E+00 -0.00000000000E+00 -0.61532245404E+02  0.61532245404E+02  0.00000000000E+00 0. -1.
         23    2    1    2    0    0 -0.50699421970E+02 -0.11818623131E+02  0.10164533324E+03  0.16938047186E+03  0.12509140353E+03 0.  0.
          5    1    3    3  502    0 -0.33301637691E+02  0.45300273079E+02  0.61993429648E+01  0.56718762920E+02  0.41800000000E+01 0.  1.
         -5    1    3    3    0  502 -0.17397784279E+02 -0.57118896210E+02  0.95445990272E+02  0.11266170894E+03  0.41800000000E+01 0.  1.
        -11    1    1    2    0    0  0.26713590797E+02  0.33914761771E+01 -0.18935596175E+02  0.32919216978E+02  0.00000000000E+00 0. -1.
         11    1    1    2    0    0  0.23985831173E+02  0.84271469543E+01  0.91273184070E+02  0.94747723102E+02  0.00000000000E+00 0.  1.
</event>
<event>
 7    1  0.1243146E-005  0.1041839E+03  0.7561462E-02  0.1271736E+00
         -1   -1    0    0    0  501 -0.00000000000E+00  0.00000000000E+00  0.82871818821E+02  0.82871818821E+02  0.00000000000E+00 0.  1.
          1   -1    0    0  501    0  0.00000000000E+00 -0.00000000000E+00 -0.17992668643E+03  0.17992668643E+03  0.00000000000E+00 0. -1.
         23    2    1    2    0    0  0.19014245687E+02 -0.19032526242E+02  0.52501282327E+00  0.12599699514E+03  0.12309016432E+03 0.  0.
          5    1    3    3  502    0  0.52499944401E+02  0.32641269935E+02 -0.11766180680E+02  0.63068312748E+02  0.41800000000E+01 0. -1.
         -5    1    3    3    0  502 -0.33485698714E+02 -0.51673796176E+02  0.12291193504E+02  0.62928682391E+02  0.41800000000E+01 0.  1.
        -11    1    1    2    0    0  0.69728677181E+01  0.46417006529E+02 -0.20999437212E+02  0.51421160455E+02  0.00000000000E+00 0. -1.
         11    1    1    2    0    0 -0.25987113405E+02 -0.27384480287E+02 -0.76580443222E+02  0.85380349659E+02  0.00000000000E+00 0.  1.
</event>
<event>
 7    1  0.1243146E-005  0.1723181E+03  0.7561462E-02  0.1175452E+00
         -1   -1    0    0    0  501 -0.00000000000E+00  0.00000000000E+00  0.54041082022E+03  0.54041082022E+03  0.00000000000E+00 0.  1.
          1   -1    0    0  501    0  0.00000000000E+00 -0.00000000000E+00 -0.75419524636E+02  0.75419524636E+02  0.00000000000E+00 0. -1.
         23    2    1    2    0    0 -0.14067139619E+03 -0.89788329672E+02  0.19269667123E+03  0.28395471431E+03  0.12509151379E+03 0.  0.
          5    1    3    3  502    0 -0.10905086252E+03 -0.37691608455E+02  0.19058966050E+03  0.22283320905E+03  0.41800000000E+01 0. -1.
         -5    1    3    3    0  502 -0.31620533666E+02 -0.52096721217E+02  0.21070107305E+01  0.61121505259E+02  0.41800000000E+01 0. -1.
        -11    1    1    2    0    0  0.11074000521E+03  0.60370945798E+02  0.25861990759E+03  0.28773643574E+03  0.00000000000E+00 0.  1.
         11    1    1    2    0    0  0.29931390978E+02  0.29417383874E+02  0.13674716762E+02  0.44139194809E+02  0.00000000000E+00 0. -1.
</event>
<event>
 7    1  0.1243146E-005  0.1325115E+03  0.7561462E-02  0.1223776E+00
          3   -1    0    0  501    0  0.00000000000E+00  0.00000000000E+00  0.70641450949E+03  0.70641450949E+03  0.00000000000E+00 0. -1.
         -3   -1    0    0    0  501 -0.00000000000E+00 -0.00000000000E+00 -0.56535061889E+02  0.56535061889E+02  0.00000000000E+00 0.  1.
         23    2    1    2    0    0  0.18801362575E+02 -0.11244183421E+03  0.98027969501E+02  0.19558800250E+03  0.12509407101E+03 0.  0.
          5    1    3    3  502    0 -0.26409943532E+02 -0.78189293583E+02  0.10988610672E+03  0.13748992544E+03  0.41800000000E+01 0.  1.
         -5    1    3    3    0  502  0.45211306107E+02 -0.34252540625E+02 -0.11858137217E+02  0.58098077054E+02  0.41800000000E+01 0.  1.
        -11    1    1    2    0    0 -0.24608194810E+02  0.17033579154E+02  0.70139413588E+02  0.76257743273E+02  0.00000000000E+00 0.  1.
         11    1    1    2    0    0  0.58068322351E+01  0.95408255055E+02  0.48171206451E+03  0.49110382561E+03  0.00000000000E+00 0. -1.
</event>
<event>
 7    1  0.1243146E-005  0.9371127E+02  0.7561462E-02  0.1294105E+00
          1   -1    0    0  501    0  0.00000000000E+00  0.00000000000E+00  0.41466668890E+02  0.41466668890E+02  0.00000000000E+00 0. -1.
         -1   -1    0    0    0  501 -0.00000000000E+00 -0.00000000000E+00 -0.31913661585E+03  0.31913661585E+03  0.00000000000E+00 0.  1.
         23    2    1    2    0    0 -0.97190822767E+01  0.17234829970E+02 -0.20715209973E+03  0.24279966334E+03  0.12509270232E+03 0.  0.
          5    1    3    3  502    0 -0.16962536608E+01  0.58367094864E+02 -0.18730848593E+03  0.19624356382E+03  0.41800000000E+01 0.  1.
         -5    1    3    3    0  502 -0.80228286159E+01 -0.41132264894E+02 -0.19843613796E+02  0.46556099523E+02  0.41800000000E+01 0.  1.
        -11    1    1    2    0    0 -0.26343247282E+02  0.21382229261E+02 -0.51452032587E+02  0.61631794253E+02  0.00000000000E+00 0.  1.
         11    1    1    2    0    0  0.36062329559E+02 -0.38617059231E+02 -0.19065814651E+02  0.56171827148E+02  0.00000000000E+00 0. -1.
</event>
<event>
 7    1  0.1243146E-005  0.1864761E+03  0.7561462E-02  0.1161679E+00
         -2   -1    0    0    0  501 -0.00000000000E+00  0.00000000000E+00  0.10218954722E+03  0.10218954722E+03  0.00000000000E+00 0.  1.
          2   -1    0    0  501    0  0.00000000000E+00 -0.00000000000E+00 -0.41065359284E+03  0.41065359284E+03  0.00000000000E+00 0. -1.
         23    2    1    2    0    0  0.40871862854E+02 -0.16751595857E+03 -0.18944262871E+03  0.28507858082E+03  0.12509669107E+03 0.  0.
          5    1    3    3  502    0 -0.30396090363E+02 -0.54226027863E+02 -0.13118228830E+02  0.63670595527E+02  0.41800000000E+01 0.  1.
         -5    1    3    3    0  502  0.71267953218E+02 -0.11328993071E+03 -0.17632439988E+03  0.22140798529E+03  0.41800000000E+01 0.  1.
        -11    1    1    2    0    0 -0.34185958657E+02  0.60303956977E+02 -0.95150961057E+02  0.11772405186E+03  0.00000000000E+00 0. -1.
         11    1    1    2    0    0 -0.66859041974E+01  0.10721200160E+03 -0.23870455855E+02  0.11004050738E+03  0.00000000000E+00 0.  1.
</event>
<event>
 7    1  0.1243146E-005  0.1759053E+03  0.7561462E-02  0.1171826E+00
         -2   -1    0    0    0  501 -0.00000000000E+00  0.00000000000E+00  0.60898176820E+03  0.60898176820E+03  0.00000000000E+00 0. -1.
          2   -1    0    0  501    0  0.00000000000E+00 -0.00000000000E+00 -0.51478121400E+02  0.51478121400E+02  0.00000000000E+00 0.  1.
         23    2    1    2    0    0 -0.12921625509E+03  0.52562966407E+02  0.29262132748E+03  0.34746895805E+03  0.12509088493E+03 0.  0.
          5    1    3    3  502    0  0.23200775281E+02  0.16601903308E+02  0.65440810409E+02  0.71511336402E+02  0.41800000000E+01 0. -1.
         -5    1    3    3    0  502 -0.15241703037E+03  0.35961063100E+02  0.22718051707E+03  0.27595762164E+03  0.41800000000E+01 0. -1.
        -11    1    1    2    0    0  0.55081337057E+02  0.23697948599E+02  0.85070805845E+02  0.10407972169E+03  0.00000000000E+00 0.  1.
         11    1    1    2    0    0  0.74134918032E+02 -0.76260915007E+02  0.17981151347E+03  0.20891120986E+03  0.00000000000E+00 0. -1.
</event>
<event>
 7    1  0.1243146E-005  0.1191799E+03  0.7561462E-02  0.1244456E+00
         -2   -1    0    0    0  501 -0.00000000000E+00  0.00000000000E+00  0.10617742390E+03  0.10617742390E+03  0.00000000000E+00 0. -1.
          2   -1    0    0  501    0  0.00000000000E+00 -0.00000000000E+00 -0.21804756299E+03  0.21804756299E+03  0.00000000000E+00 0.  1.
         23    2    1    2    0    0 -0.78820418619E+02  0.69612502214E+02 -0.34223536570E+02  0.16696768380E+03  0.12509355748E+03 0.  0.
          5    1    3    3  502    0 -0.68552489780E+02  0.10868714806E+02 -0.68874022911E+02  0.97870711903E+02  0.41800000000E+01 0. -1.
         -5    1    3    3    0  502 -0.10267928839E+02  0.58743787408E+02  0.34650486340E+02  0.69096971896E+02  0.41800000000E+01 0. -1.
        -11    1    1    2    0    0  0.54003333800E+02 -0.63741689048E+02 -0.89990253060E+01  0.84025861737E+02  0.00000000000E+00 0. -1.
         11    1    1    2    0    0  0.24817084819E+02 -0.58708131657E+01 -0.68647577210E+02  0.73231441355E+02  0.00000000000E+00 0.  1.
</event>
<event>
 7    1  0.1243146E-005  0.1068579E+03  0.7561462E-02  0.1266502E+00
          3   -1    0    0  501    0  0.00000000000E+00  0.00000000000E+00  0.28849258806E+03  0.28849258806E+03  0.00000000000E+00 0. -1.
         -3   -1    0    0    0  501 -0.00000000000E+00 -0.00000000000E+00 -0.75428697588E+02  0.75428697588E+02  0.00000000000E+00 0.  1.
         23    2    1    2    0    0 -0.44511741705E+02  0.21048420956E+02 -0.62257344143E+01  0.12123707866E+03  0.11061346346E+03 0.  0.
          5    1    3    3  502    0 -0.16257465359E+01 -0.42411763378E+02  0.75274543876E+01  0.43307455412E+02  0.41800000000E+01 0. -1.
         -5    1    3    3    0  502 -0.42885995169E+02  0.63460184334E+02 -0.13753188802E+02  0.77929623248E+02  0.41800000000E+01 0.  1.
        -11    1    1    2    0    0  0.34346135060E+02 -0.51699337912E+02  0.18694182573E+03  0.19697645733E+03  0.00000000000E+00 0. -1.
         11    1    1    2    0    0  0.10165606645E+02  0.30650916956E+02  0.32347799148E+02  0.45707749654E+02  0.00000000000E+00 0.  1.
</event>
<event>
 6    1  0.1243146E-005  0.1533649E+03  0.7561462E-02  0.1196398E+00
         -1   -1    0    0    0  501 -0.00000000000E+00  0.00000000000E+00  0.91630619808E+02  0.91630619808E+02  0.00000000000E+00 0.  1.
          1   -1    0    0  501    0  0.00000000000E+00 -0.00000000000E+00 -0.32617947693E+03  0.32617947693E+03  0.00000000000E+00 0. -1.
          5    1    1    2  502    0 -0.40021822022E+02 -0.23778074309E+02 -0.65989174264E+02  0.80865237129E+02  0.41800000000E+01 0. -1.
         -5    1    1    2    0  502  0.97981492246E+02 -0.63285003756E+02 -0.38444465065E+01  0.11678020677E+03  0.41800000000E+01 0.  1.
        -11    1    1    2    0    0 -0.34618999983E+02 -0.15613393221E+02 -0.64219827041E+02  0.74608574527E+02  0.00000000000E+00 0. -1.
         11    1    1    2    0    0 -0.23340670241E+02  0.10267647129E+03 -0.10049540932E+03  0.14555607832E+03  0.00000000000E+00 0.  1.
</event>
<event>
 7    1  0.1243146E-005  0.1203575E+03  0.7561462E-02  0.1242508E+00
         -1   -1    0    0    0  501 -0.00000000000E+00  0.00000000000E+00  0.12326576119E+03  0.12326576119E+03  0.00000000000E+00 0.  1.
          1   -1    0    0  501    0  0.00000000000E+00 -0.00000000000E+00 -0.24852554028E+03  0.24852554028E+03  0.00000000000E+00 0. -1.
         23    2    1    2    0    0  0.81853439714E+02  0.79213334460E+01  0.50021124540E+02  0.15784026437E+03  0.12509477623E+03 0.  0.
          5    1    3    3  502    0  0.56556253055E+02 -0.46009416249E+02  0.63326701542E+02  0.96660331426E+02  0.41800000000E+01 0.  1.
         -5    1    3    3    0  502  0.25297186659E+02  0.53930749695E+02 -0.13305577002E+02  0.61179932942E+02  0.41800000000E+01 0.  1.
        -11    1    1    2    0    0 -0.51971207620E+02 -0.38910136745E+02 -0.51410826412E+02  0.82813514811E+02  0.00000000000E+00 0.  1.
         11    1    1    2    0    0 -0.29882232094E+02  0.30988803299E+02 -0.12387007722E+03  0.13113752230E+03  0.00000000000E+00 0. -1.
</event>
<event>
 7    1  0.1243146E-005  0.1198488E+03  0.7561462E-02  0.1243347E+00
         -2   -1    0    0    0  501 -0.00000000000E+00  0.00000000000E+00  0.95443637663E+02  0.95443637663E+02  0.00000000000E+00 0.  1.
          2   -1    0    0  501    0  0.00000000000E+00 -0.00000000000E+00 -0.18613483054E+03  0.18613483054E+03  0.00000000000E+00 0. -1.
         23    2    1    2    0    0 -0.29983397168E+02 -0.67840679405E+02 -0.73940033851E+02  0.16314344264E+03  0.12508913775E+03 0.  0.
          5    1    3    3  502    0 -0.66113757454E+02 -0.57450184018E+02 -0.92074782359E+01  0.88169170484E+02  0.41800000000E+01 0.  1.
         -5    1    3    3    0  502  0.36130360286E+02 -0.10390495387E+02 -0.64732555615E+02  0.74974272156E+02  0.41800000000E+01 0.  1.
        -11    1    1    2    0    0  0.46595793221E+02  0.23887925264E+01  0.63031459728E+01  0.47080823323E+02  0.00000000000E+00 0.  1.
         11    1    1    2    0    0 -0.16612396053E+02  0.65451886879E+02 -0.23054305001E+02  0.71354202242E+02  0.00000000000E+00 0. -1.
</event>
<event>
 7    1  0.1243146E-005  0.1785255E+03  0.7561462E-02  0.1169238E+00
         -1   -1    0    0    0  501 -0.00000000000E+00  0.00000000000E+00  0.66303770945E+02  0.66303770945E+02  0.00000000000E+00 0.  1.
          1   -1    0    0  501    0  0.00000000000E+00 -0.00000000000E+00 -0.63955816740E+03  0.63955816740E+03  0.00000000000E+00 0. -1.
         23    2    1    2    0    0  0.14420668406E+03 -0.47589395598E+02 -0.15023528786E+03  0.24752606942E+03  0.12505276896E+03 0.  0.
          5    1    3    3  502    0  0.67172776137E+02  0.40890629568E+02 -0.69706567526E+02  0.10516987875E+03  0.41800000000E+01 0. -1.
         -5    1    3    3    0  502  0.77033907927E+02 -0.88480025166E+02 -0.80528720333E+02  0.14235619067E+03  0.41800000000E+01 0. -1.
        -11    1    1    2    0    0 -0.71260168035E+02  0.51401114280E+02 -0.32135794379E+03  0.33315313916E+03  0.00000000000E+00 0. -1.
         11    1    1    2    0    0 -0.72946516029E+02 -0.38117186826E+01 -0.10166116481E+03  0.12518272976E+03  0.00000000000E+00 0.  1.
</event>
<event>
 7    1  0.1243146E-005  0.1045916E+03  0.7561462E-02  0.1270926E+00
         -2   -1    0    0    0  501 -0.00000000000E+00  0.00000000000E+00  0.13207526586E+03  0.13207526586E+03  0.00000000000E+00 0.  1.
          2   -1    0    0  501    0  0.00000000000E+00 -0.00000000000E+00 -0.13294670928E+03  0.13294670928E+03  0.00000000000E+00 0. -1.
         23    2    1    2    0    0  0.66498501098E+02  0.25936833742E+02  0.24905234829E+02  0.14616228793E+03  0.12509345985E+03 0.  0.
          5    1    3    3  502    0  0.17849517791E+02 -0.27542767286E+02  0.57819000088E+02  0.66616202881E+02  0.41800000000E+01 0. -1.
         -5    1    3    3    0  502  0.48648983307E+02  0.53479601028E+02 -0.32913765259E+02  0.79546085047E+02  0.41800000000E+01 0. -1.
        -11    1    1    2    0    0 -0.27603611103E+02 -0.50589443407E+02 -0.40585974979E+02  0.70487392455E+02  0.00000000000E+00 0. -1.
         11    1    1    2    0    0 -0.38894889995E+02  0.24652609665E+02  0.14809296730E+02  0.48372294763E+02  0.00000000000E+00 0.  1.
</event>
<event>
 7    1  0.1243146E-005  0.1086248E+03  0.7561462E-02  0.1263138E+00
         -2   -1    0    0    0  501 -0.00000000000E+00  0.00000000000E+00  0.66203203997E+02  0.66203203997E+02  0.00000000000E+00 0.  1.
          2   -1    0    0  501    0  0.00000000000E+00 -0.00000000000E+00 -0.20573959355E+03  0.20573959355E+03  0.00000000000E+00 0. -1.
         23    2    1    2    0    0 -0.32885036629E+02  0.18971677999E+02 -0.51436156436E+02  0.14047857531E+03  0.12508877540E+03 0.  0.
          5    1    3    3  502    0 -0.43807312765E+02 -0.44501955779E+02 -0.41702097921E+02  0.75206662543E+02  0.41800000000E+01 0.  1.
         -5    1    3    3    0  502  0.10922276135E+02  0.63473633778E+02 -0.97340585147E+01  0.65271912766E+02  0.41800000000E+01 0.  1.
        -11    1    1    2    0    0 -0.25676965268E+02 -0.18344118911E+02 -0.57002856109E+02  0.65154730056E+02  0.00000000000E+00 0.  1.
         11    1    1    2    0    0  0.58562001898E+02 -0.62755908868E+00 -0.31097377009E+02  0.66309492182E+02  0.00000000000E+00 0. -1.
</event>
<event>
 7    1  0.1243146E-005  0.9437867E+02  0.7561462E-02  0.1292582E+00
          2   -1    0    0  501    0  0.00000000000E+00  0.00000000000E+00  0.63960376020E+02  0.63960376020E+02  0.00000000000E+00 0. -1.
         -2   -1    0    0    0  501 -0.00000000000E+00 -0.00000000000E+00 -0.19701177645E+03  0.19701177645E+03  0.00000000000E+00 0.  1.
         23    2    1    2    0    0 -0.20432838717E+02 -0.92230436667E+01 -0.10124826367E+03  0.16248779178E+03  0.12509398925E+03 0.  0.
          5    1    3    3  502    0  0.33553444519E+02 -0.22173383969E+02 -0.98805750376E+02  0.10675926800E+03  0.41800000000E+01 0.  1.
         -5    1    3    3    0  502 -0.53986283235E+02  0.12950340302E+02 -0.24425132963E+01  0.55728523780E+02  0.41800000000E+01 0.  1.
        -11    1    1    2    0    0  0.44457172233E+02 -0.24869681023E+02 -0.12102600699E+02  0.52358515457E+02  0.00000000000E+00 0. -1.
         11    1    1    2    0    0 -0.24024333516E+02  0.34092724690E+02 -0.19700536057E+02  0.46125845235E+02  0.00000000000E+00 0.  1.
</event>
<event>
 7    1  0.1243146E-005  0.1416955E+03  0.7561462E-02  0.1211066E+00
         -2   -1    0    0    0  501 -0.00000000000E+00  0.00000000000E+00  0.15108849030E+03  0.15108849030E+03  0.00000000000E+00 0.  1.
          2   -1    0    0  501    0  0.00000000000E+00 -0.00000000000E+00 -0.18937971123E+03  0.18937971123E+03  0.00000000000E+00 0. -1.
         23    2    1    2    0    0  0.46041429537E+02  0.21707396980E+02 -0.88009985035E+00  0.12803240035E+03  0.11747551509E+03 0.  0.
          5    1    3    3  502    0 -0.37840473959E+02 -0.28936058676E+00  0.12750462783E+02  0.40150117063E+02  0.41800000000E+01 0. -1.
         -5    1    3    3    0  502  0.83881903497E+02  0.21996757567E+02 -0.13630562633E+02  0.87882283285E+02  0.41800000000E+01 0.  1.
        -11    1    1    2    0    0 -0.56401266649E+02 -0.80782542837E+02  0.46780265993E+02  0.10906564717E+03  0.00000000000E+00 0.  1.
         11    1    1    2    0    0  0.10359837112E+02  0.59075145858E+02 -0.84191387067E+02  0.10337015401E+03  0.00000000000E+00 0. -1.
</event>
<event>
 7    1  0.1243146E-005  0.9045756E+02  0.7561462E-02  0.1301747E+00
         -2   -1    0    0    0  501 -0.00000000000E+00  0.00000000000E+00  0.47867994531E+03  0.47867994531E+03  0.00000000000E+00 0.  1.
          2   -1    0    0  501    0  0.00000000000E+00 -0.00000000000E+00 -0.32111358914E+02  0.32111358914E+02  0.00000000000E+00 0. -1.
         23    2    1    2    0    0  0.33324098970E+02  0.54993903522E+02  0.30605021953E+03  0.33151867123E+03  0.11001394230E+03 0.  0.
          5    1    3    3  502    0  0.49524999161E+02  0.35354332589E+02  0.65165478542E+02  0.89256183922E+02  0.41800000000E+01 0. -1.
         -5    1    3    3    0  502 -0.16200900192E+02  0.19639570933E+02  0.24088474099E+03  0.24226248730E+03  0.41800000000E+01 0.  1.
        -11    1    1    2    0    0  0.16669131505E+02 -0.37702257775E+02  0.11163257918E+03  0.11900064252E+03  0.00000000000E+00 0. -1.
         11    1    1    2    0    0 -0.49993230474E+02 -0.17291645747E+02  0.28885787690E+02  0.60271990479E+02  0.00000000000E+00 0.  1.
</event>
<event>
 7    1  0.1243146E-005  0.2206158E+03  0.7561462E-02  0.1133425E+00
         -1   -1    0    0    0  501 -0.00000000000E+00  0.00000000000E+00  0.72645608417E+02  0.72645608417E+02  0.00000000000E+00 0.  1.
          1   -1    0    0  501    0  0.00000000000E+00 -0.00000000000E+00 -0.85234854020E+03  0.85234854020E+03  0.00000000000E+00 0. -1.
         23    2    1    2    0    0 -0.27290880939E+02 -0.20098561766E+03 -0.22694863448E+03  0.32908189042E+03  0.12509675144E+03 0.  0.
          5    1    3    3  502    0 -0.76184870407E+02 -0.11528332488E+03 -0.14911442382E+03  0.20333952706E+03  0.41800000000E+01 0.  1.
         -5    1    3    3    0  502  0.48893989468E+02 -0.85702292775E+02 -0.77834210664E+02  0.12574236336E+03  0.41800000000E+01 0.  1.
        -11    1    1    2    0    0 -0.19549846206E+01  0.69600521449E+02 -0.31591206080E+03  0.32349418033E+03  0.00000000000E+00 0. -1.
         11    1    1    2    0    0  0.29245865560E+02  0.13138509621E+03 -0.23684223651E+03  0.27241807787E+03  0.00000000000E+00 0.  1.
</event>
<event>
 7    1  0.1243146E-005  0.1066998E+03  0.7561462E-02  0.1266806E+00
         -2   -1    0    0    0  501 -0.00000000000E+00  0.00000000000E+00  0.89089048132E+03  0.89089048132E+03  0.00000000000E+00 0.  1.
          2   -1    0    0  501    0  0.00000000000E+00 -0.00000000000E+00 -0.26626948016E+02  0.26626948016E+02  0.00000000000E+00 0. -1.
         23    2    1    2    0    0 -0.74455976670E+02 -0.49053814138E+01  0.70043334202E+03  0.71541707507E+03  0.12508784697E+03 0.  0.
          5    1    3    3  502    0 -0.98586894843E+02  0.34684193373E+01  0.66043632541E+03  0.66777617364E+03  0.41800000000E+01 0.  1.
         -5    1    3    3    0  502  0.24130918173E+02 -0.83738007511E+01  0.39997016619E+02  0.47640901432E+02  0.41800000000E+01 0.  1.
        -11    1    1    2    0    0  0.89700469512E+01  0.19698624237E+02  0.11997032293E+03  0.12190724311E+03  0.00000000000E+00 0.  1.
         11    1    1    2    0    0  0.65485929719E+02 -0.14793242823E+02  0.43859868347E+02  0.80193111149E+02  0.00000000000E+00 0. -1.
</event>
<event>
 7    1  0.1243146E-005  0.1354762E+03  0.7561462E-02  0.1219549E+00
          2   -1    0    0  501    0  0.00000000000E+00  0.00000000000E+00  0.15471724448E+03  0.15471724448E+03  0.00000000000E+00 0.  1.
         -2   -1    0    0    0  501 -0.00000000000E+00 -0.00000000000E+00 -0.15985429978E+03  0.15985429978E+03  0.00000000000E+00 0. -1.
         23    2    1    2    0    0  0.69528990170E+01  0.11028700840E+03  0.22250395146E+02  0.16839495826E+03  0.12510081877E+03 0.  0.
          5    1    3    3  502    0  0.57711330847E+02  0.35868469079E+02  0.36265081942E+02  0.77134773938E+02  0.41800000000E+01 0. -1.
         -5    1    3    3    0  502 -0.50758431830E+02  0.74418539317E+02 -0.14014686796E+02  0.91260184319E+02  0.41800000000E+01 0. -1.
        -11    1    1    2    0    0  0.55909206074E+01 -0.75684551071E+02  0.26961293580E+02  0.80537699344E+02  0.00000000000E+00 0.  1.
         11    1    1    2    0    0 -0.12543819624E+02 -0.34602457325E+02 -0.54348744033E+02  0.65638886658E+02  0.00000000000E+00 0. -1.
</event>
<event>
 7    1  0.1243146E-005  0.1198582E+03  0.7561462E-02  0.1243331E+00
         -2   -1    0    0    0  501 -0.00000000000E+00  0.00000000000E+00  0.61010419827E+03  0.61010419827E+03  0.00000000000E+00 0.  1.
          2   -1    0    0  501    0  0.00000000000E+00 -0.00000000000E+00 -0.25060907495E+02  0.25060907495E+02  0.00000000000E+00 0. -1.
         23    2    1    2    0    0 -0.12039608543E+02  0.53865172310E+02  0.38298672415E+03  0.40666028534E+03  0.12508935939E+03 0.  0.
          5    1    3    3  502    0 -0.58367899628E+02  0.64944682718E+02  0.21771752397E+03  0.23461248083E+03  0.41800000000E+01 0.  1.
         -5    1    3    3    0  502  0.46328291084E+02 -0.11079510408E+02  0.16526920019E+03  0.17204780451E+03  0.41800000000E+01 0.  1.
        -11    1    1    2    0    0  0.45268143150E+02 -0.52191056467E+01  0.11172831086E+03  0.12066341324E+03  0.00000000000E+00 0.  1.
         11    1    1    2    0    0 -0.33228534607E+02 -0.48646066663E+02  0.90328255768E+02  0.10784140719E+03  0.00000000000E+00 0. -1.
</event>
<event>
 6    1  0.1243146E-005  0.1281059E+03  0.7561462E-02  0.1230294E+00
          2   -1    0    0  501    0  0.00000000000E+00  0.00000000000E+00  0.44903153055E+03  0.44903153055E+03  0.00000000000E+00 0. -1.
         -2   -1    0    0    0  501 -0.00000000000E+00 -0.00000000000E+00 -0.46298900153E+02  0.46298900153E+02  0.00000000000E+00 0.  1.
          5    1    1    2  502    0 -0.36873609887E+02  0.20366505615E+02  0.93307039781E+02  0.10246040079E+03  0.41800000000E+01 0. -1.
         -5    1    1    2    0  502  0.99671092439E+02 -0.48400558464E+02  0.78244803374E+02  0.13570800412E+03  0.41800000000E+01 0.  1.
        -11    1    1    2    0    0 -0.73978031517E+02  0.12634300118E+01  0.11008015792E+03  0.13263478643E+03  0.00000000000E+00 0. -1.
         11    1    1    2    0    0  0.11180548965E+02  0.26770622837E+02  0.12110062932E+03  0.12452723936E+03  0.00000000000E+00 0.  1.
</event>
<event>
 7    1  0.1243146E-005  0.1092595E+03  0.7561462E-02  0.1261947E+00
          1   -1    0    0  501    0  0.00000000000E+00  0.00000000000E+00  0.14669329616E+03  0.14669329616E+03  0.00000000000E+00 0. -1.
         -1   -1    0    0    0  501 -0.00000000000E+00 -0.00000000000E+00 -0.10571047336E+03  0.10571047336E+03  0.00000000000E+00 0.  1.
         23    2    1    2    0    0  0.34894068064E+02 -0.49300033332E+02  0.13105930198E+02  0.13952588843E+03  0.12509044273E+03 0.  0.
          5    1    3    3  502    0  0.28413017139E+02 -0.85334738715E+02  0.35069394527E+02  0.96626352549E+02  0.41800000000E+01 0. -1.
         -5    1    3    3    0  502  0.64810509252E+01  0.36034705383E+02 -0.21963464329E+02  0.42899535877E+02  0.41800000000E+01 0. -1.
        -11    1    1    2    0    0 -0.38660788787E+02  0.64921763485E+02 -0.55749159818E+01  0.75766560248E+02  0.00000000000E+00 0.  1.
         11    1    1    2    0    0  0.37667207232E+01 -0.15621730153E+02  0.33451808583E+02  0.37111320853E+02  0.00000000000E+00 0. -1.
</event>
<event>
 7    1  0.1243146E-005  0.1748440E+03  0.7561462E-02  0.1172888E+00
         -1   -1    0    0    0  501 -0.00000000000E+00  0.00000000000E+00  0.47154507026E+02  0.47154507026E+02  0.00000000000E+00 0.  1.
          1   -1    0    0  501    0  0.00000000000E+00 -0.00000000000E+00 -0.66399307541E+03  0.66399307541E+03  0.00000000000E+00 0. -1.
         23    2    1    2    0    0 -0.13736148629E+03  0.17808565445E+02 -0.29499144842E+03  0.34907428641E+03  0.12509028689E+03 0.  0.
          5    1    3    3  502    0  0.49623168064E+01  0.40703437586E+02 -0.83132448900E+02  0.92789389908E+02  0.41800000000E+01 0.  1.
         -5    1    3    3    0  502 -0.14232380309E+03 -0.22894872140E+02 -0.21185899952E+03  0.25628489650E+03  0.41800000000E+01 0.  1.
        -11    1    1    2    0    0  0.15005557361E+03 -0.19974192527E+02 -0.30783644990E+03  0.34304361738E+03  0.00000000000E+00 0.  1.
         11    1    1    2    0    0 -0.12694087326E+02  0.21656270821E+01 -0.14010670070E+02  0.19029678649E+02  0.00000000000E+00 0. -1.
</event>
<event>
 7    1  0.1243146E-005  0.7728897E+02  0.7561462E-02  0.1336926E+00
          3   -1    0    0  501    0  0.00000000000E+00  0.00000000000E+00  0.25083523923E+03  0.25083523923E+03  0.00000000000E+00 0. -1.
         -3   -1    0    0    0  501 -0.00000000000E+00 -0.00000000000E+00 -0.47120597661E+02  0.47120597661E+02  0.00000000000E+00 0.  1.
         23    2    1    2    0    0  0.43205829553E+01 -0.69600548166E+01  0.10749464093E+03  0.16513687452E+03  0.12509188502E+03 0.  0.
          5    1    3    3  502    0  0.28263668348E+02  0.13571499691E+02  0.12491915556E+03  0.12886150852E+03  0.41800000000E+01 0. -1.
         -5    1    3    3    0  502 -0.23943085392E+02 -0.20531554508E+02 -0.17424514628E+02  0.36275366003E+02  0.41800000000E+01 0. -1.
        -11    1    1    2    0    0 -0.31995652094E+02 -0.30735761661E+02  0.40462556837E+02  0.60046875885E+02  0.00000000000E+00 0.  1.
         11    1    1    2    0    0  0.27675069138E+02  0.37695816477E+02  0.55757443799E+02  0.72772086481E+02  0.00000000000E+00 0. -1.
</event>
<event>
 7    1  0.1321802E-005  0.1849246E+03  0.7561462E-02  0.1163120E+00
          1   -1    0    0  501    0  0.00000000000E+00  0.00000000000E+00  0.88065614058E+03  0.88065614058E+03  0.00000000000E+00 0. -1.
         -1   -1    0    0    0  501 -0.00000000000E+00 -0.00000000000E+00 -0.44531180088E+02  0.44531180088E+02  0.00000000000E+00 0.  1.
         23    2    1    2    0    0 -0.44514025279E+02 -0.14642194373E+03  0.29248532943E+03  0.35301048119E+03  0.12509135800E+03 0.  0.
          5    1    3    3  502    0  0.24709109798E+02 -0.11548239353E+03  0.14439522919E+03  0.18658557805E+03  0.41800000000E+01 0.  1.
         -5    1    3    3    0  502 -0.69223135076E+02 -0.30939550194E+02  0.14809010025E+03  0.16642490315E+03  0.41800000000E+01 0.  1.
        -11    1    1    2    0    0  0.37546543739E+02  0.96167501838E+01  0.83048971462E+02  0.91648003207E+02  0.00000000000E+00 0.  1.
         11    1    1    2    0    0  0.69674815393E+01  0.13680519354E+03  0.46059065959E+03  0.48052883627E+03  0.00000000000E+00 0. -1.
</event>
<event>
 7    1  0.1243146E-005  0.2764585E+03  0.7561462E-02  0.1097639E+00
          2   -1    0    0  501    0  0.00000000000E+00  0.00000000000E+00  0.22467521537E+04  0.22467521537E+04  0.00000000000E+00 0. -1.
         -2   -1    0    0    0  501 -0.00000000000E+00 -0.00000000000E+00 -0.39822113237E+02  0.39822113237E+02  0.00000000000E+00 0.  1.
         23    2    1    2    0    0  0.26110209992E+03  0.91479628364E+01  0.75851308822E+03  0.81194068297E+03  0.12509027085E+03 0.  0.
          5    1    3    3  502    0  0.89838044807E+02  0.47520152431E+02  0.17314111391E+03  0.20080925504E+03  0.41800000000E+01 0. -1.
         -5    1    3    3    0  502  0.17126405511E+03 -0.38372189594E+02  0.58537197431E+03  0.61113142794E+03  0.41800000000E+01 0. -1.
        -11    1    1    2    0    0 -0.15553749389E+03  0.37863795655E+02  0.77287715964E+03  0.78928111781E+03  0.00000000000E+00 0.  1.
         11    1    1    2    0    0 -0.10556460603E+03 -0.47011758491E+02  0.67553979257E+03  0.68535246613E+03  0.00000000000E+00 0. -1.
</event>
<event>
 7    1  0.1243146E-005  0.1127064E+03  0.7561462E-02  0.1255639E+00
          2   -1    0    0  501    0  0.00000000000E+00  0.00000000000E+00  0.21570732909E+02  0.21570732909E+02  0.00000000000E+00 0. -1.
         -2   -1    0    0    0  501 -0.00000000000E+00 -0.00000000000E+00 -0.95390833448E+03  0.95390833448E+03  0.00000000000E+00 0.  1.
         23    2    1    2    0    0  0.21534110016E+02  0.67870631737E+02 -0.71379833814E+03  0.72816632504E+03  0.12509192158E+03 0.  0.
          5    1    3    3  502    0 -0.44951781080E+02  0.51428009575E+02 -0.24517474264E+03  0.25454592831E+03  0.41800000000E+01 0. -1.
         -5    1    3    3    0  502  0.66485891096E+02  0.16442622162E+02 -0.46862359550E+03  0.47362039673E+03  0.41800000000E+01 0. -1.
        -11    1    1    2    0    0 -0.37728730260E+02 -0.33860419617E+02 -0.19804301123E+03  0.20442851905E+03  0.00000000000E+00 0.  1.
         11    1    1    2    0    0  0.16194620243E+02 -0.34010212120E+02 -0.20496252191E+02  0.42884223289E+02  0.00000000000E+00 0. -1.
</event>
<event>
 7    1  0.1243146E-005  0.1451088E+03  0.7561462E-02  0.1206615E+00
         -2   -1    0    0    0  501 -0.00000000000E+00  0.00000000000E+00  0.42944598121E+02  0.42944598121E+02  0.00000000000E+00 0.  1.
          2   -1    0    0  501    0  0.00000000000E+00 -0.00000000000E+00 -0.66391064840E+03  0.66391064840E+03  0.00000000000E+00 0. -1.
         23    2    1    2    0    0 -0.36554949772E+02  0.11423313122E+03 -0.22895763937E+03  0.28714477900E+03  0.12508017772E+03 0.  0.
          5    1    3    3  502    0 -0.94253927705E+01  0.13236162900E+03 -0.21198890765E+03  0.25013038246E+03  0.41800000000E+01 0. -1.
         -5    1    3    3    0  502 -0.27129557002E+02 -0.18128497781E+02 -0.16968731715E+02  0.37014396536E+02  0.41800000000E+01 0. -1.
        -11    1    1    2    0    0  0.32577534319E+02 -0.46875043958E+02 -0.68155768551E+02  0.88903173594E+02  0.00000000000E+00 0. -1.
         11    1    1    2    0    0  0.39774154529E+01 -0.67358087266E+02 -0.32385264236E+03  0.33080729393E+03  0.00000000000E+00 0.  1.
</event>
<event>
 7    1  0.1243146E-005  0.1587809E+03  0.7561462E-02  0.1190080E+00
         -2   -1    0    0    0  501 -0.00000000000E+00  0.00000000000E+00  0.82134820591E+02  0.82134820591E+02  0.00000000000E+00 0.  1.
          2   -1    0    0  501    0  0.00000000000E+00 -0.00000000000E+00 -0.38958542650E+03  0.38958542650E+03  0.00000000000E+00 0. -1.
         23    2    1    2    0    0  0.12607274473E+03 -0.64463977409E+02 -0.16366526670E+03  0.24996898877E+03  0.12509290339E+03 0.  0.
          5    1    3    3  502    0  0.85777177883E+02 -0.85968679642E+02 -0.57729876189E+02  0.13453084825E+03  0.41800000000E+01 0. -1.
         -5    1    3    3    0  502  0.40295566844E+02  0.21504702234E+02 -0.10593539051E+03  0.11543814052E+03  0.41800000000E+01 0. -1.
        -11    1    1    2    0    0 -0.72736039451E+02  0.90965346375E+01 -0.19909505196E+02  0.75958322616E+02  0.00000000000E+00 0.  1.
         11    1    1    2    0    0 -0.53336705276E+02  0.55367442771E+02 -0.12387583402E+03  0.14579293571E+03  0.00000000000E+00 0. -1.
</event>
<event>
 7    1  0.1243146E-005  0.9892634E+02  0.7561462E-02  0.1282570E+00
          2   -1    0    0  501    0  0.00000000000E+00  0.00000000000E+00  0.68514972264E+03  0.68514972264E+03  0.00000000000E+00 0. -1.
         -2   -1    0    0    0  501 -0.00000000000E+00 -0.00000000000E+00 -0.28612331214E+02  0.28612331214E+02  0.00000000000E+00 0.  1.
         23    2    1    2    0    0 -0.34967033654E+00  0.88490410970E+02  0.34154073208E+03  0.37433760039E+03  0.12509153566E+03 0.  0.
          5    1    3    3  502    0 -0.25921026639E+02  0.58315047370E+02  0.52976727196E+02  0.83045471858E+02  0.41800000000E+01 0.  1.
         -5    1    3    3    0  502  0.25571356302E+02  0.30175363601E+02  0.28856400488E+03  0.29129212853E+03  0.41800000000E+01 0.  1.
        -11    1    1    2    0    0  0.12965766970E+02 -0.16232619248E+02  0.56914156283E+01  0.21540688304E+02  0.00000000000E+00 0.  1.
         11    1    1    2    0    0 -0.12616096633E+02 -0.72257791723E+02  0.30930524373E+03  0.31788376517E+03  0.00000000000E+00 0. -1.
</event>
<event>
 7    1  0.1243146E-005  0.8286615E+02  0.7561462E-02  0.1321109E+00
          1   -1    0    0  501    0  0.00000000000E+00  0.00000000000E+00  0.50539339046E+02  0.50539339046E+02  0.00000000000E+00 0. -1.
         -1   -1    0    0    0  501 -0.00000000000E+00 -0.00000000000E+00 -0.24741470070E+03  0.24741470070E+03  0.00000000000E+00 0.  1.
         23    2    1    2    0    0  0.71368479757E+01 -0.12284393809E+02 -0.14024035733E+03  0.18846023012E+03  0.12509220433E+03 0.  0.
          5    1    3    3  502    0 -0.49253621820E+02 -0.18230317234E+02 -0.11451703277E+03  0.12605509479E+03  0.41800000000E+01 0.  1.
         -5    1    3    3    0  502  0.56390469795E+02  0.59459234247E+01 -0.25723324560E+02  0.62405135330E+02  0.41800000000E+01 0.  1.
        -11    1    1    2    0    0  0.12566223191E+02 -0.16849352662E+02 -0.69063777267E+02  0.72191522915E+02  0.00000000000E+00 0.  1.
         11    1    1    2    0    0 -0.19703071167E+02  0.29133746471E+02  0.12428772943E+02  0.37302286709E+02  0.00000000000E+00 0. -1.
</event>
<event>
 7    1  0.1243146E-005  0.1520074E+03  0.7561462E-02  0.1198028E+00
          1   -1    0    0  501    0  0.00000000000E+00  0.00000000000E+00  0.14198438070E+03  0.14198438070E+03  0.00000000000E+00 0. -1.
         -1   -1    0    0    0  501 -0.00000000000E+00 -0.00000000000E+00 -0.20265936799E+03  0.20265936799E+03  0.00000000000E+00 0.  1.
         23    2    1    2    0    0 -0.95142327745E+02  0.77972681524E+02 -0.76635557968E+02  0.19147734453E+03  0.12513497964E+03 0.  0.
          5    1    3    3  502    0 -0.74303002080E+02  0.11252345326E+03 -0.58740008490E+02  0.14714049289E+03  0.41800000000E+01 0. -1.
         -5    1    3    3    0  502 -0.20839325665E+02 -0.34550771737E+02 -0.17895549479E+02  0.44336851635E+02  0.41800000000E+01 0. -1.
        -11    1    1    2    0    0  0.89343507812E+02 -0.55148303984E+02  0.46309298290E+02  0.11475255522E+03  0.00000000000E+00 0. -1.
         11    1    1    2    0    0  0.57988199329E+01 -0.22824377540E+02 -0.30348727609E+02  0.38413848937E+02  0.00000000000E+00 0.  1.
</event>
<event>
 7    1  0.1243146E-005  0.1534460E+03  0.7561462E-02  0.1196301E+00
          3   -1    0    0  501    0  0.00000000000E+00  0.00000000000E+00  0.42039743786E+03  0.42039743786E+03  0.00000000000E+00 0. -1.
         -3   -1    0    0    0  501 -0.00000000000E+00 -0.00000000000E+00 -0.11740906945E+03  0.11740906945E+03  0.00000000000E+00 0.  1.
         23    2    1    2    0    0 -0.63513529905E+02  0.11353253601E+03 -0.16249571768E+02  0.18120058397E+03  0.12508396314E+03 0.  0.
          5    1    3    3  502    0  0.17130379368E+02  0.65385433150E+02  0.32702131181E+02  0.75203766856E+02  0.41800000000E+01 0.  1.
         -5    1    3    3    0  502 -0.80643909273E+02  0.48147102855E+02 -0.48951702949E+02  0.10599681711E+03  0.41800000000E+01 0.  1.
        -11    1    1    2    0    0  0.17077829369E+02 -0.92699739648E+02  0.12957397804E+03  0.16023204977E+03  0.00000000000E+00 0.  1.
         11    1    1    2    0    0  0.46435700535E+02 -0.20832796358E+02  0.18966396214E+03  0.19637387358E+03  0.00000000000E+00 0. -1.
</event>
<event>
 7    1  0.1243146E-005  0.2107003E+03  0.7561462E-02  0.1141013E+00
         -1   -1    0    0    0  501 -0.00000000000E+00  0.00000000000E+00  0.70653987283E+03  0.70653987283E+03  0.00000000000E+00 0.  1.
          1   -1    0    0  501    0  0.00000000000E+00 -0.00000000000E+00 -0.15080170563E+03  0.15080170563E+03  0.00000000000E+00 0. -1.
         23    2    1    2    0    0 -0.64447068345E+02  0.18070885674E+03  0.59823020357E+03  0.64057560119E+03  0.12509439976E+03 0.  0.
          5    1    3    3  502    0 -0.21563488156E+02 -0.15140022473E+02  0.10015876638E+03  0.10365064006E+03  0.41800000000E+01 0. -1.
         -5    1    3    3    0  502 -0.42883580189E+02  0.19584887921E+03  0.49807143719E+03  0.53692496113E+03  0.41800000000E+01 0. -1.
        -11    1    1    2    0    0  0.52938385918E+02 -0.10476960384E+03  0.18312863124E+02  0.11880447613E+03  0.00000000000E+00 0.  1.
         11    1    1    2    0    0  0.11508682427E+02 -0.75939252905E+02 -0.60804899496E+02  0.97961501140E+02  0.00000000000E+00 0. -1.
</event>
<event>
 7    1  0.1243146E-005  0.5572149E+02  0.7561462E-02  0.1416717E+00
         -1   -1    0    0    0  501 -0.00000000000E+00  0.00000000000E+00  0.96831646305E+02  0.96831646305E+02  0.00000000000E+00 0. -1.
          1   -1    0    0  501    0  0.00000000000E+00 -0.00000000000E+00 -0.15138628638E+03  0.15138628638E+03  0.00000000000E+00 0.  1.
         23    2    1    2    0    0  0.30783456857E+02  0.40357207163E+02 -0.15373798882E+02  0.13586842947E+03  0.12509017167E+03 0.  0.
          5    1    3    3  502    0  0.17637430667E+02  0.12389966581E+02 -0.69783399314E+02  0.73155898274E+02  0.41800000000E+01 0.  1.
         -5    1    3    3    0  502  0.13146026190E+02  0.27967240581E+02  0.54409600432E+02  0.62712531200E+02  0.41800000000E+01 0.  1.
        -11    1    1    2    0    0 -0.19599248395E+02 -0.36585968272E+01 -0.63747724747E+02  0.66792875958E+02  0.00000000000E+00 0.  1.
         11    1    1    2    0    0 -0.11184208462E+02 -0.36698610335E+02  0.24566883552E+02  0.45556627256E+02  0.00000000000E+00 0. -1.
</event>
<event>
 7    1  0.1243146E-005  0.1539244E+03  0.7561462E-02  0.1195732E+00
          1   -1    0    0  501    0  0.00000000000E+00  0.00000000000E+00  0.68459132196E+03  0.68459132196E+03  0.00000000000E+00 0. -1.
         -1   -1    0    0    0  501 -0.00000000000E+00 -0.00000000000E+00 -0.42521021956E+02  0.42521021956E+02  0.00000000000E+00 0.  1.
         23    2    1    2    0    0  0.12528508703E+03 -0.28236686700E+02  0.28233409911E+03  0.33444823453E+03  0.12509762010E+03 0.  0.
          5    1    3    3  502    0 -0.87344501293E+01  0.30906076340E+02  0.59488538533E+02  0.67733557344E+02  0.41800000000E+01 0. -1.
         -5    1    3    3    0  502  0.13401953716E+03 -0.59142763039E+02  0.22284556057E+03  0.26671467719E+03  0.41800000000E+01 0. -1.
        -11    1    1    2    0    0 -0.45251967964E+02  0.15729716576E+02  0.38759159209E+02  0.61623347935E+02  0.00000000000E+00 0.  1.
         11    1    1    2    0    0 -0.80033119064E+02  0.12506970124E+02  0.32097704168E+03  0.33104076144E+03  0.00000000000E+00 0. -1.
</event>
<event>
 7    1  0.1243146E-005  0.1064468E+03  0.7561462E-02  0.1267295E+00
         -2   -1    0    0    0  501 -0.00000000000E+00  0.00000000000E+00  0.11967188693E+03  0.11967188693E+03  0.00000000000E+00 0. -1.
          2   -1    0    0  501    0  0.00000000000E+00 -0.00000000000E+00 -0.11025556230E+03  0.11025556230E+03  0.00000000000E+00 0.  1.
         23    2    1    2    0    0 -0.11245932252E+02  0.32658826903E+02  0.15181707651E+01  0.12978615251E+03  0.12509624524E+03 0.  0.
          5    1    3    3  502    0 -0.35542746146E+02  0.71603290913E+02  0.15675053083E+02  0.81568975489E+02  0.41800000000E+01 0. -1.
         -5    1    3    3    0  502  0.24296813894E+02 -0.38944464011E+02 -0.14156882318E+02  0.48217177016E+02  0.41800000000E+01 0. -1.
        -11    1    1    2    0    0  0.38392436184E+02  0.66672680557E+01 -0.21031844693E+02  0.44280583901E+02  0.00000000000E+00 0.  1.
         11    1    1    2    0    0 -0.27146503932E+02 -0.39326094958E+02  0.28929998554E+02  0.55860712820E+02  0.00000000000E+00 0. -1.
</event>
<event>
 7    1  0.1243146E-005  0.1110671E+03  0.7561462E-02  0.1258606E+00
          1   -1    0    0  501    0  0.00000000000E+00  0.00000000000E+00  0.23927999793E+03  0.23927999793E+03  0.00000000000E+00 0. -1.
         -1   -1    0    0    0  501 -0.00000000000E+00 -0.00000000000E+00 -0.76044323350E+02  0.76044323350E+02  0.00000000000E+00 0.  1.
         23    2    1    2    0    0 -0.39445129861E+02 -0.27522733670E+02 -0.88140762535E-01  0.12175871430E+03  0.11185596811E+03 0.  0.
          5    1    3    3  502    0 -0.93716365730E+01 -0.68346690734E+02 -0.10273302220E+02  0.69872103481E+02  0.41800000000E+01 0. -1.
         -5    1    3    3    0  502 -0.30073493288E+02  0.40823957063E+02  0.10185161457E+02  0.51886610823E+02  0.41800000000E+01 0.  1.
        -11    1    1    2    0    0 -0.57642894584E+01  0.50915940821E+02  0.64259668800E+02  0.82188594689E+02  0.00000000000E+00 0.  1.
         11    1    1    2    0    0  0.45209419319E+02 -0.23393207151E+02  0.99064146545E+02  0.11137701229E+03  0.00000000000E+00 0. -1.
</event>
<event>
 7    1  0.1243146E-005  0.8058446E+02  0.7561462E-02  0.1327401E+00
          3   -1    0    0  501    0  0.00000000000E+00  0.00000000000E+00  0.63150948855E+02  0.63150948855E+02  0.00000000000E+00 0. -1.
         -3   -1    0    0    0  501 -0.00000000000E+00 -0.00000000000E+00 -0.28573582456E+03  0.28573582456E+03  0.00000000000E+00 0.  1.
         23    2    1    2    0    0  0.16521728227E+02 -0.34314883802E+02 -0.18672918998E+03  0.22792932183E+03  0.12503402179E+03 0.  0.
          5    1    3    3  502    0  0.20391766482E+00  0.75018514260E+01  0.17120187292E+02  0.19154439959E+02  0.41800000000E+01 0. -1.
         -5    1    3    3    0  502  0.16317810563E+02 -0.41816735228E+02 -0.20384937727E+03  0.20877488187E+03  0.41800000000E+01 0. -1.
        -11    1    1    2    0    0 -0.59181438604E+02  0.21258523273E+02  0.13016770192E+01  0.62897232451E+02  0.00000000000E+00 0.  1.
         11    1    1    2    0    0  0.42659710376E+02  0.13056360529E+02 -0.37157362746E+02  0.58060219134E+02  0.00000000000E+00 0. -1.
</event>
<event>
 7    1  0.1243146E-005  0.8340555E+02  0.7561462E-02  0.1319656E+00
         -1   -1    0    0    0  501 -0.00000000000E+00  0.00000000000E+00  0.80080525546E+02  0.80080525546E+02  0.00000000000E+00 0.  1.
          1   -1    0    0  501    0  0.00000000000E+00 -0.00000000000E+00 -0.16905294866E+03  0.16905294866E+03  0.00000000000E+00 0. -1.
         23    2    1    2    0    0 -0.12609690459E+02  0.36263870807E+02 -0.41749015638E+02  0.13734509931E+03  0.12508646361E+03 0.  0.
          5    1    3    3  502    0 -0.47737691991E+02  0.61748584644E+02 -0.17562223158E+01  0.78181402258E+02  0.41800000000E+01 0.  1.
         -5    1    3    3    0  502  0.35128001532E+02 -0.25484713837E+02 -0.39992793322E+02  0.59163697050E+02  0.41800000000E+01 0.  1.
        -11    1    1    2    0    0 -0.68471068125E+01 -0.13240710761E+02  0.27463398582E+02  0.31248000813E+02  0.00000000000E+00 0.  1.
         11    1    1    2    0    0  0.19456797271E+02 -0.23023160047E+02 -0.74686806057E+02  0.80540374084E+02  0.00000000000E+00 0. -1.
</event>
<event>
 6    1  0.1243146E-005  0.1094070E+03  0.7561462E-02  0.1261672E+00
         -1   -1    0    0    0  501 -0.00000000000E+00  0.00000000000E+00  0.11641782163E+03  0.11641782163E+03  0.00000000000E+00 0.  1.
          1   -1    0    0  501    0  0.00000000000E+00 -0.00000000000E+00 -0.13336545158E+03  0.13336545158E+03  0.00000000000E+00 0. -1.
          5    1    1    2  502    0  0.54681245484E+02  0.24047096633E+02  0.14038268151E+02  0.61504852141E+02  0.41800000000E+01 0. -1.
         -5    1    1    2    0  502 -0.80016348950E+02 -0.39800652223E+02 -0.23205829330E+02  0.92426678679E+02  0.41800000000E+01 0.  1.
        -11    1    1    2    0    0  0.61254547486E+01 -0.24291759637E+02 -0.35535156833E+02  0.43478249198E+02  0.00000000000E+00 0. -1.
         11    1    1    2    0    0  0.19209648718E+02  0.40045315228E+02  0.27755088058E+02  0.52373493187E+02  0.00000000000E+00 0.  1.
</event>
<event>
 7    1  0.1243146E-005  0.1009340E+03  0.7561462E-02  0.1278344E+00
          2   -1    0    0  501    0  0.00000000000E+00  0.00000000000E+00  0.16029129143E+03  0.16029129143E+03  0.00000000000E+00 0. -1.
         -2   -1    0    0    0  501 -0.00000000000E+00 -0.00000000000E+00 -0.81815368641E+02  0.81815368641E+02  0.00000000000E+00 0.  1.
         23    2    1    2    0    0 -0.39119067032E+02  0.38980321845E+01  0.49091976606E+02  0.14001043520E+03  0.12508958285E+03 0.  0.
          5    1    3    3  502    0 -0.50761341157E+01  0.57998887904E+02 -0.14914120213E+01  0.58389509721E+02  0.41800000000E+01 0. -1.
         -5    1    3    3    0  502 -0.34042932916E+02 -0.54100855719E+02  0.50583388627E+02  0.81620925479E+02  0.41800000000E+01 0. -1.
        -11    1    1    2    0    0  0.58288210107E+02 -0.10379815278E+02 -0.78456102665E+01  0.59722772902E+02  0.00000000000E+00 0.  1.
         11    1    1    2    0    0 -0.19169143075E+02  0.64817830937E+01  0.37229556445E+02  0.42373451965E+02  0.00000000000E+00 0. -1.
</event>
<event>
 7    1  0.1243146E-005  0.8841756E+02  0.7561462E-02  0.1306730E+00
          4   -1    0    0  501    0  0.00000000000E+00  0.00000000000E+00  0.63001423769E+02  0.63001423769E+02  0.00000000000E+00 0. -1.
         -4   -1    0    0    0  501 -0.00000000000E+00 -0.00000000000E+00 -0.24878567089E+03  0.24878567089E+03  0.00000000000E+00 0.  1.
         23    2    1    2    0    0  0.62878301461E+01 -0.14034951988E+02 -0.17803122275E+03  0.21812422193E+03  0.12508614325E+03 0.  0.
          5    1    3    3  502    0 -0.18454920376E+02  0.35028900421E+02 -0.96661668387E+01  0.40969685527E+02  0.41800000000E+01 0. -1.
         -5    1    3    3    0  502  0.24742750522E+02 -0.49063852409E+02 -0.16836505591E+03  0.17715453640E+03  0.41800000000E+01 0. -1.
        -11    1    1    2    0    0  0.23413181280E+02  0.37399747474E+02  0.18294157782E+02  0.47766037911E+02  0.00000000000E+00 0. -1.
         11    1    1    2    0    0 -0.29701011426E+02 -0.23364795487E+02 -0.26047182151E+02  0.45896834813E+02  0.00000000000E+00 0.  1.
</event>
<event>
 7    1  0.1243146E-005  0.1132447E+03  0.7561462E-02  0.1254676E+00
         -1   -1    0    0    0  501 -0.00000000000E+00  0.00000000000E+00  0.21229606722E+03  0.21229606722E+03  0.00000000000E+00 0.  1.
          1   -1    0    0  501    0  0.00000000000E+00 -0.00000000000E+00 -0.69493747884E+02  0.69493747884E+02  0.00000000000E+00 0. -1.
         23    2    1    2    0    0  0.25484886809E+02 -0.73515054759E+02  0.11956512125E+03  0.18972636066E+03  0.12508529481E+03 0.  0.
          5    1    3    3  502    0 -0.34432270060E+02 -0.69018830601E+02  0.10007917479E+03  0.12642188824E+03  0.41800000000E+01 0. -1.
         -5    1    3    3    0  502  0.59917156868E+02 -0.44962241578E+01  0.19485946458E+02  0.63304472419E+02  0.41800000000E+01 0. -1.
        -11    1    1    2    0    0 -0.37229758634E+02  0.46579710236E+02  0.17253222961E+02  0.62075744347E+02  0.00000000000E+00 0. -1.
         11    1    1    2    0    0  0.11744871826E+02  0.26935344523E+02  0.59839751276E+01  0.29987710101E+02  0.00000000000E+00 0.  1.
</event>
<event>
 7    1  0.1243146E-005  0.1904620E+03  0.7561462E-02  0.1158045E+00
          2   -1    0    0  501    0  0.00000000000E+00  0.00000000000E+00  0.31746762647E+03  0.31746762647E+03  0.00000000000E+00 0. -1.
         -2   -1    0    0    0  501 -0.00000000000E+00 -0.00000000000E+00 -0.12920693318E+03  0.12920693318E+03  0.00000000000E+00 0.  1.
         23    2    1    2    0    0 -0.49446793978E+02  0.14899390664E+03  0.24740727156E+02  0.20224819592E+03  0.12509220408E+03 0.  0.
          5    1    3    3  502    0 -0.57931870501E+02  0.71300024797E+01  0.88538751212E+01  0.59184474820E+02  0.41800000000E+01 0.  1.
         -5    1    3    3    0  502  0.84850765230E+01  0.14186390416E+03  0.15886852035E+02  0.14306372110E+03  0.41800000000E+01 0.  1.
        -11    1    1    2    0    0  0.75424396408E+02 -0.11059141439E+03  0.10733111311E+03  0.17157875262E+03  0.00000000000E+00 0.  1.
         11    1    1    2    0    0 -0.25977602430E+02 -0.38402492251E+02  0.56188853027E+02  0.72847611104E+02  0.00000000000E+00 0. -1.
</event>
<event>
 7    1  0.1243146E-005  0.8610918E+02  0.7561462E-02  0.1312557E+00
          1   -1    0    0  501    0  0.00000000000E+00  0.00000000000E+00  0.10931773578E+03  0.10931773578E+03  0.00000000000E+00 0. -1.
         -1   -1    0    0    0  501 -0.00000000000E+00 -0.00000000000E+00 -0.12725299906E+03  0.12725299906E+03  0.00000000000E+00 0.  1.
         23    2    1    2    0    0 -0.23690312606E+02  0.97148123900E+01 -0.57655130558E+02  0.14009326093E+03  0.12508556746E+03 0.  0.
          5    1    3    3  502    0  0.50304136258E+02  0.72652333135E+01 -0.10061274665E+02  0.51980682832E+02  0.41800000000E+01 0.  1.
         -5    1    3    3    0  502 -0.73994448864E+02  0.24495790766E+01 -0.47593855893E+02  0.88112578098E+02  0.41800000000E+01 0.  1.
        -11    1    1    2    0    0 -0.57500520958E+01 -0.15967057638E+02  0.58560357082E+02  0.60969873301E+02  0.00000000000E+00 0. -1.
         11    1    1    2    0    0  0.29440364702E+02  0.62522452479E+01 -0.18840489808E+02  0.35507600603E+02  0.00000000000E+00 0.  1.
</event>
<event>
 7    1  0.1243146E-005  0.9030231E+02  0.7561462E-02  0.1302121E+00
         -1   -1    0    0    0  501 -0.00000000000E+00  0.00000000000E+00  0.88936105722E+02  0.88936105722E+02  0.00000000000E+00 0.  1.
          1   -1    0    0  501    0  0.00000000000E+00 -0.00000000000E+00 -0.15539518763E+03  0.15539518763E+03  0.00000000000E+00 0. -1.
         23    2    1    2    0    0 -0.28692981945E+01 -0.19280295903E+02  0.62993414311E+01  0.12677864331E+03  0.12511266928E+03 0.  0.
          5    1    3    3  502    0 -0.52901866003E+02 -0.16044714588E+02  0.38091700078E+02  0.67264331616E+02  0.41800000000E+01 0.  1.
         -5    1    3    3    0  502  0.50032567809E+02 -0.32355813146E+01 -0.31792358647E+02  0.59514311693E+02  0.41800000000E+01 0.  1.
        -11    1    1    2    0    0 -0.96010569332E+01 -0.26090492822E+02  0.34235500712E+01  0.28010976510E+02  0.00000000000E+00 0.  1.
         11    1    1    2    0    0  0.12470355128E+02  0.45370788725E+02 -0.76181973406E+02  0.89541673530E+02  0.00000000000E+00 0. -1.
</event>
<event>
 7    1  0.1243146E-005  0.1106421E+03  0.7561462E-02  0.1259385E+00
          1   -1    0    0  501    0  0.00000000000E+00  0.00000000000E+00  0.24317805413E+03  0.24317805413E+03  0.00000000000E+00 0. -1.
         -1   -1    0    0    0  501 -0.00000000000E+00 -0.00000000000E+00 -0.72024200745E+02  0.72024200745E+02  0.00000000000E+00 0.  1.
         23    2    1    2    0    0  0.25706092023E+02  0.24903511206E+02  0.71543349473E+01  0.12464420446E+03  0.11918055697E+03 0.  0.
          5    1    3    3  502    0 -0.47915394805E+02  0.11606021712E+02  0.42169648605E+01  0.49657224972E+02  0.41800000000E+01 0. -1.
         -5    1    3    3    0  502  0.73621486827E+02  0.13297489494E+02  0.29373700868E+01  0.74986979487E+02  0.41800000000E+01 0.  1.
        -11    1    1    2    0    0  0.27143706727E+02 -0.33729770848E+02  0.78790810599E+02  0.89902558869E+02  0.00000000000E+00 0.  1.
         11    1    1    2    0    0 -0.52849798750E+02  0.88262596419E+01  0.85208707840E+02  0.10065549155E+03  0.00000000000E+00 0. -1.
</event>
<event>
 7    1  0.1243146E-005  0.2190275E+03  0.7561462E-02  0.1134610E+00
         -2   -1    0    0    0  501 -0.00000000000E+00  0.00000000000E+00  0.24676586739E+02  0.24676586739E+02  0.00000000000E+00 0.  1.
          2   -1    0    0  501    0  0.00000000000E+00 -0.00000000000E+00 -0.19944010293E+04  0.19944010293E+04  0.00000000000E+00 0. -1.
         23    2    1    2    0    0 -0.43263540595E+02 -0.18765170404E+03 -0.99145894299E+03  0.10177063115E+04  0.12510157815E+03 0.  0.
          5    1    3    3  502    0  0.40916875895E+02 -0.51796286679E+02 -0.21436159161E+03  0.22433325747E+03  0.41800000000E+01 0.  1.
         -5    1    3    3    0  502 -0.84180416490E+02 -0.13585541736E+03 -0.77709735138E+03  0.79337305403E+03  0.41800000000E+01 0.  1.
        -11    1    1    2    0    0 -0.27663738677E+02  0.57772746868E+02 -0.23865807540E+03  0.24710453187E+03  0.00000000000E+00 0. -1.
         11    1    1    2    0    0  0.70927279272E+02  0.12987895718E+03 -0.73960742420E+03  0.75426677270E+03  0.00000000000E+00 0.  1.
</event>
<event>
 7    1  0.1243146E-005  0.1351788E+03  0.7561462E-02  0.1219968E+00
          2   -1    0    0  501    0  0.00000000000E+00  0.00000000000E+00  0.92751893389E+02  0.92751893389E+02  0.00000000000E+00 0. -1.
         -2   -1    0    0    0  501 -0.00000000000E+00 -0.00000000000E+00 -0.24897727604E+03  0.24897727604E+03  0.00000000000E+00 0.  1.
         23    2    1    2    0    0  0.39651666258E+02 -0.75213950656E+02 -0.15342970266E+03  0.21544760373E+03  0.12509038046E+03 0.  0.
          5    1    3    3  502    0 -0.28357529622E+02 -0.76717732633E+02 -0.97114817928E+02  0.12703747576E+03  0.41800000000E+01 0.  1.
         -5    1    3    3    0  502  0.68009195880E+02  0.15037819768E+01 -0.56314884731E+02  0.88410127965E+02  0.41800000000E+01 0.  1.
        -11    1    1    2    0    0  0.26529042034E+02  0.13288647776E+02 -0.17521622640E+02  0.34458460367E+02  0.00000000000E+00 0.  1.
         11    1    1    2    0    0 -0.66180708291E+02  0.61925302881E+02  0.14725942647E+02  0.91823105336E+02  0.00000000000E+00 0. -1.
</event>
<event>
 6    1  0.1243146E-005  0.1458405E+03  0.7561462E-02  0.1205679E+00
          1   -1    0    0  501    0  0.00000000000E+00  0.00000000000E+00  0.12024148213E+03  0.12024148213E+03  0.00000000000E+00 0. -1.
         -1   -1    0    0    0  501 -0.00000000000E+00 -0.00000000000E+00 -0.24334065626E+03  0.24334065626E+03  0.00000000000E+00 0.  1.
          5    1    1    2  502    0  0.28503603370E+02 -0.38572117549E+02  0.17675630786E+01  0.48175308370E+02  0.41800000000E+01 0. -1.
         -5    1    1    2    0  502  0.57710571096E+02  0.90366147746E+02 -0.14189207380E+03  0.17789711544E+03  0.41800000000E+01 0.  1.
        -11    1    1    2    0    0 -0.68773247967E+02  0.12252326346E+02  0.12603311089E+02  0.70983960070E+02  0.00000000000E+00 0.  1.
         11    1    1    2    0    0 -0.17440926498E+02 -0.64046356543E+02  0.44220255036E+01  0.66525754510E+02  0.00000000000E+00 0. -1.
</event>
<event>
 7    1  0.1243146E-005  0.1078755E+03  0.7561462E-02  0.1264556E+00
         -1   -1    0    0    0  501 -0.00000000000E+00  0.00000000000E+00  0.12791076627E+03  0.12791076627E+03  0.00000000000E+00 0.  1.
          1   -1    0    0  501    0  0.00000000000E+00 -0.00000000000E+00 -0.13784127142E+03  0.13784127142E+03  0.00000000000E+00 0. -1.
         23    2    1    2    0    0  0.27642827429E+01 -0.43907375130E+02  0.56911217564E+02  0.14430596239E+03  0.12509926157E+03 0.  0.
          5    1    3    3  502    0  0.56069392745E+02 -0.30675853341E+02 -0.14379961072E+01  0.64065006156E+02  0.41800000000E+01 0. -1.
         -5    1    3    3    0  502 -0.53305110002E+02 -0.13231521789E+02  0.58349213671E+02  0.80240956233E+02  0.41800000000E+01 0. -1.
        -11    1    1    2    0    0 -0.42790116714E+02  0.35779324987E+02 -0.19894952544E+02  0.59219619398E+02  0.00000000000E+00 0. -1.
         11    1    1    2    0    0  0.40025833971E+02  0.81280501429E+01 -0.46946770168E+02  0.62226455897E+02  0.00000000000E+00 0.  1.
</event>
<event>
 7    1  0.1243146E-005  0.7148701E+02  0.7561462E-02  0.1355108E+00
          1   -1    0    0  501    0  0.00000000000E+00  0.00000000000E+00  0.36342853861E+03  0.36342853861E+03  0.00000000000E+00 0. -1.
         -1   -1    0    0    0  501 -0.00000000000E+00 -0.00000000000E+00 -0.39137473503E+02  0.39137473503E+02  0.00000000000E+00 0.  1.
         23    2    1    2    0    0 -0.24286860191E+02  0.18075103526E+01  0.10763581114E+03  0.16681699338E+03  0.12509725324E+03 0.  0.
          5    1    3    3  502    0 -0.21494874332E+00  0.32399455135E+02  0.12108950693E+03  0.12541894588E+03  0.41800000000E+01 0.  1.
         -5    1    3    3    0  502 -0.24071911448E+02 -0.30591944783E+02 -0.13453695790E+02  0.41398047499E+02  0.41800000000E+01 0.  1.
        -11    1    1    2    0    0 -0.20457848658E+02  0.12744508113E+02  0.14364960934E+02  0.28058833928E+02  0.00000000000E+00 0.  1.
         11    1    1    2    0    0  0.44744708848E+02 -0.14552018466E+02  0.20229029303E+03  0.20769018480E+03  0.00000000000E+00 0. -1.
</event>
<event>
 7    1  0.1243146E-005  0.1162830E+03  0.7561462E-02  0.1249358E+00
          2   -1    0    0  501    0  0.00000000000E+00  0.00000000000E+00  0.15189279043E+03  0.15189279043E+03  0.00000000000E+00 0. -1.
         -2   -1    0    0    0  501 -0.00000000000E+00 -0.00000000000E+00 -0.97176603804E+02  0.97176603804E+02  0.00000000000E+00 0.  1.
         23    2    1    2    0    0  0.54370907057E+02  0.34788837880E+01  0.41637687057E+02  0.14265129639E+03  0.12508955677E+03 0.  0.
          5    1    3    3  502    0  0.53005447698E+02 -0.50675701159E+02 -0.12019964444E+01  0.73461019385E+02  0.41800000000E+01 0.  1.
         -5    1    3    3    0  502  0.13654593588E+01  0.54154584947E+02  0.42839683501E+02  0.69190277009E+02  0.41800000000E+01 0.  1.
        -11    1    1    2    0    0 -0.22156979120E+02 -0.46222506753E+02  0.13053600417E+02  0.52894691020E+02  0.00000000000E+00 0.  1.
         11    1    1    2    0    0 -0.32213927937E+02  0.42743622965E+02  0.24899148643E-01  0.53523406817E+02  0.00000000000E+00 0. -1.
</event>
<event>
 7    1  0.1243146E-005  0.9757593E+02  0.7561462E-02  0.1285478E+00
         -1   -1    0    0    0  501 -0.00000000000E+00  0.00000000000E+00  0.47619838450E+02  0.47619838450E+02  0.00000000000E+00 0.  1.
          1   -1    0    0  501    0  0.00000000000E+00 -0.00000000000E+00 -0.25627840444E+03  0.25627840444E+03  0.00000000000E+00 0. -1.
         23    2    1    2    0    0 -0.15625909035E+02  0.80659679702E+01 -0.12015365354E+03  0.17433992158E+03  0.12509308105E+03 0.  0.
          5    1    3    3  502    0 -0.21381939368E+02 -0.49606724054E+02 -0.98327124743E+02  0.11226624721E+03  0.41800000000E+01 0.  1.
         -5    1    3    3    0  502  0.57560303330E+01  0.57672692024E+02 -0.21826528797E+02  0.62073674371E+02  0.41800000000E+01 0.  1.
        -11    1    1    2    0    0  0.48932661288E+01  0.36599482633E+02 -0.71690007919E+02  0.80640705712E+02  0.00000000000E+00 0. -1.
         11    1    1    2    0    0  0.10732642907E+02 -0.44665450603E+02 -0.16814904531E+02  0.48917615597E+02  0.00000000000E+00 0.  1.
</event>
<event>
 7    1  0.1729270E-005  0.2612938E+03  0.7561462E-02  0.1106368E+00
         -1   -1    0    0    0  501 -0.00000000000E+00  0.00000000000E+00  0.80926353422E+02  0.80926353422E+02  0.00000000000E+00 0.  1.
          1   -1    0    0  501    0  0.00000000000E+00 -0.00000000000E+00 -0.10039931843E+04  0.10039931843E+04  0.00000000000E+00 0. -1.
         23    2    1    2    0    0  0.14453186064E+03  0.19534134320E+03 -0.27942222594E+03  0.39086057475E+03  0.12509000535E+03 0.  0.
          5    1    3    3  502    0  0.72403586014E+02  0.10598623489E+02 -0.95176572146E+02  0.12012769195E+03  0.41800000000E+01 0. -1.
         -5    1    3    3    0  502  0.72128274629E+02  0.18474271971E+03 -0.18424565379E+03  0.27073288280E+03  0.41800000000E+01 0. -1.
        -11    1    1    2    0    0 -0.10602308508E+03 -0.91056579277E+02 -0.26719663998E+03  0.30153978115E+03  0.00000000000E+00 0.  1.
         11    1    1    2    0    0 -0.38508775561E+02 -0.10428476392E+03 -0.37644796500E+03  0.39251918187E+03  0.00000000000E+00 0. -1.
</event>
<event>
 7    1  0.1243146E-005  0.1090619E+03  0.7561462E-02  0.1262317E+00
          1   -1    0    0  501    0  0.00000000000E+00  0.00000000000E+00  0.75658786004E+03  0.75658786004E+03  0.00000000000E+00 0. -1.
         -1   -1    0    0    0  501 -0.00000000000E+00 -0.00000000000E+00 -0.18492555231E+02  0.18492555231E+02  0.00000000000E+00 0.  1.
         23    2    1    2    0    0  0.30753976808E+02  0.31902070930E+02  0.36988555908E+03  0.39297314705E+03  0.12509603615E+03 0.  0.
          5    1    3    3  502    0 -0.35038700508E+02  0.35489699192E+02  0.70897579983E+02  0.86782305394E+02  0.41800000000E+01 0.  1.
         -5    1    3    3    0  502  0.65792677315E+02 -0.35876282619E+01  0.29898797910E+03  0.30619084165E+03  0.41800000000E+01 0.  1.
        -11    1    1    2    0    0  0.31308472945E+02  0.19320677909E+01  0.10714568223E+03  0.11164296031E+03  0.00000000000E+00 0. -1.
         11    1    1    2    0    0 -0.62062449753E+02 -0.33834138721E+02  0.26106406349E+03  0.27046430792E+03  0.00000000000E+00 0.  1.
</event>
<event>
 7    1  0.1243146E-005  0.7852948E+02  0.7561462E-02  0.1333277E+00
         -1   -1    0    0    0  501 -0.00000000000E+00  0.00000000000E+00  0.20309056999E+02  0.20309056999E+02  0.00000000000E+00 0.  1.
          1   -1    0    0  501    0  0.00000000000E+00 -0.00000000000E+00 -0.58881232006E+03  0.58881232006E+03  0.00000000000E+00 0. -1.
         23    2    1    2    0    0 -0.12248208927E+02 -0.75892660488E+01 -0.29193506260E+03  0.31794168351E+03  0.12511282013E+03 0.  0.
          5    1    3    3  502    0 -0.35383180503E+02  0.10784494740E+02 -0.28485278126E+03  0.28727487566E+03  0.41800000000E+01 0. -1.
         -5    1    3    3    0  502  0.23134971575E+02 -0.18373760789E+02 -0.70822813319E+01  0.30666807858E+02  0.41800000000E+01 0. -1.
        -11    1    1    2    0    0 -0.32946323464E+02 -0.18526492143E+02 -0.94559780384E+02  0.10183439108E+03  0.00000000000E+00 0.  1.
         11    1    1    2    0    0  0.45194532391E+02  0.26115758192E+02 -0.18200842008E+03  0.18934530247E+03  0.00000000000E+00 0. -1.
</event>
<event>
 7    1  0.1243146E-005  0.1496468E+03  0.7561462E-02  0.1200908E+00
          2   -1    0    0  501    0  0.00000000000E+00  0.00000000000E+00  0.33664246874E+03  0.33664246874E+03  0.00000000000E+00 0.  1.
         -2   -1    0    0    0  501 -0.00000000000E+00 -0.00000000000E+00 -0.50239475329E+03  0.50239475329E+03  0.00000000000E+00 0. -1.
         23    2    1    2    0    0 -0.10256849796E+03 -0.14688968048E+02 -0.47426299201E+03  0.50130405498E+03  0.12507720570E+03 0.  0.
          5    1    3    3  502    0 -0.57930114672E+01 -0.56204939559E+02 -0.14989720366E+03  0.16024730350E+03  0.41800000000E+01 0. -1.
         -5    1    3    3    0  502 -0.96775486493E+02  0.41515971510E+02 -0.32436578835E+03  0.34105675148E+03  0.41800000000E+01 0. -1.
        -11    1    1    2    0    0  0.57785347230E+01 -0.30063406951E+02  0.76088950489E+02  0.82016634213E+02  0.00000000000E+00 0. -1.
         11    1    1    2    0    0  0.96789963237E+02  0.44752374999E+02  0.23242175698E+03  0.25571653284E+03  0.00000000000E+00 0.  1.
</event>
<event>
 7    1  0.1243146E-005  0.1168300E+03  0.7561462E-02  0.1248420E+00
         -2   -1    0    0    0  501 -0.00000000000E+00  0.00000000000E+00  0.77872618869E+02  0.77872618869E+02  0.00000000000E+00 0.  1.
          2   -1    0    0  501    0  0.00000000000E+00 -0.00000000000E+00 -0.32695804071E+03  0.32695804071E+03  0.00000000000E+00 0. -1.
         23    2    1    2    0    0 -0.58975605267E+02  0.58588004140E+02 -0.15049991052E+02  0.14013326179E+03  0.11180408125E+03 0.  0.
          5    1    3    3  502    0 -0.47718445267E+02 -0.11398802948E+02 -0.41462418009E+02  0.64370701678E+02  0.41800000000E+01 0. -1.
         -5    1    3    3    0  502 -0.11257160000E+02  0.69986807087E+02  0.26412426957E+02  0.75762560116E+02  0.41800000000E+01 0.  1.
        -11    1    1    2    0    0  0.20690309426E+02 -0.70374710704E+02 -0.19672106921E+03  0.20995206091E+03  0.00000000000E+00 0. -1.
         11    1    1    2    0    0  0.38285295841E+02  0.11786706565E+02 -0.37314361585E+02  0.54745336877E+02  0.00000000000E+00 0.  1.
</event>
<event>
 7    1  0.1243146E-005  0.1168203E+03  0.7561462E-02  0.1248437E+00
         -1   -1    0    0    0  501 -0.00000000000E+00  0.00000000000E+00  0.53212359186E+02  0.53212359186E+02  0.00000000000E+00 0.  1.
          1   -1    0    0  501    0  0.00000000000E+00 -0.00000000000E+00 -0.42054582037E+03  0.42054582037E+03  0.00000000000E+00 0. -1.
         23    2    1    2    0    0  0.87058501777E+02  0.34625348451E+02 -0.12980310540E+03  0.20316187484E+03  0.12509118167E+03 0.  0.
          5    1    3    3  502    0  0.15086429167E+02 -0.16298774510E+02 -0.11053060208E+03  0.11281727169E+03  0.41800000000E+01 0. -1.
         -5    1    3    3    0  502  0.71972072610E+02  0.50924122961E+02 -0.19272503323E+02  0.90344603157E+02  0.41800000000E+01 0. -1.
        -11    1    1    2    0    0 -0.95132141318E+02 -0.85913781326E+01 -0.14112577180E+03  0.17041249824E+03  0.00000000000E+00 0.  1.
         11    1    1    2    0    0  0.80736395410E+01 -0.26033970318E+02 -0.96404583991E+02  0.10018380648E+03  0.00000000000E+00 0. -1.
</event>
<event>
 7    1  0.1243146E-005  0.9670381E+02  0.7561462E-02  0.1287384E+00
          2   -1    0    0  501    0  0.00000000000E+00  0.00000000000E+00  0.22250035131E+03  0.22250035131E+03  0.00000000000E+00 0. -1.
         -2   -1    0    0    0  501 -0.00000000000E+00 -0.00000000000E+00 -0.84420711505E+02  0.84420711505E+02  0.00000000000E+00 0.  1.
         23    2    1    2    0    0 -0.50945679099E+01  0.25211425164E+02 -0.13676538055E+02  0.12843504638E+03  0.12508774066E+03 0.  0.
          5    1    3    3  502    0 -0.22202675520E+01 -0.50601537672E+02  0.19604633737E+01  0.50860210572E+02  0.41800000000E+01 0. -1.
         -5    1    3    3    0  502 -0.28743003580E+01  0.75812962836E+02 -0.15637001429E+02  0.77574835806E+02  0.41800000000E+01 0. -1.
        -11    1    1    2    0    0 -0.19356425925E+02  0.11484409368E+02  0.12477913592E+03  0.12679272709E+03  0.00000000000E+00 0. -1.
         11    1    1    2    0    0  0.24450993835E+02 -0.36695834532E+02  0.26977041947E+02  0.51693289349E+02  0.00000000000E+00 0.  1.
</event>
<event>
 7    1  0.1243146E-005  0.7428280E+02  0.7561462E-02  0.1346106E+00
          4   -1    0    0  501    0  0.00000000000E+00  0.00000000000E+00  0.17189710151E+03  0.17189710151E+03  0.00000000000E+00 0. -1.
         -4   -1    0    0    0  501 -0.00000000000E+00 -0.00000000000E+00 -0.28390724601E+03  0.28390724601E+03  0.00000000000E+00 0.  1.
         23    2    1    2    0    0  0.31517408283E+02 -0.12937794534E+02 -0.25758205734E+03  0.28225756621E+03  0.11027277030E+03 0.  0.
          5    1    3    3  502    0 -0.15770282846E+02  0.49824564563E+01  0.25274766138E+01  0.17244919003E+02  0.41800000000E+01 0. -1.
         -5    1    3    3    0  502  0.47287691129E+02 -0.17920250991E+02 -0.26010953395E+03  0.26501264721E+03  0.41800000000E+01 0.  1.
        -11    1    1    2    0    0  0.21743803154E+02  0.16632640532E+02  0.98948000407E+02  0.10266520584E+03  0.00000000000E+00 0.  1.
         11    1    1    2    0    0 -0.53261211437E+02 -0.36948459975E+01  0.46623912430E+02  0.70881575469E+02  0.00000000000E+00 0. -1.
</event>
<event>
 7    1  0.1243146E-005  0.1167326E+03  0.7561462E-02  0.1248587E+00
          1   -1    0    0  501    0  0.00000000000E+00  0.00000000000E+00  0.17943817438E+03  0.17943817438E+03  0.00000000000E+00 0. -1.
         -1   -1    0    0    0  501 -0.00000000000E+00 -0.00000000000E+00 -0.12052153676E+03  0.12052153676E+03  0.00000000000E+00 0.  1.
         23    2    1    2    0    0  0.16769514447E+02  0.87231022587E+02 -0.14256702330E+02  0.15407877129E+03  0.12508615545E+03 0.  0.
          5    1    3    3  502    0 -0.11030053999E+02  0.97675404672E+02  0.27972386893E+02  0.10228427835E+03  0.41800000000E+01 0.  1.
         -5    1    3    3    0  502  0.27799568446E+02 -0.10444382084E+02 -0.42229089223E+02  0.51794492945E+02  0.41800000000E+01 0.  1.
        -11    1    1    2    0    0 -0.30759817104E+02 -0.85656414691E+02  0.87174025963E+02  0.12602578517E+03  0.00000000000E+00 0. -1.
         11    1    1    2    0    0  0.13990302657E+02 -0.15746078961E+01 -0.14000686007E+02  0.19855154674E+02  0.00000000000E+00 0.  1.
</event>
<event>
 7    1  0.1243146E-005  0.1007499E+03  0.7561462E-02  0.1278727E+00
          1   -1    0    0  501    0  0.00000000000E+00  0.00000000000E+00  0.22255132773E+03  0.22255132773E+03  0.00000000000E+00 0. -1.
         -1   -1    0    0    0  501 -0.00000000000E+00 -0.00000000000E+00 -0.59966003635E+02  0.59966003635E+02  0.00000000000E+00 0.  1.
         23    2    1    2    0    0 -0.37047040931E+02 -0.11275731349E+02  0.86106814510E+02  0.15671997388E+03  0.12508853404E+03 0.  0.
          5    1    3    3  502    0 -0.32091274455E+02 -0.58088789614E+02  0.10156689894E+02  0.67266545359E+02  0.41800000000E+01 0. -1.
         -5    1    3    3    0  502 -0.49557664765E+01  0.46813058265E+02  0.75950124616E+02  0.89453428524E+02  0.41800000000E+01 0. -1.
        -11    1    1    2    0    0  0.33948962988E+02  0.43607718235E+02  0.75159523150E+02  0.93290509151E+02  0.00000000000E+00 0. -1.
         11    1    1    2    0    0  0.30980779432E+01 -0.32331986885E+02  0.13189864312E+01  0.32506848326E+02  0.00000000000E+00 0.  1.
</event>
<event>
 7    1  0.1243146E-005  0.1044263E+03  0.7561462E-02  0.1271254E+00
          2   -1    0    0  501    0  0.00000000000E+00  0.00000000000E+00  0.41508855244E+03  0.41508855244E+03  0.00000000000E+00 0. -1.
         -2   -1    0    0    0  501 -0.00000000000E+00 -0.00000000000E+00 -0.30985418189E+02  0.30985418189E+02  0.00000000000E+00 0.  1.
         23    2    1    2    0    0 -0.11922021485E+02 -0.24240371096E+02  0.17390624408E+03  0.21592283705E+03  0.12509820000E+03 0.  0.
          5    1    3    3  502    0 -0.43060901387E+02 -0.55889759283E+02  0.14883156062E+03  0.16476107628E+03  0.41800000000E+01 0. -1.
         -5    1    3    3    0  502  0.31138879901E+02  0.31649388187E+02  0.25074683455E+02  0.51161760764E+02  0.41800000000E+01 0. -1.
        -11    1    1    2    0    0  0.50993261129E+02  0.98123624562E+01  0.10994054449E+03  0.12158749303E+03  0.00000000000E+00 0. -1.
         11    1    1    2    0    0 -0.39071239644E+02  0.14428008640E+02  0.10025634568E+03  0.10856364055E+03  0.00000000000E+00 0.  1.
</event>
<event>
 7    1  0.1243146E-005  0.1054374E+03  0.7561462E-02  0.1269260E+00
          2   -1    0    0  501    0  0.00000000000E+00  0.00000000000E+00  0.39120088843E+03  0.39120088843E+03  0.00000000000E+00 0. -1.
         -2   -1    0    0    0  501 -0.00000000000E+00 -0.00000000000E+00 -0.50286176434E+02  0.50286176434E+02  0.00000000000E+00 0.  1.
         23    2    1    2    0    0  0.40698508797E+02  0.77360978003E+02  0.19516115652E+03  0.24774434476E+03  0.12509314055E+03 0.  0.
          5    1    3    3  502    0 -0.13872921658E+02  0.65783462957E+02  0.30694831984E+02  0.74024097863E+02  0.41800000000E+01 0.  1.
         -5    1    3    3    0  502  0.54571430455E+02  0.11577515046E+02  0.16446632454E+03  0.17372024690E+03  0.41800000000E+01 0.  1.
        -11    1    1    2    0    0 -0.24052179006E+02 -0.51135254942E+02  0.13783453922E+02  0.58166186182E+02  0.00000000000E+00 0.  1.
         11    1    1    2    0    0 -0.16646329790E+02 -0.26225723061E+02  0.13197010155E+03  0.13557653391E+03  0.00000000000E+00 0. -1.
</event>
<event>
 7    1  0.1243146E-005  0.8083441E+02  0.7561462E-02  0.1326700E+00
         -1   -1    0    0    0  501 -0.00000000000E+00  0.00000000000E+00  0.20924928425E+03  0.20924928425E+03  0.00000000000E+00 0.  1.
          1   -1    0    0  501    0  0.00000000000E+00 -0.00000000000E+00 -0.68038675984E+02  0.68038675984E+02  0.00000000000E+00 0. -1.
         23    2    1    2    0    0 -0.35831192599E+02 -0.14254789800E+01  0.10154349539E+03  0.16505932145E+03  0.12509033451E+03 0.  0.
          5    1    3    3  502    0  0.38463906908E+00 -0.32018694472E+02 -0.17589128875E+02  0.36772198704E+02  0.41800000000E+01 0.  1.
         -5    1    3    3    0  502 -0.36215831668E+02  0.30593215492E+02  0.11913262426E+03  0.12828712274E+03  0.41800000000E+01 0.  1.
        -11    1    1    2    0    0 -0.19624659697E+01  0.32681416898E+02 -0.17323328820E+02  0.37040842384E+02  0.00000000000E+00 0. -1.
         11    1    1    2    0    0  0.37793658569E+02 -0.31255937918E+02  0.56990441694E+02  0.75187796401E+02  0.00000000000E+00 0.  1.
</event>
<event>
 7    1  0.1243146E-005  0.1976035E+03  0.7561462E-02  0.1151777E+00
         -2   -1    0    0    0  501 -0.00000000000E+00  0.00000000000E+00  0.18777367589E+03  0.18777367589E+03  0.00000000000E+00 0.  1.
          2   -1    0    0  501    0  0.00000000000E+00 -0.00000000000E+00 -0.25605503284E+03  0.25605503284E+03  0.00000000000E+00 0. -1.
         23    2    1    2    0    0 -0.84565745509E+02  0.16063156076E+03 -0.93003383416E+02  0.23928091890E+03  0.12510741464E+03 0.  0.
          5    1    3    3  502    0  0.13471167437E+02  0.47028931328E+01 -0.47131802507E+02  0.49421339151E+02  0.41800000000E+01 0.  1.
         -5    1    3    3    0  502 -0.98036912946E+02  0.15592866763E+03 -0.45871580908E+02  0.18985957975E+03  0.41800000000E+01 0.  1.
        -11    1    1    2    0    0  0.98335533182E+02 -0.13513356008E+03  0.39917984531E+02  0.17182666159E+03  0.00000000000E+00 0.  1.
         11    1    1    2    0    0 -0.13769787672E+02 -0.25498000686E+02 -0.15195958059E+02  0.32721128234E+02  0.00000000000E+00 0. -1.
</event>
<event>
 7    1  0.1243146E-005  0.1043333E+03  0.7561462E-02  0.1271439E+00
          4   -1    0    0  501    0  0.00000000000E+00  0.00000000000E+00  0.78264391278E+03  0.78264391278E+03  0.00000000000E+00 0. -1.
         -4   -1    0    0    0  501 -0.00000000000E+00 -0.00000000000E+00 -0.18425296468E+02  0.18425296468E+02  0.00000000000E+00 0.  1.
         23    2    1    2    0    0 -0.45362353075E+02 -0.21808377325E+02  0.41154389377E+03  0.43306971474E+03  0.12509057888E+03 0.  0.
          5    1    3    3  502    0 -0.44862288220E+02  0.28689264777E+02  0.34662060646E+03  0.35071215553E+03  0.41800000000E+01 0. -1.
         -5    1    3    3    0  502 -0.50006485564E+00 -0.50497642101E+02  0.64923287313E+02  0.82357559205E+02  0.41800000000E+01 0. -1.
        -11    1    1    2    0    0  0.70074573133E+02 -0.22209771660E+01  0.25292462492E+03  0.26246189138E+03  0.00000000000E+00 0. -1.
         11    1    1    2    0    0 -0.24712220058E+02  0.24029354491E+02  0.99750097623E+02  0.10553760312E+03  0.00000000000E+00 0.  1.
</event>
<event>
 6    1  0.1243146E-005  0.1175642E+03  0.7561462E-02  0.1247170E+00
          2   -1    0    0  501    0  0.00000000000E+00  0.00000000000E+00  0.10030589015E+04  0.10030589015E+04  0.00000000000E+00 0. -1.
         -2   -1    0    0    0  501 -0.00000000000E+00 -0.00000000000E+00 -0.29228822539E+02  0.29228822539E+02  0.00000000000E+00 0.  1.
          5    1    1    2  502    0  0.74195975503E+01 -0.65763072560E+02  0.48173411118E+03  0.48627673028E+03  0.41800000000E+01 0. -1.
         -5    1    1    2    0  502  0.11733481770E+02  0.75679419051E+02  0.44273567172E+02  0.88558851689E+02  0.41800000000E+01 0.  1.
        -11    1    1    2    0    0  0.16029660348E+02  0.32962335142E+02  0.14287546546E+03  0.14750208195E+03  0.00000000000E+00 0.  1.
         11    1    1    2    0    0 -0.35182739668E+02 -0.42878681634E+02  0.30494693511E+03  0.30995006008E+03  0.00000000000E+00 0. -1.
</event>
<event>
 7    1  0.1243146E-005  0.7778787E+02  0.7561462E-02  0.1335449E+00
          1   -1    0    0  501    0  0.00000000000E+00  0.00000000000E+00  0.20898897768E+03  0.20898897768E+03  0.00000000000E+00 0. -1.
         -1   -1    0    0    0  501 -0.00000000000E+00 -0.00000000000E+00 -0.71588482518E+02  0.71588482518E+02  0.00000000000E+00 0.  1.
         23    2    1    2    0    0  0.45720066931E+02  0.23657725257E+02  0.43040275587E+02  0.14195233656E+03  0.12509191840E+03 0.  0.
          5    1    3    3  502    0  0.24959991416E+02  0.21566205205E+02  0.86986675093E+02  0.93124950589E+02  0.41800000000E+01 0. -1.
         -5    1    3    3    0  502  0.20760075515E+02  0.20915200514E+01 -0.43946399506E+02  0.48827385974E+02  0.41800000000E+01 0. -1.
        -11    1    1    2    0    0 -0.68884214070E+02 -0.13660371597E+01  0.70619858131E+02  0.98661367151E+02  0.00000000000E+00 0. -1.
         11    1    1    2    0    0  0.23164147139E+02 -0.22291688097E+02  0.23740361443E+02  0.39963756484E+02  0.00000000000E+00 0.  1.
</event>
<event>
 7    1  0.1243146E-005  0.1046253E+03  0.7561462E-02  0.1270860E+00
          2   -1    0    0  501    0  0.00000000000E+00  0.00000000000E+00  0.40333665421E+03  0.40333665421E+03  0.00000000000E+00 0. -1.
         -2   -1    0    0    0  501 -0.00000000000E+00 -0.00000000000E+00 -0.34393117745E+02  0.34393117745E+02  0.00000000000E+00 0.  1.
         23    2    1    2    0    0 -0.31965602116E+02 -0.29525950963E+02  0.18458456515E+03  0.22718337820E+03  0.12508894492E+03 0.  0.
          5    1    3    3  502    0 -0.20042954837E+01 -0.72390621345E+02  0.14259375716E+03  0.15998397182E+03  0.41800000000E+01 0.  1.
         -5    1    3    3    0  502 -0.29961306632E+02  0.42864670381E+02  0.41990807986E+02  0.67199406377E+02  0.41800000000E+01 0.  1.
        -11    1    1    2    0    0  0.36298254656E+02 -0.15170736387E+02  0.14687276706E+03  0.15205040032E+03  0.00000000000E+00 0. -1.
         11    1    1    2    0    0 -0.43326525400E+01  0.44696687351E+02  0.37486204255E+02  0.58495993432E+02  0.00000000000E+00 0.  1.
</event>
<event>
 7    1  0.1243146E-005  0.9344049E+02  0.7561462E-02  0.1294728E+00
          1   -1    0    0  501    0  0.00000000000E+00  0.00000000000E+00  0.54201706465E+03  0.54201706465E+03  0.00000000000E+00 0. -1.
         -1   -1    0    0    0  501 -0.00000000000E+00 -0.00000000000E+00 -0.32626339097E+02  0.32626339097E+02  0.00000000000E+00 0.  1.
         23    2    1    2    0    0 -0.51629884205E+02 -0.28362690191E+02  0.17286723492E+03  0.22136839308E+03  0.12510314707E+03 0.  0.
          5    1    3    3  502    0  0.74239607878E+01 -0.27813718838E+02  0.15755266323E+03  0.16021558052E+03  0.41800000000E+01 0.  1.
         -5    1    3    3    0  502 -0.59053844993E+02 -0.54897135278E+00  0.15314571686E+02  0.61152812559E+02  0.41800000000E+01 0.  1.
        -11    1    1    2    0    0  0.19107561463E+01  0.45844641742E+02  0.88211453274E+02  0.99431597866E+02  0.00000000000E+00 0.  1.
         11    1    1    2    0    0  0.49719128059E+02 -0.17481951551E+02  0.24831203736E+03  0.25384341280E+03  0.00000000000E+00 0. -1.
</event>
<event>
 7    1  0.1243146E-005  0.1259644E+03  0.7561462E-02  0.1233570E+00
          2   -1    0    0  501    0  0.00000000000E+00  0.00000000000E+00  0.87901806532E+02  0.87901806532E+02  0.00000000000E+00 0.  1.
         -2   -1    0    0    0  501 -0.00000000000E+00 -0.00000000000E+00 -0.25651771403E+03  0.25651771403E+03  0.00000000000E+00 0. -1.
         23    2    1    2    0    0  0.16604740167E+02  0.69249291576E+02 -0.17412951901E+03  0.22591907162E+03  0.12508859162E+03 0.  0.
          5    1    3    3  502    0  0.72934116450E+01  0.10126577464E+03 -0.91584186280E+02  0.13679578409E+03  0.41800000000E+01 0.  1.
         -5    1    3    3    0  502  0.93113285219E+01 -0.32016483063E+02 -0.82545332725E+02  0.89123287536E+02  0.41800000000E+01 0.  1.
        -11    1    1    2    0    0  0.38593561657E+02 -0.25222510472E+02  0.11872203118E+02  0.47608688732E+02  0.00000000000E+00 0.  1.
         11    1    1    2    0    0 -0.55198301824E+02 -0.44026781104E+02 -0.63585916123E+01  0.70891760212E+02  0.00000000000E+00 0. -1.
</event>
<event>
 7    1  0.1243146E-005  0.8864332E+02  0.7561462E-02  0.1306171E+00
         -2   -1    0    0    0  501 -0.00000000000E+00  0.00000000000E+00  0.21064337840E+03  0.21064337840E+03  0.00000000000E+00 0.  1.
          2   -1    0    0  501    0  0.00000000000E+00 -0.00000000000E+00 -0.97227760037E+02  0.97227760037E+02  0.00000000000E+00 0. -1.
         23    2    1    2    0    0  0.29931155908E+02 -0.23960908301E+02  0.15344565804E+03  0.20165169873E+03  0.12509132029E+03 0.  0.
          5    1    3    3  502    0  0.34357351683E+02 -0.54011357220E+02  0.23787581264E+02  0.68417656682E+02  0.41800000000E+01 0. -1.
         -5    1    3    3    0  502 -0.44261957746E+01  0.30050448919E+02  0.12965807677E+03  0.13323404205E+03  0.41800000000E+01 0. -1.
        -11    1    1    2    0    0 -0.46838249771E+02 -0.68451869724E+01  0.66396460093E+01  0.47799195866E+02  0.00000000000E+00 0.  1.
         11    1    1    2    0    0  0.16907093863E+02  0.30806095273E+02 -0.46669685680E+02  0.58420243840E+02  0.00000000000E+00 0. -1.
</event>
<event>
 7    1  0.1243146E-005  0.1109419E+03  0.7561462E-02  0.1258836E+00
         -2   -1    0    0    0  501 -0.00000000000E+00  0.00000000000E+00  0.26057320470E+03  0.26057320470E+03  0.00000000000E+00 0.  1.
          2   -1    0    0  501    0  0.00000000000E+00 -0.00000000000E+00 -0.11592844846E+03  0.11592844846E+03  0.00000000000E+00 0. -1.
         23    2    1    2    0    0 -0.42013431562E+02  0.31954587742E+02  0.21035489916E+03  0.25036042525E+03  0.12507971387E+03 0.  0.
          5    1    3    3  502    0  0.35220333364E+02 -0.36313187553E+01  0.12427304155E+03  0.12928619267E+03  0.41800000000E+01 0. -1.
         -5    1    3    3    0  502 -0.77233764926E+02  0.35585906497E+02  0.86081857605E+02  0.12107423258E+03  0.41800000000E+01 0. -1.
        -11    1    1    2    0    0  0.68839955950E+02 -0.19741565480E+02 -0.24942602703E+02  0.75834044943E+02  0.00000000000E+00 0.  1.
         11    1    1    2    0    0 -0.26826524388E+02 -0.12213022262E+02 -0.40767540217E+02  0.50307182975E+02  0.00000000000E+00 0. -1.
</event>
<event>
 7    1  0.1243146E-005  0.1158797E+03  0.7561462E-02  0.1250053E+00
         -1   -1    0    0    0  501 -0.00000000000E+00  0.00000000000E+00  0.87219720406E+02  0.87219720406E+02  0.00000000000E+00 0.  1.
          1   -1    0    0  501    0  0.00000000000E+00 -0.00000000000E+00 -0.35464078532E+03  0.35464078532E+03  0.00000000000E+00 0. -1.
         23    2    1    2    0    0  0.95402106411E+02 -0.19486427036E+02 -0.18953777434E+02  0.15964825667E+03  0.12508811866E+03 0.  0.
          5    1    3    3  502    0  0.59179994806E+02 -0.17749119296E+02 -0.72182091071E+02  0.95105361007E+02  0.41800000000E+01 0.  1.
         -5    1    3    3    0  502  0.36222111605E+02 -0.17373077401E+01  0.53228313637E+02  0.64542895658E+02  0.41800000000E+01 0.  1.
        -11    1    1    2    0    0 -0.91125016852E+01  0.42950926218E+02 -0.70788937673E+02  0.83300020689E+02  0.00000000000E+00 0.  1.
         11    1    1    2    0    0 -0.86289604726E+02 -0.23464499182E+02 -0.17767834981E+03  0.19891222837E+03  0.00000000000E+00 0. -1.
</event>
<event>
 7    1  0.1288180E-005  0.1732035E+03  0.7561462E-02  0.1174548E+00
         -1   -1    0    0    0  501 -0.00000000000E+00  0.00000000000E+00  0.46138640168E+02  0.46138640168E+02  0.00000000000E+00 0.  1.
          1   -1    0    0  501    0  0.00000000000E+00 -0.00000000000E+00 -0.66225451079E+03  0.66225451079E+03  0.00000000000E+00 0. -1.
         23    2    1    2    0    0 -0.80962747613E+02  0.11005660362E+03 -0.30407819883E+03  0.35605931585E+03  0.12508901989E+03 0.  0.
          5    1    3    3  502    0 -0.10372982783E+03  0.40821796357E+02 -0.19856342358E+03  0.22775250125E+03  0.41800000000E+01 0. -1.
         -5    1    3    3    0  502  0.22767080213E+02  0.69234807259E+02 -0.10551477525E+03  0.12830681460E+03  0.41800000000E+01 0. -1.
        -11    1    1    2    0    0  0.93978024277E+02 -0.63273047374E+02 -0.24079097589E+03  0.26611208473E+03  0.00000000000E+00 0.  1.
         11    1    1    2    0    0 -0.13015276664E+02 -0.46783556242E+02 -0.71246695899E+02  0.86221750375E+02  0.00000000000E+00 0. -1.
</event>
<event>
 7    1  0.1243146E-005  0.8168754E+02  0.7561462E-02  0.1324330E+00
          1   -1    0    0  501    0  0.00000000000E+00  0.00000000000E+00  0.51929972850E+02  0.51929972850E+02  0.00000000000E+00 0. -1.
         -1   -1    0    0    0  501 -0.00000000000E+00 -0.00000000000E+00 -0.23625481676E+03  0.23625481676E+03  0.00000000000E+00 0.  1.
         23    2    1    2    0    0 -0.24738614202E+02 -0.25957758208E+01 -0.99061454943E+02  0.16149022239E+03  0.12508870048E+03 0.  0.
          5    1    3    3  502    0  0.39664488080E+01  0.42344569348E+02  0.64270936696E+01  0.43215450969E+02  0.41800000000E+01 0.  1.
         -5    1    3    3    0  502 -0.28705063010E+02 -0.44940345169E+02 -0.10548854861E+03  0.11827477142E+03  0.41800000000E+01 0.  1.
        -11    1    1    2    0    0 -0.19461351744E+02 -0.90203539999E+01  0.79537815502E+01  0.22877360839E+02  0.00000000000E+00 0. -1.
         11    1    1    2    0    0  0.44199965946E+02  0.11616129821E+02 -0.93217170512E+02  0.10381720638E+03  0.00000000000E+00 0.  1.
</event>
<event>
 7    1  0.1243146E-005  0.1200976E+03  0.7561462E-02  0.1242936E+00
         -4   -1    0    0    0  501 -0.00000000000E+00  0.00000000000E+00  0.50399512739E+03  0.50399512739E+03  0.00000000000E+00 0.  1.
          4   -1    0    0  501    0  0.00000000000E+00 -0.00000000000E+00 -0.39910486623E+02  0.39910486623E+02  0.00000000000E+00 0. -1.
         23    2    1    2    0    0 -0.68004858051E+02 -0.25901460492E+02  0.36060649695E+03  0.38856168913E+03  0.12509034433E+03 0.  0.
          5    1    3    3  502    0  0.79988038206E+01 -0.47931678291E+02  0.23529738462E+03  0.24029930972E+03  0.41800000000E+01 0. -1.
         -5    1    3    3    0  502 -0.76003661872E+02  0.22030217799E+02  0.12530911234E+03  0.14826237941E+03  0.41800000000E+01 0. -1.
        -11    1    1    2    0    0  0.83989781468E+02  0.27369343205E+01  0.58885104413E+02  0.10261203498E+03  0.00000000000E+00 0. -1.
         11    1    1    2    0    0 -0.15984923417E+02  0.23164526172E+02  0.44593039399E+02  0.52731889899E+02  0.00000000000E+00 0.  1.
</event>
<event>
 7    1  0.1243146E-005  0.1962002E+03  0.7561462E-02  0.1152985E+00
          2   -1    0    0  501    0  0.00000000000E+00  0.00000000000E+00  0.11191513135E+04  0.11191513135E+04  0.00000000000E+00 0. -1.
         -2   -1    0    0    0  501 -0.00000000000E+00 -0.00000000000E+00 -0.44488987311E+02  0.44488987311E+02  0.00000000000E+00 0.  1.
         23    2    1    2    0    0 -0.15176010177E+03 -0.97573942069E+02  0.36752735707E+03  0.42810719077E+03  0.12509039107E+03 0.  0.
          5    1    3    3  502    0 -0.13536010387E+03 -0.10551230876E+03  0.21832413865E+03  0.27773747845E+03  0.41800000000E+01 0. -1.
         -5    1    3    3    0  502 -0.16399997904E+02  0.79383666950E+01  0.14920321842E+03  0.15036971232E+03  0.41800000000E+01 0. -1.
        -11    1    1    2    0    0 -0.11057823234E+02  0.17218603734E+02  0.59084825057E+02  0.62528172220E+02  0.00000000000E+00 0.  1.
         11    1    1    2    0    0  0.16281792501E+03  0.80355338334E+02  0.64805014403E+03  0.67300493778E+03  0.00000000000E+00 0. -1.
</event>
<event>
 7    1  0.1243146E-005  0.1049254E+03  0.7561462E-02  0.1270267E+00
          1   -1    0    0  501    0  0.00000000000E+00  0.00000000000E+00  0.16932904683E+03  0.16932904683E+03  0.00000000000E+00 0. -1.
         -1   -1    0    0    0  501 -0.00000000000E+00 -0.00000000000E+00 -0.94539083811E+02  0.94539083811E+02  0.00000000000E+00 0.  1.
         23    2    1    2    0    0  0.63304980552E+02  0.13299177806E+02  0.39450430878E+02  0.14624687714E+03  0.12508966337E+03 0.  0.
          5    1    3    3  502    0  0.47549141663E+02 -0.39366203951E+02 -0.20138797166E+02  0.65066600016E+02  0.41800000000E+01 0. -1.
         -5    1    3    3    0  502  0.15755838890E+02  0.52665381757E+02  0.59589228045E+02  0.81180277123E+02  0.41800000000E+01 0. -1.
        -11    1    1    2    0    0 -0.99745967163E+01 -0.34157770464E+02 -0.17543272993E+02  0.39673823739E+02  0.00000000000E+00 0.  1.
         11    1    1    2    0    0 -0.53330383836E+02  0.20858592658E+02  0.52882805130E+02  0.77947429760E+02  0.00000000000E+00 0. -1.
</event>
<event>
 7    1  0.1243146E-005  0.1521859E+03  0.7561462E-02  0.1197812E+00
         -2   -1    0    0    0  501 -0.00000000000E+00  0.00000000000E+00  0.78498160789E+02  0.78498160789E+02  0.00000000000E+00 0.  1.
          2   -1    0    0  501    0  0.00000000000E+00 -0.00000000000E+00 -0.36739223526E+03  0.36739223526E+03  0.00000000000E+00 0. -1.
         23    2    1    2    0    0 -0.95788096242E+02 -0.79212069547E+02 -0.10148038972E+03  0.20346392444E+03  0.12509751280E+03 0.  0.
          5    1    3    3  502    0  0.15554545820E+02 -0.39202263469E+02 -0.68530810196E+02  0.80577327474E+02  0.41800000000E+01 0.  1.
         -5    1    3    3    0  502 -0.11134264206E+03 -0.40009806078E+02 -0.32949579528E+02  0.12288659697E+03  0.41800000000E+01 0.  1.
        -11    1    1    2    0    0  0.35007243035E+02 -0.93089358904E+01 -0.91647260077E+02  0.98546352707E+02  0.00000000000E+00 0. -1.
         11    1    1    2    0    0  0.60780853207E+02  0.88521005437E+02 -0.95766424674E+02  0.14388011890E+03  0.00000000000E+00 0.  1.
</event>
<event>
 7    1  0.1243146E-005  0.9828646E+02  0.7561462E-02  0.1283941E+00
         -2   -1    0    0    0  501 -0.00000000000E+00  0.00000000000E+00  0.35085146813E+02  0.35085146813E+02  0.00000000000E+00 0.  1.
          2   -1    0    0  501    0  0.00000000000E+00 -0.00000000000E+00 -0.33839851258E+03  0.33839851258E+03  0.00000000000E+00 0. -1.
         23    2    1    2    0    0 -0.10927454611E+01  0.18177318009E+01 -0.18280573883E+03  0.22151769989E+03  0.12509058706E+03 0.  0.
          5    1    3    3  502    0 -0.59981752184E+02 -0.17744516434E+02 -0.85142802128E+02  0.10573290695E+03  0.41800000000E+01 0. -1.
         -5    1    3    3    0  502  0.58889006723E+02  0.19562248235E+02 -0.97662936706E+02  0.11578479293E+03  0.41800000000E+01 0. -1.
        -11    1    1    2    0    0 -0.84603293541E+01  0.33783906694E+02 -0.10729931380E+03  0.11280989436E+03  0.00000000000E+00 0. -1.
         11    1    1    2    0    0  0.95530748152E+01 -0.35601638495E+02 -0.13208313141E+02  0.39156065149E+02  0.00000000000E+00 0.  1.
</event>
<event>
 7    1  0.1243146E-005  0.1044150E+03  0.7561462E-02  0.1271276E+00
          1   -1    0    0  501    0  0.00000000000E+00  0.00000000000E+00  0.14579963284E+03  0.14579963284E+03  0.00000000000E+00 0. -1.
         -1   -1    0    0    0  501 -0.00000000000E+00 -0.00000000000E+00 -0.12843736144E+03  0.12843736144E+03  0.00000000000E+00 0.  1.
         23    2    1    2    0    0 -0.11424899354E+02 -0.67397533822E+02 -0.37628640795E+02  0.14743145941E+03  0.12508862748E+03 0.  0.
          5    1    3    3  502    0  0.30917299940E+02  0.15103747805E+02 -0.42055833147E+02  0.54499248940E+02  0.41800000000E+01 0. -1.
         -5    1    3    3    0  502 -0.42342199294E+02 -0.82501281627E+02  0.44271923521E+01  0.92932210472E+02  0.41800000000E+01 0. -1.
        -11    1    1    2    0    0 -0.82610792688E+01  0.59595503600E+02 -0.76802378542E+01  0.60653569833E+02  0.00000000000E+00 0.  1.
         11    1    1    2    0    0  0.19685978623E+02  0.78020302219E+01  0.62671150044E+02  0.66151965033E+02  0.00000000000E+00 0. -1.
</event>
<event>
 6    1  0.1243146E-005  0.1584729E+03  0.7561462E-02  0.1190432E+00
         -2   -1    0    0    0  501 -0.00000000000E+00  0.00000000000E+00  0.28816231256E+03  0.28816231256E+03  0.00000000000E+00 0.  1.
          2   -1    0    0  501    0  0.00000000000E+00 -0.00000000000E+00 -0.23644877670E+03  0.23644877670E+03  0.00000000000E+00 0. -1.
          5    1    1    2  502    0  0.89446848505E+02  0.89759535619E+02 -0.16475496841E+03  0.20789224362E+03  0.41800000000E+01 0. -1.
         -5    1    1    2    0  502 -0.59403342590E+02 -0.87749649949E+02  0.18797943984E+03  0.21582979493E+03  0.41800000000E+01 0.  1.
        -11    1    1    2    0    0  0.17570330210E+02 -0.25539727841E+02 -0.12878788132E+02  0.33568696514E+02  0.00000000000E+00 0. -1.
         11    1    1    2    0    0 -0.47613836124E+02  0.23529842171E+02  0.41367852565E+02  0.67320354194E+02  0.00000000000E+00 0.  1.
</event>
<event>
 7    1  0.1243146E-005  0.9594219E+02  0.7561462E-02  0.1289068E+00
         -1   -1    0    0    0  501 -0.00000000000E+00  0.00000000000E+00  0.38033689755E+02  0.38033689755E+02  0.00000000000E+00 0.  1.
          1   -1    0    0  501    0  0.00000000000E+00 -0.00000000000E+00 -0.35024615664E+03  0.35024615664E+03  0.00000000000E+00 0. -1.
         23    2    1    2    0    0  0.32779504958E+02  0.89344763027E+01 -0.14439177791E+03  0.19403843552E+03  0.12509039979E+03 0.  0.
          5    1    3    3  502    0  0.77675134435E+02  0.46823197122E+01 -0.11862430487E+03  0.14193149310E+03  0.41800000000E+01 0.  1.
         -5    1    3    3    0  502 -0.44895629477E+02  0.42521565904E+01 -0.25767473040E+02  0.52106942423E+02  0.41800000000E+01 0.  1.
        -11    1    1    2    0    0 -0.36025744945E+02  0.18872961800E+02 -0.16012151883E+03  0.16520576194E+03  0.00000000000E+00 0. -1.
         11    1    1    2    0    0  0.32462399875E+01 -0.27807438103E+02 -0.76991701420E+01  0.29035648930E+02  0.00000000000E+00 0.  1.
</event>
<event>
 6    1  0.1243146E-005  0.1233262E+03  0.7561462E-02  0.1237709E+00
          2   -1    0    0  501    0  0.00000000000E+00  0.00000000000E+00  0.26783812496E+02  0.26783812496E+02  0.00000000000E+00 0. -1.
         -2   -1    0    0    0  501 -0.00000000000E+00 -0.00000000000E+00 -0.86089941789E+03  0.86089941789E+03  0.00000000000E+00 0.  1.
          5    1    1    2  502    0 -0.69073206511E+02 -0.47861990473E+02 -0.11228633411E+03  0.14031240579E+03  0.41800000000E+01 0. -1.
         -5    1    1    2    0  502  0.41304514040E+02 -0.28173009661E+02 -0.39722634886E+03  0.40038234974E+03  0.41800000000E+01 0.  1.
        -11    1    1    2    0    0 -0.64842425992E+01  0.77774289850E+02 -0.28029539342E+03  0.29095771710E+03  0.00000000000E+00 0. -1.
         11    1    1    2    0    0  0.34252935069E+02 -0.17392897160E+01 -0.44307528999E+02  0.56030757764E+02  0.00000000000E+00 0.  1.
</event>
<event>
 7    1  0.1243146E-005  0.9935338E+02  0.7561462E-02  0.1281662E+00
         -1   -1    0    0    0  501 -0.00000000000E+00  0.00000000000E+00  0.36079811404E+02  0.36079811404E+02  0.00000000000E+00 0.  1.
          1   -1    0    0  501    0  0.00000000000E+00 -0.00000000000E+00 -0.59425640519E+03  0.59425640519E+03  0.00000000000E+00 0. -1.
         23    2    1    2    0    0  0.56985105822E+02  0.25837516983E+02 -0.13943907972E+03  0.19749350400E+03  0.12508216340E+03 0.  0.
          5    1    3    3  502    0  0.72776750360E+02  0.39483240534E+02 -0.15173970318E+03  0.17290977878E+03  0.41800000000E+01 0. -1.
         -5    1    3    3    0  502 -0.15791644538E+02 -0.13645723551E+02  0.12300623461E+02  0.24583725225E+02  0.41800000000E+01 0. -1.
        -11    1    1    2    0    0 -0.18490749081E+02  0.24785275126E+02 -0.50968134356E+02  0.59615169080E+02  0.00000000000E+00 0.  1.
         11    1    1    2    0    0 -0.38494356741E+02 -0.50622792109E+02 -0.36776937972E+03  0.37322754352E+03  0.00000000000E+00 0. -1.
</event>
<event>
 7    1  0.1243146E-005  0.1203343E+03  0.7561462E-02  0.1242547E+00
          2   -1    0    0  501    0  0.00000000000E+00  0.00000000000E+00  0.28838831932E+03  0.28838831932E+03  0.00000000000E+00 0. -1.
         -2   -1    0    0    0  501 -0.00000000000E+00 -0.00000000000E+00 -0.57883676036E+02  0.57883676036E+02  0.00000000000E+00 0.  1.
         23    2    1    2    0    0  0.67351577698E+02  0.18126746385E+02  0.10221955443E+03  0.17265390022E+03  0.12039816445E+03 0.  0.
          5    1    3    3  502    0 -0.27744005925E+02 -0.17017743116E+01  0.60771754226E+02  0.66957482123E+02  0.41800000000E+01 0. -1.
         -5    1    3    3    0  502  0.95095583623E+02  0.19828520696E+02  0.41447800201E+02  0.10569641810E+03  0.41800000000E+01 0.  1.
        -11    1    1    2    0    0  0.22144862131E+02 -0.13016538739E+02  0.17377357227E+02  0.31012864165E+02  0.00000000000E+00 0.  1.
         11    1    1    2    0    0 -0.89496439829E+02 -0.51102076458E+01  0.11090773163E+03  0.14260523097E+03  0.00000000000E+00 0. -1.
</event>
<event>
 7    1  0.1243146E-005  0.7688931E+02  0.7561462E-02  0.1338118E+00
         -2   -1    0    0    0  501 -0.00000000000E+00  0.00000000000E+00  0.57808852029E+02  0.57808852029E+02  0.00000000000E+00 0. -1.
          2   -1    0    0  501    0  0.00000000000E+00 -0.00000000000E+00 -0.27792708099E+03  0.27792708099E+03  0.00000000000E+00 0.  1.
         23    2    1    2    0    0 -0.53742919582E+02  0.91883937785E+01 -0.75048760864E+02  0.15573083068E+03  0.12508815744E+03 0.  0.
          5    1    3    3  502    0 -0.35989015530E+02  0.31504240166E+02  0.23212915011E+02  0.53329524755E+02  0.41800000000E+01 0. -1.
         -5    1    3    3    0  502 -0.17753904051E+02 -0.22315846387E+02 -0.98261675875E+02  0.10240130592E+03  0.41800000000E+01 0. -1.
        -11    1    1    2    0    0  0.33692658717E+02  0.21731459168E+02 -0.11886833128E+02  0.41818038821E+02  0.00000000000E+00 0. -1.
         11    1    1    2    0    0  0.20050260865E+02 -0.30919852947E+02 -0.13318263497E+03  0.13818706352E+03  0.00000000000E+00 0.  1.
</event>
<event>
 6    1  0.1243146E-005  0.1265539E+03  0.7561462E-02  0.1232661E+00
         -3   -1    0    0    0  501 -0.00000000000E+00  0.00000000000E+00  0.39065612964E+03  0.39065612964E+03  0.00000000000E+00 0.  1.
          3   -1    0    0  501    0  0.00000000000E+00 -0.00000000000E+00 -0.74318884581E+02  0.74318884581E+02  0.00000000000E+00 0. -1.
          5    1    1    2  502    0 -0.20540336133E+02  0.44115426185E+02  0.76963137764E+02  0.91153020852E+02  0.41800000000E+01 0. -1.
         -5    1    1    2    0  502 -0.13589126923E+01 -0.11074334873E+03  0.24394441540E+03  0.26794082581E+03  0.41800000000E+01 0.  1.
        -11    1    1    2    0    0 -0.16153843943E+02 -0.62182097704E+00 -0.21380726196E+02  0.26804268095E+02  0.00000000000E+00 0.  1.
         11    1    1    2    0    0  0.38053092769E+02  0.67249743518E+02  0.16810418090E+02  0.79076899464E+02  0.00000000000E+00 0. -1.
</event>
<event>
 7    1  0.1243146E-005  0.9042722E+02  0.7561462E-02  0.1301820E+00
         -2   -1    0    0    0  501 -0.00000000000E+00  0.00000000000E+00  0.21871777056E+03  0.21871777056E+03  0.00000000000E+00 0. -1.
          2   -1    0    0  501    0  0.00000000000E+00 -0.00000000000E+00 -0.75515711583E+02  0.75515711583E+02  0.00000000000E+00 0.  1.
         23    2    1    2    0    0 -0.22189402559E+02  0.36913915047E+02  0.14100100396E+03  0.19334879163E+03  0.12508982932E+03 0.  0.
          5    1    3    3  502    0 -0.63601101666E+02 -0.59275141948E+01  0.38457713556E+02  0.74677330493E+02  0.41800000000E+01 0.  1.
         -5    1    3    3    0  502  0.41411699107E+02  0.42841429242E+02  0.10254329040E+03  0.11867146114E+03  0.41800000000E+01 0.  1.
        -11    1    1    2    0    0 -0.10185053448E+02 -0.39990207428E+01 -0.38075945038E+02  0.39616979582E+02  0.00000000000E+00 0.  1.
         11    1    1    2    0    0  0.32374456007E+02 -0.32914894304E+02  0.40277000053E+02  0.61267710926E+02  0.00000000000E+00 0. -1.
</event>
<event>
 7    1  0.1243146E-005  0.1041147E+03  0.7561462E-02  0.1271874E+00
          2   -1    0    0  501    0  0.00000000000E+00  0.00000000000E+00  0.48094509687E+03  0.48094509687E+03  0.00000000000E+00 0. -1.
         -2   -1    0    0    0  501 -0.00000000000E+00 -0.00000000000E+00 -0.32762665400E+02  0.32762665400E+02  0.00000000000E+00 0.  1.
         23    2    1    2    0    0 -0.93357751610E+01  0.10843005532E+02  0.12500970745E+03  0.17742215364E+03  0.12508583525E+03 0.  0.
          5    1    3    3  502    0 -0.22644437108E+02 -0.54382667299E+02  0.62947302707E+02  0.86313847977E+02  0.41800000000E+01 0.  1.
         -5    1    3    3    0  502  0.13308661947E+02  0.65225672831E+02  0.62062404742E+02  0.91108305667E+02  0.41800000000E+01 0.  1.
        -11    1    1    2    0    0 -0.75995248312E+01  0.33842226583E+02  0.64486893869E+02  0.73223005665E+02  0.00000000000E+00 0.  1.
         11    1    1    2    0    0  0.16935299992E+02 -0.44685232115E+02  0.25868583015E+03  0.26306260296E+03  0.00000000000E+00 0. -1.
</event>
<event>
 7    1  0.1243146E-005  0.9614284E+02  0.7561462E-02  0.1288623E+00
          2   -1    0    0  501    0  0.00000000000E+00  0.00000000000E+00  0.26453154312E+03  0.26453154312E+03  0.00000000000E+00 0. -1.
         -2   -1    0    0    0  501 -0.00000000000E+00 -0.00000000000E+00 -0.97876284405E+02  0.97876284405E+02  0.00000000000E+00 0.  1.
         23    2    1    2    0    0 -0.44984359193E+02 -0.27801387219E+02 -0.30424532666E+02  0.13887418764E+03  0.12475527284E+03 0.  0.
          5    1    3    3  502    0 -0.28846194941E+02 -0.61199307454E+02  0.24832078972E+02  0.72191154177E+02  0.41800000000E+01 0. -1.
         -5    1    3    3    0  502 -0.16138164252E+02  0.33397920234E+02 -0.55256611639E+02  0.66683033458E+02  0.41800000000E+01 0.  1.
        -11    1    1    2    0    0 -0.14620739110E+02  0.23157314020E+02  0.13636495655E+02  0.30593810133E+02  0.00000000000E+00 0.  1.
         11    1    1    2    0    0  0.59605098302E+02  0.46440731995E+01  0.18344329573E+03  0.19293982976E+03  0.00000000000E+00 0. -1.
</event>
<event>
 7    1  0.1243146E-005  0.1282610E+03  0.7561462E-02  0.1230059E+00
          1   -1    0    0  501    0  0.00000000000E+00  0.00000000000E+00  0.25262017377E+03  0.25262017377E+03  0.00000000000E+00 0. -1.
         -1   -1    0    0    0  501 -0.00000000000E+00 -0.00000000000E+00 -0.11222222256E+03  0.11222222256E+03  0.00000000000E+00 0.  1.
         23    2    1    2    0    0  0.91558094087E+02  0.22969207986E+02 -0.18832269756E+02  0.15783678952E+03  0.12508928265E+03 0.  0.
          5    1    3    3  502    0  0.45131522726E+02 -0.38876710926E+02  0.29442256318E+02  0.66577562685E+02  0.41800000000E+01 0.  1.
         -5    1    3    3    0  502  0.46426571362E+02  0.61845918912E+02 -0.48274526074E+02  0.91259226833E+02  0.41800000000E+01 0.  1.
        -11    1    1    2    0    0  0.65680368553E+01 -0.20152903213E+02  0.74086507403E+02  0.77058998146E+02  0.00000000000E+00 0. -1.
         11    1    1    2    0    0 -0.98126130943E+02 -0.28163047723E+01  0.85143713555E+02  0.12994660867E+03  0.00000000000E+00 0.  1.
</event>
<event>
 7    1  0.1243146E-005  0.2285965E+03  0.7561462E-02  0.1127632E+00
         -2   -1    0    0    0  501 -0.00000000000E+00  0.00000000000E+00  0.10284578407E+03  0.10284578407E+03  0.00000000000E+00 0. -1.
          2   -1    0    0  501    0  0.00000000000E+00 -0.00000000000E+00 -0.91259432098E+03  0.91259432098E+03  0.00000000000E+00 0.  1.
         23    2    1    2    0    0  0.90784392028E+02  0.18823392914E+03 -0.88493133873E+02  0.25913684679E+03  0.12508817973E+03 0.  0.
          5    1    3    3  502    0  0.48727821340E+02 -0.17276156806E+01 -0.18943892055E+02  0.52475981884E+02  0.41800000000E+01 0.  1.
         -5    1    3    3    0  502  0.42056570687E+02  0.18996154482E+03 -0.69549241818E+02  0.20666086491E+03  0.41800000000E+01 0.  1.
        -11    1    1    2    0    0 -0.77578883075E+02 -0.11177999281E+03 -0.57346225967E+03  0.58938290878E+03  0.00000000000E+00 0.  1.
         11    1    1    2    0    0 -0.13205508953E+02 -0.76453936327E+02 -0.14779314336E+03  0.16692034948E+03  0.00000000000E+00 0. -1.
</event>
<event>
 6    1  0.1243146E-005  0.1055477E+03  0.7561462E-02  0.1269044E+00
          3   -1    0    0  501    0  0.00000000000E+00  0.00000000000E+00  0.12050627774E+03  0.12050627774E+03  0.00000000000E+00 0. -1.
         -3   -1    0    0    0  501 -0.00000000000E+00 -0.00000000000E+00 -0.16236386952E+03  0.16236386952E+03  0.00000000000E+00 0.  1.
          5    1    1    2  502    0 -0.28455519327E+01 -0.79957225013E+02 -0.99872552457E+02  0.12803614385E+03  0.41800000000E+01 0. -1.
         -5    1    1    2    0  502  0.32022162246E+01  0.38087657885E+02  0.37050382254E+02  0.53395946448E+02  0.41800000000E+01 0.  1.
        -11    1    1    2    0    0 -0.21888472477E+02 -0.18357905399E+02 -0.10141566532E+02  0.30314506259E+02  0.00000000000E+00 0. -1.
         11    1    1    2    0    0  0.21531808185E+02  0.60227472526E+02  0.31106144950E+02  0.71123550701E+02  0.00000000000E+00 0.  1.
</event>
<event>
 7    1  0.1243146E-005  0.1020822E+03  0.7561462E-02  0.1275977E+00
         -3   -1    0    0    0  501 -0.00000000000E+00  0.00000000000E+00  0.42069987144E+02  0.42069987144E+02  0.00000000000E+00 0.  1.
          3   -1    0    0  501    0  0.00000000000E+00 -0.00000000000E+00 -0.33513826915E+03  0.33513826915E+03  0.00000000000E+00 0. -1.
         23    2    1    2    0    0 -0.74433139092E+01  0.39689935856E+02 -0.11526686140E+03  0.17482468031E+03  0.12508607268E+03 0.  0.
          5    1    3    3  502    0 -0.36365470749E+02 -0.24595267389E+02 -0.89282466020E+02  0.99580147516E+02  0.41800000000E+01 0. -1.
         -5    1    3    3    0  502  0.28922156839E+02  0.64285203245E+02 -0.25984395381E+02  0.75244532797E+02  0.41800000000E+01 0. -1.
        -11    1    1    2    0    0 -0.20908506389E+01  0.24482561325E+02 -0.89495350879E+02  0.92807248070E+02  0.00000000000E+00 0. -1.
         11    1    1    2    0    0  0.95341645481E+01 -0.64172497181E+02 -0.88306069725E+02  0.10957632791E+03  0.00000000000E+00 0.  1.
</event>
<event>
 7    1  0.1243146E-005  0.1241249E+03  0.7561462E-02  0.1236443E+00
         -2   -1    0    0    0  501 -0.00000000000E+00  0.00000000000E+00  0.12433562871E+04  0.12433562871E+04  0.00000000000E+00 0. -1.
          2   -1    0    0  501    0  0.00000000000E+00 -0.00000000000E+00 -0.17446242395E+02  0.17446242395E+02  0.00000000000E+00 0.  1.
         23    2    1    2    0    0  0.16201373885E+02  0.55155321265E+02  0.97968147139E+03  0.98930667679E+03  0.12508925362E+03 0.  0.
          5    1    3    3  502    0  0.66767075943E+02  0.48727182987E+02  0.48753162503E+03  0.49450656072E+03  0.41800000000E+01 0. -1.
         -5    1    3    3    0  502 -0.50565702058E+02  0.64281382782E+01  0.49214984636E+03  0.49480011606E+03  0.41800000000E+01 0. -1.
        -11    1    1    2    0    0  0.41979703800E+02 -0.23330703932E+02  0.10654432521E+03  0.11686877475E+03  0.00000000000E+00 0.  1.
         11    1    1    2    0    0 -0.58181077685E+02 -0.31824617334E+02  0.13968424810E+03  0.15462707795E+03  0.00000000000E+00 0. -1.
</event>
<event>
 7    1  0.1243146E-005  0.1062975E+03  0.7561462E-02  0.1267584E+00
         -2   -1    0    0    0  501 -0.00000000000E+00  0.00000000000E+00  0.21207399026E+02  0.21207399026E+02  0.00000000000E+00 0.  1.
          2   -1    0    0  501    0  0.00000000000E+00 -0.00000000000E+00 -0.65136878666E+03  0.65136878666E+03  0.00000000000E+00 0. -1.
         23    2    1    2    0    0 -0.29012331909E+02 -0.25791003259E+02 -0.29401369916E+03  0.32186739063E+03  0.12509064956E+03 0.  0.
          5    1    3    3  502    0  0.36057327137E+02 -0.30827386238E+02 -0.21036587902E+03  0.21568897524E+03  0.41800000000E+01 0. -1.
         -5    1    3    3    0  502 -0.65069659047E+02  0.50363829794E+01 -0.83647820135E+02  0.10617841539E+03  0.41800000000E+01 0. -1.
        -11    1    1    2    0    0 -0.30699931801E+02 -0.69471410352E+01 -0.12195656500E+03  0.12595297665E+03  0.00000000000E+00 0.  1.
         11    1    1    2    0    0  0.59712263710E+02  0.32738144294E+02 -0.21419112348E+03  0.22475581841E+03  0.00000000000E+00 0. -1.
</event>
<event>
 7    1  0.1243146E-005  0.1224861E+03  0.7561462E-02  0.1239051E+00
          1   -1    0    0  501    0  0.00000000000E+00  0.00000000000E+00  0.64790662100E+03  0.64790662100E+03  0.00000000000E+00 0. -1.
         -1   -1    0    0    0  501 -0.00000000000E+00 -0.00000000000E+00 -0.12631575673E+03  0.12631575673E+03  0.00000000000E+00 0.  1.
         23    2    1    2    0    0  0.86792357891E+02  0.33139160238E+02 -0.66357299086E+02  0.16935928575E+03  0.12509260249E+03 0.  0.
          5    1    3    3  502    0  0.27041048618E+02 -0.10510106265E+02 -0.87507512539E+02  0.92286065009E+02  0.41800000000E+01 0.  1.
         -5    1    3    3    0  502  0.59751309273E+02  0.43649266503E+02  0.21150213453E+02  0.77073220740E+02  0.41800000000E+01 0.  1.
        -11    1    1    2    0    0 -0.32160936400E+02  0.39321579353E+02  0.18733036989E+03  0.19409580087E+03  0.00000000000E+00 0.  1.
         11    1    1    2    0    0 -0.54631421491E+02 -0.72460739591E+02  0.40061779347E+03  0.41076729111E+03  0.00000000000E+00 0. -1.
</event>
<event>
 7    1  0.1243146E-005  0.8696049E+02  0.7561462E-02  0.1310384E+00
          2   -1    0    0  501    0  0.00000000000E+00  0.00000000000E+00  0.98077705853E+02  0.98077705853E+02  0.00000000000E+00 0.  1.
         -2   -1    0    0    0  501 -0.00000000000E+00 -0.00000000000E+00 -0.17629078259E+03  0.17629078259E+03  0.00000000000E+00 0. -1.
         23    2    1    2    0    0 -0.23207433921E+02  0.75756711618E+01 -0.11673657930E+03  0.17282997236E+03  0.12508714808E+03 0.  0.
          5    1    3    3  502    0  0.39262125861E+02  0.37209958611E+02 -0.30573759810E+02  0.62276181127E+02  0.41800000000E+01 0.  1.
         -5    1    3    3    0  502 -0.62469559781E+02 -0.29634287449E+02 -0.86162819494E+02  0.11055379123E+03  0.41800000000E+01 0.  1.
        -11    1    1    2    0    0  0.39611308533E+01  0.17976836161E+02  0.60163575148E+02  0.62916714557E+02  0.00000000000E+00 0.  1.
         11    1    1    2    0    0  0.19246303067E+02 -0.25552507323E+02 -0.21640072584E+02  0.38621801533E+02  0.00000000000E+00 0. -1.
</event>
<event>
 7    1  0.1243146E-005  0.1320680E+03  0.7561462E-02  0.1224419E+00
          2   -1    0    0  501    0  0.00000000000E+00  0.00000000000E+00  0.29378721847E+03  0.29378721847E+03  0.00000000000E+00 0. -1.
         -2   -1    0    0    0  501 -0.00000000000E+00 -0.00000000000E+00 -0.79612970794E+02  0.79612970794E+02  0.00000000000E+00 0.  1.
         23    2    1    2    0    0  0.85929949842E+02 -0.42159756065E+02  0.56018058712E+02  0.16717349015E+03  0.12509017386E+03 0.  0.
          5    1    3    3  502    0  0.58032754804E+02  0.35469428841E+02  0.14075262746E+01  0.68156691107E+02  0.41800000000E+01 0. -1.
         -5    1    3    3    0  502  0.27897195038E+02 -0.77629184906E+02  0.54610532438E+02  0.99016799046E+02  0.41800000000E+01 0. -1.
        -11    1    1    2    0    0 -0.26910130812E+02 -0.15360273338E+02  0.10173905690E+03  0.10635285062E+03  0.00000000000E+00 0.  1.
         11    1    1    2    0    0 -0.59019819031E+02  0.57520029403E+02  0.56417132066E+02  0.99873848486E+02  0.00000000000E+00 0. -1.
</event>
<event>
 7    1  0.1243146E-005  0.1560675E+03  0.7561462E-02  0.1193209E+00
          2   -1    0    0  501    0  0.00000000000E+00  0.00000000000E+00  0.61484254324E+03  0.61484254324E+03  0.00000000000E+00 0. -1.
         -2   -1    0    0    0  501 -0.00000000000E+00 -0.00000000000E+00 -0.42446412037E+02  0.42446412037E+02  0.00000000000E+00 0.  1.
         23    2    1    2    0    0  0.66543863032E+02  0.93192424229E+02  0.24779445250E+03  0.30126880917E+03  0.12746721559E+03 0.  0.
          5    1    3    3  502    0 -0.35208771170E+02  0.37696305494E+02  0.10699705956E+03  0.11885500481E+03  0.41800000000E+01 0. -1.
         -5    1    3    3    0  502  0.10175263420E+03  0.55496118736E+02  0.14079739294E+03  0.18241380436E+03  0.41800000000E+01 0.  1.
        -11    1    1    2    0    0  0.21619521762E+02 -0.12998154898E+02  0.80819799828E+02  0.84665198259E+02  0.00000000000E+00 0.  1.
         11    1    1    2    0    0 -0.88163384794E+02 -0.80194269332E+02  0.24378187888E+03  0.27135494785E+03  0.00000000000E+00 0. -1.
</event>
<event>
 7    1  0.1243146E-005  0.1446077E+03  0.7561462E-02  0.1207260E+00
         -2   -1    0    0    0  501 -0.00000000000E+00  0.00000000000E+00  0.41117562772E+02  0.41117562772E+02  0.00000000000E+00 0.  1.
          2   -1    0    0  501    0  0.00000000000E+00 -0.00000000000E+00 -0.57791372960E+03  0.57791372960E+03  0.00000000000E+00 0. -1.
         23    2    1    2    0    0 -0.91455339841E+02 -0.55137349443E+02 -0.33524847556E+03  0.37342083473E+03  0.12508945980E+03 0.  0.
          5    1    3    3  502    0 -0.94408273815E+02 -0.97875931114E+00 -0.28152699846E+03  0.29696599704E+03  0.41800000000E+01 0.  1.
         -5    1    3    3    0  502  0.29529339733E+01 -0.54158590132E+02 -0.53721477101E+02  0.76454837689E+02  0.41800000000E+01 0.  1.
        -11    1    1    2    0    0  0.24606048790E+02  0.67928400364E+02 -0.10729920752E+03  0.12935549910E+03  0.00000000000E+00 0.  1.
         11    1    1    2    0    0  0.66849291051E+02 -0.12791050920E+02 -0.94248483745E+02  0.11625495854E+03  0.00000000000E+00 0. -1.
</event>
<event>
 7    1  0.1243146E-005  0.7183070E+02  0.7561462E-02  0.1353976E+00
          1   -1    0    0  501    0  0.00000000000E+00  0.00000000000E+00  0.85544841801E+02  0.85544841801E+02  0.00000000000E+00 0. -1.
         -1   -1    0    0    0  501 -0.00000000000E+00 -0.00000000000E+00 -0.15660839918E+03  0.15660839918E+03  0.00000000000E+00 0.  1.
         23    2    1    2    0    0 -0.28634396647E+02 -0.27931247968E+02 -0.37714225096E+02  0.13663488118E+03  0.12508654882E+03 0.  0.
          5    1    3    3  502    0 -0.30323603283E+02  0.25122708793E+02  0.30583186678E+02  0.50034739137E+02  0.41800000000E+01 0.  1.
         -5    1    3    3    0  502  0.16892066357E+01 -0.53053956761E+02 -0.68297411775E+02  0.86600142045E+02  0.41800000000E+01 0.  1.
        -11    1    1    2    0    0  0.18799023338E+02 -0.23803253505E+01  0.29494200681E+02  0.35056769690E+02  0.00000000000E+00 0. -1.
         11    1    1    2    0    0  0.98353733088E+01  0.30311573319E+02 -0.62843532961E+02  0.70461590106E+02  0.00000000000E+00 0.  1.
</event>
<event>
 7    1  0.1243146E-005  0.1019506E+03  0.7561462E-02  0.1276247E+00
         -2   -1    0    0    0  501 -0.00000000000E+00  0.00000000000E+00  0.46825230612E+03  0.46825230612E+03  0.00000000000E+00 0.  1.
          2   -1    0    0  501    0  0.00000000000E+00 -0.00000000000E+00 -0.34761451666E+02  0.34761451666E+02  0.00000000000E+00 0. -1.
         23    2    1    2    0    0  0.51315706665E+02  0.41748779076E+02  0.21266496670E+03  0.25543658029E+03  0.12508075865E+03 0.  0.
          5    1    3    3  502    0 -0.29108647906E+02 -0.31202849001E+00  0.12770201910E+03  0.13104460625E+03  0.41800000000E+01 0.  1.
         -5    1    3    3    0  502  0.80424354570E+02  0.42060807566E+02  0.84962947598E+02  0.12439197404E+03  0.41800000000E+01 0.  1.
        -11    1    1    2    0    0 -0.19304512977E+02 -0.47355051659E+02  0.20527630650E+03  0.21155029461E+03  0.00000000000E+00 0.  1.
         11    1    1    2    0    0 -0.32011193687E+02  0.56062725829E+01  0.15549581259E+02  0.36026882892E+02  0.00000000000E+00 0. -1.
</event>
<event>
 7    1  0.1243146E-005  0.1468523E+03  0.7561462E-02  0.1204395E+00
          2   -1    0    0  501    0  0.00000000000E+00  0.00000000000E+00  0.11088338985E+04  0.11088338985E+04  0.00000000000E+00 0.  1.
         -2   -1    0    0    0  501 -0.00000000000E+00 -0.00000000000E+00 -0.22438264066E+02  0.22438264066E+02  0.00000000000E+00 0. -1.
         23    2    1    2    0    0 -0.90529310161E+02  0.51818481149E+02  0.40880576637E+03  0.44005870054E+03  0.12509514104E+03 0.  0.
          5    1    3    3  502    0 -0.46385740555E+02  0.90930458369E+02  0.28745581104E+03  0.30507097681E+03  0.41800000000E+01 0.  1.
         -5    1    3    3    0  502 -0.44143569606E+02 -0.39111977221E+02  0.12134995533E+03  0.13498772373E+03  0.41800000000E+01 0.  1.
        -11    1    1    2    0    0  0.11361358175E+01 -0.42524604065E+02  0.14567441445E+03  0.15175858388E+03  0.00000000000E+00 0. -1.
         11    1    1    2    0    0  0.89393174343E+02 -0.92938770841E+01  0.53191545360E+03  0.53945487814E+03  0.00000000000E+00 0.  1.
</event>
<event>
 7    1  0.1243146E-005  0.1163191E+03  0.7561462E-02  0.1249296E+00
          4   -1    0    0  501    0  0.00000000000E+00  0.00000000000E+00  0.20834887664E+03  0.20834887664E+03  0.00000000000E+00 0. -1.
         -4   -1    0    0    0  501 -0.00000000000E+00 -0.00000000000E+00 -0.10080186065E+03  0.10080186065E+03  0.00000000000E+00 0.  1.
         23    2    1    2    0    0 -0.27597323905E+02 -0.74392592435E+02  0.17194676809E+01  0.14814277406E+03  0.12508978711E+03 0.  0.
          5    1    3    3  502    0  0.47281778502E+02 -0.20340958597E+02  0.17161047833E+02  0.54417783285E+02  0.41800000000E+01 0.  1.
         -5    1    3    3    0  502 -0.74879102406E+02 -0.54051633838E+02 -0.15441580152E+02  0.93724990772E+02  0.41800000000E+01 0.  1.
        -11    1    1    2    0    0 -0.46262176048E+01  0.44049036725E+02 -0.21164026236E+01  0.44341838999E+02  0.00000000000E+00 0.  1.
         11    1    1    2    0    0  0.32223541509E+02  0.30343555710E+02  0.10794395094E+03  0.11666612424E+03  0.00000000000E+00 0. -1.
</event>
<event>
 7    1  0.1243146E-005  0.1258565E+03  0.7561462E-02  0.1233737E+00
          2   -1    0    0  501    0  0.00000000000E+00  0.00000000000E+00  0.24605452302E+03  0.24605452302E+03  0.00000000000E+00 0. -1.
         -2   -1    0    0    0  501 -0.00000000000E+00 -0.00000000000E+00 -0.70011766004E+02  0.70011766004E+02  0.00000000000E+00 0.  1.
         23    2    1    2    0    0 -0.30582418572E+01  0.62534115068E+02  0.58509895892E+02  0.15078147797E+03  0.12406360381E+03 0.  0.
          5    1    3    3  502    0  0.55251475513E+02  0.82794378952E+01  0.40187418615E+02  0.68947629787E+02  0.41800000000E+01 0. -1.
         -5    1    3    3    0  502 -0.58309717370E+02  0.54254677173E+02  0.18322477277E+02  0.81833848183E+02  0.41800000000E+01 0.  1.
        -11    1    1    2    0    0 -0.22823442188E+02  0.19433047177E+02  0.25507925129E+02  0.39359967991E+02  0.00000000000E+00 0.  1.
         11    1    1    2    0    0  0.25881684045E+02 -0.81967162245E+02  0.92024935994E+02  0.12592484306E+03  0.00000000000E+00 0. -1.
</event>
<event>
 7    1  0.1243146E-005  0.8057468E+02  0.7561462E-02  0.1327428E+00
          1   -1    0    0  501    0  0.00000000000E+00  0.00000000000E+00  0.18871081384E+03  0.18871081384E+03  0.00000000000E+00 0. -1.
         -1   -1    0    0    0  501 -0.00000000000E+00 -0.00000000000E+00 -0.82735092669E+02  0.82735092669E+02  0.00000000000E+00 0.  1.
         23    2    1    2    0    0  0.27898249181E+02  0.48072384251E+02  0.27030824083E+02  0.13952469716E+03  0.12508880538E+03 0.  0.
          5    1    3    3  502    0  0.30258357727E+02  0.34349462827E+02  0.75792350105E+02  0.88642013421E+02  0.41800000000E+01 0. -1.
         -5    1    3    3    0  502 -0.23601085462E+01  0.13722921424E+02 -0.48761526022E+02  0.50882683741E+02  0.41800000000E+01 0. -1.
        -11    1    1    2    0    0 -0.45451776899E+02  0.40633528393E+01  0.16075302359E+02  0.48381713545E+02  0.00000000000E+00 0.  1.
         11    1    1    2    0    0  0.17553527718E+02 -0.52135737090E+02  0.62869594726E+02  0.83539495799E+02  0.00000000000E+00 0. -1.
</event>
<event>
 7    1  0.1243146E-005  0.1177734E+03  0.7561462E-02  0.1246816E+00
         -2   -1    0    0    0  501 -0.00000000000E+00  0.00000000000E+00  0.13346058887E+03  0.13346058887E+03  0.00000000000E+00 0.  1.
          2   -1    0    0  501    0  0.00000000000E+00 -0.00000000000E+00 -0.25858025050E+03  0.25858025050E+03  0.00000000000E+00 0. -1.
         23    2    1    2    0    0 -0.57309822226E+01 -0.66618307236E+02  0.75832329459E+02  0.16083437593E+03  0.12508521605E+03 0.  0.
          5    1    3    3  502    0  0.50659315936E+02 -0.66631445868E+02  0.56510418782E+02  0.10107925455E+03  0.41800000000E+01 0. -1.
         -5    1    3    3    0  502 -0.56390298159E+02  0.13138631108E-01  0.19321910677E+02  0.59755121381E+02  0.41800000000E+01 0. -1.
        -11    1    1    2    0    0  0.34900521551E+02  0.51845033736E+02 -0.18410592584E+03  0.19442465342E+03  0.00000000000E+00 0. -1.
         11    1    1    2    0    0 -0.29169539329E+02  0.14773273501E+02 -0.16846065245E+02  0.36781810026E+02  0.00000000000E+00 0.  1.
</event>
<event>
 7    1  0.1243146E-005  0.1357722E+03  0.7561462E-02  0.1219134E+00
          1   -1    0    0  501    0  0.00000000000E+00  0.00000000000E+00  0.51314172971E+03  0.51314172971E+03  0.00000000000E+00 0. -1.
         -1   -1    0    0    0  501 -0.00000000000E+00 -0.00000000000E+00 -0.43703379678E+02  0.43703379678E+02  0.00000000000E+00 0.  1.
         23    2    1    2    0    0 -0.93876263307E+02 -0.34591753279E+02  0.20698480805E+03  0.26172238539E+03  0.12508618645E+03 0.  0.
          5    1    3    3  502    0 -0.30274730433E+02 -0.61590846795E+02  0.36770809117E+02  0.77971510918E+02  0.41800000000E+01 0. -1.
         -5    1    3    3    0  502 -0.63601532874E+02  0.26999093516E+02  0.17021399894E+03  0.18375087447E+03  0.41800000000E+01 0. -1.
        -11    1    1    2    0    0  0.10055285336E+03  0.22866374635E+01  0.17792664360E+03  0.20438687711E+03  0.00000000000E+00 0. -1.
         11    1    1    2    0    0 -0.66765900480E+01  0.32305115816E+02  0.84526898370E+02  0.90735846889E+02  0.00000000000E+00 0.  1.
</event>
<event>
 7    1  0.1243146E-005  0.9504169E+02  0.7561462E-02  0.1291082E+00
         -1   -1    0    0    0  501 -0.00000000000E+00  0.00000000000E+00  0.14443853993E+04  0.14443853993E+04  0.00000000000E+00 0.  1.
          1   -1    0    0  501    0  0.00000000000E+00 -0.00000000000E+00 -0.23287145186E+02  0.23287145186E+02  0.00000000000E+00 0. -1.
         23    2    1    2    0    0  0.10816067134E+02  0.24727831661E+02  0.12466396887E+04  0.12531942376E+04  0.12512725757E+03 0.  0.
          5    1    3    3  502    0  0.26429001708E+02  0.46881926323E+02  0.11786060164E+04  0.11798415239E+04  0.41800000000E+01 0. -1.
         -5    1    3    3    0  502 -0.15612934574E+02 -0.22154094662E+02  0.68033672316E+02  0.73352713686E+02  0.41800000000E+01 0. -1.
        -11    1    1    2    0    0  0.29075121252E+02  0.29460350884E+02  0.12297444954E+03  0.12975357487E+03  0.00000000000E+00 0.  1.
         11    1    1    2    0    0 -0.39891188386E+02 -0.54188182545E+02  0.51484115855E+02  0.84724732067E+02  0.00000000000E+00 0. -1.
</event>
<event>
 7    1  0.1243146E-005  0.1304675E+03  0.7561462E-02  0.1226764E+00
          2   -1    0    0  501    0  0.00000000000E+00  0.00000000000E+00  0.12044410065E+03  0.12044410065E+03  0.00000000000E+00 0. -1.
         -2   -1    0    0    0  501 -0.00000000000E+00 -0.00000000000E+00 -0.19825848157E+03  0.19825848157E+03  0.00000000000E+00 0.  1.
         23    2    1    2    0    0 -0.10084554135E+03 -0.65988416265E+01 -0.19183845337E+02  0.16195470236E+03  0.12509171744E+03 0.  0.
          5    1    3    3  502    0 -0.11546904958E+03 -0.35657792544E+02  0.52808583824E+01  0.12103693422E+03  0.41800000000E+01 0. -1.
         -5    1    3    3    0  502  0.14623508230E+02  0.29058950917E+02 -0.24464703719E+02  0.40917768139E+02  0.41800000000E+01 0. -1.
        -11    1    1    2    0    0  0.46785414914E+02  0.20980506050E+02  0.24278378654E+02  0.56731793140E+02  0.00000000000E+00 0. -1.
         11    1    1    2    0    0  0.54060126435E+02 -0.14381664424E+02 -0.82908914244E+02  0.10001608672E+03  0.00000000000E+00 0.  1.
</event>
<event>
 7    1  0.1243146E-005  0.6767048E+02  0.7561462E-02  0.1368199E+00
          1   -1    0    0  501    0  0.00000000000E+00  0.00000000000E+00  0.93106513745E+02  0.93106513745E+02  0.00000000000E+00 0. -1.
         -1   -1    0    0    0  501 -0.00000000000E+00 -0.00000000000E+00 -0.13648158373E+03  0.13648158373E+03  0.00000000000E+00 0.  1.
         23    2    1    2    0    0  0.34546755652E+02 -0.75033630702E+01 -0.47396550644E+02  0.13836100610E+03  0.12509019232E+03 0.  0.
          5    1    3    3  502    0 -0.87563029230E+01 -0.43435409278E+01  0.39621395724E+02  0.41022756950E+02  0.41800000000E+01 0. -1.
         -5    1    3    3    0  502  0.43303058575E+02 -0.31598221424E+01 -0.87017946369E+02  0.97338249153E+02  0.41800000000E+01 0. -1.
        -11    1    1    2    0    0 -0.13653088109E+02 -0.32891645513E+02 -0.18879901552E+02  0.40307788851E+02  0.00000000000E+00 0.  1.
         11    1    1    2    0    0 -0.20893667543E+02  0.40395008583E+02  0.22901382213E+02  0.50919302520E+02  0.00000000000E+00 0. -1.
</event>
<event>
 7    1  0.1243146E-005  0.9444321E+02  0.7561462E-02  0.1292435E+00
         -1   -1    0    0    0  501 -0.00000000000E+00  0.00000000000E+00  0.21475467599E+02  0.21475467599E+02  0.00000000000E+00 0.  1.
          1   -1    0    0  501    0  0.00000000000E+00 -0.00000000000E+00 -0.61565564699E+03  0.61565564699E+03  0.00000000000E+00 0. -1.
         23    2    1    2    0    0 -0.31801695354E+02  0.15719954385E+02 -0.29388623036E+03  0.32137037893E+03  0.12510531269E+03 0.  0.
          5    1    3    3  502    0 -0.31267902360E+02 -0.38141290942E+02 -0.24005166747E+03  0.24510143869E+03  0.41800000000E+01 0.  1.
         -5    1    3    3    0  502 -0.53379299361E+00  0.53861245327E+02 -0.53834562889E+02  0.76268940235E+02  0.41800000000E+01 0.  1.
        -11    1    1    2    0    0  0.10659669212E+02 -0.46675680866E+02 -0.87986325768E+02  0.10016906336E+03  0.00000000000E+00 0.  1.
         11    1    1    2    0    0  0.21142026141E+02  0.30955726481E+02 -0.21230762326E+03  0.21559167230E+03  0.00000000000E+00 0. -1.
</event>
<event>
 7    1  0.1243146E-005  0.9266586E+02  0.7561462E-02  0.1296521E+00
          4   -1    0    0  501    0  0.00000000000E+00  0.00000000000E+00  0.16267608725E+03  0.16267608725E+03  0.00000000000E+00 0. -1.
         -4   -1    0    0    0  501 -0.00000000000E+00 -0.00000000000E+00 -0.10579384151E+03  0.10579384151E+03  0.00000000000E+00 0.  1.
         23    2    1    2    0    0 -0.67178939599E+02 -0.13238283489E+02  0.68665588192E+01  0.14277047008E+03  0.12509194787E+03 0.  0.
          5    1    3    3  502    0 -0.12582900107E+02  0.31092749804E+01  0.61932645371E+02  0.63412316853E+02  0.41800000000E+01 0.  1.
         -5    1    3    3    0  502 -0.54596039492E+02 -0.16347558470E+02 -0.55066086552E+02  0.79358153231E+02  0.41800000000E+01 0.  1.
        -11    1    1    2    0    0 -0.61897951236E+01  0.36949119899E+02  0.97410291040E+01  0.38709671569E+02  0.00000000000E+00 0.  1.
         11    1    1    2    0    0  0.73368734723E+02 -0.23710836409E+02  0.40274657812E+02  0.86989787101E+02  0.00000000000E+00 0. -1.
</event>
<event>
 7    1  0.1243146E-005  0.8220069E+02  0.7561462E-02  0.1322920E+00
         -1   -1    0    0    0  501 -0.00000000000E+00  0.00000000000E+00  0.10429133576E+03  0.10429133576E+03  0.00000000000E+00 0.  1.
          1   -1    0    0  501    0  0.00000000000E+00 -0.00000000000E+00 -0.12746465964E+03  0.12746465964E+03  0.00000000000E+00 0. -1.
         23    2    1    2    0    0  0.27947433170E+02 -0.26969838066E+01  0.15496764384E+02  0.12913512088E+03  0.12508955590E+03 0.  0.
          5    1    3    3  502    0 -0.47038612547E+02  0.17525466418E+02  0.79132202741E+01  0.50988866418E+02  0.41800000000E+01 0. -1.
         -5    1    3    3    0  502  0.74986045718E+02 -0.20222450224E+02  0.75835441099E+01  0.78146254464E+02  0.41800000000E+01 0. -1.
        -11    1    1    2    0    0 -0.23250734372E+02 -0.79852407299E+01 -0.67329323776E+02  0.71677043455E+02  0.00000000000E+00 0. -1.
         11    1    1    2    0    0 -0.46966987982E+01  0.10682224536E+02  0.28659235517E+02  0.30943831066E+02  0.00000000000E+00 0.  1.
</event>
<event>
 7    1  0.1243146E-005  0.1489493E+03  0.7561462E-02  0.1201770E+00
          1   -1    0    0  501    0  0.00000000000E+00  0.00000000000E+00  0.69807175826E+03  0.69807175826E+03  0.00000000000E+00 0. -1.
         -1   -1    0    0    0  501 -0.00000000000E+00 -0.00000000000E+00 -0.41029231257E+02  0.41029231257E+02  0.00000000000E+00 0.  1.
         23    2    1    2    0    0 -0.10539920098E+03 -0.71938301995E+02  0.29619071303E+03  0.34592131859E+03  0.12509400189E+03 0.  0.
          5    1    3    3  502    0 -0.22691691279E+00 -0.43612934994E+02  0.18416883947E+02  0.47526767242E+02  0.41800000000E+01 0.  1.
         -5    1    3    3    0  502 -0.10517228406E+03 -0.28325367000E+02  0.27777382908E+03  0.29839455135E+03  0.41800000000E+01 0.  1.
        -11    1    1    2    0    0  0.14193169629E+02 -0.13880151219E+02  0.13674571330E+02  0.24105986041E+02  0.00000000000E+00 0.  1.
         11    1    1    2    0    0  0.91206031348E+02  0.85818453213E+02  0.34717724264E+03  0.36907368489E+03  0.00000000000E+00 0. -1.
</event>
<event>
 7    1  0.1243146E-005  0.1406284E+03  0.7561462E-02  0.1212486E+00
          2   -1    0    0  501    0  0.00000000000E+00  0.00000000000E+00  0.42154700921E+03  0.42154700921E+03  0.00000000000E+00 0. -1.
         -2   -1    0    0    0  501 -0.00000000000E+00 -0.00000000000E+00 -0.64001840765E+02  0.64001840765E+02  0.00000000000E+00 0.  1.
         23    2    1    2    0    0  0.18220477758E+02  0.10477955072E+03  0.10044072795E+03  0.19247485539E+03  0.12508992792E+03 0.  0.
          5    1    3    3  502    0  0.40434201950E+01  0.12552964211E+03  0.10821687202E+03  0.16583848795E+03  0.41800000000E+01 0. -1.
         -5    1    3    3    0  502  0.14177057563E+02 -0.20750091394E+02 -0.77761440672E+01  0.26636367443E+02  0.41800000000E+01 0. -1.
        -11    1    1    2    0    0 -0.38221403359E+02 -0.20252787104E+02  0.38738406785E+02  0.58066472429E+02  0.00000000000E+00 0.  1.
         11    1    1    2    0    0  0.20000925601E+02 -0.84526763612E+02  0.21836603371E+03  0.23500752216E+03  0.00000000000E+00 0. -1.
</event>
<event>
 7    1  0.1243146E-005  0.2036081E+03  0.7561462E-02  0.1146730E+00
          3   -1    0    0  501    0  0.00000000000E+00  0.00000000000E+00  0.63211754343E+03  0.63211754343E+03  0.00000000000E+00 0. -1.
         -3   -1    0    0    0  501 -0.00000000000E+00 -0.00000000000E+00 -0.81221543288E+02  0.81221543288E+02  0.00000000000E+00 0.  1.
         23    2    1    2    0    0 -0.10177836113E+03  0.14212966149E+03  0.14315289600E+03  0.25826323724E+03  0.12508985813E+03 0.  0.
          5    1    3    3  502    0 -0.79321019193E+02  0.16261989189E+03  0.10476518970E+03  0.20911783926E+03  0.41800000000E+01 0. -1.
         -5    1    3    3    0  502 -0.22457341937E+02 -0.20490230392E+02  0.38387706293E+02  0.49145397982E+02  0.41800000000E+01 0. -1.
        -11    1    1    2    0    0  0.11638670588E+03 -0.13766856735E+03  0.33178667462E+03  0.37759885752E+03  0.00000000000E+00 0.  1.
         11    1    1    2    0    0 -0.14608344745E+02 -0.44610941396E+01  0.75956429521E+02  0.77476991957E+02  0.00000000000E+00 0. -1.
</event>
<event>
 7    1  0.1243146E-005  0.1172760E+03  0.7561462E-02  0.1247660E+00
          1   -1    0    0  501    0  0.00000000000E+00  0.00000000000E+00  0.32075473120E+02  0.32075473120E+02  0.00000000000E+00 0. -1.
         -1   -1    0    0    0  501 -0.00000000000E+00 -0.00000000000E+00 -0.78351349091E+03  0.78351349091E+03  0.00000000000E+00 0.  1.
         23    2    1    2    0    0  0.52472731436E+02 -0.47506842167E+02 -0.62883259557E+03  0.64504637246E+03  0.12507638376E+03 0.  0.
          5    1    3    3  502    0  0.77995651388E+02 -0.69024136987E+02 -0.54183360655E+03  0.55176877649E+03  0.41800000000E+01 0. -1.
         -5    1    3    3    0  502 -0.25522919953E+02  0.21517294820E+02 -0.86998989021E+02  0.93277595970E+02  0.41800000000E+01 0. -1.
        -11    1    1    2    0    0 -0.53288956829E+00  0.44651069293E+02 -0.89409881571E+01  0.45540566856E+02  0.00000000000E+00 0. -1.
         11    1    1    2    0    0 -0.51939841867E+02  0.28557728734E+01 -0.11366443406E+03  0.12500202471E+03  0.00000000000E+00 0.  1.
</event>
<event>
 7    1  0.1243146E-005  0.8233554E+02  0.7561462E-02  0.1322551E+00
          2   -1    0    0  501    0  0.00000000000E+00  0.00000000000E+00  0.13350759710E+03  0.13350759710E+03  0.00000000000E+00 0. -1.
         -2   -1    0    0    0  501 -0.00000000000E+00 -0.00000000000E+00 -0.11426276104E+03  0.11426276104E+03  0.00000000000E+00 0.  1.
         23    2    1    2    0    0 -0.31415280097E+01 -0.16934597986E+02 -0.53916745498E+02  0.13730623095E+03  0.12509730535E+03 0.  0.
          5    1    3    3  502    0 -0.44717393071E+02 -0.12870989434E+02  0.21159858271E+02  0.51288591462E+02  0.41800000000E+01 0.  1.
         -5    1    3    3    0  502  0.41575865062E+02 -0.40636085514E+01 -0.75076603768E+02  0.86017639490E+02  0.41800000000E+01 0.  1.
        -11    1    1    2    0    0  0.20804798093E+02  0.41082345539E+02  0.64621684531E+02  0.79350871768E+02  0.00000000000E+00 0. -1.
         11    1    1    2    0    0 -0.17663270083E+02 -0.24147747554E+02  0.85398970228E+01  0.31113255424E+02  0.00000000000E+00 0.  1.
</event>
<event>
 7    1  0.1243146E-005  0.1211444E+03  0.7561462E-02  0.1241221E+00
          1   -1    0    0  501    0  0.00000000000E+00  0.00000000000E+00  0.15523267757E+03  0.15523267757E+03  0.00000000000E+00 0. -1.
         -1   -1    0    0    0  501 -0.00000000000E+00 -0.00000000000E+00 -0.13728975626E+03  0.13728975626E+03  0.00000000000E+00 0.  1.
         23    2    1    2    0    0  0.72252586221E+02 -0.19108200405E+02 -0.55580660704E+02  0.15596077119E+03  0.12509593426E+03 0.  0.
          5    1    3    3  502    0  0.14798423599E+02 -0.67546789104E+02 -0.16756931270E+02  0.71272920558E+02  0.41800000000E+01 0.  1.
         -5    1    3    3    0  502  0.57454162622E+02  0.48438588699E+02 -0.38823729434E+02  0.84687850633E+02  0.41800000000E+01 0.  1.
        -11    1    1    2    0    0 -0.55767243194E+02 -0.16795665860E+02  0.62908971049E+01  0.58580331098E+02  0.00000000000E+00 0.  1.
         11    1    1    2    0    0 -0.16485343027E+02  0.35903866265E+02  0.67232684912E+02  0.77981331535E+02  0.00000000000E+00 0. -1.
</event>
<event>
 7    1  0.1243146E-005  0.1925836E+03  0.7561462E-02  0.1156152E+00
          1   -1    0    0  501    0  0.00000000000E+00  0.00000000000E+00  0.50601960854E+03  0.50601960854E+03  0.00000000000E+00 0. -1.
         -1   -1    0    0    0  501 -0.00000000000E+00 -0.00000000000E+00 -0.10627238604E+03  0.10627238604E+03  0.00000000000E+00 0.  1.
         23    2    1    2    0    0  0.16556343295E+03 -0.48183615296E+02  0.63229704516E+02  0.22221233167E+03  0.12508962267E+03 0.  0.
          5    1    3    3  502    0  0.18251009456E+03 -0.28416056775E+02  0.64811110328E+02  0.19579417591E+03  0.41800000000E+01 0.  1.
         -5    1    3    3    0  502 -0.16946661605E+02 -0.19767558522E+02 -0.15814058128E+01  0.26418155761E+02  0.41800000000E+01 0.  1.
        -11    1    1    2    0    0 -0.38855071393E+02  0.11127678058E+01  0.15649427040E+02  0.41902975930E+02  0.00000000000E+00 0.  1.
         11    1    1    2    0    0 -0.12670836156E+03  0.47070847490E+02  0.32086809094E+03  0.34817668698E+03  0.00000000000E+00 0. -1.
</event>
<event>
 7    1  0.1243146E-005  0.1940145E+03  0.7561462E-02  0.1154890E+00
         -2   -1    0    0    0  501 -0.00000000000E+00  0.00000000000E+00  0.17708611274E+03  0.17708611274E+03  0.00000000000E+00 0.  1.
          2   -1    0    0  501    0  0.00000000000E+00 -0.00000000000E+00 -0.27796188400E+03  0.27796188400E+03  0.00000000000E+00 0. -1.
         23    2    1    2    0    0 -0.18151881277E+03  0.29471539841E+02  0.91743585815E+01  0.22260094222E+03  0.12509740034E+03 0.  0.
          5    1    3    3  502    0 -0.98395335456E+01 -0.23991168508E+01  0.43275230509E+02  0.44640678285E+02  0.41800000000E+01 0. -1.
         -5    1    3    3    0  502 -0.17167927923E+03  0.31870656692E+02 -0.34100871928E+02  0.17796026393E+03  0.41800000000E+01 0. -1.
        -11    1    1    2    0    0  0.54424745112E+02 -0.49715718168E+02 -0.57277818322E+02  0.93351239869E+02  0.00000000000E+00 0. -1.
         11    1    1    2    0    0  0.12709406766E+03  0.20244178326E+02 -0.52772311520E+02  0.13909581465E+03  0.00000000000E+00 0.  1.
</event>
<event>
 7    1  0.1243146E-005  0.7550848E+02  0.7561462E-02  0.1342304E+00
          1   -1    0    0  501    0  0.00000000000E+00  0.00000000000E+00  0.48138647652E+02  0.48138647652E+02  0.00000000000E+00 0. -1.
         -1   -1    0    0    0  501 -0.00000000000E+00 -0.00000000000E+00 -0.25795026825E+03  0.25795026825E+03  0.00000000000E+00 0.  1.
         23    2    1    2    0    0  0.88037312697E-02 -0.18043152298E+01 -0.15506900583E+03  0.19924152788E+03  0.12509010445E+03 0.  0.
          5    1    3    3  502    0 -0.50028488521E+02  0.23238877353E+02 -0.12238203321E+03  0.13430461473E+03  0.41800000000E+01 0. -1.
         -5    1    3    3    0  502  0.50037292252E+02 -0.25043192583E+02 -0.32686972619E+02  0.64936913152E+02  0.41800000000E+01 0. -1.
        -11    1    1    2    0    0 -0.18852704944E+02  0.68828487877E+01 -0.75638014939E+02  0.78255398504E+02  0.00000000000E+00 0.  1.
         11    1    1    2    0    0  0.18843901213E+02 -0.50785335579E+01  0.20895400173E+02  0.28591989515E+02  0.00000000000E+00 0. -1.
</event>
<event>
 7    1  0.1243146E-005  0.3412635E+03  0.7561462E-02  0.1066259E+00
          2   -1    0    0  501    0  0.00000000000E+00  0.00000000000E+00  0.75179194570E+03  0.75179194570E+03  0.00000000000E+00 0. -1.
         -2   -1    0    0    0  501 -0.00000000000E+00 -0.00000000000E+00 -0.17188606913E+03  0.17188606913E+03  0.00000000000E+00 0.  1.
         23    2    1    2    0    0  0.24351778197E+03 -0.23245732635E+03  0.21167169774E+03  0.41688075599E+03  0.12508932160E+03 0.  0.
          5    1    3    3  502    0  0.37595297888E+02 -0.79971436519E+02  0.66923965348E+01  0.88719206791E+02  0.41800000000E+01 0. -1.
         -5    1    3    3    0  502  0.20592248408E+03 -0.15248588983E+03  0.20497930120E+03  0.32816154920E+03  0.41800000000E+01 0. -1.
        -11    1    1    2    0    0 -0.12363873797E+03  0.13707396728E+03  0.13896760845E+03  0.23105801486E+03  0.00000000000E+00 0.  1.
         11    1    1    2    0    0 -0.11987904400E+03  0.95383359073E+02  0.22926657039E+03  0.27573924399E+03  0.00000000000E+00 0. -1.
</event>
<event>
 7    1  0.1243146E-005  0.1319960E+03  0.7561462E-02  0.1224524E+00
          1   -1    0    0  501    0  0.00000000000E+00  0.00000000000E+00  0.86557995713E+03  0.86557995713E+03  0.00000000000E+00 0. -1.
         -1   -1    0    0    0  501 -0.00000000000E+00 -0.00000000000E+00 -0.22518140322E+02  0.22518140322E+02  0.00000000000E+00 0.  1.
         23    2    1    2    0    0  0.76168218057E+02 -0.16328180200E+02  0.34681639268E+03  0.37682509320E+03  0.12508930299E+03 0.  0.
          5    1    3    3  502    0 -0.32641907806E+02  0.32491068745E+01  0.48927098142E+02  0.59054078380E+02  0.41800000000E+01 0.  1.
         -5    1    3    3    0  502  0.10881012586E+03 -0.19577287074E+02  0.29788929454E+03  0.31777101482E+03  0.41800000000E+01 0.  1.
        -11    1    1    2    0    0 -0.24816439260E+02  0.52097134428E+02  0.29230801814E+03  0.29794956712E+03  0.00000000000E+00 0.  1.
         11    1    1    2    0    0 -0.51351778797E+02 -0.35768954228E+02  0.20393740599E+03  0.21332343714E+03  0.00000000000E+00 0. -1.
</event>
<event>
 7    1  0.1243146E-005  0.1749411E+03  0.7561462E-02  0.1172791E+00
         -2   -1    0    0    0  501 -0.00000000000E+00  0.00000000000E+00  0.11306883138E+04  0.11306883138E+04  0.00000000000E+00 0. -1.
          2   -1    0    0  501    0  0.00000000000E+00 -0.00000000000E+00 -0.29007148247E+02  0.29007148247E+02  0.00000000000E+00 0.  1.
         23    2    1    2    0    0 -0.55164924228E+01  0.14495772253E+03  0.57005165950E+03  0.60137304126E+03  0.12508983671E+03 0.  0.
          5    1    3    3  502    0  0.54879896995E+02  0.91971683453E+02  0.38385744673E+03  0.39854059450E+03  0.41800000000E+01 0.  1.
         -5    1    3    3    0  502 -0.60396389418E+02  0.52986039074E+02  0.18619421277E+03  0.20283244677E+03  0.41800000000E+01 0.  1.
        -11    1    1    2    0    0  0.36138062725E+02 -0.45061010267E+02  0.27939881215E+03  0.28530711603E+03  0.00000000000E+00 0. -1.
         11    1    1    2    0    0 -0.30621570303E+02 -0.99896712260E+02  0.25223069394E+03  0.27301530479E+03  0.00000000000E+00 0.  1.
</event>
<event>
 7    1  0.1243146E-005  0.1136578E+03  0.7561462E-02  0.1253942E+00
         -1   -1    0    0    0  501 -0.00000000000E+00  0.00000000000E+00  0.34816770176E+02  0.34816770176E+02  0.00000000000E+00 0.  1.
          1   -1    0    0  501    0  0.00000000000E+00 -0.00000000000E+00 -0.60730020584E+03  0.60730020584E+03  0.00000000000E+00 0. -1.
         23    2    1    2    0    0 -0.40308848939E+01  0.79964022651E+02 -0.19287226245E+03  0.24342831949E+03  0.12508854527E+03 0.  0.
          5    1    3    3  502    0  0.38266227224E+02  0.61854882352E+02 -0.38726351648E+02  0.82507777383E+02  0.41800000000E+01 0. -1.
         -5    1    3    3    0  502 -0.42297112118E+02  0.18109140299E+02 -0.15414591080E+03  0.16092054211E+03  0.41800000000E+01 0. -1.
        -11    1    1    2    0    0  0.38500595990E+02 -0.43085416260E+02 -0.10858375252E+03  0.12300032641E+03  0.00000000000E+00 0.  1.
         11    1    1    2    0    0 -0.34469711096E+02 -0.36878606391E+02 -0.27102742069E+03  0.27568833011E+03  0.00000000000E+00 0. -1.
</event>
<event>
 7    1  0.1243146E-005  0.1270059E+03  0.7561462E-02  0.1231967E+00
          1   -1    0    0  501    0  0.00000000000E+00  0.00000000000E+00  0.10238996610E+03  0.10238996610E+03  0.00000000000E+00 0. -1.
         -1   -1    0    0    0  501 -0.00000000000E+00 -0.00000000000E+00 -0.17093726573E+03  0.17093726573E+03  0.00000000000E+00 0.  1.
         23    2    1    2    0    0 -0.59462118308E+02 -0.56197807653E+02 -0.46272420407E+02  0.14922350215E+03  0.11589900605E+03 0.  0.
          5    1    3    3  502    0 -0.36992632161E+02 -0.88797112436E+02 -0.12649935780E+02  0.97112693745E+02  0.41800000000E+01 0. -1.
         -5    1    3    3    0  502 -0.22469486147E+02  0.32599304782E+02 -0.33622484627E+02  0.52110808404E+02  0.41800000000E+01 0.  1.
        -11    1    1    2    0    0 -0.12174305256E+02  0.43486097932E+02 -0.24377572669E+02  0.51317837747E+02  0.00000000000E+00 0. -1.
         11    1    1    2    0    0  0.71636423564E+02  0.12711709721E+02  0.21026934513E+01  0.72785891935E+02  0.00000000000E+00 0.  1.
</event>
<event>
 7    1  0.1243146E-005  0.8805395E+02  0.7561462E-02  0.1307634E+00
          2   -1    0    0  501    0  0.00000000000E+00  0.00000000000E+00  0.32651757913E+03  0.32651757913E+03  0.00000000000E+00 0. -1.
         -2   -1    0    0    0  501 -0.00000000000E+00 -0.00000000000E+00 -0.38784393391E+02  0.38784393391E+02  0.00000000000E+00 0.  1.
         23    2    1    2    0    0  0.44610094651E+02  0.26632263030E+01  0.11646925658E+03  0.16632360114E+03  0.11000590552E+03 0.  0.
          5    1    3    3  502    0 -0.15142731374E+02  0.90761850030E+01  0.10301224117E+03  0.10459767530E+03  0.41800000000E+01 0. -1.
         -5    1    3    3    0  502  0.59752826025E+02 -0.64129586999E+01  0.13457015411E+02  0.61725925842E+02  0.41800000000E+01 0.  1.
        -11    1    1    2    0    0  0.26472501969E+02 -0.29901837581E+01  0.72921588530E+02  0.77635640225E+02  0.00000000000E+00 0.  1.
         11    1    1    2    0    0 -0.71082596620E+02  0.32695745501E+00  0.98342340630E+02  0.12134273115E+03  0.00000000000E+00 0. -1.
</event>
<event>
 7    1  0.1243146E-005  0.9866683E+02  0.7561462E-02  0.1283125E+00
          1   -1    0    0  501    0  0.00000000000E+00  0.00000000000E+00  0.52355484418E+03  0.52355484418E+03  0.00000000000E+00 0. -1.
         -1   -1    0    0    0  501 -0.00000000000E+00 -0.00000000000E+00 -0.45835395940E+02  0.45835395940E+02  0.00000000000E+00 0.  1.
         23    2    1    2    0    0  0.43129307362E+02 -0.79727617777E+02  0.14161281003E+03  0.20956829951E+03  0.12509218202E+03 0.  0.
          5    1    3    3  502    0  0.39425402973E+01 -0.59813415645E+02  0.15265344230E+03  0.16405405865E+03  0.41800000000E+01 0. -1.
         -5    1    3    3    0  502  0.39186767065E+02 -0.19914202132E+02 -0.11040632268E+02  0.45514240853E+02  0.41800000000E+01 0. -1.
        -11    1    1    2    0    0 -0.17540889069E+01  0.21980336490E+02  0.69989101837E+01  0.23134320043E+02  0.00000000000E+00 0.  1.
         11    1    1    2    0    0 -0.41375218455E+02  0.57747281287E+02  0.32910772802E+03  0.33668762057E+03  0.00000000000E+00 0. -1.
</event>
<event>
 7    1  0.1243146E-005  0.1120727E+03  0.7561462E-02  0.1256779E+00
          2   -1    0    0  501    0  0.00000000000E+00  0.00000000000E+00  0.34398576386E+03  0.34398576386E+03  0.00000000000E+00 0. -1.
         -2   -1    0    0    0  501 -0.00000000000E+00 -0.00000000000E+00 -0.57330593582E+02  0.57330593582E+02  0.00000000000E+00 0.  1.
         23    2    1    2    0    0 -0.72197334278E+02  0.43253226577E+02  0.11691338345E+03  0.19078270017E+03  0.12508398286E+03 0.  0.
          5    1    3    3  502    0 -0.37264207406E+02 -0.20515814668E+02  0.10953500426E+03  0.11757937474E+03  0.41800000000E+01 0.  1.
         -5    1    3    3    0  502 -0.34933126872E+02  0.63769041245E+02  0.73783791872E+01  0.73203325429E+02  0.41800000000E+01 0.  1.
        -11    1    1    2    0    0  0.10009920333E+02  0.18435175158E+02  0.88880798002E+02  0.91322781613E+02  0.00000000000E+00 0. -1.
         11    1    1    2    0    0  0.62187413946E+02 -0.61688401735E+02  0.80860988823E+02  0.11921087566E+03  0.00000000000E+00 0.  1.
</event>
<event>
 7    1  0.1243146E-005  0.1048898E+03  0.7561462E-02  0.1270337E+00
         -1   -1    0    0    0  501 -0.00000000000E+00  0.00000000000E+00  0.48571437130E+02  0.48571437130E+02  0.00000000000E+00 0.  1.
          1   -1    0    0  501    0  0.00000000000E+00 -0.00000000000E+00 -0.28164715905E+03  0.28164715905E+03  0.00000000000E+00 0. -1.
         23    2    1    2    0    0 -0.12706309826E+02 -0.46768306341E+02 -0.12927535109E+03  0.18452637050E+03  0.12243014426E+03 0.  0.
          5    1    3    3  502    0  0.51971176439E+02 -0.31601148804E+02 -0.39039441402E+02  0.72396036985E+02  0.41800000000E+01 0. -1.
         -5    1    3    3    0  502 -0.64677486265E+02 -0.15167157538E+02 -0.90235909686E+02  0.11213033352E+03  0.41800000000E+01 0.  1.
        -11    1    1    2    0    0  0.68502083314E+01  0.63836565448E+02 -0.10935726758E+03  0.12681105794E+03  0.00000000000E+00 0. -1.
         11    1    1    2    0    0  0.58561014948E+01 -0.17068259107E+02  0.55568967532E+01  0.18881167739E+02  0.00000000000E+00 0.  1.
</event>
<event>
 7    1  0.1243146E-005  0.1131535E+03  0.7561462E-02  0.1254839E+00
          2   -1    0    0  501    0  0.00000000000E+00  0.00000000000E+00  0.39254254482E+03  0.39254254482E+03  0.00000000000E+00 0. -1.
         -2   -1    0    0    0  501 -0.00000000000E+00 -0.00000000000E+00 -0.43858028847E+02  0.43858028847E+02  0.00000000000E+00 0.  1.
         23    2    1    2    0    0 -0.26136323475E+02 -0.66939192038E+02  0.17105156245E+03  0.22376362493E+03  0.12509020741E+03 0.  0.
          5    1    3    3  502    0  0.19236652641E+02 -0.74529300016E+02  0.15793744891E+03  0.17574520060E+03  0.41800000000E+01 0. -1.
         -5    1    3    3    0  502 -0.45372976116E+02  0.75901079788E+01  0.13114113533E+02  0.48018424323E+02  0.41800000000E+01 0. -1.
        -11    1    1    2    0    0 -0.24723755950E+02  0.35415376123E+02  0.12735864513E+03  0.13448322373E+03  0.00000000000E+00 0.  1.
         11    1    1    2    0    0  0.50860079425E+02  0.31523815915E+02  0.50274308392E+02  0.78153725012E+02  0.00000000000E+00 0. -1.
</event>
<event>
 6    1  0.1243146E-005  0.1362358E+03  0.7561462E-02  0.1218486E+00
         -3   -1    0    0    0  501 -0.00000000000E+00  0.00000000000E+00  0.11734894580E+04  0.11734894580E+04  0.00000000000E+00 0.  1.
          3   -1    0    0  501    0  0.00000000000E+00 -0.00000000000E+00 -0.35738357007E+02  0.35738357007E+02  0.00000000000E+00 0. -1.
          5    1    1    2  502    0 -0.26813623758E+02  0.72085943226E+02  0.12986368038E+03  0.15098808401E+03  0.41800000000E+01 0. -1.
         -5    1    1    2    0  502 -0.54907393176E+02 -0.29632380561E+02  0.84040218848E+03  0.84272546574E+03  0.41800000000E+01 0.  1.
        -11    1    1    2    0    0 -0.21642155105E+02 -0.13744276162E+02  0.17214120627E+02  0.30880640436E+02  0.00000000000E+00 0.  1.
         11    1    1    2    0    0  0.10336317204E+03 -0.28709286503E+02  0.15027111154E+03  0.18463362486E+03  0.00000000000E+00 0. -1.
</event>
<event>
 7    1  0.1243146E-005  0.1485170E+03  0.7561462E-02  0.1202307E+00
          2   -1    0    0  501    0  0.00000000000E+00  0.00000000000E+00  0.71518868657E+03  0.71518868657E+03  0.00000000000E+00 0. -1.
         -2   -1    0    0    0  501 -0.00000000000E+00 -0.00000000000E+00 -0.34155742667E+02  0.34155742667E+02  0.00000000000E+00 0.  1.
         23    2    1    2    0    0  0.98984164762E+02  0.50387477890E+02  0.40868572082E+03  0.44159722465E+03  0.12508927855E+03 0.  0.
          5    1    3    3  502    0 -0.17934905565E+02 -0.16940869337E+02  0.12441219377E+03  0.12690358644E+03  0.41800000000E+01 0.  1.
         -5    1    3    3    0  502  0.11691907033E+03  0.67328347227E+02  0.28427352705E+03  0.31469363821E+03  0.41800000000E+01 0.  1.
        -11    1    1    2    0    0 -0.67996067904E+02  0.10410032149E+02  0.91641237707E+02  0.11458599595E+03  0.00000000000E+00 0.  1.
         11    1    1    2    0    0 -0.30988096859E+02 -0.60797510039E+02  0.18070598537E+03  0.19316120864E+03  0.00000000000E+00 0. -1.
</event>
<event>
 6    1  0.1243146E-005  0.1430992E+03  0.7561462E-02  0.1209219E+00
         -1   -1    0    0    0  501 -0.00000000000E+00  0.00000000000E+00  0.55358319147E+02  0.55358319147E+02  0.00000000000E+00 0.  1.
          1   -1    0    0  501    0  0.00000000000E+00 -0.00000000000E+00 -0.40775227055E+03  0.40775227055E+03  0.00000000000E+00 0. -1.
          5    1    1    2  502    0 -0.19715164983E+02  0.56655549962E+02 -0.10952887139E+03  0.12495033069E+03  0.41800000000E+01 0. -1.
         -5    1    1    2    0  502  0.74155153481E+02 -0.87512139351E+02 -0.76852609606E+02  0.13813456238E+03  0.41800000000E+01 0.  1.
        -11    1    1    2    0    0  0.14888181815E+02 -0.20264300287E+02 -0.31650353722E+02  0.40423318947E+02  0.00000000000E+00 0.  1.
         11    1    1    2    0    0 -0.69328170314E+02  0.51120889676E+02 -0.13436211669E+03  0.15960237768E+03  0.00000000000E+00 0. -1.
</event>
<event>
 7    1  0.1243146E-005  0.1475435E+03  0.7561462E-02  0.1203524E+00
         -1   -1    0    0    0  501 -0.00000000000E+00  0.00000000000E+00  0.28106631617E+03  0.28106631617E+03  0.00000000000E+00 0.  1.
          1   -1    0    0  501    0  0.00000000000E+00 -0.00000000000E+00 -0.85171470849E+02  0.85171470849E+02  0.00000000000E+00 0. -1.
         23    2    1    2    0    0  0.28987578133E+02 -0.86267084450E+02  0.15670378407E+03  0.22019533200E+03  0.12509044226E+03 0.  0.
          5    1    3    3  502    0  0.75834263718E+01 -0.11675063557E+03  0.12264629963E+03  0.16955178110E+03  0.41800000000E+01 0.  1.
         -5    1    3    3    0  502  0.21404151761E+02  0.30483551116E+02  0.34057484443E+02  0.50643550901E+02  0.41800000000E+01 0.  1.
        -11    1    1    2    0    0 -0.66999530059E+02  0.75678546662E+02  0.25123919419E+02  0.10415080787E+03  0.00000000000E+00 0. -1.
         11    1    1    2    0    0  0.38011951926E+02  0.10588537788E+02  0.14067141828E+02  0.41891647150E+02  0.00000000000E+00 0.  1.
</event>
<event>
 6    1  0.1243146E-005  0.1094158E+03  0.7561462E-02  0.1261656E+00
          4   -1    0    0  501    0  0.00000000000E+00  0.00000000000E+00  0.77355585566E+03  0.77355585566E+03  0.00000000000E+00 0. -1.
         -4   -1    0    0    0  501 -0.00000000000E+00 -0.00000000000E+00 -0.56326705628E+02  0.56326705628E+02  0.00000000000E+00 0.  1.
          5    1    1    2  502    0 -0.73080960001E+02 -0.35739161656E+02  0.37339983424E+03  0.38218192396E+03  0.41800000000E+01 0. -1.
         -5    1    1    2    0  502 -0.41779717063E+01  0.17883760013E+02 -0.40485068295E+02  0.44651959359E+02  0.41800000000E+01 0.  1.
        -11    1    1    2    0    0 -0.16893361344E+02  0.17585100949E+02  0.12034530913E+03  0.12279093966E+03  0.00000000000E+00 0.  1.
         11    1    1    2    0    0  0.94152293051E+02  0.27030069401E+00  0.26396907495E+03  0.28025773831E+03  0.00000000000E+00 0. -1.
</event>
<event>
 7    1  0.1243146E-005  0.1649648E+03  0.7561462E-02  0.1183203E+00
         -2   -1    0    0    0  501 -0.00000000000E+00  0.00000000000E+00  0.42876239864E+02  0.42876239864E+02  0.00000000000E+00 0.  1.
          2   -1    0    0  501    0  0.00000000000E+00 -0.00000000000E+00 -0.76087124450E+03  0.76087124450E+03  0.00000000000E+00 0. -1.
         23    2    1    2    0    0 -0.14481410328E+03 -0.14365119018E+02 -0.36696373772E+03  0.41410581811E+03  0.12507502802E+03 0.  0.
          5    1    3    3  502    0 -0.95047166060E+01  0.24988980101E+02 -0.76437767231E+01  0.28119183609E+02  0.41800000000E+01 0. -1.
         -5    1    3    3    0  502 -0.13530938667E+03 -0.39354099119E+02 -0.35931996100E+03  0.38598663450E+03  0.41800000000E+01 0. -1.
        -11    1    1    2    0    0  0.42531895751E+02  0.37863901917E+02 -0.73827984784E+02  0.93237377493E+02  0.00000000000E+00 0.  1.
         11    1    1    2    0    0  0.10228220753E+03 -0.23498782899E+02 -0.27720328213E+03  0.29640428876E+03  0.00000000000E+00 0. -1.
</event>
<event>
 7    1  0.1243146E-005  0.1810036E+03  0.7561462E-02  0.1166835E+00
          2   -1    0    0  501    0  0.00000000000E+00  0.00000000000E+00  0.63913068918E+03  0.63913068918E+03  0.00000000000E+00 0. -1.
         -2   -1    0    0    0  501 -0.00000000000E+00 -0.00000000000E+00 -0.66021052895E+02  0.66021052895E+02  0.00000000000E+00 0.  1.
         23    2    1    2    0    0  0.14501870981E+03 -0.94484681889E+02  0.26152526561E+03  0.33763988497E+03  0.12508975204E+03 0.  0.
          5    1    3    3  502    0  0.42038448895E+02 -0.44884889736E+01  0.16451486400E+03  0.16991171412E+03  0.41800000000E+01 0. -1.
         -5    1    3    3    0  502  0.10298026091E+03 -0.89996192915E+02  0.97010401611E+02  0.16772817085E+03  0.41800000000E+01 0. -1.
        -11    1    1    2    0    0 -0.58002051103E+02  0.55409326086E+01  0.46042043599E+02  0.74261764354E+02  0.00000000000E+00 0.  1.
         11    1    1    2    0    0 -0.87016658703E+02  0.88943749280E+02  0.26554232708E+03  0.29325009275E+03  0.00000000000E+00 0. -1.
</event>
<event>
 7    1  0.1243146E-005  0.1040016E+03  0.7561462E-02  0.1272099E+00
          2   -1    0    0  501    0  0.00000000000E+00  0.00000000000E+00  0.16483165502E+03  0.16483165502E+03  0.00000000000E+00 0. -1.
         -2   -1    0    0    0  501 -0.00000000000E+00 -0.00000000000E+00 -0.11613053658E+03  0.11613053658E+03  0.00000000000E+00 0.  1.
         23    2    1    2    0    0 -0.63295850197E+01 -0.64532385454E+02 -0.30953910130E+02  0.14425512573E+03  0.12508758662E+03 0.  0.
          5    1    3    3  502    0 -0.64013532303E+00 -0.81247633571E+02 -0.66018712328E+02  0.10477371098E+03  0.41800000000E+01 0.  1.
         -5    1    3    3    0  502 -0.56894496967E+01  0.16715248118E+02  0.35064802198E+02  0.39481414750E+02  0.41800000000E+01 0.  1.
        -11    1    1    2    0    0  0.45967094437E+02  0.24188243477E+02  0.23516387172E+02  0.57018114307E+02  0.00000000000E+00 0.  1.
         11    1    1    2    0    0 -0.39637509417E+02  0.40344141977E+02  0.56138641399E+02  0.79688951573E+02  0.00000000000E+00 0. -1.
</event>
<event>
 7    1  0.1243146E-005  0.1244089E+03  0.7561462E-02  0.1235996E+00
         -4   -1    0    0    0  501 -0.00000000000E+00  0.00000000000E+00  0.24511889204E+03  0.24511889204E+03  0.00000000000E+00 0. -1.
          4   -1    0    0  501    0  0.00000000000E+00 -0.00000000000E+00 -0.83627421441E+02  0.83627421441E+02  0.00000000000E+00 0.  1.
         23    2    1    2    0    0 -0.37974905087E+01 -0.93131332097E+02  0.79186615578E+02  0.17494416474E+03  0.12508826778E+03 0.  0.
          5    1    3    3  502    0  0.56795811883E+02 -0.21316057471E+02  0.41497704406E+02  0.73618410908E+02  0.41800000000E+01 0.  1.
         -5    1    3    3    0  502 -0.60593302392E+02 -0.71815274625E+02  0.37688911172E+02  0.10132575383E+03  0.41800000000E+01 0.  1.
        -11    1    1    2    0    0  0.79032632965E+01  0.49125197398E+02 -0.10641998970E+02  0.50882204475E+02  0.00000000000E+00 0.  1.
         11    1    1    2    0    0 -0.41057727878E+01  0.44006134699E+02  0.92946853991E+02  0.10291994427E+03  0.00000000000E+00 0. -1.
</event>
<event>
 7    1  0.1243146E-005  0.1219012E+03  0.7561462E-02  0.1239993E+00
          1   -1    0    0  501    0  0.00000000000E+00  0.00000000000E+00  0.16709090512E+03  0.16709090512E+03  0.00000000000E+00 0. -1.
         -1   -1    0    0    0  501 -0.00000000000E+00 -0.00000000000E+00 -0.13833292930E+03  0.13833292930E+03  0.00000000000E+00 0.  1.
         23    2    1    2    0    0  0.72882592987E+02 -0.75164084623E+02 -0.38090585705E+01  0.16316742823E+03  0.12509032229E+03 0.  0.
          5    1    3    3  502    0  0.40562913129E+02 -0.36171385330E+02 -0.64213815849E+02  0.84229481680E+02  0.41800000000E+01 0. -1.
         -5    1    3    3    0  502  0.32319679858E+02 -0.38992699293E+02  0.60404757278E+02  0.78937946554E+02  0.41800000000E+01 0. -1.
        -11    1    1    2    0    0 -0.49697964689E+02 -0.95840436324E+01  0.12318298323E+02  0.52091093866E+02  0.00000000000E+00 0.  1.
         11    1    1    2    0    0 -0.23184628298E+02  0.84748128256E+02  0.20248736069E+02  0.90165312313E+02  0.00000000000E+00 0. -1.
</event>
<event>
 7    1  0.1243146E-005  0.1102527E+03  0.7561462E-02  0.1260103E+00
          2   -1    0    0  501    0  0.00000000000E+00  0.00000000000E+00  0.25930708638E+02  0.25930708638E+02  0.00000000000E+00 0.  1.
         -2   -1    0    0    0  501 -0.00000000000E+00 -0.00000000000E+00 -0.54070611736E+03  0.54070611736E+03  0.00000000000E+00 0. -1.
         23    2    1    2    0    0  0.41841717143E+02 -0.32925673394E+01 -0.35231880414E+03  0.37621440932E+03  0.12508865550E+03 0.  0.
          5    1    3    3  502    0  0.45674547140E+02  0.55671427102E+02 -0.21075445763E+03  0.22275633742E+03  0.41800000000E+01 0.  1.
         -5    1    3    3    0  502 -0.38328299973E+01 -0.58963994442E+02 -0.14156434652E+03  0.15345807190E+03  0.41800000000E+01 0.  1.
        -11    1    1    2    0    0 -0.18208710142E+02 -0.37673797017E+02 -0.35263124649E+02  0.54720746219E+02  0.00000000000E+00 0.  1.
         11    1    1    2    0    0 -0.23633007000E+02  0.40966364357E+02 -0.12719347993E+03  0.13570167046E+03  0.00000000000E+00 0. -1.
</event>
<event>
 7    1  0.1243146E-005  0.8328065E+02  0.7561462E-02  0.1319991E+00
         -3   -1    0    0    0  501 -0.00000000000E+00  0.00000000000E+00  0.25227735261E+02  0.25227735261E+02  0.00000000000E+00 0.  1.
          3   -1    0    0  501    0  0.00000000000E+00 -0.00000000000E+00 -0.61084254048E+03  0.61084254048E+03  0.00000000000E+00 0. -1.
         23    2    1    2    0    0 -0.10266608078E+02  0.49823879751E+02 -0.41178701337E+03  0.43336454975E+03  0.12509383025E+03 0.  0.
          5    1    3    3  502    0  0.11824818793E+02  0.64632987753E+01 -0.36645481502E+03  0.36672633450E+03  0.41800000000E+01 0. -1.
         -5    1    3    3    0  502 -0.22091426871E+02  0.43360580976E+02 -0.45332198350E+02  0.66638215244E+02  0.41800000000E+01 0. -1.
        -11    1    1    2    0    0  0.16599011581E+02  0.24183001410E+02 -0.39362519107E+02  0.49089231539E+02  0.00000000000E+00 0.  1.
         11    1    1    2    0    0 -0.63324035032E+01 -0.74006881161E+02 -0.13446527274E+03  0.15361649445E+03  0.00000000000E+00 0. -1.
</event>
<event>
 7    1  0.1243146E-005  0.1946442E+03  0.7561462E-02  0.1154338E+00
         -1   -1    0    0    0  501 -0.00000000000E+00  0.00000000000E+00  0.72348379454E+03  0.72348379454E+03  0.00000000000E+00 0.  1.
          1   -1    0    0  501    0  0.00000000000E+00 -0.00000000000E+00 -0.59290674608E+02  0.59290674608E+02  0.00000000000E+00 0. -1.
         23    2    1    2    0    0  0.78391598839E+02  0.15774779480E+03  0.37379070678E+03  0.43173721192E+03  0.12509163899E+03 0.  0.
          5    1    3    3  502    0  0.10918061667E+03  0.11019758154E+03  0.23328662820E+03  0.28018571936E+03  0.41800000000E+01 0. -1.
         -5    1    3    3    0  502 -0.30789017828E+02  0.47550213259E+02  0.14050407858E+03  0.15155149256E+03  0.41800000000E+01 0. -1.
        -11    1    1    2    0    0 -0.60950891267E+02 -0.13856910511E+03  0.16894980480E+03  0.22684894661E+03  0.00000000000E+00 0. -1.
         11    1    1    2    0    0 -0.17440707572E+02 -0.19178689692E+02  0.12145260835E+03  0.12418831062E+03  0.00000000000E+00 0.  1.
</event>
<event>
 7    1  0.1243146E-005  0.8387003E+02  0.7561462E-02  0.1318414E+00
          4   -1    0    0  501    0  0.00000000000E+00  0.00000000000E+00  0.77937589637E+02  0.77937589637E+02  0.00000000000E+00 0. -1.
         -4   -1    0    0    0  501 -0.00000000000E+00 -0.00000000000E+00 -0.14957324385E+03  0.14957324385E+03  0.00000000000E+00 0.  1.
         23    2    1    2    0    0  0.10944585765E+02  0.19538994002E+01 -0.41319462356E+02  0.13220660018E+03  0.12509070902E+03 0.  0.
          5    1    3    3  502    0 -0.38905724846E+00  0.56813024294E+02  0.79094147985E+01  0.57514366357E+02  0.41800000000E+01 0.  1.
         -5    1    3    3    0  502  0.11333643013E+02 -0.54859124894E+02 -0.49228877154E+02  0.74692233826E+02  0.41800000000E+01 0.  1.
        -11    1    1    2    0    0 -0.32044822322E+02  0.48912757462E+01 -0.53919183118E+02  0.62913222173E+02  0.00000000000E+00 0.  1.
         11    1    1    2    0    0  0.21100236557E+02 -0.68451751464E+01  0.23602991262E+02  0.32391011130E+02  0.00000000000E+00 0. -1.
</event>
<event>
 6    1  0.1243146E-005  0.2265257E+03  0.7561462E-02  0.1129109E+00
          1   -1    0    0  501    0  0.00000000000E+00  0.00000000000E+00  0.14716094618E+04  0.14716094618E+04  0.00000000000E+00 0. -1.
         -1   -1    0    0    0  501 -0.00000000000E+00 -0.00000000000E+00 -0.40324273437E+02  0.40324273437E+02  0.00000000000E+00 0.  1.
          5    1    1    2  502    0 -0.19059134054E+03  0.46055491003E+02  0.48085739881E+03  0.51931443051E+03  0.41800000000E+01 0. -1.
         -5    1    1    2    0  502  0.52341552433E+02 -0.66617398463E+02  0.20213097419E+03  0.21920747938E+03  0.41800000000E+01 0.  1.
        -11    1    1    2    0    0  0.11892665915E+03  0.56223007283E+02  0.68978734482E+03  0.70221873934E+03  0.00000000000E+00 0.  1.
         11    1    1    2    0    0  0.19323128954E+02 -0.35661099823E+02  0.58509470562E+02  0.71193086031E+02  0.00000000000E+00 0. -1.
</event>
<event>
 7    1  0.1243146E-005  0.1007285E+03  0.7561462E-02  0.1278771E+00
         -1   -1    0    0    0  501 -0.00000000000E+00  0.00000000000E+00  0.11130718794E+03  0.11130718794E+03  0.00000000000E+00 0.  1.
          1   -1    0    0  501    0  0.00000000000E+00 -0.00000000000E+00 -0.10948159594E+03  0.10948159594E+03  0.00000000000E+00 0. -1.
         23    2    1    2    0    0  0.13281076829E+02 -0.19408997714E+01 -0.42564301375E+01  0.12587763431E+03  0.12508759942E+03 0.  0.
          5    1    3    3  502    0 -0.35875274124E+02  0.41702475142E+02 -0.19056841643E+02  0.58367519562E+02  0.41800000000E+01 0.  1.
         -5    1    3    3    0  502  0.49156350952E+02 -0.43643374913E+02  0.14800411505E+02  0.67510114750E+02  0.41800000000E+01 0.  1.
        -11    1    1    2    0    0  0.33545620360E+02 -0.17167127854E+00  0.27498223005E+02  0.43376149954E+02  0.00000000000E+00 0. -1.
         11    1    1    2    0    0 -0.46826697188E+02  0.21125710500E+01 -0.21416200859E+02  0.51534999614E+02  0.00000000000E+00 0.  1.
</event>
<event>
 7    1  0.1243146E-005  0.1942916E+03  0.7561462E-02  0.1154647E+00
         -2   -1    0    0    0  501 -0.00000000000E+00  0.00000000000E+00  0.61270028505E+02  0.61270028505E+02  0.00000000000E+00 0.  1.
          2   -1    0    0  501    0  0.00000000000E+00 -0.00000000000E+00 -0.72906561308E+03  0.72906561308E+03  0.00000000000E+00 0. -1.
         23    2    1    2    0    0  0.88613009238E+02 -0.15213818002E+03 -0.26811384622E+03  0.34429562832E+03  0.12512455364E+03 0.  0.
          5    1    3    3  502    0  0.11181654226E+03 -0.11968579943E+03 -0.25302025176E+03  0.30143714089E+03  0.41800000000E+01 0.  1.
         -5    1    3    3    0  502 -0.23203533026E+02 -0.32452380597E+02 -0.15093594453E+02  0.42858487430E+02  0.41800000000E+01 0.  1.
        -11    1    1    2    0    0 -0.81438496959E+02  0.87286225149E+02 -0.17326087346E+03  0.21040542806E+03  0.00000000000E+00 0.  1.
         11    1    1    2    0    0 -0.71745122787E+01  0.64851954875E+02 -0.22642086491E+03  0.23563458520E+03  0.00000000000E+00 0. -1.
</event>
<event>
 7    1  0.1243146E-005  0.1633321E+03  0.7561462E-02  0.1184985E+00
         -1   -1    0    0    0  501 -0.00000000000E+00  0.00000000000E+00  0.36935446648E+03  0.36935446648E+03  0.00000000000E+00 0.  1.
          1   -1    0    0  501    0  0.00000000000E+00 -0.00000000000E+00 -0.87960903573E+02  0.87960903573E+02  0.00000000000E+00 0. -1.
         23    2    1    2    0    0  0.11985146048E+03  0.71176699255E+02  0.19322259360E+03  0.26909865004E+03  0.12509443504E+03 0.  0.
          5    1    3    3  502    0  0.14620514574E+03  0.56776330740E+02  0.15906521965E+03  0.22342496028E+03  0.41800000000E+01 0.  1.
         -5    1    3    3    0  502 -0.26353685267E+02  0.14400368515E+02  0.34157373951E+02  0.45673689754E+02  0.41800000000E+01 0.  1.
        -11    1    1    2    0    0 -0.10510566603E+03 -0.60938617281E+02  0.26988701550E+02  0.12445523741E+03  0.00000000000E+00 0. -1.
         11    1    1    2    0    0 -0.14745794445E+02 -0.10238081974E+02  0.61182267756E+02  0.63761482606E+02  0.00000000000E+00 0.  1.
</event>
<event>
 7    1  0.1243146E-005  0.1707035E+03  0.7561462E-02  0.1177116E+00
         -2   -1    0    0    0  501 -0.00000000000E+00  0.00000000000E+00  0.18993244001E+03  0.18993244001E+03  0.00000000000E+00 0.  1.
          2   -1    0    0  501    0  0.00000000000E+00 -0.00000000000E+00 -0.19759481210E+03  0.19759481210E+03  0.00000000000E+00 0. -1.
         23    2    1    2    0    0 -0.95394765500E+02 -0.12016464984E+03  0.35658613007E+02  0.20114239836E+03  0.12508806250E+03 0.  0.
          5    1    3    3  502    0 -0.30497059168E+02 -0.11314154567E+03  0.59544858785E+02  0.13150719593E+03  0.41800000000E+01 0.  1.
         -5    1    3    3    0  502 -0.64897706331E+02 -0.70231041707E+01 -0.23886245777E+02  0.69635202424E+02  0.41800000000E+01 0.  1.
        -11    1    1    2    0    0  0.70832484156E+02  0.56832406059E+02 -0.68698029278E+02  0.11387090242E+03  0.00000000000E+00 0. -1.
         11    1    1    2    0    0  0.24562281344E+02  0.63332243780E+02  0.25377044181E+02  0.72513951336E+02  0.00000000000E+00 0.  1.
</event>
<event>
 7    1  0.1243146E-005  0.2398668E+03  0.7561462E-02  0.1119882E+00
          2   -1    0    0  501    0  0.00000000000E+00  0.00000000000E+00  0.11544235647E+04  0.11544235647E+04  0.00000000000E+00 0.  1.
         -2   -1    0    0    0  501 -0.00000000000E+00 -0.00000000000E+00 -0.57602323826E+02  0.57602323826E+02  0.00000000000E+00 0. -1.
         23    2    1    2    0    0  0.97926175751E+02  0.20275283113E+03  0.41506098733E+03  0.48849427554E+03  0.12511110106E+03 0.  0.
          5    1    3    3  502    0 -0.25647454677E+02  0.47118608033E+02  0.13262229748E+03  0.14312267935E+03  0.41800000000E+01 0. -1.
         -5    1    3    3    0  502  0.12357363043E+03  0.15563422310E+03  0.28243868984E+03  0.34537159619E+03  0.41800000000E+01 0. -1.
        -11    1    1    2    0    0 -0.28904880180E+02 -0.32795139864E+02  0.25937556116E+03  0.26303363858E+03  0.00000000000E+00 0.  1.
         11    1    1    2    0    0 -0.69021295570E+02 -0.16995769127E+03  0.42238469235E+03  0.46049797437E+03  0.00000000000E+00 0. -1.
</event>
<event>
 7    1  0.1243146E-005  0.1340278E+03  0.7561462E-02  0.1221599E+00
         -2   -1    0    0    0  501 -0.00000000000E+00  0.00000000000E+00  0.17069020387E+03  0.17069020387E+03  0.00000000000E+00 0.  1.
          2   -1    0    0  501    0  0.00000000000E+00 -0.00000000000E+00 -0.23523157186E+03  0.23523157186E+03  0.00000000000E+00 0. -1.
         23    2    1    2    0    0 -0.86733467487E+02  0.60604683254E+02  0.98448264748E+02  0.19114363963E+03  0.12509279806E+03 0.  0.
          5    1    3    3  502    0 -0.24457269615E+02 -0.37918171092E+02  0.14993329948E+02  0.47730682783E+02  0.41800000000E+01 0. -1.
         -5    1    3    3    0  502 -0.62276197872E+02  0.98522854346E+02  0.83454934799E+02  0.14341295685E+03  0.41800000000E+01 0. -1.
        -11    1    1    2    0    0  0.31271596900E+02 -0.17243657553E+02  0.16184198157E+01  0.35747388453E+02  0.00000000000E+00 0.  1.
         11    1    1    2    0    0  0.55461870586E+02 -0.43361025702E+02 -0.16460805256E+03  0.17903074765E+03  0.00000000000E+00 0. -1.
</event>
<event>
 7    1  0.1243146E-005  0.1173183E+03  0.7561462E-02  0.1247588E+00
          2   -1    0    0  501    0  0.00000000000E+00  0.00000000000E+00  0.37229354112E+03  0.37229354112E+03  0.00000000000E+00 0.  1.
         -2   -1    0    0    0  501 -0.00000000000E+00 -0.00000000000E+00 -0.57544615338E+02  0.57544615338E+02  0.00000000000E+00 0. -1.
         23    2    1    2    0    0 -0.59198285305E+02 -0.75726564889E+02  0.14296972155E+03  0.21290142952E+03  0.12509087815E+03 0.  0.
          5    1    3    3  502    0 -0.22455741073E+02  0.18969399832E+02 -0.81318629388E+01  0.30784704513E+02  0.41800000000E+01 0. -1.
         -5    1    3    3    0  502 -0.36742544233E+02 -0.94695964721E+02  0.15110158449E+03  0.18211672501E+03  0.41800000000E+01 0. -1.
        -11    1    1    2    0    0  0.12965558346E+02  0.47226235945E+02  0.15312175103E+02  0.51311653366E+02  0.00000000000E+00 0. -1.
         11    1    1    2    0    0  0.46232726959E+02  0.28500328944E+02  0.15646702912E+03  0.16562507357E+03  0.00000000000E+00 0.  1.
</event>
<event>
 7    1  0.1243146E-005  0.9705284E+02  0.7561462E-02  0.1286618E+00
         -1   -1    0    0    0  501 -0.00000000000E+00  0.00000000000E+00  0.25379494379E+03  0.25379494379E+03  0.00000000000E+00 0.  1.
          1   -1    0    0  501    0  0.00000000000E+00 -0.00000000000E+00 -0.41469319267E+03  0.41469319267E+03  0.00000000000E+00 0. -1.
         23    2    1    2    0    0  0.32203819186E+02 -0.18352373363E+02  0.23402476873E+03  0.26224832905E+03  0.11239527631E+03 0.  0.
          5    1    3    3  502    0  0.50181813648E+02  0.22120490910E+02  0.55007080157E+02  0.77786771410E+02  0.41800000000E+01 0. -1.
         -5    1    3    3    0  502 -0.17977994461E+02 -0.40472864273E+02  0.17901768857E+03  0.18446155764E+03  0.41800000000E+01 0.  1.
        -11    1    1    2    0    0 -0.15850634184E+02 -0.35213332377E+02 -0.13931592475E+03  0.14456883575E+03  0.00000000000E+00 0.  1.
         11    1    1    2    0    0 -0.16353185003E+02  0.53565705739E+02 -0.25560709286E+03  0.26167097166E+03  0.00000000000E+00 0. -1.
</event>
<event>
 7    1  0.1243146E-005  0.1216950E+03  0.7561462E-02  0.1240327E+00
         -2   -1    0    0    0  501 -0.00000000000E+00  0.00000000000E+00  0.22238504310E+03  0.22238504310E+03  0.00000000000E+00 0. -1.
          2   -1    0    0  501    0  0.00000000000E+00 -0.00000000000E+00 -0.80776783709E+02  0.80776783709E+02  0.00000000000E+00 0.  1.
         23    2    1    2    0    0 -0.12108949799E+02  0.70572265291E+02  0.10935672092E+03  0.18092160233E+03  0.12508661992E+03 0.  0.
          5    1    3    3  502    0 -0.64488337815E+02  0.61457074417E+02  0.81224082610E+02  0.12062562624E+03  0.41800000000E+01 0.  1.
         -5    1    3    3    0  502  0.52379388016E+02  0.91151908737E+01  0.28132638314E+02  0.60295976086E+02  0.41800000000E+01 0.  1.
        -11    1    1    2    0    0  0.41763164219E+02 -0.47904109228E+02  0.50043561747E+02  0.80890813068E+02  0.00000000000E+00 0. -1.
         11    1    1    2    0    0 -0.29654214420E+02 -0.22668156063E+02 -0.17792023278E+02  0.41349411417E+02  0.00000000000E+00 0.  1.
</event>
<event>
 7    1  0.1243146E-005  0.1114312E+03  0.7561462E-02  0.1257942E+00
         -2   -1    0    0    0  501 -0.00000000000E+00  0.00000000000E+00  0.21173121385E+02  0.21173121385E+02  0.00000000000E+00 0.  1.
          2   -1    0    0  501    0  0.00000000000E+00 -0.00000000000E+00 -0.73177844032E+03  0.73177844032E+03  0.00000000000E+00 0. -1.
         23    2    1    2    0    0  0.55814093471E+02  0.24792516563E+02 -0.39892996850E+03  0.42252019484E+03  0.12509321872E+03 0.  0.
          5    1    3    3  502    0  0.18966714779E+02  0.59440086517E+02 -0.90866827196E+02  0.11030463653E+03  0.41800000000E+01 0. -1.
         -5    1    3    3    0  502  0.36847378692E+02 -0.34647569954E+02 -0.30806314131E+03  0.31221555831E+03  0.41800000000E+01 0. -1.
        -11    1    1    2    0    0 -0.60975737431E+02 -0.53068864840E+02 -0.22176783104E+03  0.23604091988E+03  0.00000000000E+00 0.  1.
         11    1    1    2    0    0  0.51616439595E+01  0.28276348277E+02 -0.89907519390E+02  0.94390446991E+02  0.00000000000E+00 0. -1.
</event>
<event>
 7    1  0.1243146E-005  0.1233106E+03  0.7561462E-02  0.1237733E+00
          1   -1    0    0  501    0  0.00000000000E+00  0.00000000000E+00  0.44379094214E+02  0.44379094214E+02  0.00000000000E+00 0. -1.
         -1   -1    0    0    0  501 -0.00000000000E+00 -0.00000000000E+00 -0.48916186461E+03  0.48916186461E+03  0.00000000000E+00 0.  1.
         23    2    1    2    0    0  0.62727727052E+02  0.66571339697E+02 -0.30746038339E+03  0.34428367388E+03  0.12503139502E+03 0.  0.
          5    1    3    3  502    0  0.10064046786E+03  0.49408148922E+02 -0.23964751114E+03  0.26460927979E+03  0.41800000000E+01 0.  1.
         -5    1    3    3    0  502 -0.37912740806E+02  0.17163190775E+02 -0.67812872241E+02  0.79674394096E+02  0.41800000000E+01 0.  1.
        -11    1    1    2    0    0 -0.49926255678E+02 -0.43503338284E+02 -0.20247782027E+02  0.69246979175E+02  0.00000000000E+00 0. -1.
         11    1    1    2    0    0 -0.12801471374E+02 -0.23068001413E+02 -0.11707460499E+03  0.12001030577E+03  0.00000000000E+00 0.  1.
</event>
<event>
 7    1  0.1243146E-005  0.4774382E+02  0.7561462E-02  0.1457905E+00
         -2   -1    0    0    0  501 -0.00000000000E+00  0.00000000000E+00  0.29302168508E+03  0.29302168508E+03  0.00000000000E+00 0.  1.
          2   -1    0    0  501    0  0.00000000000E+00 -0.00000000000E+00 -0.36993153732E+02  0.36993153732E+02  0.00000000000E+00 0. -1.
         23    2    1    2    0    0 -0.32279040963E+01 -0.14451795920E+02  0.24449848750E+03  0.27503983994E+03  0.12509248335E+03 0.  0.
          5    1    3    3  502    0 -0.98652574737E+01 -0.30248979997E+02  0.25330252934E+03  0.25532717808E+03  0.41800000000E+01 0. -1.
         -5    1    3    3    0  502  0.66373533775E+01  0.15797184077E+02 -0.88040418416E+01  0.19712661854E+02  0.41800000000E+01 0. -1.
        -11    1    1    2    0    0 -0.14064646841E+02  0.22619301054E+02  0.20731058093E+02  0.33752390147E+02  0.00000000000E+00 0.  1.
         11    1    1    2    0    0  0.17292550937E+02 -0.81675051345E+01 -0.92010142477E+01  0.21222608728E+02  0.00000000000E+00 0. -1.
</event>
<event>
 6    1  0.1243146E-005  0.8783018E+02  0.7561462E-02  0.1308193E+00
         -1   -1    0    0    0  501 -0.00000000000E+00  0.00000000000E+00  0.56399943740E+03  0.56399943740E+03  0.00000000000E+00 0.  1.
          1   -1    0    0  501    0  0.00000000000E+00 -0.00000000000E+00 -0.71701304401E+02  0.71701304401E+02  0.00000000000E+00 0. -1.
          5    1    1    2  502    0  0.33570015029E+02 -0.52783312619E+02  0.43861572252E+02  0.76513619183E+02  0.41800000000E+01 0. -1.
         -5    1    1    2    0  502 -0.15839320188E+01 -0.25976565380E+02  0.42783561390E+03  0.42864679599E+03  0.41800000000E+01 0.  1.
        -11    1    1    2    0    0 -0.20409588303E+02  0.67269402746E+02  0.57097966143E+02  0.90564350482E+02  0.00000000000E+00 0. -1.
         11    1    1    2    0    0 -0.11576494708E+02  0.11490475253E+02 -0.36497019297E+02  0.39975976146E+02  0.00000000000E+00 0.  1.
</event>
<event>
 7    1  0.1243146E-005  0.1651637E+03  0.7561462E-02  0.1182987E+00
         -1   -1    0    0    0  501 -0.00000000000E+00  0.00000000000E+00  0.10344464582E+03  0.10344464582E+03  0.00000000000E+00 0.  1.
          1   -1    0    0  501    0  0.00000000000E+00 -0.00000000000E+00 -0.29872213881E+03  0.29872213881E+03  0.00000000000E+00 0. -1.
         23    2    1    2    0    0  0.13695928873E+03 -0.44173450654E+01 -0.95602019504E+02  0.20872057535E+03  0.12508865949E+03 0.  0.
          5    1    3    3  502    0 -0.20999024750E+02 -0.11305145570E+02 -0.27154443539E+02  0.36381335335E+02  0.41800000000E+01 0. -1.
         -5    1    3    3    0  502  0.15795831348E+03  0.68878005051E+01 -0.68447575965E+02  0.17233924001E+03  0.41800000000E+01 0. -1.
        -11    1    1    2    0    0 -0.71908803579E+02 -0.25572717872E+02 -0.74682520766E+01  0.76685166236E+02  0.00000000000E+00 0.  1.
         11    1    1    2    0    0 -0.65050485149E+02  0.29990062937E+02 -0.92207221404E+02  0.11676104304E+03  0.00000000000E+00 0. -1.
</event>
<event>
 7    1  0.1243146E-005  0.1753488E+03  0.7561462E-02  0.1172382E+00
         -1   -1    0    0    0  501 -0.00000000000E+00  0.00000000000E+00  0.30968711196E+03  0.30968711196E+03  0.00000000000E+00 0.  1.
          1   -1    0    0  501    0  0.00000000000E+00 -0.00000000000E+00 -0.17336171678E+03  0.17336171678E+03  0.00000000000E+00 0. -1.
         23    2    1    2    0    0 -0.40280972611E+02  0.16706017614E+03  0.18646827509E+03  0.28273051336E+03  0.12503785972E+03 0.  0.
          5    1    3    3  502    0 -0.30719874973E+02  0.10352810950E+03  0.27935475863E+02  0.11162277271E+03  0.41800000000E+01 0. -1.
         -5    1    3    3    0  502 -0.95610976379E+01  0.63532066635E+02  0.15853279923E+03  0.17110774065E+03  0.41800000000E+01 0. -1.
        -11    1    1    2    0    0  0.20191738221E+02 -0.15148264670E+03 -0.10445554523E+02  0.15317900689E+03  0.00000000000E+00 0.  1.
         11    1    1    2    0    0  0.20089234390E+02 -0.15577529441E+02 -0.39697325393E+02  0.47139308493E+02  0.00000000000E+00 0. -1.
</event>
<event>
 7    1  0.1243146E-005  0.1041636E+03  0.7561462E-02  0.1271776E+00
          1   -1    0    0  501    0  0.00000000000E+00  0.00000000000E+00  0.61326695891E+03  0.61326695891E+03  0.00000000000E+00 0. -1.
         -1   -1    0    0    0  501 -0.00000000000E+00 -0.00000000000E+00 -0.19272703016E+02  0.19272703016E+02  0.00000000000E+00 0.  1.
         23    2    1    2    0    0 -0.15453612649E+01  0.69634554623E+01  0.29786661249E+03  0.32314625921E+03  0.12509239847E+03 0.  0.
          5    1    3    3  502    0  0.17342338759E+02 -0.53431451949E+02  0.93413839203E+02  0.10908388756E+03  0.41800000000E+01 0.  1.
         -5    1    3    3    0  502 -0.18887700024E+02  0.60394907411E+02  0.20445277328E+03  0.21406237165E+03  0.41800000000E+01 0.  1.
        -11    1    1    2    0    0 -0.43058761901E+02 -0.87520596937E+01  0.12335365277E+03  0.13094571080E+03  0.00000000000E+00 0. -1.
         11    1    1    2    0    0  0.44604123166E+02  0.17886042314E+01  0.17277399064E+03  0.17844769191E+03  0.00000000000E+00 0.  1.
</event>
<event>
 7    1  0.1243146E-005  0.1797951E+03  0.7561462E-02  0.1168002E+00
         -2   -1    0    0    0  501 -0.00000000000E+00  0.00000000000E+00  0.19769498359E+03  0.19769498359E+03  0.00000000000E+00 0.  1.
          2   -1    0    0  501    0  0.00000000000E+00 -0.00000000000E+00 -0.22554889647E+03  0.22554889647E+03  0.00000000000E+00 0. -1.
         23    2    1    2    0    0  0.15833228889E+03 -0.48972797591E+02  0.57443349334E+02  0.21543932888E+03  0.12508763903E+03 0.  0.
          5    1    3    3  502    0  0.54279446278E+02 -0.35742582971E+02 -0.36423467674E+02  0.74618576260E+02  0.41800000000E+01 0. -1.
         -5    1    3    3    0  502  0.10405284261E+03 -0.13230214620E+02  0.93866817008E+02  0.14082075262E+03  0.41800000000E+01 0. -1.
        -11    1    1    2    0    0 -0.47752930322E+02  0.61877888438E+02 -0.35390751298E+02  0.85800470333E+02  0.00000000000E+00 0.  1.
         11    1    1    2    0    0 -0.11057935857E+03 -0.12905090847E+02 -0.49906510916E+02  0.12200408084E+03  0.00000000000E+00 0. -1.
</event>
<event>
 7    1  0.1243146E-005  0.1152393E+03  0.7561462E-02  0.1251164E+00
         -1   -1    0    0    0  501 -0.00000000000E+00  0.00000000000E+00  0.18073415117E+03  0.18073415117E+03  0.00000000000E+00 0.  1.
          1   -1    0    0  501    0  0.00000000000E+00 -0.00000000000E+00 -0.99838475398E+02  0.99838475398E+02  0.00000000000E+00 0. -1.
         23    2    1    2    0    0 -0.73390653128E+02 -0.13175250106E+02  0.74075658683E+02  0.16338595527E+03  0.12509193415E+03 0.  0.
          5    1    3    3  502    0 -0.55369470087E+01 -0.61500629101E+02  0.37013040260E+02  0.72113956425E+02  0.41800000000E+01 0.  1.
         -5    1    3    3    0  502 -0.67853706119E+02  0.48325378995E+02  0.37062618423E+02  0.91271998846E+02  0.41800000000E+01 0.  1.
        -11    1    1    2    0    0  0.33944003519E+02  0.27008187482E+02 -0.36716593925E+02  0.56830852848E+02  0.00000000000E+00 0. -1.
         11    1    1    2    0    0  0.39446649609E+02 -0.13832937376E+02  0.43536611013E+02  0.60355818446E+02  0.00000000000E+00 0.  1.
</event>
<event>
 7    1  0.1243146E-005  0.1185787E+03  0.7561462E-02  0.1245460E+00
          2   -1    0    0  501    0  0.00000000000E+00  0.00000000000E+00  0.11762647851E+03  0.11762647851E+03  0.00000000000E+00 0. -1.
         -2   -1    0    0    0  501 -0.00000000000E+00 -0.00000000000E+00 -0.18433984351E+03  0.18433984351E+03  0.00000000000E+00 0.  1.
         23    2    1    2    0    0 -0.83995821155E+02  0.19383330046E+02 -0.83870850613E+02  0.17350465355E+03  0.12505412334E+03 0.  0.
          5    1    3    3  502    0 -0.10183814902E+03  0.47818748274E+02 -0.82630855131E+02  0.13965304115E+03  0.41800000000E+01 0. -1.
         -5    1    3    3    0  502  0.17842327862E+02 -0.28435418229E+02 -0.12399954825E+01  0.33851612402E+02  0.41800000000E+01 0. -1.
        -11    1    1    2    0    0  0.30024577992E+02  0.67582372340E+01 -0.36673614511E+02  0.47875913103E+02  0.00000000000E+00 0.  1.
         11    1    1    2    0    0  0.53971243163E+02 -0.26141567280E+02  0.53831100127E+02  0.80585755375E+02  0.00000000000E+00 0. -1.
</event>
<event>
 7    1  0.1243146E-005  0.1608091E+03  0.7561462E-02  0.1187786E+00
          1   -1    0    0  501    0  0.00000000000E+00  0.00000000000E+00  0.29822858291E+03  0.29822858291E+03  0.00000000000E+00 0. -1.
         -1   -1    0    0    0  501 -0.00000000000E+00 -0.00000000000E+00 -0.11355412871E+03  0.11355412871E+03  0.00000000000E+00 0.  1.
         23    2    1    2    0    0  0.12693718643E+03  0.69021453604E+02  0.60830691022E+02  0.20055828845E+03  0.12508494609E+03 0.  0.
          5    1    3    3  502    0  0.13902854760E+03  0.78351820742E+02  0.25266879282E+02  0.16162868697E+03  0.41800000000E+01 0. -1.
         -5    1    3    3    0  502 -0.12091361172E+02 -0.93303671379E+01  0.35563811740E+02  0.38929601480E+02  0.41800000000E+01 0. -1.
        -11    1    1    2    0    0 -0.57310855305E+02 -0.18881499738E+02 -0.26813966253E+00  0.60341669409E+02  0.00000000000E+00 0.  1.
         11    1    1    2    0    0 -0.69626331125E+02 -0.50139953866E+02  0.12411190284E+03  0.15088275377E+03  0.00000000000E+00 0. -1.
</event>
<event>
 7    1  0.1243146E-005  0.1115621E+03  0.7561462E-02  0.1257704E+00
         -1   -1    0    0    0  501 -0.00000000000E+00  0.00000000000E+00  0.38826483648E+02  0.38826483648E+02  0.00000000000E+00 0.  1.
          1   -1    0    0  501    0  0.00000000000E+00 -0.00000000000E+00 -0.47111583887E+03  0.47111583887E+03  0.00000000000E+00 0. -1.
         23    2    1    2    0    0  0.48190419747E+02  0.33518943514E+02 -0.13407336802E+03  0.19253456975E+03  0.12509219162E+03 0.  0.
          5    1    3    3  502    0 -0.21952534764E+02 -0.31802600480E+02 -0.20774630949E+02  0.44072404869E+02  0.41800000000E+01 0. -1.
         -5    1    3    3    0  502  0.70142954511E+02  0.65321543994E+02 -0.11329873707E+03  0.14846216488E+03  0.41800000000E+01 0. -1.
        -11    1    1    2    0    0 -0.55503172869E+02 -0.47163265498E+02 -0.29162441565E+03  0.30058239406E+03  0.00000000000E+00 0. -1.
         11    1    1    2    0    0  0.73127531216E+01  0.13644321984E+02 -0.65915715499E+01  0.16825358722E+02  0.00000000000E+00 0.  1.
</event>
<event>
 7    1  0.1243146E-005  0.1063106E+03  0.7561462E-02  0.1267559E+00
         -1   -1    0    0    0  501 -0.00000000000E+00  0.00000000000E+00  0.22641738852E+03  0.22641738852E+03  0.00000000000E+00 0.  1.
          1   -1    0    0  501    0  0.00000000000E+00 -0.00000000000E+00 -0.54254842659E+02  0.54254842659E+02  0.00000000000E+00 0. -1.
         23    2    1    2    0    0 -0.66595835379E+01  0.18300104924E+02  0.75680073516E+02  0.14749042964E+03  0.12508680752E+03 0.  0.
          5    1    3    3  502    0  0.13373281559E+02 -0.51152615789E+02  0.41912306606E+02  0.67598436422E+02  0.41800000000E+01 0. -1.
         -5    1    3    3    0  502 -0.20032865097E+02  0.69452720712E+02  0.33767766911E+02  0.79891993219E+02  0.41800000000E+01 0. -1.
        -11    1    1    2    0    0 -0.84547584034E+01  0.32809714250E+02  0.58955853465E+02  0.67998183407E+02  0.00000000000E+00 0. -1.
         11    1    1    2    0    0  0.15114341941E+02 -0.51109819174E+02  0.37526618883E+02  0.65183618134E+02  0.00000000000E+00 0.  1.
</event>
<event>
 7    1  0.1243146E-005  0.1315305E+03  0.7561462E-02  0.1225202E+00
          2   -1    0    0  501    0  0.00000000000E+00  0.00000000000E+00  0.12896255950E+03  0.12896255950E+03  0.00000000000E+00 0. -1.
         -2   -1    0    0    0  501 -0.00000000000E+00 -0.00000000000E+00 -0.21490840507E+03  0.21490840507E+03  0.00000000000E+00 0.  1.
         23    2    1    2    0    0 -0.11840355516E+03 -0.30460664879E+02 -0.76320529778E+02  0.19083641408E+03  0.12508580933E+03 0.  0.
          5    1    3    3  502    0 -0.34827523840E+02  0.22545644821E+02  0.25422888079E+02  0.48837057195E+02  0.41800000000E+01 0. -1.
         -5    1    3    3    0  502 -0.83576031318E+02 -0.53006309700E+02 -0.10174341786E+03  0.14199935689E+03  0.41800000000E+01 0. -1.
        -11    1    1    2    0    0  0.87520741539E+02  0.24062808517E+02 -0.48549717933E+02  0.10293674788E+03  0.00000000000E+00 0.  1.
         11    1    1    2    0    0  0.30882813619E+02  0.63978563616E+01  0.38924402145E+02  0.50097802600E+02  0.00000000000E+00 0. -1.
</event>
<event>
 7    1  0.1243146E-005  0.1677596E+03  0.7561462E-02  0.1180205E+00
          2   -1    0    0  501    0  0.00000000000E+00  0.00000000000E+00  0.19340322094E+04  0.19340322094E+04  0.00000000000E+00 0. -1.
         -2   -1    0    0    0  501 -0.00000000000E+00 -0.00000000000E+00 -0.19565853738E+02  0.19565853738E+02  0.00000000000E+00 0.  1.
         23    2    1    2    0    0 -0.30186541969E+02  0.15709103977E+03  0.10743122261E+04  0.10933357233E+04  0.12508965758E+03 0.  0.
          5    1    3    3  502    0 -0.95771094594E+01  0.38373163911E+02  0.60637844884E+02  0.72516490307E+02  0.41800000000E+01 0. -1.
         -5    1    3    3    0  502 -0.20609432510E+02  0.11871787586E+03  0.10136743813E+04  0.10208192330E+04  0.41800000000E+01 0. -1.
        -11    1    1    2    0    0 -0.22847098911E+02 -0.32049189944E+02  0.94999206048E+02  0.10282990642E+03  0.00000000000E+00 0.  1.
         11    1    1    2    0    0  0.53033640880E+02 -0.12504184983E+03  0.74515492350E+03  0.75743243348E+03  0.00000000000E+00 0. -1.
</event>
<event>
 7    1  0.1243146E-005  0.1447249E+03  0.7561462E-02  0.1207109E+00
          1   -1    0    0  501    0  0.00000000000E+00  0.00000000000E+00  0.65522062358E+03  0.65522062358E+03  0.00000000000E+00 0. -1.
         -1   -1    0    0    0  501 -0.00000000000E+00 -0.00000000000E+00 -0.36103695975E+02  0.36103695975E+02  0.00000000000E+00 0.  1.
         23    2    1    2    0    0  0.53688607750E+02 -0.82528553758E+02  0.22402173712E+03  0.27482092012E+03  0.12508945059E+03 0.  0.
          5    1    3    3  502    0 -0.16140497474E+02  0.25182268893E+02  0.52133807618E+02  0.60250050805E+02  0.41800000000E+01 0.  1.
         -5    1    3    3    0  502  0.69829105224E+02 -0.10771082265E+03  0.17188792950E+03  0.21457086932E+03  0.41800000000E+01 0.  1.
        -11    1    1    2    0    0  0.11041373394E+02  0.61900191487E+02  0.16444851419E+03  0.17605924983E+03  0.00000000000E+00 0. -1.
         11    1    1    2    0    0 -0.64729981143E+02  0.20628362272E+02  0.23064667630E+03  0.24044414960E+03  0.00000000000E+00 0.  1.
</event>
<event>
 7    1  0.1449828E-005  0.1480044E+03  0.7561462E-02  0.1202947E+00
         -1   -1    0    0    0  501 -0.00000000000E+00  0.00000000000E+00  0.30576654648E+03  0.30576654648E+03  0.00000000000E+00 0.  1.
          1   -1    0    0  501    0  0.00000000000E+00 -0.00000000000E+00 -0.83350506409E+02  0.83350506409E+02  0.00000000000E+00 0. -1.
         23    2    1    2    0    0  0.61388395889E+02 -0.97739486919E+02  0.13247326651E+03  0.21568035733E+03  0.12508919915E+03 0.  0.
          5    1    3    3  502    0 -0.14395419423E+02 -0.80936131349E+02  0.31235471567E+02  0.88039834974E+02  0.41800000000E+01 0. -1.
         -5    1    3    3    0  502  0.75783815312E+02 -0.16803355569E+02  0.10123779495E+03  0.12764052236E+03  0.41800000000E+01 0. -1.
        -11    1    1    2    0    0 -0.33315983149E+02  0.10223752055E+03  0.96251130620E+02  0.14431474452E+03  0.00000000000E+00 0.  1.
         11    1    1    2    0    0 -0.28072412739E+02 -0.44980336295E+01 -0.63083570596E+01  0.29121951039E+02  0.00000000000E+00 0. -1.
</event>
<event>
 7    1  0.1243146E-005  0.9640439E+02  0.7561462E-02  0.1288044E+00
         -1   -1    0    0    0  501 -0.00000000000E+00  0.00000000000E+00  0.23285577221E+03  0.23285577221E+03  0.00000000000E+00 0.  1.
          1   -1    0    0  501    0  0.00000000000E+00 -0.00000000000E+00 -0.24631213270E+03  0.24631213270E+03  0.00000000000E+00 0. -1.
         23    2    1    2    0    0  0.23476043833E+02  0.26012896923E+02  0.20319145986E+03  0.24116636937E+03  0.12508658168E+03 0.  0.
          5    1    3    3  502    0 -0.36729863256E+02 -0.53716194497E+01  0.15065485538E+03  0.15521692885E+03  0.41800000000E+01 0. -1.
         -5    1    3    3    0  502  0.60205907089E+02  0.31384516373E+02  0.52536604479E+02  0.85949440525E+02  0.41800000000E+01 0. -1.
        -11    1    1    2    0    0 -0.12768869683E+02 -0.55034430502E+02 -0.80264295148E+02  0.98153907968E+02  0.00000000000E+00 0.  1.
         11    1    1    2    0    0 -0.10707174151E+02  0.29021533579E+02 -0.13638352520E+03  0.13984762757E+03  0.00000000000E+00 0. -1.
</event>
<event>
 7    1  0.1243146E-005  0.1001566E+03  0.7561462E-02  0.1279967E+00
          1   -1    0    0  501    0  0.00000000000E+00  0.00000000000E+00  0.53847473228E+02  0.53847473228E+02  0.00000000000E+00 0. -1.
         -1   -1    0    0    0  501 -0.00000000000E+00 -0.00000000000E+00 -0.36534813584E+03  0.36534813584E+03  0.00000000000E+00 0.  1.
         23    2    1    2    0    0  0.23634499547E+02 -0.77613899040E+02 -0.22237967426E+03  0.26774308752E+03  0.12510449432E+03 0.  0.
          5    1    3    3  502    0 -0.21810509905E+02 -0.54406403066E+02 -0.25051670172E+02  0.63881246194E+02  0.41800000000E+01 0.  1.
         -5    1    3    3    0  502  0.45445009451E+02 -0.23207495974E+02 -0.19732800408E+03  0.20386184133E+03  0.41800000000E+01 0.  1.
        -11    1    1    2    0    0  0.77980278647E+01  0.42556419926E+02 -0.94624713411E+02  0.10404659775E+03  0.00000000000E+00 0.  1.
         11    1    1    2    0    0 -0.31432527412E+02  0.35057479114E+02  0.55037250567E+01  0.47405923794E+02  0.00000000000E+00 0. -1.
</event>
<event>
 7    1  0.1243146E-005  0.1509744E+03  0.7561462E-02  0.1199281E+00
          1   -1    0    0  501    0  0.00000000000E+00  0.00000000000E+00  0.44939865985E+03  0.44939865985E+03  0.00000000000E+00 0. -1.
         -1   -1    0    0    0  501 -0.00000000000E+00 -0.00000000000E+00 -0.57183594064E+02  0.57183594064E+02  0.00000000000E+00 0.  1.
         23    2    1    2    0    0  0.73762023475E+02  0.93179889797E+02  0.21598698489E+03  0.27644452974E+03  0.12509145619E+03 0.  0.
          5    1    3    3  502    0  0.10363979307E+03  0.55461229463E+02  0.18444833245E+03  0.21875971847E+03  0.41800000000E+01 0. -1.
         -5    1    3    3    0  502 -0.29877769596E+02  0.37718660334E+02  0.31538652440E+02  0.57684811269E+02  0.41800000000E+01 0. -1.
        -11    1    1    2    0    0  0.12658512776E+02 -0.12903043206E+02  0.66939386171E+02  0.69336915785E+02  0.00000000000E+00 0. -1.
         11    1    1    2    0    0 -0.86420536251E+02 -0.80276846590E+02  0.10928869473E+03  0.16080080839E+03  0.00000000000E+00 0.  1.
</event>
<event>
 7    1  0.1243146E-005  0.2427173E+03  0.7561462E-02  0.1117996E+00
         -1   -1    0    0    0  501 -0.00000000000E+00  0.00000000000E+00  0.30535153362E+03  0.30535153362E+03  0.00000000000E+00 0.  1.
          1   -1    0    0  501    0  0.00000000000E+00 -0.00000000000E+00 -0.22840634477E+03  0.22840634477E+03  0.00000000000E+00 0. -1.
         23    2    1    2    0    0 -0.52645691713E+02  0.22821196122E+03  0.96679118923E+02  0.28257041620E+03  0.12508764918E+03 0.  0.
          5    1    3    3  502    0 -0.40319774886E+02  0.21914485237E+03  0.12095623042E+03  0.25357056739E+03  0.41800000000E+01 0.  1.
         -5    1    3    3    0  502 -0.12325916827E+02  0.90671088534E+01 -0.24277111501E+02  0.28999848817E+02  0.41800000000E+01 0.  1.
        -11    1    1    2    0    0  0.71833201972E+02 -0.15199074615E+03  0.67505503191E+01  0.16824614632E+03  0.00000000000E+00 0.  1.
         11    1    1    2    0    0 -0.19187510259E+02 -0.76221215070E+02 -0.26484480393E+02  0.82941315871E+02  0.00000000000E+00 0. -1.
</event>
<event>
 7    1  0.1243146E-005  0.1571171E+03  0.7561462E-02  0.1191990E+00
          2   -1    0    0  501    0  0.00000000000E+00  0.00000000000E+00  0.49485465933E+03  0.49485465933E+03  0.00000000000E+00 0. -1.
         -2   -1    0    0    0  501 -0.00000000000E+00 -0.00000000000E+00 -0.55888315169E+02  0.55888315169E+02  0.00000000000E+00 0.  1.
         23    2    1    2    0    0 -0.12515787834E+03  0.49555994283E+01  0.21412704284E+03  0.27782494503E+03  0.12508899683E+03 0.  0.
          5    1    3    3  502    0 -0.12342647747E+03  0.35656167961E+02  0.21041535885E+03  0.24657159872E+03  0.41800000000E+01 0.  1.
         -5    1    3    3    0  502 -0.17314008641E+01 -0.30700568533E+02  0.37116839853E+01  0.31253346304E+02  0.41800000000E+01 0.  1.
        -11    1    1    2    0    0  0.42516723103E+02  0.41872614672E+02  0.89696022644E+02  0.10773283660E+03  0.00000000000E+00 0.  1.
         11    1    1    2    0    0  0.82641155233E+02 -0.46828214100E+02  0.13514327868E+03  0.16518519288E+03  0.00000000000E+00 0. -1.
</event>
<event>
 7    1  0.1243146E-005  0.1343412E+03  0.7561462E-02  0.1221153E+00
          1   -1    0    0  501    0  0.00000000000E+00  0.00000000000E+00  0.18476106609E+03  0.18476106609E+03  0.00000000000E+00 0. -1.
         -1   -1    0    0    0  501 -0.00000000000E+00 -0.00000000000E+00 -0.14323001311E+03  0.14323001311E+03  0.00000000000E+00 0.  1.
         23    2    1    2    0    0  0.60133943904E+02 -0.85984215325E+02 -0.37469935786E+02  0.16751471247E+03  0.12509119198E+03 0.  0.
          5    1    3    3  502    0  0.57519797858E+02 -0.11752920223E+03 -0.25256085450E+02  0.13333035204E+03  0.41800000000E+01 0.  1.
         -5    1    3    3    0  502  0.26141460459E+01  0.31544986902E+02 -0.12213850336E+02  0.34184360433E+02  0.41800000000E+01 0.  1.
        -11    1    1    2    0    0 -0.37367963647E+01  0.13445073084E+02 -0.20654314629E+02  0.24926579189E+02  0.00000000000E+00 0.  1.
         11    1    1    2    0    0 -0.56397147539E+02  0.72539142241E+02  0.99655303391E+02  0.13554978754E+03  0.00000000000E+00 0. -1.
</event>
<event>
 7    1  0.1243146E-005  0.8272330E+02  0.7561462E-02  0.1321496E+00
          2   -1    0    0  501    0  0.00000000000E+00  0.00000000000E+00  0.23830870856E+03  0.23830870856E+03  0.00000000000E+00 0. -1.
         -2   -1    0    0    0  501 -0.00000000000E+00 -0.00000000000E+00 -0.68026899107E+02  0.68026899107E+02  0.00000000000E+00 0.  1.
         23    2    1    2    0    0 -0.57023630764E+02 -0.28081915578E+02  0.75195304953E+02  0.15919320627E+03  0.12509138494E+03 0.  0.
          5    1    3    3  502    0 -0.49123338759E+02 -0.13615541422E+02  0.10952719457E+03  0.12088078478E+03  0.41800000000E+01 0.  1.
         -5    1    3    3    0  502 -0.79002920049E+01 -0.14466374156E+02 -0.34331889620E+02  0.38312421483E+02  0.41800000000E+01 0.  1.
        -11    1    1    2    0    0 -0.17292828768E+02 -0.13894044090E+01 -0.59151470060E+01  0.18329248089E+02  0.00000000000E+00 0.  1.
         11    1    1    2    0    0  0.74316459532E+02  0.29471319987E+02  0.10100165151E+03  0.12881315331E+03  0.00000000000E+00 0. -1.
</event>
<event>
 7    1  0.1243146E-005  0.1124590E+03  0.7561462E-02  0.1256083E+00
         -2   -1    0    0    0  501 -0.00000000000E+00  0.00000000000E+00  0.10948853686E+04  0.10948853686E+04  0.00000000000E+00 0.  1.
          2   -1    0    0  501    0  0.00000000000E+00 -0.00000000000E+00 -0.15459846617E+02  0.15459846617E+02  0.00000000000E+00 0. -1.
         23    2    1    2    0    0  0.37276487089E+02 -0.25259761633E+02  0.84599299303E+03  0.85637568549E+03  0.12509028102E+03 0.  0.
          5    1    3    3  502    0 -0.37195552265E+02 -0.37353775238E+02  0.46216782116E+03  0.46518316924E+03  0.41800000000E+01 0. -1.
         -5    1    3    3    0  502  0.74472039354E+02  0.12094013605E+02  0.38382517187E+03  0.39119251625E+03  0.41800000000E+01 0. -1.
        -11    1    1    2    0    0  0.26305079409E+02 -0.37801022502E+01  0.37659389070E+02  0.46092037934E+02  0.00000000000E+00 0.  1.
         11    1    1    2    0    0 -0.63581566497E+02  0.29039863883E+02  0.19577313992E+03  0.20787749182E+03  0.00000000000E+00 0. -1.
</event>
<event>
 7    1  0.1332309E-005  0.1347638E+03  0.7561462E-02  0.1220554E+00
          1   -1    0    0  501    0  0.00000000000E+00  0.00000000000E+00  0.39285141909E+02  0.39285141909E+02  0.00000000000E+00 0. -1.
         -1   -1    0    0    0  501 -0.00000000000E+00 -0.00000000000E+00 -0.59466282377E+03  0.59466282377E+03  0.00000000000E+00 0.  1.
         23    2    1    2    0    0  0.54762064142E+02 -0.91536243993E+02 -0.32109998592E+03  0.36073576683E+03  0.12508926764E+03 0.  0.
          5    1    3    3  502    0  0.18130679253E+01 -0.10714876014E+03 -0.23583572301E+03  0.25907548063E+03  0.41800000000E+01 0.  1.
         -5    1    3    3    0  502  0.52948996216E+02  0.15612516147E+02 -0.85264262906E+02  0.10166028620E+03  0.41800000000E+01 0.  1.
        -11    1    1    2    0    0 -0.50243264228E+01  0.13254575552E+02  0.61983682317E+01  0.15470856402E+02  0.00000000000E+00 0. -1.
         11    1    1    2    0    0 -0.49737737719E+02  0.78281668441E+02 -0.24047606417E+03  0.25774134245E+03  0.00000000000E+00 0.  1.
</event>
<event>
 7    1  0.1243146E-005  0.1360635E+03  0.7561462E-02  0.1218726E+00
         -2   -1    0    0    0  501 -0.00000000000E+00  0.00000000000E+00  0.47706953722E+02  0.47706953722E+02  0.00000000000E+00 0.  1.
          2   -1    0    0  501    0  0.00000000000E+00 -0.00000000000E+00 -0.50604689664E+03  0.50604689664E+03  0.00000000000E+00 0. -1.
         23    2    1    2    0    0  0.76629485323E+01 -0.10664218689E+03 -0.20250725487E+03  0.26093189221E+03  0.12507992363E+03 0.  0.
          5    1    3    3  502    0  0.48425137282E+02 -0.22619321672E+02 -0.13605873101E+03  0.14623979731E+03  0.41800000000E+01 0.  1.
         -5    1    3    3    0  502 -0.40762188749E+02 -0.84022865216E+02 -0.66448523860E+02  0.11469209491E+03  0.41800000000E+01 0.  1.
        -11    1    1    2    0    0  0.28795388546E+02  0.45415780789E+02 -0.44503779307E+02  0.69802248666E+02  0.00000000000E+00 0.  1.
         11    1    1    2    0    0 -0.36458337079E+02  0.61226406098E+02 -0.21132890875E+03  0.22301970948E+03  0.00000000000E+00 0. -1.
</event>
<event>
 7    1  0.1243146E-005  0.9246534E+02  0.7561462E-02  0.1296989E+00
         -2   -1    0    0    0  501 -0.00000000000E+00  0.00000000000E+00  0.43329524320E+03  0.43329524320E+03  0.00000000000E+00 0.  1.
          2   -1    0    0  501    0  0.00000000000E+00 -0.00000000000E+00 -0.30721250581E+02  0.30721250581E+02  0.00000000000E+00 0. -1.
         23    2    1    2    0    0 -0.36188746619E+02 -0.17308076492E+02  0.22581422588E+03  0.26124180131E+03  0.12508404875E+03 0.  0.
          5    1    3    3  502    0 -0.47118827069E+02 -0.53101225427E+02  0.20753686431E+03  0.21938310431E+03  0.41800000000E+01 0. -1.
         -5    1    3    3    0  502  0.10930080450E+02  0.35793148935E+02  0.18277361560E+02  0.41858697005E+02  0.41800000000E+01 0. -1.
        -11    1    1    2    0    0  0.37619733774E+02  0.39134785061E+02  0.48912988216E+02  0.73070214090E+02  0.00000000000E+00 0. -1.
         11    1    1    2    0    0 -0.14309871551E+01 -0.21826708570E+02  0.12784677853E+03  0.12970447838E+03  0.00000000000E+00 0.  1.
</event>
<event>
 7    1  0.1243146E-005  0.7812920E+02  0.7561462E-02  0.1334446E+00
          2   -1    0    0  501    0  0.00000000000E+00  0.00000000000E+00  0.50370859723E+03  0.50370859723E+03  0.00000000000E+00 0. -1.
         -2   -1    0    0    0  501 -0.00000000000E+00 -0.00000000000E+00 -0.29858677472E+02  0.29858677472E+02  0.00000000000E+00 0.  1.
         23    2    1    2    0    0  0.37152837378E+02  0.61218598189E+01  0.18905035870E+03  0.23154211013E+03  0.12827275684E+03 0.  0.
          5    1    3    3  502    0  0.18927085566E+02  0.30400855390E+02  0.19668343260E+03  0.19996072523E+03  0.41800000000E+01 0. -1.
         -5    1    3    3    0  502  0.18225751813E+02 -0.24278995571E+02 -0.76330739001E+01  0.31581384900E+02  0.41800000000E+01 0.  1.
        -11    1    1    2    0    0  0.95862572890E+01  0.29354980469E+02  0.17328098042E+03  0.17601110585E+03  0.00000000000E+00 0.  1.
         11    1    1    2    0    0 -0.46739094667E+02 -0.35476840288E+02  0.11151858064E+03  0.12601405872E+03  0.00000000000E+00 0. -1.
</event>
<event>
 7    1  0.1243146E-005  0.1229764E+03  0.7561462E-02  0.1238266E+00
         -2   -1    0    0    0  501 -0.00000000000E+00  0.00000000000E+00  0.95617746979E+03  0.95617746979E+03  0.00000000000E+00 0.  1.
          2   -1    0    0  501    0  0.00000000000E+00 -0.00000000000E+00 -0.23734501627E+02  0.23734501627E+02  0.00000000000E+00 0. -1.
         23    2    1    2    0    0  0.69207027268E+02 -0.24271896602E+01  0.76818191976E+03  0.77935907661E+03  0.11181057452E+03 0.  0.
          5    1    3    3  502    0 -0.26337204143E+02  0.19288653059E+02  0.22512664714E+03  0.22751962577E+03  0.41800000000E+01 0. -1.
         -5    1    3    3    0  502  0.95544231411E+02 -0.21715842719E+02  0.54305527263E+03  0.55183945084E+03  0.41800000000E+01 0.  1.
        -11    1    1    2    0    0  0.17293183131E+02  0.20275548550E+02  0.41549531986E+02  0.49361074340E+02  0.00000000000E+00 0.  1.
         11    1    1    2    0    0 -0.86500210399E+02 -0.17848358890E+02  0.12271151641E+03  0.15119182046E+03  0.00000000000E+00 0. -1.
</event>
<event>
 7    1  0.1243146E-005  0.7806771E+02  0.7561462E-02  0.1334626E+00
          1   -1    0    0  501    0  0.00000000000E+00  0.00000000000E+00  0.13583235602E+02  0.13583235602E+02  0.00000000000E+00 0. -1.
         -1   -1    0    0    0  501 -0.00000000000E+00 -0.00000000000E+00 -0.91290951030E+03  0.91290951030E+03  0.00000000000E+00 0.  1.
         23    2    1    2    0    0  0.10245611509E+02  0.24354318448E+02 -0.50054178710E+03  0.51661248371E+03  0.12509305461E+03 0.  0.
          5    1    3    3  502    0  0.29467779194E+02 -0.59822693572E+01 -0.46473792676E+03  0.46572840855E+03  0.41800000000E+01 0.  1.
         -5    1    3    3    0  502 -0.19222167685E+02  0.30336587805E+02 -0.35803860339E+02  0.50884075164E+02  0.41800000000E+01 0.  1.
        -11    1    1    2    0    0 -0.26372993994E+02 -0.51606334219E+02 -0.31550126037E+03  0.32077997730E+03  0.00000000000E+00 0.  1.
         11    1    1    2    0    0  0.16127382485E+02  0.27252015771E+02 -0.83283227230E+02  0.89100284889E+02  0.00000000000E+00 0. -1.
</event>
<event>
 7    1  0.1243146E-005  0.1015695E+03  0.7561462E-02  0.1277030E+00
         -1   -1    0    0    0  501 -0.00000000000E+00  0.00000000000E+00  0.70801478879E+02  0.70801478879E+02  0.00000000000E+00 0.  1.
          1   -1    0    0  501    0  0.00000000000E+00 -0.00000000000E+00 -0.40181055674E+03  0.40181055674E+03  0.00000000000E+00 0. -1.
         23    2    1    2    0    0 -0.67723059785E+02 -0.49715350081E+02 -0.38285432363E+02  0.15546405755E+03  0.12508105372E+03 0.  0.
          5    1    3    3  502    0  0.58713645353E+01 -0.33552013220E+02  0.35884571220E+02  0.49652647102E+02  0.41800000000E+01 0.  1.
         -5    1    3    3    0  502 -0.73594424320E+02 -0.16163336862E+02 -0.74170003583E+02  0.10581141045E+03  0.41800000000E+01 0.  1.
        -11    1    1    2    0    0  0.13322347634E+00  0.19195993391E+02 -0.47458142000E+01  0.19774394129E+02  0.00000000000E+00 0.  1.
         11    1    1    2    0    0  0.67589836308E+02  0.30519356690E+02 -0.28797783129E+03  0.29737358393E+03  0.00000000000E+00 0. -1.
</event>
<event>
 7    1  0.1243146E-005  0.8684243E+02  0.7561462E-02  0.1310684E+00
          1   -1    0    0  501    0  0.00000000000E+00  0.00000000000E+00  0.22276940759E+03  0.22276940759E+03  0.00000000000E+00 0. -1.
         -1   -1    0    0    0  501 -0.00000000000E+00 -0.00000000000E+00 -0.74767137496E+02  0.74767137496E+02  0.00000000000E+00 0.  1.
         23    2    1    2    0    0 -0.39922002184E+02  0.41468474737E+02  0.37427608741E+02  0.14269493409E+03  0.12509043794E+03 0.  0.
          5    1    3    3  502    0 -0.69344104200E+02  0.14653346939E+02 -0.19014167235E+02  0.73500587205E+02  0.41800000000E+01 0. -1.
         -5    1    3    3    0  502  0.29422102016E+02  0.26815127798E+02  0.56441775976E+02  0.69194346887E+02  0.41800000000E+01 0. -1.
        -11    1    1    2    0    0  0.35939028907E+02 -0.20621645052E+02 -0.81989308698E+00  0.41443193266E+02  0.00000000000E+00 0.  1.
         11    1    1    2    0    0  0.39829732775E+01 -0.20846829685E+02  0.11139455444E+03  0.11339841773E+03  0.00000000000E+00 0. -1.
</event>
<event>
 7    1  0.1243146E-005  0.1065309E+03  0.7561462E-02  0.1267132E+00
          2   -1    0    0  501    0  0.00000000000E+00  0.00000000000E+00  0.24484688985E+03  0.24484688985E+03  0.00000000000E+00 0. -1.
         -2   -1    0    0    0  501 -0.00000000000E+00 -0.00000000000E+00 -0.62105795682E+02  0.62105795682E+02  0.00000000000E+00 0.  1.
         23    2    1    2    0    0 -0.12504086730E+02  0.52014810477E+02  0.70735021767E+02  0.15334151185E+03  0.12509309836E+03 0.  0.
          5    1    3    3  502    0  0.34684441670E+02  0.72800971554E+02  0.59759190692E+02  0.10045708151E+03  0.41800000000E+01 0. -1.
         -5    1    3    3    0  502 -0.47188528400E+02 -0.20786161077E+02  0.10975831075E+02  0.52884430342E+02  0.41800000000E+01 0. -1.
        -11    1    1    2    0    0  0.32550852748E+02 -0.51005602223E+02  0.26983367348E+02  0.66251276110E+02  0.00000000000E+00 0.  1.
         11    1    1    2    0    0 -0.20046766018E+02 -0.10092082539E+01  0.85022705051E+02  0.87359897569E+02  0.00000000000E+00 0. -1.
</event>
<event>
 7    1  0.1243146E-005  0.1196753E+03  0.7561462E-02  0.1243634E+00
          2   -1    0    0  501    0  0.00000000000E+00  0.00000000000E+00  0.12057490357E+03  0.12057490357E+03  0.00000000000E+00 0. -1.
         -2   -1    0    0    0  501 -0.00000000000E+00 -0.00000000000E+00 -0.28622918939E+03  0.28622918939E+03  0.00000000000E+00 0.  1.
         23    2    1    2    0    0 -0.58652015888E+02  0.96770327138E+02 -0.19521085846E+03  0.25799029529E+03  0.12508860068E+03 0.  0.
          5    1    3    3  502    0 -0.59023075560E+02  0.10177121266E+03 -0.79401528908E+02  0.14199710690E+03  0.41800000000E+01 0. -1.
         -5    1    3    3    0  502  0.37105967191E+00 -0.50008855215E+01 -0.11580932955E+03  0.11599318839E+03  0.41800000000E+01 0. -1.
        -11    1    1    2    0    0  0.46372040360E+02 -0.57020098620E+02  0.61921368754E+02  0.96103661128E+02  0.00000000000E+00 0. -1.
         11    1    1    2    0    0  0.12279975528E+02 -0.39750228519E+02 -0.32364796115E+02  0.52710136537E+02  0.00000000000E+00 0.  1.
</event>
<event>
 7    1  0.1243146E-005  0.1556816E+03  0.7561462E-02  0.1193660E+00
         -2   -1    0    0    0  501 -0.00000000000E+00  0.00000000000E+00  0.24581704377E+03  0.24581704377E+03  0.00000000000E+00 0.  1.
          2   -1    0    0  501    0  0.00000000000E+00 -0.00000000000E+00 -0.11478922577E+03  0.11478922577E+03  0.00000000000E+00 0. -1.
         23    2    1    2    0    0 -0.27952533251E+02 -0.12002138185E+03  0.10346591518E+03  0.20395283079E+03  0.12531993204E+03 0.  0.
          5    1    3    3  502    0 -0.36888675048E+02  0.14568480619E+02  0.32700599057E+02  0.51573409360E+02  0.41800000000E+01 0.  1.
         -5    1    3    3    0  502  0.89361417968E+01 -0.13458986247E+03  0.70765316123E+02  0.15237942143E+03  0.41800000000E+01 0.  1.
        -11    1    1    2    0    0  0.89612829533E+01  0.11695069407E+03  0.49643891974E+02  0.12736673603E+03  0.00000000000E+00 0.  1.
         11    1    1    2    0    0  0.18991250298E+02  0.30706877746E+01 -0.22081989153E+02  0.29286702721E+02  0.00000000000E+00 0. -1.
</event>
<event>
 7    1  0.1243146E-005  0.1413357E+03  0.7561462E-02  0.1211543E+00
          3   -1    0    0  501    0  0.00000000000E+00  0.00000000000E+00  0.10833708211E+03  0.10833708211E+03  0.00000000000E+00 0. -1.
         -3   -1    0    0    0  501 -0.00000000000E+00 -0.00000000000E+00 -0.20864438380E+03  0.20864438380E+03  0.00000000000E+00 0.  1.
         23    2    1    2    0    0  0.78388572100E+02 -0.64236436295E+02 -0.31182461989E+02  0.16398614762E+03  0.12509205687E+03 0.  0.
          5    1    3    3  502    0  0.10006360881E+03 -0.73573353561E+02 -0.49554776185E+02  0.13378681701E+03  0.41800000000E+01 0. -1.
         -5    1    3    3    0  502 -0.21675036712E+02  0.93369172661E+01  0.18372314196E+02  0.30199330613E+02  0.41800000000E+01 0. -1.
        -11    1    1    2    0    0 -0.70608218375E+02  0.89355429437E+00 -0.23044304049E+02  0.74278926288E+02  0.00000000000E+00 0. -1.
         11    1    1    2    0    0 -0.77803537242E+01  0.63342882001E+02 -0.46080535644E+02  0.78716392000E+02  0.00000000000E+00 0.  1.
</event>
<event>
 7    1  0.1243146E-005  0.1048876E+03  0.7561462E-02  0.1270341E+00
         -2   -1    0    0    0  501 -0.00000000000E+00  0.00000000000E+00  0.30256250307E+02  0.30256250307E+02  0.00000000000E+00 0.  1.
          2   -1    0    0  501    0  0.00000000000E+00 -0.00000000000E+00 -0.47072254507E+03  0.47072254507E+03  0.00000000000E+00 0. -1.
         23    2    1    2    0    0  0.43774267074E+02  0.90571475220E+00 -0.28796470190E+03  0.31699889485E+03  0.12509045935E+03 0.  0.
          5    1    3    3  502    0  0.30177912246E+02 -0.60841427923E+02 -0.16960994115E+03  0.18274952880E+03  0.41800000000E+01 0. -1.
         -5    1    3    3    0  502  0.13596354828E+02  0.61747142675E+02 -0.11835476075E+03  0.13424936605E+03  0.41800000000E+01 0. -1.
        -11    1    1    2    0    0  0.15395673272E+02 -0.10205991979E+02  0.17045844566E+01  0.18549788029E+02  0.00000000000E+00 0.  1.
         11    1    1    2    0    0 -0.59169940346E+02  0.93002772268E+01 -0.15420617732E+03  0.16543011250E+03  0.00000000000E+00 0. -1.
</event>
<event>
 7    1  0.1243146E-005  0.1009224E+03  0.7561462E-02  0.1278368E+00
          2   -1    0    0  501    0  0.00000000000E+00  0.00000000000E+00  0.12162904608E+03  0.12162904608E+03  0.00000000000E+00 0. -1.
         -2   -1    0    0    0  501 -0.00000000000E+00 -0.00000000000E+00 -0.17051464282E+03  0.17051464282E+03  0.00000000000E+00 0.  1.
         23    2    1    2    0    0 -0.61787481234E+02 -0.11970280370E+02 -0.96501277581E+02  0.17006927284E+03  0.12510028193E+03 0.  0.
          5    1    3    3  502    0 -0.73081279715E+02  0.13321313441E+01 -0.11995890677E+03  0.14053561731E+03  0.41800000000E+01 0.  1.
         -5    1    3    3    0  502  0.11293798481E+02 -0.13302411714E+02  0.23457629192E+02  0.29533655528E+02  0.41800000000E+01 0.  1.
        -11    1    1    2    0    0  0.51192937316E+02  0.49789987307E+02  0.20326903812E+02  0.74249193165E+02  0.00000000000E+00 0. -1.
         11    1    1    2    0    0  0.10594543918E+02 -0.37819706937E+02  0.27288777021E+02  0.47825222895E+02  0.00000000000E+00 0.  1.
</event>
<event>
 7    1  0.1243146E-005  0.1177838E+03  0.7561462E-02  0.1246798E+00
         -2   -1    0    0    0  501 -0.00000000000E+00  0.00000000000E+00  0.16485590349E+03  0.16485590349E+03  0.00000000000E+00 0.  1.
          2   -1    0    0  501    0  0.00000000000E+00 -0.00000000000E+00 -0.14994179886E+03  0.14994179886E+03  0.00000000000E+00 0. -1.
         23    2    1    2    0    0 -0.81031968981E+02  0.24794779690E+02  0.82082987842E+02  0.17194853283E+03  0.12509084680E+03 0.  0.
          5    1    3    3  502    0  0.22185264024E+02 -0.26486092311E+02  0.11119846046E+02  0.36535221387E+02  0.41800000000E+01 0.  1.
         -5    1    3    3    0  502 -0.10321723300E+03  0.51280872001E+02  0.70963141795E+02  0.13541331144E+03  0.41800000000E+01 0.  1.
        -11    1    1    2    0    0  0.54573469728E+02 -0.11285981346E+02 -0.89673969735E+02  0.10557962787E+03  0.00000000000E+00 0. -1.
         11    1    1    2    0    0  0.26458499253E+02 -0.13508798344E+02  0.22505086529E+02  0.37269541654E+02  0.00000000000E+00 0.  1.
</event>
<event>
 7    1  0.1243146E-005  0.1159453E+03  0.7561462E-02  0.1249940E+00
         -1   -1    0    0    0  501 -0.00000000000E+00  0.00000000000E+00  0.28292149554E+03  0.28292149554E+03  0.00000000000E+00 0.  1.
          1   -1    0    0  501    0  0.00000000000E+00 -0.00000000000E+00 -0.77993895947E+02  0.77993895947E+02  0.00000000000E+00 0. -1.
         23    2    1    2    0    0 -0.98281313882E+02 -0.29645776845E+01  0.12609866139E+03  0.20301599979E+03  0.12508644366E+03 0.  0.
          5    1    3    3  502    0 -0.94505747483E+02 -0.50684570333E+01  0.15052821849E+03  0.17785736568E+03  0.41800000000E+01 0.  1.
         -5    1    3    3    0  502 -0.37755663997E+01  0.21038793488E+01 -0.24429557104E+02  0.25158634109E+02  0.41800000000E+01 0.  1.
        -11    1    1    2    0    0  0.73322301700E+02  0.42232430009E+02  0.28327055875E+02  0.89230937267E+02  0.00000000000E+00 0.  1.
         11    1    1    2    0    0  0.24959012182E+02 -0.39267852325E+02  0.50501882333E+02  0.68668454435E+02  0.00000000000E+00 0. -1.
</event>
<event>
 7    1  0.1243146E-005  0.1058702E+03  0.7561462E-02  0.1268414E+00
          4   -1    0    0  501    0  0.00000000000E+00  0.00000000000E+00  0.47221241666E+03  0.47221241666E+03  0.00000000000E+00 0. -1.
         -4   -1    0    0    0  501 -0.00000000000E+00 -0.00000000000E+00 -0.42330670616E+02  0.42330670616E+02  0.00000000000E+00 0.  1.
         23    2    1    2    0    0 -0.49698015600E+02 -0.41286167360E+02  0.11946069310E+03  0.18464381057E+03  0.12509212292E+03 0.  0.
          5    1    3    3  502    0 -0.56077278880E+02  0.18894153842E+01  0.12814048705E+03  0.13994887609E+03  0.41800000000E+01 0.  1.
         -5    1    3    3    0  502  0.63792632797E+01 -0.43175582744E+02 -0.86797939525E+01  0.44694934482E+02  0.41800000000E+01 0.  1.
        -11    1    1    2    0    0  0.10062495371E+02 -0.29134435686E+02  0.81463320902E+02  0.87099608542E+02  0.00000000000E+00 0.  1.
         11    1    1    2    0    0  0.39635520229E+02  0.70420603046E+02  0.22895773205E+03  0.24279966817E+03  0.00000000000E+00 0. -1.
</event>
<event>
 7    1  0.1243146E-005  0.9997109E+02  0.7561462E-02  0.1280357E+00
          2   -1    0    0  501    0  0.00000000000E+00  0.00000000000E+00  0.34207380004E+03  0.34207380004E+03  0.00000000000E+00 0. -1.
         -2   -1    0    0    0  501 -0.00000000000E+00 -0.00000000000E+00 -0.35418023220E+02  0.35418023220E+02  0.00000000000E+00 0.  1.
         23    2    1    2    0    0  0.28200528800E+01  0.19022985917E+02  0.20008381087E+03  0.23674452582E+03  0.12507842516E+03 0.  0.
          5    1    3    3  502    0  0.15066910466E+01  0.67376760526E+02  0.67179213734E+02  0.95249236925E+02  0.41800000000E+01 0.  1.
         -5    1    3    3    0  502  0.13133618334E+01 -0.48353774609E+02  0.13290459714E+03  0.14149528889E+03  0.41800000000E+01 0.  1.
        -11    1    1    2    0    0 -0.41251616383E+02 -0.19044683256E+02  0.85735226325E+02  0.97030535645E+02  0.00000000000E+00 0. -1.
         11    1    1    2    0    0  0.38431563503E+02  0.21697338615E-01  0.20836739625E+02  0.43716761800E+02  0.00000000000E+00 0.  1.
</event>
<event>
 7    1  0.1243146E-005  0.1219921E+03  0.7561462E-02  0.1239846E+00
          1   -1    0    0  501    0  0.00000000000E+00  0.00000000000E+00  0.44768306769E+03  0.44768306769E+03  0.00000000000E+00 0. -1.
         -1   -1    0    0    0  501 -0.00000000000E+00 -0.00000000000E+00 -0.42001607943E+02  0.42001607943E+02  0.00000000000E+00 0.  1.
         23    2    1    2    0    0  0.53632979024E+02 -0.51260480548E+02  0.15426755761E+03  0.21201999663E+03  0.12509942579E+03 0.  0.
          5    1    3    3  502    0 -0.12635581756E+02 -0.58952270029E+02  0.12540985628E+03  0.13921254440E+03  0.41800000000E+01 0. -1.
         -5    1    3    3    0  502  0.66268560780E+02  0.76917894813E+01  0.28857701335E+02  0.72807452226E+02  0.41800000000E+01 0. -1.
        -11    1    1    2    0    0 -0.34488315914E+02  0.77148312321E+02  0.16364957761E+03  0.18418059148E+03  0.00000000000E+00 0.  1.
         11    1    1    2    0    0 -0.19144663111E+02 -0.25887831773E+02  0.87764324525E+02  0.93484087517E+02  0.00000000000E+00 0. -1.
</event>
<event>
 7    1  0.1243146E-005  0.9292279E+02  0.7561462E-02  0.1295924E+00
         -1   -1    0    0    0  501 -0.00000000000E+00  0.00000000000E+00  0.15094503314E+03  0.15094503314E+03  0.00000000000E+00 0.  1.
          1   -1    0    0  501    0  0.00000000000E+00 -0.00000000000E+00 -0.18559722157E+03  0.18559722157E+03  0.00000000000E+00 0. -1.
         23    2    1    2    0    0 -0.84711020152E+01  0.22541363830E+02  0.10739633049E+03  0.16660830305E+03  0.12507790449E+03 0.  0.
          5    1    3    3  502    0  0.32214614530E+02  0.42435529364E+02  0.10867962433E+03  0.12110858221E+03  0.41800000000E+01 0. -1.
         -5    1    3    3    0  502 -0.40685716545E+02 -0.19894165534E+02 -0.12832938410E+01  0.45499720836E+02  0.41800000000E+01 0. -1.
        -11    1    1    2    0    0  0.43828464427E+02  0.20134807811E+01 -0.10242545962E+03  0.11142694098E+03  0.00000000000E+00 0. -1.
         11    1    1    2    0    0 -0.35357362412E+02 -0.24554844611E+02 -0.39623059301E+02  0.58507010682E+02  0.00000000000E+00 0.  1.
</event>
<event>
 7    1  0.1243146E-005  0.8909867E+02  0.7561462E-02  0.1305049E+00
         -1   -1    0    0    0  501 -0.00000000000E+00  0.00000000000E+00  0.18965661360E+03  0.18965661360E+03  0.00000000000E+00 0.  1.
          1   -1    0    0  501    0  0.00000000000E+00 -0.00000000000E+00 -0.11005755874E+03  0.11005755874E+03  0.00000000000E+00 0. -1.
         23    2    1    2    0    0  0.58965734815E+02  0.35944119568E+02  0.11186096455E+03  0.18146527264E+03  0.12509129534E+03 0.  0.
          5    1    3    3  502    0  0.10089391889E+02 -0.39828152986E+01 -0.26716473968E+02  0.29135906158E+02  0.41800000000E+01 0. -1.
         -5    1    3    3    0  502  0.48876342926E+02  0.39926934866E+02  0.13857743852E+03  0.15232936648E+03  0.41800000000E+01 0. -1.
        -11    1    1    2    0    0  0.38798377115E+01 -0.40149842756E+02  0.11032187846E+02  0.41818323527E+02  0.00000000000E+00 0.  1.
         11    1    1    2    0    0 -0.62845572527E+02  0.42057231878E+01 -0.43294097536E+02  0.76430576180E+02  0.00000000000E+00 0. -1.
</event>
<event>
 7    1  0.1243146E-005  0.1081101E+03  0.7561462E-02  0.1264110E+00
         -1   -1    0    0    0  501 -0.00000000000E+00  0.00000000000E+00  0.28297881324E+03  0.28297881324E+03  0.00000000000E+00 0.  1.
          1   -1    0    0  501    0  0.00000000000E+00 -0.00000000000E+00 -0.70721667536E+02  0.70721667536E+02  0.00000000000E+00 0. -1.
         23    2    1    2    0    0  0.43298798709E+02  0.72515376172E+02  0.12920729097E+03  0.19868304036E+03  0.12508861153E+03 0.  0.
          5    1    3    3  502    0  0.11507496294E+02 -0.21312252688E+02 -0.11023738705E+02  0.26937516601E+02  0.41800000000E+01 0.  1.
         -5    1    3    3    0  502  0.31791302415E+02  0.93827628860E+02  0.14023102968E+03  0.17174552376E+03  0.41800000000E+01 0.  1.
        -11    1    1    2    0    0 -0.31858575794E+02 -0.17609927758E+02  0.91337248569E+02  0.98323808833E+02  0.00000000000E+00 0.  1.
         11    1    1    2    0    0 -0.11440222915E+02 -0.54905448414E+02 -0.82873938348E+01  0.56693631586E+02  0.00000000000E+00 0. -1.
</event>
<event>
 7    1  0.1243146E-005  0.1307166E+03  0.7561462E-02  0.1226396E+00
          3   -1    0    0  501    0  0.00000000000E+00  0.00000000000E+00  0.27810736557E+02  0.27810736557E+02  0.00000000000E+00 0. -1.
         -3   -1    0    0    0  501 -0.00000000000E+00 -0.00000000000E+00 -0.81944735253E+03  0.81944735253E+03  0.00000000000E+00 0.  1.
         23    2    1    2    0    0 -0.39550274273E+02  0.70425624753E+02 -0.62296127612E+03  0.64050929558E+03  0.12508962136E+03 0.  0.
          5    1    3    3  502    0 -0.38106429915E+01 -0.34318970646E+02 -0.97920354606E+02  0.10391429638E+03  0.41800000000E+01 0. -1.
         -5    1    3    3    0  502 -0.35739631282E+02  0.10474459540E+03 -0.52504092151E+03  0.53659499920E+03  0.41800000000E+01 0. -1.
        -11    1    1    2    0    0  0.64239741545E+02 -0.36326708273E+02 -0.13048295119E+03  0.14990722024E+03  0.00000000000E+00 0.  1.
         11    1    1    2    0    0 -0.24689467271E+02 -0.34098916480E+02 -0.38192388661E+02  0.56841573262E+02  0.00000000000E+00 0. -1.
</event>
<event>
 7    1  0.1243146E-005  0.2010269E+03  0.7561462E-02  0.1148876E+00
         -2   -1    0    0    0  501 -0.00000000000E+00  0.00000000000E+00  0.79260425790E+02  0.79260425790E+02  0.00000000000E+00 0.  1.
          2   -1    0    0  501    0  0.00000000000E+00 -0.00000000000E+00 -0.64459951678E+03  0.64459951678E+03  0.00000000000E+00 0. -1.
         23    2    1    2    0    0  0.28234768344E+02  0.17755901756E+03 -0.16470482995E+03  0.27404332421E+03  0.12509058986E+03 0.  0.
          5    1    3    3  502    0 -0.45031651944E+01  0.17209574372E+03 -0.16780925420E+03  0.24044675439E+03  0.41800000000E+01 0.  1.
         -5    1    3    3    0  502  0.32737933538E+02  0.54632738484E+01  0.31044242501E+01  0.33596569816E+02  0.41800000000E+01 0.  1.
        -11    1    1    2    0    0  0.18811436710E+02 -0.12266730420E+03 -0.18834143610E+03  0.22555184376E+03  0.00000000000E+00 0.  1.
         11    1    1    2    0    0 -0.47046205054E+02 -0.54891713360E+02 -0.21229282494E+03  0.22426477460E+03  0.00000000000E+00 0. -1.
</event>
<event>
 7    1  0.1243146E-005  0.1621221E+03  0.7561462E-02  0.1186322E+00
         -1   -1    0    0    0  501 -0.00000000000E+00  0.00000000000E+00  0.15428671897E+03  0.15428671897E+03  0.00000000000E+00 0.  1.
          1   -1    0    0  501    0  0.00000000000E+00 -0.00000000000E+00 -0.23865160203E+03  0.23865160203E+03  0.00000000000E+00 0. -1.
         23    2    1    2    0    0  0.14824379364E+03  0.29181441490E+02  0.53442432666E+01  0.19623425893E+03  0.12510613320E+03 0.  0.
          5    1    3    3  502    0  0.10561008525E+03  0.27389814927E+02 -0.54964000156E+02  0.12223831552E+03  0.41800000000E+01 0. -1.
         -5    1    3    3    0  502  0.42633708385E+02  0.17916265626E+01  0.60308243423E+02  0.73995943410E+02  0.41800000000E+01 0. -1.
        -11    1    1    2    0    0 -0.36359501863E+02  0.28600847314E+02 -0.89786168527E+01  0.47123639539E+02  0.00000000000E+00 0. -1.
         11    1    1    2    0    0 -0.11188429178E+03 -0.57782288804E+02 -0.80730509473E+02  0.14958042253E+03  0.00000000000E+00 0.  1.
</event>
<event>
 7    1  0.1243146E-005  0.1399057E+03  0.7561462E-02  0.1213456E+00
          3   -1    0    0  501    0  0.00000000000E+00  0.00000000000E+00  0.29111343532E+03  0.29111343532E+03  0.00000000000E+00 0. -1.
         -3   -1    0    0    0  501 -0.00000000000E+00 -0.00000000000E+00 -0.11370303899E+03  0.11370303899E+03  0.00000000000E+00 0.  1.
         23    2    1    2    0    0  0.49283010749E+02  0.12113884772E+03  0.22310967364E+02  0.18234332697E+03  0.12509146274E+03 0.  0.
          5    1    3    3  502    0  0.16345826289E+00  0.40674073032E+02  0.66562147003E+02  0.78117851668E+02  0.41800000000E+01 0. -1.
         -5    1    3    3    0  502  0.49119552487E+02  0.80464774686E+02 -0.44251179639E+02  0.10422547530E+03  0.41800000000E+01 0. -1.
        -11    1    1    2    0    0 -0.53734990274E+02 -0.50379174187E+02  0.12575901265E+03  0.14574237419E+03  0.00000000000E+00 0. -1.
         11    1    1    2    0    0  0.44519795249E+01 -0.70759673531E+02  0.29340416311E+02  0.76730773157E+02  0.00000000000E+00 0.  1.
</event>
<event>
 7    1  0.1319830E-005  0.1496854E+03  0.7561462E-02  0.1200860E+00
          1   -1    0    0  501    0  0.00000000000E+00  0.00000000000E+00  0.17477052622E+03  0.17477052622E+03  0.00000000000E+00 0. -1.
         -1   -1    0    0    0  501 -0.00000000000E+00 -0.00000000000E+00 -0.23319788412E+03  0.23319788412E+03  0.00000000000E+00 0.  1.
         23    2    1    2    0    0  0.58502013617E+02  0.12167838973E+03 -0.10705728918E+03  0.21292474615E+03  0.12509024035E+03 0.  0.
          5    1    3    3  502    0 -0.17749462749E+02  0.19723722399E+02 -0.77686348118E+02  0.82199207642E+02  0.41800000000E+01 0.  1.
         -5    1    3    3    0  502  0.76251476365E+02  0.10195466733E+03 -0.29370941059E+02  0.13072553850E+03  0.41800000000E+01 0.  1.
        -11    1    1    2    0    0 -0.58153238644E+02 -0.60393764633E+02  0.88517956014E+02  0.12192060740E+03  0.00000000000E+00 0. -1.
         11    1    1    2    0    0 -0.34877497283E+00 -0.61284625096E+02 -0.39888024743E+02  0.73123056795E+02  0.00000000000E+00 0.  1.
</event>
<event>
 7    1  0.1243146E-005  0.1023188E+03  0.7561462E-02  0.1275494E+00
         -1   -1    0    0    0  501 -0.00000000000E+00  0.00000000000E+00  0.57447037870E+02  0.57447037870E+02  0.00000000000E+00 0.  1.
          1   -1    0    0  501    0  0.00000000000E+00 -0.00000000000E+00 -0.23275748422E+03  0.23275748422E+03  0.00000000000E+00 0. -1.
         23    2    1    2    0    0  0.28966726728E+02  0.12648721090E+02 -0.65332086641E+02  0.14462009324E+03  0.12509048093E+03 0.  0.
          5    1    3    3  502    0  0.70209244829E+01  0.64819777986E+02 -0.11383450743E+02  0.66317059265E+02  0.41800000000E+01 0. -1.
         -5    1    3    3    0  502  0.21945802245E+02 -0.52171056896E+02 -0.53948635898E+02  0.78303033971E+02  0.41800000000E+01 0. -1.
        -11    1    1    2    0    0  0.24255614717E+02 -0.16269041513E+02 -0.78235179192E+02  0.83509040350E+02  0.00000000000E+00 0. -1.
         11    1    1    2    0    0 -0.53222341445E+02  0.36203204229E+01 -0.31743180521E+02  0.62075388508E+02  0.00000000000E+00 0.  1.
</event>
<event>
 7    1  0.1243146E-005  0.1657936E+03  0.7561462E-02  0.1182307E+00
          1   -1    0    0  501    0  0.00000000000E+00  0.00000000000E+00  0.17692931937E+03  0.17692931937E+03  0.00000000000E+00 0. -1.
         -1   -1    0    0    0  501 -0.00000000000E+00 -0.00000000000E+00 -0.22308803614E+03  0.22308803614E+03  0.00000000000E+00 0.  1.
         23    2    1    2    0    0  0.26818495113E+02 -0.16106962553E+03 -0.51484942069E+02  0.21204097005E+03  0.12509203720E+03 0.  0.
          5    1    3    3  502    0  0.78768761775E+00 -0.45880306811E+02  0.41239011050E+02  0.61836489528E+02  0.41800000000E+01 0.  1.
         -5    1    3    3    0  502  0.26030807495E+02 -0.11518931872E+03 -0.92723953118E+02  0.15020448052E+03  0.41800000000E+01 0.  1.
        -11    1    1    2    0    0 -0.35476532819E+02  0.14255886822E+03 -0.27355004126E+02  0.14943196291E+03  0.00000000000E+00 0.  1.
         11    1    1    2    0    0  0.86580377066E+01  0.18510757309E+02  0.32681229424E+02  0.38544422550E+02  0.00000000000E+00 0. -1.
</event>
<event>
 7    1  0.1243146E-005  0.1479802E+03  0.7561462E-02  0.1202977E+00
         -1   -1    0    0    0  501 -0.00000000000E+00  0.00000000000E+00  0.12168497716E+03  0.12168497716E+03  0.00000000000E+00 0.  1.
          1   -1    0    0  501    0  0.00000000000E+00 -0.00000000000E+00 -0.22726390274E+03  0.22726390274E+03  0.00000000000E+00 0. -1.
         23    2    1    2    0    0  0.98535917999E+02 -0.22185561692E+02  0.22564073842E+02  0.16234904270E+03  0.12508616212E+03 0.  0.
          5    1    3    3  502    0 -0.77584863653E+01 -0.49677718934E+02  0.14952948881E+01  0.50475520561E+02  0.41800000000E+01 0. -1.
         -5    1    3    3    0  502  0.10629440436E+03  0.27492157242E+02  0.21068778954E+02  0.11187352214E+03  0.41800000000E+01 0. -1.
        -11    1    1    2    0    0 -0.13762505910E+02 -0.32130456693E+02 -0.32192035561E+02  0.47519469376E+02  0.00000000000E+00 0.  1.
         11    1    1    2    0    0 -0.84773412089E+02  0.54316018385E+02 -0.95950963861E+02  0.13908036783E+03  0.00000000000E+00 0. -1.
</event>
<event>
 7    1  0.1243146E-005  0.1327643E+03  0.7561462E-02  0.1223411E+00
         -2   -1    0    0    0  501 -0.00000000000E+00  0.00000000000E+00  0.11043456220E+03  0.11043456220E+03  0.00000000000E+00 0.  1.
          2   -1    0    0  501    0  0.00000000000E+00 -0.00000000000E+00 -0.17943831068E+03  0.17943831068E+03  0.00000000000E+00 0. -1.
         23    2    1    2    0    0 -0.91394768672E+02 -0.28020324764E+02 -0.40592289376E+02  0.15333834885E+03  0.11281299983E+03 0.  0.
          5    1    3    3  502    0  0.10117575200E+02 -0.40552145087E+02 -0.27335262019E+02  0.50115174835E+02  0.41800000000E+01 0. -1.
         -5    1    3    3    0  502 -0.10151234387E+03  0.12531820323E+02 -0.13257027358E+02  0.10322317401E+03  0.41800000000E+01 0.  1.
        -11    1    1    2    0    0  0.72535187751E+02 -0.15101850250E+02 -0.44935359266E+02  0.86652212062E+02  0.00000000000E+00 0.  1.
         11    1    1    2    0    0  0.18859580921E+02  0.43122175014E+02  0.16523900158E+02  0.49882311964E+02  0.00000000000E+00 0. -1.
</event>
<event>
 7    1  0.1243146E-005  0.6949801E+02  0.7561462E-02  0.1361808E+00
         -3   -1    0    0    0  501 -0.00000000000E+00  0.00000000000E+00  0.68630107664E+02  0.68630107664E+02  0.00000000000E+00 0.  1.
          3   -1    0    0  501    0  0.00000000000E+00 -0.00000000000E+00 -0.18043813478E+03  0.18043813478E+03  0.00000000000E+00 0. -1.
         23    2    1    2    0    0  0.18494372935E+02 -0.21972596808E+02 -0.59467260697E+02  0.14145183087E+03  0.12508968192E+03 0.  0.
          5    1    3    3  502    0  0.42944053168E+02 -0.23051826671E+02 -0.89796192710E+02  0.10225657456E+03  0.41800000000E+01 0. -1.
         -5    1    3    3    0  502 -0.24449680233E+02  0.10792298635E+01  0.30328932013E+02  0.39195256315E+02  0.41800000000E+01 0. -1.
        -11    1    1    2    0    0 -0.92063026801E+01  0.42093289238E+02 -0.67985210429E+02  0.80489687818E+02  0.00000000000E+00 0. -1.
         11    1    1    2    0    0 -0.92880702551E+01 -0.20120692431E+02  0.15644444013E+02  0.27126723750E+02  0.00000000000E+00 0.  1.
</event>
<event>
 7    1  0.1243146E-005  0.7739576E+02  0.7561462E-02  0.1336609E+00
          2   -1    0    0  501    0  0.00000000000E+00  0.00000000000E+00  0.13876604651E+03  0.13876604651E+03  0.00000000000E+00 0. -1.
         -2   -1    0    0    0  501 -0.00000000000E+00 -0.00000000000E+00 -0.11520043688E+03  0.11520043688E+03  0.00000000000E+00 0.  1.
         23    2    1    2    0    0  0.33031999152E+02 -0.50240573554E+02 -0.10885565090E+02  0.13921692523E+03  0.12509048142E+03 0.  0.
          5    1    3    3  502    0 -0.13134989426E+02  0.23105984291E+01  0.46555438969E+02  0.48608107451E+02  0.41800000000E+01 0. -1.
         -5    1    3    3    0  502  0.46166988578E+02 -0.52551171983E+02 -0.57441004060E+02  0.90608817775E+02  0.41800000000E+01 0. -1.
        -11    1    1    2    0    0 -0.36230690592E+02  0.22143539793E+02 -0.24744917733E+02  0.49145806016E+02  0.00000000000E+00 0.  1.
         11    1    1    2    0    0  0.31986914403E+01  0.28097033761E+02  0.59196092454E+02  0.65603752141E+02  0.00000000000E+00 0. -1.
</event>
<event>
 7    1  0.1243146E-005  0.1293113E+03  0.7561462E-02  0.1228481E+00
         -1   -1    0    0    0  501 -0.00000000000E+00  0.00000000000E+00  0.54903417529E+02  0.54903417529E+02  0.00000000000E+00 0.  1.
          1   -1    0    0  501    0  0.00000000000E+00 -0.00000000000E+00 -0.41383225041E+03  0.41383225041E+03  0.00000000000E+00 0. -1.
         23    2    1    2    0    0  0.15999968541E+02  0.98958367022E+02 -0.14948854044E+03  0.21920585630E+03  0.12512244530E+03 0.  0.
          5    1    3    3  502    0  0.68996775147E+02  0.44163350642E+02 -0.60314338119E+02  0.10181477448E+03  0.41800000000E+01 0.  1.
         -5    1    3    3    0  502 -0.52996806605E+02  0.54795016380E+02 -0.89174202324E+02  0.11739108182E+03  0.41800000000E+01 0.  1.
        -11    1    1    2    0    0 -0.10269865922E+02 -0.66896627468E+02 -0.20593563790E+03  0.21677203665E+03  0.00000000000E+00 0. -1.
         11    1    1    2    0    0 -0.57301026197E+01 -0.32061739554E+02 -0.35046545388E+01  0.32757774996E+02  0.00000000000E+00 0.  1.
</event>
<event>
 7    1  0.1243146E-005  0.1408789E+03  0.7561462E-02  0.1212151E+00
          1   -1    0    0  501    0  0.00000000000E+00  0.00000000000E+00  0.55666838599E+03  0.55666838599E+03  0.00000000000E+00 0. -1.
         -1   -1    0    0    0  501 -0.00000000000E+00 -0.00000000000E+00 -0.57966236525E+02  0.57966236525E+02  0.00000000000E+00 0.  1.
         23    2    1    2    0    0 -0.11236459110E+03 -0.20211649595E+02  0.11649976890E+03  0.20555825312E+03  0.12509071573E+03 0.  0.
          5    1    3    3  502    0  0.12233033037E+02 -0.35181355599E+02  0.53391343463E+01  0.37859657085E+02  0.41800000000E+01 0.  1.
         -5    1    3    3    0  502 -0.12459762414E+03  0.14969706004E+02  0.11116063455E+03  0.16769859604E+03  0.41800000000E+01 0.  1.
        -11    1    1    2    0    0  0.66409785319E+02 -0.44508909307E+01  0.32467294318E+03  0.33142508965E+03  0.00000000000E+00 0. -1.
         11    1    1    2    0    0  0.45954805781E+02  0.24662540526E+02  0.57529437383E+02  0.77651279740E+02  0.00000000000E+00 0.  1.
</event>
<event>
 7    1  0.1243146E-005  0.1002329E+03  0.7561462E-02  0.1279807E+00
         -4   -1    0    0    0  501 -0.00000000000E+00  0.00000000000E+00  0.17885605268E+03  0.17885605268E+03  0.00000000000E+00 0.  1.
          4   -1    0    0  501    0  0.00000000000E+00 -0.00000000000E+00 -0.10592209215E+03  0.10592209215E+03  0.00000000000E+00 0. -1.
         23    2    1    2    0    0 -0.13850138506E+02  0.75337443082E+02  0.73757824303E+02  0.16422744095E+03  0.12515142448E+03 0.  0.
          5    1    3    3  502    0 -0.54931693960E+01  0.71865422877E+02  0.10724854249E+03  0.12928470978E+03  0.41800000000E+01 0. -1.
         -5    1    3    3    0  502 -0.83569691097E+01  0.34720202050E+01 -0.33490718191E+02  0.34942731175E+02  0.41800000000E+01 0. -1.
        -11    1    1    2    0    0 -0.25632124916E+02 -0.74526121779E+02  0.10404937990E+02  0.79494725547E+02  0.00000000000E+00 0.  1.
         11    1    1    2    0    0  0.39482263422E+02 -0.81132130249E+00 -0.11228801770E+02  0.41055978327E+02  0.00000000000E+00 0. -1.
</event>
<event>
 7    1  0.1243146E-005  0.1201680E+03  0.7561462E-02  0.1242820E+00
          4   -1    0    0  501    0  0.00000000000E+00  0.00000000000E+00  0.95811562688E+02  0.95811562688E+02  0.00000000000E+00 0. -1.
         -4   -1    0    0    0  501 -0.00000000000E+00 -0.00000000000E+00 -0.20722410910E+03  0.20722410910E+03  0.00000000000E+00 0.  1.
         23    2    1    2    0    0 -0.46186177455E+02 -0.71344877543E+02 -0.93032321696E+02  0.17756141124E+03  0.12509911007E+03 0.  0.
          5    1    3    3  502    0 -0.32800609398E+02 -0.10597089318E+03 -0.83775572781E+02  0.13907382634E+03  0.41800000000E+01 0. -1.
         -5    1    3    3    0  502 -0.13385568057E+02  0.34626015635E+02 -0.92567489149E+01  0.38487584900E+02  0.41800000000E+01 0. -1.
        -11    1    1    2    0    0  0.48485803100E+02  0.47038873005E+02 -0.51061379169E+02  0.84680535653E+02  0.00000000000E+00 0.  1.
         11    1    1    2    0    0 -0.22996256457E+01  0.24306004538E+02  0.32681154452E+02  0.40793724898E+02  0.00000000000E+00 0. -1.
</event>
<event>
 7    1  0.1243146E-005  0.1169306E+03  0.7561462E-02  0.1248248E+00
          3   -1    0    0  501    0  0.00000000000E+00  0.00000000000E+00  0.25363095940E+03  0.25363095940E+03  0.00000000000E+00 0. -1.
         -3   -1    0    0    0  501 -0.00000000000E+00 -0.00000000000E+00 -0.54550269953E+02  0.54550269953E+02  0.00000000000E+00 0.  1.
         23    2    1    2    0    0  0.37750561824E+02  0.26506405717E+02  0.10429501205E+03  0.16926928806E+03  0.12508776071E+03 0.  0.
          5    1    3    3  502    0 -0.35511429382E+02 -0.24917780159E+02  0.37712347920E+02  0.57633765888E+02  0.41800000000E+01 0. -1.
         -5    1    3    3    0  502  0.73261991205E+02  0.51424185876E+02  0.66582664135E+02  0.11163552218E+03  0.41800000000E+01 0. -1.
        -11    1    1    2    0    0 -0.49943506981E+02  0.19095042165E+02  0.59379198957E+02  0.79905342710E+02  0.00000000000E+00 0.  1.
         11    1    1    2    0    0  0.12192945157E+02 -0.45601447882E+02  0.35406478435E+02  0.59006598578E+02  0.00000000000E+00 0. -1.
</event>
<event>
 6    1  0.1243146E-005  0.1641960E+03  0.7561462E-02  0.1184039E+00
         -2   -1    0    0    0  501 -0.00000000000E+00  0.00000000000E+00  0.10036654509E+04  0.10036654509E+04  0.00000000000E+00 0.  1.
          2   -1    0    0  501    0  0.00000000000E+00 -0.00000000000E+00 -0.52199502461E+02  0.52199502461E+02  0.00000000000E+00 0. -1.
          5    1    1    2  502    0  0.22895986475E+02 -0.43214690510E+02  0.41616722399E+02  0.64351842676E+02  0.41800000000E+01 0. -1.
         -5    1    1    2    0  502 -0.42878164186E+02 -0.10517254113E+03  0.73562953443E+03  0.74435749792E+03  0.41800000000E+01 0.  1.
        -11    1    1    2    0    0 -0.13545120228E+02  0.12262812732E+03  0.16104382225E+03  0.20287000906E+03  0.00000000000E+00 0. -1.
         11    1    1    2    0    0  0.33527297938E+02  0.25759104327E+02  0.13175869356E+02  0.44285603711E+02  0.00000000000E+00 0.  1.
</event>
<event>
 7    1  0.1243146E-005  0.1181468E+03  0.7561462E-02  0.1246186E+00
          1   -1    0    0  501    0  0.00000000000E+00  0.00000000000E+00  0.44593328048E+03  0.44593328048E+03  0.00000000000E+00 0. -1.
         -1   -1    0    0    0  501 -0.00000000000E+00 -0.00000000000E+00 -0.44272315319E+02  0.44272315319E+02  0.00000000000E+00 0.  1.
         23    2    1    2    0    0  0.59218628161E+02  0.10335743179E+02  0.10899653704E+03  0.17646811546E+03  0.12508827755E+03 0.  0.
          5    1    3    3  502    0  0.50947136890E+02 -0.44455503178E+02  0.18420980782E+02  0.70204753778E+02  0.41800000000E+01 0. -1.
         -5    1    3    3    0  502  0.82714912718E+01  0.54791246357E+02  0.90575556256E+02  0.10626336168E+03  0.41800000000E+01 0. -1.
        -11    1    1    2    0    0 -0.55291528084E+02 -0.49142724540E+02  0.19658649242E+03  0.21004382746E+03  0.00000000000E+00 0.  1.
         11    1    1    2    0    0 -0.39271000773E+01  0.38806981361E+02  0.96077935702E+02  0.10369365287E+03  0.00000000000E+00 0. -1.
</event>
<event>
 7    1  0.1243146E-005  0.4823157E+03  0.7561462E-02  0.1018501E+00
         -1   -1    0    0    0  501 -0.00000000000E+00  0.00000000000E+00  0.71123319099E+03  0.71123319099E+03  0.00000000000E+00 0.  1.
          1   -1    0    0  501    0  0.00000000000E+00 -0.00000000000E+00 -0.34081235517E+03  0.34081235517E+03  0.00000000000E+00 0. -1.
         23    2    1    2    0    0  0.27071712274E+03  0.39631067916E+03  0.18292145478E+03  0.52863843711E+03  0.12509365935E+03 0.  0.
          5    1    3    3  502    0  0.17001108768E+03  0.20320064925E+03  0.39678359951E+02  0.26792931612E+03  0.41800000000E+01 0.  1.
         -5    1    3    3    0  502  0.10070603506E+03  0.19311002992E+03  0.14324309483E+03  0.26070912099E+03  0.41800000000E+01 0.  1.
        -11    1    1    2    0    0 -0.47419055162E+02 -0.43869020805E+02  0.57267954232E+02  0.86328884857E+02  0.00000000000E+00 0.  1.
         11    1    1    2    0    0 -0.22329806758E+03 -0.35244165836E+03  0.13023142682E+03  0.43707822419E+03  0.00000000000E+00 0. -1.
</event>
<event>
 7    1  0.1243146E-005  0.1572428E+03  0.7561462E-02  0.1191845E+00
          1   -1    0    0  501    0  0.00000000000E+00  0.00000000000E+00  0.21822930253E+03  0.21822930253E+03  0.00000000000E+00 0. -1.
         -1   -1    0    0    0  501 -0.00000000000E+00 -0.00000000000E+00 -0.25582239452E+03  0.25582239452E+03  0.00000000000E+00 0.  1.
         23    2    1    2    0    0 -0.11163999194E+03 -0.97416594500E+02 -0.16782069975E+03  0.25644741906E+03  0.12509200930E+03 0.  0.
          5    1    3    3  502    0 -0.75880514242E+02 -0.21915024335E+02 -0.15195966670E+03  0.17131063434E+03  0.41800000000E+01 0. -1.
         -5    1    3    3    0  502 -0.35759477699E+02 -0.75501570165E+02 -0.15861033052E+02  0.85136784718E+02  0.41800000000E+01 0. -1.
        -11    1    1    2    0    0  0.21284595026E+02  0.37678613126E+01 -0.12085291663E+02  0.24764592443E+02  0.00000000000E+00 0. -1.
         11    1    1    2    0    0  0.90355396916E+02  0.93648733187E+02  0.14231289943E+03  0.19283968555E+03  0.00000000000E+00 0.  1.
</event>
<event>
 7    1  0.1243146E-005  0.1288362E+03  0.7561462E-02  0.1229193E+00
         -2   -1    0    0    0  501 -0.00000000000E+00  0.00000000000E+00  0.39948768910E+02  0.39948768910E+02  0.00000000000E+00 0. -1.
          2   -1    0    0  501    0  0.00000000000E+00 -0.00000000000E+00 -0.47213360015E+03  0.47213360015E+03  0.00000000000E+00 0.  1.
         23    2    1    2    0    0  0.71118952866E+02  0.40599953825E+02 -0.27352631226E+03  0.31172544177E+03  0.12509934387E+03 0.  0.
          5    1    3    3  502    0  0.84143394115E+02 -0.85661889789E+01 -0.22843291738E+03  0.24362380941E+03  0.41800000000E+01 0.  1.
         -5    1    3    3    0  502 -0.13024441250E+02  0.49166142804E+02 -0.45093394880E+02  0.68101632358E+02  0.41800000000E+01 0.  1.
        -11    1    1    2    0    0 -0.62089388709E+02 -0.68606700146E+02 -0.12701257195E+03  0.15714377152E+03  0.00000000000E+00 0. -1.
         11    1    1    2    0    0 -0.90295641562E+01  0.28006746321E+02 -0.31645947028E+02  0.43213155770E+02  0.00000000000E+00 0.  1.
</event>
<event>
 7    1  0.1243146E-005  0.7514244E+02  0.7561462E-02  0.1343430E+00
          3   -1    0    0  501    0  0.00000000000E+00  0.00000000000E+00  0.22110986970E+03  0.22110986970E+03  0.00000000000E+00 0. -1.
         -3   -1    0    0    0  501 -0.00000000000E+00 -0.00000000000E+00 -0.69675285386E+02  0.69675285386E+02  0.00000000000E+00 0.  1.
         23    2    1    2    0    0  0.14842784396E+02 -0.37162586623E+01  0.19383876431E+02  0.12750668134E+03  0.12509236705E+03 0.  0.
          5    1    3    3  502    0  0.96529172564E+01 -0.27920585477E+02  0.67186063667E+02  0.73513110776E+02  0.41800000000E+01 0. -1.
         -5    1    3    3    0  502  0.51898671392E+01  0.24204326814E+02 -0.47802187235E+02  0.53993570561E+02  0.41800000000E+01 0. -1.
        -11    1    1    2    0    0  0.30804271253E+02 -0.26472830043E+02  0.46730292389E+02  0.61914732371E+02  0.00000000000E+00 0. -1.
         11    1    1    2    0    0 -0.45647055648E+02  0.30189088705E+02  0.85320415497E+02  0.10136374138E+03  0.00000000000E+00 0.  1.
</event>
<event>
 7    1  0.1243146E-005  0.1453501E+03  0.7561462E-02  0.1206306E+00
         -4   -1    0    0    0  501 -0.00000000000E+00  0.00000000000E+00  0.12084779656E+03  0.12084779656E+03  0.00000000000E+00 0.  1.
          4   -1    0    0  501    0  0.00000000000E+00 -0.00000000000E+00 -0.24196439505E+03  0.24196439505E+03  0.00000000000E+00 0. -1.
         23    2    1    2    0    0  0.82184391301E+02  0.74823256264E+02  0.11665221452E+02  0.16773874212E+03  0.12508962533E+03 0.  0.
          5    1    3    3  502    0  0.74016975633E+02  0.10668782049E+03  0.24455856493E+02  0.13219820362E+03  0.41800000000E+01 0.  1.
         -5    1    3    3    0  502  0.81674156684E+01 -0.31864564228E+02 -0.12790635041E+02  0.35540538500E+02  0.41800000000E+01 0.  1.
        -11    1    1    2    0    0 -0.27672915125E+02 -0.67082541444E+02 -0.30098963273E+02  0.78560837497E+02  0.00000000000E+00 0.  1.
         11    1    1    2    0    0 -0.54511476176E+02 -0.77407148204E+01 -0.10268285667E+03  0.11651261200E+03  0.00000000000E+00 0. -1.
</event>
<event>
 7    1  0.1243146E-005  0.7382512E+02  0.7561462E-02  0.1347548E+00
         -2   -1    0    0    0  501 -0.00000000000E+00  0.00000000000E+00  0.23422761939E+02  0.23422761939E+02  0.00000000000E+00 0.  1.
          2   -1    0    0  501    0  0.00000000000E+00 -0.00000000000E+00 -0.51327660050E+03  0.51327660050E+03  0.00000000000E+00 0. -1.
         23    2    1    2    0    0  0.78223007785E+01  0.37509524557E+02 -0.24221821884E+03  0.26950926197E+03  0.11179187775E+03 0.  0.
          5    1    3    3  502    0  0.17871935101E+02  0.19599397121E+02 -0.24663371405E+03  0.24809111983E+03  0.41800000000E+01 0. -1.
         -5    1    3    3    0  502 -0.10049634323E+02  0.17910127436E+02  0.44154952148E+01  0.21418142141E+02  0.41800000000E+01 0.  1.
        -11    1    1    2    0    0 -0.46710049878E+02 -0.39107613763E+02 -0.16375975245E+03  0.17472404167E+03  0.00000000000E+00 0.  1.
         11    1    1    2    0    0  0.38887749100E+02  0.15980892061E+01 -0.83875867272E+02  0.92466058799E+02  0.00000000000E+00 0. -1.
</event>
<event>
 7    1  0.1243146E-005  0.2043977E+03  0.7561462E-02  0.1146081E+00
         -1   -1    0    0    0  501 -0.00000000000E+00  0.00000000000E+00  0.10950584437E+03  0.10950584437E+03  0.00000000000E+00 0.  1.
          1   -1    0    0  501    0  0.00000000000E+00 -0.00000000000E+00 -0.47974159987E+03  0.47974159987E+03  0.00000000000E+00 0. -1.
         23    2    1    2    0    0 -0.91762188289E+02 -0.16993496189E+03 -0.26312661809E+03  0.34954426851E+03  0.12508952005E+03 0.  0.
          5    1    3    3  502    0 -0.69998924929E+02 -0.69072073939E+02 -0.21323263478E+03  0.23485406069E+03  0.41800000000E+01 0. -1.
         -5    1    3    3    0  502 -0.21763263360E+02 -0.10086288795E+03 -0.49893983310E+02  0.11469020782E+03  0.41800000000E+01 0. -1.
        -11    1    1    2    0    0  0.92113883520E+02  0.95581280426E+02 -0.37714906587E+02  0.13799696694E+03  0.00000000000E+00 0.  1.
         11    1    1    2    0    0 -0.35169523093E+00  0.74353681466E+02 -0.69394230819E+02  0.10170620880E+03  0.00000000000E+00 0. -1.
</event>
<event>
 7    1  0.1243146E-005  0.8520697E+02  0.7561462E-02  0.1314892E+00
          2   -1    0    0  501    0  0.00000000000E+00  0.00000000000E+00  0.36882221952E+03  0.36882221952E+03  0.00000000000E+00 0.  1.
         -2   -1    0    0    0  501 -0.00000000000E+00 -0.00000000000E+00 -0.41580098688E+02  0.41580098688E+02  0.00000000000E+00 0. -1.
         23    2    1    2    0    0 -0.40986829791E+02 -0.75600199036E+01  0.11200126310E+03  0.17300048794E+03  0.12509121381E+03 0.  0.
          5    1    3    3  502    0 -0.46299345177E+02 -0.24978975290E+02  0.13407097805E+03  0.14408358035E+03  0.41800000000E+01 0.  1.
         -5    1    3    3    0  502  0.53125153860E+01  0.17418955387E+02 -0.22069714951E+02  0.28916907589E+02  0.41800000000E+01 0.  1.
        -11    1    1    2    0    0 -0.28054992696E+02 -0.57614363869E+01  0.80028074684E+02  0.84998644119E+02  0.00000000000E+00 0.  1.
         11    1    1    2    0    0  0.69041822486E+02  0.13321456291E+02  0.13521278304E+03  0.15240318615E+03  0.00000000000E+00 0. -1.
</event>
<event>
 7    1  0.1243146E-005  0.1497568E+03  0.7561462E-02  0.1200772E+00
         -1   -1    0    0    0  501 -0.00000000000E+00  0.00000000000E+00  0.10258595579E+03  0.10258595579E+03  0.00000000000E+00 0.  1.
          1   -1    0    0  501    0  0.00000000000E+00 -0.00000000000E+00 -0.24300382679E+03  0.24300382679E+03  0.00000000000E+00 0. -1.
         23    2    1    2    0    0  0.88661011374E+01  0.11258874850E+03 -0.70218731274E+02  0.18257191148E+03  0.12508796346E+03 0.  0.
          5    1    3    3  502    0  0.56259187467E+02  0.55970100298E+02 -0.73909188675E+02  0.10852552176E+03  0.41800000000E+01 0. -1.
         -5    1    3    3    0  502 -0.47393086329E+02  0.56618648200E+02  0.36904574017E+01  0.74046389728E+02  0.41800000000E+01 0. -1.
        -11    1    1    2    0    0  0.64951747843E+00 -0.12798754517E+03 -0.67556700586E+02  0.14472436348E+03  0.00000000000E+00 0.  1.
         11    1    1    2    0    0 -0.95156186158E+01  0.15398796669E+02 -0.26424391390E+01  0.18293507621E+02  0.00000000000E+00 0. -1.
</event>
<event>
 7    1  0.1243146E-005  0.9161221E+02  0.7561462E-02  0.1298994E+00
         -1   -1    0    0    0  501 -0.00000000000E+00  0.00000000000E+00  0.21346536776E+02  0.21346536776E+02  0.00000000000E+00 0.  1.
          1   -1    0    0  501    0  0.00000000000E+00 -0.00000000000E+00 -0.60297307446E+03  0.60297307446E+03  0.00000000000E+00 0. -1.
         23    2    1    2    0    0  0.82278164463E+01 -0.23088569496E+02 -0.27215382847E+03  0.30052683592E+03  0.12509154150E+03 0.  0.
          5    1    3    3  502    0  0.20474883172E+02  0.29308096326E+02 -0.22792042206E+03  0.23074526332E+03  0.41800000000E+01 0. -1.
         -5    1    3    3    0  502 -0.12247066726E+02 -0.52396665822E+02 -0.44233406410E+02  0.69781572605E+02  0.41800000000E+01 0. -1.
        -11    1    1    2    0    0 -0.32773237790E+02 -0.23684622773E+02 -0.16750750139E+03  0.17231891798E+03  0.00000000000E+00 0. -1.
         11    1    1    2    0    0  0.24545421344E+02  0.46773192269E+02 -0.14196520783E+03  0.15147385734E+03  0.00000000000E+00 0.  1.
</event>
<event>
 7    1  0.1243146E-005  0.1003435E+03  0.7561462E-02  0.1279575E+00
          3   -1    0    0  501    0  0.00000000000E+00  0.00000000000E+00  0.17089562217E+03  0.17089562217E+03  0.00000000000E+00 0. -1.
         -3   -1    0    0    0  501 -0.00000000000E+00 -0.00000000000E+00 -0.87956293623E+02  0.87956293623E+02  0.00000000000E+00 0.  1.
         23    2    1    2    0    0 -0.70975380313E+01  0.54685089403E+02  0.26899065569E+02  0.13932552956E+03  0.12508880609E+03 0.  0.
          5    1    3    3  502    0  0.24413503753E+02  0.74447975381E+02  0.52117812955E+02  0.94192669731E+02  0.41800000000E+01 0.  1.
         -5    1    3    3    0  502 -0.31511041784E+02 -0.19762885979E+02 -0.25218747386E+02  0.45132859828E+02  0.41800000000E+01 0.  1.
        -11    1    1    2    0    0  0.31316947271E+02 -0.51630303287E+02  0.69160257620E+02  0.91812747688E+02  0.00000000000E+00 0. -1.
         11    1    1    2    0    0 -0.24219409239E+02 -0.30547861153E+01 -0.13119994642E+02  0.27713638547E+02  0.00000000000E+00 0.  1.
</event>
<event>
 7    1  0.1243146E-005  0.9690430E+02  0.7561462E-02  0.1286944E+00
          2   -1    0    0  501    0  0.00000000000E+00  0.00000000000E+00  0.30972691378E+03  0.30972691378E+03  0.00000000000E+00 0. -1.
         -2   -1    0    0    0  501 -0.00000000000E+00 -0.00000000000E+00 -0.38615444497E+02  0.38615444497E+02  0.00000000000E+00 0.  1.
         23    2    1    2    0    0  0.52377784084E+00  0.11148760640E+01  0.13751950662E+03  0.18590558844E+03  0.12509099016E+03 0.  0.
          5    1    3    3  502    0  0.56658655823E+02  0.53756151995E+01  0.30009358941E+02  0.64475844643E+02  0.41800000000E+01 0. -1.
         -5    1    3    3    0  502 -0.56134877982E+02 -0.42607391356E+01  0.10751014768E+03  0.12142974380E+03  0.41800000000E+01 0. -1.
        -11    1    1    2    0    0 -0.32215131767E+02 -0.24859001296E+02  0.10768220316E+03  0.11511403710E+03  0.00000000000E+00 0. -1.
         11    1    1    2    0    0  0.31691353926E+02  0.23744125232E+02  0.25909759510E+02  0.47322732746E+02  0.00000000000E+00 0.  1.
</event>
<event>
 7    1  0.1243146E-005  0.7628497E+02  0.7561462E-02  0.1339937E+00
         -3   -1    0    0    0  501 -0.00000000000E+00  0.00000000000E+00  0.22063985205E+03  0.22063985205E+03  0.00000000000E+00 0.  1.
          3   -1    0    0  501    0  0.00000000000E+00 -0.00000000000E+00 -0.66066748303E+02  0.66066748303E+02  0.00000000000E+00 0. -1.
         23    2    1    2    0    0 -0.36801110981E+02 -0.18157118927E+02  0.11205621331E+03  0.17287995389E+03  0.12508749250E+03 0.  0.
          5    1    3    3  502    0 -0.28392650070E+01 -0.10933944755E+02 -0.26962048911E+02  0.29530273537E+02  0.41800000000E+01 0.  1.
         -5    1    3    3    0  502 -0.33961845974E+02 -0.72231741721E+01  0.13901826222E+03  0.14334968036E+03  0.41800000000E+01 0.  1.
        -11    1    1    2    0    0 -0.37607745246E+01  0.52360115815E+02  0.22617651368E+02  0.57160154886E+02  0.00000000000E+00 0. -1.
         11    1    1    2    0    0  0.40561885506E+02 -0.34202996888E+02  0.19899239069E+02  0.56666491575E+02  0.00000000000E+00 0.  1.
</event>
<event>
 7    1  0.1243146E-005  0.1239837E+03  0.7561462E-02  0.1236666E+00
         -2   -1    0    0    0  501 -0.00000000000E+00  0.00000000000E+00  0.44507369019E+02  0.44507369019E+02  0.00000000000E+00 0. -1.
          2   -1    0    0  501    0  0.00000000000E+00 -0.00000000000E+00 -0.49129257363E+03  0.49129257363E+03  0.00000000000E+00 0.  1.
         23    2    1    2    0    0  0.15056032668E+01  0.65811433924E+02 -0.10628814801E+03  0.17685433052E+03  0.12508745796E+03 0.  0.
          5    1    3    3  502    0 -0.14339267027E+02  0.10118156647E+03 -0.74076689512E+02  0.12628599408E+03  0.41800000000E+01 0. -1.
         -5    1    3    3    0  502  0.15844870294E+02 -0.35370132548E+02 -0.32211458500E+02  0.50568336435E+02  0.41800000000E+01 0. -1.
        -11    1    1    2    0    0  0.14865207517E+02 -0.82205871465E+02 -0.30737286664E+03  0.31852293299E+03  0.00000000000E+00 0.  1.
         11    1    1    2    0    0 -0.16370810784E+02  0.16394437541E+02 -0.33124189966E+02  0.40422679141E+02  0.00000000000E+00 0. -1.
</event>
<event>
 7    1  0.1243146E-005  0.1255912E+03  0.7561462E-02  0.1234148E+00
          2   -1    0    0  501    0  0.00000000000E+00  0.00000000000E+00  0.88363522976E+03  0.88363522976E+03  0.00000000000E+00 0. -1.
         -2   -1    0    0    0  501 -0.00000000000E+00 -0.00000000000E+00 -0.28465788012E+02  0.28465788012E+02  0.00000000000E+00 0.  1.
         23    2    1    2    0    0  0.82367273431E+01 -0.10503944725E+03  0.32086636456E+03  0.36014389489E+03  0.12508905614E+03 0.  0.
          5    1    3    3  502    0  0.23804580155E+02 -0.72101297183E+02  0.31369224164E+03  0.32277786473E+03  0.41800000000E+01 0. -1.
         -5    1    3    3    0  502 -0.15567852812E+02 -0.32938150064E+02  0.71741229236E+01  0.37366030168E+02  0.41800000000E+01 0. -1.
        -11    1    1    2    0    0  0.39738436022E+02  0.31715454472E+02  0.19988537152E+03  0.20625027296E+03  0.00000000000E+00 0.  1.
         11    1    1    2    0    0 -0.47975163365E+02  0.73323992774E+02  0.33441770566E+03  0.34570684991E+03  0.00000000000E+00 0. -1.
</event>
<event>
 7    1  0.1243146E-005  0.1780833E+03  0.7561462E-02  0.1169671E+00
         -3   -1    0    0    0  501 -0.00000000000E+00  0.00000000000E+00  0.91787477162E+02  0.91787477162E+02  0.00000000000E+00 0.  1.
          3   -1    0    0  501    0  0.00000000000E+00 -0.00000000000E+00 -0.41565448300E+03  0.41565448300E+03  0.00000000000E+00 0. -1.
         23    2    1    2    0    0  0.12492291565E+03  0.93862401058E+02 -0.11322089268E+03  0.22996420433E+03  0.12509468233E+03 0.  0.
          5    1    3    3  502    0  0.21660827046E+02  0.88599075607E+02 -0.26837214408E+02  0.95166675385E+02  0.41800000000E+01 0.  1.
         -5    1    3    3    0  502  0.10326208861E+03  0.52633254519E+01 -0.86383678276E+02  0.13479752895E+03  0.41800000000E+01 0.  1.
        -11    1    1    2    0    0 -0.67703345768E+02 -0.75220562596E+02 -0.18736916838E+03  0.21295323741E+03  0.00000000000E+00 0. -1.
         11    1    1    2    0    0 -0.57219569884E+02 -0.18641838463E+02 -0.23276944776E+02  0.64524518418E+02  0.00000000000E+00 0.  1.
</event>
<event>
 7    1  0.1243146E-005  0.1251525E+03  0.7561462E-02  0.1234831E+00
         -1   -1    0    0    0  501 -0.00000000000E+00  0.00000000000E+00  0.31694736270E+02  0.31694736270E+02  0.00000000000E+00 0.  1.
          1   -1    0    0  501    0  0.00000000000E+00 -0.00000000000E+00 -0.71037147271E+03  0.71037147271E+03  0.00000000000E+00 0. -1.
         23    2    1    2    0    0  0.72228379306E+02 -0.47477710968E+02 -0.22786708660E+03  0.27393791289E+03  0.12508996423E+03 0.  0.
          5    1    3    3  502    0  0.75199843505E+01  0.25429528974E+02 -0.14026564331E+03  0.14281153386E+03  0.41800000000E+01 0.  1.
         -5    1    3    3    0  502  0.64708394955E+02 -0.72907239942E+02 -0.87601443281E+02  0.13112637903E+03  0.41800000000E+01 0.  1.
        -11    1    1    2    0    0 -0.93036805452E+02  0.27435726495E+02 -0.33406890681E+03  0.34786577980E+03  0.00000000000E+00 0.  1.
         11    1    1    2    0    0  0.20808426146E+02  0.20041984473E+02 -0.11674074303E+03  0.12026251628E+03  0.00000000000E+00 0. -1.
</event>
<event>
 7    1  0.1243146E-005  0.2574550E+03  0.7561462E-02  0.1108682E+00
         -1   -1    0    0    0  501 -0.00000000000E+00  0.00000000000E+00  0.77403979870E+03  0.77403979870E+03  0.00000000000E+00 0.  1.
          1   -1    0    0  501    0  0.00000000000E+00 -0.00000000000E+00 -0.90868204674E+02  0.90868204674E+02  0.00000000000E+00 0. -1.
         23    2    1    2    0    0  0.71814936058E+01  0.24201189809E+03  0.34968793872E+03  0.44334211317E+03  0.12509693104E+03 0.  0.
          5    1    3    3  502    0  0.43407701339E+02  0.40390915501E+02  0.12995430310E+03  0.14290293169E+03  0.41800000000E+01 0.  1.
         -5    1    3    3    0  502 -0.36226207733E+02  0.20162098259E+03  0.21973363562E+03  0.30043918148E+03  0.41800000000E+01 0.  1.
        -11    1    1    2    0    0  0.31803535339E+01 -0.24000159213E+03  0.33364356920E+03  0.41100962293E+03  0.00000000000E+00 0.  1.
         11    1    1    2    0    0 -0.10361847140E+02 -0.20103059577E+01 -0.15991389952E+00  0.10556267269E+02  0.00000000000E+00 0. -1.
</event>
<event>
 7    1  0.1243146E-005  0.1230642E+03  0.7561462E-02  0.1238126E+00
         -1   -1    0    0    0  501 -0.00000000000E+00  0.00000000000E+00  0.71060947923E+02  0.71060947923E+02  0.00000000000E+00 0.  1.
          1   -1    0    0  501    0  0.00000000000E+00 -0.00000000000E+00 -0.26999819173E+03  0.26999819173E+03  0.00000000000E+00 0. -1.
         23    2    1    2    0    0 -0.87516378629E+02  0.17145069236E+01 -0.10563920266E+03  0.18565825929E+03  0.12508913638E+03 0.  0.
          5    1    3    3  502    0 -0.37441458436E+01  0.32299407596E+02 -0.88995099568E+02  0.94841291147E+02  0.41800000000E+01 0. -1.
         -5    1    3    3    0  502 -0.83772232786E+02 -0.30584900673E+02 -0.16644103094E+02  0.90816968144E+02  0.41800000000E+01 0. -1.
        -11    1    1    2    0    0  0.41615956813E+02  0.43102930646E+02 -0.40535466772E+02  0.72338610425E+02  0.00000000000E+00 0.  1.
         11    1    1    2    0    0  0.45900421816E+02 -0.44817437569E+02 -0.52762574377E+02  0.83062269943E+02  0.00000000000E+00 0. -1.
</event>
<event>
 6    1  0.1243146E-005  0.1364288E+03  0.7561462E-02  0.1218217E+00
         -4   -1    0    0    0  501 -0.00000000000E+00  0.00000000000E+00  0.10339626732E+03  0.10339626732E+03  0.00000000000E+00 0.  1.
          4   -1    0    0  501    0  0.00000000000E+00 -0.00000000000E+00 -0.20434652759E+03  0.20434652759E+03  0.00000000000E+00 0. -1.
          5    1    1    2  502    0 -0.37390821315E+02 -0.46698569463E+02 -0.58356710005E+02  0.83676806291E+02  0.41800000000E+01 0. -1.
         -5    1    1    2    0  502 -0.50169437910E+02  0.68969409556E+02  0.88563200942E+01  0.85846716654E+02  0.41800000000E+01 0.  1.
        -11    1    1    2    0    0 -0.15938938977E+02  0.10322869464E+02 -0.13358115399E+02  0.23217464476E+02  0.00000000000E+00 0. -1.
         11    1    1    2    0    0  0.10349919820E+03 -0.32593709557E+02 -0.38091754960E+02  0.11500180749E+03  0.00000000000E+00 0.  1.
</event>
<event>
 7    1  0.1243146E-005  0.9956360E+02  0.7561462E-02  0.1281216E+00
          1   -1    0    0  501    0  0.00000000000E+00  0.00000000000E+00  0.13047826243E+03  0.13047826243E+03  0.00000000000E+00 0. -1.
         -1   -1    0    0    0  501 -0.00000000000E+00 -0.00000000000E+00 -0.10458981233E+03  0.10458981233E+03  0.00000000000E+00 0.  1.
         23    2    1    2    0    0 -0.25118646721E+02  0.38275997044E+02  0.24550107245E+02  0.13545000523E+03  0.12509195733E+03 0.  0.
          5    1    3    3  502    0  0.22102811285E+02 -0.23573434060E+02 -0.26745715038E+02  0.42155032120E+02  0.41800000000E+01 0.  1.
         -5    1    3    3    0  502 -0.47221458006E+02  0.61849431104E+02  0.51295822283E+02  0.93294973111E+02  0.41800000000E+01 0.  1.
        -11    1    1    2    0    0  0.48801933804E+02 -0.68733828265E+01  0.23361184575E+02  0.54540050231E+02  0.00000000000E+00 0. -1.
         11    1    1    2    0    0 -0.23683287083E+02 -0.31402614217E+02 -0.22022841718E+02  0.45078019300E+02  0.00000000000E+00 0.  1.
</event>
<event>
 7    1  0.1243146E-005  0.1248451E+03  0.7561462E-02  0.1235311E+00
          2   -1    0    0  501    0  0.00000000000E+00  0.00000000000E+00  0.21234616711E+03  0.21234616711E+03  0.00000000000E+00 0. -1.
         -2   -1    0    0    0  501 -0.00000000000E+00 -0.00000000000E+00 -0.83695834053E+02  0.83695834053E+02  0.00000000000E+00 0.  1.
         23    2    1    2    0    0 -0.64782581575E+02 -0.42250723490E+02  0.71467808655E+02  0.16351649645E+03  0.12509232760E+03 0.  0.
          5    1    3    3  502    0 -0.61684182789E+01 -0.76152542483E+02  0.53409723302E+02  0.93313075471E+02  0.41800000000E+01 0. -1.
         -5    1    3    3    0  502 -0.58614163296E+02  0.33901818993E+02  0.18058085353E+02  0.70203420975E+02  0.41800000000E+01 0. -1.
        -11    1    1    2    0    0  0.79168254185E+02  0.25326179421E+02  0.14453443347E+02  0.84367824787E+02  0.00000000000E+00 0.  1.
         11    1    1    2    0    0 -0.14385672610E+02  0.16924544069E+02  0.42729081051E+02  0.48157679926E+02  0.00000000000E+00 0. -1.
</event>
<event>
 6    1  0.1243146E-005  0.1296167E+03  0.7561462E-02  0.1228026E+00
         -1   -1    0    0    0  501 -0.00000000000E+00  0.00000000000E+00  0.11466560929E+04  0.11466560929E+04  0.00000000000E+00 0.  1.
          1   -1    0    0  501    0  0.00000000000E+00 -0.00000000000E+00 -0.15592887675E+02  0.15592887675E+02  0.00000000000E+00 0. -1.
          5    1    1    2  502    0  0.74006820678E+02  0.44152531535E+02  0.45563560880E+03  0.46373239693E+03  0.41800000000E+01 0. -1.
         -5    1    1    2    0  502 -0.47705602440E+02 -0.61092292124E+02  0.38629396846E+03  0.39401598334E+03  0.41800000000E+01 0.  1.
        -11    1    1    2    0    0  0.26058634980E+02 -0.18628598577E+02  0.10616999820E+03  0.11089700474E+03  0.00000000000E+00 0.  1.
         11    1    1    2    0    0 -0.52359853218E+02  0.35568359166E+02  0.18296362979E+03  0.19360359560E+03  0.00000000000E+00 0. -1.
</event>
<event>
 7    1  0.1243146E-005  0.1684682E+03  0.7561462E-02  0.1179455E+00
          2   -1    0    0  501    0  0.00000000000E+00  0.00000000000E+00  0.60853788699E+02  0.60853788699E+02  0.00000000000E+00 0. -1.
         -2   -1    0    0    0  501 -0.00000000000E+00 -0.00000000000E+00 -0.10454882907E+04  0.10454882907E+04  0.00000000000E+00 0.  1.
         23    2    1    2    0    0  0.14890964575E+03 -0.45059743835E+02 -0.87031093746E+03  0.89291235623E+03  0.12508750910E+03 0.  0.
          5    1    3    3  502    0  0.28653488595E+02  0.61213237532E+01 -0.28779212954E+02  0.41282060407E+02  0.41800000000E+01 0. -1.
         -5    1    3    3    0  502  0.12025615715E+03 -0.51181067588E+02 -0.84153172451E+03  0.85163029583E+03  0.41800000000E+01 0. -1.
        -11    1    1    2    0    0 -0.10368805130E+03 -0.11319168988E+02 -0.88143419110E+02  0.13655986930E+03  0.00000000000E+00 0.  1.
         11    1    1    2    0    0 -0.45221594445E+02  0.56378912822E+02 -0.26180145386E+02  0.76869853828E+02  0.00000000000E+00 0. -1.
</event>
<event>
 7    1  0.1243146E-005  0.3057817E+03  0.7561462E-02  0.1082386E+00
          2   -1    0    0  501    0  0.00000000000E+00  0.00000000000E+00  0.10781840368E+04  0.10781840368E+04  0.00000000000E+00 0. -1.
         -2   -1    0    0    0  501 -0.00000000000E+00 -0.00000000000E+00 -0.12681699896E+03  0.12681699896E+03  0.00000000000E+00 0.  1.
         23    2    1    2    0    0 -0.45622279414E+02  0.28880475998E+03  0.15913048962E+03  0.35561080945E+03  0.12508778242E+03 0.  0.
          5    1    3    3  502    0 -0.82586023670E+02  0.12385591197E+03  0.75491201483E+02  0.16696446370E+03  0.41800000000E+01 0.  1.
         -5    1    3    3    0  502  0.36963744256E+02  0.16494884801E+03  0.83639288137E+02  0.18864634576E+03  0.41800000000E+01 0.  1.
        -11    1    1    2    0    0  0.60310707304E+01 -0.12045966640E+03  0.21174796284E+03  0.24368854058E+03  0.00000000000E+00 0.  1.
         11    1    1    2    0    0  0.39591208684E+02 -0.16834509357E+03  0.58048858533E+03  0.60570168568E+03  0.00000000000E+00 0. -1.
</event>
<event>
 7    1  0.1243146E-005  0.1250888E+03  0.7561462E-02  0.1234931E+00
          1   -1    0    0  501    0  0.00000000000E+00  0.00000000000E+00  0.10135217463E+04  0.10135217463E+04  0.00000000000E+00 0. -1.
         -1   -1    0    0    0  501 -0.00000000000E+00 -0.00000000000E+00 -0.21529448071E+02  0.21529448071E+02  0.00000000000E+00 0.  1.
         23    2    1    2    0    0  0.28546980519E+02 -0.84892059660E+02  0.38472267761E+03  0.41434395557E+03  0.12509109864E+03 0.  0.
          5    1    3    3  502    0 -0.27496494753E+02 -0.34693655328E+01  0.22303703895E+03  0.22479120727E+03  0.41800000000E+01 0.  1.
         -5    1    3    3    0  502  0.56043475273E+02 -0.81422694128E+02  0.16168563866E+03  0.18955274830E+03  0.41800000000E+01 0.  1.
        -11    1    1    2    0    0  0.57082981039E+01 -0.15829932061E+02  0.37674178427E+02  0.41261545493E+02  0.00000000000E+00 0.  1.
         11    1    1    2    0    0 -0.34255278623E+02  0.10072199172E+03  0.56959544217E+03  0.57944569329E+03  0.00000000000E+00 0. -1.
</event>
<event>
 7    1  0.1243146E-005  0.1154537E+03  0.7561462E-02  0.1250791E+00
          2   -1    0    0  501    0  0.00000000000E+00  0.00000000000E+00  0.36191403778E+02  0.36191403778E+02  0.00000000000E+00 0. -1.
         -2   -1    0    0    0  501 -0.00000000000E+00 -0.00000000000E+00 -0.52271616448E+03  0.52271616448E+03  0.00000000000E+00 0.  1.
         23    2    1    2    0    0 -0.29314722652E+02 -0.78689792783E+02 -0.26290367421E+03  0.30301134748E+03  0.12508436488E+03 0.  0.
          5    1    3    3  502    0 -0.56568742616E+02 -0.56677435803E+02 -0.25437397220E+03  0.26671322521E+03  0.41800000000E+01 0.  1.
         -5    1    3    3    0  502  0.27254019963E+02 -0.22012356980E+02 -0.85297020108E+01  0.36298122270E+02  0.41800000000E+01 0.  1.
        -11    1    1    2    0    0  0.54610751289E+02  0.34722697971E+02 -0.17086698259E+03  0.18271159145E+03  0.00000000000E+00 0.  1.
         11    1    1    2    0    0 -0.25296028637E+02  0.43967094813E+02 -0.52754103900E+02  0.73184629325E+02  0.00000000000E+00 0. -1.
</event>
<event>
 7    1  0.1243146E-005  0.7334851E+02  0.7561462E-02  0.1349063E+00
          1   -1    0    0  501    0  0.00000000000E+00  0.00000000000E+00  0.96281270351E+02  0.96281270351E+02  0.00000000000E+00 0. -1.
         -1   -1    0    0    0  501 -0.00000000000E+00 -0.00000000000E+00 -0.19094987214E+03  0.19094987214E+03  0.00000000000E+00 0.  1.
         23    2    1    2    0    0 -0.15003017530E+02 -0.11172493948E+02 -0.13810430991E+03  0.18727043970E+03  0.12508997567E+03 0.  0.
          5    1    3    3  502    0  0.33833005575E+02  0.21506905671E+02 -0.11852620779E+03  0.12519246619E+03  0.41800000000E+01 0.  1.
         -5    1    3    3    0  502 -0.48836023105E+02 -0.32679399619E+02 -0.19578102120E+02  0.62077973508E+02  0.41800000000E+01 0.  1.
        -11    1    1    2    0    0 -0.12632968800E+02 -0.69627110436E+01 -0.22198070196E+02  0.26473110248E+02  0.00000000000E+00 0.  1.
         11    1    1    2    0    0  0.27635986330E+02  0.18135204992E+02  0.65633778322E+02  0.73487592540E+02  0.00000000000E+00 0. -1.
</event>
<event>
 7    1  0.1243146E-005  0.1160100E+03  0.7561462E-02  0.1249828E+00
         -1   -1    0    0    0  501 -0.00000000000E+00  0.00000000000E+00  0.39944582085E+03  0.39944582085E+03  0.00000000000E+00 0.  1.
          1   -1    0    0  501    0  0.00000000000E+00 -0.00000000000E+00 -0.52597687726E+02  0.52597687726E+02  0.00000000000E+00 0. -1.
         23    2    1    2    0    0 -0.15542040878E+01 -0.68774546219E+02  0.29579010559E+03  0.32843831696E+03  0.12509031826E+03 0.  0.
          5    1    3    3  502    0  0.18244139555E+02  0.29129849607E+02  0.35409541542E+02  0.49524789737E+02  0.41800000000E+01 0. -1.
         -5    1    3    3    0  502 -0.19798343643E+02 -0.97904395826E+02  0.26038056405E+03  0.27891352722E+03  0.41800000000E+01 0. -1.
        -11    1    1    2    0    0  0.22965450210E+02  0.72176302244E+02  0.89824055503E+01  0.76272630205E+02  0.00000000000E+00 0.  1.
         11    1    1    2    0    0 -0.21411246122E+02 -0.34017560248E+01  0.42075621983E+02  0.47332561412E+02  0.00000000000E+00 0. -1.
</event>
<event>
 7    1  0.1243146E-005  0.2260576E+03  0.7561462E-02  0.1129446E+00
          2   -1    0    0  501    0  0.00000000000E+00  0.00000000000E+00  0.13551232693E+04  0.13551232693E+04  0.00000000000E+00 0. -1.
         -2   -1    0    0    0  501 -0.00000000000E+00 -0.00000000000E+00 -0.40481958256E+02  0.40481958256E+02  0.00000000000E+00 0.  1.
         23    2    1    2    0    0  0.20575694146E+03  0.11547833376E+02  0.71476120463E+03  0.75432140252E+03  0.12509167532E+03 0.  0.
          5    1    3    3  502    0 -0.14321084114E+02  0.27201664969E+00  0.10283380532E+03  0.10391068935E+03  0.41800000000E+01 0.  1.
         -5    1    3    3    0  502  0.22007802557E+03  0.11275816726E+02  0.61192739931E+03  0.65041071317E+03  0.41800000000E+01 0.  1.
        -11    1    1    2    0    0 -0.59030308900E+01 -0.15822815618E+02  0.13055789457E+02  0.21346215265E+02  0.00000000000E+00 0.  1.
         11    1    1    2    0    0 -0.19985391057E+03  0.42749822426E+01  0.58682431692E+03  0.61993760974E+03  0.00000000000E+00 0. -1.
</event>
<event>
 6    1  0.1243146E-005  0.1392991E+03  0.7561462E-02  0.1214275E+00
          3   -1    0    0  501    0  0.00000000000E+00  0.00000000000E+00  0.64394749746E+02  0.64394749746E+02  0.00000000000E+00 0. -1.
         -3   -1    0    0    0  501 -0.00000000000E+00 -0.00000000000E+00 -0.46843960714E+03  0.46843960714E+03  0.00000000000E+00 0.  1.
          5    1    1    2  502    0  0.43956618911E+01  0.11401769554E+03 -0.25898211503E+03  0.28303456511E+03  0.41800000000E+01 0. -1.
         -5    1    1    2    0  502 -0.25544379920E+02 -0.42745231496E+02 -0.11959708948E+03  0.12961715308E+03  0.41800000000E+01 0.  1.
        -11    1    1    2    0    0  0.29138940987E+02 -0.89725883066E+02 -0.10105819353E+02  0.94878551626E+02  0.00000000000E+00 0. -1.
         11    1    1    2    0    0 -0.79902229580E+01  0.18453419022E+02 -0.15359833538E+02  0.25304087077E+02  0.00000000000E+00 0.  1.
</event>
<event>
 7    1  0.1243146E-005  0.1132832E+03  0.7561462E-02  0.1254608E+00
          3   -1    0    0  501    0  0.00000000000E+00  0.00000000000E+00  0.11474120828E+03  0.11474120828E+03  0.00000000000E+00 0. -1.
         -3   -1    0    0    0  501 -0.00000000000E+00 -0.00000000000E+00 -0.19437229440E+03  0.19437229440E+03  0.00000000000E+00 0.  1.
         23    2    1    2    0    0 -0.77257467909E+02  0.42024158515E+02 -0.96725558999E+02  0.18093840637E+03  0.12509247335E+03 0.  0.
          5    1    3    3  502    0 -0.66677741313E+02  0.57730909959E+02 -0.63709196516E+01  0.88525929357E+02  0.41800000000E+01 0.  1.
         -5    1    3    3    0  502 -0.10579726596E+02 -0.15706751445E+02 -0.90354639348E+02  0.92412477012E+02  0.41800000000E+01 0.  1.
        -11    1    1    2    0    0  0.34126124599E+02  0.22780423678E+02  0.27849982634E+02  0.49589934622E+02  0.00000000000E+00 0.  1.
         11    1    1    2    0    0  0.43131343310E+02 -0.64804582193E+02 -0.10755509753E+02  0.78585161697E+02  0.00000000000E+00 0. -1.
</event>
<event>
 7    1  0.1243146E-005  0.1146173E+03  0.7561462E-02  0.1252251E+00
          2   -1    0    0  501    0  0.00000000000E+00  0.00000000000E+00  0.63078512617E+03  0.63078512617E+03  0.00000000000E+00 0. -1.
         -2   -1    0    0    0  501 -0.00000000000E+00 -0.00000000000E+00 -0.28072811208E+02  0.28072811208E+02  0.00000000000E+00 0.  1.
         23    2    1    2    0    0  0.36803425388E+02  0.49457946787E+02  0.21717248758E+03  0.25808592048E+03  0.12507546670E+03 0.  0.
          5    1    3    3  502    0  0.29046305150E+02  0.81966623883E+02  0.20421318520E+03  0.22199710062E+03  0.41800000000E+01 0. -1.
         -5    1    3    3    0  502  0.77571202385E+01 -0.32508677096E+02  0.12959302377E+02  0.36088819862E+02  0.41800000000E+01 0. -1.
        -11    1    1    2    0    0 -0.25974916074E+02  0.23323044034E+02  0.14987746623E+03  0.15388929635E+03  0.00000000000E+00 0.  1.
         11    1    1    2    0    0 -0.10828509314E+02 -0.72780990821E+02  0.23566236115E+03  0.24688272054E+03  0.00000000000E+00 0. -1.
</event>
<event>
 7    1  0.1243146E-005  0.8554596E+02  0.7561462E-02  0.1314011E+00
         -2   -1    0    0    0  501 -0.00000000000E+00  0.00000000000E+00  0.55037837714E+02  0.55037837714E+02  0.00000000000E+00 0.  1.
          2   -1    0    0  501    0  0.00000000000E+00 -0.00000000000E+00 -0.34777116920E+03  0.34777116920E+03  0.00000000000E+00 0. -1.
         23    2    1    2    0    0  0.21428839985E+02  0.33385777728E+02 -0.50107156731E+02  0.14047253528E+03  0.12509196887E+03 0.  0.
          5    1    3    3  502    0 -0.22945124615E+02  0.40426522102E+01 -0.77114095088E+02  0.80665220769E+02  0.41800000000E+01 0.  1.
         -5    1    3    3    0  502  0.44373964600E+02  0.29343125518E+02  0.27006938358E+02  0.59807314510E+02  0.41800000000E+01 0.  1.
        -11    1    1    2    0    0 -0.53648603480E+02 -0.10835629776E+02 -0.95776078312E+02  0.11031156197E+03  0.00000000000E+00 0.  1.
         11    1    1    2    0    0  0.32219763495E+02 -0.22550147952E+02 -0.14685009644E+03  0.15202490966E+03  0.00000000000E+00 0. -1.
</event>
<event>
 7    1  0.1243146E-005  0.1301697E+03  0.7561462E-02  0.1227204E+00
         -2   -1    0    0    0  501 -0.00000000000E+00  0.00000000000E+00  0.18937606074E+03  0.18937606074E+03  0.00000000000E+00 0.  1.
          2   -1    0    0  501    0  0.00000000000E+00 -0.00000000000E+00 -0.16066236476E+03  0.16066236476E+03  0.00000000000E+00 0. -1.
         23    2    1    2    0    0 -0.11167406224E+03 -0.84954079829E+01  0.92645740239E+02  0.19176718661E+03  0.12509257588E+03 0.  0.
          5    1    3    3  502    0 -0.81295074630E+02 -0.49089934872E+02  0.11170954147E+02  0.95712974467E+02  0.41800000000E+01 0.  1.
         -5    1    3    3    0  502 -0.30378987615E+02  0.40594526889E+02  0.81474786092E+02  0.96054212144E+02  0.41800000000E+01 0.  1.
        -11    1    1    2    0    0  0.92220241377E+02 -0.21183581434E+01 -0.17531197837E+01  0.92261225820E+02  0.00000000000E+00 0.  1.
         11    1    1    2    0    0  0.19453820868E+02  0.10613766126E+02 -0.62178924470E+02  0.66010013074E+02  0.00000000000E+00 0. -1.
</event>
<event>
 7    1  0.1243146E-005  0.1108461E+03  0.7561462E-02  0.1259011E+00
          2   -1    0    0  501    0  0.00000000000E+00  0.00000000000E+00  0.57070813627E+03  0.57070813627E+03  0.00000000000E+00 0. -1.
         -2   -1    0    0    0  501 -0.00000000000E+00 -0.00000000000E+00 -0.37510494849E+02  0.37510494849E+02  0.00000000000E+00 0.  1.
         23    2    1    2    0    0 -0.33640457495E+02  0.58288161349E+02  0.15447012445E+03  0.21170480726E+03  0.12817455261E+03 0.  0.
          5    1    3    3  502    0 -0.60629053869E+02  0.69954675250E+02  0.15656515734E+03  0.18193311863E+03  0.41800000000E+01 0. -1.
         -5    1    3    3    0  502  0.26988596374E+02 -0.11666513901E+02 -0.20950328936E+01  0.29771688626E+02  0.41800000000E+01 0.  1.
        -11    1    1    2    0    0 -0.18930379832E+02  0.23484765582E+01  0.15653087629E+02  0.24675773039E+02  0.00000000000E+00 0. -1.
         11    1    1    2    0    0  0.52570837327E+02 -0.60636637908E+02  0.36307442935E+03  0.37183805082E+03  0.00000000000E+00 0.  1.
</event>
<event>
 7    1  0.1243146E-005  0.1430074E+03  0.7561462E-02  0.1209339E+00
          1   -1    0    0  501    0  0.00000000000E+00  0.00000000000E+00  0.46844997109E+02  0.46844997109E+02  0.00000000000E+00 0. -1.
         -1   -1    0    0    0  501 -0.00000000000E+00 -0.00000000000E+00 -0.66886405549E+03  0.66886405549E+03  0.00000000000E+00 0.  1.
         23    2    1    2    0    0  0.12888696105E+03  0.41346753682E+02 -0.40733007977E+03  0.44708827219E+03  0.12509486991E+03 0.  0.
          5    1    3    3  502    0  0.11738986883E+02  0.16629780691E+02  0.17242613365E+01  0.20851831958E+02  0.41800000000E+01 0.  1.
         -5    1    3    3    0  502  0.11714797417E+03  0.24716972991E+02 -0.40905434110E+03  0.42623644023E+03  0.41800000000E+01 0.  1.
        -11    1    1    2    0    0 -0.54226113401E+02 -0.45315648288E+02 -0.16319138631E+03  0.17783533934E+03  0.00000000000E+00 0.  1.
         11    1    1    2    0    0 -0.74660847649E+02  0.39688946062E+01 -0.51497592305E+02  0.90785441065E+02  0.00000000000E+00 0. -1.
</event>
<event>
 7    1  0.1243146E-005  0.1267944E+03  0.7561462E-02  0.1232291E+00
         -1   -1    0    0    0  501 -0.00000000000E+00  0.00000000000E+00  0.51635402078E+03  0.51635402078E+03  0.00000000000E+00 0.  1.
          1   -1    0    0  501    0  0.00000000000E+00 -0.00000000000E+00 -0.33583441313E+02  0.33583441313E+02  0.00000000000E+00 0. -1.
         23    2    1    2    0    0 -0.34682100380E+02  0.59611841153E+02  0.21056402585E+03  0.25444268597E+03  0.12508977484E+03 0.  0.
          5    1    3    3  502    0 -0.53333218623E+02 -0.22197885923E+02  0.72076933240E+02  0.92464777366E+02  0.41800000000E+01 0. -1.
         -5    1    3    3    0  502  0.18651118243E+02  0.81809727075E+02  0.13848709261E+03  0.16197790860E+03  0.41800000000E+01 0. -1.
        -11    1    1    2    0    0 -0.21236453735E+02  0.90677702714E+01  0.31846457248E+02  0.39337110522E+02  0.00000000000E+00 0. -1.
         11    1    1    2    0    0  0.55918554115E+02 -0.68679611424E+02  0.24036009637E+03  0.25615766560E+03  0.00000000000E+00 0.  1.
</event>
<event>
 6    1  0.1243146E-005  0.1415819E+03  0.7561462E-02  0.1211216E+00
         -1   -1    0    0    0  501 -0.00000000000E+00  0.00000000000E+00  0.25900308735E+03  0.25900308735E+03  0.00000000000E+00 0.  1.
          1   -1    0    0  501    0  0.00000000000E+00 -0.00000000000E+00 -0.18993018201E+03  0.18993018201E+03  0.00000000000E+00 0. -1.
          5    1    1    2  502    0  0.24295331051E+02 -0.36969317175E+01 -0.62986919858E+01  0.25711404780E+02  0.41800000000E+01 0. -1.
         -5    1    1    2    0  502 -0.10778905593E+03  0.21214331762E+02  0.19579846345E+03  0.22455074958E+03  0.41800000000E+01 0.  1.
        -11    1    1    2    0    0 -0.27571249208E+02 -0.24680201776E+02 -0.33809224874E+01  0.37157997517E+02  0.00000000000E+00 0.  1.
         11    1    1    2    0    0  0.11106497409E+03  0.71628017311E+01 -0.11704594363E+03  0.16151311748E+03  0.00000000000E+00 0. -1.
</event>
<event>
 7    1  0.1243146E-005  0.1040127E+03  0.7561462E-02  0.1272077E+00
          2   -1    0    0  501    0  0.00000000000E+00  0.00000000000E+00  0.96367302100E+03  0.96367302100E+03  0.00000000000E+00 0. -1.
         -2   -1    0    0    0  501 -0.00000000000E+00 -0.00000000000E+00 -0.12523543327E+02  0.12523543327E+02  0.00000000000E+00 0.  1.
         23    2    1    2    0    0 -0.16517030007E+02  0.66786797280E+01  0.59308506697E+03  0.60639481158E+03  0.12508938326E+03 0.  0.
          5    1    3    3  502    0  0.51237424842E+02  0.41322552259E+01  0.35786043980E+03  0.36155762475E+03  0.41800000000E+01 0. -1.
         -5    1    3    3    0  502 -0.67754454848E+02  0.25464245021E+01  0.23522462717E+03  0.24483718684E+03  0.41800000000E+01 0. -1.
        -11    1    1    2    0    0 -0.31220980281E+02  0.16654872367E+02  0.93894663297E+02  0.10034112905E+03  0.00000000000E+00 0.  1.
         11    1    1    2    0    0  0.47738010288E+02 -0.23333552095E+02  0.26416974740E+03  0.26946062369E+03  0.00000000000E+00 0. -1.
</event>
<event>
 7    1  0.1243146E-005  0.1188080E+03  0.7561462E-02  0.1245077E+00
          3   -1    0    0  501    0  0.00000000000E+00  0.00000000000E+00  0.62221369543E+02  0.62221369543E+02  0.00000000000E+00 0. -1.
         -3   -1    0    0    0  501 -0.00000000000E+00 -0.00000000000E+00 -0.69731379596E+03  0.69731379596E+03  0.00000000000E+00 0.  1.
         23    2    1    2    0    0  0.67027711994E+02 -0.49189781361E+02 -0.61626533824E+03  0.63430506227E+03  0.12509035195E+03 0.  0.
          5    1    3    3  502    0  0.88232371623E+02  0.47300117629E+01 -0.30084337278E+03  0.31357858944E+03  0.41800000000E+01 0. -1.
         -5    1    3    3    0  502 -0.21204659629E+02 -0.53919793124E+02 -0.31542196546E+03  0.32072647283E+03  0.41800000000E+01 0. -1.
        -11    1    1    2    0    0 -0.46360270157E+02  0.11004457389E+02 -0.52044075890E+02  0.70561735854E+02  0.00000000000E+00 0.  1.
         11    1    1    2    0    0 -0.20667441836E+02  0.38185323972E+02  0.33216987710E+02  0.54668367375E+02  0.00000000000E+00 0. -1.
</event>
<event>
 7    1  0.1243146E-005  0.8526414E+02  0.7561462E-02  0.1314743E+00
          2   -1    0    0  501    0  0.00000000000E+00  0.00000000000E+00  0.44078416607E+03  0.44078416607E+03  0.00000000000E+00 0. -1.
         -2   -1    0    0    0  501 -0.00000000000E+00 -0.00000000000E+00 -0.34582528079E+02  0.34582528079E+02  0.00000000000E+00 0.  1.
         23    2    1    2    0    0 -0.33351728639E+02  0.88619219437E+01  0.14727910779E+03  0.19628894268E+03  0.12508933593E+03 0.  0.
          5    1    3    3  502    0 -0.46677557310E+02 -0.13677712707E+02  0.22665742200E+01  0.48872118228E+02  0.41800000000E+01 0.  1.
         -5    1    3    3    0  502  0.13325828671E+02  0.22539634651E+02  0.14501253357E+03  0.14741682445E+03  0.41800000000E+01 0.  1.
        -11    1    1    2    0    0 -0.24418880973E+02 -0.25266930501E+02  0.46222450408E+02  0.58062160196E+02  0.00000000000E+00 0.  1.
         11    1    1    2    0    0  0.57770609612E+02  0.16405008558E+02  0.21270007980E+03  0.22101559128E+03  0.00000000000E+00 0. -1.
</event>
<event>
 7    1  0.1243146E-005  0.1194104E+03  0.7561462E-02  0.1244073E+00
         -4   -1    0    0    0  501 -0.00000000000E+00  0.00000000000E+00  0.14537171587E+03  0.14537171587E+03  0.00000000000E+00 0. -1.
          4   -1    0    0  501    0  0.00000000000E+00 -0.00000000000E+00 -0.24843415051E+03  0.24843415051E+03  0.00000000000E+00 0.  1.
         23    2    1    2    0    0 -0.41175330365E+02 -0.80415446724E+02  0.71874614559E+02  0.17022308640E+03  0.12509151460E+03 0.  0.
          5    1    3    3  502    0 -0.67748369961E+02 -0.42802486068E+02 -0.51205735591E+01  0.80408874631E+02  0.41800000000E+01 0.  1.
         -5    1    3    3    0  502  0.26573039596E+02 -0.37612960656E+02  0.76995188118E+02  0.89814211771E+02  0.41800000000E+01 0.  1.
        -11    1    1    2    0    0  0.27069550393E+02  0.90843657262E+02 -0.18157352031E+03  0.20482742468E+03  0.00000000000E+00 0.  1.
         11    1    1    2    0    0  0.14105779971E+02 -0.10428210538E+02  0.66364711152E+01  0.18755355301E+02  0.00000000000E+00 0. -1.
</event>
<event>
 7    1  0.1243146E-005  0.1262765E+03  0.7561462E-02  0.1233088E+00
          2   -1    0    0  501    0  0.00000000000E+00  0.00000000000E+00  0.60573485238E+02  0.60573485238E+02  0.00000000000E+00 0. -1.
         -2   -1    0    0    0  501 -0.00000000000E+00 -0.00000000000E+00 -0.37752559181E+03  0.37752559181E+03  0.00000000000E+00 0.  1.
         23    2    1    2    0    0 -0.65751398554E+02 -0.69097949544E+02 -0.23462697395E+03  0.28248139056E+03  0.12509254999E+03 0.  0.
          5    1    3    3  502    0  0.31677544797E+02 -0.24848913954E+02 -0.26383863461E+02  0.48316829575E+02  0.41800000000E+01 0.  1.
         -5    1    3    3    0  502 -0.97428943351E+02 -0.44249035591E+02 -0.20824311049E+03  0.23416456098E+03  0.41800000000E+01 0.  1.
        -11    1    1    2    0    0  0.51647338617E+02  0.22560117685E+02  0.40391796157E+01  0.56504172130E+02  0.00000000000E+00 0. -1.
         11    1    1    2    0    0  0.14104059937E+02  0.46537831859E+02 -0.86364312237E+02  0.99113514362E+02  0.00000000000E+00 0.  1.
</event>
<event>
 7    1  0.1243146E-005  0.1579795E+03  0.7561462E-02  0.1190997E+00
         -1   -1    0    0    0  501 -0.00000000000E+00  0.00000000000E+00  0.25124297070E+02  0.25124297070E+02  0.00000000000E+00 0.  1.
          1   -1    0    0  501    0  0.00000000000E+00 -0.00000000000E+00 -0.12012595493E+04  0.12012595493E+04  0.00000000000E+00 0. -1.
         23    2    1    2    0    0 -0.13124517137E+03  0.14751013238E+02 -0.52236606984E+03  0.55312439289E+03  0.12504957293E+03 0.  0.
          5    1    3    3  502    0 -0.11751610893E+03 -0.26302036521E+02 -0.25251268342E+03  0.27978913609E+03  0.41800000000E+01 0. -1.
         -5    1    3    3    0  502 -0.13729062437E+02  0.41053049760E+02 -0.26985338641E+03  0.27333525680E+03  0.41800000000E+01 0. -1.
        -11    1    1    2    0    0  0.76772191728E+02  0.29040298530E+02 -0.24048443654E+03  0.25410641980E+03  0.00000000000E+00 0.  1.
         11    1    1    2    0    0  0.54472979640E+02 -0.43791311768E+02 -0.41328474581E+03  0.41915303364E+03  0.00000000000E+00 0. -1.
</event>
<event>
 7    1  0.1243146E-005  0.1033982E+03  0.7561462E-02  0.1273308E+00
          2   -1    0    0  501    0  0.00000000000E+00  0.00000000000E+00  0.41676860436E+02  0.41676860436E+02  0.00000000000E+00 0. -1.
         -2   -1    0    0    0  501 -0.00000000000E+00 -0.00000000000E+00 -0.58100623196E+03  0.58100623196E+03  0.00000000000E+00 0.  1.
         23    2    1    2    0    0 -0.47913347337E+02 -0.27265490322E+02 -0.48920714809E+03  0.50793331302E+03  0.12503407901E+03 0.  0.
          5    1    3    3  502    0  0.33374489600E+02  0.18971223920E+02 -0.90691452495E+02  0.98570664241E+02  0.41800000000E+01 0. -1.
         -5    1    3    3    0  502 -0.81287836937E+02 -0.46236714242E+02 -0.39851569560E+03  0.40936264878E+03  0.41800000000E+01 0. -1.
        -11    1    1    2    0    0  0.46483899568E+02  0.40260710152E+02 -0.68591231419E+02  0.92121847184E+02  0.00000000000E+00 0.  1.
         11    1    1    2    0    0  0.14294477688E+01 -0.12995219830E+02  0.18469007986E+02  0.22627932193E+02  0.00000000000E+00 0. -1.
</event>
<event>
 7    1  0.1243146E-005  0.9341916E+02  0.7561462E-02  0.1294777E+00
         -3   -1    0    0    0  501 -0.00000000000E+00  0.00000000000E+00  0.14998919356E+03  0.14998919356E+03  0.00000000000E+00 0.  1.
          3   -1    0    0  501    0  0.00000000000E+00 -0.00000000000E+00 -0.14459575842E+03  0.14459575842E+03  0.00000000000E+00 0. -1.
         23    2    1    2    0    0  0.21586256852E+02 -0.56241692794E+02  0.79502491056E+02  0.15999188431E+03  0.12509061703E+03 0.  0.
          5    1    3    3  502    0  0.25771858475E+02  0.16993940986E+02  0.80704177182E+02  0.86507914864E+02  0.41800000000E+01 0. -1.
         -5    1    3    3    0  502 -0.41856016226E+01 -0.73235633781E+02 -0.12016861264E+01  0.73483969447E+02  0.41800000000E+01 0. -1.
        -11    1    1    2    0    0 -0.35942776412E+02  0.57490318993E+02 -0.95803676140E+01  0.68474837698E+02  0.00000000000E+00 0.  1.
         11    1    1    2    0    0  0.14356519559E+02 -0.12486261990E+01 -0.64528688303E+02  0.66118229978E+02  0.00000000000E+00 0. -1.
</event>
<event>
 7    1  0.1243146E-005  0.1036235E+03  0.7561462E-02  0.1272856E+00
         -2   -1    0    0    0  501 -0.00000000000E+00  0.00000000000E+00  0.76304803411E+02  0.76304803411E+02  0.00000000000E+00 0.  1.
          2   -1    0    0  501    0  0.00000000000E+00 -0.00000000000E+00 -0.28888237867E+03  0.28888237867E+03  0.00000000000E+00 0. -1.
         23    2    1    2    0    0  0.51646072439E+02  0.28743781075E+02 -0.14908218061E+02  0.13914468003E+03  0.12508183427E+03 0.  0.
          5    1    3    3  502    0  0.12745782402E+02 -0.28069840907E+02 -0.52170462253E+02  0.60742081535E+02  0.41800000000E+01 0.  1.
         -5    1    3    3    0  502  0.38900290037E+02  0.56813621982E+02  0.37262244192E+02  0.78402598490E+02  0.41800000000E+01 0.  1.
        -11    1    1    2    0    0  0.16563313419E+02  0.18003689276E+02 -0.67833580788E+02  0.72110130089E+02  0.00000000000E+00 0. -1.
         11    1    1    2    0    0 -0.68209385858E+02 -0.46747470352E+02 -0.12983577641E+03  0.15393237197E+03  0.00000000000E+00 0.  1.
</event>
<event>
 7    1  0.1243146E-005  0.1207785E+03  0.7561462E-02  0.1241818E+00
          2   -1    0    0  501    0  0.00000000000E+00  0.00000000000E+00  0.28054518712E+03  0.28054518712E+03  0.00000000000E+00 0. -1.
         -2   -1    0    0    0  501 -0.00000000000E+00 -0.00000000000E+00 -0.63967115066E+02  0.63967115066E+02  0.00000000000E+00 0.  1.
         23    2    1    2    0    0  0.80128438843E+02  0.44661277034E+01  0.10393126929E+03  0.18135920724E+03  0.12509572458E+03 0.  0.
          5    1    3    3  502    0  0.41029697560E+02 -0.60091210823E+02  0.55129888327E+02  0.91384718017E+02  0.41800000000E+01 0.  1.
         -5    1    3    3    0  502  0.39098741283E+02  0.64557338526E+02  0.48801380967E+02  0.89974489228E+02  0.41800000000E+01 0.  1.
        -11    1    1    2    0    0 -0.45678849980E+01  0.14481265888E+02  0.75204287279E+02  0.76721949012E+02  0.00000000000E+00 0. -1.
         11    1    1    2    0    0 -0.75560553845E+02 -0.18947393592E+02  0.37442515481E+02  0.86431145930E+02  0.00000000000E+00 0.  1.
</event>
<event>
 7    1  0.1243146E-005  0.1449564E+03  0.7561462E-02  0.1206811E+00
          1   -1    0    0  501    0  0.00000000000E+00  0.00000000000E+00  0.77151624798E+02  0.77151624798E+02  0.00000000000E+00 0. -1.
         -1   -1    0    0    0  501 -0.00000000000E+00 -0.00000000000E+00 -0.56636612755E+03  0.56636612755E+03  0.00000000000E+00 0.  1.
         23    2    1    2    0    0 -0.67345991254E+02  0.93050689840E+02 -0.46501573494E+03  0.49505686632E+03  0.12509098181E+03 0.  0.
          5    1    3    3  502    0 -0.16529584807E+02  0.11328441518E+03 -0.29791695246E+03  0.31918422402E+03  0.41800000000E+01 0. -1.
         -5    1    3    3    0  502 -0.50816406448E+02 -0.20233725338E+02 -0.16709878248E+03  0.17587264230E+03  0.41800000000E+01 0. -1.
        -11    1    1    2    0    0 -0.22992837412E+01 -0.17857942565E+02 -0.40835075100E+02  0.44628423418E+02  0.00000000000E+00 0.  1.
         11    1    1    2    0    0  0.69645274996E+02 -0.75192747274E+02  0.16636307287E+02  0.10383246261E+03  0.00000000000E+00 0. -1.
</event>
<event>
 7    1  0.1243146E-005  0.1932689E+03  0.7561462E-02  0.1155546E+00
         -2   -1    0    0    0  501 -0.00000000000E+00  0.00000000000E+00  0.67284833450E+03  0.67284833450E+03  0.00000000000E+00 0.  1.
          2   -1    0    0  501    0  0.00000000000E+00 -0.00000000000E+00 -0.88037582459E+02  0.88037582459E+02  0.00000000000E+00 0. -1.
         23    2    1    2    0    0 -0.10405695906E+03  0.15515209925E+03  0.47576153940E+03  0.52621012905E+03  0.12509209771E+03 0.  0.
          5    1    3    3  502    0 -0.29607748951E+02  0.75228751903E+02  0.73431774449E+02  0.10929630282E+03  0.41800000000E+01 0.  1.
         -5    1    3    3    0  502 -0.74449210111E+02  0.79923347349E+02  0.40232976495E+03  0.41691382623E+03  0.41800000000E+01 0.  1.
        -11    1    1    2    0    0  0.12201299151E+02 -0.69899653158E+02  0.38629488511E+01  0.71061632309E+02  0.00000000000E+00 0.  1.
         11    1    1    2    0    0  0.91855659912E+02 -0.85252446094E+02  0.10518626379E+03  0.16361415560E+03  0.00000000000E+00 0. -1.
</event>
<event>
 7    1  0.1243146E-005  0.9956163E+02  0.7561462E-02  0.1281220E+00
          2   -1    0    0  501    0  0.00000000000E+00  0.00000000000E+00  0.17127832063E+03  0.17127832063E+03  0.00000000000E+00 0.  1.
         -2   -1    0    0    0  501 -0.00000000000E+00 -0.00000000000E+00 -0.80451715701E+02  0.80451715701E+02  0.00000000000E+00 0. -1.
         23    2    1    2    0    0 -0.25057911308E+02 -0.24430286646E+02  0.21137343165E+02  0.13160521386E+03  0.12509359382E+03 0.  0.
          5    1    3    3  502    0 -0.50413863672E+02  0.33928003766E+02  0.28807647868E+02  0.67379671012E+02  0.41800000000E+01 0. -1.
         -5    1    3    3    0  502  0.25355952365E+02 -0.58358290412E+02 -0.76703047037E+01  0.64225542850E+02  0.41800000000E+01 0. -1.
        -11    1    1    2    0    0  0.30640114789E+02  0.44268483126E+02  0.71904798694E+01  0.54315911419E+02  0.00000000000E+00 0. -1.
         11    1    1    2    0    0 -0.55822034811E+01 -0.19838196480E+02  0.62498781894E+02  0.65808911050E+02  0.00000000000E+00 0.  1.
</event>
<event>
 7    1  0.1243146E-005  0.3019035E+03  0.7561462E-02  0.1084293E+00
         -2   -1    0    0    0  501 -0.00000000000E+00  0.00000000000E+00  0.30528423722E+02  0.30528423722E+02  0.00000000000E+00 0.  1.
          2   -1    0    0  501    0  0.00000000000E+00 -0.00000000000E+00 -0.33069182960E+04  0.33069182960E+04  0.00000000000E+00 0. -1.
         23    2    1    2    0    0  0.68319761068E+01  0.29603828897E+03 -0.19389821341E+04  0.19647878883E+04  0.11425578856E+03 0.  0.
          5    1    3    3  502    0 -0.30482084585E+01  0.29228259651E+03 -0.16578328059E+04  0.16834088905E+04  0.41800000000E+01 0. -1.
         -5    1    3    3    0  502  0.98801845653E+01  0.37556924623E+01 -0.28114932815E+03  0.28137899778E+03  0.41800000000E+01 0.  1.
        -11    1    1    2    0    0 -0.26055165023E+02 -0.10820072546E+03 -0.66475956960E+03  0.67401153847E+03  0.00000000000E+00 0. -1.
         11    1    1    2    0    0  0.19223188917E+02 -0.18783756352E+03 -0.67264816863E+03  0.69864729300E+03  0.00000000000E+00 0.  1.
</event>
<event>
 7    1  0.1243146E-005  0.1260872E+03  0.7561462E-02  0.1233380E+00
         -2   -1    0    0    0  501 -0.00000000000E+00  0.00000000000E+00  0.52964338883E+02  0.52964338883E+02  0.00000000000E+00 0. -1.
          2   -1    0    0  501    0  0.00000000000E+00 -0.00000000000E+00 -0.41294733469E+03  0.41294733469E+03  0.00000000000E+00 0.  1.
         23    2    1    2    0    0  0.94596111194E+02  0.95691080127E+01 -0.15772997666E+03  0.22263527270E+03  0.12509087508E+03 0.  0.
          5    1    3    3  502    0 -0.19223517245E+02 -0.28550152957E+02 -0.52705199770E+02  0.63086966419E+02  0.41800000000E+01 0. -1.
         -5    1    3    3    0  502  0.11381962844E+03  0.38119260970E+02 -0.10502477689E+03  0.15954830628E+03  0.41800000000E+01 0. -1.
        -11    1    1    2    0    0 -0.38939920458E+02  0.64737583993E+01 -0.76143723118E+01  0.40202059882E+02  0.00000000000E+00 0. -1.
         11    1    1    2    0    0 -0.55656190736E+02 -0.16042866412E+02 -0.19463864683E+03  0.20307434100E+03  0.00000000000E+00 0.  1.
</event>
<event>
 7    1  0.1243146E-005  0.1052500E+03  0.7561462E-02  0.1269628E+00
          1   -1    0    0  501    0  0.00000000000E+00  0.00000000000E+00  0.60741165587E+02  0.60741165587E+02  0.00000000000E+00 0. -1.
         -1   -1    0    0    0  501 -0.00000000000E+00 -0.00000000000E+00 -0.20909471163E+03  0.20909471163E+03  0.00000000000E+00 0.  1.
         23    2    1    2    0    0  0.87956211552E+01  0.75999533951E+01 -0.12077529311E+03  0.17426899128E+03  0.12509151711E+03 0.  0.
          5    1    3    3  502    0  0.59552574804E+02 -0.24838659855E+02 -0.70850725959E+02  0.95920623215E+02  0.41800000000E+01 0. -1.
         -5    1    3    3    0  502 -0.50756953648E+02  0.32438613250E+02 -0.49924567147E+02  0.78348368062E+02  0.41800000000E+01 0. -1.
        -11    1    1    2    0    0 -0.43769857391E+02 -0.20300874118E+02  0.16102642754E+01  0.48275447766E+02  0.00000000000E+00 0. -1.
         11    1    1    2    0    0  0.34974236236E+02  0.12700920722E+02 -0.29188517216E+02  0.47291438176E+02  0.00000000000E+00 0.  1.
</event>
<event>
 7    1  0.1243146E-005  0.1318813E+03  0.7561462E-02  0.1224691E+00
          2   -1    0    0  501    0  0.00000000000E+00  0.00000000000E+00  0.28844996191E+03  0.28844996191E+03  0.00000000000E+00 0. -1.
         -2   -1    0    0    0  501 -0.00000000000E+00 -0.00000000000E+00 -0.60837529621E+02  0.60837529621E+02  0.00000000000E+00 0.  1.
         23    2    1    2    0    0 -0.15352280082E+01 -0.72738916223E+02  0.11314833224E+03  0.18369398362E+03  0.12509047794E+03 0.  0.
          5    1    3    3  502    0  0.61289394544E+02 -0.36394854572E+02  0.47670392606E+02  0.85854027594E+02  0.41800000000E+01 0.  1.
         -5    1    3    3    0  502 -0.62824622552E+02 -0.36344061651E+02  0.65477939634E+02  0.97839956024E+02  0.41800000000E+01 0.  1.
        -11    1    1    2    0    0  0.39825804650E+01  0.96093813907E+02  0.91482083293E+02  0.13273602971E+03  0.00000000000E+00 0.  1.
         11    1    1    2    0    0 -0.24473524568E+01 -0.23354897684E+02  0.22982016754E+02  0.32857478205E+02  0.00000000000E+00 0. -1.
</event>
<event>
 7    1  0.1243146E-005  0.7023958E+02  0.7561462E-02  0.1359280E+00
         -2   -1    0    0    0  501 -0.00000000000E+00  0.00000000000E+00  0.27396370758E+02  0.27396370758E+02  0.00000000000E+00 0.  1.
          2   -1    0    0  501    0  0.00000000000E+00 -0.00000000000E+00 -0.53106435659E+03  0.53106435659E+03  0.00000000000E+00 0. -1.
         23    2    1    2    0    0  0.59260571579E+01  0.15649219370E+02 -0.16872216388E+03  0.21070193579E+03  0.12509244957E+03 0.  0.
          5    1    3    3  502    0 -0.14995189599E+02 -0.99720168033E+01 -0.17567390510E+03  0.17664396441E+03  0.41800000000E+01 0.  1.
         -5    1    3    3    0  502  0.20921246757E+02  0.25621236173E+02  0.69517412118E+01  0.34057971384E+02  0.41800000000E+01 0.  1.
        -11    1    1    2    0    0 -0.18758654256E+02 -0.49240268986E+02 -0.25039407361E+03  0.25587825875E+03  0.00000000000E+00 0. -1.
         11    1    1    2    0    0  0.12832597098E+02  0.33591049616E+02 -0.84551748338E+02  0.91880532811E+02  0.00000000000E+00 0.  1.
</event>
<event>
 7    1  0.1243146E-005  0.8137808E+02  0.7561462E-02  0.1325186E+00
         -1   -1    0    0    0  501 -0.00000000000E+00  0.00000000000E+00  0.40142005948E+02  0.40142005948E+02  0.00000000000E+00 0.  1.
          1   -1    0    0  501    0  0.00000000000E+00 -0.00000000000E+00 -0.37617679988E+03  0.37617679988E+03  0.00000000000E+00 0. -1.
         23    2    1    2    0    0 -0.47333458130E+02  0.19578246710E+02 -0.14343148097E+03  0.19708730393E+03  0.12508817545E+03 0.  0.
          5    1    3    3  502    0  0.21163284666E+01 -0.12352197576E+02  0.19638418201E+02  0.23668449475E+02  0.41800000000E+01 0. -1.
         -5    1    3    3    0  502 -0.49449786597E+02  0.31930444286E+02 -0.16306989917E+03  0.17341885446E+03  0.41800000000E+01 0. -1.
        -11    1    1    2    0    0 -0.20075042323E+02  0.86570455343E+00 -0.79685434671E+01  0.21616069338E+02  0.00000000000E+00 0.  1.
         11    1    1    2    0    0  0.67408500453E+02 -0.20443951264E+02 -0.18463476949E+03  0.19761543255E+03  0.00000000000E+00 0. -1.
</event>
<event>
 7    1  0.1243146E-005  0.1906709E+03  0.7561462E-02  0.1157858E+00
         -1   -1    0    0    0  501 -0.00000000000E+00  0.00000000000E+00  0.43963345466E+02  0.43963345466E+02  0.00000000000E+00 0.  1.
          1   -1    0    0  501    0  0.00000000000E+00 -0.00000000000E+00 -0.93139623028E+03  0.93139623028E+03  0.00000000000E+00 0. -1.
         23    2    1    2    0    0 -0.30609722479E+02 -0.16785393968E+03 -0.43720314802E+03  0.48570215555E+03  0.12509233027E+03 0.  0.
          5    1    3    3  502    0 -0.66536864907E+02 -0.11929303301E+03 -0.20985523797E+03  0.25042898279E+03  0.41800000000E+01 0.  1.
         -5    1    3    3    0  502  0.35927142428E+02 -0.48560906673E+02 -0.22734791005E+03  0.23527317276E+03  0.41800000000E+01 0.  1.
        -11    1    1    2    0    0  0.46762317949E+02  0.65312905612E+02 -0.12797571170E+03  0.15109689873E+03  0.00000000000E+00 0.  1.
         11    1    1    2    0    0 -0.16152595470E+02  0.10254103407E+03 -0.32225402510E+03  0.33856052148E+03  0.00000000000E+00 0. -1.
</event>
<event>
 7    1  0.1243146E-005  0.6568048E+02  0.7561462E-02  0.1375430E+00
          3   -1    0    0  501    0  0.00000000000E+00  0.00000000000E+00  0.20081696227E+03  0.20081696227E+03  0.00000000000E+00 0. -1.
         -3   -1    0    0    0  501 -0.00000000000E+00 -0.00000000000E+00 -0.64969581917E+02  0.64969581917E+02  0.00000000000E+00 0.  1.
         23    2    1    2    0    0 -0.92049486397E+01 -0.11155613309E+02  0.40688676625E+02  0.13233164049E+03  0.12508763281E+03 0.  0.
          5    1    3    3  502    0 -0.20497629385E+02  0.10442566527E+01  0.83568020657E+02  0.86152943995E+02  0.41800000000E+01 0.  1.
         -5    1    3    3    0  502  0.11292680745E+02 -0.12199869962E+02 -0.42879344032E+02  0.46178696497E+02  0.41800000000E+01 0.  1.
        -11    1    1    2    0    0 -0.25708938765E+02 -0.29865154352E+02  0.35022812061E+02  0.52720720230E+02  0.00000000000E+00 0. -1.
         11    1    1    2    0    0  0.34913887405E+02  0.41020767661E+02  0.60135891666E+02  0.80734183465E+02  0.00000000000E+00 0.  1.
</event>
<event>
 7    1  0.1243146E-005  0.3427230E+03  0.7561462E-02  0.1065642E+00
          2   -1    0    0  501    0  0.00000000000E+00  0.00000000000E+00  0.19920940381E+04  0.19920940381E+04  0.00000000000E+00 0. -1.
         -2   -1    0    0    0  501 -0.00000000000E+00 -0.00000000000E+00 -0.66278445505E+02  0.66278445505E+02  0.00000000000E+00 0.  1.
         23    2    1    2    0    0  0.29251629360E+03  0.17735658598E+03  0.83141264764E+03  0.90769781188E+03  0.12508871417E+03 0.  0.
          5    1    3    3  502    0  0.10486206606E+03  0.49058540470E+02  0.44047615073E+03  0.45545527229E+03  0.41800000000E+01 0. -1.
         -5    1    3    3    0  502  0.18765422755E+03  0.12829804551E+03  0.39093649691E+03  0.45224253959E+03  0.41800000000E+01 0. -1.
        -11    1    1    2    0    0 -0.10581949345E+03 -0.58349393315E+02  0.24917593387E+03  0.27693151304E+03  0.00000000000E+00 0.  1.
         11    1    1    2    0    0 -0.18669680015E+03 -0.11900719267E+03  0.84522701112E+03  0.87374315873E+03  0.00000000000E+00 0. -1.
</event>
<event>
 7    1  0.1243146E-005  0.6383713E+02  0.7561462E-02  0.1382400E+00
         -1   -1    0    0    0  501 -0.00000000000E+00  0.00000000000E+00  0.48601802728E+02  0.48601802728E+02  0.00000000000E+00 0.  1.
          1   -1    0    0  501    0  0.00000000000E+00 -0.00000000000E+00 -0.36328518697E+03  0.36328518697E+03  0.00000000000E+00 0. -1.
         23    2    1    2    0    0  0.47208239811E+01 -0.34402405396E+02 -0.68501214909E+02  0.14678673911E+03  0.12509244045E+03 0.  0.
          5    1    3    3  502    0  0.67828730590E+01 -0.70227720680E+01 -0.10240789886E+03  0.10295716024E+03  0.41800000000E+01 0. -1.
         -5    1    3    3    0  502 -0.20620490779E+01 -0.27379633328E+02  0.33906683952E+02  0.43829578873E+02  0.41800000000E+01 0. -1.
        -11    1    1    2    0    0  0.46302194737E+00 -0.27328218480E+02 -0.31724323889E+02  0.41874558396E+02  0.00000000000E+00 0.  1.
         11    1    1    2    0    0 -0.51838459285E+01  0.61730623876E+02 -0.21445784544E+03  0.22322569219E+03  0.00000000000E+00 0. -1.
</event>
<event>
 7    1  0.1243146E-005  0.1590162E+03  0.7561462E-02  0.1189812E+00
          1   -1    0    0  501    0  0.00000000000E+00  0.00000000000E+00  0.13968649036E+04  0.13968649036E+04  0.00000000000E+00 0. -1.
         -1   -1    0    0    0  501 -0.00000000000E+00 -0.00000000000E+00 -0.19028644099E+02  0.19028644099E+02  0.00000000000E+00 0.  1.
         23    2    1    2    0    0 -0.91878975302E+02 -0.78233448265E+02  0.64999409406E+03  0.67283177394E+03  0.12509218676E+03 0.  0.
          5    1    3    3  502    0 -0.51017797453E+02 -0.10677610884E+03  0.52528346951E+03  0.53846462169E+03  0.41800000000E+01 0. -1.
         -5    1    3    3    0  502 -0.40861177849E+02  0.28542660579E+02  0.12471062455E+03  0.13436715225E+03  0.41800000000E+01 0. -1.
        -11    1    1    2    0    0  0.95797070412E+02  0.28826426655E+02  0.49227427177E+03  0.50233654079E+03  0.00000000000E+00 0.  1.
         11    1    1    2    0    0 -0.39180951096E+01  0.49407021610E+02  0.23556789368E+03  0.24072523297E+03  0.00000000000E+00 0. -1.
</event>
<event>
 7    1  0.1243146E-005  0.1232818E+03  0.7561462E-02  0.1237779E+00
         -1   -1    0    0    0  501 -0.00000000000E+00  0.00000000000E+00  0.70515006224E+02  0.70515006224E+02  0.00000000000E+00 0.  1.
          1   -1    0    0  501    0  0.00000000000E+00 -0.00000000000E+00 -0.23427243131E+03  0.23427243131E+03  0.00000000000E+00 0. -1.
         23    2    1    2    0    0  0.25693205029E+02  0.63382664658E+02 -0.77095339612E+02  0.16207929467E+03  0.12509397831E+03 0.  0.
          5    1    3    3  502    0  0.11289306958E+02 -0.37642814146E+02 -0.29965940525E+02  0.49596974705E+02  0.41800000000E+01 0.  1.
         -5    1    3    3    0  502  0.14403898071E+02  0.10102547880E+03 -0.47129399087E+02  0.11248231997E+03  0.41800000000E+01 0.  1.
        -11    1    1    2    0    0 -0.54463794992E+02 -0.46043124065E+02 -0.82192377741E+02  0.10882031611E+03  0.00000000000E+00 0. -1.
         11    1    1    2    0    0  0.28770589963E+02 -0.17339540593E+02 -0.44697077296E+01  0.33887826752E+02  0.00000000000E+00 0.  1.
</event>
<event>
 6    1  0.1243146E-005  0.1481163E+03  0.7561462E-02  0.1202807E+00
          2   -1    0    0  501    0  0.00000000000E+00  0.00000000000E+00  0.29731044881E+03  0.29731044881E+03  0.00000000000E+00 0. -1.
         -2   -1    0    0    0  501 -0.00000000000E+00 -0.00000000000E+00 -0.12053462960E+03  0.12053462960E+03  0.00000000000E+00 0.  1.
          5    1    1    2  502    0 -0.30857817757E+02  0.71619244968E+02  0.86484802646E+02  0.11652731291E+03  0.41800000000E+01 0. -1.
         -5    1    1    2    0  502  0.21873344385E+01 -0.11378164879E+03 -0.51754500648E+02  0.12508816399E+03  0.41800000000E+01 0.  1.
        -11    1    1    2    0    0  0.55841513665E+02  0.51060083938E+02  0.10548966852E+03  0.12982094201E+03  0.00000000000E+00 0.  1.
         11    1    1    2    0    0 -0.27171030347E+02 -0.88976801141E+01  0.36555848692E+02  0.46408659484E+02  0.00000000000E+00 0. -1.
</event>
<event>
 7    1  0.1243146E-005  0.1338462E+03  0.7561462E-02  0.1221858E+00
          1   -1    0    0  501    0  0.00000000000E+00  0.00000000000E+00  0.58359055484E+03  0.58359055484E+03  0.00000000000E+00 0. -1.
         -1   -1    0    0    0  501 -0.00000000000E+00 -0.00000000000E+00 -0.32147098967E+02  0.32147098967E+02  0.00000000000E+00 0.  1.
         23    2    1    2    0    0  0.17643512733E+00 -0.79857817565E+02  0.26120469288E+03  0.30042161420E+03  0.12509177647E+03 0.  0.
          5    1    3    3  502    0 -0.15185043242E+02 -0.11169267156E+03  0.20052239999E+03  0.23007073633E+03  0.41800000000E+01 0.  1.
         -5    1    3    3    0  502  0.15361478369E+02  0.31834853993E+02  0.60682292892E+02  0.70350877870E+02  0.41800000000E+01 0.  1.
        -11    1    1    2    0    0 -0.40374964563E+02  0.15150453309E+02  0.69389765534E+02  0.81698308182E+02  0.00000000000E+00 0.  1.
         11    1    1    2    0    0  0.40198529436E+02  0.64707364255E+02  0.22084899747E+03  0.23361773143E+03  0.00000000000E+00 0. -1.
</event>
<event>
 7    1  0.1243146E-005  0.1466979E+03  0.7561462E-02  0.1204590E+00
         -2   -1    0    0    0  501 -0.00000000000E+00  0.00000000000E+00  0.28582518929E+03  0.28582518929E+03  0.00000000000E+00 0.  1.
          2   -1    0    0  501    0  0.00000000000E+00 -0.00000000000E+00 -0.93635102745E+02  0.93635102745E+02  0.00000000000E+00 0. -1.
         23    2    1    2    0    0 -0.30351763275E+02  0.10397970479E+03  0.16418655872E+03  0.23310502358E+03  0.12509083664E+03 0.  0.
          5    1    3    3  502    0 -0.86997835395E+01 -0.29004909836E+02  0.33591854196E+02  0.45418675637E+02  0.41800000000E+01 0. -1.
         -5    1    3    3    0  502 -0.21651979736E+02  0.13298461463E+03  0.13059470452E+03  0.18768634794E+03  0.41800000000E+01 0. -1.
        -11    1    1    2    0    0 -0.17384033776E+02 -0.62219673713E+02  0.47292525583E+02  0.80062946506E+02  0.00000000000E+00 0.  1.
         11    1    1    2    0    0  0.47735797051E+02 -0.41760031076E+02 -0.19288997757E+02  0.66292321954E+02  0.00000000000E+00 0. -1.
</event>
<event>
 7    1  0.1243146E-005  0.1449529E+03  0.7561462E-02  0.1206816E+00
         -1   -1    0    0    0  501 -0.00000000000E+00  0.00000000000E+00  0.46746536782E+02  0.46746536782E+02  0.00000000000E+00 0.  1.
          1   -1    0    0  501    0  0.00000000000E+00 -0.00000000000E+00 -0.67372120441E+03  0.67372120441E+03  0.00000000000E+00 0. -1.
         23    2    1    2    0    0 -0.82893377550E+02  0.63695158280E+02 -0.14256248884E+03  0.21656465206E+03  0.12509116702E+03 0.  0.
          5    1    3    3  502    0 -0.96860687708E+02 -0.23082426119E+00 -0.76616737980E+02  0.12357039711E+03  0.41800000000E+01 0. -1.
         -5    1    3    3    0  502  0.13967310159E+02  0.63925982541E+02 -0.65945750862E+02  0.92994254950E+02  0.41800000000E+01 0. -1.
        -11    1    1    2    0    0 -0.13448582959E+02 -0.39205367593E+01 -0.13217575685E+02  0.19259784503E+02  0.00000000000E+00 0. -1.
         11    1    1    2    0    0  0.96341960509E+02 -0.59774621520E+02 -0.47119460310E+03  0.48464330463E+03  0.00000000000E+00 0.  1.
</event>
<event>
 7    1  0.1243146E-005  0.1420824E+03  0.7561462E-02  0.1210554E+00
          2   -1    0    0  501    0  0.00000000000E+00  0.00000000000E+00  0.49327351154E+03  0.49327351154E+03  0.00000000000E+00 0. -1.
         -2   -1    0    0    0  501 -0.00000000000E+00 -0.00000000000E+00 -0.56699965449E+02  0.56699965449E+02  0.00000000000E+00 0.  1.
         23    2    1    2    0    0 -0.96407356683E+02 -0.62207390627E+02  0.14256076018E+03  0.22167076953E+03  0.12510084672E+03 0.  0.
          5    1    3    3  502    0  0.19418130801E+02 -0.38692712521E+02  0.11188544373E+02  0.44909305620E+02  0.41800000000E+01 0.  1.
         -5    1    3    3    0  502 -0.11582548748E+03 -0.23514678105E+02  0.13137221580E+03  0.17676146391E+03  0.41800000000E+01 0.  1.
        -11    1    1    2    0    0  0.27967767847E+02  0.43053544693E+02  0.41608641857E+02  0.66083907467E+02  0.00000000000E+00 0.  1.
         11    1    1    2    0    0  0.68439588836E+02  0.19153845934E+02  0.25240414406E+03  0.26221880000E+03  0.00000000000E+00 0. -1.
</event>
<event>
 6    1  0.1243146E-005  0.3955155E+03  0.7561462E-02  0.1045344E+00
          2   -1    0    0  501    0  0.00000000000E+00  0.00000000000E+00  0.15283773103E+03  0.15283773103E+03  0.00000000000E+00 0. -1.
         -2   -1    0    0    0  501 -0.00000000000E+00 -0.00000000000E+00 -0.11388452794E+04  0.11388452794E+04  0.00000000000E+00 0.  1.
          5    1    1    2  502    0  0.13468001496E+03  0.35917767217E+02 -0.20164402745E+03  0.24516643049E+03  0.41800000000E+01 0. -1.
         -5    1    1    2    0  502  0.15893376691E+03  0.20650077937E+03 -0.49281091860E+03  0.55747877811E+03  0.41800000000E+01 0.  1.
        -11    1    1    2    0    0  0.50800596855E+01 -0.14151845261E+02 -0.21192068335E+02  0.25984331644E+02  0.00000000000E+00 0.  1.
         11    1    1    2    0    0 -0.29869384155E+03 -0.22826670133E+03 -0.27036053398E+03  0.46305347018E+03  0.00000000000E+00 0. -1.
</event>
<event>
 7    1  0.1243146E-005  0.8846601E+02  0.7561462E-02  0.1306610E+00
         -2   -1    0    0    0  501 -0.00000000000E+00  0.00000000000E+00  0.20044981276E+03  0.20044981276E+03  0.00000000000E+00 0.  1.
          2   -1    0    0  501    0  0.00000000000E+00 -0.00000000000E+00 -0.92258468649E+02  0.92258468649E+02  0.00000000000E+00 0. -1.
         23    2    1    2    0    0  0.27766336968E+02  0.69735013022E+02  0.91570824871E+02  0.17224161322E+03  0.12509202951E+03 0.  0.
          5    1    3    3  502    0  0.38345991795E+02  0.60058428598E+02  0.12028883446E+03  0.13987246344E+03  0.41800000000E+01 0. -1.
         -5    1    3    3    0  502 -0.10579654827E+02  0.96765844234E+01 -0.28718009592E+02  0.32369149777E+02  0.41800000000E+01 0. -1.
        -11    1    1    2    0    0 -0.29204269107E+01 -0.65318314322E+02  0.47331701110E+02  0.80717414535E+02  0.00000000000E+00 0. -1.
         11    1    1    2    0    0 -0.24845910057E+02 -0.44166986996E+01 -0.30711181873E+02  0.39749253653E+02  0.00000000000E+00 0.  1.
</event>
<event>
 7    1  0.1243146E-005  0.1024417E+03  0.7561462E-02  0.1275244E+00
          2   -1    0    0  501    0  0.00000000000E+00  0.00000000000E+00  0.22382824473E+03  0.22382824473E+03  0.00000000000E+00 0. -1.
         -2   -1    0    0    0  501 -0.00000000000E+00 -0.00000000000E+00 -0.68221836673E+02  0.68221836673E+02  0.00000000000E+00 0.  1.
         23    2    1    2    0    0  0.24319219987E+02 -0.47847760728E+02  0.59948190904E+02  0.14873668378E+03  0.12509189759E+03 0.  0.
          5    1    3    3  502    0  0.45171999718E+02  0.18302921353E+02  0.62301454140E+02  0.79211426426E+02  0.41800000000E+01 0.  1.
         -5    1    3    3    0  502 -0.20852779731E+02 -0.66150682081E+02 -0.23532632362E+01  0.69525257354E+02  0.41800000000E+01 0.  1.
        -11    1    1    2    0    0  0.31235871855E+01 -0.16358868914E+02 -0.78846653595E+01  0.18426538928E+02  0.00000000000E+00 0.  1.
         11    1    1    2    0    0 -0.27442807172E+02  0.64206629642E+02  0.10354288251E+03  0.12488685869E+03  0.00000000000E+00 0. -1.
</event>
<event>
 7    1  0.1243146E-005  0.1157551E+03  0.7561462E-02  0.1250269E+00
         -1   -1    0    0    0  501 -0.00000000000E+00  0.00000000000E+00  0.15692376324E+03  0.15692376324E+03  0.00000000000E+00 0.  1.
          1   -1    0    0  501    0  0.00000000000E+00 -0.00000000000E+00 -0.15775203337E+03  0.15775203337E+03  0.00000000000E+00 0. -1.
         23    2    1    2    0    0 -0.48736810655E+02  0.86683047912E+02  0.54965207947E+02  0.16899191604E+03  0.12509143094E+03 0.  0.
          5    1    3    3  502    0  0.83036890896E+01  0.20891669800E+02 -0.36223576494E+02  0.42837285319E+02  0.41800000000E+01 0.  1.
         -5    1    3    3    0  502 -0.57040499745E+02  0.65791378112E+02  0.91188784441E+02  0.12615463072E+03  0.41800000000E+01 0.  1.
        -11    1    1    2    0    0  0.58156173374E+02 -0.32800683011E+02  0.10769156813E+01  0.66777129729E+02  0.00000000000E+00 0.  1.
         11    1    1    2    0    0 -0.94193627185E+01 -0.53882364901E+02 -0.56870393756E+02  0.78906750834E+02  0.00000000000E+00 0. -1.
</event>
<event>
 7    1  0.1243146E-005  0.1064167E+03  0.7561462E-02  0.1267353E+00
          2   -1    0    0  501    0  0.00000000000E+00  0.00000000000E+00  0.28084544669E+03  0.28084544669E+03  0.00000000000E+00 0. -1.
         -2   -1    0    0    0  501 -0.00000000000E+00 -0.00000000000E+00 -0.81229279554E+02  0.81229279554E+02  0.00000000000E+00 0.  1.
         23    2    1    2    0    0 -0.59397112003E+02  0.36315993007E+02  0.12276567758E+02  0.14368551268E+03  0.12509174304E+03 0.  0.
          5    1    3    3  502    0  0.54045058023E+01 -0.27262013841E+02  0.39806847698E+02  0.48728673338E+02  0.41800000000E+01 0.  1.
         -5    1    3    3    0  502 -0.64801617805E+02  0.63578006848E+02 -0.27530279941E+02  0.94956839345E+02  0.41800000000E+01 0.  1.
        -11    1    1    2    0    0  0.72330626005E+02 -0.24601740282E+02  0.83839900204E+02  0.11342880564E+03  0.00000000000E+00 0.  1.
         11    1    1    2    0    0 -0.12933514003E+02 -0.11714252725E+02  0.10349969917E+03  0.10496040792E+03  0.00000000000E+00 0. -1.
</event>
<event>
 7    1  0.1243146E-005  0.9134098E+02  0.7561462E-02  0.1299636E+00
          2   -1    0    0  501    0  0.00000000000E+00  0.00000000000E+00  0.19630453524E+03  0.19630453524E+03  0.00000000000E+00 0. -1.
         -2   -1    0    0    0  501 -0.00000000000E+00 -0.00000000000E+00 -0.93112733719E+02  0.93112733719E+02  0.00000000000E+00 0.  1.
         23    2    1    2    0    0 -0.75304343991E+02  0.29031884500E+02  0.50753093470E+02  0.15728371967E+03  0.12509475383E+03 0.  0.
          5    1    3    3  502    0 -0.27267920003E+02  0.42090510389E+02 -0.32704046137E+02  0.60018143589E+02  0.41800000000E+01 0. -1.
         -5    1    3    3    0  502 -0.48036423988E+02 -0.13058625889E+02  0.83457139607E+02  0.97265576084E+02  0.41800000000E+01 0. -1.
        -11    1    1    2    0    0  0.56280342057E+02 -0.13585958647E+02 -0.15478932369E+02  0.59930397310E+02  0.00000000000E+00 0.  1.
         11    1    1    2    0    0  0.19024001934E+02 -0.15445925853E+02  0.67917640423E+02  0.72203151979E+02  0.00000000000E+00 0. -1.
</event>
<event>
 7    1  0.1243146E-005  0.1379874E+03  0.7561462E-02  0.1216063E+00
          1   -1    0    0  501    0  0.00000000000E+00  0.00000000000E+00  0.55805108355E+03  0.55805108355E+03  0.00000000000E+00 0. -1.
         -1   -1    0    0    0  501 -0.00000000000E+00 -0.00000000000E+00 -0.42072836473E+02  0.42072836473E+02  0.00000000000E+00 0.  1.
         23    2    1    2    0    0  0.99577138520E+02  0.32731684604E+02  0.23740591659E+03  0.28808946058E+03  0.12508796255E+03 0.  0.
          5    1    3    3  502    0  0.87650191647E+02 -0.34188638017E+02  0.15264536707E+03  0.17935857814E+03  0.41800000000E+01 0. -1.
         -5    1    3    3    0  502  0.11926946873E+02  0.66920322621E+02  0.84760549519E+02  0.10873088244E+03  0.41800000000E+01 0. -1.
        -11    1    1    2    0    0 -0.29192302036E+02  0.10583534932E+02  0.12587555174E+02  0.33505943579E+02  0.00000000000E+00 0.  1.
         11    1    1    2    0    0 -0.70384836483E+02 -0.43315219536E+02  0.26598477531E+03  0.27852851586E+03  0.00000000000E+00 0. -1.
</event>
<event>
 7    1  0.1243146E-005  0.9659472E+02  0.7561462E-02  0.1287624E+00
         -1   -1    0    0    0  501 -0.00000000000E+00  0.00000000000E+00  0.11745992516E+03  0.11745992516E+03  0.00000000000E+00 0.  1.
          1   -1    0    0  501    0  0.00000000000E+00 -0.00000000000E+00 -0.13376547515E+03  0.13376547515E+03  0.00000000000E+00 0. -1.
         23    2    1    2    0    0  0.21677924516E+02  0.55967794553E+02  0.12909175673E+02  0.13934280272E+03  0.12508974144E+03 0.  0.
          5    1    3    3  502    0  0.51310571524E+02  0.48182239095E+02 -0.37758778524E+02  0.79984377662E+02  0.41800000000E+01 0. -1.
         -5    1    3    3    0  502 -0.29632647008E+02  0.77855554578E+01  0.50667954197E+02  0.59358425054E+02  0.41800000000E+01 0. -1.
        -11    1    1    2    0    0  0.25511321764E+02 -0.18909662492E+02 -0.39840708789E+02  0.50947865024E+02  0.00000000000E+00 0.  1.
         11    1    1    2    0    0 -0.47189246280E+02 -0.37058132061E+02  0.10625983117E+02  0.60934732571E+02  0.00000000000E+00 0. -1.
</event>
<event>
 7    1  0.1243146E-005  0.8305695E+02  0.7561462E-02  0.1320593E+00
          2   -1    0    0  501    0  0.00000000000E+00  0.00000000000E+00  0.42338259543E+03  0.42338259543E+03  0.00000000000E+00 0. -1.
         -2   -1    0    0    0  501 -0.00000000000E+00 -0.00000000000E+00 -0.35956418706E+02  0.35956418706E+02  0.00000000000E+00 0.  1.
         23    2    1    2    0    0 -0.83430333478E-01 -0.51542020657E+02  0.16538889393E+03  0.21367544047E+03  0.12508845179E+03 0.  0.
          5    1    3    3  502    0  0.17387608960E+02  0.97530546415E+01 -0.13021398007E+02  0.24176025858E+02  0.41800000000E+01 0.  1.
         -5    1    3    3    0  502 -0.17471039294E+02 -0.61295075299E+02  0.17841029194E+03  0.18949941461E+03  0.41800000000E+01 0.  1.
        -11    1    1    2    0    0  0.29446537615E+02  0.41403150442E+02  0.20292975617E+03  0.20919322499E+03  0.00000000000E+00 0.  1.
         11    1    1    2    0    0 -0.29363107282E+02  0.10138870215E+02  0.19107526623E+02  0.36470348670E+02  0.00000000000E+00 0. -1.
</event>
<event>
 7    1  0.1243146E-005  0.1687935E+03  0.7561462E-02  0.1179112E+00
         -2   -1    0    0    0  501 -0.00000000000E+00  0.00000000000E+00  0.40986817736E+02  0.40986817736E+02  0.00000000000E+00 0.  1.
          2   -1    0    0  501    0  0.00000000000E+00 -0.00000000000E+00 -0.86789276777E+03  0.86789276777E+03  0.00000000000E+00 0. -1.
         23    2    1    2    0    0  0.10938832591E+03 -0.10720701282E+03 -0.40110463259E+03  0.44720458292E+03  0.12509141958E+03 0.  0.
          5    1    3    3  502    0 -0.19597428933E+02 -0.17091332629E+02 -0.15141421481E+02  0.30379399538E+02  0.41800000000E+01 0. -1.
         -5    1    3    3    0  502  0.12898575484E+03 -0.90115680192E+02 -0.38596321111E+03  0.41682518338E+03  0.41800000000E+01 0. -1.
        -11    1    1    2    0    0 -0.57506313467E+02  0.46227527751E+02 -0.89588318751E+02  0.11606044661E+03  0.00000000000E+00 0.  1.
         11    1    1    2    0    0 -0.51882012444E+02  0.60979485070E+02 -0.33621299869E+03  0.34561455597E+03  0.00000000000E+00 0. -1.
</event>
<event>
 7    1  0.1243146E-005  0.1225191E+03  0.7561462E-02  0.1238998E+00
          2   -1    0    0  501    0  0.00000000000E+00  0.00000000000E+00  0.69369905622E+03  0.69369905622E+03  0.00000000000E+00 0. -1.
         -2   -1    0    0    0  501 -0.00000000000E+00 -0.00000000000E+00 -0.29277136107E+02  0.29277136107E+02  0.00000000000E+00 0.  1.
         23    2    1    2    0    0  0.37839369715E+02 -0.77786652740E+02  0.30952289983E+03  0.34487500313E+03  0.12510699828E+03 0.  0.
          5    1    3    3  502    0 -0.54834335657E+01 -0.10091996700E+03  0.23080642830E+03  0.25199997525E+03  0.41800000000E+01 0.  1.
         -5    1    3    3    0  502  0.43322803280E+02  0.23133314259E+02  0.78716471529E+02  0.92875027875E+02  0.41800000000E+01 0.  1.
        -11    1    1    2    0    0  0.76872425477E+01  0.16914371051E+02  0.39241947225E+01  0.18989179820E+02  0.00000000000E+00 0.  1.
         11    1    1    2    0    0 -0.45526612262E+02  0.60872281690E+02  0.35097482556E+03  0.35911200938E+03  0.00000000000E+00 0. -1.
</event>
<event>
 7    1  0.1243146E-005  0.1286204E+03  0.7561462E-02  0.1229517E+00
         -1   -1    0    0    0  501 -0.00000000000E+00  0.00000000000E+00  0.74915663502E+02  0.74915663502E+02  0.00000000000E+00 0.  1.
          1   -1    0    0  501    0  0.00000000000E+00 -0.00000000000E+00 -0.30653346274E+03  0.30653346274E+03  0.00000000000E+00 0. -1.
         23    2    1    2    0    0  0.91409679684E+02 -0.43588096091E+02 -0.86753118349E+02  0.18283662214E+03  0.12508986846E+03 0.  0.
          5    1    3    3  502    0 -0.67244916474E+01  0.24032852368E+02 -0.53272471555E+02  0.58976481808E+02  0.41800000000E+01 0.  1.
         -5    1    3    3    0  502  0.98134171331E+02 -0.67620948459E+02 -0.33480646794E+02  0.12386014033E+03  0.41800000000E+01 0.  1.
        -11    1    1    2    0    0 -0.52737073566E+02  0.50941070391E+02 -0.14116762830E+03  0.15907385348E+03  0.00000000000E+00 0. -1.
         11    1    1    2    0    0 -0.38672606118E+02 -0.73529742995E+01 -0.36970525849E+01  0.39538650619E+02  0.00000000000E+00 0.  1.
</event>
<event>
 7    1  0.1243146E-005  0.1312304E+03  0.7561462E-02  0.1225641E+00
         -1   -1    0    0    0  501 -0.00000000000E+00  0.00000000000E+00  0.24035857930E+03  0.24035857930E+03  0.00000000000E+00 0.  1.
          1   -1    0    0  501    0  0.00000000000E+00 -0.00000000000E+00 -0.12338640745E+03  0.12338640745E+03  0.00000000000E+00 0. -1.
         23    2    1    2    0    0 -0.64105762855E+02 -0.89033642572E+02  0.14595528226E+03  0.22133100463E+03  0.12509168976E+03 0.  0.
          5    1    3    3  502    0 -0.29059885769E+02  0.12444348492E+02  0.99125555736E+02  0.10412822370E+03  0.41800000000E+01 0.  1.
         -5    1    3    3    0  502 -0.35045877086E+02 -0.10147799106E+03  0.46829726524E+02  0.11720278093E+03  0.41800000000E+01 0.  1.
        -11    1    1    2    0    0 -0.31238984483E+01  0.39506269201E+02  0.21248359129E+02  0.44966618878E+02  0.00000000000E+00 0.  1.
         11    1    1    2    0    0  0.67229661303E+02  0.49527373371E+02 -0.50231469532E+02  0.97447363245E+02  0.00000000000E+00 0. -1.
</event>
<event>
 7    1  0.1243146E-005  0.1131159E+03  0.7561462E-02  0.1254906E+00
          2   -1    0    0  501    0  0.00000000000E+00  0.00000000000E+00  0.43984680142E+03  0.43984680142E+03  0.00000000000E+00 0. -1.
         -2   -1    0    0    0  501 -0.00000000000E+00 -0.00000000000E+00 -0.63815195171E+02  0.63815195171E+02  0.00000000000E+00 0.  1.
         23    2    1    2    0    0 -0.61840007495E+02  0.65824249858E+02  0.64716386428E+02  0.16731077824E+03  0.12509063693E+03 0.  0.
          5    1    3    3  502    0 -0.47098583161E+02  0.18289090616E+02 -0.30945723132E+02  0.59395938847E+02  0.41800000000E+01 0. -1.
         -5    1    3    3    0  502 -0.14741424334E+02  0.47535159243E+02  0.95662109560E+02  0.10791483939E+03  0.41800000000E+01 0. -1.
        -11    1    1    2    0    0  0.20583889361E+02  0.21035437891E+02  0.98855593735E+02  0.10314365982E+03  0.00000000000E+00 0.  1.
         11    1    1    2    0    0  0.41256118135E+02 -0.86859687749E+02  0.21245962608E+03  0.23320755853E+03  0.00000000000E+00 0. -1.
</event>
<event>
 7    1  0.1243146E-005  0.1011911E+03  0.7561462E-02  0.1277811E+00
         -2   -1    0    0    0  501 -0.00000000000E+00  0.00000000000E+00  0.28376403083E+02  0.28376403083E+02  0.00000000000E+00 0.  1.
          2   -1    0    0  501    0  0.00000000000E+00 -0.00000000000E+00 -0.61190116930E+03  0.61190116930E+03  0.00000000000E+00 0. -1.
         23    2    1    2    0    0 -0.36435801966E+02  0.63547161611E+02 -0.28642245300E+03  0.32101604676E+03  0.12509065226E+03 0.  0.
          5    1    3    3  502    0 -0.36930602698E+02  0.20302032533E+02 -0.27193793314E+03  0.27521583134E+03  0.41800000000E+01 0. -1.
         -5    1    3    3    0  502  0.49480073235E+00  0.43245129078E+02 -0.14484519858E+02  0.45800215417E+02  0.41800000000E+01 0. -1.
        -11    1    1    2    0    0  0.54105483815E+02 -0.37562672634E+01 -0.12714826665E+03  0.13823239358E+03  0.00000000000E+00 0.  1.
         11    1    1    2    0    0 -0.17669681849E+02 -0.59790894348E+02 -0.16995404657E+03  0.18102913204E+03  0.00000000000E+00 0. -1.
</event>
<event>
 7    1  0.1243146E-005  0.1197503E+03  0.7561462E-02  0.1243510E+00
         -1   -1    0    0    0  501 -0.00000000000E+00  0.00000000000E+00  0.82919215269E+02  0.82919215269E+02  0.00000000000E+00 0.  1.
          1   -1    0    0  501    0  0.00000000000E+00 -0.00000000000E+00 -0.30426785340E+03  0.30426785340E+03  0.00000000000E+00 0. -1.
         23    2    1    2    0    0  0.11023093253E+03  0.81085825240E+01 -0.15974772662E+03  0.23104959938E+03  0.12509186071E+03 0.  0.
          5    1    3    3  502    0  0.87696076604E+02 -0.22523413827E+02 -0.16892633682E+03  0.19170677008E+03  0.41800000000E+01 0. -1.
         -5    1    3    3    0  502  0.22534855927E+02  0.30631996351E+02  0.91786102021E+01  0.39342829301E+02  0.41800000000E+01 0. -1.
        -11    1    1    2    0    0 -0.15933162195E+02  0.27031158239E+00 -0.59338655283E+02  0.61441148562E+02  0.00000000000E+00 0. -1.
         11    1    1    2    0    0 -0.94297770336E+02 -0.83788941064E+01 -0.22622562329E+01  0.94696320732E+02  0.00000000000E+00 0.  1.
</event>
<event>
 7    1  0.1243146E-005  0.1809285E+03  0.7561462E-02  0.1166907E+00
          1   -1    0    0  501    0  0.00000000000E+00  0.00000000000E+00  0.21866337501E+03  0.21866337501E+03  0.00000000000E+00 0. -1.
         -1   -1    0    0    0  501 -0.00000000000E+00 -0.00000000000E+00 -0.16386857223E+03  0.16386857223E+03  0.00000000000E+00 0.  1.
         23    2    1    2    0    0 -0.12241640217E+03 -0.90943185236E+02  0.32962200409E+01  0.19726751534E+03  0.12508864489E+03 0.  0.
          5    1    3    3  502    0 -0.14084863584E+03 -0.84023574693E+02  0.26896289766E+02  0.16625035977E+03  0.41800000000E+01 0.  1.
         -5    1    3    3    0  502  0.18432233670E+02 -0.69196105430E+01 -0.23600069726E+02  0.31017155563E+02  0.41800000000E+01 0.  1.
        -11    1    1    2    0    0  0.11569269709E+03  0.34358518965E+02  0.29986951157E+02  0.12435644424E+03  0.00000000000E+00 0.  1.
         11    1    1    2    0    0  0.67237050812E+01  0.56584666271E+02  0.21511631580E+02  0.60907987655E+02  0.00000000000E+00 0. -1.
</event>
<event>
 7    1  0.1243146E-005  0.1355739E+03  0.7561462E-02  0.1219412E+00
         -2   -1    0    0    0  501 -0.00000000000E+00  0.00000000000E+00  0.65540376520E+03  0.65540376520E+03  0.00000000000E+00 0.  1.
          2   -1    0    0  501    0  0.00000000000E+00 -0.00000000000E+00 -0.37031439559E+02  0.37031439559E+02  0.00000000000E+00 0. -1.
         23    2    1    2    0    0 -0.46625232163E+02 -0.93599959438E+02  0.24442969888E+03  0.29381681796E+03  0.12509028796E+03 0.  0.
          5    1    3    3  502    0 -0.97633611650E+01  0.17174499402E+02 -0.27903459660E+01  0.20384922898E+02  0.41800000000E+01 0.  1.
         -5    1    3    3    0  502 -0.36861870998E+02 -0.11077445884E+03  0.24722004484E+03  0.27343189506E+03  0.41800000000E+01 0.  1.
        -11    1    1    2    0    0  0.71226491771E+02  0.73672822367E+02  0.32070138415E+03  0.33667532681E+03  0.00000000000E+00 0.  1.
         11    1    1    2    0    0 -0.24601259608E+02  0.19927137071E+02  0.53241242615E+02  0.61943059994E+02  0.00000000000E+00 0. -1.
</event>
<event>
 7    1  0.1243146E-005  0.1733587E+03  0.7561462E-02  0.1174390E+00
          4   -1    0    0  501    0  0.00000000000E+00  0.00000000000E+00  0.77241278121E+03  0.77241278121E+03  0.00000000000E+00 0.  1.
         -4   -1    0    0    0  501 -0.00000000000E+00 -0.00000000000E+00 -0.54191688102E+02  0.54191688102E+02  0.00000000000E+00 0. -1.
         23    2    1    2    0    0  0.67700661448E+02 -0.15920937780E+03  0.38288963015E+03  0.43838698830E+03  0.12509067547E+03 0.  0.
          5    1    3    3  502    0  0.44967157784E+02 -0.95125293959E+02  0.34440452098E+03  0.36014276794E+03  0.41800000000E+01 0. -1.
         -5    1    3    3    0  502  0.22733503664E+02 -0.64084083840E+02  0.38485109171E+02  0.78244220351E+02  0.41800000000E+01 0. -1.
        -11    1    1    2    0    0 -0.14818800588E+02  0.25335881983E+02  0.76746153070E+01  0.30338152330E+02  0.00000000000E+00 0. -1.
         11    1    1    2    0    0 -0.52881860860E+02  0.13387349582E+03  0.32765684764E+03  0.35787932868E+03  0.00000000000E+00 0.  1.
</event>
<event>
 6    1  0.1243146E-005  0.1512488E+03  0.7561462E-02  0.1198947E+00
          4   -1    0    0  501    0  0.00000000000E+00  0.00000000000E+00  0.16976965620E+03  0.16976965620E+03  0.00000000000E+00 0. -1.
         -4   -1    0    0    0  501 -0.00000000000E+00 -0.00000000000E+00 -0.19803066984E+03  0.19803066984E+03  0.00000000000E+00 0.  1.
          5    1    1    2  502    0 -0.37629541034E+02  0.33338226861E+02 -0.16996495582E+02  0.53233194444E+02  0.41800000000E+01 0. -1.
         -5    1    1    2    0  502  0.14086904144E+01 -0.13956642362E+03 -0.73036697047E+02  0.15758363660E+03  0.41800000000E+01 0.  1.
        -11    1    1    2    0    0  0.28103645201E+02  0.89723051233E+02  0.15704025855E+01  0.94034605122E+02  0.00000000000E+00 0. -1.
         11    1    1    2    0    0  0.81172054182E+01  0.16505145523E+02  0.60201776408E+02  0.62948889865E+02  0.00000000000E+00 0.  1.
</event>
<event>
 7    1  0.1243146E-005  0.1942573E+03  0.7561462E-02  0.1154677E+00
         -2   -1    0    0    0  501 -0.00000000000E+00  0.00000000000E+00  0.12824505646E+03  0.12824505646E+03  0.00000000000E+00 0.  1.
          2   -1    0    0  501    0  0.00000000000E+00 -0.00000000000E+00 -0.43609919175E+03  0.43609919175E+03  0.00000000000E+00 0. -1.
         23    2    1    2    0    0  0.15283074385E+03  0.53175184210E+02  0.13624296627E+00  0.20452942244E+03  0.12508968623E+03 0.  0.
          5    1    3    3  502    0  0.15601313467E+03  0.80521036360E+02 -0.70948912739E+01  0.17575990831E+03  0.41800000000E+01 0. -1.
         -5    1    3    3    0  502 -0.31823908193E+01 -0.27345852150E+02  0.72311342402E+01  0.28769514135E+02  0.41800000000E+01 0. -1.
        -11    1    1    2    0    0 -0.95677505566E+02 -0.77313590092E+02 -0.22163824086E+03  0.25348586962E+03  0.00000000000E+00 0.  1.
         11    1    1    2    0    0 -0.57153238284E+02  0.24138405882E+02 -0.86352137395E+02  0.10632895616E+03  0.00000000000E+00 0. -1.
</event>
<event>
 7    1  0.1243146E-005  0.1982836E+03  0.7561462E-02  0.1151195E+00
          1   -1    0    0  501    0  0.00000000000E+00  0.00000000000E+00  0.11514443319E+03  0.11514443319E+03  0.00000000000E+00 0. -1.
         -1   -1    0    0    0  501 -0.00000000000E+00 -0.00000000000E+00 -0.46477885057E+03  0.46477885057E+03  0.00000000000E+00 0.  1.
         23    2    1    2    0    0  0.18396852030E+03  0.55986270546E+02 -0.26956929823E+03  0.35396848752E+03  0.12508878711E+03 0.  0.
          5    1    3    3  502    0  0.14935936700E+03  0.41923318079E+02 -0.11047606218E+03  0.19049466613E+03  0.41800000000E+01 0. -1.
         -5    1    3    3    0  502  0.34609153300E+02  0.14062952466E+02 -0.15909323605E+03  0.16347382139E+03  0.41800000000E+01 0. -1.
        -11    1    1    2    0    0 -0.58206296538E+02 -0.51861911800E+02 -0.60352243740E+02  0.98590182963E+02  0.00000000000E+00 0.  1.
         11    1    1    2    0    0 -0.12576222376E+03 -0.41243587456E+01 -0.19712875404E+02  0.12736461328E+03  0.00000000000E+00 0. -1.
</event>
<event>
 7    1  0.1243146E-005  0.1373166E+03  0.7561462E-02  0.1216986E+00
          2   -1    0    0  501    0  0.00000000000E+00  0.00000000000E+00  0.27163350832E+03  0.27163350832E+03  0.00000000000E+00 0. -1.
         -2   -1    0    0    0  501 -0.00000000000E+00 -0.00000000000E+00 -0.87285218014E+02  0.87285218014E+02  0.00000000000E+00 0.  1.
         23    2    1    2    0    0 -0.43030049394E+02 -0.80158144898E+02  0.84223123927E+02  0.17611365805E+03  0.12508226335E+03 0.  0.
          5    1    3    3  502    0  0.17437804514E+02  0.10490366653E+02  0.61245758873E+02  0.64673334526E+02  0.41800000000E+01 0. -1.
         -5    1    3    3    0  502 -0.60467853908E+02 -0.90648511551E+02  0.22977365054E+02  0.11144032353E+03  0.41800000000E+01 0. -1.
        -11    1    1    2    0    0  0.79048600726E+02  0.33462415910E+02  0.87342017760E+02  0.12246241310E+03  0.00000000000E+00 0.  1.
         11    1    1    2    0    0 -0.36018551332E+02  0.46695728988E+02  0.12783148617E+02  0.60342655182E+02  0.00000000000E+00 0. -1.
</event>
<event>
 7    1  0.1243146E-005  0.1313090E+03  0.7561462E-02  0.1225526E+00
          2   -1    0    0  501    0  0.00000000000E+00  0.00000000000E+00  0.12746006765E+04  0.12746006765E+04  0.00000000000E+00 0. -1.
         -2   -1    0    0    0  501 -0.00000000000E+00 -0.00000000000E+00 -0.18717416925E+02  0.18717416925E+02  0.00000000000E+00 0.  1.
         23    2    1    2    0    0  0.36543681158E+02  0.10400868236E+03  0.70429801896E+03  0.72376705895E+03  0.12509919851E+03 0.  0.
          5    1    3    3  502    0  0.45964335430E+02  0.60187780619E+02  0.15434047433E+03  0.17197018196E+03  0.41800000000E+01 0.  1.
         -5    1    3    3    0  502 -0.94206542715E+01  0.43820901744E+02  0.54995754463E+03  0.55179687699E+03  0.41800000000E+01 0.  1.
        -11    1    1    2    0    0 -0.19545875874E+02 -0.11808073660E+03  0.45520089369E+03  0.47067287497E+03  0.00000000000E+00 0.  1.
         11    1    1    2    0    0 -0.16997805284E+02  0.14072054234E+02  0.96384346961E+02  0.98878159540E+02  0.00000000000E+00 0. -1.
</event>
<event>
 7    1  0.1243146E-005  0.7269753E+02  0.7561462E-02  0.1351153E+00
         -3   -1    0    0    0  501 -0.00000000000E+00  0.00000000000E+00  0.26559953329E+03  0.26559953329E+03  0.00000000000E+00 0.  1.
          3   -1    0    0  501    0  0.00000000000E+00 -0.00000000000E+00 -0.10210113742E+03  0.10210113742E+03  0.00000000000E+00 0. -1.
         23    2    1    2    0    0 -0.46830821969E+02 -0.15671953716E+02  0.21510193855E+03  0.25368926351E+03  0.12510260761E+03 0.  0.
          5    1    3    3  502    0 -0.55004288981E+02  0.12845104264E+02  0.21641339932E+03  0.22370225819E+03  0.41800000000E+01 0.  1.
         -5    1    3    3    0  502  0.81734670117E+01 -0.28517057980E+02 -0.13114607710E+01  0.29987005322E+02  0.41800000000E+01 0.  1.
        -11    1    1    2    0    0  0.30508278207E+02  0.25485499887E+02  0.16688408564E+02  0.43113440179E+02  0.00000000000E+00 0.  1.
         11    1    1    2    0    0  0.16322543762E+02 -0.98135461707E+01 -0.68291951249E+02  0.70897967028E+02  0.00000000000E+00 0. -1.
</event>
<event>
 7    1  0.1243146E-005  0.1627476E+03  0.7561462E-02  0.1185629E+00
          1   -1    0    0  501    0  0.00000000000E+00  0.00000000000E+00  0.33612215629E+02  0.33612215629E+02  0.00000000000E+00 0. -1.
         -1   -1    0    0    0  501 -0.00000000000E+00 -0.00000000000E+00 -0.89916624975E+03  0.89916624975E+03  0.00000000000E+00 0.  1.
         23    2    1    2    0    0 -0.97099622273E+02 -0.73938580450E+02 -0.61690133718E+03  0.64118069767E+03  0.12510066715E+03 0.  0.
          5    1    3    3  502    0 -0.12754095332E+03 -0.58406944879E+02 -0.49669837530E+03  0.51614417986E+03  0.41800000000E+01 0. -1.
         -5    1    3    3    0  502  0.30441331042E+02 -0.15531635570E+02 -0.12020296189E+03  0.12503651781E+03  0.41800000000E+01 0. -1.
        -11    1    1    2    0    0 -0.17118659815E+02  0.10153531515E+02 -0.49157524938E+02  0.53033998285E+02  0.00000000000E+00 0.  1.
         11    1    1    2    0    0  0.11421828209E+03  0.63785048934E+02 -0.19949517200E+03  0.23856376942E+03  0.00000000000E+00 0. -1.
</event>
<event>
 7    1  0.1243146E-005  0.2998891E+03  0.7561462E-02  0.1085296E+00
          2   -1    0    0  501    0  0.00000000000E+00  0.00000000000E+00  0.62445201813E+03  0.62445201813E+03  0.00000000000E+00 0. -1.
         -2   -1    0    0    0  501 -0.00000000000E+00 -0.00000000000E+00 -0.14977097853E+03  0.14977097853E+03  0.00000000000E+00 0.  1.
         23    2    1    2    0    0  0.17386557088E+03  0.22576274126E+03  0.22029899679E+03  0.38128381614E+03  0.12509056072E+03 0.  0.
          5    1    3    3  502    0  0.10621037288E+03  0.40919781151E+02  0.90401727527E+02  0.14541326121E+03  0.41800000000E+01 0.  1.
         -5    1    3    3    0  502  0.67655198005E+02  0.18484296011E+03  0.12989726927E+03  0.23587055493E+03  0.41800000000E+01 0.  1.
        -11    1    1    2    0    0 -0.18443316012E+02 -0.55424574678E+02  0.14467221743E+02  0.60177569647E+02  0.00000000000E+00 0.  1.
         11    1    1    2    0    0 -0.15542225487E+03 -0.17033816658E+03  0.23991482107E+03  0.33276161088E+03  0.00000000000E+00 0. -1.
</event>
<event>
 7    1  0.1243146E-005  0.1497789E+03  0.7561462E-02  0.1200745E+00
         -2   -1    0    0    0  501 -0.00000000000E+00  0.00000000000E+00  0.72945375490E+02  0.72945375490E+02  0.00000000000E+00 0.  1.
          2   -1    0    0  501    0  0.00000000000E+00 -0.00000000000E+00 -0.53796595177E+03  0.53796595177E+03  0.00000000000E+00 0. -1.
         23    2    1    2    0    0 -0.11139828950E+03 -0.95408929476E+02 -0.12444186112E+03  0.22943070519E+03  0.12506090100E+03 0.  0.
          5    1    3    3  502    0 -0.43184440159E+02 -0.49809906779E+02 -0.13130765091E+03  0.14698671462E+03  0.41800000000E+01 0. -1.
         -5    1    3    3    0  502 -0.68213849339E+02 -0.45599022697E+02  0.68657897962E+01  0.82443990576E+02  0.41800000000E+01 0. -1.
        -11    1    1    2    0    0  0.24664241830E+02  0.33979149876E+01 -0.87728615540E+01  0.26397608816E+02  0.00000000000E+00 0.  1.
         11    1    1    2    0    0  0.86734047667E+02  0.92011014488E+02 -0.33180585361E+03  0.35508301325E+03  0.00000000000E+00 0. -1.
</event>
<event>
 7    1  0.1243146E-005  0.9637404E+02  0.7561462E-02  0.1288111E+00
         -2   -1    0    0    0  501 -0.00000000000E+00  0.00000000000E+00  0.65307501295E+02  0.65307501295E+02  0.00000000000E+00 0.  1.
          2   -1    0    0  501    0  0.00000000000E+00 -0.00000000000E+00 -0.33575400154E+03  0.33575400154E+03  0.00000000000E+00 0. -1.
         23    2    1    2    0    0  0.22643730799E+02 -0.72912431536E+02 -0.59187943336E+02  0.15805353983E+03  0.12509495433E+03 0.  0.
          5    1    3    3  502    0  0.25679172681E+02 -0.78510024129E+02  0.14502508329E+02  0.83970464725E+02  0.41800000000E+01 0. -1.
         -5    1    3    3    0  502 -0.30354418818E+01  0.55975925920E+01 -0.73690451665E+02  0.74083075104E+02  0.41800000000E+01 0. -1.
        -11    1    1    2    0    0 -0.31341562124E+01  0.81174876393E+02 -0.20561703669E+03  0.22108267519E+03  0.00000000000E+00 0. -1.
         11    1    1    2    0    0 -0.19509574587E+02 -0.82624448561E+01 -0.56415202253E+01  0.21925287821E+02  0.00000000000E+00 0.  1.
</event>
<event>
 7    1  0.1243146E-005  0.8992717E+02  0.7561462E-02  0.1303028E+00
          1   -1    0    0  501    0  0.00000000000E+00  0.00000000000E+00  0.44314039792E+03  0.44314039792E+03  0.00000000000E+00 0. -1.
         -1   -1    0    0    0  501 -0.00000000000E+00 -0.00000000000E+00 -0.29311340915E+02  0.29311340915E+02  0.00000000000E+00 0.  1.
         23    2    1    2    0    0  0.97022226391E+01 -0.23759593184E+02  0.21875280574E+03  0.25329223955E+03  0.12508204189E+03 0.  0.
          5    1    3    3  502    0 -0.26433318046E+02 -0.41703359342E+02  0.25307442509E+02  0.55640179095E+02  0.41800000000E+01 0.  1.
         -5    1    3    3    0  502  0.36135540685E+02  0.17943766158E+02  0.19344536323E+03  0.19765206045E+03  0.41800000000E+01 0.  1.
        -11    1    1    2    0    0 -0.31631567221E+02  0.47725671901E+02  0.16587585986E+03  0.17547961901E+03  0.00000000000E+00 0. -1.
         11    1    1    2    0    0  0.21929344582E+02 -0.23966078717E+02  0.29200391394E+02  0.43679880270E+02  0.00000000000E+00 0.  1.
</event>
<event>
 7    1  0.1243146E-005  0.1696926E+03  0.7561462E-02  0.1178169E+00
          1   -1    0    0  501    0  0.00000000000E+00  0.00000000000E+00  0.37113045774E+03  0.37113045774E+03  0.00000000000E+00 0. -1.
         -1   -1    0    0    0  501 -0.00000000000E+00 -0.00000000000E+00 -0.10784656373E+03  0.10784656373E+03  0.00000000000E+00 0.  1.
         23    2    1    2    0    0  0.14343835052E+02 -0.15732703712E+03  0.67340860013E+02  0.21246193234E+03  0.12509092314E+03 0.  0.
          5    1    3    3  502    0 -0.11734838283E+02 -0.13003301218E+03 -0.50354776119E+01  0.13072535761E+03  0.41800000000E+01 0. -1.
         -5    1    3    3    0  502  0.26078673335E+02 -0.27294024939E+02  0.72376337625E+02  0.81736574728E+02  0.41800000000E+01 0. -1.
        -11    1    1    2    0    0 -0.15712553091E+02  0.24609733605E+01 -0.10426996564E+01  0.15938253891E+02  0.00000000000E+00 0.  1.
         11    1    1    2    0    0  0.13687180385E+01  0.15486606376E+03  0.19698573365E+03  0.25057683524E+03  0.00000000000E+00 0. -1.
</event>
<event>
 7    1  0.1243146E-005  0.9336414E+02  0.7561462E-02  0.1294904E+00
          2   -1    0    0  501    0  0.00000000000E+00  0.00000000000E+00  0.11890649598E+03  0.11890649598E+03  0.00000000000E+00 0. -1.
         -2   -1    0    0    0  501 -0.00000000000E+00 -0.00000000000E+00 -0.12517355351E+03  0.12517355351E+03  0.00000000000E+00 0.  1.
         23    2    1    2    0    0 -0.99649520915E+01 -0.53991129323E+02 -0.97542761205E+01  0.13695998822E+03  0.12509416515E+03 0.  0.
          5    1    3    3  502    0  0.44656935052E+02 -0.41878484159E+02 -0.39972739772E+02  0.73234838762E+02  0.41800000000E+01 0.  1.
         -5    1    3    3    0  502 -0.54621887144E+02 -0.12112645164E+02  0.30218463651E+02  0.63725149458E+02  0.41800000000E+01 0.  1.
        -11    1    1    2    0    0  0.26088337313E+02  0.25258901983E+02  0.42602212157E+02  0.55978227498E+02  0.00000000000E+00 0. -1.
         11    1    1    2    0    0 -0.16123385221E+02  0.28732227339E+02 -0.39114993570E+02  0.51141833766E+02  0.00000000000E+00 0.  1.
</event>
<event>
 7    1  0.1243146E-005  0.1239930E+03  0.7561462E-02  0.1236652E+00
         -1   -1    0    0    0  501 -0.00000000000E+00  0.00000000000E+00  0.14194226199E+03  0.14194226199E+03  0.00000000000E+00 0.  1.
          1   -1    0    0  501    0  0.00000000000E+00 -0.00000000000E+00 -0.14708530912E+03  0.14708530912E+03  0.00000000000E+00 0. -1.
         23    2    1    2    0    0 -0.83264580134E+02 -0.42858946343E+02  0.64033697968E+01  0.15639731699E+03  0.12509691455E+03 0.  0.
          5    1    3    3  502    0 -0.39376723727E+02  0.37489975502E+02  0.29339506245E+02  0.61921754346E+02  0.41800000000E+01 0. -1.
         -5    1    3    3    0  502 -0.43887856407E+02 -0.80348921846E+02 -0.22936136448E+02  0.94475562644E+02  0.41800000000E+01 0. -1.
        -11    1    1    2    0    0  0.83977365811E+02  0.30373837129E+02 -0.42755385348E+02  0.99009044672E+02  0.00000000000E+00 0. -1.
         11    1    1    2    0    0 -0.71278567762E+00  0.12485109214E+02  0.31208968420E+02  0.33621209457E+02  0.00000000000E+00 0.  1.
</event>
<event>
 7    1  0.1243146E-005  0.2143113E+03  0.7561462E-02  0.1138197E+00
          1   -1    0    0  501    0  0.00000000000E+00  0.00000000000E+00  0.18564563334E+03  0.18564563334E+03  0.00000000000E+00 0. -1.
         -1   -1    0    0    0  501 -0.00000000000E+00 -0.00000000000E+00 -0.31592829067E+03  0.31592829067E+03  0.00000000000E+00 0.  1.
         23    2    1    2    0    0  0.14118608603E+03  0.13559719978E+03 -0.16107948175E+03  0.28269516030E+03  0.12509933149E+03 0.  0.
          5    1    3    3  502    0  0.89344665485E+02  0.34471331796E+01 -0.73737727318E+02  0.11597015481E+03  0.41800000000E+01 0.  1.
         -5    1    3    3    0  502  0.51841420540E+02  0.13215006660E+03 -0.87341754431E+02  0.16672500548E+03  0.41800000000E+01 0.  1.
        -11    1    1    2    0    0 -0.81201245399E+02 -0.62079461584E+02  0.61332134370E+02  0.11920206589E+03  0.00000000000E+00 0.  1.
         11    1    1    2    0    0 -0.59984840626E+02 -0.73517738197E+02 -0.30535309950E+02  0.99676697820E+02  0.00000000000E+00 0. -1.
</event>
<event>
 7    1  0.1243146E-005  0.2416769E+03  0.7561462E-02  0.1118681E+00
         -2   -1    0    0    0  501 -0.00000000000E+00  0.00000000000E+00  0.15964753138E+03  0.15964753138E+03  0.00000000000E+00 0.  1.
          2   -1    0    0  501    0  0.00000000000E+00 -0.00000000000E+00 -0.57056911472E+03  0.57056911472E+03  0.00000000000E+00 0. -1.
         23    2    1    2    0    0 -0.21039180751E+03 -0.10199050487E+03 -0.20010169873E+02  0.26592213161E+03  0.12508955763E+03 0.  0.
          5    1    3    3  502    0 -0.21369534795E+03 -0.10829795157E+03  0.49226664885E+01  0.23965778329E+03  0.41800000000E+01 0. -1.
         -5    1    3    3    0  502  0.33035404310E+01  0.63074467027E+01 -0.24932836362E+02  0.26264348313E+02  0.41800000000E+01 0. -1.
        -11    1    1    2    0    0  0.14603079205E+03  0.84824330021E+02 -0.34274954834E+03  0.38209607702E+03  0.00000000000E+00 0. -1.
         11    1    1    2    0    0  0.64361015462E+02  0.17166174846E+02 -0.48161865124E+02  0.82198437469E+02  0.00000000000E+00 0.  1.
</event>
<event>
 7    1  0.1243146E-005  0.1020749E+03  0.7561462E-02  0.1275992E+00
         -1   -1    0    0    0  501 -0.00000000000E+00  0.00000000000E+00  0.25588090301E+03  0.25588090301E+03  0.00000000000E+00 0.  1.
          1   -1    0    0  501    0  0.00000000000E+00 -0.00000000000E+00 -0.48450470050E+02  0.48450470050E+02  0.00000000000E+00 0. -1.
         23    2    1    2    0    0  0.21054260805E+01  0.15150603420E+02  0.15570680784E+03  0.20031649882E+03  0.12509243018E+03 0.  0.
          5    1    3    3  502    0  0.29690025439E+02 -0.41531854567E+02  0.11297532986E+03  0.12404551629E+03  0.41800000000E+01 0. -1.
         -5    1    3    3    0  502 -0.27584599359E+02  0.56682457987E+02  0.42731477975E+02  0.76270982524E+02  0.41800000000E+01 0. -1.
        -11    1    1    2    0    0 -0.45236172155E+02 -0.98296559652E+01  0.21242162157E+02  0.50932925115E+02  0.00000000000E+00 0.  1.
         11    1    1    2    0    0  0.43130746075E+02 -0.53209474544E+01  0.30481462964E+02  0.53081949128E+02  0.00000000000E+00 0. -1.
</event>
<event>
 7    1  0.1243146E-005  0.9202291E+02  0.7561462E-02  0.1298026E+00
          1   -1    0    0  501    0  0.00000000000E+00  0.00000000000E+00  0.17263001734E+03  0.17263001734E+03  0.00000000000E+00 0. -1.
         -1   -1    0    0    0  501 -0.00000000000E+00 -0.00000000000E+00 -0.88715738466E+02  0.88715738466E+02  0.00000000000E+00 0.  1.
         23    2    1    2    0    0 -0.25859591335E+02  0.92295716169E+01 -0.14144477209E+02  0.12884833125E+03  0.12509165749E+03 0.  0.
          5    1    3    3  502    0 -0.17928203989E+02 -0.57252807310E+02 -0.14072307551E+02  0.61764121324E+02  0.41800000000E+01 0. -1.
         -5    1    3    3    0  502 -0.79313873461E+01  0.66482378927E+02 -0.72169657722E-01  0.67084209927E+02  0.41800000000E+01 0. -1.
        -11    1    1    2    0    0  0.40705167637E+02 -0.10138016851E+02  0.10714787284E+03  0.11506674895E+03  0.00000000000E+00 0. -1.
         11    1    1    2    0    0 -0.14845576302E+02  0.90844523386E+00 -0.90891167656E+01  0.17430675605E+02  0.00000000000E+00 0.  1.
</event>
<event>
 7    1  0.1243146E-005  0.1052029E+03  0.7561462E-02  0.1269720E+00
          1   -1    0    0  501    0  0.00000000000E+00  0.00000000000E+00  0.59125488615E+03  0.59125488615E+03  0.00000000000E+00 0. -1.
         -1   -1    0    0    0  501 -0.00000000000E+00 -0.00000000000E+00 -0.22518100926E+02  0.22518100926E+02  0.00000000000E+00 0.  1.
         23    2    1    2    0    0 -0.16618130482E+02 -0.86662046180E+01  0.23413359614E+03  0.26611345016E+03  0.12508621888E+03 0.  0.
          5    1    3    3  502    0 -0.23761375706E+02  0.55291070177E+02  0.13477817379E+03  0.14766290647E+03  0.41800000000E+01 0.  1.
         -5    1    3    3    0  502  0.71432452239E+01 -0.63957274795E+02  0.99355422349E+02  0.11845054370E+03  0.41800000000E+01 0.  1.
        -11    1    1    2    0    0  0.48533972616E+02 -0.86194253920E+01  0.11563046455E+03  0.12569902674E+03  0.00000000000E+00 0.  1.
         11    1    1    2    0    0 -0.31915842134E+02  0.17285630010E+02  0.21897272453E+03  0.22196051017E+03  0.00000000000E+00 0. -1.
</event>
<event>
 7    1  0.1243146E-005  0.8285406E+02  0.7561462E-02  0.1321142E+00
          2   -1    0    0  501    0  0.00000000000E+00  0.00000000000E+00  0.24215003312E+03  0.24215003312E+03  0.00000000000E+00 0.  1.
         -2   -1    0    0    0  501 -0.00000000000E+00 -0.00000000000E+00 -0.39390628746E+02  0.39390628746E+02  0.00000000000E+00 0. -1.
         23    2    1    2    0    0 -0.36822503781E+02 -0.16922980439E+02  0.63354963892E+02  0.13411704608E+03  0.11104614603E+03 0.  0.
          5    1    3    3  502    0 -0.24675068549E+02  0.46804077441E+02  0.25406830584E+02  0.58842672554E+02  0.41800000000E+01 0.  1.
         -5    1    3    3    0  502 -0.12147435232E+02 -0.63727057881E+02  0.37948133308E+02  0.75274373530E+02  0.41800000000E+01 0. -1.
        -11    1    1    2    0    0  0.23150616973E+02  0.23026011254E+02  0.10330754094E+03  0.10834480271E+03  0.00000000000E+00 0.  1.
         11    1    1    2    0    0  0.13671886808E+02 -0.61030308146E+01  0.36096899548E+02  0.39078813070E+02  0.00000000000E+00 0. -1.
</event>
<event>
 6    1  0.1243146E-005  0.1176368E+03  0.7561462E-02  0.1247047E+00
          1   -1    0    0  501    0  0.00000000000E+00  0.00000000000E+00  0.50543342059E+03  0.50543342059E+03  0.00000000000E+00 0. -1.
         -1   -1    0    0    0  501 -0.00000000000E+00 -0.00000000000E+00 -0.34900831048E+02  0.34900831048E+02  0.00000000000E+00 0.  1.
          5    1    1    2  502    0 -0.47516302000E+02 -0.62324420450E+02  0.86047192307E+02  0.11646340217E+03  0.41800000000E+01 0. -1.
         -5    1    1    2    0  502  0.46008035691E+02  0.45411068809E+02  0.66681617143E+02  0.92966741275E+02  0.41800000000E+01 0.  1.
        -11    1    1    2    0    0 -0.84287664925E+01 -0.36612644268E+02  0.11985327776E+03  0.12560389331E+03  0.00000000000E+00 0. -1.
         11    1    1    2    0    0  0.99370328018E+01  0.53525995909E+02  0.19795050234E+03  0.20530021489E+03  0.00000000000E+00 0.  1.
</event>
<event>
 7    1  0.1243146E-005  0.1054894E+03  0.7561462E-02  0.1269158E+00
         -1   -1    0    0    0  501 -0.00000000000E+00  0.00000000000E+00  0.33083740027E+02  0.33083740027E+02  0.00000000000E+00 0.  1.
          1   -1    0    0  501    0  0.00000000000E+00 -0.00000000000E+00 -0.45153206708E+03  0.45153206708E+03  0.00000000000E+00 0. -1.
         23    2    1    2    0    0  0.37784223910E+02 -0.39400669529E+02 -0.24455681325E+03  0.28006340182E+03  0.12508962306E+03 0.  0.
          5    1    3    3  502    0 -0.30931645232E+02  0.13044918001E+02 -0.14150073727E+03  0.14548837620E+03  0.41800000000E+01 0.  1.
         -5    1    3    3    0  502  0.68715869142E+02 -0.52445587530E+02 -0.10305607598E+03  0.13457502562E+03  0.41800000000E+01 0.  1.
        -11    1    1    2    0    0 -0.54880647001E+02  0.88401870103E+01 -0.46614751034E+02  0.72546325445E+02  0.00000000000E+00 0.  1.
         11    1    1    2    0    0  0.17096423091E+02  0.30560482518E+02 -0.12727676277E+03  0.13200607984E+03  0.00000000000E+00 0. -1.
</event>
<event>
 6    1  0.1243146E-005  0.1076523E+03  0.7561462E-02  0.1264980E+00
         -1   -1    0    0    0  501 -0.00000000000E+00  0.00000000000E+00  0.18109477323E+03  0.18109477323E+03  0.00000000000E+00 0.  1.
          1   -1    0    0  501    0  0.00000000000E+00 -0.00000000000E+00 -0.13519041710E+03  0.13519041710E+03  0.00000000000E+00 0. -1.
          5    1    1    2  502    0 -0.37831442103E+01 -0.35684272684E+02 -0.11536423762E+02  0.37924147588E+02  0.41800000000E+01 0. -1.
         -5    1    1    2    0  502  0.45815885262E+01  0.99601262690E+02  0.11459657353E+03  0.15195805193E+03  0.41800000000E+01 0.  1.
        -11    1    1    2    0    0 -0.19572434198E+02 -0.93769195238E+01  0.20375596319E+02  0.29768636609E+02  0.00000000000E+00 0.  1.
         11    1    1    2    0    0  0.18773989882E+02 -0.54540070482E+02 -0.77531389954E+02  0.96634354205E+02  0.00000000000E+00 0. -1.
</event>
<event>
 7    1  0.1243146E-005  0.1137755E+03  0.7561462E-02  0.1253734E+00
         -2   -1    0    0    0  501 -0.00000000000E+00  0.00000000000E+00  0.27209638792E+03  0.27209638792E+03  0.00000000000E+00 0. -1.
          2   -1    0    0  501    0  0.00000000000E+00 -0.00000000000E+00 -0.65267572404E+02  0.65267572404E+02  0.00000000000E+00 0.  1.
         23    2    1    2    0    0 -0.11677609628E+01 -0.62085720163E+02  0.17161764461E+03  0.22126054037E+03  0.12509040918E+03 0.  0.
          5    1    3    3  502    0 -0.49975791455E+02 -0.73657104847E+02  0.11544356293E+03  0.14583428077E+03  0.41800000000E+01 0. -1.
         -5    1    3    3    0  502  0.48808030492E+02  0.11571384684E+02  0.56174081679E+02  0.75426259595E+02  0.41800000000E+01 0. -1.
        -11    1    1    2    0    0 -0.30529304376E+02  0.26231690956E+02 -0.18385058750E+02  0.44250993450E+02  0.00000000000E+00 0.  1.
         11    1    1    2    0    0  0.31697065338E+02  0.35854029208E+02  0.53596229655E+02  0.71852426506E+02  0.00000000000E+00 0. -1.
</event>
<event>
 7    1  0.1243146E-005  0.7425649E+02  0.7561462E-02  0.1346189E+00
         -3   -1    0    0    0  501 -0.00000000000E+00  0.00000000000E+00  0.16061456881E+03  0.16061456881E+03  0.00000000000E+00 0.  1.
          3   -1    0    0  501    0  0.00000000000E+00 -0.00000000000E+00 -0.81209513547E+02  0.81209513547E+02  0.00000000000E+00 0. -1.
         23    2    1    2    0    0 -0.29366253040E+02 -0.14526632890E+02  0.47135949090E+02  0.13763282976E+03  0.12509036034E+03 0.  0.
          5    1    3    3  502    0 -0.24465631585E+02  0.18599101245E+02 -0.36231879891E+02  0.47693974634E+02  0.41800000000E+01 0. -1.
         -5    1    3    3    0  502 -0.49006214554E+01 -0.33125734135E+02  0.83367828981E+02  0.89938855127E+02  0.41800000000E+01 0. -1.
        -11    1    1    2    0    0  0.51185331161E+02 -0.86599579482E+01 -0.83512324638E+01  0.52580187156E+02  0.00000000000E+00 0.  1.
         11    1    1    2    0    0 -0.21819078121E+02  0.23186590838E+02  0.40620338636E+02  0.51611065438E+02  0.00000000000E+00 0. -1.
</event>
<event>
 7    1  0.1243146E-005  0.1177486E+03  0.7561462E-02  0.1246858E+00
          2   -1    0    0  501    0  0.00000000000E+00  0.00000000000E+00  0.36361933685E+02  0.36361933685E+02  0.00000000000E+00 0.  1.
         -2   -1    0    0    0  501 -0.00000000000E+00 -0.00000000000E+00 -0.51020748799E+03  0.51020748799E+03  0.00000000000E+00 0. -1.
         23    2    1    2    0    0 -0.39236461797E+02 -0.63670888502E+02 -0.32897878326E+03  0.35981490964E+03  0.12508496066E+03 0.  0.
          5    1    3    3  502    0  0.16221753740E+02 -0.83601674974E+02 -0.21819827142E+03  0.23426554036E+03  0.41800000000E+01 0. -1.
         -5    1    3    3    0  502 -0.55458215537E+02  0.19930786472E+02 -0.11078051185E+03  0.12554936928E+03  0.41800000000E+01 0. -1.
        -11    1    1    2    0    0  0.45641340916E+02  0.25163525753E+02 -0.19826042211E+02  0.55762056801E+02  0.00000000000E+00 0.  1.
         11    1    1    2    0    0 -0.64048791193E+01  0.38507362749E+02 -0.12504072883E+03  0.13099245524E+03  0.00000000000E+00 0. -1.
</event>
<event>
 7    1  0.1243146E-005  0.9466877E+02  0.7561462E-02  0.1291924E+00
          3   -1    0    0  501    0  0.00000000000E+00  0.00000000000E+00  0.21249605808E+03  0.21249605808E+03  0.00000000000E+00 0. -1.
         -3   -1    0    0    0  501 -0.00000000000E+00 -0.00000000000E+00 -0.13857177224E+03  0.13857177224E+03  0.00000000000E+00 0.  1.
         23    2    1    2    0    0 -0.11780855171E+02 -0.49783846301E+02 -0.85664263281E+02  0.16000850146E+03  0.12508850720E+03 0.  0.
          5    1    3    3  502    0  0.27594860987E+02 -0.83601508438E+01 -0.97270557432E+02  0.10154015077E+03  0.41800000000E+01 0. -1.
         -5    1    3    3    0  502 -0.39375716158E+02 -0.41423695458E+02  0.11606294151E+02  0.58468350689E+02  0.41800000000E+01 0. -1.
        -11    1    1    2    0    0 -0.13904571178E+02  0.69273522561E+02  0.12627391243E+03  0.14469712847E+03  0.00000000000E+00 0. -1.
         11    1    1    2    0    0  0.25685426349E+02 -0.19489676260E+02  0.33314636694E+02  0.46362200396E+02  0.00000000000E+00 0.  1.
</event>
<event>
 7    1  0.1243146E-005  0.1205792E+03  0.7561462E-02  0.1242145E+00
          2   -1    0    0  501    0  0.00000000000E+00  0.00000000000E+00  0.17515259215E+03  0.17515259215E+03  0.00000000000E+00 0. -1.
         -2   -1    0    0    0  501 -0.00000000000E+00 -0.00000000000E+00 -0.10411831144E+03  0.10411831144E+03  0.00000000000E+00 0.  1.
         23    2    1    2    0    0  0.42755334706E+02 -0.64343353716E+02  0.11212441096E+02  0.14744976036E+03  0.12509047598E+03 0.  0.
          5    1    3    3  502    0  0.63891364360E+02 -0.94457818912E+01 -0.34028584739E+02  0.73121448390E+02  0.41800000000E+01 0.  1.
         -5    1    3    3    0  502 -0.21136029654E+02 -0.54897571824E+02  0.45241025834E+02  0.74328311970E+02  0.41800000000E+01 0.  1.
        -11    1    1    2    0    0  0.20444017747E+02 -0.75017479702E+01  0.10769848692E+02  0.24294520475E+02  0.00000000000E+00 0. -1.
         11    1    1    2    0    0 -0.63199352453E+02  0.71845101686E+02  0.49051990920E+02  0.10752662275E+03  0.00000000000E+00 0.  1.
</event>
<event>
 7    1  0.1243146E-005  0.8833573E+02  0.7561462E-02  0.1306933E+00
         -2   -1    0    0    0  501 -0.00000000000E+00  0.00000000000E+00  0.46888663084E+02  0.46888663084E+02  0.00000000000E+00 0. -1.
          2   -1    0    0  501    0  0.00000000000E+00 -0.00000000000E+00 -0.32339878404E+03  0.32339878404E+03  0.00000000000E+00 0.  1.
         23    2    1    2    0    0  0.10554817380E+02 -0.35306186472E+02 -0.85613350666E+02  0.15600878815E+03  0.12510461699E+03 0.  0.
          5    1    3    3  502    0 -0.10512409708E+02 -0.51412925001E+02  0.12652232175E+02  0.54141952256E+02  0.41800000000E+01 0.  1.
         -5    1    3    3    0  502  0.21067227088E+02  0.16106738529E+02 -0.98265582841E+02  0.10186683589E+03  0.41800000000E+01 0.  1.
        -11    1    1    2    0    0  0.39816643909E+02  0.19866034863E+02 -0.81486380979E+02  0.92844250002E+02  0.00000000000E+00 0.  1.
         11    1    1    2    0    0 -0.50371461289E+02  0.15440151609E+02 -0.10941038931E+03  0.12143440897E+03  0.00000000000E+00 0. -1.
</event>
<event>
 7    1  0.1243146E-005  0.9492759E+02  0.7561462E-02  0.1291339E+00
          1   -1    0    0  501    0  0.00000000000E+00  0.00000000000E+00  0.24444242732E+03  0.24444242732E+03  0.00000000000E+00 0. -1.
         -1   -1    0    0    0  501 -0.00000000000E+00 -0.00000000000E+00 -0.53631411680E+02  0.53631411680E+02  0.00000000000E+00 0.  1.
         23    2    1    2    0    0 -0.34799423897E+01 -0.28457491303E+02  0.37271060606E+02  0.11982481011E+03  0.11021304074E+03 0.  0.
          5    1    3    3  502    0  0.26756668064E+01  0.37075509065E+02  0.38743544511E+02  0.53854314651E+02  0.41800000000E+01 0. -1.
         -5    1    3    3    0  502 -0.61556091960E+01 -0.65533000368E+02 -0.14724839050E+01  0.65970495456E+02  0.41800000000E+01 0.  1.
        -11    1    1    2    0    0 -0.39090065584E+02  0.14564754714E+02  0.47949114816E+02  0.63555353188E+02  0.00000000000E+00 0. -1.
         11    1    1    2    0    0  0.42570007973E+02  0.13892736589E+02  0.10559084022E+03  0.11469367571E+03  0.00000000000E+00 0.  1.
</event>
<event>
 7    1  0.1243146E-005  0.3687431E+03  0.7561462E-02  0.1055175E+00
         -3   -1    0    0    0  501 -0.00000000000E+00  0.00000000000E+00  0.29352577929E+03  0.29352577929E+03  0.00000000000E+00 0.  1.
          3   -1    0    0  501    0  0.00000000000E+00 -0.00000000000E+00 -0.49444537041E+03  0.49444537041E+03  0.00000000000E+00 0. -1.
         23    2    1    2    0    0 -0.21362454784E+02  0.36422554699E+03 -0.99397664745E+02  0.39829765149E+03  0.12507805512E+03 0.  0.
          5    1    3    3  502    0 -0.42071373641E+02  0.29218381880E+03 -0.31198836612E+02  0.29687071976E+03  0.41800000000E+01 0. -1.
         -5    1    3    3    0  502  0.20708918857E+02  0.72041728197E+02 -0.68198828133E+02  0.10142693173E+03  0.41800000000E+01 0. -1.
        -11    1    1    2    0    0  0.32906984743E+02 -0.21398155244E+03 -0.17644361989E+02  0.21721486583E+03  0.00000000000E+00 0.  1.
         11    1    1    2    0    0 -0.11544529959E+02 -0.15024399456E+03 -0.83877564393E+02  0.17245863237E+03  0.00000000000E+00 0. -1.
</event>
<event>
 7    1  0.1243146E-005  0.1116599E+03  0.7561462E-02  0.1257527E+00
          2   -1    0    0  501    0  0.00000000000E+00  0.00000000000E+00  0.27228220865E+03  0.27228220865E+03  0.00000000000E+00 0. -1.
         -2   -1    0    0    0  501 -0.00000000000E+00 -0.00000000000E+00 -0.11151980055E+03  0.11151980055E+03  0.00000000000E+00 0.  1.
         23    2    1    2    0    0 -0.76645051745E+02  0.74623358551E+02 -0.70154145533E+01  0.16474155138E+03  0.12508978021E+03 0.  0.
          5    1    3    3  502    0 -0.90518796253E+00  0.31476947330E+00 -0.50000287671E+02  0.50183858085E+02  0.41800000000E+01 0. -1.
         -5    1    3    3    0  502 -0.75739863783E+02  0.74308589077E+02  0.42984873118E+02  0.11455769330E+03  0.41800000000E+01 0. -1.
        -11    1    1    2    0    0  0.31987052034E+02 -0.85778042067E+01  0.12350068961E+03  0.12786387511E+03  0.00000000000E+00 0. -1.
         11    1    1    2    0    0  0.44657999711E+02 -0.66045554344E+02  0.44277133035E+02  0.91196582703E+02  0.00000000000E+00 0.  1.
</event>
<event>
 7    1  0.1243146E-005  0.1004556E+03  0.7561462E-02  0.1279341E+00
         -2   -1    0    0    0  501 -0.00000000000E+00  0.00000000000E+00  0.24891726836E+02  0.24891726836E+02  0.00000000000E+00 0.  1.
          2   -1    0    0  501    0  0.00000000000E+00 -0.00000000000E+00 -0.54506629771E+03  0.54506629771E+03  0.00000000000E+00 0. -1.
         23    2    1    2    0    0  0.90526681255E+01  0.27498517948E+02 -0.27360527477E+03  0.30222864454E+03  0.12507672809E+03 0.  0.
          5    1    3    3  502    0  0.38607726607E+01  0.70108386342E+02 -0.93337963314E+02  0.11687403132E+03  0.41800000000E+01 0. -1.
         -5    1    3    3    0  502  0.51918954649E+01 -0.42609868393E+02 -0.18026731145E+03  0.18535461322E+03  0.41800000000E+01 0. -1.
        -11    1    1    2    0    0  0.28415091840E+02 -0.38997509720E+02 -0.59536529969E+02  0.76634337013E+02  0.00000000000E+00 0.  1.
         11    1    1    2    0    0 -0.37467759966E+02  0.11498991772E+02 -0.18703276613E+03  0.19109504299E+03  0.00000000000E+00 0. -1.
</event>
<event>
 6    1  0.1243146E-005  0.1779992E+03  0.7561462E-02  0.1169754E+00
          2   -1    0    0  501    0  0.00000000000E+00  0.00000000000E+00  0.29702741466E+03  0.29702741466E+03  0.00000000000E+00 0. -1.
         -2   -1    0    0    0  501 -0.00000000000E+00 -0.00000000000E+00 -0.10957311239E+03  0.10957311239E+03  0.00000000000E+00 0.  1.
          5    1    1    2  502    0 -0.36785645024E+02 -0.27478579089E+02  0.46507519023E+02  0.65487996719E+02  0.41800000000E+01 0. -1.
         -5    1    1    2    0  502  0.31693126799E+02  0.15457707551E+03  0.81546021137E+02  0.17766753368E+03  0.41800000000E+01 0.  1.
        -11    1    1    2    0    0 -0.23708115266E+02 -0.12008441409E+03  0.51281487032E+02  0.13271070850E+03  0.00000000000E+00 0. -1.
         11    1    1    2    0    0  0.28800633491E+02 -0.70140823289E+01  0.81192750831E+01  0.30734288153E+02  0.00000000000E+00 0.  1.
</event>
<event>
 7    1  0.1243146E-005  0.5638355E+02  0.7561462E-02  0.1413667E+00
         -1   -1    0    0    0  501 -0.00000000000E+00  0.00000000000E+00  0.32562728424E+02  0.32562728424E+02  0.00000000000E+00 0.  1.
          1   -1    0    0  501    0  0.00000000000E+00 -0.00000000000E+00 -0.39579902886E+03  0.39579902886E+03  0.00000000000E+00 0. -1.
         23    2    1    2    0    0  0.29090176318E+01 -0.16008012078E+01 -0.15543859591E+03  0.19954913761E+03  0.12509067222E+03 0.  0.
          5    1    3    3  502    0 -0.16990866310E+02 -0.11001936610E+02 -0.17101782312E+03  0.17226230107E+03  0.41800000000E+01 0. -1.
         -5    1    3    3    0  502  0.19899883942E+02  0.94011354023E+01  0.15579227211E+02  0.27286836538E+02  0.41800000000E+01 0. -1.
        -11    1    1    2    0    0 -0.34051026972E+02  0.13120869016E+02 -0.18492888537E+03  0.18849488663E+03  0.00000000000E+00 0. -1.
         11    1    1    2    0    0  0.31142009340E+02 -0.11520067809E+02 -0.22868819166E+02  0.40317733048E+02  0.00000000000E+00 0.  1.
</event>
<event>
 7    1  0.1243146E-005  0.1454744E+03  0.7561462E-02  0.1206147E+00
         -1   -1    0    0    0  501 -0.00000000000E+00  0.00000000000E+00  0.21750688829E+03  0.21750688829E+03  0.00000000000E+00 0.  1.
          1   -1    0    0  501    0  0.00000000000E+00 -0.00000000000E+00 -0.11305459274E+03  0.11305459274E+03  0.00000000000E+00 0. -1.
         23    2    1    2    0    0 -0.79488545641E+02  0.79651851210E+02  0.44135284413E+02  0.17395416408E+03  0.12509708862E+03 0.  0.
          5    1    3    3  502    0  0.83147926495E+01 -0.20306671362E+02  0.33704746100E+02  0.40434873417E+02  0.41800000000E+01 0. -1.
         -5    1    3    3    0  502 -0.87803338291E+02  0.99958522572E+02  0.10430538313E+02  0.13351929066E+03  0.41800000000E+01 0. -1.
        -11    1    1    2    0    0  0.73977813918E+02 -0.21431799419E+02  0.67723908392E+01  0.77316907957E+02  0.00000000000E+00 0. -1.
         11    1    1    2    0    0  0.55107317235E+01 -0.58220051792E+02  0.53544620294E+02  0.79290408986E+02  0.00000000000E+00 0.  1.
</event>
<event>
 7    1  0.1243146E-005  0.3793212E+03  0.7561462E-02  0.1051185E+00
          1   -1    0    0  501    0  0.00000000000E+00  0.00000000000E+00  0.66392392441E+03  0.66392392441E+03  0.00000000000E+00 0.  1.
         -1   -1    0    0    0  501 -0.00000000000E+00 -0.00000000000E+00 -0.24230344607E+03  0.24230344607E+03  0.00000000000E+00 0. -1.
         23    2    1    2    0    0  0.13147935723E+03  0.34652329574E+03  0.91746868557E+02  0.40178318493E+03  0.12508806472E+03 0.  0.
          5    1    3    3  502    0  0.57298630475E+02  0.33974349695E+02  0.35632378178E+02  0.75660612383E+02  0.41800000000E+01 0. -1.
         -5    1    3    3    0  502  0.74180726757E+02  0.31254894604E+03  0.56114490379E+02  0.32612257255E+03  0.41800000000E+01 0. -1.
        -11    1    1    2    0    0 -0.10046876487E+03 -0.26133971903E+03  0.19220892401E+03  0.33961256149E+03  0.00000000000E+00 0. -1.
         11    1    1    2    0    0 -0.31010592358E+02 -0.85183576712E+02  0.13766468577E+03  0.16483162405E+03  0.00000000000E+00 0.  1.
</event>
<event>
 7    1  0.1243146E-005  0.2062890E+03  0.7561462E-02  0.1144539E+00
          2   -1    0    0  501    0  0.00000000000E+00  0.00000000000E+00  0.18018967808E+03  0.18018967808E+03  0.00000000000E+00 0. -1.
         -2   -1    0    0    0  501 -0.00000000000E+00 -0.00000000000E+00 -0.53795380931E+03  0.53795380931E+03  0.00000000000E+00 0.  1.
         23    2    1    2    0    0 -0.15405804915E+03  0.11384396142E+03 -0.43540883507E+03  0.49185632043E+03  0.12508979269E+03 0.  0.
          5    1    3    3  502    0 -0.16454729665E+03  0.76028850178E+02 -0.39855979453E+03  0.43786251394E+03  0.41800000000E+01 0.  1.
         -5    1    3    3    0  502  0.10489247499E+02  0.37815111244E+02 -0.36849040535E+02  0.53993806495E+02  0.41800000000E+01 0.  1.
        -11    1    1    2    0    0  0.17450445847E+02 -0.16891362385E+02 -0.20808795778E+02  0.31981903715E+02  0.00000000000E+00 0.  1.
         11    1    1    2    0    0  0.13660760330E+03 -0.96952599037E+02  0.98453499609E+02  0.19430526324E+03  0.00000000000E+00 0. -1.
</event>
<event>
 7    1  0.1243146E-005  0.9642004E+02  0.7561462E-02  0.1288009E+00
         -3   -1    0    0    0  501 -0.00000000000E+00  0.00000000000E+00  0.19889140911E+03  0.19889140911E+03  0.00000000000E+00 0.  1.
          3   -1    0    0  501    0  0.00000000000E+00 -0.00000000000E+00 -0.85629357030E+02  0.85629357030E+02  0.00000000000E+00 0. -1.
         23    2    1    2    0    0  0.17065314986E+01  0.46307681336E+02  0.12149879100E+03  0.18046311900E+03  0.12513060180E+03 0.  0.
          5    1    3    3  502    0 -0.27670836078E+02 -0.13722578422E+02  0.10766461917E+03  0.11208535564E+03  0.41800000000E+01 0. -1.
         -5    1    3    3    0  502  0.29377367577E+02  0.60030259758E+02  0.13834171826E+02  0.68377763362E+02  0.41800000000E+01 0. -1.
        -11    1    1    2    0    0 -0.41213306903E+02 -0.33703076649E+02 -0.25631741761E+02  0.59088241023E+02  0.00000000000E+00 0. -1.
         11    1    1    2    0    0  0.39506775404E+02 -0.12604604687E+02  0.17395002840E+02  0.44969406111E+02  0.00000000000E+00 0.  1.
</event>
<event>
 7    1  0.1243146E-005  0.1037184E+03  0.7561462E-02  0.1272665E+00
         -3   -1    0    0    0  501 -0.00000000000E+00  0.00000000000E+00  0.30873193264E+03  0.30873193264E+03  0.00000000000E+00 0.  1.
          3   -1    0    0  501    0  0.00000000000E+00 -0.00000000000E+00 -0.71762402523E+02  0.71762402523E+02  0.00000000000E+00 0. -1.
         23    2    1    2    0    0 -0.59082086160E+02 -0.40270710674E+02  0.22256840338E+03  0.26513229531E+03  0.12508403891E+03 0.  0.
          5    1    3    3  502    0  0.16710623927E+02 -0.11434565015E+02  0.16329675417E+03  0.16460041480E+03  0.41800000000E+01 0.  1.
         -5    1    3    3    0  502 -0.75792710087E+02 -0.28836145659E+02  0.59271649208E+02  0.10053188051E+03  0.41800000000E+01 0.  1.
        -11    1    1    2    0    0 -0.17598576049E+02  0.19184884900E+02  0.23810421054E+02  0.35280388863E+02  0.00000000000E+00 0.  1.
         11    1    1    2    0    0  0.76680662210E+02  0.21085825774E+02 -0.94092943192E+01  0.80081650989E+02  0.00000000000E+00 0. -1.
</event>
<event>
 7    1  0.1243146E-005  0.1091947E+03  0.7561462E-02  0.1262068E+00
         -1   -1    0    0    0  501 -0.00000000000E+00  0.00000000000E+00  0.35168601325E+02  0.35168601325E+02  0.00000000000E+00 0.  1.
          1   -1    0    0  501    0  0.00000000000E+00 -0.00000000000E+00 -0.37800592307E+03  0.37800592307E+03  0.00000000000E+00 0. -1.
         23    2    1    2    0    0  0.10432209629E+02 -0.34059320957E+02 -0.14865083010E+03  0.19751369702E+03  0.12508286405E+03 0.  0.
          5    1    3    3  502    0  0.16230059974E+02  0.45853580211E+02 -0.68395951336E+02  0.84032399848E+02  0.41800000000E+01 0. -1.
         -5    1    3    3    0  502 -0.57978503451E+01 -0.79912901168E+02 -0.80254878765E+02  0.11348129717E+03  0.41800000000E+01 0. -1.
        -11    1    1    2    0    0 -0.33085125564E+01 -0.27333131466E+02 -0.93957464288E+02  0.97908382820E+02  0.00000000000E+00 0. -1.
         11    1    1    2    0    0 -0.71236970726E+01  0.61392452423E+02 -0.10022902735E+03  0.11775244456E+03  0.00000000000E+00 0.  1.
</event>
<event>
 7    1  0.1243146E-005  0.1276571E+03  0.7561462E-02  0.1230974E+00
          2   -1    0    0  501    0  0.00000000000E+00  0.00000000000E+00  0.25370259360E+03  0.25370259360E+03  0.00000000000E+00 0. -1.
         -2   -1    0    0    0  501 -0.00000000000E+00 -0.00000000000E+00 -0.92653056047E+02  0.92653056047E+02  0.00000000000E+00 0.  1.
         23    2    1    2    0    0 -0.43426560250E+02 -0.83634506512E+02  0.32308392917E+02  0.15991336055E+03  0.12509138186E+03 0.  0.
          5    1    3    3  502    0  0.23354127029E+02  0.28826485030E+01 -0.26539080254E+02  0.35714424151E+02  0.41800000000E+01 0.  1.
         -5    1    3    3    0  502 -0.66780687279E+02 -0.86517155015E+02  0.58847473171E+02  0.12419893640E+03  0.41800000000E+01 0.  1.
        -11    1    1    2    0    0  0.62647304674E+01  0.84635153614E+02  0.47871804133E+02  0.97437496407E+02  0.00000000000E+00 0. -1.
         11    1    1    2    0    0  0.37161829782E+02 -0.10006471025E+01  0.80869340509E+02  0.89004792690E+02  0.00000000000E+00 0.  1.
</event>
<event>
 7    1  0.1243146E-005  0.1091946E+03  0.7561462E-02  0.1262069E+00
         -2   -1    0    0    0  501 -0.00000000000E+00  0.00000000000E+00  0.87980742305E+02  0.87980742305E+02  0.00000000000E+00 0.  1.
          2   -1    0    0  501    0  0.00000000000E+00 -0.00000000000E+00 -0.15986035722E+03  0.15986035722E+03  0.00000000000E+00 0. -1.
         23    2    1    2    0    0  0.24439622687E+02  0.34778372077E+02 -0.11469844633E+02  0.13260739707E+03  0.12508530729E+03 0.  0.
          5    1    3    3  502    0 -0.45616974245E+02  0.41230823884E+02 -0.49527324147E+01  0.61829532877E+02  0.41800000000E+01 0.  1.
         -5    1    3    3    0  502  0.70056596932E+02 -0.64524518071E+01 -0.65171122180E+01  0.70777864192E+02  0.41800000000E+01 0.  1.
        -11    1    1    2    0    0 -0.94474116606E+00 -0.55165902155E+02 -0.63325848895E+02  0.83990073430E+02  0.00000000000E+00 0. -1.
         11    1    1    2    0    0 -0.23494881521E+02  0.20387530079E+02  0.29160786105E+01  0.31243629028E+02  0.00000000000E+00 0.  1.
</event>
<event>
 7    1  0.1243146E-005  0.1757696E+03  0.7561462E-02  0.1171961E+00
          2   -1    0    0  501    0  0.00000000000E+00  0.00000000000E+00  0.47441559467E+03  0.47441559467E+03  0.00000000000E+00 0. -1.
         -2   -1    0    0    0  501 -0.00000000000E+00 -0.00000000000E+00 -0.93000651258E+02  0.93000651258E+02  0.00000000000E+00 0.  1.
         23    2    1    2    0    0 -0.13825175751E+03 -0.74807130818E+02  0.82136088071E+02  0.21703371417E+03  0.12509053061E+03 0.  0.
          5    1    3    3  502    0 -0.15844982337E+03 -0.69199792947E+02  0.89099047779E+02  0.19455351599E+03  0.41800000000E+01 0.  1.
         -5    1    3    3    0  502  0.20198065858E+02 -0.56073378712E+01 -0.69629597076E+01  0.22480198182E+02  0.41800000000E+01 0.  1.
        -11    1    1    2    0    0  0.23930186855E+02  0.14020123500E+02  0.40755660912E+01  0.28032622868E+02  0.00000000000E+00 0.  1.
         11    1    1    2    0    0  0.11432157066E+03  0.60787007318E+02  0.29520328925E+03  0.32234990889E+03  0.00000000000E+00 0. -1.
</event>
<event>
 7    1  0.1780633E-005  0.1358424E+03  0.7561462E-02  0.1219035E+00
         -1   -1    0    0    0  501 -0.00000000000E+00  0.00000000000E+00  0.11161736365E+03  0.11161736365E+03  0.00000000000E+00 0. -1.
          1   -1    0    0  501    0  0.00000000000E+00 -0.00000000000E+00 -0.25172886157E+03  0.25172886157E+03  0.00000000000E+00 0.  1.
         23    2    1    2    0    0 -0.50259096012E+02  0.10769432514E+03 -0.23862991395E+02  0.17418679190E+03  0.12509017433E+03 0.  0.
          5    1    3    3  502    0 -0.52016338196E+02  0.11892417632E+03  0.17540110022E+02  0.13104879630E+03  0.41800000000E+01 0. -1.
         -5    1    3    3    0  502  0.17572421845E+01 -0.11229851174E+02 -0.41403101417E+02  0.43137995601E+02  0.41800000000E+01 0. -1.
        -11    1    1    2    0    0  0.31813601686E+02 -0.14963812075E+02 -0.80919960045E+02  0.88227324893E+02  0.00000000000E+00 0.  1.
         11    1    1    2    0    0  0.18445494326E+02 -0.92730513070E+02 -0.35328546482E+02  0.10093210843E+03  0.00000000000E+00 0. -1.
</event>
<event>
 7    1  0.1243146E-005  0.1405948E+03  0.7561462E-02  0.1212531E+00
         -2   -1    0    0    0  501 -0.00000000000E+00  0.00000000000E+00  0.14930569608E+03  0.14930569608E+03  0.00000000000E+00 0.  1.
          2   -1    0    0  501    0  0.00000000000E+00 -0.00000000000E+00 -0.15773970301E+03  0.15773970301E+03  0.00000000000E+00 0. -1.
         23    2    1    2    0    0 -0.57476664083E+02  0.75557927642E+02  0.46748199022E+02  0.16384314151E+03  0.12508642439E+03 0.  0.
          5    1    3    3  502    0  0.19343794735E+02 -0.22763321271E+02 -0.10005809552E+01  0.30179873298E+02  0.41800000000E+01 0. -1.
         -5    1    3    3    0  502 -0.76820458818E+02  0.98321248914E+02  0.47748779977E+02  0.13366326822E+03  0.41800000000E+01 0. -1.
        -11    1    1    2    0    0  0.57711329130E+02 -0.75830843607E+01 -0.44399386192E+01  0.58376482708E+02  0.00000000000E+00 0.  1.
         11    1    1    2    0    0 -0.23466504738E+00 -0.67974843282E+02 -0.50742267331E+02  0.84825774861E+02  0.00000000000E+00 0. -1.
</event>
<event>
 7    1  0.1243146E-005  0.1119785E+03  0.7561462E-02  0.1256949E+00
         -1   -1    0    0    0  501 -0.00000000000E+00  0.00000000000E+00  0.44554713749E+03  0.44554713749E+03  0.00000000000E+00 0.  1.
          1   -1    0    0  501    0  0.00000000000E+00 -0.00000000000E+00 -0.52962884895E+02  0.52962884895E+02  0.00000000000E+00 0. -1.
         23    2    1    2    0    0  0.76594699473E+02 -0.71097458297E+01  0.34510054172E+03  0.37504502261E+03  0.12508832328E+03 0.  0.
          5    1    3    3  502    0 -0.25816158600E+02  0.28180264476E+02  0.89699141902E+02  0.97591033445E+02  0.41800000000E+01 0.  1.
         -5    1    3    3    0  502  0.10241085807E+03 -0.35290010306E+02  0.25540139981E+03  0.27745398917E+03  0.41800000000E+01 0.  1.
        -11    1    1    2    0    0 -0.40079683985E+02  0.10341260072E+01  0.69616265962E+02  0.80336012917E+02  0.00000000000E+00 0.  1.
         11    1    1    2    0    0 -0.36515015487E+02  0.60756198225E+01 -0.22132555086E+02  0.43128986852E+02  0.00000000000E+00 0. -1.
</event>
<event>
 7    1  0.1243146E-005  0.1683660E+03  0.7561462E-02  0.1179563E+00
         -1   -1    0    0    0  501 -0.00000000000E+00  0.00000000000E+00  0.68877988369E+02  0.68877988369E+02  0.00000000000E+00 0.  1.
          1   -1    0    0  501    0  0.00000000000E+00 -0.00000000000E+00 -0.48699653724E+03  0.48699653724E+03  0.00000000000E+00 0. -1.
         23    2    1    2    0    0  0.76586858381E+02  0.10530541161E+03 -0.11603351259E+03  0.21463382505E+03  0.12509646766E+03 0.  0.
          5    1    3    3  502    0  0.10451236439E+03  0.46695894159E+02 -0.84476080011E+02  0.14232716303E+03  0.41800000000E+01 0. -1.
         -5    1    3    3    0  502 -0.27925506008E+02  0.58609517453E+02 -0.31557432582E+02  0.72306662024E+02  0.41800000000E+01 0. -1.
        -11    1    1    2    0    0 -0.72549431476E+02 -0.25020353570E+02 -0.12357109461E+03  0.14546220651E+03  0.00000000000E+00 0.  1.
         11    1    1    2    0    0 -0.40374269047E+01 -0.80285058042E+02 -0.17851394167E+03  0.19577849405E+03  0.00000000000E+00 0. -1.
</event>
<event>
 7    1  0.1243146E-005  0.1105057E+03  0.7561462E-02  0.1259636E+00
         -4   -1    0    0    0  501 -0.00000000000E+00  0.00000000000E+00  0.13598284052E+02  0.13598284052E+02  0.00000000000E+00 0.  1.
          4   -1    0    0  501    0  0.00000000000E+00 -0.00000000000E+00 -0.93872343105E+03  0.93872343105E+03  0.00000000000E+00 0. -1.
         23    2    1    2    0    0 -0.24561656248E+01 -0.28397231331E+02 -0.50887769863E+03  0.52480097271E+03  0.12508842195E+03 0.  0.
          5    1    3    3  502    0 -0.31912855655E+02 -0.69777649220E+02 -0.28321154571E+03  0.29345119307E+03  0.41800000000E+01 0.  1.
         -5    1    3    3    0  502  0.29456690031E+02  0.41380417889E+02 -0.22566615291E+03  0.23134977965E+03  0.41800000000E+01 0.  1.
        -11    1    1    2    0    0  0.40422038744E+02 -0.73167629922E+01 -0.12304080599E+03  0.12971706200E+03  0.00000000000E+00 0.  1.
         11    1    1    2    0    0 -0.37965873120E+02  0.35713994324E+02 -0.29320664239E+03  0.29780368039E+03  0.00000000000E+00 0. -1.
</event>
<event>
 7    1  0.1243146E-005  0.1090279E+03  0.7561462E-02  0.1262381E+00
         -2   -1    0    0    0  501 -0.00000000000E+00  0.00000000000E+00  0.65909105284E+02  0.65909105284E+02  0.00000000000E+00 0.  1.
          2   -1    0    0  501    0  0.00000000000E+00 -0.00000000000E+00 -0.26824901374E+03  0.26824901374E+03  0.00000000000E+00 0. -1.
         23    2    1    2    0    0 -0.74622520406E+02 -0.26593519266E+01 -0.12112327157E+03  0.18945388928E+03  0.12508531706E+03 0.  0.
          5    1    3    3  502    0 -0.59488555038E+02  0.32988483674E+02 -0.65795441854E+01  0.68468175361E+02  0.41800000000E+01 0. -1.
         -5    1    3    3    0  502 -0.15133965368E+02 -0.35647835600E+02 -0.11454372738E+03  0.12098571392E+03  0.41800000000E+01 0. -1.
        -11    1    1    2    0    0 -0.11216729819E+02  0.20417196516E+02  0.25796800749E+01  0.23437826066E+02  0.00000000000E+00 0.  1.
         11    1    1    2    0    0  0.85839250225E+02 -0.17757844590E+02 -0.83796316967E+02  0.12126640368E+03  0.00000000000E+00 0. -1.
</event>
<event>
 7    1  0.1243146E-005  0.1053603E+03  0.7561462E-02  0.1269411E+00
         -2   -1    0    0    0  501 -0.00000000000E+00  0.00000000000E+00  0.53129256347E+02  0.53129256347E+02  0.00000000000E+00 0.  1.
          2   -1    0    0  501    0  0.00000000000E+00 -0.00000000000E+00 -0.37276583584E+03  0.37276583584E+03  0.00000000000E+00 0. -1.
         23    2    1    2    0    0 -0.75967701052E+02  0.42395980244E+02 -0.13311162550E+03  0.20232340064E+03  0.12509013893E+03 0.  0.
          5    1    3    3  502    0 -0.51979673449E+02  0.68933480548E+02 -0.14106455070E+03  0.16543999231E+03  0.41800000000E+01 0. -1.
         -5    1    3    3    0  502 -0.23988027603E+02 -0.26537500304E+02  0.79529251962E+01  0.36883408328E+02  0.41800000000E+01 0. -1.
        -11    1    1    2    0    0  0.26383332147E+02 -0.68456128469E+01  0.68177165664E-01  0.27257059243E+02  0.00000000000E+00 0.  1.
         11    1    1    2    0    0  0.49584368905E+02 -0.35550367397E+02 -0.18659313116E+03  0.19631463230E+03  0.00000000000E+00 0. -1.
</event>
<event>
 7    1  0.1243146E-005  0.1248726E+03  0.7561462E-02  0.1235268E+00
          2   -1    0    0  501    0  0.00000000000E+00  0.00000000000E+00  0.97674174888E+03  0.97674174888E+03  0.00000000000E+00 0. -1.
         -2   -1    0    0    0  501 -0.00000000000E+00 -0.00000000000E+00 -0.18154484859E+02  0.18154484859E+02  0.00000000000E+00 0.  1.
         23    2    1    2    0    0 -0.54314773083E+02  0.52325368425E+02  0.53319404864E+03  0.55283920183E+03  0.12508897160E+03 0.  0.
          5    1    3    3  502    0 -0.88265938206E+02  0.27241823580E+02  0.25132139966E+03  0.26779266444E+03  0.41800000000E+01 0.  1.
         -5    1    3    3    0  502  0.33951165123E+02  0.25083544845E+02  0.28187264898E+03  0.28504653739E+03  0.41800000000E+01 0.  1.
        -11    1    1    2    0    0  0.19945425238E+02  0.23967359624E+02  0.65205316744E+02  0.72277158542E+02  0.00000000000E+00 0. -1.
         11    1    1    2    0    0  0.34369347845E+02 -0.76292728049E+02  0.36018789863E+03  0.36977987337E+03  0.00000000000E+00 0.  1.
</event>
<event>
 7    1  0.1243146E-005  0.9831560E+02  0.7561462E-02  0.1283878E+00
          1   -1    0    0  501    0  0.00000000000E+00  0.00000000000E+00  0.91422048227E+02  0.91422048227E+02  0.00000000000E+00 0. -1.
         -1   -1    0    0    0  501 -0.00000000000E+00 -0.00000000000E+00 -0.22242741624E+03  0.22242741624E+03  0.00000000000E+00 0.  1.
         23    2    1    2    0    0 -0.68654644590E+02  0.51988270125E+02 -0.11084007809E+03  0.18802511587E+03  0.12510667782E+03 0.  0.
          5    1    3    3  502    0 -0.63562598454E+02  0.62431275596E+02 -0.13861192171E+02  0.90263354376E+02  0.41800000000E+01 0. -1.
         -5    1    3    3    0  502 -0.50920461359E+01 -0.10443005471E+02 -0.96978885919E+02  0.97761761498E+02  0.41800000000E+01 0. -1.
        -11    1    1    2    0    0  0.49206380951E+02 -0.12036522438E+02 -0.50887973106E+02  0.71803423355E+02  0.00000000000E+00 0.  1.
         11    1    1    2    0    0  0.19448263639E+02 -0.39951747686E+02  0.30722683181E+02  0.54020925238E+02  0.00000000000E+00 0. -1.
</event>
<event>
 6    1  0.1243146E-005  0.1328504E+03  0.7561462E-02  0.1223287E+00
          1   -1    0    0  501    0  0.00000000000E+00  0.00000000000E+00  0.27314908891E+03  0.27314908891E+03  0.00000000000E+00 0. -1.
         -1   -1    0    0    0  501 -0.00000000000E+00 -0.00000000000E+00 -0.26275463877E+03  0.26275463877E+03  0.00000000000E+00 0.  1.
          5    1    1    2  502    0  0.88697523253E+02 -0.13292101984E+02  0.63911855914E+02  0.11020947479E+03  0.41800000000E+01 0. -1.
         -5    1    1    2    0  502 -0.63780032242E+01  0.42397150858E+02 -0.21340665332E+03  0.21771097677E+03  0.41800000000E+01 0.  1.
        -11    1    1    2    0    0 -0.66200868724E+01 -0.53034762603E+02  0.59140324658E+02  0.79712543525E+02  0.00000000000E+00 0.  1.
         11    1    1    2    0    0 -0.75699433157E+02  0.23929713730E+02  0.10074892289E+03  0.12827073260E+03  0.00000000000E+00 0. -1.
</event>
<event>
 7    1  0.1243146E-005  0.1383944E+03  0.7561462E-02  0.1215506E+00
         -2   -1    0    0    0  501 -0.00000000000E+00  0.00000000000E+00  0.41235412813E+02  0.41235412813E+02  0.00000000000E+00 0.  1.
          2   -1    0    0  501    0  0.00000000000E+00 -0.00000000000E+00 -0.67598155541E+03  0.67598155541E+03  0.00000000000E+00 0. -1.
         23    2    1    2    0    0 -0.90906440638E+02 -0.62745855479E+02 -0.20127848901E+03  0.26146147536E+03  0.12509216454E+03 0.  0.
          5    1    3    3  502    0  0.45594933816E+01 -0.68614554870E+02 -0.10578569460E+03  0.12624116485E+03  0.41800000000E+01 0. -1.
         -5    1    3    3    0  502 -0.95465934020E+02  0.58686993911E+01 -0.95492794408E+02  0.13522031051E+03  0.41800000000E+01 0. -1.
        -11    1    1    2    0    0  0.36414476201E+02  0.36919820494E+02 -0.68898376595E+02  0.86232670837E+02  0.00000000000E+00 0.  1.
         11    1    1    2    0    0  0.54491964438E+02  0.25826034985E+02 -0.36456927699E+03  0.36952282202E+03  0.00000000000E+00 0. -1.
</event>
<event>
 7    1  0.1243146E-005  0.8303251E+02  0.7561462E-02  0.1320659E+00
          1   -1    0    0  501    0  0.00000000000E+00  0.00000000000E+00  0.13409568714E+03  0.13409568714E+03  0.00000000000E+00 0. -1.
         -1   -1    0    0    0  501 -0.00000000000E+00 -0.00000000000E+00 -0.12511835124E+03  0.12511835124E+03  0.00000000000E+00 0.  1.
         23    2    1    2    0    0 -0.25295822543E+02 -0.58384972045E+02 -0.25790356207E+02  0.14316939045E+03  0.12563299045E+03 0.  0.
          5    1    3    3  502    0 -0.12684383996E+02 -0.54100534560E+01  0.48708647623E+02  0.50795344560E+02  0.41800000000E+01 0. -1.
         -5    1    3    3    0  502 -0.12611438547E+02 -0.52974918589E+02 -0.74499003830E+02  0.92374045887E+02  0.41800000000E+01 0. -1.
        -11    1    1    2    0    0 -0.25539264043E+02  0.27630292002E+02 -0.13001363847E+02  0.39808573271E+02  0.00000000000E+00 0.  1.
         11    1    1    2    0    0  0.50835086586E+02  0.30754680044E+02  0.47769055952E+02  0.76236074658E+02  0.00000000000E+00 0. -1.
</event>
<event>
 7    1  0.1243146E-005  0.1310552E+03  0.7561462E-02  0.1225898E+00
         -1   -1    0    0    0  501 -0.00000000000E+00  0.00000000000E+00  0.70193300951E+03  0.70193300951E+03  0.00000000000E+00 0.  1.
          1   -1    0    0  501    0  0.00000000000E+00 -0.00000000000E+00 -0.25826399588E+02  0.25826399588E+02  0.00000000000E+00 0. -1.
         23    2    1    2    0    0  0.82438628149E+02  0.20935088999E+02  0.37801988426E+03  0.40716271832E+03  0.12509212978E+03 0.  0.
          5    1    3    3  502    0 -0.27256943946E+02 -0.20035660537E+02  0.83058577977E+02  0.89780668643E+02  0.41800000000E+01 0. -1.
         -5    1    3    3    0  502  0.10969557210E+03  0.40970749536E+02  0.29496130628E+03  0.31738204968E+03  0.41800000000E+01 0. -1.
        -11    1    1    2    0    0 -0.60515175962E+02  0.20568311703E+02  0.22358983016E+03  0.23254581080E+03  0.00000000000E+00 0.  1.
         11    1    1    2    0    0 -0.21923452187E+02 -0.41503400702E+02  0.74496895499E+02  0.88050879977E+02  0.00000000000E+00 0. -1.
</event>
<event>
 7    1  0.1243146E-005  0.8618622E+02  0.7561462E-02  0.1312359E+00
         -2   -1    0    0    0  501 -0.00000000000E+00  0.00000000000E+00  0.47882083686E+02  0.47882083686E+02  0.00000000000E+00 0.  1.
          2   -1    0    0  501    0  0.00000000000E+00 -0.00000000000E+00 -0.36238278866E+03  0.36238278866E+03  0.00000000000E+00 0. -1.
         23    2    1    2    0    0 -0.30646995999E+02 -0.21765547087E+02 -0.78156550468E+02  0.15221492068E+03  0.12509179946E+03 0.  0.
          5    1    3    3  502    0 -0.35665191251E+02  0.28587294055E+02 -0.89142727621E+02  0.10026533567E+03  0.41800000000E+01 0.  1.
         -5    1    3    3    0  502  0.50181952520E+01 -0.50352841141E+02  0.10986177153E+02  0.51949585013E+02  0.41800000000E+01 0.  1.
        -11    1    1    2    0    0  0.21178634946E+02  0.45477128516E+02 -0.22425984213E+03  0.22980248168E+03  0.00000000000E+00 0. -1.
         11    1    1    2    0    0  0.94683610530E+01 -0.23711581430E+02 -0.12084312377E+02  0.28247469985E+02  0.00000000000E+00 0.  1.
</event>
<event>
 7    1  0.1243146E-005  0.1312750E+03  0.7561462E-02  0.1225576E+00
         -2   -1    0    0    0  501 -0.00000000000E+00  0.00000000000E+00  0.19914502933E+03  0.19914502933E+03  0.00000000000E+00 0.  1.
          2   -1    0    0  501    0  0.00000000000E+00 -0.00000000000E+00 -0.11631046263E+03  0.11631046263E+03  0.00000000000E+00 0. -1.
         23    2    1    2    0    0 -0.17415240873E+02 -0.98288087615E+02  0.83291111908E+02  0.18042075391E+03  0.12510156009E+03 0.  0.
          5    1    3    3  502    0 -0.39549996803E+02  0.83049316646E+01 -0.39894065356E+01  0.40823545921E+02  0.41800000000E+01 0. -1.
         -5    1    3    3    0  502  0.22134755930E+02 -0.10659301928E+03  0.87280518444E+02  0.13959720799E+03  0.41800000000E+01 0. -1.
        -11    1    1    2    0    0  0.24718355564E+02  0.14073449441E+02  0.33492987105E+02  0.43941316163E+02  0.00000000000E+00 0. -1.
         11    1    1    2    0    0 -0.73031146906E+01  0.84214638174E+02 -0.33949532303E+02  0.91093421884E+02  0.00000000000E+00 0.  1.
</event>
<event>
 7    1  0.1243146E-005  0.2032921E+03  0.7561462E-02  0.1146991E+00
          1   -1    0    0  501    0  0.00000000000E+00  0.00000000000E+00  0.44283720315E+03  0.44283720315E+03  0.00000000000E+00 0.  1.
         -1   -1    0    0    0  501 -0.00000000000E+00 -0.00000000000E+00 -0.11756441112E+03  0.11756441112E+03  0.00000000000E+00 0. -1.
         23    2    1    2    0    0  0.55103904438E+02  0.17824719043E+03  0.80463928557E+02  0.23860396138E+03  0.12509558508E+03 0.  0.
          5    1    3    3  502    0  0.45669457761E+02  0.19207313732E+03  0.50175951332E+02  0.20374711764E+03  0.41800000000E+01 0. -1.
         -5    1    3    3    0  502  0.94344466768E+01 -0.13825946890E+02  0.30287977225E+02  0.34856843745E+02  0.41800000000E+01 0. -1.
        -11    1    1    2    0    0 -0.36101521502E+02 -0.47105375276E+02  0.23462219844E+02  0.63817803117E+02  0.00000000000E+00 0. -1.
         11    1    1    2    0    0 -0.19002382936E+02 -0.13114181516E+03  0.22134664363E+03  0.25797984977E+03  0.00000000000E+00 0.  1.
</event>
<event>
 7    1  0.1243146E-005  0.9923753E+02  0.7561462E-02  0.1281908E+00
          2   -1    0    0  501    0  0.00000000000E+00  0.00000000000E+00  0.35603997384E+03  0.35603997384E+03  0.00000000000E+00 0. -1.
         -2   -1    0    0    0  501 -0.00000000000E+00 -0.00000000000E+00 -0.68188919353E+02  0.68188919353E+02  0.00000000000E+00 0.  1.
         23    2    1    2    0    0  0.29516309531E+02 -0.36592980846E+02  0.17463766148E+02  0.13476788552E+03  0.12508853290E+03 0.  0.
          5    1    3    3  502    0 -0.78788329166E+00  0.25547939564E+02  0.51461319808E+02  0.57611264631E+02  0.41800000000E+01 0. -1.
         -5    1    3    3    0  502  0.30304192822E+02 -0.62140920410E+02 -0.33997553660E+02  0.77156620888E+02  0.41800000000E+01 0. -1.
        -11    1    1    2    0    0  0.33410338408E+02  0.89930124700E+01  0.87661429664E+02  0.94242512894E+02  0.00000000000E+00 0.  1.
         11    1    1    2    0    0 -0.62926647939E+02  0.27599968376E+02  0.18272585867E+03  0.19521849478E+03  0.00000000000E+00 0. -1.
</event>
<event>
 7    1  0.1243146E-005  0.1119568E+03  0.7561462E-02  0.1256988E+00
         -2   -1    0    0    0  501 -0.00000000000E+00  0.00000000000E+00  0.13085261531E+03  0.13085261531E+03  0.00000000000E+00 0.  1.
          2   -1    0    0  501    0  0.00000000000E+00 -0.00000000000E+00 -0.15976802725E+03  0.15976802725E+03  0.00000000000E+00 0. -1.
         23    2    1    2    0    0 -0.76063941326E+02  0.28214035461E+02  0.34855714962E+02  0.15311604589E+03  0.12509135733E+03 0.  0.
          5    1    3    3  502    0  0.13506755072E+02  0.24420104702E+02 -0.30908505871E+02  0.41851906544E+02  0.41800000000E+01 0. -1.
         -5    1    3    3    0  502 -0.89570696398E+02  0.37939307590E+01  0.65764220832E+02  0.11126413935E+03  0.41800000000E+01 0. -1.
        -11    1    1    2    0    0  0.39261566260E+02  0.20976235317E+02 -0.61641697641E+02  0.76034018185E+02  0.00000000000E+00 0.  1.
         11    1    1    2    0    0  0.36802375066E+02 -0.49190270778E+02 -0.21294292576E+01  0.61470578480E+02  0.00000000000E+00 0. -1.
</event>
<event>
 7    1  0.1243146E-005  0.1773206E+03  0.7561462E-02  0.1170422E+00
         -1   -1    0    0    0  501 -0.00000000000E+00  0.00000000000E+00  0.63712708188E+03  0.63712708188E+03  0.00000000000E+00 0.  1.
          1   -1    0    0  501    0  0.00000000000E+00 -0.00000000000E+00 -0.63901425432E+02  0.63901425432E+02  0.00000000000E+00 0. -1.
         23    2    1    2    0    0 -0.47990066013E+00 -0.16536699461E+03  0.36262346840E+03  0.41771817508E+03  0.12508485418E+03 0.  0.
          5    1    3    3  502    0  0.44833700336E+02 -0.95471678273E+02  0.11347512741E+03  0.15498057613E+03  0.41800000000E+01 0.  1.
         -5    1    3    3    0  502 -0.45313600996E+02 -0.69895316338E+02  0.24914834099E+03  0.26273759894E+03  0.41800000000E+01 0.  1.
        -11    1    1    2    0    0 -0.48514514993E+01  0.78222370145E+02  0.32276183649E+02  0.84758644419E+02  0.00000000000E+00 0. -1.
         11    1    1    2    0    0  0.53313521594E+01  0.87144624465E+02  0.17832600440E+03  0.19855168782E+03  0.00000000000E+00 0.  1.
</event>
<event>
 7    1  0.1243146E-005  0.1035998E+03  0.7561462E-02  0.1272903E+00
          1   -1    0    0  501    0  0.00000000000E+00  0.00000000000E+00  0.39717621624E+02  0.39717621624E+02  0.00000000000E+00 0. -1.
         -1   -1    0    0    0  501 -0.00000000000E+00 -0.00000000000E+00 -0.31958447047E+03  0.31958447047E+03  0.00000000000E+00 0.  1.
         23    2    1    2    0    0  0.18028352250E+02  0.26640857819E+02 -0.17676339394E+03  0.21892635402E+03  0.12509474112E+03 0.  0.
          5    1    3    3  502    0 -0.18016997542E+02  0.69044321971E+02 -0.80498823265E+02  0.10765344186E+03  0.41800000000E+01 0.  1.
         -5    1    3    3    0  502  0.36045349792E+02 -0.42403464152E+02 -0.96264570677E+02  0.11127291216E+03  0.41800000000E+01 0.  1.
        -11    1    1    2    0    0  0.28307213781E+02 -0.15423843177E+02 -0.82247617798E+02  0.88339481116E+02  0.00000000000E+00 0.  1.
         11    1    1    2    0    0 -0.46335566031E+02 -0.11217014642E+02 -0.20855837112E+02  0.52036256961E+02  0.00000000000E+00 0. -1.
</event>
<event>
 7    1  0.1243146E-005  0.1154355E+03  0.7561462E-02  0.1250823E+00
         -2   -1    0    0    0  501 -0.00000000000E+00  0.00000000000E+00  0.73569562162E+02  0.73569562162E+02  0.00000000000E+00 0.  1.
          2   -1    0    0  501    0  0.00000000000E+00 -0.00000000000E+00 -0.34223432431E+03  0.34223432431E+03  0.00000000000E+00 0. -1.
         23    2    1    2    0    0  0.22826387697E+02  0.37985899975E+02 -0.46135415650E+01  0.13278460400E+03  0.12508594534E+03 0.  0.
          5    1    3    3  502    0  0.14652975438E+02 -0.45643764785E+02  0.35889968827E+01  0.48253665680E+02  0.41800000000E+01 0. -1.
         -5    1    3    3    0  502  0.81734122589E+01  0.83629664760E+02 -0.82025384478E+01  0.84530938317E+02  0.41800000000E+01 0. -1.
        -11    1    1    2    0    0  0.21069758844E+02 -0.49020753492E+02 -0.10684595511E+03  0.11942791606E+03  0.00000000000E+00 0.  1.
         11    1    1    2    0    0 -0.43896146541E+02  0.11034853517E+02 -0.15720526547E+03  0.16359136641E+03  0.00000000000E+00 0. -1.
</event>
<event>
 7    1  0.1243146E-005  0.1255876E+03  0.7561462E-02  0.1234154E+00
          3   -1    0    0  501    0  0.00000000000E+00  0.00000000000E+00  0.60753901307E+03  0.60753901307E+03  0.00000000000E+00 0. -1.
         -3   -1    0    0    0  501 -0.00000000000E+00 -0.00000000000E+00 -0.31189133995E+02  0.31189133995E+02  0.00000000000E+00 0.  1.
         23    2    1    2    0    0 -0.44895101365E+02 -0.67040252507E+02  0.25669639957E+03  0.29673470548E+03  0.12509387796E+03 0.  0.
          5    1    3    3  502    0 -0.69101056484E+02 -0.91123925766E+02  0.19537994411E+03  0.22642729697E+03  0.41800000000E+01 0. -1.
         -5    1    3    3    0  502  0.24205955119E+02  0.24083673259E+02  0.61316455459E+02  0.70307408506E+02  0.41800000000E+01 0. -1.
        -11    1    1    2    0    0  0.21704785617E+01  0.58780831049E+02  0.85178148017E+02  0.10351431773E+03  0.00000000000E+00 0.  1.
         11    1    1    2    0    0  0.42724622803E+02  0.82594214580E+01  0.23447533149E+03  0.23847912385E+03  0.00000000000E+00 0. -1.
</event>
<event>
 7    1  0.1243146E-005  0.1191053E+03  0.7561462E-02  0.1244580E+00
          2   -1    0    0  501    0  0.00000000000E+00  0.00000000000E+00  0.75074807549E+03  0.75074807549E+03  0.00000000000E+00 0. -1.
         -2   -1    0    0    0  501 -0.00000000000E+00 -0.00000000000E+00 -0.23581285141E+02  0.23581285141E+02  0.00000000000E+00 0.  1.
         23    2    1    2    0    0 -0.23616535709E+01  0.58163717483E+02  0.42408873009E+03  0.44596717858E+03  0.12508748116E+03 0.  0.
          5    1    3    3  502    0 -0.57291609907E+02  0.20544996502E+02  0.11965004072E+03  0.13430573365E+03  0.41800000000E+01 0. -1.
         -5    1    3    3    0  502  0.54929956336E+02  0.37618720981E+02  0.30443868936E+03  0.31166144493E+03  0.41800000000E+01 0. -1.
        -11    1    1    2    0    0  0.46579051120E+02 -0.15603479547E+02  0.21795274303E+03  0.22341995160E+03  0.00000000000E+00 0. -1.
         11    1    1    2    0    0 -0.44217397549E+02 -0.42560237936E+02  0.85125317230E+02  0.10494223045E+03  0.00000000000E+00 0.  1.
</event>
<event>
 7    1  0.1243146E-005  0.8601516E+02  0.7561462E-02  0.1312799E+00
          4   -1    0    0  501    0  0.00000000000E+00  0.00000000000E+00  0.78326199613E+02  0.78326199613E+02  0.00000000000E+00 0.  1.
         -4   -1    0    0    0  501 -0.00000000000E+00 -0.00000000000E+00 -0.19556383746E+03  0.19556383746E+03  0.00000000000E+00 0. -1.
         23    2    1    2    0    0 -0.28441391808E+02  0.34211028826E+02 -0.10927441788E+03  0.17195533032E+03  0.12509368474E+03 0.  0.
          5    1    3    3  502    0 -0.27049231689E+02 -0.34754463844E+02 -0.19178199940E+01  0.44279612979E+02  0.41800000000E+01 0. -1.
         -5    1    3    3    0  502 -0.13921601196E+01  0.68965492670E+02 -0.10735659788E+03  0.12767571734E+03  0.41800000000E+01 0. -1.
        -11    1    1    2    0    0 -0.71837343533E+01 -0.18318872972E+02  0.37305668511E+02  0.42177008539E+02  0.00000000000E+00 0.  1.
         11    1    1    2    0    0  0.35625126162E+02 -0.15892155854E+02 -0.45268888479E+02  0.59757698214E+02  0.00000000000E+00 0. -1.
</event>
<event>
 7    1  0.1243146E-005  0.1516790E+03  0.7561462E-02  0.1198425E+00
         -2   -1    0    0    0  501 -0.00000000000E+00  0.00000000000E+00  0.53699374183E+02  0.53699374183E+02  0.00000000000E+00 0.  1.
          2   -1    0    0  501    0  0.00000000000E+00 -0.00000000000E+00 -0.58412989556E+03  0.58412989556E+03  0.00000000000E+00 0. -1.
         23    2    1    2    0    0 -0.16167701085E+02  0.11012811442E+03 -0.12892838167E+03  0.21132623686E+03  0.12508658856E+03 0.  0.
          5    1    3    3  502    0 -0.67316310756E+02  0.75309211995E+02 -0.10233022023E+03  0.14384682644E+03  0.41800000000E+01 0.  1.
         -5    1    3    3    0  502  0.51148609670E+02  0.34818902429E+02 -0.26598161440E+02  0.67479410412E+02  0.41800000000E+01 0.  1.
        -11    1    1    2    0    0  0.50900015547E+02 -0.76609362365E+02 -0.30556247662E+03  0.31910536363E+03  0.00000000000E+00 0. -1.
         11    1    1    2    0    0 -0.34732314462E+02 -0.33518752060E+02 -0.95939663094E+02  0.10739766926E+03  0.00000000000E+00 0.  1.
</event>
<event>
 7    1  0.1243146E-005  0.7467091E+02  0.7561462E-02  0.1344893E+00
         -2   -1    0    0    0  501 -0.00000000000E+00  0.00000000000E+00  0.31455879395E+02  0.31455879395E+02  0.00000000000E+00 0. -1.
          2   -1    0    0  501    0  0.00000000000E+00 -0.00000000000E+00 -0.40515536634E+03  0.40515536634E+03  0.00000000000E+00 0.  1.
         23    2    1    2    0    0 -0.86324333948E+01  0.20578640424E+02 -0.17213758345E+03  0.21405745630E+03  0.12526471017E+03 0.  0.
          5    1    3    3  502    0 -0.39407489274E+01 -0.18992861694E+02  0.13594403431E+02  0.24052827319E+02  0.41800000000E+01 0. -1.
         -5    1    3    3    0  502 -0.46916844674E+01  0.39571502117E+02 -0.18573198688E+03  0.19000462898E+03  0.41800000000E+01 0. -1.
        -11    1    1    2    0    0  0.46417750504E+02 -0.24210796981E-01 -0.13968032231E+03  0.14719103433E+03  0.00000000000E+00 0.  1.
         11    1    1    2    0    0 -0.37785317109E+02 -0.20554429627E+02 -0.61881581185E+02  0.75362755100E+02  0.00000000000E+00 0. -1.
</event>
<event>
 7    1  0.1243146E-005  0.9566428E+02  0.7561462E-02  0.1289687E+00
         -2   -1    0    0    0  501 -0.00000000000E+00  0.00000000000E+00  0.20092950827E+02  0.20092950827E+02  0.00000000000E+00 0.  1.
          2   -1    0    0  501    0  0.00000000000E+00 -0.00000000000E+00 -0.74599758706E+03  0.74599758706E+03  0.00000000000E+00 0. -1.
         23    2    1    2    0    0  0.58771703899E+01  0.89989755945E+01 -0.28239077303E+03  0.30904238949E+03  0.12508847716E+03 0.  0.
          5    1    3    3  502    0 -0.15732193109E+02 -0.33383723344E+02 -0.24655134758E+03  0.24933313914E+03  0.41800000000E+01 0.  1.
         -5    1    3    3    0  502  0.21609363499E+02  0.42382698939E+02 -0.35839425450E+02  0.59709250345E+02  0.41800000000E+01 0.  1.
        -11    1    1    2    0    0  0.40152467360E+02 -0.35259862744E+02 -0.16187762195E+03  0.17046947834E+03  0.00000000000E+00 0.  1.
         11    1    1    2    0    0 -0.46029637750E+02  0.26260887150E+02 -0.28163624126E+03  0.28657867007E+03  0.00000000000E+00 0. -1.
</event>
<event>
 7    1  0.1243146E-005  0.1706830E+03  0.7561462E-02  0.1177138E+00
         -2   -1    0    0    0  501 -0.00000000000E+00  0.00000000000E+00  0.31679793931E+03  0.31679793931E+03  0.00000000000E+00 0.  1.
          2   -1    0    0  501    0  0.00000000000E+00 -0.00000000000E+00 -0.32128172195E+03  0.32128172195E+03  0.00000000000E+00 0. -1.
         23    2    1    2    0    0 -0.10678116296E+03  0.10333119845E+03  0.25653982096E+03  0.32177491060E+03  0.12508740951E+03 0.  0.
          5    1    3    3  502    0  0.13298914926E+02  0.65247775539E+02  0.10819367043E+03  0.12711206108E+03  0.41800000000E+01 0. -1.
         -5    1    3    3    0  502 -0.12008007789E+03  0.38083422907E+02  0.14834615053E+03  0.19466284952E+03  0.41800000000E+01 0. -1.
        -11    1    1    2    0    0  0.52222851832E+02 -0.49346307158E+02 -0.39780803504E+02  0.82126710704E+02  0.00000000000E+00 0.  1.
         11    1    1    2    0    0  0.54558311132E+02 -0.53984891288E+02 -0.22124280010E+03  0.23417803996E+03  0.00000000000E+00 0. -1.
</event>
<event>
 6    1  0.1243146E-005  0.2632637E+03  0.7561462E-02  0.1105198E+00
          1   -1    0    0  501    0  0.00000000000E+00  0.00000000000E+00  0.33918746948E+03  0.33918746948E+03  0.00000000000E+00 0. -1.
         -1   -1    0    0    0  501 -0.00000000000E+00 -0.00000000000E+00 -0.39456823037E+03  0.39456823037E+03  0.00000000000E+00 0.  1.
          5    1    1    2  502    0 -0.43710491840E+02  0.21338079838E+03 -0.24710581269E+03  0.32942484314E+03  0.41800000000E+01 0. -1.
         -5    1    1    2    0  502  0.78513392807E+02 -0.19474331725E+03  0.27251742255E+02  0.21177686918E+03  0.41800000000E+01 0.  1.
        -11    1    1    2    0    0 -0.50763865101E+02 -0.45002421609E+02  0.12745997454E+03  0.14438917224E+03  0.00000000000E+00 0. -1.
         11    1    1    2    0    0  0.15960964135E+02  0.26364940481E+02  0.37013335009E+02  0.48164815282E+02  0.00000000000E+00 0.  1.
</event>
<event>
 7    1  0.1243146E-005  0.9485793E+02  0.7561462E-02  0.1291496E+00
         -2   -1    0    0    0  501 -0.00000000000E+00  0.00000000000E+00  0.11680569875E+03  0.11680569875E+03  0.00000000000E+00 0.  1.
          2   -1    0    0  501    0  0.00000000000E+00 -0.00000000000E+00 -0.11882374196E+03  0.11882374196E+03  0.00000000000E+00 0. -1.
         23    2    1    2    0    0 -0.18903503809E+02  0.52884708521E+02  0.49616517523E+01  0.12952658738E+03  0.11661210914E+03 0.  0.
          5    1    3    3  502    0 -0.35192247929E+02  0.79107696431E+01 -0.46595667454E+02  0.59073710025E+02  0.41800000000E+01 0. -1.
         -5    1    3    3    0  502  0.16288744120E+02  0.44973938878E+02  0.51557319207E+02  0.70452877351E+02  0.41800000000E+01 0.  1.
        -11    1    1    2    0    0  0.21259075012E+02  0.21926617558E+02  0.25662687818E+01  0.30648173900E+02  0.00000000000E+00 0.  1.
         11    1    1    2    0    0 -0.23555712034E+01 -0.74811326079E+02 -0.95459637392E+01  0.75454679439E+02  0.00000000000E+00 0. -1.
</event>
<event>
 7    1  0.1243146E-005  0.1450245E+03  0.7561462E-02  0.1206724E+00
         -1   -1    0    0    0  501 -0.00000000000E+00  0.00000000000E+00  0.57323761718E+02  0.57323761718E+02  0.00000000000E+00 0.  1.
          1   -1    0    0  501    0  0.00000000000E+00 -0.00000000000E+00 -0.44800131694E+03  0.44800131694E+03  0.00000000000E+00 0. -1.
         23    2    1    2    0    0 -0.70204991051E+02  0.92388293321E+02 -0.16655945885E+03  0.23843898442E+03  0.12508700351E+03 0.  0.
          5    1    3    3  502    0 -0.60802259165E+02  0.70547119091E+01 -0.13244403709E+03  0.14596430742E+03  0.41800000000E+01 0.  1.
         -5    1    3    3    0  502 -0.94027318858E+01  0.85333581412E+02 -0.34115421756E+02  0.92474676994E+02  0.41800000000E+01 0.  1.
        -11    1    1    2    0    0 -0.19128055781E+02 -0.20872442654E+02 -0.27968325973E+02  0.39796590784E+02  0.00000000000E+00 0.  1.
         11    1    1    2    0    0  0.89333046832E+02 -0.71515850667E+02 -0.19614977039E+03  0.22708950345E+03  0.00000000000E+00 0. -1.
</event>
<event>
 7    1  0.1243146E-005  0.1024356E+03  0.7561462E-02  0.1275256E+00
         -2   -1    0    0    0  501 -0.00000000000E+00  0.00000000000E+00  0.19962123262E+03  0.19962123262E+03  0.00000000000E+00 0.  1.
          2   -1    0    0  501    0  0.00000000000E+00 -0.00000000000E+00 -0.11838656092E+03  0.11838656092E+03  0.00000000000E+00 0. -1.
         23    2    1    2    0    0 -0.91943668836E+01 -0.81641110985E+02  0.11742278359E+03  0.19021966958E+03  0.12508239366E+03 0.  0.
          5    1    3    3  502    0  0.19341986191E+02 -0.11012449454E+02  0.11141493994E+03  0.11369321754E+03  0.41800000000E+01 0. -1.
         -5    1    3    3    0  502 -0.28536353075E+02 -0.70628661531E+02  0.60078436493E+01  0.76526452040E+02  0.41800000000E+01 0. -1.
        -11    1    1    2    0    0 -0.27703409416E+02  0.50723576785E+02  0.12703213210E+02  0.59175432073E+02  0.00000000000E+00 0.  1.
         11    1    1    2    0    0  0.36897776299E+02  0.30917534200E+02 -0.48891325102E+02  0.68612691881E+02  0.00000000000E+00 0. -1.
</event>
<event>
 7    1  0.1243146E-005  0.1362060E+03  0.7561462E-02  0.1218527E+00
         -1   -1    0    0    0  501 -0.00000000000E+00  0.00000000000E+00  0.16716808673E+03  0.16716808673E+03  0.00000000000E+00 0.  1.
          1   -1    0    0  501    0  0.00000000000E+00 -0.00000000000E+00 -0.34217088079E+03  0.34217088079E+03  0.00000000000E+00 0. -1.
         23    2    1    2    0    0  0.97709419974E+02 -0.91279878212E+02  0.86614563329E+02  0.20255509196E+03  0.12508931122E+03 0.  0.
          5    1    3    3  502    0  0.77391639896E+02 -0.67373539718E+02  0.11905864307E+03  0.15722942685E+03  0.41800000000E+01 0.  1.
         -5    1    3    3    0  502  0.20317780078E+02 -0.23906338494E+02 -0.32444079737E+02  0.45325665108E+02  0.41800000000E+01 0.  1.
        -11    1    1    2    0    0 -0.54679916338E+02  0.27703758960E+02 -0.42452803134E+02  0.74562939891E+02  0.00000000000E+00 0.  1.
         11    1    1    2    0    0 -0.43029503635E+02  0.63576119251E+02 -0.21916455425E+03  0.23222093567E+03  0.00000000000E+00 0. -1.
</event>
<event>
 7    1  0.1243146E-005  0.8527447E+02  0.7561462E-02  0.1314716E+00
          2   -1    0    0  501    0  0.00000000000E+00  0.00000000000E+00  0.32425067581E+03  0.32425067581E+03  0.00000000000E+00 0. -1.
         -2   -1    0    0    0  501 -0.00000000000E+00 -0.00000000000E+00 -0.39519956301E+02  0.39519956301E+02  0.00000000000E+00 0.  1.
         23    2    1    2    0    0  0.23149593245E+02  0.13713512949E+02  0.13186499503E+03  0.18373996069E+03  0.12509209462E+03 0.  0.
          5    1    3    3  502    0 -0.13340718710E+02  0.31653113415E+02 -0.10068203064E+02  0.36037972717E+02  0.41800000000E+01 0. -1.
         -5    1    3    3    0  502  0.36490311955E+02 -0.17939600467E+02  0.14193319809E+03  0.14770198798E+03  0.41800000000E+01 0. -1.
        -11    1    1    2    0    0 -0.27701152856E+02  0.35845830990E+02  0.70770405528E+02  0.84028136761E+02  0.00000000000E+00 0. -1.
         11    1    1    2    0    0  0.45515596108E+01 -0.49559343939E+02  0.82095318949E+02  0.96002534653E+02  0.00000000000E+00 0.  1.
</event>
<event>
 7    1  0.1243146E-005  0.1321410E+03  0.7561462E-02  0.1224313E+00
          2   -1    0    0  501    0  0.00000000000E+00  0.00000000000E+00  0.49003084021E+03  0.49003084021E+03  0.00000000000E+00 0. -1.
         -2   -1    0    0    0  501 -0.00000000000E+00 -0.00000000000E+00 -0.53351638870E+02  0.53351638870E+02  0.00000000000E+00 0.  1.
         23    2    1    2    0    0 -0.65328853625E+02  0.87411767644E+02  0.15489504363E+03  0.22704612029E+03  0.12509512364E+03 0.  0.
          5    1    3    3  502    0 -0.84777746885E+02  0.37402170892E+02  0.14529104993E+03  0.17237502819E+03  0.41800000000E+01 0. -1.
         -5    1    3    3    0  502  0.19448893260E+02  0.50009596752E+02  0.96039937062E+01  0.54671092100E+02  0.41800000000E+01 0. -1.
        -11    1    1    2    0    0  0.41071818537E+02 -0.19256462908E+02  0.20843430249E+03  0.21331330033E+03  0.00000000000E+00 0. -1.
         11    1    1    2    0    0  0.24257035088E+02 -0.68155304736E+02  0.73349855211E+02  0.10302305846E+03  0.00000000000E+00 0.  1.
</event>
<event>
 7    1  0.1243146E-005  0.9791258E+02  0.7561462E-02  0.1284748E+00
         -2   -1    0    0    0  501 -0.00000000000E+00  0.00000000000E+00  0.44517441123E+03  0.44517441123E+03  0.00000000000E+00 0.  1.
          2   -1    0    0  501    0  0.00000000000E+00 -0.00000000000E+00 -0.10324327988E+03  0.10324327988E+03  0.00000000000E+00 0. -1.
         23    2    1    2    0    0  0.51204941884E+02 -0.46889382941E+01  0.40422815637E+03  0.42625439630E+03  0.12509386776E+03 0.  0.
          5    1    3    3  502    0  0.60972629787E+02 -0.30829474610E+02  0.10277785961E+03  0.12348635112E+03  0.41800000000E+01 0.  1.
         -5    1    3    3    0  502 -0.97676879030E+01  0.26140536316E+02  0.30145029676E+03  0.30276804518E+03  0.41800000000E+01 0.  1.
        -11    1    1    2    0    0 -0.65756241320E+02 -0.21512455211E+02 -0.60882006427E+02  0.92159034871E+02  0.00000000000E+00 0. -1.
         11    1    1    2    0    0  0.14551299436E+02  0.26201393505E+02 -0.14150185838E+01  0.30004259939E+02  0.00000000000E+00 0.  1.
</event>
<event>
 7    1  0.1243146E-005  0.1775545E+03  0.7561462E-02  0.1170191E+00
          2   -1    0    0  501    0  0.00000000000E+00  0.00000000000E+00  0.13440661858E+04  0.13440661858E+04  0.00000000000E+00 0. -1.
         -2   -1    0    0    0  501 -0.00000000000E+00 -0.00000000000E+00 -0.25477543671E+02  0.25477543671E+02  0.00000000000E+00 0.  1.
         23    2    1    2    0    0 -0.13927131520E+03  0.59857766929E+02  0.67647152283E+03  0.70444341523E+03  0.12508937827E+03 0.  0.
          5    1    3    3  502    0 -0.55482530812E+02  0.78136951425E+02  0.22053874783E+03  0.24049637439E+03  0.41800000000E+01 0. -1.
         -5    1    3    3    0  502 -0.83788784386E+02 -0.18279184496E+02  0.45593277500E+03  0.46394704083E+03  0.41800000000E+01 0. -1.
        -11    1    1    2    0    0  0.68571730637E+02 -0.74362750206E+02  0.37770246971E+03  0.39101285974E+03  0.00000000000E+00 0. -1.
         11    1    1    2    0    0  0.70699584561E+02  0.14504983278E+02  0.26441464957E+03  0.27408745448E+03  0.00000000000E+00 0.  1.
</event>
<event>
 7    1  0.1243146E-005  0.1094925E+03  0.7561462E-02  0.1261513E+00
          2   -1    0    0  501    0  0.00000000000E+00  0.00000000000E+00  0.64542813956E+02  0.64542813956E+02  0.00000000000E+00 0.  1.
         -2   -1    0    0    0  501 -0.00000000000E+00 -0.00000000000E+00 -0.22999571804E+03  0.22999571804E+03  0.00000000000E+00 0. -1.
         23    2    1    2    0    0  0.21458864720E+02  0.41293618011E+02 -0.12847505987E+03  0.18525275237E+03  0.12508835073E+03 0.  0.
          5    1    3    3  502    0 -0.81211291643E+01 -0.36124753011E+02 -0.66495604569E+01  0.37850225538E+02  0.41800000000E+01 0.  1.
         -5    1    3    3    0  502  0.29579993884E+02  0.77418371021E+02 -0.12182549941E+03  0.14740252683E+03  0.41800000000E+01 0.  1.
        -11    1    1    2    0    0  0.12544049027E+02 -0.59059479263E+02 -0.73702198015E+01  0.60825121428E+02  0.00000000000E+00 0.  1.
         11    1    1    2    0    0 -0.34002913747E+02  0.17765861252E+02 -0.29607624409E+02  0.48460658192E+02  0.00000000000E+00 0. -1.
</event>
<event>
 7    1  0.1243146E-005  0.6054532E+02  0.7561462E-02  0.1395557E+00
          1   -1    0    0  501    0  0.00000000000E+00  0.00000000000E+00  0.11627999598E+03  0.11627999598E+03  0.00000000000E+00 0. -1.
         -1   -1    0    0    0  501 -0.00000000000E+00 -0.00000000000E+00 -0.10715689024E+03  0.10715689024E+03  0.00000000000E+00 0.  1.
         23    2    1    2    0    0  0.19677036123E+02  0.10120795657E+02 -0.12945353453E+02  0.12769284275E+03  0.12509302002E+03 0.  0.
          5    1    3    3  502    0  0.41792606891E-01  0.37614006480E+02 -0.59198791465E+02  0.70262255450E+02  0.41800000000E+01 0. -1.
         -5    1    3    3    0  502  0.19635243517E+02 -0.27493210823E+02  0.46253438011E+02  0.57430587296E+02  0.41800000000E+01 0. -1.
        -11    1    1    2    0    0 -0.10610066218E+02 -0.27568421121E+02  0.52074484290E+02  0.59869385018E+02  0.00000000000E+00 0. -1.
         11    1    1    2    0    0 -0.90669699053E+01  0.17447625464E+02 -0.30006025096E+02  0.35874658460E+02  0.00000000000E+00 0.  1.
</event>
<event>
 7    1  0.1243146E-005  0.1780104E+03  0.7561462E-02  0.1169743E+00
          2   -1    0    0  501    0  0.00000000000E+00  0.00000000000E+00  0.33281207577E+03  0.33281207577E+03  0.00000000000E+00 0.  1.
         -2   -1    0    0    0  501 -0.00000000000E+00 -0.00000000000E+00 -0.11865200666E+03  0.11865200666E+03  0.00000000000E+00 0. -1.
         23    2    1    2    0    0 -0.11610944017E+02 -0.14573963670E+03  0.21172068470E+02  0.19357320493E+03  0.12508986153E+03 0.  0.
          5    1    3    3  502    0 -0.60023412009E+01  0.21413796448E+02 -0.74901908031E+01  0.23835984068E+02  0.41800000000E+01 0. -1.
         -5    1    3    3    0  502 -0.56086028157E+01 -0.16715343315E+03  0.28662259273E+02  0.16973722086E+03  0.41800000000E+01 0. -1.
        -11    1    1    2    0    0 -0.33976849005E+02  0.66409355051E+02  0.11795184733E+03  0.13956097949E+03  0.00000000000E+00 0.  1.
         11    1    1    2    0    0  0.45587793022E+02  0.79330281651E+02  0.75036153307E+02  0.11832989801E+03  0.00000000000E+00 0. -1.
</event>
<event>
 7    1  0.1243146E-005  0.1094111E+03  0.7561462E-02  0.1261664E+00
         -1   -1    0    0    0  501 -0.00000000000E+00  0.00000000000E+00  0.38261716469E+03  0.38261716469E+03  0.00000000000E+00 0.  1.
          1   -1    0    0  501    0  0.00000000000E+00 -0.00000000000E+00 -0.11783658680E+03  0.11783658680E+03  0.00000000000E+00 0. -1.
         23    2    1    2    0    0 -0.51419683506E+01 -0.77008981438E+02  0.33688175877E+03  0.36755064278E+03  0.12508929833E+03 0.  0.
          5    1    3    3  502    0 -0.14422141473E+02  0.26264719734E+02  0.15693967670E+03  0.15982918442E+03  0.41800000000E+01 0. -1.
         -5    1    3    3    0  502  0.92801731227E+01 -0.10327370117E+03  0.17994208207E+03  0.20772145836E+03  0.41800000000E+01 0. -1.
        -11    1    1    2    0    0  0.19896691506E+02  0.34876393588E+02  0.82427832005E+01  0.40990055349E+02  0.00000000000E+00 0.  1.
         11    1    1    2    0    0 -0.14754723156E+02  0.42132587850E+02 -0.80343964074E+02  0.91913053357E+02  0.00000000000E+00 0. -1.
</event>
<event>
 7    1  0.2049256E-005  0.1830776E+03  0.7561462E-02  0.1164857E+00
          1   -1    0    0  501    0  0.00000000000E+00  0.00000000000E+00  0.22853085755E+03  0.22853085755E+03  0.00000000000E+00 0. -1.
         -1   -1    0    0    0  501 -0.00000000000E+00 -0.00000000000E+00 -0.15490630044E+03  0.15490630044E+03  0.00000000000E+00 0.  1.
         23    2    1    2    0    0  0.54765345510E+02 -0.13658872831E+03 -0.26011992570E+01  0.19315800810E+03  0.12509007190E+03 0.  0.
          5    1    3    3  502    0 -0.66891824839E+01 -0.13014171192E+03  0.65887358391E+01  0.13054690415E+03  0.41800000000E+01 0. -1.
         -5    1    3    3    0  502  0.61454527994E+02 -0.64470163871E+01 -0.91899350961E+01  0.62611103954E+02  0.41800000000E+01 0. -1.
        -11    1    1    2    0    0  0.24557185168E+02  0.54043043028E+02  0.32944312560E+02  0.67889863552E+02  0.00000000000E+00 0.  1.
         11    1    1    2    0    0 -0.79322530677E+02  0.82545685277E+02  0.43281443804E+02  0.12238928633E+03  0.00000000000E+00 0. -1.
</event>
<event>
 7    1  0.1243146E-005  0.1018233E+03  0.7561462E-02  0.1276508E+00
         -1   -1    0    0    0  501 -0.00000000000E+00  0.00000000000E+00  0.51813188852E+03  0.51813188852E+03  0.00000000000E+00 0.  1.
          1   -1    0    0  501    0  0.00000000000E+00 -0.00000000000E+00 -0.22656611529E+02  0.22656611529E+02  0.00000000000E+00 0. -1.
         23    2    1    2    0    0  0.17830318939E+02  0.31689122543E+02  0.31216567718E+03  0.33425964076E+03  0.11384189331E+03 0.  0.
          5    1    3    3  502    0 -0.21319263721E+02 -0.33824010844E+02  0.75181522888E+02  0.85254375248E+02  0.41800000000E+01 0. -1.
         -5    1    3    3    0  502  0.39149582660E+02  0.65513133387E+02  0.23698415429E+03  0.24900526551E+03  0.41800000000E+01 0.  1.
        -11    1    1    2    0    0 -0.41858031005E+02  0.60303838945E+01  0.13126193473E+03  0.13790632980E+03  0.00000000000E+00 0.  1.
         11    1    1    2    0    0  0.24027712065E+02 -0.37719506438E+02  0.52047665087E+02  0.68622529493E+02  0.00000000000E+00 0. -1.
</event>
<event>
 7    1  0.1243146E-005  0.9312248E+02  0.7561462E-02  0.1295462E+00
          1   -1    0    0  501    0  0.00000000000E+00  0.00000000000E+00  0.28673419441E+03  0.28673419441E+03  0.00000000000E+00 0. -1.
         -1   -1    0    0    0  501 -0.00000000000E+00 -0.00000000000E+00 -0.67519619353E+02  0.67519619353E+02  0.00000000000E+00 0.  1.
         23    2    1    2    0    0 -0.18179700778E+01  0.45860619851E+02  0.23829929894E+02  0.13534601324E+03  0.12507668157E+03 0.  0.
          5    1    3    3  502    0  0.51937795250E+02  0.15834074533E+02  0.44430313162E+02  0.70283551557E+02  0.41800000000E+01 0.  1.
         -5    1    3    3    0  502 -0.53755765328E+02  0.30026545318E+02 -0.20600383268E+02  0.65062461685E+02  0.41800000000E+01 0.  1.
        -11    1    1    2    0    0  0.23844540067E+02 -0.60922304318E+01  0.76867839864E+01  0.25783017874E+02  0.00000000000E+00 0.  1.
         11    1    1    2    0    0 -0.22026569989E+02 -0.39768389419E+02  0.18769786117E+03  0.19312478264E+03  0.00000000000E+00 0. -1.
</event>
<event>
 7    1  0.1243146E-005  0.1777582E+03  0.7561462E-02  0.1169990E+00
          2   -1    0    0  501    0  0.00000000000E+00  0.00000000000E+00  0.20775955285E+03  0.20775955285E+03  0.00000000000E+00 0. -1.
         -2   -1    0    0    0  501 -0.00000000000E+00 -0.00000000000E+00 -0.18445188035E+03  0.18445188035E+03  0.00000000000E+00 0.  1.
         23    2    1    2    0    0  0.15518031801E+03 -0.45071351884E+02 -0.29631855057E+01  0.20437564094E+03  0.12509302252E+03 0.  0.
          5    1    3    3  502    0  0.15441252478E+03 -0.12930501543E+02  0.30281681456E+02  0.15793947674E+03  0.41800000000E+01 0.  1.
         -5    1    3    3    0  502  0.76779322977E+00 -0.32140850341E+02 -0.33244866962E+02  0.46436164209E+02  0.41800000000E+01 0.  1.
        -11    1    1    2    0    0 -0.11273530527E+03  0.53543133413E+02  0.54475096143E+02  0.13617507955E+03  0.00000000000E+00 0.  1.
         11    1    1    2    0    0 -0.42445012744E+02 -0.84717815286E+01 -0.28204238142E+02  0.51660712715E+02  0.00000000000E+00 0. -1.
</event>
<event>
 7    1  0.1243146E-005  0.1038408E+03  0.7561462E-02  0.1272421E+00
         -3   -1    0    0    0  501 -0.00000000000E+00  0.00000000000E+00  0.16154982547E+03  0.16154982547E+03  0.00000000000E+00 0.  1.
          3   -1    0    0  501    0  0.00000000000E+00 -0.00000000000E+00 -0.17853604762E+03  0.17853604762E+03  0.00000000000E+00 0. -1.
         23    2    1    2    0    0  0.14231008246E+02  0.12668372766E+02  0.11960474514E+03  0.17411433008E+03  0.12508995010E+03 0.  0.
          5    1    3    3  502    0  0.49193094171E+02 -0.31812647126E+02  0.25060043803E+02  0.63855173845E+02  0.41800000000E+01 0.  1.
         -5    1    3    3    0  502 -0.34962085925E+02  0.44481019893E+02  0.94544701333E+02  0.11025915623E+03  0.41800000000E+01 0.  1.
        -11    1    1    2    0    0 -0.46890866813E+02  0.15191364847E+02 -0.55567411137E+02  0.74278315388E+02  0.00000000000E+00 0.  1.
         11    1    1    2    0    0  0.32659858567E+02 -0.27859737613E+02 -0.81023556153E+02  0.91693227630E+02  0.00000000000E+00 0. -1.
</event>
<event>
 7    1  0.1243146E-005  0.8369864E+02  0.7561462E-02  0.1318871E+00
         -1   -1    0    0    0  501 -0.00000000000E+00  0.00000000000E+00  0.14509012578E+03  0.14509012578E+03  0.00000000000E+00 0.  1.
          1   -1    0    0  501    0  0.00000000000E+00 -0.00000000000E+00 -0.97106110877E+02  0.97106110877E+02  0.00000000000E+00 0. -1.
         23    2    1    2    0    0  0.12555482848E+02  0.25952411391E+02  0.65033533649E+02  0.14390018450E+03  0.12508690896E+03 0.  0.
          5    1    3    3  502    0 -0.55768191989E+02  0.19323550703E+02  0.35930767824E+02  0.69224152764E+02  0.41800000000E+01 0.  1.
         -5    1    3    3    0  502  0.68323674836E+02  0.66288606877E+01  0.29102765825E+02  0.74676031736E+02  0.41800000000E+01 0.  1.
        -11    1    1    2    0    0 -0.20392921363E+02 -0.12592337646E+02  0.35878869006E+02  0.43147786157E+02  0.00000000000E+00 0.  1.
         11    1    1    2    0    0  0.78374385156E+01 -0.13360073744E+02 -0.52928387751E+02  0.55148266000E+02  0.00000000000E+00 0. -1.
</event>
<event>
 7    1  0.1243146E-005  0.9115022E+02  0.7561462E-02  0.1300090E+00
         -2   -1    0    0    0  501 -0.00000000000E+00  0.00000000000E+00  0.23760399370E+03  0.23760399370E+03  0.00000000000E+00 0.  1.
          2   -1    0    0  501    0  0.00000000000E+00 -0.00000000000E+00 -0.58824683961E+02  0.58824683961E+02  0.00000000000E+00 0. -1.
         23    2    1    2    0    0 -0.33802572231E+02  0.85104526148E+01  0.14860407728E+03  0.19452664740E+03  0.12059188642E+03 0.  0.
          5    1    3    3  502    0 -0.10006747779E+02 -0.52193236310E+02  0.35948893121E+02  0.64296689139E+02  0.41800000000E+01 0. -1.
         -5    1    3    3    0  502 -0.23795824452E+02  0.60703688925E+02  0.11265518416E+03  0.13022995826E+03  0.41800000000E+01 0.  1.
        -11    1    1    2    0    0  0.12411365599E+01 -0.26451464051E+02 -0.24306370571E+02  0.35944680006E+02  0.00000000000E+00 0. -1.
         11    1    1    2    0    0  0.32561435671E+02  0.17941011436E+02  0.54481603030E+02  0.65957350258E+02  0.00000000000E+00 0.  1.
</event>
<event>
 7    1  0.1243146E-005  0.1801361E+03  0.7561462E-02  0.1167671E+00
          1   -1    0    0  501    0  0.00000000000E+00  0.00000000000E+00  0.37900668401E+03  0.37900668401E+03  0.00000000000E+00 0. -1.
         -1   -1    0    0    0  501 -0.00000000000E+00 -0.00000000000E+00 -0.99550172758E+02  0.99550172758E+02  0.00000000000E+00 0.  1.
         23    2    1    2    0    0 -0.58803740855E+02 -0.14704398066E+03  0.11296493563E+03  0.23127826785E+03  0.12509495717E+03 0.  0.
          5    1    3    3  502    0 -0.78420068620E+02 -0.32057701594E+02  0.53450963893E+02  0.10025907109E+03  0.41800000000E+01 0.  1.
         -5    1    3    3    0  502  0.19616327765E+02 -0.11498627906E+03  0.59513971736E+02  0.13101919676E+03  0.41800000000E+01 0.  1.
        -11    1    1    2    0    0  0.36958064298E+02  0.10555856807E+03  0.16627864712E+03  0.20039236088E+03  0.00000000000E+00 0. -1.
         11    1    1    2    0    0  0.21845676557E+02  0.41485412587E+02  0.21292850475E+00  0.46886228045E+02  0.00000000000E+00 0.  1.
</event>
<event>
 7    1  0.1243146E-005  0.9545059E+02  0.7561462E-02  0.1290164E+00
          4   -1    0    0  501    0  0.00000000000E+00  0.00000000000E+00  0.41290341674E+03  0.41290341674E+03  0.00000000000E+00 0. -1.
         -4   -1    0    0    0  501 -0.00000000000E+00 -0.00000000000E+00 -0.32216794788E+02  0.32216794788E+02  0.00000000000E+00 0.  1.
         23    2    1    2    0    0  0.24469961473E+02  0.27970860669E+02  0.19571547693E+03  0.23522929173E+03  0.12508846357E+03 0.  0.
          5    1    3    3  502    0  0.13151942819E+02 -0.46153161297E+02  0.11653325862E+03  0.12609742528E+03  0.41800000000E+01 0. -1.
         -5    1    3    3    0  502  0.11318018654E+02  0.74124021966E+02  0.79182218311E+02  0.10913186645E+03  0.41800000000E+01 0. -1.
        -11    1    1    2    0    0  0.12927289135E+02 -0.27322726437E+02  0.16449687436E+03  0.16725091288E+03  0.00000000000E+00 0. -1.
         11    1    1    2    0    0 -0.37397250608E+02 -0.64813423234E+00  0.20474270663E+02  0.42640006921E+02  0.00000000000E+00 0.  1.
</event>
<event>
 7    1  0.1243146E-005  0.6705063E+02  0.7561462E-02  0.1370420E+00
         -4   -1    0    0    0  501 -0.00000000000E+00  0.00000000000E+00  0.97699592272E+03  0.97699592272E+03  0.00000000000E+00 0.  1.
          4   -1    0    0  501    0  0.00000000000E+00 -0.00000000000E+00 -0.21259854757E+02  0.21259854757E+02  0.00000000000E+00 0. -1.
         23    2    1    2    0    0 -0.26990630825E+02 -0.24262892651E+02  0.82443060915E+03  0.83465600381E+03  0.12509050039E+03 0.  0.
          5    1    3    3  502    0 -0.28093208429E+01 -0.66277407109E+01 -0.12544314996E+01  0.84181487820E+01  0.41800000000E+01 0. -1.
         -5    1    3    3    0  502 -0.24181309982E+02 -0.17635151940E+02  0.82568504065E+03  0.82623785503E+03  0.41800000000E+01 0. -1.
        -11    1    1    2    0    0  0.25715922403E+02 -0.31001305409E+02  0.72179882124E+02  0.82657879150E+02  0.00000000000E+00 0.  1.
         11    1    1    2    0    0  0.12747084224E+01  0.55264198060E+02  0.59125576693E+02  0.80941894517E+02  0.00000000000E+00 0. -1.
</event>
<event>
 7    1  0.1243146E-005  0.1075909E+03  0.7561462E-02  0.1265097E+00
          2   -1    0    0  501    0  0.00000000000E+00  0.00000000000E+00  0.44410725195E+03  0.44410725195E+03  0.00000000000E+00 0. -1.
         -2   -1    0    0    0  501 -0.00000000000E+00 -0.00000000000E+00 -0.32286327936E+02  0.32286327936E+02  0.00000000000E+00 0.  1.
         23    2    1    2    0    0 -0.36960042285E+02  0.11549682188E+02  0.16310208796E+03  0.20916259543E+03  0.12508900970E+03 0.  0.
          5    1    3    3  502    0  0.34339982987E+02 -0.32052786741E+02  0.62849851368E+02  0.78576025519E+02  0.41800000000E+01 0. -1.
         -5    1    3    3    0  502 -0.71300025272E+02  0.43602468929E+02  0.10025223659E+03  0.13058656991E+03  0.41800000000E+01 0. -1.
        -11    1    1    2    0    0  0.88390516304E+01  0.31613584372E+02  0.37578014592E+02  0.49896440066E+02  0.00000000000E+00 0.  1.
         11    1    1    2    0    0  0.28120990655E+02 -0.43163266560E+02  0.21114082147E+03  0.21733454439E+03  0.00000000000E+00 0. -1.
</event>
<event>
 7    1  0.1243146E-005  0.1336854E+03  0.7561462E-02  0.1222087E+00
          1   -1    0    0  501    0  0.00000000000E+00  0.00000000000E+00  0.45590992458E+03  0.45590992458E+03  0.00000000000E+00 0. -1.
         -1   -1    0    0    0  501 -0.00000000000E+00 -0.00000000000E+00 -0.61879534388E+02  0.61879534388E+02  0.00000000000E+00 0.  1.
         23    2    1    2    0    0  0.10565739552E+03 -0.69591641616E+02  0.19266235478E+03  0.26223952154E+03  0.12507718376E+03 0.  0.
          5    1    3    3  502    0  0.23530996635E+02 -0.47113742711E+02  0.14099377693E+01  0.52847638353E+02  0.41800000000E+01 0. -1.
         -5    1    3    3    0  502  0.82126398884E+02 -0.22477898904E+02  0.19125241701E+03  0.20939188319E+03  0.41800000000E+01 0. -1.
        -11    1    1    2    0    0 -0.49008493003E+02  0.48200368490E+02  0.32270542672E+02  0.75937446845E+02  0.00000000000E+00 0.  1.
         11    1    1    2    0    0 -0.56648902516E+02  0.21391273126E+02  0.16909749274E+03  0.17961249058E+03  0.00000000000E+00 0. -1.
</event>
<event>
 7    1  0.1243146E-005  0.1529097E+03  0.7561462E-02  0.1196943E+00
         -1   -1    0    0    0  501 -0.00000000000E+00  0.00000000000E+00  0.11033769567E+03  0.11033769567E+03  0.00000000000E+00 0.  1.
          1   -1    0    0  501    0  0.00000000000E+00 -0.00000000000E+00 -0.24009213589E+03  0.24009213589E+03  0.00000000000E+00 0. -1.
         23    2    1    2    0    0 -0.10657714026E+03 -0.53538869989E+02 -0.45126840041E+02  0.17863316360E+03  0.12509307742E+03 0.  0.
          5    1    3    3  502    0 -0.12093424156E+03 -0.21135946855E+02 -0.22646180046E+01  0.12285935018E+03  0.41800000000E+01 0.  1.
         -5    1    3    3    0  502  0.14357101299E+02 -0.32402923133E+02 -0.42862222037E+02  0.55773813418E+02  0.41800000000E+01 0.  1.
        -11    1    1    2    0    0  0.68679984119E+02  0.76640181307E+02 -0.45084845313E+02  0.11235346406E+03  0.00000000000E+00 0.  1.
         11    1    1    2    0    0  0.37897156145E+02 -0.23101311319E+02 -0.39542754865E+02  0.59443203908E+02  0.00000000000E+00 0. -1.
</event>
<event>
 7    1  0.1243146E-005  0.7288166E+02  0.7561462E-02  0.1350559E+00
          1   -1    0    0  501    0  0.00000000000E+00  0.00000000000E+00  0.16486997250E+03  0.16486997250E+03  0.00000000000E+00 0.  1.
         -1   -1    0    0    0  501 -0.00000000000E+00 -0.00000000000E+00 -0.97134716662E+02  0.97134716662E+02  0.00000000000E+00 0. -1.
         23    2    1    2    0    0  0.17606925057E+02 -0.64887512300E+02  0.39814681305E+02  0.14748618260E+03  0.12508625883E+03 0.  0.
          5    1    3    3  502    0  0.15458500387E+02 -0.51680804531E+02  0.84676034392E+02  0.10048569048E+03  0.41800000000E+01 0.  1.
         -5    1    3    3    0  502  0.21484246701E+01 -0.13206707769E+02 -0.44861353087E+02  0.47000492119E+02  0.41800000000E+01 0.  1.
        -11    1    1    2    0    0 -0.25973738319E+02  0.22283776696E+02  0.53955336414E+02  0.63893506036E+02  0.00000000000E+00 0.  1.
         11    1    1    2    0    0  0.83668132612E+01  0.42603735604E+02 -0.26034761884E+02  0.50625000523E+02  0.00000000000E+00 0. -1.
</event>
<event>
 7    1  0.1243146E-005  0.1413125E+03  0.7561462E-02  0.1211574E+00
         -2   -1    0    0    0  501 -0.00000000000E+00  0.00000000000E+00  0.14561620949E+03  0.14561620949E+03  0.00000000000E+00 0.  1.
          2   -1    0    0  501    0  0.00000000000E+00 -0.00000000000E+00 -0.17979272698E+03  0.17979272698E+03  0.00000000000E+00 0. -1.
         23    2    1    2    0    0  0.12144849855E+03  0.30918631835E+02  0.26146423867E+02  0.17898912687E+03  0.12509105668E+03 0.  0.
          5    1    3    3  502    0 -0.15781644446E+02 -0.51690808984E-01  0.34323341292E+02  0.38008250825E+02  0.41800000000E+01 0. -1.
         -5    1    3    3    0  502  0.13723014300E+03  0.30970322644E+02 -0.81769174249E+01  0.14098087604E+03  0.41800000000E+01 0. -1.
        -11    1    1    2    0    0 -0.61817044950E+02 -0.11791561557E+02 -0.54687922062E+01  0.63168787059E+02  0.00000000000E+00 0. -1.
         11    1    1    2    0    0 -0.59631453599E+02 -0.19127070278E+02 -0.54854149149E+02  0.83251022544E+02  0.00000000000E+00 0.  1.
</event>
<event>
 7    1  0.1243146E-005  0.9513245E+02  0.7561462E-02  0.1290878E+00
          1   -1    0    0  501    0  0.00000000000E+00  0.00000000000E+00  0.55610323728E+03  0.55610323728E+03  0.00000000000E+00 0. -1.
         -1   -1    0    0    0  501 -0.00000000000E+00 -0.00000000000E+00 -0.20921456823E+02  0.20921456823E+02  0.00000000000E+00 0.  1.
         23    2    1    2    0    0 -0.22300876120E+01  0.10929162082E+01  0.32174720485E+03  0.34521134816E+03  0.12507375148E+03 0.  0.
          5    1    3    3  502    0  0.46066793947E+02  0.20509303995E+02  0.25746873275E+03  0.26239360091E+03  0.41800000000E+01 0. -1.
         -5    1    3    3    0  502 -0.48296881559E+02 -0.19416387787E+02  0.64278472104E+02  0.82817747247E+02  0.41800000000E+01 0. -1.
        -11    1    1    2    0    0  0.43436500404E+02  0.10402771786E+02  0.79194505721E+02  0.90921487915E+02  0.00000000000E+00 0.  1.
         11    1    1    2    0    0 -0.41206412792E+02 -0.11495687994E+02  0.13424006989E+03  0.14089185804E+03  0.00000000000E+00 0. -1.
</event>
<event>
 7    1  0.1559408E-005  0.1562888E+03  0.7561462E-02  0.1192952E+00
         -1   -1    0    0    0  501 -0.00000000000E+00  0.00000000000E+00  0.63077659894E+02  0.63077659894E+02  0.00000000000E+00 0.  1.
          1   -1    0    0  501    0  0.00000000000E+00 -0.00000000000E+00 -0.55814078734E+03  0.55814078734E+03  0.00000000000E+00 0. -1.
         23    2    1    2    0    0 -0.11360829303E+03 -0.10047082439E+03 -0.28771949233E+03  0.34846988611E+03  0.12509006541E+03 0.  0.
          5    1    3    3  502    0 -0.85076109458E+02 -0.97337410458E+02 -0.29179588863E+03  0.31917836534E+03  0.41800000000E+01 0. -1.
         -5    1    3    3    0  502 -0.28532183577E+02 -0.31334139284E+01  0.40763963092E+01  0.29291520776E+02  0.41800000000E+01 0. -1.
        -11    1    1    2    0    0  0.24102536957E+02  0.38279589983E+02 -0.85487008032E+01  0.46036285498E+02  0.00000000000E+00 0.  1.
         11    1    1    2    0    0  0.89505756078E+02  0.62191234404E+02 -0.19879493431E+03  0.22671227562E+03  0.00000000000E+00 0. -1.
</event>
<event>
 7    1  0.1243146E-005  0.9636423E+02  0.7561462E-02  0.1288133E+00
         -4   -1    0    0    0  501 -0.00000000000E+00  0.00000000000E+00  0.95179230057E+02  0.95179230057E+02  0.00000000000E+00 0.  1.
          4   -1    0    0  501    0  0.00000000000E+00 -0.00000000000E+00 -0.17298323577E+03  0.17298323577E+03  0.00000000000E+00 0. -1.
         23    2    1    2    0    0  0.44105270035E+02  0.36542958050E+02 -0.65091174806E+01  0.13773124334E+03  0.12508742605E+03 0.  0.
          5    1    3    3  502    0  0.73914691266E+02  0.16002322873E+01  0.28998791320E+02  0.79525748197E+02  0.41800000000E+01 0.  1.
         -5    1    3    3    0  502 -0.29809421231E+02  0.34942725763E+02 -0.35507908800E+02  0.58205495146E+02  0.41800000000E+01 0.  1.
        -11    1    1    2    0    0 -0.26245598514E+02  0.55563182260E+01  0.16460796058E+02  0.31474782294E+02  0.00000000000E+00 0.  1.
         11    1    1    2    0    0 -0.17859671521E+02 -0.42099276276E+02 -0.87755684291E+02  0.98956440191E+02  0.00000000000E+00 0. -1.
</event>
<event>
 7    1  0.1243146E-005  0.1048098E+03  0.7561462E-02  0.1270495E+00
         -1   -1    0    0    0  501 -0.00000000000E+00  0.00000000000E+00  0.77350180585E+02  0.77350180585E+02  0.00000000000E+00 0.  1.
          1   -1    0    0  501    0  0.00000000000E+00 -0.00000000000E+00 -0.15362723414E+03  0.15362723414E+03  0.00000000000E+00 0. -1.
         23    2    1    2    0    0 -0.18171385252E+00 -0.27867656782E+01 -0.28414669179E+02  0.12831415915E+03  0.12509728586E+03 0.  0.
          5    1    3    3  502    0  0.58052283177E+02  0.13423501806E+02 -0.31722107079E+02  0.67631519725E+02  0.41800000000E+01 0.  1.
         -5    1    3    3    0  502 -0.58233997030E+02 -0.16210267484E+02  0.33074378997E+01  0.60682639424E+02  0.41800000000E+01 0.  1.
        -11    1    1    2    0    0 -0.23238283293E+02  0.39453496947E+02 -0.15151608902E+02  0.48230358532E+02  0.00000000000E+00 0. -1.
         11    1    1    2    0    0  0.23419997145E+02 -0.36666731269E+02 -0.32710775471E+02  0.54432897040E+02  0.00000000000E+00 0.  1.
</event>
<event>
 7    1  0.1243146E-005  0.2261552E+03  0.7561462E-02  0.1129376E+00
          2   -1    0    0  501    0  0.00000000000E+00  0.00000000000E+00  0.90344460868E+03  0.90344460868E+03  0.00000000000E+00 0.  1.
         -2   -1    0    0    0  501 -0.00000000000E+00 -0.00000000000E+00 -0.74163600727E+02  0.74163600727E+02  0.00000000000E+00 0. -1.
         23    2    1    2    0    0  0.45980078464E+02 -0.20891745401E+03  0.24740081708E+03  0.35016297091E+03  0.12508505783E+03 0.  0.
          5    1    3    3  502    0  0.34152171123E+02 -0.21710387369E+03  0.25209080734E+03  0.33446630668E+03  0.41800000000E+01 0. -1.
         -5    1    3    3    0  502  0.11827907341E+02  0.81864196714E+01 -0.46899902569E+01  0.15696664222E+02  0.41800000000E+01 0. -1.
        -11    1    1    2    0    0 -0.28716076137E+01  0.10465724830E+03  0.39949041517E+03  0.41298181263E+03  0.00000000000E+00 0.  1.
         11    1    1    2    0    0 -0.43108470850E+02  0.10426020572E+03  0.18238977570E+03  0.21446342587E+03  0.00000000000E+00 0. -1.
</event>
<event>
 7    1  0.1243146E-005  0.1010145E+03  0.7561462E-02  0.1278177E+00
          1   -1    0    0  501    0  0.00000000000E+00  0.00000000000E+00  0.32965227225E+03  0.32965227225E+03  0.00000000000E+00 0. -1.
         -1   -1    0    0    0  501 -0.00000000000E+00 -0.00000000000E+00 -0.40547090732E+02  0.40547090732E+02  0.00000000000E+00 0.  1.
         23    2    1    2    0    0 -0.30672044643E+02 -0.72374722849E+01  0.12867716146E+03  0.18220229192E+03  0.12508680175E+03 0.  0.
          5    1    3    3  502    0 -0.15992155906E+02 -0.60159723659E+02  0.10524120935E+03  0.12234429266E+03  0.41800000000E+01 0. -1.
         -5    1    3    3    0  502 -0.14679888737E+02  0.52922251374E+02  0.23435952107E+02  0.59857999256E+02  0.41800000000E+01 0. -1.
        -11    1    1    2    0    0  0.46381202587E+02  0.31206511245E+02  0.53801686677E+02  0.77586621185E+02  0.00000000000E+00 0.  1.
         11    1    1    2    0    0 -0.15709157945E+02 -0.23969038960E+02  0.10662633338E+03  0.11041044988E+03  0.00000000000E+00 0. -1.
</event>
<event>
 7    1  0.1243146E-005  0.1139658E+03  0.7561462E-02  0.1253397E+00
         -2   -1    0    0    0  501 -0.00000000000E+00  0.00000000000E+00  0.12645278359E+03  0.12645278359E+03  0.00000000000E+00 0.  1.
          2   -1    0    0  501    0  0.00000000000E+00 -0.00000000000E+00 -0.12527478884E+03  0.12527478884E+03  0.00000000000E+00 0. -1.
         23    2    1    2    0    0  0.22754444404E+02  0.29835195652E+02  0.52436259314E+02  0.14073218190E+03  0.12509229430E+03 0.  0.
          5    1    3    3  502    0 -0.13676901681E+02 -0.44990976732E+02  0.16911119684E+02  0.50146824385E+02  0.41800000000E+01 0. -1.
         -5    1    3    3    0  502  0.36431346085E+02  0.74826172385E+02  0.35525139630E+02  0.90585357520E+02  0.41800000000E+01 0. -1.
        -11    1    1    2    0    0 -0.39822555275E+02  0.20110184489E+02 -0.31609071145E+02  0.54675303451E+02  0.00000000000E+00 0. -1.
         11    1    1    2    0    0  0.17068110871E+02 -0.49945380141E+02 -0.19649193422E+02  0.56320087076E+02  0.00000000000E+00 0.  1.
</event>
<event>
 7    1  0.1243146E-005  0.1268552E+03  0.7561462E-02  0.1232198E+00
          3   -1    0    0  501    0  0.00000000000E+00  0.00000000000E+00  0.48382736377E+02  0.48382736377E+02  0.00000000000E+00 0. -1.
         -3   -1    0    0    0  501 -0.00000000000E+00 -0.00000000000E+00 -0.52147008364E+03  0.52147008364E+03  0.00000000000E+00 0.  1.
         23    2    1    2    0    0 -0.45314454725E+02  0.89382661065E+02 -0.33941366201E+03  0.37534895723E+03  0.12507016363E+03 0.  0.
          5    1    3    3  502    0 -0.63643798461E+02  0.91052898556E+02 -0.15933559726E+03  0.19428450369E+03  0.41800000000E+01 0.  1.
         -5    1    3    3    0  502  0.18329343735E+02 -0.16702374909E+01 -0.18007806475E+03  0.18106445354E+03  0.41800000000E+01 0.  1.
        -11    1    1    2    0    0  0.46803250196E+02 -0.14825843203E+02 -0.10255287547E+03  0.11369890995E+03  0.00000000000E+00 0.  1.
         11    1    1    2    0    0 -0.14887954705E+01 -0.74556817862E+02 -0.31120809787E+02  0.80804952840E+02  0.00000000000E+00 0. -1.
</event>
<event>
 7    1  0.1243146E-005  0.1468201E+03  0.7561462E-02  0.1204436E+00
         -1   -1    0    0    0  501 -0.00000000000E+00  0.00000000000E+00  0.97272734488E+03  0.97272734488E+03  0.00000000000E+00 0.  1.
          1   -1    0    0  501    0  0.00000000000E+00 -0.00000000000E+00 -0.29270708300E+02  0.29270708300E+02  0.00000000000E+00 0. -1.
         23    2    1    2    0    0 -0.96767651977E+02  0.82494675199E+02  0.55671437687E+03  0.58459171877E+03  0.12508888974E+03 0.  0.
          5    1    3    3  502    0 -0.84524529866E+02  0.76529763049E+01  0.16513902142E+03  0.18571842394E+03  0.41800000000E+01 0.  1.
         -5    1    3    3    0  502 -0.12243122111E+02  0.74841698894E+02  0.39157535545E+03  0.39887329483E+03  0.41800000000E+01 0.  1.
        -11    1    1    2    0    0  0.17545845728E+02 -0.37996188640E+02  0.36379748480E+02  0.55453161794E+02  0.00000000000E+00 0. -1.
         11    1    1    2    0    0  0.79221806249E+02 -0.44498486559E+02  0.35036251123E+03  0.36195317262E+03  0.00000000000E+00 0.  1.
</event>
<event>
 7    1  0.1243146E-005  0.9281901E+02  0.7561462E-02  0.1296165E+00
          1   -1    0    0  501    0  0.00000000000E+00  0.00000000000E+00  0.12720004337E+03  0.12720004337E+03  0.00000000000E+00 0. -1.
         -1   -1    0    0    0  501 -0.00000000000E+00 -0.00000000000E+00 -0.11670404535E+03  0.11670404535E+03  0.00000000000E+00 0.  1.
         23    2    1    2    0    0  0.35509462315E+02 -0.43031714051E+01 -0.41217282908E+02  0.13647124788E+03  0.12508436309E+03 0.  0.
          5    1    3    3  502    0  0.80125930885E+02 -0.18091243211E+01 -0.80368103963E+01  0.80656682627E+02  0.41800000000E+01 0.  1.
         -5    1    3    3    0  502 -0.44616468571E+02 -0.24940470840E+01 -0.33180472512E+02  0.55814565256E+02  0.41800000000E+01 0.  1.
        -11    1    1    2    0    0  0.75274829010E+01 -0.12260733530E+02  0.59015461359E+02  0.60743833143E+02  0.00000000000E+00 0. -1.
         11    1    1    2    0    0 -0.43036945216E+02  0.16563904935E+02 -0.73021804277E+01  0.46689007691E+02  0.00000000000E+00 0.  1.
</event>
<event>
 7    1  0.1243146E-005  0.1505661E+03  0.7561462E-02  0.1199779E+00
         -2   -1    0    0    0  501 -0.00000000000E+00  0.00000000000E+00  0.18209009669E+02  0.18209009669E+02  0.00000000000E+00 0.  1.
          2   -1    0    0  501    0  0.00000000000E+00 -0.00000000000E+00 -0.13103500143E+04  0.13103500143E+04  0.00000000000E+00 0. -1.
         23    2    1    2    0    0 -0.10197564636E+03 -0.35639797365E+02 -0.73468720990E+03  0.75304837816E+03  0.12508931147E+03 0.  0.
          5    1    3    3  502    0  0.98988370768E+01  0.27618279620E+02 -0.69631229793E+02  0.75675206687E+02  0.41800000000E+01 0.  1.
         -5    1    3    3    0  502 -0.11187448344E+03 -0.63258076986E+02 -0.66505598011E+03  0.67737317147E+03  0.41800000000E+01 0.  1.
        -11    1    1    2    0    0  0.11462953124E+03  0.10932384912E+02 -0.43948549614E+03  0.45432031408E+03  0.00000000000E+00 0.  1.
         11    1    1    2    0    0 -0.12653884876E+02  0.24707412453E+02 -0.11796829857E+03  0.12119033171E+03  0.00000000000E+00 0. -1.
</event>
<event>
 7    1  0.1243146E-005  0.8541923E+02  0.7561462E-02  0.1314340E+00
         -1   -1    0    0    0  501 -0.00000000000E+00  0.00000000000E+00  0.56517730939E+03  0.56517730939E+03  0.00000000000E+00 0.  1.
          1   -1    0    0  501    0  0.00000000000E+00 -0.00000000000E+00 -0.25601278047E+02  0.25601278047E+02  0.00000000000E+00 0. -1.
         23    2    1    2    0    0 -0.38203526131E+02 -0.31198278507E+02  0.33733789057E+03  0.36314886186E+03  0.12508957376E+03 0.  0.
          5    1    3    3  502    0  0.33021798626E+01 -0.40900460509E+02  0.30912027670E+03  0.31185985623E+03  0.41800000000E+01 0. -1.
         -5    1    3    3    0  502 -0.41505705993E+02  0.97021820018E+01  0.28217613869E+02  0.51289005626E+02  0.41800000000E+01 0. -1.
        -11    1    1    2    0    0  0.22832948227E+01  0.47331500800E+02  0.44341867790E+02  0.64897501048E+02  0.00000000000E+00 0. -1.
         11    1    1    2    0    0  0.35920231308E+02 -0.16133222293E+02  0.15789627298E+03  0.16273222453E+03  0.00000000000E+00 0.  1.
</event>
<event>
 7    1  0.1243146E-005  0.9207446E+02  0.7561462E-02  0.1297904E+00
          4   -1    0    0  501    0  0.00000000000E+00  0.00000000000E+00  0.20353369285E+03  0.20353369285E+03  0.00000000000E+00 0. -1.
         -4   -1    0    0    0  501 -0.00000000000E+00 -0.00000000000E+00 -0.59353727147E+02  0.59353727147E+02  0.00000000000E+00 0.  1.
         23    2    1    2    0    0  0.92209335876E+01  0.22344828209E+02  0.68576105481E+02  0.14468539160E+03  0.12508742277E+03 0.  0.
          5    1    3    3  502    0 -0.27509827087E+02 -0.23886730730E+02  0.76622949756E+02  0.84946543901E+02  0.41800000000E+01 0.  1.
         -5    1    3    3    0  502  0.36730760675E+02  0.46231558938E+02 -0.80468442752E+01  0.59738847699E+02  0.41800000000E+01 0.  1.
        -11    1    1    2    0    0 -0.26249767552E+02  0.26048336263E+02  0.18206897153E+02  0.41219621815E+02  0.00000000000E+00 0.  1.
         11    1    1    2    0    0  0.17028833965E+02 -0.48393164472E+02  0.57396963071E+02  0.76982406585E+02  0.00000000000E+00 0. -1.
</event>
<event>
 7    1  0.1243146E-005  0.8490797E+02  0.7561462E-02  0.1315673E+00
         -2   -1    0    0    0  501 -0.00000000000E+00  0.00000000000E+00  0.68547978094E+02  0.68547978094E+02  0.00000000000E+00 0. -1.
          2   -1    0    0  501    0  0.00000000000E+00 -0.00000000000E+00 -0.30267442015E+03  0.30267442015E+03  0.00000000000E+00 0.  1.
         23    2    1    2    0    0 -0.49979746785E+02  0.31876868193E+02 -0.33169133305E+02  0.14234349549E+03  0.12508944595E+03 0.  0.
          5    1    3    3  502    0 -0.35395917067E+02  0.60595551669E+02  0.25911354422E+02  0.74923711301E+02  0.41800000000E+01 0. -1.
         -5    1    3    3    0  502 -0.14583829718E+02 -0.28718683476E+02 -0.59080487728E+02  0.67419784188E+02  0.41800000000E+01 0. -1.
        -11    1    1    2    0    0  0.35173013137E+02 -0.37299044479E+02 -0.20603152643E+03  0.21231427049E+03  0.00000000000E+00 0.  1.
         11    1    1    2    0    0  0.14806733648E+02  0.54221762856E+01  0.50742176769E+01  0.16564632264E+02  0.00000000000E+00 0. -1.
</event>
<event>
 7    1  0.1243146E-005  0.1061753E+03  0.7561462E-02  0.1267821E+00
         -2   -1    0    0    0  501 -0.00000000000E+00  0.00000000000E+00  0.66268262104E+03  0.66268262104E+03  0.00000000000E+00 0.  1.
          2   -1    0    0  501    0  0.00000000000E+00 -0.00000000000E+00 -0.26939709984E+02  0.26939709984E+02  0.00000000000E+00 0. -1.
         23    2    1    2    0    0  0.74953637025E+02  0.13033418755E+02  0.39433314682E+03  0.42063574738E+03  0.12509150083E+03 0.  0.
          5    1    3    3  502    0  0.46133598593E+02 -0.19428263099E+02  0.36415285659E+03  0.36760106323E+03  0.41800000000E+01 0. -1.
         -5    1    3    3    0  502  0.28820038432E+02  0.32461681854E+02  0.30180290239E+02  0.53034684150E+02  0.41800000000E+01 0. -1.
        -11    1    1    2    0    0 -0.11005623365E+02 -0.45485221822E+02  0.89235886260E+02  0.10076245604E+03  0.00000000000E+00 0.  1.
         11    1    1    2    0    0 -0.63948013660E+02  0.32451803067E+02  0.15217387797E+03  0.16822412761E+03  0.00000000000E+00 0. -1.
</event>
<event>
 6    1  0.1243146E-005  0.2521195E+03  0.7561462E-02  0.1111973E+00
          2   -1    0    0  501    0  0.00000000000E+00  0.00000000000E+00  0.32191365812E+03  0.32191365812E+03  0.00000000000E+00 0. -1.
         -2   -1    0    0    0  501 -0.00000000000E+00 -0.00000000000E+00 -0.25676252527E+03  0.25676252527E+03  0.00000000000E+00 0.  1.
          5    1    1    2  502    0  0.20166893056E+03  0.29006268558E+02 -0.35580943653E+02  0.20687000053E+03  0.41800000000E+01 0. -1.
         -5    1    1    2    0  502 -0.15478137076E+03  0.75209887618E+02 -0.31443342982E+02  0.17498558840E+03  0.41800000000E+01 0.  1.
        -11    1    1    2    0    0 -0.11637105371E+02 -0.89271727504E+02  0.13044337323E+03  0.15849396573E+03  0.00000000000E+00 0. -1.
         11    1    1    2    0    0 -0.35250454428E+02 -0.14944428671E+02  0.17320462640E+01  0.38326628732E+02  0.00000000000E+00 0.  1.
</event>
<event>
 7    1  0.1243146E-005  0.1171430E+03  0.7561462E-02  0.1247886E+00
          2   -1    0    0  501    0  0.00000000000E+00  0.00000000000E+00  0.46229621790E+02  0.46229621790E+02  0.00000000000E+00 0. -1.
         -2   -1    0    0    0  501 -0.00000000000E+00 -0.00000000000E+00 -0.42301844366E+03  0.42301844366E+03  0.00000000000E+00 0.  1.
         23    2    1    2    0    0 -0.87378345977E+02 -0.13156922417E+02 -0.23719445034E+03  0.28234122209E+03  0.12508908212E+03 0.  0.
          5    1    3    3  502    0  0.12289121305E+02 -0.39844264173E+02 -0.11477425599E+03  0.12218506508E+03  0.41800000000E+01 0. -1.
         -5    1    3    3    0  502 -0.99667467283E+02  0.26687341756E+02 -0.12242019435E+03  0.16015615701E+03  0.41800000000E+01 0. -1.
        -11    1    1    2    0    0  0.24241971514E+02  0.89488486368E+01  0.73933274921E+01  0.26877804341E+02  0.00000000000E+00 0. -1.
         11    1    1    2    0    0  0.63136374463E+02  0.42080737797E+01 -0.14698769902E+03  0.16002903901E+03  0.00000000000E+00 0.  1.
</event>
<event>
 7    1  0.1633779E-005  0.2404676E+03  0.7561462E-02  0.1119482E+00
          1   -1    0    0  501    0  0.00000000000E+00  0.00000000000E+00  0.20361190391E+03  0.20361190391E+03  0.00000000000E+00 0. -1.
         -1   -1    0    0    0  501 -0.00000000000E+00 -0.00000000000E+00 -0.35066724166E+03  0.35066724166E+03  0.00000000000E+00 0.  1.
         23    2    1    2    0    0  0.17242713031E+03 -0.16256519081E+03 -0.15849713232E+02  0.26843440359E+03  0.12508900467E+03 0.  0.
          5    1    3    3  502    0  0.82278775840E+02 -0.95017990556E+02 -0.69397964304E+02  0.14363761810E+03  0.41800000000E+01 0.  1.
         -5    1    3    3    0  502  0.90148354468E+02 -0.67547200257E+02  0.53548251071E+02  0.12479678549E+03  0.41800000000E+01 0.  1.
        -11    1    1    2    0    0 -0.71299774260E+02  0.34320014932E+02 -0.84961940445E+02  0.11610362853E+03  0.00000000000E+00 0.  1.
         11    1    1    2    0    0 -0.10112735605E+03  0.12824517588E+03 -0.46243684080E+02  0.16974111345E+03  0.00000000000E+00 0. -1.
</event>
<event>
 7    1  0.1243146E-005  0.2295930E+03  0.7561462E-02  0.1126927E+00
          1   -1    0    0  501    0  0.00000000000E+00  0.00000000000E+00  0.86566362088E+03  0.86566362088E+03  0.00000000000E+00 0.  1.
         -1   -1    0    0    0  501 -0.00000000000E+00 -0.00000000000E+00 -0.64305577730E+02  0.64305577730E+02  0.00000000000E+00 0. -1.
         23    2    1    2    0    0  0.16183280479E+02  0.20849628926E+03  0.41027530358E+03  0.47718595813E+03  0.12509201694E+03 0.  0.
          5    1    3    3  502    0  0.67864888898E+02  0.13007255891E+03  0.21322442951E+03  0.25885641477E+03  0.41800000000E+01 0.  1.
         -5    1    3    3    0  502 -0.51681608419E+02  0.78423730353E+02  0.19705087407E+03  0.21832954336E+03  0.41800000000E+01 0.  1.
        -11    1    1    2    0    0  0.22788992608E+02 -0.11266807215E+03  0.13948045922E+03  0.18074355084E+03  0.00000000000E+00 0.  1.
         11    1    1    2    0    0 -0.38972273087E+02 -0.95828217106E+02  0.25160228035E+03  0.27203968964E+03  0.00000000000E+00 0. -1.
</event>
<event>
 7    1  0.1243146E-005  0.9836467E+02  0.7561462E-02  0.1283773E+00
         -3   -1    0    0    0  501 -0.00000000000E+00  0.00000000000E+00  0.13185838279E+03  0.13185838279E+03  0.00000000000E+00 0.  1.
          3   -1    0    0  501    0  0.00000000000E+00 -0.00000000000E+00 -0.11545022530E+03  0.11545022530E+03  0.00000000000E+00 0. -1.
         23    2    1    2    0    0  0.53123453113E+02  0.10668841313E+02  0.16327007230E+02  0.13729527850E+03  0.12508995518E+03 0.  0.
          5    1    3    3  502    0  0.36048130641E+02  0.56229675819E+02  0.45018361968E+02  0.80655870708E+02  0.41800000000E+01 0. -1.
         -5    1    3    3    0  502  0.17075322472E+02 -0.45560834506E+02 -0.28691354737E+02  0.56639407792E+02  0.41800000000E+01 0. -1.
        -11    1    1    2    0    0 -0.60153945381E+02  0.83165186390E+01 -0.34573475883E+02  0.69878371917E+02  0.00000000000E+00 0. -1.
         11    1    1    2    0    0  0.70304922675E+01 -0.18985359952E+02  0.34654626146E+02  0.40134957672E+02  0.00000000000E+00 0.  1.
</event>
<event>
 7    1  0.1243146E-005  0.1683780E+03  0.7561462E-02  0.1179550E+00
          1   -1    0    0  501    0  0.00000000000E+00  0.00000000000E+00  0.32479377262E+02  0.32479377262E+02  0.00000000000E+00 0. -1.
         -1   -1    0    0    0  501 -0.00000000000E+00 -0.00000000000E+00 -0.91160966443E+03  0.91160966443E+03  0.00000000000E+00 0.  1.
         23    2    1    2    0    0 -0.94369728895E+02 -0.90371881792E+02 -0.43155156381E+03  0.46792842708E+03  0.12509011909E+03 0.  0.
          5    1    3    3  502    0 -0.65051187080E+02  0.17640210223E+02 -0.13538309275E+03  0.15129074049E+03  0.41800000000E+01 0. -1.
         -5    1    3    3    0  502 -0.29318541815E+02 -0.10801209202E+03 -0.29616847106E+03  0.31663768659E+03  0.41800000000E+01 0. -1.
        -11    1    1    2    0    0 -0.17118751812E+02  0.13585435039E+02 -0.29513150968E+02  0.36723858578E+02  0.00000000000E+00 0. -1.
         11    1    1    2    0    0  0.11148848071E+03  0.76786446753E+02 -0.41806557239E+03  0.43943675603E+03  0.00000000000E+00 0.  1.
</event>
<event>
 7    1  0.1243146E-005  0.9657759E+02  0.7561462E-02  0.1287662E+00
          1   -1    0    0  501    0  0.00000000000E+00  0.00000000000E+00  0.31088916041E+03  0.31088916041E+03  0.00000000000E+00 0. -1.
         -1   -1    0    0    0  501 -0.00000000000E+00 -0.00000000000E+00 -0.55458129197E+02  0.55458129197E+02  0.00000000000E+00 0.  1.
         23    2    1    2    0    0  0.53992635938E+02  0.20389821822E+02  0.85808383006E+02  0.16229776597E+03  0.12508611704E+03 0.  0.
          5    1    3    3  502    0 -0.57316262213E+01  0.37994796022E+02  0.91800631901E+02  0.99605644827E+02  0.41800000000E+01 0. -1.
         -5    1    3    3    0  502  0.59724262159E+02 -0.17604974200E+02 -0.59922488952E+01  0.62692121147E+02  0.41800000000E+01 0. -1.
        -11    1    1    2    0    0 -0.26057992221E+01 -0.37764297998E+02  0.15937713250E+02  0.41072412840E+02  0.00000000000E+00 0. -1.
         11    1    1    2    0    0 -0.51386836716E+02  0.17374476175E+02  0.15368493495E+03  0.16297711079E+03  0.00000000000E+00 0.  1.
</event>
<event>
 7    1  0.1243146E-005  0.1012825E+03  0.7561462E-02  0.1277622E+00
         -2   -1    0    0    0  501 -0.00000000000E+00  0.00000000000E+00  0.65912619032E+02  0.65912619032E+02  0.00000000000E+00 0.  1.
          2   -1    0    0  501    0  0.00000000000E+00 -0.00000000000E+00 -0.19893135580E+03  0.19893135580E+03  0.00000000000E+00 0. -1.
         23    2    1    2    0    0  0.85332408533E+01 -0.61404467605E+01 -0.34403696001E+02  0.13013006395E+03  0.12505877802E+03 0.  0.
          5    1    3    3  502    0  0.64628324705E+02  0.10429721547E+02 -0.89573781362E+01  0.66206544002E+02  0.41800000000E+01 0. -1.
         -5    1    3    3    0  502 -0.56095083851E+02 -0.16570168307E+02 -0.25446317865E+02  0.63923519951E+02  0.41800000000E+01 0. -1.
        -11    1    1    2    0    0  0.17069365422E+02  0.35488774335E+02 -0.14402393417E+02  0.41931435414E+02  0.00000000000E+00 0.  1.
         11    1    1    2    0    0 -0.25602606275E+02 -0.29348327575E+02 -0.84212647346E+02  0.92782475460E+02  0.00000000000E+00 0. -1.
</event>
<event>
 7    1  0.1243146E-005  0.8567689E+02  0.7561462E-02  0.1313672E+00
         -2   -1    0    0    0  501 -0.00000000000E+00  0.00000000000E+00  0.71463714364E+02  0.71463714364E+02  0.00000000000E+00 0.  1.
          2   -1    0    0  501    0  0.00000000000E+00 -0.00000000000E+00 -0.17805061066E+03  0.17805061066E+03  0.00000000000E+00 0. -1.
         23    2    1    2    0    0 -0.13658344199E+02  0.82400641338E+01 -0.80081183690E+02  0.14937440994E+03  0.12508105109E+03 0.  0.
          5    1    3    3  502    0  0.20193739903E+02 -0.28531500871E+02 -0.91410638685E+02  0.97955147583E+02  0.41800000000E+01 0.  1.
         -5    1    3    3    0  502 -0.33852084102E+02  0.36771565005E+02  0.11329454995E+02  0.51419262358E+02  0.41800000000E+01 0.  1.
        -11    1    1    2    0    0  0.11988983444E+02 -0.46336007108E+02 -0.37106698520E+02  0.60561277677E+02  0.00000000000E+00 0. -1.
         11    1    1    2    0    0  0.16693607554E+01  0.38095942975E+02  0.10600985915E+02  0.39578637405E+02  0.00000000000E+00 0.  1.
</event>
<event>
 6    1  0.1243146E-005  0.1268787E+03  0.7561462E-02  0.1232162E+00
         -4   -1    0    0    0  501 -0.00000000000E+00  0.00000000000E+00  0.20234817538E+03  0.20234817538E+03  0.00000000000E+00 0.  1.
          4   -1    0    0  501    0  0.00000000000E+00 -0.00000000000E+00 -0.36678145180E+03  0.36678145180E+03  0.00000000000E+00 0. -1.
          5    1    1    2  502    0 -0.81620772462E+02  0.45475746473E+02 -0.20293858798E+03  0.22345365718E+03  0.41800000000E+01 0. -1.
         -5    1    1    2    0  502  0.32437464160E+02 -0.48808169138E+02  0.16968141009E+03  0.17956525216E+03  0.41800000000E+01 0.  1.
        -11    1    1    2    0    0 -0.24165011321E+02  0.13089206138E+02 -0.28974600107E+02  0.39934978914E+02  0.00000000000E+00 0. -1.
         11    1    1    2    0    0  0.73348319624E+02 -0.97567834730E+01 -0.10220149842E+03  0.12617573893E+03  0.00000000000E+00 0.  1.
</event>
<event>
 7    1  0.2463009E-005  0.2318428E+03  0.7561462E-02  0.1125349E+00
          1   -1    0    0  501    0  0.00000000000E+00  0.00000000000E+00  0.69408168852E+03  0.69408168852E+03  0.00000000000E+00 0. -1.
         -1   -1    0    0    0  501 -0.00000000000E+00 -0.00000000000E+00 -0.78177505882E+02  0.78177505882E+02  0.00000000000E+00 0.  1.
         23    2    1    2    0    0  0.83974804173E+02 -0.18820028106E+03  0.32231643233E+03  0.40250071682E+03  0.12509129051E+03 0.  0.
          5    1    3    3  502    0 -0.59512411317E+01  0.16024901682E+02  0.18698726160E+02  0.25677412349E+02  0.41800000000E+01 0.  1.
         -5    1    3    3    0  502  0.89926045305E+02 -0.20422518275E+03  0.30361770617E+03  0.37682330447E+03  0.41800000000E+01 0.  1.
        -11    1    1    2    0    0 -0.21172770687E+02  0.14532543935E+03  0.16999652423E+03  0.22464769706E+03  0.00000000000E+00 0. -1.
         11    1    1    2    0    0 -0.62802033486E+02  0.42874841708E+02  0.12359122607E+03  0.14511078052E+03  0.00000000000E+00 0.  1.
</event>
<event>
 7    1  0.1243146E-005  0.1583643E+03  0.7561462E-02  0.1190556E+00
          2   -1    0    0  501    0  0.00000000000E+00  0.00000000000E+00  0.44120818848E+03  0.44120818848E+03  0.00000000000E+00 0. -1.
         -2   -1    0    0    0  501 -0.00000000000E+00 -0.00000000000E+00 -0.78805060682E+02  0.78805060682E+02  0.00000000000E+00 0.  1.
         23    2    1    2    0    0  0.14366213053E+03  0.21153208991E+02  0.13138901568E+03  0.23245638465E+03  0.12524628268E+03 0.  0.
          5    1    3    3  502    0  0.13510735350E+03  0.20901142622E+02  0.42744812325E+02  0.14330194037E+03  0.41800000000E+01 0.  1.
         -5    1    3    3    0  502  0.85547770289E+01  0.25206636863E+00  0.88644203351E+02  0.89154444282E+02  0.41800000000E+01 0.  1.
        -11    1    1    2    0    0 -0.14130983201E+03 -0.43578781230E+02  0.19013286178E+03  0.24086943335E+03  0.00000000000E+00 0.  1.
         11    1    1    2    0    0 -0.23522985116E+01  0.22425572239E+02  0.40881250347E+02  0.46687431162E+02  0.00000000000E+00 0. -1.
</event>
<event>
 7    1  0.1243146E-005  0.1196920E+03  0.7561462E-02  0.1243606E+00
         -2   -1    0    0    0  501 -0.00000000000E+00  0.00000000000E+00  0.37296634571E+02  0.37296634571E+02  0.00000000000E+00 0. -1.
          2   -1    0    0  501    0  0.00000000000E+00 -0.00000000000E+00 -0.47858863740E+03  0.47858863740E+03  0.00000000000E+00 0.  1.
         23    2    1    2    0    0 -0.50398829594E+02  0.53939973034E+02 -0.19264770468E+03  0.24126752891E+03  0.12508924682E+03 0.  0.
          5    1    3    3  502    0 -0.67232744511E+02  0.78708518416E+02 -0.10070124752E+03  0.14447659484E+03  0.41800000000E+01 0. -1.
         -5    1    3    3    0  502  0.16833914918E+02 -0.24768545383E+02 -0.91946457163E+02  0.96790934063E+02  0.41800000000E+01 0. -1.
        -11    1    1    2    0    0  0.25997058082E+02  0.16640960076E+02 -0.27988249762E+02  0.41666661804E+02  0.00000000000E+00 0. -1.
         11    1    1    2    0    0  0.24401771512E+02 -0.70580933109E+02 -0.22065604839E+03  0.23295108126E+03  0.00000000000E+00 0.  1.
</event>
<event>
 7    1  0.1243146E-005  0.1247216E+03  0.7561462E-02  0.1235505E+00
         -1   -1    0    0    0  501 -0.00000000000E+00  0.00000000000E+00  0.37981298155E+02  0.37981298155E+02  0.00000000000E+00 0.  1.
          1   -1    0    0  501    0  0.00000000000E+00 -0.00000000000E+00 -0.61654744879E+03  0.61654744879E+03  0.00000000000E+00 0. -1.
         23    2    1    2    0    0  0.77594585159E+02  0.63496310175E+02 -0.22979347125E+03  0.28019396660E+03  0.12510363080E+03 0.  0.
          5    1    3    3  502    0 -0.18929690765E+02  0.13260329103E+02  0.25231466215E+01  0.23622196961E+02  0.41800000000E+01 0.  1.
         -5    1    3    3    0  502  0.96524275924E+02  0.50235981071E+02 -0.23231661787E+03  0.25657176964E+03  0.41800000000E+01 0.  1.
        -11    1    1    2    0    0 -0.12233807559E+02 -0.48477342505E+02 -0.24997216576E+03  0.25492313045E+03  0.00000000000E+00 0.  1.
         11    1    1    2    0    0 -0.65360777600E+02 -0.15018967669E+02 -0.98800513635E+02  0.11941164990E+03  0.00000000000E+00 0. -1.
</event>
<event>
 7    1  0.1243146E-005  0.1047965E+03  0.7561462E-02  0.1270521E+00
          2   -1    0    0  501    0  0.00000000000E+00  0.00000000000E+00  0.79533331878E+02  0.79533331878E+02  0.00000000000E+00 0.  1.
         -2   -1    0    0    0  501 -0.00000000000E+00 -0.00000000000E+00 -0.34031686947E+03  0.34031686947E+03  0.00000000000E+00 0. -1.
         23    2    1    2    0    0 -0.19743159388E+02  0.25452611013E+02 -0.29130482852E+03  0.31865848512E+03  0.12508836583E+03 0.  0.
          5    1    3    3  502    0 -0.63674074658E+02 -0.18927100429E+02 -0.15325367725E+03  0.16708316763E+03  0.41800000000E+01 0. -1.
         -5    1    3    3    0  502  0.43930915270E+02  0.44379711442E+02 -0.13805115127E+03  0.15157531749E+03  0.41800000000E+01 0. -1.
        -11    1    1    2    0    0 -0.37867239775E+01  0.24732634728E+02  0.37755861122E+02  0.45294012276E+02  0.00000000000E+00 0.  1.
         11    1    1    2    0    0  0.23529883366E+02 -0.50185245741E+02 -0.72345701896E+01  0.55897703952E+02  0.00000000000E+00 0. -1.
</event>
<event>
 7    1  0.1243146E-005  0.8911322E+02  0.7561462E-02  0.1305013E+00
          2   -1    0    0  501    0  0.00000000000E+00  0.00000000000E+00  0.12905346782E+03  0.12905346782E+03  0.00000000000E+00 0. -1.
         -2   -1    0    0    0  501 -0.00000000000E+00 -0.00000000000E+00 -0.87243363857E+02  0.87243363857E+02  0.00000000000E+00 0.  1.
         23    2    1    2    0    0  0.67503644452E+01  0.82196277406E+01  0.12236027041E+02  0.12613759058E+03  0.12509133343E+03 0.  0.
          5    1    3    3  502    0  0.31364724622E+02  0.52976505511E+02  0.34005183480E+02  0.70456234573E+02  0.41800000000E+01 0.  1.
         -5    1    3    3    0  502 -0.24614360177E+02 -0.44756877770E+02 -0.21769156439E+02  0.55681356006E+02  0.41800000000E+01 0.  1.
        -11    1    1    2    0    0 -0.24929654092E+02  0.19823097197E+02 -0.14377399887E+02  0.34944991960E+02  0.00000000000E+00 0.  1.
         11    1    1    2    0    0  0.18179289647E+02 -0.28042724937E+02  0.43951476806E+02  0.55214249134E+02  0.00000000000E+00 0. -1.
</event>
<event>
 7    1  0.1243146E-005  0.1203421E+03  0.7561462E-02  0.1242534E+00
         -2   -1    0    0    0  501 -0.00000000000E+00  0.00000000000E+00  0.37321673982E+02  0.37321673982E+02  0.00000000000E+00 0.  1.
          2   -1    0    0  501    0  0.00000000000E+00 -0.00000000000E+00 -0.51990329893E+03  0.51990329893E+03  0.00000000000E+00 0. -1.
         23    2    1    2    0    0 -0.44812573639E+02 -0.75492903746E+02 -0.27071839837E+03  0.31087322934E+03  0.12508544373E+03 0.  0.
          5    1    3    3  502    0  0.39007689778E+00 -0.10076861385E+03 -0.17743269901E+03  0.20409385286E+03  0.41800000000E+01 0.  1.
         -5    1    3    3    0  502 -0.45202650537E+02  0.25275710101E+02 -0.93285699354E+02  0.10677937648E+03  0.41800000000E+01 0.  1.
        -11    1    1    2    0    0  0.27380177616E+02  0.49615983147E+02 -0.34672519824E+02  0.66434957220E+02  0.00000000000E+00 0.  1.
         11    1    1    2    0    0  0.17432396024E+02  0.25876920599E+02 -0.17719070676E+03  0.17991678636E+03  0.00000000000E+00 0. -1.
</event>
<event>
 7    1  0.1243146E-005  0.2531146E+03  0.7561462E-02  0.1111352E+00
          1   -1    0    0  501    0  0.00000000000E+00  0.00000000000E+00  0.37415149677E+03  0.37415149677E+03  0.00000000000E+00 0. -1.
         -1   -1    0    0    0  501 -0.00000000000E+00 -0.00000000000E+00 -0.24893111842E+03  0.24893111842E+03  0.00000000000E+00 0.  1.
         23    2    1    2    0    0 -0.11461996389E+03  0.19729130978E+03 -0.10978265931E+03  0.28241750698E+03  0.12508324799E+03 0.  0.
          5    1    3    3  502    0 -0.81876232200E+02  0.20905649275E+03 -0.88176019166E+02  0.24124845557E+03  0.41800000000E+01 0.  1.
         -5    1    3    3    0  502 -0.32743731689E+02 -0.11765182972E+02 -0.21606640147E+02  0.41169051407E+02  0.41800000000E+01 0.  1.
        -11    1    1    2    0    0  0.17943292731E+02 -0.12405079900E+03  0.11894417524E+03  0.17279548406E+03  0.00000000000E+00 0.  1.
         11    1    1    2    0    0  0.96676671158E+02 -0.73240510777E+02  0.11605886242E+03  0.16786962415E+03  0.00000000000E+00 0. -1.
</event>
<event>
 7    1  0.1243146E-005  0.1198558E+03  0.7561462E-02  0.1243335E+00
         -2   -1    0    0    0  501 -0.00000000000E+00  0.00000000000E+00  0.15287390156E+02  0.15287390156E+02  0.00000000000E+00 0.  1.
          2   -1    0    0  501    0  0.00000000000E+00 -0.00000000000E+00 -0.11930670174E+04  0.11930670174E+04  0.00000000000E+00 0. -1.
         23    2    1    2    0    0  0.74250887063E+02  0.18342327085E+02 -0.73616218913E+03  0.75061993382E+03  0.12508349671E+03 0.  0.
          5    1    3    3  502    0 -0.12591614886E+02  0.46942041498E+02 -0.36954245105E+03  0.37274817177E+03  0.41800000000E+01 0. -1.
         -5    1    3    3    0  502  0.86842501949E+02 -0.28599714413E+02 -0.36661973808E+03  0.37787176205E+03  0.41800000000E+01 0. -1.
        -11    1    1    2    0    0  0.60083676977E+01 -0.18177796712E+02 -0.17015465862E+02  0.25613645859E+02  0.00000000000E+00 0.  1.
         11    1    1    2    0    0 -0.80259254761E+02 -0.16453037304E+00 -0.42460197226E+03  0.43212082789E+03  0.00000000000E+00 0. -1.
</event>
<event>
 7    1  0.1243146E-005  0.1229388E+03  0.7561462E-02  0.1238326E+00
         -1   -1    0    0    0  501 -0.00000000000E+00  0.00000000000E+00  0.61553011171E+02  0.61553011171E+02  0.00000000000E+00 0.  1.
          1   -1    0    0  501    0  0.00000000000E+00 -0.00000000000E+00 -0.49588821519E+03  0.49588821519E+03  0.00000000000E+00 0. -1.
         23    2    1    2    0    0 -0.42201006220E+02  0.84072411135E+02 -0.71650782160E+02  0.17213577358E+03  0.12509114566E+03 0.  0.
          5    1    3    3  502    0  0.24732958754E+02  0.80841293576E+02 -0.60576204273E+02  0.10408642044E+03  0.41800000000E+01 0. -1.
         -5    1    3    3    0  502 -0.66933964974E+02  0.32311175589E+01 -0.11074577887E+02  0.68049353143E+02  0.41800000000E+01 0. -1.
        -11    1    1    2    0    0  0.31466443200E+02 -0.60643556944E+02 -0.34995565681E+03  0.35656239254E+03  0.00000000000E+00 0. -1.
         11    1    1    2    0    0  0.10734563020E+02 -0.23428854190E+02 -0.12728765053E+02  0.28743060235E+02  0.00000000000E+00 0.  1.
</event>
<event>
 7    1  0.1243146E-005  0.7140827E+02  0.7561462E-02  0.1355369E+00
         -2   -1    0    0    0  501 -0.00000000000E+00  0.00000000000E+00  0.21471295929E+03  0.21471295929E+03  0.00000000000E+00 0.  1.
          2   -1    0    0  501    0  0.00000000000E+00 -0.00000000000E+00 -0.69681912376E+02  0.69681912376E+02  0.00000000000E+00 0. -1.
         23    2    1    2    0    0  0.26636690933E+02  0.78564638808E+01  0.13996813979E+03  0.18976434536E+03  0.12509272275E+03 0.  0.
          5    1    3    3  502    0 -0.21375258014E+02 -0.17237228778E+02  0.13194876906E+03  0.13484054942E+03  0.41800000000E+01 0.  1.
         -5    1    3    3    0  502  0.48011948947E+02  0.25093692659E+02  0.80193707221E+01  0.54923795933E+02  0.41800000000E+01 0.  1.
        -11    1    1    2    0    0 -0.14802716162E+02  0.23172220791E+02  0.38626999761E+02  0.47414315694E+02  0.00000000000E+00 0.  1.
         11    1    1    2    0    0 -0.11833974771E+02 -0.31028684672E+02 -0.33564092629E+02  0.47216210620E+02  0.00000000000E+00 0. -1.
</event>
<event>
 7    1  0.1243146E-005  0.8728246E+02  0.7561462E-02  0.1309569E+00
          2   -1    0    0  501    0  0.00000000000E+00  0.00000000000E+00  0.18386684793E+03  0.18386684793E+03  0.00000000000E+00 0. -1.
         -2   -1    0    0    0  501 -0.00000000000E+00 -0.00000000000E+00 -0.98535711203E+02  0.98535711203E+02  0.00000000000E+00 0.  1.
         23    2    1    2    0    0 -0.15099240008E+01  0.69344939815E+02  0.21595518772E+01  0.14304970728E+03  0.12509018563E+03 0.  0.
          5    1    3    3  502    0  0.44778216998E+01  0.51653644085E+02  0.61588477404E+02  0.80614904226E+02  0.41800000000E+01 0.  1.
         -5    1    3    3    0  502 -0.59877457006E+01  0.17691295730E+02 -0.59428925527E+02  0.62434803055E+02  0.41800000000E+01 0.  1.
        -11    1    1    2    0    0 -0.11720144806E+02 -0.83334999001E+02  0.42333460616E+02  0.94203002821E+02  0.00000000000E+00 0.  1.
         11    1    1    2    0    0  0.13230068806E+02  0.13990059186E+02  0.40838124233E+02  0.45149849031E+02  0.00000000000E+00 0. -1.
</event>
<event>
 6    1  0.1243146E-005  0.1625987E+03  0.7561462E-02  0.1185794E+00
          2   -1    0    0  501    0  0.00000000000E+00  0.00000000000E+00  0.77510695995E+03  0.77510695995E+03  0.00000000000E+00 0. -1.
         -2   -1    0    0    0  501 -0.00000000000E+00 -0.00000000000E+00 -0.78942347671E+02  0.78942347671E+02  0.00000000000E+00 0.  1.
          5    1    1    2  502    0 -0.12295608757E+02  0.29226240800E+02  0.31015435019E+03  0.31179889109E+03  0.41800000000E+01 0. -1.
         -5    1    1    2    0  502 -0.31462220856E+02 -0.14196428561E+03  0.20934794828E+02  0.14696757386E+03  0.41800000000E+01 0.  1.
        -11    1    1    2    0    0  0.63370641501E+02  0.46322298633E+02  0.14945709651E+03  0.16881651949E+03  0.00000000000E+00 0.  1.
         11    1    1    2    0    0 -0.19612811888E+02  0.66415746178E+02  0.21561837076E+03  0.22646632319E+03  0.00000000000E+00 0. -1.
</event>
<event>
 7    1  0.1243146E-005  0.1154324E+03  0.7561462E-02  0.1250828E+00
          1   -1    0    0  501    0  0.00000000000E+00  0.00000000000E+00  0.38784767990E+03  0.38784767990E+03  0.00000000000E+00 0. -1.
         -1   -1    0    0    0  501 -0.00000000000E+00 -0.00000000000E+00 -0.34911233366E+02  0.34911233366E+02  0.00000000000E+00 0.  1.
         23    2    1    2    0    0  0.26400293775E+02  0.31574312666E+02  0.18066268728E+03  0.22356282331E+03  0.12508963450E+03 0.  0.
          5    1    3    3  502    0 -0.55906329156E+01  0.76039712587E+02  0.96499345607E+02  0.12305644709E+03  0.41800000000E+01 0.  1.
         -5    1    3    3    0  502  0.31990926691E+02 -0.44465399920E+02  0.84163341671E+02  0.10050637623E+03  0.41800000000E+01 0.  1.
        -11    1    1    2    0    0  0.32563951240E+02 -0.23266479521E+02  0.78501945031E+02  0.88115239110E+02  0.00000000000E+00 0.  1.
         11    1    1    2    0    0 -0.58964245015E+02 -0.83078331457E+01  0.93771814223E+02  0.11108085085E+03  0.00000000000E+00 0. -1.
</event>
<event>
 7    1  0.1243146E-005  0.1060916E+03  0.7561462E-02  0.1267984E+00
          1   -1    0    0  501    0  0.00000000000E+00  0.00000000000E+00  0.11268102350E+03  0.11268102350E+03  0.00000000000E+00 0. -1.
         -1   -1    0    0    0  501 -0.00000000000E+00 -0.00000000000E+00 -0.12190754219E+03  0.12190754219E+03  0.00000000000E+00 0.  1.
         23    2    1    2    0    0 -0.13897479848E+02  0.37667568310E+02  0.20610814167E+02  0.13296517553E+03  0.12507176578E+03 0.  0.
          5    1    3    3  502    0 -0.28967343585E+02  0.72934895099E+02 -0.15523385827E+02  0.80106515496E+02  0.41800000000E+01 0. -1.
         -5    1    3    3    0  502  0.15069863738E+02 -0.35267326789E+02  0.36134199994E+02  0.52858660038E+02  0.41800000000E+01 0. -1.
        -11    1    1    2    0    0  0.32800893187E+02 -0.58386581891E+02 -0.11073194329E+02  0.67878620871E+02  0.00000000000E+00 0. -1.
         11    1    1    2    0    0 -0.18903413339E+02  0.20719013581E+02 -0.18764138531E+02  0.33744769290E+02  0.00000000000E+00 0.  1.
</event>
<event>
 7    1  0.1243146E-005  0.1052582E+03  0.7561462E-02  0.1269612E+00
          1   -1    0    0  501    0  0.00000000000E+00  0.00000000000E+00  0.53479494997E+03  0.53479494997E+03  0.00000000000E+00 0. -1.
         -1   -1    0    0    0  501 -0.00000000000E+00 -0.00000000000E+00 -0.27303559681E+02  0.27303559681E+02  0.00000000000E+00 0.  1.
         23    2    1    2    0    0  0.51785688635E+02 -0.18603510687E+01  0.24460038832E+03  0.27957658422E+03  0.12509395677E+03 0.  0.
          5    1    3    3  502    0  0.66310578002E+01 -0.58998471342E+02  0.13925633578E+03  0.15144170496E+03  0.41800000000E+01 0. -1.
         -5    1    3    3    0  502  0.45154630835E+02  0.57138120273E+02  0.10534405255E+03  0.12813487925E+03  0.41800000000E+01 0. -1.
        -11    1    1    2    0    0 -0.30399147396E+02  0.29999415663E+02  0.23100633345E+03  0.23492126169E+03  0.00000000000E+00 0. -1.
         11    1    1    2    0    0 -0.21386541239E+02 -0.28139064595E+02  0.31884668523E+02  0.47600663748E+02  0.00000000000E+00 0.  1.
</event>
<event>
 7    1  0.1243146E-005  0.1383522E+03  0.7561462E-02  0.1215564E+00
         -2   -1    0    0    0  501 -0.00000000000E+00  0.00000000000E+00  0.23085029717E+02  0.23085029717E+02  0.00000000000E+00 0.  1.
          2   -1    0    0  501    0  0.00000000000E+00 -0.00000000000E+00 -0.10230365695E+04  0.10230365695E+04  0.00000000000E+00 0. -1.
         23    2    1    2    0    0  0.30669091998E+02  0.10372567537E+03 -0.53843304218E+03  0.56325568601E+03  0.12508884034E+03 0.  0.
          5    1    3    3  502    0  0.52013633320E+02  0.25702800112E+02 -0.38861302156E+03  0.39294224119E+03  0.41800000000E+01 0. -1.
         -5    1    3    3    0  502 -0.21344541323E+02  0.78022875262E+02 -0.14982002061E+03  0.17031344482E+03  0.41800000000E+01 0. -1.
        -11    1    1    2    0    0  0.29785899772E+02 -0.31548815368E+02 -0.20683807115E+03  0.21133980991E+03  0.00000000000E+00 0. -1.
         11    1    1    2    0    0 -0.60454991770E+02 -0.72176860006E+02 -0.25468042641E+03  0.27152610325E+03  0.00000000000E+00 0.  1.
</event>
<event>
 7    1  0.1243146E-005  0.9627531E+02  0.7561462E-02  0.1288329E+00
         -1   -1    0    0    0  501 -0.00000000000E+00  0.00000000000E+00  0.58985865346E+02  0.58985865346E+02  0.00000000000E+00 0.  1.
          1   -1    0    0  501    0  0.00000000000E+00 -0.00000000000E+00 -0.22031857166E+03  0.22031857166E+03  0.00000000000E+00 0. -1.
         23    2    1    2    0    0  0.66475334021E+01  0.27168020928E+02 -0.68105759484E+02  0.14514646763E+03  0.12508721569E+03 0.  0.
          5    1    3    3  502    0 -0.98753993563E+01 -0.34348782330E+02 -0.72730208885E+02  0.81145043253E+02  0.41800000000E+01 0. -1.
         -5    1    3    3    0  502  0.16522932758E+02  0.61516803258E+02  0.46244494018E+01  0.64001424377E+02  0.41800000000E+01 0. -1.
        -11    1    1    2    0    0 -0.88827050812E+01 -0.59582614005E+02 -0.41785456725E+02  0.73314491985E+02  0.00000000000E+00 0.  1.
         11    1    1    2    0    0  0.22351716792E+01  0.32414593077E+02 -0.51441490109E+02  0.60843477394E+02  0.00000000000E+00 0. -1.
</event>
<event>
 7    1  0.1243146E-005  0.9153309E+02  0.7561462E-02  0.1299181E+00
          2   -1    0    0  501    0  0.00000000000E+00  0.00000000000E+00  0.19082379859E+03  0.19082379859E+03  0.00000000000E+00 0. -1.
         -2   -1    0    0    0  501 -0.00000000000E+00 -0.00000000000E+00 -0.78519312532E+02  0.78519312532E+02  0.00000000000E+00 0.  1.
         23    2    1    2    0    0  0.26217012948E+02  0.60158505117E+01  0.71891660056E+01  0.12764680509E+03  0.12457327368E+03 0.  0.
          5    1    3    3  502    0 -0.45580744700E+02 -0.15443047654E+02 -0.12807737929E+02  0.49976019841E+02  0.41800000000E+01 0.  1.
         -5    1    3    3    0  502  0.71797757648E+02  0.21458898166E+02  0.19996903934E+02  0.77670785246E+02  0.41800000000E+01 0.  1.
        -11    1    1    2    0    0  0.15370377601E+02 -0.93417172436E+01 -0.90584571354E+01  0.20138814124E+02  0.00000000000E+00 0.  1.
         11    1    1    2    0    0 -0.41587390549E+02  0.33258667319E+01  0.11417377718E+03  0.12155749191E+03  0.00000000000E+00 0. -1.
</event>
<event>
 7    1  0.1243146E-005  0.1678655E+03  0.7561462E-02  0.1180092E+00
          2   -1    0    0  501    0  0.00000000000E+00  0.00000000000E+00  0.23951963645E+03  0.23951963645E+03  0.00000000000E+00 0. -1.
         -2   -1    0    0    0  501 -0.00000000000E+00 -0.00000000000E+00 -0.13055996574E+03  0.13055996574E+03  0.00000000000E+00 0.  1.
         23    2    1    2    0    0 -0.57305312452E+02  0.12494927171E+03  0.34060282904E+02  0.18895487890E+03  0.12509046347E+03 0.  0.
          5    1    3    3  502    0  0.18332253104E+02 -0.16065256816E+02  0.11587641282E+02  0.27311349489E+02  0.41800000000E+01 0. -1.
         -5    1    3    3    0  502 -0.75637565556E+02  0.14101452853E+03  0.22472641622E+02  0.16164352941E+03  0.41800000000E+01 0. -1.
        -11    1    1    2    0    0 -0.48111198483E+01 -0.63050549070E+02  0.68462444398E+02  0.93196700077E+02  0.00000000000E+00 0. -1.
         11    1    1    2    0    0  0.62116432300E+02 -0.61898722643E+02  0.64369434058E+01  0.87928023218E+02  0.00000000000E+00 0.  1.
</event>
<event>
 7    1  0.1243146E-005  0.1781863E+03  0.7561462E-02  0.1169570E+00
          1   -1    0    0  501    0  0.00000000000E+00  0.00000000000E+00  0.23479845644E+03  0.23479845644E+03  0.00000000000E+00 0. -1.
         -1   -1    0    0    0  501 -0.00000000000E+00 -0.00000000000E+00 -0.16608492515E+03  0.16608492515E+03  0.00000000000E+00 0.  1.
         23    2    1    2    0    0 -0.14835093744E+03  0.57890921535E+02 -0.83018455974E+01  0.20267241687E+03  0.12509128061E+03 0.  0.
          5    1    3    3  502    0 -0.76216634857E+02  0.66195384497E+02  0.46874977788E+02  0.11138016116E+03  0.41800000000E+01 0.  1.
         -5    1    3    3    0  502 -0.72134302583E+02 -0.83044629625E+01 -0.55176823385E+02  0.91292255713E+02  0.41800000000E+01 0.  1.
        -11    1    1    2    0    0  0.15815693475E+03 -0.41509493167E+02  0.67830185141E+02  0.17702425836E+03  0.00000000000E+00 0.  1.
         11    1    1    2    0    0 -0.98059973102E+01 -0.16381428368E+02  0.91851917460E+01  0.21186706352E+02  0.00000000000E+00 0. -1.
</event>
<event>
 7    1  0.1243146E-005  0.1400803E+03  0.7561462E-02  0.1213221E+00
          1   -1    0    0  501    0  0.00000000000E+00  0.00000000000E+00  0.41909781969E+03  0.41909781969E+03  0.00000000000E+00 0. -1.
         -1   -1    0    0    0  501 -0.00000000000E+00 -0.00000000000E+00 -0.66472652219E+02  0.66472652219E+02  0.00000000000E+00 0.  1.
         23    2    1    2    0    0 -0.82011172181E+02 -0.86410185363E+02  0.15784319291E+03  0.23399429526E+03  0.12508518764E+03 0.  0.
          5    1    3    3  502    0 -0.84934249420E+02 -0.13522538816E+02  0.12973329171E+03  0.15570769139E+03  0.41800000000E+01 0.  1.
         -5    1    3    3    0  502  0.29230772390E+01 -0.72887646547E+02  0.28109901204E+02  0.78286603869E+02  0.41800000000E+01 0.  1.
        -11    1    1    2    0    0  0.40565651464E+01  0.14061225846E+02 -0.12079338686E+02  0.18975885122E+02  0.00000000000E+00 0.  1.
         11    1    1    2    0    0  0.77954607035E+02  0.72348959517E+02  0.20686131325E+03  0.23260029153E+03  0.00000000000E+00 0. -1.
</event>
<event>
 7    1  0.1243146E-005  0.1163873E+03  0.7561462E-02  0.1249179E+00
         -2   -1    0    0    0  501 -0.00000000000E+00  0.00000000000E+00  0.27975023112E+03  0.27975023112E+03  0.00000000000E+00 0.  1.
          2   -1    0    0  501    0  0.00000000000E+00 -0.00000000000E+00 -0.54385841142E+02  0.54385841142E+02  0.00000000000E+00 0. -1.
         23    2    1    2    0    0 -0.57119756789E+02  0.27472012031E+01  0.12427328897E+03  0.18536823178E+03  0.12508923723E+03 0.  0.
          5    1    3    3  502    0  0.21113703851E+02  0.33239222393E+02  0.82457580408E+02  0.91473271300E+02  0.41800000000E+01 0.  1.
         -5    1    3    3    0  502 -0.78233460641E+02 -0.30492021190E+02  0.41815708564E+02  0.93894960476E+02  0.41800000000E+01 0.  1.
        -11    1    1    2    0    0 -0.25944275626E+02  0.92179415582E+00  0.25756030482E+02  0.36569498881E+02  0.00000000000E+00 0. -1.
         11    1    1    2    0    0  0.83064032415E+02 -0.36689953589E+01  0.75335070524E+02  0.11219834160E+03  0.00000000000E+00 0.  1.
</event>
<event>
 7    1  0.1243146E-005  0.1069779E+03  0.7561462E-02  0.1266271E+00
         -1   -1    0    0    0  501 -0.00000000000E+00  0.00000000000E+00  0.73112292812E+02  0.73112292812E+02  0.00000000000E+00 0.  1.
          1   -1    0    0  501    0  0.00000000000E+00 -0.00000000000E+00 -0.28748620905E+03  0.28748620905E+03  0.00000000000E+00 0. -1.
         23    2    1    2    0    0  0.18262321592E+01 -0.40717123312E+02 -0.59064628117E+01  0.13169578845E+03  0.12509066767E+03 0.  0.
          5    1    3    3  502    0  0.36729065779E+02 -0.69392621156E+02 -0.24961007021E+02  0.82491723314E+02  0.41800000000E+01 0. -1.
         -5    1    3    3    0  502 -0.34902833620E+02  0.28675497844E+02  0.19054544209E+02  0.49204065140E+02  0.41800000000E+01 0. -1.
        -11    1    1    2    0    0 -0.19506070133E+02  0.60422081047E+02 -0.11071554413E+03  0.12762933191E+03  0.00000000000E+00 0.  1.
         11    1    1    2    0    0  0.17679837974E+02 -0.19704957735E+02 -0.97751909297E+02  0.10127338150E+03  0.00000000000E+00 0. -1.
</event>
<event>
 6    1  0.1243146E-005  0.1358465E+03  0.7561462E-02  0.1219030E+00
          2   -1    0    0  501    0  0.00000000000E+00  0.00000000000E+00  0.32209588728E+03  0.32209588728E+03  0.00000000000E+00 0. -1.
         -2   -1    0    0    0  501 -0.00000000000E+00 -0.00000000000E+00 -0.66113626512E+02  0.66113626512E+02  0.00000000000E+00 0.  1.
          5    1    1    2  502    0 -0.14321444720E+02  0.11707423884E+03  0.70122749168E+02  0.13728129345E+03  0.41800000000E+01 0. -1.
         -5    1    1    2    0  502  0.64547275525E+01 -0.55250231735E+02  0.45865782502E+02  0.72217684947E+02  0.41800000000E+01 0.  1.
        -11    1    1    2    0    0 -0.23874756005E+02  0.45604855023E+01  0.80487222422E+02  0.84077315464E+02  0.00000000000E+00 0. -1.
         11    1    1    2    0    0  0.31741473173E+02 -0.66384492611E+02  0.59506506675E+02  0.94633219934E+02  0.00000000000E+00 0.  1.
</event>
<event>
 6    1  0.1243146E-005  0.1025122E+03  0.7561462E-02  0.1275100E+00
          1   -1    0    0  501    0  0.00000000000E+00  0.00000000000E+00  0.26755392027E+03  0.26755392027E+03  0.00000000000E+00 0. -1.
         -1   -1    0    0    0  501 -0.00000000000E+00 -0.00000000000E+00 -0.13531626626E+03  0.13531626626E+03  0.00000000000E+00 0.  1.
          5    1    1    2  502    0  0.41445629478E+02  0.49768862722E+02  0.26624460756E+01  0.64955684267E+02  0.41800000000E+01 0. -1.
         -5    1    1    2    0  502 -0.39975495286E+01 -0.56726640998E+02 -0.84745421755E+02  0.10214279764E+03  0.41800000000E+01 0.  1.
        -11    1    1    2    0    0  0.22357565692E+02 -0.27078560669E+01  0.14062993517E+02  0.26551101951E+02  0.00000000000E+00 0.  1.
         11    1    1    2    0    0 -0.59805645642E+02  0.96656343436E+01  0.20025763617E+03  0.20922060267E+03  0.00000000000E+00 0. -1.
</event>
<event>
 7    1  0.1243146E-005  0.8789007E+02  0.7561462E-02  0.1308043E+00
         -1   -1    0    0    0  501 -0.00000000000E+00  0.00000000000E+00  0.24232808943E+03  0.24232808943E+03  0.00000000000E+00 0.  1.
          1   -1    0    0  501    0  0.00000000000E+00 -0.00000000000E+00 -0.11071189836E+03  0.11071189836E+03  0.00000000000E+00 0. -1.
         23    2    1    2    0    0 -0.73847795713E+02  0.31023467255E+02  0.16815866749E+03  0.22436112495E+03  0.12507847330E+03 0.  0.
          5    1    3    3  502    0 -0.17116658522E+01 -0.36922264602E+00  0.14093541329E+03  0.14100825949E+03  0.41800000000E+01 0.  1.
         -5    1    3    3    0  502 -0.72136129861E+02  0.31392689901E+02  0.27223254198E+02  0.83352865456E+02  0.41800000000E+01 0.  1.
        -11    1    1    2    0    0  0.46178411671E+02  0.56531420265E+01  0.24261553577E+02  0.52469292936E+02  0.00000000000E+00 0.  1.
         11    1    1    2    0    0  0.27669384042E+02 -0.36676609281E+02 -0.60804029997E+02  0.76209569908E+02  0.00000000000E+00 0. -1.
</event>
<event>
 7    1  0.1243146E-005  0.9022924E+02  0.7561462E-02  0.1302298E+00
         -1   -1    0    0    0  501 -0.00000000000E+00  0.00000000000E+00  0.44658046664E+02  0.44658046664E+02  0.00000000000E+00 0.  1.
          1   -1    0    0  501    0  0.00000000000E+00 -0.00000000000E+00 -0.49761976207E+03  0.49761976207E+03  0.00000000000E+00 0. -1.
         23    2    1    2    0    0 -0.24408073981E+01 -0.32831896021E+02 -0.69330976288E+02  0.14675950424E+03  0.12509067461E+03 0.  0.
          5    1    3    3  502    0  0.36931823415E+02 -0.22321735059E+02  0.20553168852E+02  0.47980460468E+02  0.41800000000E+01 0.  1.
         -5    1    3    3    0  502 -0.39372630813E+02 -0.10510160962E+02 -0.89884145140E+02  0.98779043770E+02  0.41800000000E+01 0.  1.
        -11    1    1    2    0    0 -0.41231496110E+02 -0.44254383323E+00 -0.17362142577E+03  0.17845064192E+03  0.00000000000E+00 0.  1.
         11    1    1    2    0    0  0.43672303508E+02  0.33274439855E+02 -0.21000931335E+03  0.21706766257E+03  0.00000000000E+00 0. -1.
</event>
<event>
 7    1  0.1243146E-005  0.3388731E+03  0.7561462E-02  0.1067277E+00
         -2   -1    0    0    0  501 -0.00000000000E+00  0.00000000000E+00  0.15096695917E+03  0.15096695917E+03  0.00000000000E+00 0.  1.
          2   -1    0    0  501    0  0.00000000000E+00 -0.00000000000E+00 -0.11725307274E+04  0.11725307274E+04  0.00000000000E+00 0. -1.
         23    2    1    2    0    0 -0.21187009662E+03  0.25293785947E+03 -0.14404557342E+03  0.38113501310E+03  0.12509305496E+03 0.  0.
          5    1    3    3  502    0 -0.85236015335E+02  0.44746783129E+02 -0.89238040177E+02  0.13133298567E+03  0.41800000000E+01 0. -1.
         -5    1    3    3    0  502 -0.12663408128E+03  0.20819107634E+03 -0.54807533239E+02  0.24980202743E+03  0.41800000000E+01 0. -1.
        -11    1    1    2    0    0  0.11827930605E+03 -0.19355051826E+03 -0.50286159009E+03  0.55165349283E+03  0.00000000000E+00 0.  1.
         11    1    1    2    0    0  0.93590790564E+02 -0.59387341206E+02 -0.37465660471E+03  0.39070918062E+03  0.00000000000E+00 0. -1.
</event>
<event>
 7    1  0.1243146E-005  0.1202567E+03  0.7561462E-02  0.1242674E+00
          2   -1    0    0  501    0  0.00000000000E+00  0.00000000000E+00  0.46826799541E+03  0.46826799541E+03  0.00000000000E+00 0.  1.
         -2   -1    0    0    0  501 -0.00000000000E+00 -0.00000000000E+00 -0.43597108383E+02  0.43597108383E+02  0.00000000000E+00 0. -1.
         23    2    1    2    0    0  0.70359205867E+02  0.48253757680E+02  0.27431157954E+03  0.31332473130E+03  0.12508677626E+03 0.  0.
          5    1    3    3  502    0  0.51691608363E+02  0.74825501808E+02  0.26359506290E+03  0.27887399965E+03  0.41800000000E+01 0.  1.
         -5    1    3    3    0  502  0.18667597505E+02 -0.26571744128E+02  0.10716516643E+02  0.34450731655E+02  0.41800000000E+01 0.  1.
        -11    1    1    2    0    0 -0.30364293513E+02 -0.66247924195E+02  0.48220735975E+02  0.87384307279E+02  0.00000000000E+00 0. -1.
         11    1    1    2    0    0 -0.39994912354E+02  0.17994166515E+02  0.10213857151E+03  0.11115606521E+03  0.00000000000E+00 0.  1.
</event>
<event>
 7    1  0.1243146E-005  0.1151396E+03  0.7561462E-02  0.1251338E+00
          2   -1    0    0  501    0  0.00000000000E+00  0.00000000000E+00  0.18686249270E+02  0.18686249270E+02  0.00000000000E+00 0. -1.
         -2   -1    0    0    0  501 -0.00000000000E+00 -0.00000000000E+00 -0.89147749938E+03  0.89147749938E+03  0.00000000000E+00 0.  1.
         23    2    1    2    0    0  0.43852256286E+02 -0.50510704408E+02 -0.51905688137E+03  0.53809124497E+03  0.12509112749E+03 0.  0.
          5    1    3    3  502    0  0.86596196919E+02 -0.19467868006E+02 -0.32308654860E+03  0.33508251147E+03  0.41800000000E+01 0. -1.
         -5    1    3    3    0  502 -0.42743940634E+02 -0.31042836403E+02 -0.19597033277E+03  0.20300873350E+03  0.41800000000E+01 0. -1.
        -11    1    1    2    0    0 -0.18178435380E+02 -0.11366238324E+02 -0.13567380865E+02  0.25371651701E+02  0.00000000000E+00 0. -1.
         11    1    1    2    0    0 -0.25673820905E+02  0.61876942732E+02 -0.34016698788E+03  0.34670085198E+03  0.00000000000E+00 0.  1.
</event>
<event>
 7    1  0.1243146E-005  0.1355120E+03  0.7561462E-02  0.1219499E+00
          2   -1    0    0  501    0  0.00000000000E+00  0.00000000000E+00  0.10570133782E+04  0.10570133782E+04  0.00000000000E+00 0. -1.
         -2   -1    0    0    0  501 -0.00000000000E+00 -0.00000000000E+00 -0.26341608927E+02  0.26341608927E+02  0.00000000000E+00 0.  1.
         23    2    1    2    0    0  0.11703390677E+02 -0.10473307188E+03  0.32203845541E+03  0.36119728108E+03  0.12509485760E+03 0.  0.
          5    1    3    3  502    0  0.47405312511E+02 -0.74141649851E+02  0.96063606108E+02  0.13034545146E+03  0.41800000000E+01 0.  1.
         -5    1    3    3    0  502 -0.35701921834E+02 -0.30591422032E+02  0.22597484930E+03  0.23085182962E+03  0.41800000000E+01 0.  1.
        -11    1    1    2    0    0  0.21122733838E+02  0.10041612332E+03  0.59561427726E+03  0.60438889383E+03  0.00000000000E+00 0. -1.
         11    1    1    2    0    0 -0.32826124515E+02  0.43169485606E+01  0.11301903657E+03  0.11776881218E+03  0.00000000000E+00 0.  1.
</event>
<event>
 7    1  0.1243146E-005  0.1256306E+03  0.7561462E-02  0.1234087E+00
         -1   -1    0    0    0  501 -0.00000000000E+00  0.00000000000E+00  0.33391530391E+02  0.33391530391E+02  0.00000000000E+00 0.  1.
          1   -1    0    0  501    0  0.00000000000E+00 -0.00000000000E+00 -0.73949232064E+03  0.73949232064E+03  0.00000000000E+00 0. -1.
         23    2    1    2    0    0  0.50841687176E+02  0.51982776367E+02 -0.16582531129E+03  0.22007847944E+03  0.12509763010E+03 0.  0.
          5    1    3    3  502    0  0.32600841044E+02  0.89320937816E+02 -0.14490504342E+03  0.17336663110E+03  0.41800000000E+01 0. -1.
         -5    1    3    3    0  502  0.18240846132E+02 -0.37338161450E+02 -0.20920267861E+02  0.46711848341E+02  0.41800000000E+01 0. -1.
        -11    1    1    2    0    0 -0.42952489311E+02  0.16033414859E+02 -0.27715691530E+03  0.28092337466E+03  0.00000000000E+00 0. -1.
         11    1    1    2    0    0 -0.78891978650E+01 -0.68016191225E+02 -0.26311856366E+03  0.27188199693E+03  0.00000000000E+00 0.  1.
</event>
<event>
 7    1  0.1243146E-005  0.1838067E+03  0.7561462E-02  0.1164169E+00
          2   -1    0    0  501    0  0.00000000000E+00  0.00000000000E+00  0.79485859222E+03  0.79485859222E+03  0.00000000000E+00 0. -1.
         -2   -1    0    0    0  501 -0.00000000000E+00 -0.00000000000E+00 -0.53967330648E+02  0.53967330648E+02  0.00000000000E+00 0.  1.
         23    2    1    2    0    0  0.15909549576E+03 -0.73705319246E+02  0.36056727458E+03  0.42000551370E+03  0.12510803803E+03 0.  0.
          5    1    3    3  502    0  0.52629024169E+02 -0.48780555030E+02  0.42187889067E+02  0.83346548326E+02  0.41800000000E+01 0.  1.
         -5    1    3    3    0  502  0.10646647159E+03 -0.24924764216E+02  0.31837938551E+03  0.33665896537E+03  0.41800000000E+01 0.  1.
        -11    1    1    2    0    0 -0.11832153141E+01  0.19225482055E+02  0.10524511583E+03  0.10699324074E+03  0.00000000000E+00 0. -1.
         11    1    1    2    0    0 -0.15791228045E+03  0.54479837190E+02  0.27507887116E+03  0.32182716843E+03  0.00000000000E+00 0.  1.
</event>
<event>
 7    1  0.1243146E-005  0.2555294E+03  0.7561462E-02  0.1109859E+00
         -2   -1    0    0    0  501 -0.00000000000E+00  0.00000000000E+00  0.74457024768E+02  0.74457024768E+02  0.00000000000E+00 0.  1.
          2   -1    0    0  501    0  0.00000000000E+00 -0.00000000000E+00 -0.10692970710E+04  0.10692970710E+04  0.00000000000E+00 0. -1.
         23    2    1    2    0    0 -0.22443491332E+03 -0.59981852028E+02 -0.27158469139E+03  0.37864909009E+03  0.12509210982E+03 0.  0.
          5    1    3    3  502    0 -0.71917046745E+02 -0.80093388035E+02 -0.88041534024E+02  0.13912511108E+03  0.41800000000E+01 0. -1.
         -5    1    3    3    0  502 -0.15251786657E+03  0.20111536007E+02 -0.18354315737E+03  0.23952397901E+03  0.41800000000E+01 0. -1.
        -11    1    1    2    0    0  0.14375064185E+03 -0.79440623225E+01 -0.42979392014E+03  0.45326611273E+03  0.00000000000E+00 0.  1.
         11    1    1    2    0    0  0.80684271470E+02  0.67925914351E+02 -0.29346143473E+03  0.31183889299E+03  0.00000000000E+00 0. -1.
</event>
<event>
 7    1  0.1243146E-005  0.7546306E+02  0.7561462E-02  0.1342443E+00
         -1   -1    0    0    0  501 -0.00000000000E+00  0.00000000000E+00  0.13414700057E+03  0.13414700057E+03  0.00000000000E+00 0.  1.
          1   -1    0    0  501    0  0.00000000000E+00 -0.00000000000E+00 -0.13451300506E+03  0.13451300506E+03  0.00000000000E+00 0. -1.
         23    2    1    2    0    0 -0.77132682375E+01  0.11947354833E+02  0.56520581169E+02  0.13800285695E+03  0.12509188077E+03 0.  0.
          5    1    3    3  502    0  0.41385447021E+02  0.37628988235E+02  0.60241089158E+02  0.82311343105E+02  0.41800000000E+01 0.  1.
         -5    1    3    3    0  502 -0.49098715259E+02 -0.25681633402E+02 -0.37205079890E+01  0.55691513841E+02  0.41800000000E+01 0.  1.
        -11    1    1    2    0    0  0.20746396395E+02  0.11669406456E+01  0.32940620122E+02  0.38946876228E+02  0.00000000000E+00 0.  1.
         11    1    1    2    0    0 -0.13033128157E+02 -0.13114295479E+02 -0.89827205781E+02  0.91710272455E+02  0.00000000000E+00 0. -1.
</event>
<event>
 7    1  0.1243146E-005  0.1142127E+03  0.7561462E-02  0.1252962E+00
          2   -1    0    0  501    0  0.00000000000E+00  0.00000000000E+00  0.18469761894E+03  0.18469761894E+03  0.00000000000E+00 0. -1.
         -2   -1    0    0    0  501 -0.00000000000E+00 -0.00000000000E+00 -0.87113351866E+02  0.87113351866E+02  0.00000000000E+00 0.  1.
         23    2    1    2    0    0  0.20744229319E+02 -0.32341971725E+02 -0.35005313033E+01  0.13090201951E+03  0.12508700495E+03 0.  0.
          5    1    3    3  502    0  0.16665352978E+02 -0.80315045588E+02  0.27120934755E+01  0.82177055124E+02  0.41800000000E+01 0.  1.
         -5    1    3    3    0  502  0.40788763407E+01  0.47973073864E+02 -0.62126247788E+01  0.48724964390E+02  0.41800000000E+01 0.  1.
        -11    1    1    2    0    0 -0.48185975742E+02 -0.83313308262E+01  0.54990932386E+02  0.73588735390E+02  0.00000000000E+00 0.  1.
         11    1    1    2    0    0  0.27441746423E+02  0.40673302551E+02  0.46093865987E+02  0.67320215900E+02  0.00000000000E+00 0. -1.
</event>
<event>
 7    1  0.1243146E-005  0.6801156E+02  0.7561462E-02  0.1366988E+00
         -2   -1    0    0    0  501 -0.00000000000E+00  0.00000000000E+00  0.11519173104E+04  0.11519173104E+04  0.00000000000E+00 0.  1.
          2   -1    0    0  501    0  0.00000000000E+00 -0.00000000000E+00 -0.16421585395E+02  0.16421585395E+02  0.00000000000E+00 0. -1.
         23    2    1    2    0    0  0.30245439680E+02 -0.18553464915E+02  0.94654179772E+03  0.95543045343E+03  0.12508780448E+03 0.  0.
          5    1    3    3  502    0  0.11598742434E+02 -0.14172661496E+02  0.92879805813E+03  0.92898799796E+03  0.41800000000E+01 0.  1.
         -5    1    3    3    0  502  0.18646697246E+02 -0.43808034186E+01  0.17743739581E+02  0.26442455467E+02  0.41800000000E+01 0.  1.
        -11    1    1    2    0    0 -0.14499986406E+02  0.55557509081E+02  0.12132827683E+03  0.13422904745E+03  0.00000000000E+00 0. -1.
         11    1    1    2    0    0 -0.15745453275E+02 -0.37004044166E+02  0.67625650421E+02  0.78679394878E+02  0.00000000000E+00 0.  1.
</event>
<event>
 7    1  0.1243146E-005  0.1106938E+03  0.7561462E-02  0.1259291E+00
          1   -1    0    0  501    0  0.00000000000E+00  0.00000000000E+00  0.37318149569E+03  0.37318149569E+03  0.00000000000E+00 0. -1.
         -1   -1    0    0    0  501 -0.00000000000E+00 -0.00000000000E+00 -0.38260992187E+02  0.38260992187E+02  0.00000000000E+00 0.  1.
         23    2    1    2    0    0  0.16567712085E+02  0.27296871679E+02  0.11921597839E+03  0.17572579576E+03  0.12508995765E+03 0.  0.
          5    1    3    3  502    0 -0.16347008691E+01 -0.49281015694E+02  0.36672105830E+02  0.61592260072E+02  0.41800000000E+01 0.  1.
         -5    1    3    3    0  502  0.18202412955E+02  0.76577887373E+02  0.82543872560E+02  0.11413353569E+03  0.41800000000E+01 0.  1.
        -11    1    1    2    0    0 -0.14561049228E+02 -0.59275919187E+02  0.16278932140E+03  0.17385632549E+03  0.00000000000E+00 0.  1.
         11    1    1    2    0    0 -0.20066628573E+01  0.31979047507E+02  0.52915203709E+02  0.61860366624E+02  0.00000000000E+00 0. -1.
</event>
<event>
 7    1  0.1243146E-005  0.2418888E+03  0.7561462E-02  0.1118541E+00
          2   -1    0    0  501    0  0.00000000000E+00  0.00000000000E+00  0.57449044369E+02  0.57449044369E+02  0.00000000000E+00 0. -1.
         -2   -1    0    0    0  501 -0.00000000000E+00 -0.00000000000E+00 -0.13292396414E+04  0.13292396414E+04  0.00000000000E+00 0.  1.
         23    2    1    2    0    0 -0.13299572334E+03  0.20181219693E+03 -0.80755015279E+03  0.85217412837E+03  0.12508984989E+03 0.  0.
          5    1    3    3  502    0 -0.22718058573E+02  0.35856884608E+02 -0.35666476498E+03  0.35920614324E+03  0.41800000000E+01 0.  1.
         -5    1    3    3    0  502 -0.11027766477E+03  0.16595531232E+03 -0.45088538781E+03  0.49296798514E+03  0.41800000000E+01 0.  1.
        -11    1    1    2    0    0  0.97443299353E+02 -0.14127467949E+03 -0.41406415227E+03  0.44822188015E+03  0.00000000000E+00 0. -1.
         11    1    1    2    0    0  0.35552423987E+02 -0.60537517438E+02 -0.50176291964E+02  0.86292677234E+02  0.00000000000E+00 0.  1.
</event>
<event>
 7    1  0.1243146E-005  0.1621513E+03  0.7561462E-02  0.1186289E+00
          2   -1    0    0  501    0  0.00000000000E+00  0.00000000000E+00  0.83154583755E+03  0.83154583755E+03  0.00000000000E+00 0. -1.
         -2   -1    0    0    0  501 -0.00000000000E+00 -0.00000000000E+00 -0.44334166546E+02  0.44334166546E+02  0.00000000000E+00 0.  1.
         23    2    1    2    0    0  0.12184757631E+03 -0.97084551812E+02  0.35415346350E+03  0.40662315736E+03  0.12508187054E+03 0.  0.
          5    1    3    3  502    0  0.11836501931E+03 -0.74259123847E+02  0.35660892724E+03  0.38303014850E+03  0.41800000000E+01 0. -1.
         -5    1    3    3    0  502  0.34825570059E+01 -0.22825427966E+02 -0.24554637379E+01  0.23593008865E+02  0.41800000000E+01 0. -1.
        -11    1    1    2    0    0 -0.60096429337E+02  0.22395540535E+02  0.76820275039E+02  0.10007245231E+03  0.00000000000E+00 0.  1.
         11    1    1    2    0    0 -0.61751146977E+02  0.74689011278E+02  0.35623793246E+03  0.36918439442E+03  0.00000000000E+00 0. -1.
</event>
<event>
 7    1  0.1243146E-005  0.2262371E+03  0.7561462E-02  0.1129317E+00
          2   -1    0    0  501    0  0.00000000000E+00  0.00000000000E+00  0.61016199759E+03  0.61016199759E+03  0.00000000000E+00 0. -1.
         -2   -1    0    0    0  501 -0.00000000000E+00 -0.00000000000E+00 -0.10989391325E+03  0.10989391325E+03  0.00000000000E+00 0.  1.
         23    2    1    2    0    0 -0.21197637865E+03 -0.42207885343E+02  0.12928100083E+03  0.28120379840E+03  0.12508600389E+03 0.  0.
          5    1    3    3  502    0  0.70570199298E+01  0.62749866305E+01 -0.12172307661E+02  0.15962908923E+02  0.41800000000E+01 0.  1.
         -5    1    3    3    0  502 -0.21903339858E+03 -0.48482871974E+02  0.14145330849E+03  0.26524088948E+03  0.41800000000E+01 0.  1.
        -11    1    1    2    0    0  0.12599504928E+03  0.11689154267E+02  0.13111960919E+03  0.18221893613E+03  0.00000000000E+00 0.  1.
         11    1    1    2    0    0  0.85981329365E+02  0.30518731076E+02  0.23986747431E+03  0.25663317630E+03  0.00000000000E+00 0. -1.
</event>
<event>
 7    1  0.1243146E-005  0.6443278E+02  0.7561462E-02  0.1380118E+00
          2   -1    0    0  501    0  0.00000000000E+00  0.00000000000E+00  0.25395956382E+03  0.25395956382E+03  0.00000000000E+00 0. -1.
         -2   -1    0    0    0  501 -0.00000000000E+00 -0.00000000000E+00 -0.46958590644E+02  0.46958590644E+02  0.00000000000E+00 0.  1.
         23    2    1    2    0    0 -0.82790127642E+01 -0.11810930563E+02  0.11554732494E+03  0.17088583631E+03  0.12507095833E+03 0.  0.
          5    1    3    3  502    0 -0.35988783476E+02  0.25140189197E+01 -0.12975129541E+02  0.38566037051E+02  0.41800000000E+01 0. -1.
         -5    1    3    3    0  502  0.27709770712E+02 -0.14324949483E+02  0.12852245448E+03  0.13231979926E+03  0.41800000000E+01 0. -1.
        -11    1    1    2    0    0 -0.25817317851E+02  0.45700180312E+01 -0.56859947928E+01  0.26828147581E+02  0.00000000000E+00 0.  1.
         11    1    1    2    0    0  0.34096330615E+02  0.72409125320E+01  0.97139643027E+02  0.10320417057E+03  0.00000000000E+00 0. -1.
</event>
<event>
 7    1  0.1243146E-005  0.1762282E+03  0.7561462E-02  0.1171504E+00
          1   -1    0    0  501    0  0.00000000000E+00  0.00000000000E+00  0.44801179674E+03  0.44801179674E+03  0.00000000000E+00 0. -1.
         -1   -1    0    0    0  501 -0.00000000000E+00 -0.00000000000E+00 -0.75605904636E+02  0.75605904636E+02  0.00000000000E+00 0.  1.
         23    2    1    2    0    0 -0.10953461639E+03  0.10100137636E+03  0.21497857237E+03  0.28993570507E+03  0.12509123183E+03 0.  0.
          5    1    3    3  502    0 -0.13293975492E+03  0.69109708197E+02  0.19339113985E+03  0.24467679821E+03  0.41800000000E+01 0.  1.
         -5    1    3    3    0  502  0.23405138532E+02  0.31891668163E+02  0.21587432519E+02  0.45258906866E+02  0.41800000000E+01 0.  1.
        -11    1    1    2    0    0  0.10083766653E+03 -0.52829556136E+02  0.70445534476E+02  0.13387221639E+03  0.00000000000E+00 0.  1.
         11    1    1    2    0    0  0.86969498598E+01 -0.48171820223E+02  0.86981785256E+02  0.99809779915E+02  0.00000000000E+00 0. -1.
</event>
<event>
 7    1  0.1243146E-005  0.1289955E+03  0.7561462E-02  0.1228954E+00
          2   -1    0    0  501    0  0.00000000000E+00  0.00000000000E+00  0.78917619757E+02  0.78917619757E+02  0.00000000000E+00 0. -1.
         -2   -1    0    0    0  501 -0.00000000000E+00 -0.00000000000E+00 -0.24465864871E+03  0.24465864871E+03  0.00000000000E+00 0.  1.
         23    2    1    2    0    0 -0.12887904763E+02 -0.80732980181E+02 -0.12362593486E+03  0.19394648043E+03  0.12509177961E+03 0.  0.
          5    1    3    3  502    0  0.52679662689E+02 -0.58446620740E+02 -0.78246141014E+02  0.11104542008E+03  0.41800000000E+01 0. -1.
         -5    1    3    3    0  502 -0.65567567452E+02 -0.22286359441E+02 -0.45379793843E+02  0.82901060355E+02  0.41800000000E+01 0. -1.
        -11    1    1    2    0    0  0.42486319403E+02  0.60646732951E+02  0.42512900921E+00  0.74049269333E+02  0.00000000000E+00 0. -1.
         11    1    1    2    0    0 -0.29598414640E+02  0.20086247230E+02 -0.42540223100E+02  0.55580518695E+02  0.00000000000E+00 0.  1.
</event>
<event>
 7    1  0.1243146E-005  0.6445344E+02  0.7561462E-02  0.1380039E+00
         -2   -1    0    0    0  501 -0.00000000000E+00  0.00000000000E+00  0.10443396188E+04  0.10443396188E+04  0.00000000000E+00 0.  1.
          2   -1    0    0  501    0  0.00000000000E+00 -0.00000000000E+00 -0.12644483229E+02  0.12644483229E+02  0.00000000000E+00 0. -1.
         23    2    1    2    0    0 -0.20336367037E+02 -0.27653357358E+01  0.79083833820E+03  0.80092982603E+03  0.12506835794E+03 0.  0.
          5    1    3    3  502    0 -0.37081387566E+02 -0.17301311179E+02  0.82051575520E+02  0.91783975277E+02  0.41800000000E+01 0.  1.
         -5    1    3    3    0  502  0.16745020529E+02  0.14535975444E+02  0.70878676268E+03  0.70914585075E+03  0.41800000000E+01 0.  1.
        -11    1    1    2    0    0 -0.19853170499E+02 -0.11039329211E+02  0.17457308524E+02  0.28649132433E+02  0.00000000000E+00 0. -1.
         11    1    1    2    0    0  0.40189537536E+02  0.13804664947E+02  0.22339948889E+03  0.22740514360E+03  0.00000000000E+00 0.  1.
</event>
<event>
 7    1  0.1243146E-005  0.1859725E+03  0.7561462E-02  0.1162145E+00
          2   -1    0    0  501    0  0.00000000000E+00  0.00000000000E+00  0.11533763331E+04  0.11533763331E+04  0.00000000000E+00 0. -1.
         -2   -1    0    0    0  501 -0.00000000000E+00 -0.00000000000E+00 -0.38276191552E+02  0.38276191552E+02  0.00000000000E+00 0.  1.
         23    2    1    2    0    0  0.13458355022E+03 -0.82852756338E+02  0.32163540190E+03  0.37957098306E+03  0.12508992046E+03 0.  0.
          5    1    3    3  502    0  0.69444394350E+02  0.24356579952E+02  0.92160004741E+02  0.11801146456E+03  0.41800000000E+01 0.  1.
         -5    1    3    3    0  502  0.65139155870E+02 -0.10720933629E+03  0.22947539716E+03  0.26155951850E+03  0.41800000000E+01 0.  1.
        -11    1    1    2    0    0 -0.11837868618E+03  0.36907685018E+02  0.58550765088E+03  0.59849385944E+03  0.00000000000E+00 0.  1.
         11    1    1    2    0    0 -0.16204864035E+02  0.45945071320E+02  0.20795708880E+03  0.21358768218E+03  0.00000000000E+00 0. -1.
</event>
<event>
 7    1  0.1243146E-005  0.1657549E+03  0.7561462E-02  0.1182349E+00
         -2   -1    0    0    0  501 -0.00000000000E+00  0.00000000000E+00  0.53493326087E+02  0.53493326087E+02  0.00000000000E+00 0.  1.
          2   -1    0    0  501    0  0.00000000000E+00 -0.00000000000E+00 -0.54522495504E+03  0.54522495504E+03  0.00000000000E+00 0. -1.
         23    2    1    2    0    0 -0.11795961592E+03  0.62460731631E+02 -0.21439617815E+03  0.28183041967E+03  0.12508737051E+03 0.  0.
          5    1    3    3  502    0 -0.33431332253E+02 -0.35976399550E+02 -0.35264638652E+02  0.60605465431E+02  0.41800000000E+01 0.  1.
         -5    1    3    3    0  502 -0.84528283663E+02  0.98437131181E+02 -0.17913153950E+03  0.22122495424E+03  0.41800000000E+01 0.  1.
        -11    1    1    2    0    0 -0.19620658328E+01 -0.27388593991E+02 -0.37757322951E+02  0.46686188745E+02  0.00000000000E+00 0.  1.
         11    1    1    2    0    0  0.11992168175E+03 -0.35072137640E+02 -0.23957812785E+03  0.27020167271E+03  0.00000000000E+00 0. -1.
</event>
<event>
 7    1  0.2110735E-005  0.9119366E+02  0.7561462E-02  0.1299987E+00
         -3   -1    0    0    0  501 -0.00000000000E+00  0.00000000000E+00  0.20642009859E+03  0.20642009859E+03  0.00000000000E+00 0.  1.
          3   -1    0    0  501    0  0.00000000000E+00 -0.00000000000E+00 -0.74753576419E+02  0.74753576419E+02  0.00000000000E+00 0. -1.
         23    2    1    2    0    0 -0.26047070488E+02  0.46344041945E+02  0.94195909769E+02  0.16536779696E+03  0.12508964285E+03 0.  0.
          5    1    3    3  502    0  0.36281343066E+02  0.35393599553E+02  0.88007517667E+02  0.10164565072E+03  0.41800000000E+01 0. -1.
         -5    1    3    3    0  502 -0.62328413553E+02  0.10950442393E+02  0.61883921021E+01  0.63722146240E+02  0.41800000000E+01 0. -1.
        -11    1    1    2    0    0 -0.62152386930E+01 -0.32350605960E+02  0.63848659723E+02  0.71845961935E+02  0.00000000000E+00 0.  1.
         11    1    1    2    0    0  0.32262309181E+02 -0.13993435985E+02 -0.26378047321E+02  0.43959916115E+02  0.00000000000E+00 0. -1.
</event>
<event>
 7    1  0.1243146E-005  0.1223358E+03  0.7561462E-02  0.1239293E+00
         -2   -1    0    0    0  501 -0.00000000000E+00  0.00000000000E+00  0.13439195081E+03  0.13439195081E+03  0.00000000000E+00 0.  1.
          2   -1    0    0  501    0  0.00000000000E+00 -0.00000000000E+00 -0.15743132280E+03  0.15743132280E+03  0.00000000000E+00 0. -1.
         23    2    1    2    0    0 -0.55069941048E+02 -0.20566064206E+02  0.62587356613E+02  0.15172447995E+03  0.12508988450E+03 0.  0.
          5    1    3    3  502    0 -0.95367685310E+02 -0.15212725997E+02  0.36967241932E+02  0.10349140935E+03  0.41800000000E+01 0.  1.
         -5    1    3    3    0  502  0.40297744263E+02 -0.53533382084E+01  0.25620114681E+02  0.48233070594E+02  0.41800000000E+01 0.  1.
        -11    1    1    2    0    0  0.18388566303E+02  0.54286329876E+02 -0.63616663429E+02  0.85628411453E+02  0.00000000000E+00 0. -1.
         11    1    1    2    0    0  0.36681374745E+02 -0.33720265671E+02 -0.22010065174E+02  0.54470382218E+02  0.00000000000E+00 0.  1.
</event>
<event>
 7    1  0.1243146E-005  0.9561728E+02  0.7561462E-02  0.1289792E+00
          2   -1    0    0  501    0  0.00000000000E+00  0.00000000000E+00  0.63573094119E+03  0.63573094119E+03  0.00000000000E+00 0. -1.
         -2   -1    0    0    0  501 -0.00000000000E+00 -0.00000000000E+00 -0.20756669684E+02  0.20756669684E+02  0.00000000000E+00 0.  1.
         23    2    1    2    0    0  0.30793655773E+02  0.79786372711E+01  0.28804462781E+03  0.31564133971E+03  0.12509132597E+03 0.  0.
          5    1    3    3  502    0 -0.28320495254E+02  0.39405400249E+02  0.19466552165E+03  0.20066632438E+03  0.41800000000E+01 0. -1.
         -5    1    3    3    0  502  0.59114151027E+02 -0.31426762978E+02  0.93379106164E+02  0.11497501533E+03  0.41800000000E+01 0. -1.
        -11    1    1    2    0    0  0.96657738483E+01  0.22701023033E+02  0.26705486565E+02  0.36358584179E+02  0.00000000000E+00 0.  1.
         11    1    1    2    0    0 -0.40459429621E+02 -0.30679660304E+02  0.30022415713E+03  0.30448768698E+03  0.00000000000E+00 0. -1.
</event>
<event>
 7    1  0.1243146E-005  0.1352236E+03  0.7561462E-02  0.1219904E+00
         -2   -1    0    0    0  501 -0.00000000000E+00  0.00000000000E+00  0.14585217994E+03  0.14585217994E+03  0.00000000000E+00 0.  1.
          2   -1    0    0  501    0  0.00000000000E+00 -0.00000000000E+00 -0.18272092150E+03  0.18272092150E+03  0.00000000000E+00 0. -1.
         23    2    1    2    0    0  0.10223017610E+03 -0.63434325159E+02  0.27627009283E+00  0.17355577107E+03  0.12508639747E+03 0.  0.
          5    1    3    3  502    0  0.66891287788E+02 -0.31814719616E+02 -0.60939645837E+02  0.96009028747E+02  0.41800000000E+01 0.  1.
         -5    1    3    3    0  502  0.35338888315E+02 -0.31619605542E+02  0.61215915930E+02  0.77546742324E+02  0.41800000000E+01 0.  1.
        -11    1    1    2    0    0  0.77835519480E+01 -0.12678743254E+02  0.33422301377E+01  0.15248105251E+02  0.00000000000E+00 0.  1.
         11    1    1    2    0    0 -0.11001372805E+03  0.76113068413E+02 -0.40487241789E+02  0.13976922512E+03  0.00000000000E+00 0. -1.
</event>
<event>
 7    1  0.1243146E-005  0.9456934E+02  0.7561462E-02  0.1292149E+00
          1   -1    0    0  501    0  0.00000000000E+00  0.00000000000E+00  0.71168163727E+03  0.71168163727E+03  0.00000000000E+00 0. -1.
         -1   -1    0    0    0  501 -0.00000000000E+00 -0.00000000000E+00 -0.21719183056E+02  0.21719183056E+02  0.00000000000E+00 0.  1.
         23    2    1    2    0    0  0.87343756243E+00 -0.46232340005E+02  0.25903187061E+03  0.29134812749E+03  0.12509208307E+03 0.  0.
          5    1    3    3  502    0  0.29557854059E+02  0.14425719916E+02  0.19733317605E+03  0.20009903274E+03  0.41800000000E+01 0. -1.
         -5    1    3    3    0  502 -0.28684416497E+02 -0.60658059921E+02  0.61698694555E+02  0.91249094752E+02  0.41800000000E+01 0. -1.
        -11    1    1    2    0    0  0.18220601568E+01  0.67396073447E+02  0.39109457052E+03  0.39686334387E+03  0.00000000000E+00 0.  1.
         11    1    1    2    0    0 -0.26954977192E+01 -0.21163733442E+02  0.39836013086E+02  0.45189348963E+02  0.00000000000E+00 0. -1.
</event>
<event>
 7    1  0.1243146E-005  0.1650552E+03  0.7561462E-02  0.1183105E+00
          1   -1    0    0  501    0  0.00000000000E+00  0.00000000000E+00  0.98603617355E+02  0.98603617355E+02  0.00000000000E+00 0. -1.
         -1   -1    0    0    0  501 -0.00000000000E+00 -0.00000000000E+00 -0.29342433390E+03  0.29342433390E+03  0.00000000000E+00 0.  1.
         23    2    1    2    0    0  0.58158707103E+02 -0.85235885619E+02 -0.69799864815E+02  0.17654064460E+03  0.12508791572E+03 0.  0.
          5    1    3    3  502    0  0.80957744331E+02 -0.16612318555E+02 -0.62580478585E+02  0.10374928527E+03  0.41800000000E+01 0.  1.
         -5    1    3    3    0  502 -0.22799037228E+02 -0.68623567064E+02 -0.72193862298E+01  0.72791359327E+02  0.41800000000E+01 0.  1.
        -11    1    1    2    0    0  0.39309325250E+02 -0.79229355167E+01 -0.21488167114E+02  0.45494365418E+02  0.00000000000E+00 0. -1.
         11    1    1    2    0    0 -0.97468032353E+02  0.93158821136E+02 -0.10353268462E+03  0.16999294124E+03  0.00000000000E+00 0.  1.
</event>
<event>
 7    1  0.1243146E-005  0.1722175E+03  0.7561462E-02  0.1175555E+00
          2   -1    0    0  501    0  0.00000000000E+00  0.00000000000E+00  0.68683992564E+03  0.68683992564E+03  0.00000000000E+00 0. -1.
         -2   -1    0    0    0  501 -0.00000000000E+00 -0.00000000000E+00 -0.61741773811E+02  0.61741773811E+02  0.00000000000E+00 0.  1.
         23    2    1    2    0    0  0.13345914705E+03  0.88928483455E+02  0.19943590406E+03  0.28485745315E+03  0.12509784044E+03 0.  0.
          5    1    3    3  502    0  0.24802434532E+01  0.30399912725E+02  0.11344140839E+03  0.11754459511E+03  0.41800000000E+01 0. -1.
         -5    1    3    3    0  502  0.13097890360E+03  0.58528570730E+02  0.85994495667E+02  0.16731285804E+03  0.41800000000E+01 0. -1.
        -11    1    1    2    0    0 -0.23496275185E+02  0.66636418804E+01  0.16713255314E+02  0.29594120596E+02  0.00000000000E+00 0.  1.
         11    1    1    2    0    0 -0.10996287187E+03 -0.95592125336E+02  0.40894899246E+03  0.43413012571E+03  0.00000000000E+00 0. -1.
</event>
<event>
 6    1  0.1243146E-005  0.1855133E+03  0.7561462E-02  0.1162571E+00
          1   -1    0    0  501    0  0.00000000000E+00  0.00000000000E+00  0.40712071893E+03  0.40712071893E+03  0.00000000000E+00 0. -1.
         -1   -1    0    0    0  501 -0.00000000000E+00 -0.00000000000E+00 -0.10064728925E+03  0.10064728925E+03  0.00000000000E+00 0.  1.
          5    1    1    2  502    0  0.13120691680E+03 -0.27051901008E+02  0.73170124057E+02  0.15270363394E+03  0.41800000000E+01 0. -1.
         -5    1    1    2    0  502 -0.11802812771E+03  0.79938067825E+02  0.67509111665E+02  0.15778366892E+03  0.41800000000E+01 0.  1.
        -11    1    1    2    0    0 -0.38316217832E+02 -0.57230412746E+02  0.15493936890E+03  0.16955724911E+03  0.00000000000E+00 0.  1.
         11    1    1    2    0    0  0.25137428750E+02  0.43442459286E+01  0.10854825063E+02  0.27723456206E+02  0.00000000000E+00 0. -1.
</event>
<event>
 7    1  0.1243146E-005  0.1171652E+03  0.7561462E-02  0.1247848E+00
         -2   -1    0    0    0  501 -0.00000000000E+00  0.00000000000E+00  0.72835740864E+02  0.72835740864E+02  0.00000000000E+00 0.  1.
          2   -1    0    0  501    0  0.00000000000E+00 -0.00000000000E+00 -0.30266302849E+03  0.30266302849E+03  0.00000000000E+00 0. -1.
         23    2    1    2    0    0  0.98105991558E+02 -0.17044762639E+02 -0.99445240351E+02  0.18829201372E+03  0.12509683085E+03 0.  0.
          5    1    3    3  502    0  0.10160703181E+03 -0.13824426652E+01 -0.15683829773E+02  0.10290459162E+03  0.41800000000E+01 0.  1.
         -5    1    3    3    0  502 -0.35010402518E+01 -0.15662319974E+02 -0.83761410579E+02  0.85387422094E+02  0.41800000000E+01 0.  1.
        -11    1    1    2    0    0 -0.34827844847E+02 -0.22464335199E+02 -0.55933357394E+01  0.41819977730E+02  0.00000000000E+00 0.  1.
         11    1    1    2    0    0 -0.63278146711E+02  0.39509097839E+02 -0.12478871154E+03  0.14538677791E+03  0.00000000000E+00 0. -1.
</event>
<event>
 7    1  0.1243146E-005  0.1550600E+03  0.7561462E-02  0.1194390E+00
         -4   -1    0    0    0  501 -0.00000000000E+00  0.00000000000E+00  0.12981869119E+03  0.12981869119E+03  0.00000000000E+00 0.  1.
          4   -1    0    0  501    0  0.00000000000E+00 -0.00000000000E+00 -0.23063683528E+03  0.23063683528E+03  0.00000000000E+00 0. -1.
         23    2    1    2    0    0  0.30450969866E+02  0.11120293819E+03  0.19419913034E+02  0.17095447132E+03  0.12471945804E+03 0.  0.
          5    1    3    3  502    0  0.44612051714E+02  0.13180480184E+03  0.31720410893E+02  0.14278094345E+03  0.41800000000E+01 0. -1.
         -5    1    3    3    0  502 -0.14161081847E+02 -0.20601863646E+02 -0.12300497859E+02  0.28173527865E+02  0.41800000000E+01 0.  1.
        -11    1    1    2    0    0  0.13196586435E+02  0.10116778506E+02 -0.75425583620E+01  0.18258950888E+02  0.00000000000E+00 0. -1.
         11    1    1    2    0    0 -0.43647556301E+02 -0.12131971670E+03 -0.11269549876E+03  0.17124210426E+03  0.00000000000E+00 0.  1.
</event>
<event>
 7    1  0.1243146E-005  0.3338235E+03  0.7561462E-02  0.1069457E+00
         -1   -1    0    0    0  501 -0.00000000000E+00  0.00000000000E+00  0.16342985394E+03  0.16342985394E+03  0.00000000000E+00 0.  1.
          1   -1    0    0  501    0  0.00000000000E+00 -0.00000000000E+00 -0.81354016762E+03  0.81354016762E+03  0.00000000000E+00 0. -1.
         23    2    1    2    0    0 -0.90769956260E+02 -0.30731207472E+03 -0.15175509054E+03  0.37597318631E+03  0.12508530324E+03 0.  0.
          5    1    3    3  502    0  0.13796557280E+02 -0.16480472758E+03 -0.54471105388E+02  0.17417094174E+03  0.41800000000E+01 0.  1.
         -5    1    3    3    0  502 -0.10456651354E+03 -0.14250734714E+03 -0.97283985154E+02  0.20180224456E+03  0.41800000000E+01 0.  1.
        -11    1    1    2    0    0 -0.75080864117E+01  0.37753138158E+02 -0.12085918552E+03  0.12684089848E+03  0.00000000000E+00 0. -1.
         11    1    1    2    0    0  0.98278042671E+02  0.26955893657E+03 -0.37749603761E+03  0.47415593676E+03  0.00000000000E+00 0.  1.
</event>
<event>
 7    1  0.1243146E-005  0.2011179E+03  0.7561462E-02  0.1148799E+00
         -2   -1    0    0    0  501 -0.00000000000E+00  0.00000000000E+00  0.23969170286E+02  0.23969170286E+02  0.00000000000E+00 0.  1.
          2   -1    0    0  501    0  0.00000000000E+00 -0.00000000000E+00 -0.19632859074E+04  0.19632859074E+04  0.00000000000E+00 0. -1.
         23    2    1    2    0    0 -0.12605352070E+03  0.13491064240E+03 -0.11468715411E+04  0.11683559022E+04  0.12510320169E+03 0.  0.
          5    1    3    3  502    0 -0.99300364412E+02  0.13639221078E+03 -0.11090516429E+04  0.11218183527E+04  0.41800000000E+01 0.  1.
         -5    1    3    3    0  502 -0.26753156285E+02 -0.14815683726E+01 -0.37819898193E+02  0.46537549521E+02  0.41800000000E+01 0.  1.
        -11    1    1    2    0    0  0.19173333623E+02 -0.87245903191E+02 -0.33003035999E+03  0.34190569294E+03  0.00000000000E+00 0.  1.
         11    1    1    2    0    0  0.10688018707E+03 -0.47664739214E+02 -0.46241483602E+03  0.47699348247E+03  0.00000000000E+00 0. -1.
</event>
<event>
 7    1  0.1243146E-005  0.1353661E+03  0.7561462E-02  0.1219704E+00
         -1   -1    0    0    0  501 -0.00000000000E+00  0.00000000000E+00  0.24160257108E+02  0.24160257108E+02  0.00000000000E+00 0.  1.
          1   -1    0    0  501    0  0.00000000000E+00 -0.00000000000E+00 -0.79966988699E+03  0.79966988699E+03  0.00000000000E+00 0. -1.
         23    2    1    2    0    0 -0.74944311099E+02  0.21773209814E+02 -0.37071426359E+03  0.39895763717E+03  0.12508960225E+03 0.  0.
          5    1    3    3  502    0 -0.66532217436E+02 -0.44664379333E+02 -0.19465188895E+03  0.21054280565E+03  0.41800000000E+01 0.  1.
         -5    1    3    3    0  502 -0.84120936632E+01  0.66437589147E+02 -0.17606237464E+03  0.18841483152E+03  0.41800000000E+01 0.  1.
        -11    1    1    2    0    0  0.63828505641E+02  0.29936385085E+02 -0.16709382079E+03  0.18135768589E+03  0.00000000000E+00 0.  1.
         11    1    1    2    0    0  0.11115805458E+02 -0.51709594899E+02 -0.23770154550E+03  0.24351482105E+03  0.00000000000E+00 0. -1.
</event>
<event>
 7    1  0.1243146E-005  0.1014003E+03  0.7561462E-02  0.1277379E+00
         -2   -1    0    0    0  501 -0.00000000000E+00  0.00000000000E+00  0.27473353427E+03  0.27473353427E+03  0.00000000000E+00 0.  1.
          2   -1    0    0  501    0  0.00000000000E+00 -0.00000000000E+00 -0.57382873574E+02  0.57382873574E+02  0.00000000000E+00 0. -1.
         23    2    1    2    0    0  0.67680976668E+02 -0.73011405068E+01  0.11483216291E+03  0.18293650572E+03  0.12508124652E+03 0.  0.
          5    1    3    3  502    0  0.81110828274E+02 -0.22929106290E+02  0.13140057192E+03  0.15616751608E+03  0.41800000000E+01 0.  1.
         -5    1    3    3    0  502 -0.13429851606E+02  0.15627965783E+02 -0.16568409014E+02  0.26768989633E+02  0.41800000000E+01 0.  1.
        -11    1    1    2    0    0  0.71768790136E+01 -0.17183269976E+02  0.52926871183E+02  0.56107272725E+02  0.00000000000E+00 0.  1.
         11    1    1    2    0    0 -0.74857855681E+02  0.24484410483E+02  0.49591626602E+02  0.93072629398E+02  0.00000000000E+00 0. -1.
</event>
<event>
 7    1  0.1243146E-005  0.1027659E+03  0.7561462E-02  0.1274585E+00
         -1   -1    0    0    0  501 -0.00000000000E+00  0.00000000000E+00  0.31060103201E+03  0.31060103201E+03  0.00000000000E+00 0.  1.
          1   -1    0    0  501    0  0.00000000000E+00 -0.00000000000E+00 -0.43957302339E+02  0.43957302339E+02  0.00000000000E+00 0. -1.
         23    2    1    2    0    0 -0.21807673402E+02 -0.32634467768E+02  0.16754322905E+03  0.21274232761E+03  0.12509189123E+03 0.  0.
          5    1    3    3  502    0 -0.69687505985E+02 -0.57910110560E+01  0.61310287750E+02  0.93093007704E+02  0.41800000000E+01 0. -1.
         -5    1    3    3    0  502  0.47879832583E+02 -0.26843456712E+02  0.10623294130E+03  0.11964931991E+03  0.41800000000E+01 0. -1.
        -11    1    1    2    0    0  0.23948343373E+02  0.53939476152E+02  0.23978716743E+02  0.63702190657E+02  0.00000000000E+00 0.  1.
         11    1    1    2    0    0 -0.21406699704E+01 -0.21305008384E+02  0.75121783874E+02  0.78113816080E+02  0.00000000000E+00 0. -1.
</event>
<event>
 7    1  0.1243146E-005  0.1839475E+03  0.7561462E-02  0.1164036E+00
          1   -1    0    0  501    0  0.00000000000E+00  0.00000000000E+00  0.11454004334E+04  0.11454004334E+04  0.00000000000E+00 0. -1.
         -1   -1    0    0    0  501 -0.00000000000E+00 -0.00000000000E+00 -0.30934009398E+02  0.30934009398E+02  0.00000000000E+00 0.  1.
         23    2    1    2    0    0 -0.12244918326E+03  0.91017859870E+02  0.60358010487E+03  0.63500551345E+03  0.12507999768E+03 0.  0.
          5    1    3    3  502    0  0.12605887966E+02  0.53900178894E+02  0.13640488019E+03  0.14726812770E+03  0.41800000000E+01 0.  1.
         -5    1    3    3    0  502 -0.13505507122E+03  0.37117680977E+02  0.46717522468E+03  0.48773738575E+03  0.41800000000E+01 0.  1.
        -11    1    1    2    0    0  0.88045438196E+02 -0.10329660091E+03  0.33056771441E+03  0.35734745103E+03  0.00000000000E+00 0.  1.
         11    1    1    2    0    0  0.34403745061E+02  0.12278741042E+02  0.18031860474E+03  0.18398147834E+03  0.00000000000E+00 0. -1.
</event>
<event>
 7    1  0.1243146E-005  0.1036937E+03  0.7561462E-02  0.1272715E+00
         -1   -1    0    0    0  501 -0.00000000000E+00  0.00000000000E+00  0.13577809409E+03  0.13577809409E+03  0.00000000000E+00 0.  1.
          1   -1    0    0  501    0  0.00000000000E+00 -0.00000000000E+00 -0.15393936752E+03  0.15393936752E+03  0.00000000000E+00 0. -1.
         23    2    1    2    0    0 -0.54640037215E+02  0.60615865703E+01  0.67789072660E+02  0.15253036776E+03  0.12509147940E+03 0.  0.
          5    1    3    3  502    0 -0.11343490287E+02  0.44016263283E+02  0.81303484698E+02  0.93240738035E+02  0.41800000000E+01 0.  1.
         -5    1    3    3    0  502 -0.43296546928E+02 -0.37954676713E+02 -0.13514412037E+02  0.59289629726E+02  0.41800000000E+01 0.  1.
        -11    1    1    2    0    0  0.78874065703E+02 -0.98398971096E+01 -0.50823913577E+02  0.94345174794E+02  0.00000000000E+00 0.  1.
         11    1    1    2    0    0 -0.24234028488E+02  0.37783105393E+01 -0.35126432514E+02  0.42841919057E+02  0.00000000000E+00 0. -1.
</event>
<event>
 7    1  0.1243146E-005  0.1650798E+03  0.7561462E-02  0.1183078E+00
         -1   -1    0    0    0  501 -0.00000000000E+00  0.00000000000E+00  0.33879687726E+03  0.33879687726E+03  0.00000000000E+00 0.  1.
          1   -1    0    0  501    0  0.00000000000E+00 -0.00000000000E+00 -0.11441458874E+03  0.11441458874E+03  0.00000000000E+00 0. -1.
         23    2    1    2    0    0  0.11642354681E+03  0.51262113406E+02  0.23645649877E+03  0.29620608367E+03  0.12507646330E+03 0.  0.
          5    1    3    3  502    0  0.91463542452E+02 -0.24996023773E+02  0.15528941468E+03  0.18199630632E+03  0.41800000000E+01 0. -1.
         -5    1    3    3    0  502  0.24960004356E+02  0.76258137178E+02  0.81167084087E+02  0.11420977735E+03  0.41800000000E+01 0. -1.
        -11    1    1    2    0    0 -0.88657809687E+02  0.84406514123E+01  0.42794409527E+01  0.89161457086E+02  0.00000000000E+00 0.  1.
         11    1    1    2    0    0 -0.27765737120E+02 -0.59702764818E+02 -0.16353651201E+02  0.67843925243E+02  0.00000000000E+00 0. -1.
</event>
<event>
 7    1  0.1243146E-005  0.1004818E+03  0.7561462E-02  0.1279286E+00
          1   -1    0    0  501    0  0.00000000000E+00  0.00000000000E+00  0.12569812459E+03  0.12569812459E+03  0.00000000000E+00 0. -1.
         -1   -1    0    0    0  501 -0.00000000000E+00 -0.00000000000E+00 -0.13849677156E+03  0.13849677156E+03  0.00000000000E+00 0.  1.
         23    2    1    2    0    0 -0.48186478896E+02 -0.15753988862E+02 -0.62218007820E+02  0.14862324654E+03  0.12509062316E+03 0.  0.
          5    1    3    3  502    0 -0.47753027382E+02 -0.45793735258E+02  0.12967012630E+02  0.67550230418E+02  0.41800000000E+01 0.  1.
         -5    1    3    3    0  502 -0.43345151451E+00  0.30039746396E+02 -0.75185020450E+02  0.81073016126E+02  0.41800000000E+01 0.  1.
        -11    1    1    2    0    0  0.40281627050E+02 -0.34761658996E+02  0.22261134353E+02  0.57676169400E+02  0.00000000000E+00 0.  1.
         11    1    1    2    0    0  0.79048518460E+01  0.50515647857E+02  0.27158226500E+02  0.57895480202E+02  0.00000000000E+00 0. -1.
</event>
<event>
 7    1  0.1243146E-005  0.1297807E+03  0.7561462E-02  0.1227782E+00
         -1   -1    0    0    0  501 -0.00000000000E+00  0.00000000000E+00  0.19248953436E+02  0.19248953436E+02  0.00000000000E+00 0.  1.
          1   -1    0    0  501    0  0.00000000000E+00 -0.00000000000E+00 -0.97668246004E+03  0.97668246004E+03  0.00000000000E+00 0. -1.
         23    2    1    2    0    0  0.28659815055E+02 -0.72797304304E+02 -0.51003099590E+03  0.53094247676E+03  0.12508982505E+03 0.  0.
          5    1    3    3  502    0 -0.49665496162E+02 -0.27248737313E+02 -0.20203252543E+03  0.20986607379E+03  0.41800000000E+01 0. -1.
         -5    1    3    3    0  502  0.78325311217E+02 -0.45548566992E+02 -0.30799847047E+03  0.32107640297E+03  0.41800000000E+01 0. -1.
        -11    1    1    2    0    0 -0.44905352542E+02  0.81922174942E+02 -0.42804333414E+03  0.43811965184E+03  0.00000000000E+00 0. -1.
         11    1    1    2    0    0  0.16245537487E+02 -0.91248706378E+01 -0.19359176567E+02  0.26869284876E+02  0.00000000000E+00 0.  1.
</event>
<event>
 7    1  0.1243146E-005  0.1098642E+03  0.7561462E-02  0.1260822E+00
          2   -1    0    0  501    0  0.00000000000E+00  0.00000000000E+00  0.19381716945E+03  0.19381716945E+03  0.00000000000E+00 0. -1.
         -2   -1    0    0    0  501 -0.00000000000E+00 -0.00000000000E+00 -0.11640988606E+03  0.11640988606E+03  0.00000000000E+00 0.  1.
         23    2    1    2    0    0 -0.65159308503E+02  0.17102698028E+02 -0.35878732122E+02  0.14653847515E+03  0.12509198023E+03 0.  0.
          5    1    3    3  502    0 -0.65609832803E+02 -0.20730306593E+02  0.26177969402E+02  0.73737061603E+02  0.41800000000E+01 0.  1.
         -5    1    3    3    0  502  0.45052430016E+00  0.37833004621E+02 -0.62056701524E+02  0.72801413549E+02  0.41800000000E+01 0.  1.
        -11    1    1    2    0    0  0.69012265571E+02 -0.46412063335E+02  0.59315282822E+02  0.10215221583E+03  0.00000000000E+00 0.  1.
         11    1    1    2    0    0 -0.38529570685E+01  0.29309365307E+02  0.53970732690E+02  0.61536364533E+02  0.00000000000E+00 0. -1.
</event>
<event>
 7    1  0.1243146E-005  0.6788635E+02  0.7561462E-02  0.1367432E+00
         -1   -1    0    0    0  501 -0.00000000000E+00  0.00000000000E+00  0.91734637237E+02  0.91734637237E+02  0.00000000000E+00 0.  1.
          1   -1    0    0  501    0  0.00000000000E+00 -0.00000000000E+00 -0.15052744792E+03  0.15052744792E+03  0.00000000000E+00 0. -1.
         23    2    1    2    0    0 -0.29872399263E+02 -0.34420937019E+02 -0.26815688533E+02  0.13580811539E+03  0.12509037498E+03 0.  0.
          5    1    3    3  502    0 -0.50389621005E+02 -0.49250104450E+01  0.36729453838E+02  0.62688873113E+02  0.41800000000E+01 0. -1.
         -5    1    3    3    0  502  0.20517221742E+02 -0.29495926574E+02 -0.63545142371E+02  0.73119242279E+02  0.41800000000E+01 0. -1.
        -11    1    1    2    0    0  0.11941984036E+02  0.26752666743E+02 -0.63189199601E+02  0.69650492510E+02  0.00000000000E+00 0. -1.
         11    1    1    2    0    0  0.17930415227E+02  0.76682702765E+01  0.31212077452E+02  0.36803477255E+02  0.00000000000E+00 0.  1.
</event>
<event>
 7    1  0.1243146E-005  0.1806049E+03  0.7561462E-02  0.1167219E+00
          1   -1    0    0  501    0  0.00000000000E+00  0.00000000000E+00  0.31630196779E+03  0.31630196779E+03  0.00000000000E+00 0. -1.
         -1   -1    0    0    0  501 -0.00000000000E+00 -0.00000000000E+00 -0.11901470551E+03  0.11901470551E+03  0.00000000000E+00 0.  1.
         23    2    1    2    0    0  0.62547384096E+02 -0.14331738874E+03  0.63018744282E+02  0.20992441926E+03  0.12507937679E+03 0.  0.
          5    1    3    3  502    0  0.90512684556E+02 -0.11533155422E+03  0.79539394977E+02  0.16684693949E+03  0.41800000000E+01 0. -1.
         -5    1    3    3    0  502 -0.27965300460E+02 -0.27985834524E+02 -0.16520650695E+02  0.43077479769E+02  0.41800000000E+01 0. -1.
        -11    1    1    2    0    0  0.16562938974E+02  0.48624893055E+02  0.14362915495E+02  0.53338583723E+02  0.00000000000E+00 0.  1.
         11    1    1    2    0    0 -0.79110323070E+02  0.94692495686E+02  0.11990560251E+03  0.17205367031E+03  0.00000000000E+00 0. -1.
</event>
<event>
 7    1  0.1243146E-005  0.1332860E+03  0.7561462E-02  0.1222660E+00
         -1   -1    0    0    0  501 -0.00000000000E+00  0.00000000000E+00  0.15627422471E+03  0.15627422471E+03  0.00000000000E+00 0.  1.
          1   -1    0    0  501    0  0.00000000000E+00 -0.00000000000E+00 -0.11507197748E+03  0.11507197748E+03  0.00000000000E+00 0. -1.
         23    2    1    2    0    0  0.60912257305E+02  0.45817523236E+02  0.33409144208E+02  0.15024616786E+03  0.12509273166E+03 0.  0.
          5    1    3    3  502    0  0.54355353112E+02 -0.34850579197E+02  0.73607802102E+01  0.65120816700E+02  0.41800000000E+01 0.  1.
         -5    1    3    3    0  502  0.65569041930E+01  0.80668102434E+02  0.26048363998E+02  0.85125351158E+02  0.41800000000E+01 0.  1.
        -11    1    1    2    0    0 -0.72775463409E+02  0.74208425105E+00  0.58395506039E+01  0.73013143438E+02  0.00000000000E+00 0.  1.
         11    1    1    2    0    0  0.11863206104E+02 -0.46559607487E+02  0.19535524159E+01  0.48086890890E+02  0.00000000000E+00 0. -1.
</event>
<event>
 7    1  0.1243146E-005  0.1234360E+03  0.7561462E-02  0.1237534E+00
         -1   -1    0    0    0  501 -0.00000000000E+00  0.00000000000E+00  0.15954405957E+03  0.15954405957E+03  0.00000000000E+00 0.  1.
          1   -1    0    0  501    0  0.00000000000E+00 -0.00000000000E+00 -0.10948724541E+03  0.10948724541E+03  0.00000000000E+00 0. -1.
         23    2    1    2    0    0  0.16833199905E+02 -0.71484660566E+02  0.22160270073E+02  0.14672945206E+03  0.12508013917E+03 0.  0.
          5    1    3    3  502    0 -0.36218513247E+02 -0.77016008086E+02  0.34320815831E+02  0.91862054204E+02  0.41800000000E+01 0. -1.
         -5    1    3    3    0  502  0.53051713153E+02  0.55313475196E+01 -0.12160545758E+02  0.54867397851E+02  0.41800000000E+01 0. -1.
        -11    1    1    2    0    0  0.31407769021E+02  0.18278283865E+02  0.34591036364E+02  0.50170543277E+02  0.00000000000E+00 0.  1.
         11    1    1    2    0    0 -0.48240968927E+02  0.53206376701E+02 -0.66944922769E+01  0.72131309648E+02  0.00000000000E+00 0. -1.
</event>
<event>
 7    1  0.2478802E-005  0.3004886E+03  0.7561462E-02  0.1084997E+00
         -1   -1    0    0    0  501 -0.00000000000E+00  0.00000000000E+00  0.14413754869E+03  0.14413754869E+03  0.00000000000E+00 0.  1.
          1   -1    0    0  501    0  0.00000000000E+00 -0.00000000000E+00 -0.79096052133E+03  0.79096052133E+03  0.00000000000E+00 0. -1.
         23    2    1    2    0    0 -0.15631085692E+03 -0.24131373797E+03 -0.13519170603E+03  0.34145243087E+03  0.12509021164E+03 0.  0.
          5    1    3    3  502    0 -0.14044762758E+03 -0.11070251210E+03 -0.54269030733E+02  0.18693095617E+03  0.41800000000E+01 0. -1.
         -5    1    3    3    0  502 -0.15863229339E+02 -0.13061122586E+03 -0.80922675300E+02  0.15452147470E+03  0.41800000000E+01 0. -1.
        -11    1    1    2    0    0  0.32613551902E+02  0.85540777989E+02 -0.24080867559E+03  0.25762314862E+03  0.00000000000E+00 0.  1.
         11    1    1    2    0    0  0.12369730502E+03  0.15577295998E+03 -0.27082259102E+03  0.33602249052E+03  0.00000000000E+00 0. -1.
</event>
<event>
 7    1  0.1243146E-005  0.1532660E+03  0.7561462E-02  0.1196516E+00
         -1   -1    0    0    0  501 -0.00000000000E+00  0.00000000000E+00  0.33461946751E+02  0.33461946751E+02  0.00000000000E+00 0.  1.
          1   -1    0    0  501    0  0.00000000000E+00 -0.00000000000E+00 -0.82450664499E+03  0.82450664499E+03  0.00000000000E+00 0. -1.
         23    2    1    2    0    0  0.11779084475E+03 -0.48771745113E+02 -0.42322314652E+03  0.45931624761E+03  0.12490083001E+03 0.  0.
          5    1    3    3  502    0  0.22262557601E+01  0.21769798231E+02 -0.17609549799E+03  0.17749923139E+03  0.41800000000E+01 0.  1.
         -5    1    3    3    0  502  0.11556458899E+03 -0.70541543344E+02 -0.24712764853E+03  0.28181701622E+03  0.41800000000E+01 0.  1.
        -11    1    1    2    0    0 -0.51703376696E+02  0.62687683138E+02 -0.14993431135E+03  0.17053821419E+03  0.00000000000E+00 0.  1.
         11    1    1    2    0    0 -0.66087468049E+02 -0.13915938026E+02 -0.21788724038E+03  0.22811412995E+03  0.00000000000E+00 0. -1.
</event>
<event>
 7    1  0.1243146E-005  0.1712378E+03  0.7561462E-02  0.1176563E+00
          1   -1    0    0  501    0  0.00000000000E+00  0.00000000000E+00  0.24086846476E+03  0.24086846476E+03  0.00000000000E+00 0. -1.
         -1   -1    0    0    0  501 -0.00000000000E+00 -0.00000000000E+00 -0.14537290127E+03  0.14537290127E+03  0.00000000000E+00 0.  1.
         23    2    1    2    0    0  0.14470809499E+03 -0.32983311287E+02  0.20421456172E+02  0.19517671605E+03  0.12509429658E+03 0.  0.
          5    1    3    3  502    0  0.85079415211E+01 -0.40176997063E+02 -0.28561064034E+02  0.50197439583E+02  0.41800000000E+01 0. -1.
         -5    1    3    3    0  502  0.13620015347E+03  0.71936857757E+01  0.48982520206E+02  0.14497927647E+03  0.41800000000E+01 0. -1.
        -11    1    1    2    0    0 -0.10243801990E+03 -0.11852602039E+02  0.13583390108E+02  0.10401221362E+03  0.00000000000E+00 0.  1.
         11    1    1    2    0    0 -0.42270075090E+02  0.44835913326E+02  0.61490717211E+02  0.87052436353E+02  0.00000000000E+00 0. -1.
</event>
<event>
 7    1  0.1243146E-005  0.1819219E+03  0.7561462E-02  0.1165956E+00
         -1   -1    0    0    0  501 -0.00000000000E+00  0.00000000000E+00  0.31433741716E+02  0.31433741716E+02  0.00000000000E+00 0.  1.
          1   -1    0    0  501    0  0.00000000000E+00 -0.00000000000E+00 -0.11116199168E+04  0.11116199168E+04  0.00000000000E+00 0. -1.
         23    2    1    2    0    0  0.12527801063E+03 -0.79647555982E+02 -0.50321378140E+03  0.53935941404E+03  0.12508458981E+03 0.  0.
          5    1    3    3  502    0  0.97730811306E+02  0.99213138253E+01 -0.21879945574E+03  0.23987583909E+03  0.41800000000E+01 0.  1.
         -5    1    3    3    0  502  0.27547199327E+02 -0.89568869808E+02 -0.28441432565E+03  0.29948357495E+03  0.41800000000E+01 0.  1.
        -11    1    1    2    0    0 -0.45203065838E+02  0.79720660938E+02 -0.22964790939E+03  0.24725869697E+03  0.00000000000E+00 0.  1.
         11    1    1    2    0    0 -0.80074944795E+02 -0.73104956048E-01 -0.34732448430E+03  0.35643554751E+03  0.00000000000E+00 0. -1.
</event>
<event>
 7    1  0.1243146E-005  0.1139403E+03  0.7561462E-02  0.1253442E+00
         -1   -1    0    0    0  501 -0.00000000000E+00  0.00000000000E+00  0.10841229560E+03  0.10841229560E+03  0.00000000000E+00 0.  1.
          1   -1    0    0  501    0  0.00000000000E+00 -0.00000000000E+00 -0.18406250324E+03  0.18406250324E+03  0.00000000000E+00 0. -1.
         23    2    1    2    0    0  0.72655941416E+02  0.32718409518E+02  0.22001324925E+01  0.14832843222E+03  0.12508838107E+03 0.  0.
          5    1    3    3  502    0 -0.87746514124E+01  0.35008931963E+02  0.43681443725E+02  0.56816905499E+02  0.41800000000E+01 0.  1.
         -5    1    3    3    0  502  0.81430592829E+02 -0.22905224448E+01 -0.41481311232E+02  0.91511526722E+02  0.41800000000E+01 0.  1.
        -11    1    1    2    0    0 -0.52060378680E+02 -0.57624675611E+02 -0.23894341284E+02  0.81251620371E+02  0.00000000000E+00 0.  1.
         11    1    1    2    0    0 -0.20595562736E+02  0.24906266092E+02 -0.53955998845E+02  0.62894746255E+02  0.00000000000E+00 0. -1.
</event>
<event>
 6    1  0.1243146E-005  0.1293098E+03  0.7561462E-02  0.1228484E+00
         -3   -1    0    0    0  501 -0.00000000000E+00  0.00000000000E+00  0.14362111073E+04  0.14362111073E+04  0.00000000000E+00 0.  1.
          3   -1    0    0  501    0  0.00000000000E+00 -0.00000000000E+00 -0.13420934422E+02  0.13420934422E+02  0.00000000000E+00 0. -1.
          5    1    1    2  502    0  0.95248205636E+01 -0.64576342924E+02  0.30686490175E+03  0.31375845264E+03  0.41800000000E+01 0. -1.
         -5    1    1    2    0  502  0.42872910296E+02  0.74657966260E+02  0.74029919365E+03  0.74530011866E+03  0.41800000000E+01 0.  1.
        -11    1    1    2    0    0  0.26117129536E+02  0.61741837586E+01  0.93869987982E+02  0.97630935897E+02  0.00000000000E+00 0. -1.
         11    1    1    2    0    0 -0.78514860396E+02 -0.16255807095E+02  0.28175608949E+03  0.29294253452E+03  0.00000000000E+00 0.  1.
</event>
<event>
 7    1  0.1243146E-005  0.1199298E+03  0.7561462E-02  0.1243213E+00
          3   -1    0    0  501    0  0.00000000000E+00  0.00000000000E+00  0.13638344994E+02  0.13638344994E+02  0.00000000000E+00 0. -1.
         -3   -1    0    0    0  501 -0.00000000000E+00 -0.00000000000E+00 -0.14054550721E+04  0.14054550721E+04  0.00000000000E+00 0.  1.
         23    2    1    2    0    0  0.59837648110E+02  0.32425276967E+02 -0.10335319703E+04  0.10432963215E+04  0.12508772169E+03 0.  0.
          5    1    3    3  502    0  0.91741365872E+02  0.15163676146E+02 -0.90200784166E+03  0.90679768091E+03  0.41800000000E+01 0.  1.
         -5    1    3    3    0  502 -0.31903717761E+02  0.17261600822E+02 -0.13152412861E+03  0.13649864057E+03  0.41800000000E+01 0.  1.
        -11    1    1    2    0    0 -0.58191005504E+01  0.28357214271E+02 -0.13747947887E+03  0.14049413028E+03  0.00000000000E+00 0.  1.
         11    1    1    2    0    0 -0.54018547560E+02 -0.60782491238E+02 -0.22080527801E+03  0.23530296539E+03  0.00000000000E+00 0. -1.
</event>
<event>
 7    1  0.1243146E-005  0.1417936E+03  0.7561462E-02  0.1210936E+00
         -1   -1    0    0    0  501 -0.00000000000E+00  0.00000000000E+00  0.40299040166E+03  0.40299040166E+03  0.00000000000E+00 0.  1.
          1   -1    0    0  501    0  0.00000000000E+00 -0.00000000000E+00 -0.10496367456E+03  0.10496367456E+03  0.00000000000E+00 0. -1.
         23    2    1    2    0    0  0.95684768364E+02  0.74524425213E+02  0.30255167016E+03  0.34612735312E+03  0.11643524644E+03 0.  0.
          5    1    3    3  502    0  0.42972688232E+02  0.24030960094E+02  0.18411621972E+02  0.52731387243E+02  0.41800000000E+01 0. -1.
         -5    1    3    3    0  502  0.52712080132E+02  0.50493465119E+02  0.28414004819E+03  0.29339596588E+03  0.41800000000E+01 0.  1.
        -11    1    1    2    0    0 -0.25080327267E+02  0.27351917982E+02  0.53032232353E+01  0.37486989874E+02  0.00000000000E+00 0.  1.
         11    1    1    2    0    0 -0.70604441097E+02 -0.10187634320E+03 -0.98281662906E+01  0.12433973322E+03  0.00000000000E+00 0. -1.
</event>
<event>
 7    1  0.1243146E-005  0.8730537E+02  0.7561462E-02  0.1309512E+00
          2   -1    0    0  501    0  0.00000000000E+00  0.00000000000E+00  0.34507115220E+03  0.34507115220E+03  0.00000000000E+00 0. -1.
         -2   -1    0    0    0  501 -0.00000000000E+00 -0.00000000000E+00 -0.39652771003E+02  0.39652771003E+02  0.00000000000E+00 0.  1.
         23    2    1    2    0    0  0.10417211721E+02  0.41898610968E+02  0.15989739957E+03  0.20755365116E+03  0.12508927939E+03 0.  0.
          5    1    3    3  502    0  0.42711581890E+02  0.56002934404E+02  0.15678654394E+03  0.17193051111E+03  0.41800000000E+01 0.  1.
         -5    1    3    3    0  502 -0.32294370170E+02 -0.14104323437E+02  0.31108556316E+01  0.35623140050E+02  0.41800000000E+01 0.  1.
        -11    1    1    2    0    0 -0.29204263278E+02 -0.87860769057E+01  0.41687200058E+01  0.30780876652E+02  0.00000000000E+00 0.  1.
         11    1    1    2    0    0  0.18787051557E+02 -0.33112534062E+02  0.14135226162E+03  0.14638939539E+03  0.00000000000E+00 0. -1.
</event>
<event>
 7    1  0.1243146E-005  0.2336205E+03  0.7561462E-02  0.1124117E+00
          3   -1    0    0  501    0  0.00000000000E+00  0.00000000000E+00  0.89405941793E+02  0.89405941793E+02  0.00000000000E+00 0. -1.
         -3   -1    0    0    0  501 -0.00000000000E+00 -0.00000000000E+00 -0.11765273295E+04  0.11765273295E+04  0.00000000000E+00 0.  1.
         23    2    1    2    0    0 -0.12044090712E+02  0.22115448369E+03 -0.96420039529E+03  0.99718718254E+03  0.12508200894E+03 0.  0.
          5    1    3    3  502    0 -0.44682224573E+02  0.45740773617E+02 -0.40946536901E+03  0.41444912883E+03  0.41800000000E+01 0.  1.
         -5    1    3    3    0  502  0.32638133862E+02  0.17541371008E+03 -0.55473502628E+03  0.58273805371E+03  0.41800000000E+01 0.  1.
        -11    1    1    2    0    0 -0.13811882932E+02 -0.73323004005E+02 -0.86654910388E+02  0.11435079589E+03  0.00000000000E+00 0.  1.
         11    1    1    2    0    0  0.25855973644E+02 -0.14783147969E+03 -0.36266082060E+02  0.15439529289E+03  0.00000000000E+00 0. -1.
</event>
<event>
 7    1  0.1243146E-005  0.1010294E+03  0.7561462E-02  0.1278146E+00
         -2   -1    0    0    0  501 -0.00000000000E+00  0.00000000000E+00  0.71669480072E+02  0.71669480072E+02  0.00000000000E+00 0.  1.
          2   -1    0    0  501    0  0.00000000000E+00 -0.00000000000E+00 -0.20424906838E+03  0.20424906838E+03  0.00000000000E+00 0. -1.
         23    2    1    2    0    0  0.12850474833E+02 -0.18065688030E+02 -0.18921271637E+02  0.12844062208E+03  0.12508986806E+03 0.  0.
          5    1    3    3  502    0  0.48480751037E+02  0.37005954715E+02 -0.57030151149E+01  0.61398865518E+02  0.41800000000E+01 0.  1.
         -5    1    3    3    0  502 -0.35630276204E+02 -0.55071642745E+02 -0.13218256522E+02  0.67041756559E+02  0.41800000000E+01 0.  1.
        -11    1    1    2    0    0  0.20580449387E+01 -0.27335709207E+02 -0.90142684005E+02  0.94218788075E+02  0.00000000000E+00 0. -1.
         11    1    1    2    0    0 -0.14908519772E+02  0.45401397236E+02 -0.23515632668E+02  0.53259138301E+02  0.00000000000E+00 0.  1.
</event>
<event>
 7    1  0.1243146E-005  0.1728978E+03  0.7561462E-02  0.1174859E+00
         -2   -1    0    0    0  501 -0.00000000000E+00  0.00000000000E+00  0.18019284728E+03  0.18019284728E+03  0.00000000000E+00 0.  1.
          2   -1    0    0  501    0  0.00000000000E+00 -0.00000000000E+00 -0.20760184682E+03  0.20760184682E+03  0.00000000000E+00 0. -1.
         23    2    1    2    0    0 -0.77216814260E+01  0.16058504379E+03  0.17413221724E+02  0.20444516913E+03  0.12508967278E+03 0.  0.
          5    1    3    3  502    0 -0.20598283004E+02  0.92123578508E+01  0.44504313984E+02  0.50072578954E+02  0.41800000000E+01 0.  1.
         -5    1    3    3    0  502  0.12876601578E+02  0.15137268594E+03 -0.27091092260E+02  0.15437259017E+03  0.41800000000E+01 0.  1.
        -11    1    1    2    0    0  0.28963075202E+02 -0.46187042403E+02  0.88205903060E+01  0.55225948832E+02  0.00000000000E+00 0.  1.
         11    1    1    2    0    0 -0.21241393776E+02 -0.11439800139E+03 -0.53642811572E+02  0.12812357614E+03  0.00000000000E+00 0. -1.
</event>
<event>
 7    1  0.1243146E-005  0.9787639E+02  0.7561462E-02  0.1284826E+00
         -1   -1    0    0    0  501 -0.00000000000E+00  0.00000000000E+00  0.12385740951E+03  0.12385740951E+03  0.00000000000E+00 0.  1.
          1   -1    0    0  501    0  0.00000000000E+00 -0.00000000000E+00 -0.15694164234E+03  0.15694164234E+03  0.00000000000E+00 0. -1.
         23    2    1    2    0    0  0.78531524321E+02  0.10311728220E+02  0.44768703816E+01  0.14812116844E+03  0.12508519545E+03 0.  0.
          5    1    3    3  502    0  0.47801298836E+01  0.10851804098E+02  0.56427400394E+02  0.57811203146E+02  0.41800000000E+01 0. -1.
         -5    1    3    3    0  502  0.73751394438E+02 -0.54007587809E+00 -0.51950530013E+02  0.90309965298E+02  0.41800000000E+01 0. -1.
        -11    1    1    2    0    0 -0.23284137244E+02  0.32102154815E+02  0.18028852217E+02  0.43563045155E+02  0.00000000000E+00 0.  1.
         11    1    1    2    0    0 -0.55247387078E+02 -0.42413883035E+02 -0.55589955427E+02  0.89114838256E+02  0.00000000000E+00 0. -1.
</event>
<event>
 7    1  0.1243146E-005  0.1054203E+03  0.7561462E-02  0.1269294E+00
          1   -1    0    0  501    0  0.00000000000E+00  0.00000000000E+00  0.15178284337E+03  0.15178284337E+03  0.00000000000E+00 0. -1.
         -1   -1    0    0    0  501 -0.00000000000E+00 -0.00000000000E+00 -0.96840665338E+02  0.96840665338E+02  0.00000000000E+00 0.  1.
         23    2    1    2    0    0 -0.47922914114E+02 -0.15832449792E+02  0.10037741011E+02  0.13538112887E+03  0.12521989317E+03 0.  0.
          5    1    3    3  502    0  0.13268495430E+01  0.36029808180E+02  0.43209902803E+02  0.56431159012E+02  0.41800000000E+01 0.  1.
         -5    1    3    3    0  502 -0.49249763657E+02 -0.51862257973E+02 -0.33172161792E+02  0.78949969856E+02  0.41800000000E+01 0.  1.
        -11    1    1    2    0    0  0.29931166744E+02 -0.36709336986E+02  0.12677084659E+02  0.49032220428E+02  0.00000000000E+00 0.  1.
         11    1    1    2    0    0  0.17991747370E+02  0.52541786779E+02  0.32227352363E+02  0.64210159412E+02  0.00000000000E+00 0. -1.
</event>
<event>
 6    1  0.1243146E-005  0.7112358E+02  0.7561462E-02  0.1356313E+00
          2   -1    0    0  501    0  0.00000000000E+00  0.00000000000E+00  0.11580959585E+04  0.11580959585E+04  0.00000000000E+00 0. -1.
         -2   -1    0    0    0  501 -0.00000000000E+00 -0.00000000000E+00 -0.12309475522E+02  0.12309475522E+02  0.00000000000E+00 0.  1.
          5    1    1    2  502    0 -0.10169789359E+02  0.29459421154E+01  0.59872317790E+03  0.59883137805E+03  0.41800000000E+01 0. -1.
         -5    1    1    2    0  502 -0.78235027457E+01  0.31411981626E+02  0.27353077803E+02  0.42586183794E+02  0.41800000000E+01 0.  1.
        -11    1    1    2    0    0  0.52909781018E+02 -0.60128983317E+01  0.25743856490E+03  0.26288821688E+03  0.00000000000E+00 0.  1.
         11    1    1    2    0    0 -0.34916488913E+02 -0.28345025410E+02  0.26227166234E+03  0.26609965526E+03  0.00000000000E+00 0. -1.
</event>
<event>
 7    1  0.1243146E-005  0.1341514E+03  0.7561462E-02  0.1221423E+00
         -2   -1    0    0    0  501 -0.00000000000E+00  0.00000000000E+00  0.17852391033E+03  0.17852391033E+03  0.00000000000E+00 0.  1.
          2   -1    0    0  501    0  0.00000000000E+00 -0.00000000000E+00 -0.18105091796E+03  0.18105091796E+03  0.00000000000E+00 0. -1.
         23    2    1    2    0    0  0.63162033859E+02  0.10257330049E+03  0.81936357257E+02  0.19202084469E+03  0.12509082165E+03 0.  0.
          5    1    3    3  502    0  0.63931203931E+02  0.28317986243E+02 -0.13181022007E+02  0.71276355982E+02  0.41800000000E+01 0. -1.
         -5    1    3    3    0  502 -0.76917007238E+00  0.74255314246E+02  0.95117379264E+02  0.12074448871E+03  0.41800000000E+01 0. -1.
        -11    1    1    2    0    0 -0.55905900672E+02 -0.65555706859E+02 -0.95136575151E+02  0.12835103569E+03  0.00000000000E+00 0. -1.
         11    1    1    2    0    0 -0.72561331872E+01 -0.37017593631E+02  0.10673210261E+02  0.39202947904E+02  0.00000000000E+00 0.  1.
</event>
<event>
 7    1  0.1243146E-005  0.1008697E+03  0.7561462E-02  0.1278478E+00
         -2   -1    0    0    0  501 -0.00000000000E+00  0.00000000000E+00  0.15427645771E+03  0.15427645771E+03  0.00000000000E+00 0.  1.
          2   -1    0    0  501    0  0.00000000000E+00 -0.00000000000E+00 -0.10495908620E+03  0.10495908620E+03  0.00000000000E+00 0. -1.
         23    2    1    2    0    0 -0.11885150098E+02 -0.17454459997E+02  0.93523134458E+02  0.15760682868E+03  0.12508965105E+03 0.  0.
          5    1    3    3  502    0  0.55711803793E+02 -0.17840279245E+02  0.36563570881E+02  0.69111849642E+02  0.41800000000E+01 0. -1.
         -5    1    3    3    0  502 -0.67596953891E+02  0.38581924773E+00  0.56959563577E+02  0.88494979037E+02  0.41800000000E+01 0. -1.
        -11    1    1    2    0    0 -0.21981009960E+02 -0.16441352813E+02 -0.46125449483E+02  0.53675319946E+02  0.00000000000E+00 0. -1.
         11    1    1    2    0    0  0.33866160058E+02  0.33895812810E+02  0.19196865423E+01  0.47953395287E+02  0.00000000000E+00 0.  1.
</event>
<event>
 7    1  0.1243146E-005  0.1058653E+03  0.7561462E-02  0.1268424E+00
          1   -1    0    0  501    0  0.00000000000E+00  0.00000000000E+00  0.18224922017E+03  0.18224922017E+03  0.00000000000E+00 0. -1.
         -1   -1    0    0    0  501 -0.00000000000E+00 -0.00000000000E+00 -0.11750480120E+03  0.11750480120E+03  0.00000000000E+00 0.  1.
         23    2    1    2    0    0  0.47220341972E+02 -0.35183294447E+02 -0.45808362347E+02  0.14564387690E+03  0.12508440316E+03 0.  0.
          5    1    3    3  502    0 -0.19375273576E+02 -0.46361334768E+02  0.17118037241E+02  0.53247292763E+02  0.41800000000E+01 0. -1.
         -5    1    3    3    0  502  0.66595615547E+02  0.11178040321E+02 -0.62926399589E+02  0.92396584140E+02  0.41800000000E+01 0. -1.
        -11    1    1    2    0    0 -0.49180968062E+02 -0.85137984699E+01  0.20427045783E+02  0.53930664592E+02  0.00000000000E+00 0.  1.
         11    1    1    2    0    0  0.19606260901E+01  0.43697092917E+02  0.90125735530E+02  0.10017947988E+03  0.00000000000E+00 0. -1.
</event>
<event>
 7    1  0.1243146E-005  0.2237700E+03  0.7561462E-02  0.1131103E+00
          1   -1    0    0  501    0  0.00000000000E+00  0.00000000000E+00  0.14233504233E+03  0.14233504233E+03  0.00000000000E+00 0. -1.
         -1   -1    0    0    0  501 -0.00000000000E+00 -0.00000000000E+00 -0.36321250600E+03  0.36321250600E+03  0.00000000000E+00 0.  1.
         23    2    1    2    0    0 -0.19129980956E+03  0.55342096942E+02 -0.10822729019E+03  0.25887459693E+03  0.12507815862E+03 0.  0.
          5    1    3    3  502    0 -0.14716986244E+03 -0.11748034617E+02 -0.38976383747E+02  0.15275344716E+03  0.41800000000E+01 0. -1.
         -5    1    3    3    0  502 -0.44129947111E+02  0.67090131559E+02 -0.69250906445E+02  0.10612114977E+03  0.41800000000E+01 0. -1.
        -11    1    1    2    0    0  0.17202141584E+02 -0.41334307216E+02 -0.24222657532E+02  0.50903592859E+02  0.00000000000E+00 0. -1.
         11    1    1    2    0    0  0.17409766797E+03 -0.14007789727E+02 -0.88427515950E+02  0.19576935854E+03  0.00000000000E+00 0.  1.
</event>
<event>
 7    1  0.1243146E-005  0.1063563E+03  0.7561462E-02  0.1267470E+00
          1   -1    0    0  501    0  0.00000000000E+00  0.00000000000E+00  0.10780494577E+02  0.10780494577E+02  0.00000000000E+00 0. -1.
         -1   -1    0    0    0  501 -0.00000000000E+00 -0.00000000000E+00 -0.16937674071E+04  0.16937674071E+04  0.00000000000E+00 0.  1.
         23    2    1    2    0    0 -0.36979500579E+02  0.35735457519E+00 -0.14359147208E+04  0.14418277013E+04  0.12509365892E+03 0.  0.
          5    1    3    3  502    0 -0.13589598455E+02  0.59811094291E+02 -0.90097956207E+03  0.90307457491E+03  0.41800000000E+01 0.  1.
         -5    1    3    3    0  502 -0.23389902124E+02 -0.59453739716E+02 -0.53493515878E+03  0.53875312638E+03  0.41800000000E+01 0.  1.
        -11    1    1    2    0    0 -0.23864988968E+02 -0.94904126808E+01 -0.49152147341E+02  0.55457544298E+02  0.00000000000E+00 0.  1.
         11    1    1    2    0    0  0.60844489547E+02  0.91330581056E+01 -0.19792004434E+03  0.20726265609E+03  0.00000000000E+00 0. -1.
</event>
<event>
 7    1  0.1243146E-005  0.6903191E+02  0.7561462E-02  0.1363416E+00
         -4   -1    0    0    0  501 -0.00000000000E+00  0.00000000000E+00  0.41365428999E+03  0.41365428999E+03  0.00000000000E+00 0.  1.
          4   -1    0    0  501    0  0.00000000000E+00 -0.00000000000E+00 -0.33411399731E+02  0.33411399731E+02  0.00000000000E+00 0. -1.
         23    2    1    2    0    0 -0.40390372339E+02  0.13157362181E+02  0.26576843529E+03  0.29679070739E+03  0.12508942577E+03 0.  0.
          5    1    3    3  502    0  0.90880514912E+01  0.10555728462E+02 -0.93014906399E+01  0.17262856409E+02  0.41800000000E+01 0.  1.
         -5    1    3    3    0  502 -0.49478423831E+02  0.26016337189E+01  0.27506992593E+03  0.27952785098E+03  0.41800000000E+01 0.  1.
        -11    1    1    2    0    0  0.49742666890E+02 -0.27377053128E+02  0.11968964811E+03  0.13247432887E+03  0.00000000000E+00 0.  1.
         11    1    1    2    0    0 -0.93522945504E+01  0.14219690947E+02 -0.52151931371E+01  0.17800653455E+02  0.00000000000E+00 0. -1.
</event>
<event>
 7    1  0.1243146E-005  0.1158743E+03  0.7561462E-02  0.1250063E+00
         -4   -1    0    0    0  501 -0.00000000000E+00  0.00000000000E+00  0.30558321273E+03  0.30558321273E+03  0.00000000000E+00 0.  1.
          4   -1    0    0  501    0  0.00000000000E+00 -0.00000000000E+00 -0.74650404902E+02  0.74650404902E+02  0.00000000000E+00 0. -1.
         23    2    1    2    0    0 -0.49727972172E+02 -0.89368893664E+02  0.16293588794E+03  0.22946870713E+03  0.12509242024E+03 0.  0.
          5    1    3    3  502    0 -0.40129764654E+02 -0.48753962130E+01 -0.52330396755E+01  0.40975902720E+02  0.41800000000E+01 0.  1.
         -5    1    3    3    0  502 -0.95982075175E+01 -0.84493497451E+02  0.16816892762E+03  0.18849280441E+03  0.41800000000E+01 0.  1.
        -11    1    1    2    0    0  0.27175141302E+02  0.22122739774E+02 -0.17916959188E+02  0.39356338072E+02  0.00000000000E+00 0. -1.
         11    1    1    2    0    0  0.22552830870E+02  0.67246153890E+02  0.85913879076E+02  0.11140857243E+03  0.00000000000E+00 0.  1.
</event>
<event>
 7    1  0.1243146E-005  0.1057099E+03  0.7561462E-02  0.1268727E+00
         -1   -1    0    0    0  501 -0.00000000000E+00  0.00000000000E+00  0.19771773537E+03  0.19771773537E+03  0.00000000000E+00 0.  1.
          1   -1    0    0  501    0  0.00000000000E+00 -0.00000000000E+00 -0.76337302433E+02  0.76337302433E+02  0.00000000000E+00 0. -1.
         23    2    1    2    0    0  0.65460581628E+01 -0.27136971996E+02  0.12723071435E+03  0.18059430846E+03  0.12508950175E+03 0.  0.
          5    1    3    3  502    0 -0.33061354016E+02  0.33706391542E+02  0.82709478623E+02  0.95328401928E+02  0.41800000000E+01 0. -1.
         -5    1    3    3    0  502  0.39607412178E+02 -0.60843363538E+02  0.44521235725E+02  0.85265906531E+02  0.41800000000E+01 0. -1.
        -11    1    1    2    0    0  0.39295092512E+02  0.22361774423E+02 -0.12465351522E+02  0.46899234956E+02  0.00000000000E+00 0. -1.
         11    1    1    2    0    0 -0.45841150674E+02  0.47751975728E+01  0.66150701110E+01  0.46561494387E+02  0.00000000000E+00 0.  1.
</event>
<event>
 7    1  0.1243146E-005  0.7784713E+02  0.7561462E-02  0.1335274E+00
         -1   -1    0    0    0  501 -0.00000000000E+00  0.00000000000E+00  0.14425348826E+03  0.14425348826E+03  0.00000000000E+00 0.  1.
          1   -1    0    0  501    0  0.00000000000E+00 -0.00000000000E+00 -0.92605538967E+02  0.92605538967E+02  0.00000000000E+00 0. -1.
         23    2    1    2    0    0  0.27889111380E+02 -0.18015099705E+02  0.24752235094E+02  0.13176653631E+03  0.12508957030E+03 0.  0.
          5    1    3    3  502    0 -0.10166823085E+02 -0.42596445973E+02  0.59868642789E+02  0.74293662520E+02  0.41800000000E+01 0.  1.
         -5    1    3    3    0  502  0.38055934465E+02  0.24581346268E+02 -0.35116407695E+02  0.57472873791E+02  0.41800000000E+01 0.  1.
        -11    1    1    2    0    0  0.17106591006E+02 -0.14746626981E+01 -0.27145852100E+02  0.32120201932E+02  0.00000000000E+00 0. -1.
         11    1    1    2    0    0 -0.44995702386E+02  0.19489762403E+02  0.54041566304E+02  0.72972288989E+02  0.00000000000E+00 0.  1.
</event>
<event>
 7    1  0.1243146E-005  0.9856535E+02  0.7561462E-02  0.1283342E+00
          2   -1    0    0  501    0  0.00000000000E+00  0.00000000000E+00  0.45013435480E+02  0.45013435480E+02  0.00000000000E+00 0.  1.
         -2   -1    0    0    0  501 -0.00000000000E+00 -0.00000000000E+00 -0.42508351417E+03  0.42508351417E+03  0.00000000000E+00 0. -1.
         23    2    1    2    0    0 -0.18992183447E+02  0.75620836268E+02 -0.26074022136E+03  0.29952264645E+03  0.12509651792E+03 0.  0.
          5    1    3    3  502    0 -0.30050876842E+02  0.36388926390E+02 -0.13999819447E+02  0.49403203412E+02  0.41800000000E+01 0. -1.
         -5    1    3    3    0  502  0.11058693395E+02  0.39231909878E+02 -0.24674040191E+03  0.25011944304E+03  0.41800000000E+01 0. -1.
        -11    1    1    2    0    0  0.45197154291E+02 -0.67702817167E+02 -0.11775664114E+03  0.14315404549E+03  0.00000000000E+00 0. -1.
         11    1    1    2    0    0 -0.26204970844E+02 -0.79180191004E+01 -0.15732161938E+01  0.27420257705E+02  0.00000000000E+00 0.  1.
</event>
<event>
 7    1  0.1243146E-005  0.2206914E+03  0.7561462E-02  0.1133369E+00
         -2   -1    0    0    0  501 -0.00000000000E+00  0.00000000000E+00  0.10969040980E+03  0.10969040980E+03  0.00000000000E+00 0.  1.
          2   -1    0    0  501    0  0.00000000000E+00 -0.00000000000E+00 -0.55477555053E+03  0.55477555053E+03  0.00000000000E+00 0. -1.
         23    2    1    2    0    0  0.56641068380E+02 -0.20473721370E+03 -0.14378465181E+03  0.28538468333E+03  0.12507939111E+03 0.  0.
          5    1    3    3  502    0  0.39829125356E+02 -0.44445359308E+02  0.12194327887E+02  0.61056721360E+02  0.41800000000E+01 0.  1.
         -5    1    3    3    0  502  0.16811943024E+02 -0.16029185439E+03 -0.15597897970E+03  0.22432796197E+03  0.41800000000E+01 0.  1.
        -11    1    1    2    0    0  0.52501118683E+01  0.88393980595E+02 -0.70008257405E+02  0.11288142267E+03  0.00000000000E+00 0.  1.
         11    1    1    2    0    0 -0.61891180248E+02  0.11634323310E+03 -0.23129223151E+03  0.26619985432E+03  0.00000000000E+00 0. -1.
</event>
<event>
 7    1  0.1243146E-005  0.9480717E+02  0.7561462E-02  0.1291611E+00
          3   -1    0    0  501    0  0.00000000000E+00  0.00000000000E+00  0.48370882938E+02  0.48370882938E+02  0.00000000000E+00 0. -1.
         -3   -1    0    0    0  501 -0.00000000000E+00 -0.00000000000E+00 -0.45124550283E+03  0.45124550283E+03  0.00000000000E+00 0.  1.
         23    2    1    2    0    0  0.18855448737E+02  0.61289164159E+02 -0.34875521564E+03  0.37602033005E+03  0.12509675689E+03 0.  0.
          5    1    3    3  502    0 -0.11150215391E+02 -0.21044812694E+02 -0.10132354667E+02  0.26217331209E+02  0.41800000000E+01 0.  1.
         -5    1    3    3    0  502  0.30005664128E+02  0.82333976853E+02 -0.33862286097E+03  0.34980299884E+03  0.41800000000E+01 0.  1.
        -11    1    1    2    0    0  0.96217821064E+01 -0.42524738279E+02  0.15337146283E+02  0.46218612190E+02  0.00000000000E+00 0. -1.
         11    1    1    2    0    0 -0.28477230843E+02 -0.18764425879E+02 -0.69456550534E+02  0.77377443530E+02  0.00000000000E+00 0.  1.
</event>
<event>
 7    1  0.1243146E-005  0.1476356E+03  0.7561462E-02  0.1203409E+00
         -3   -1    0    0    0  501 -0.00000000000E+00  0.00000000000E+00  0.54405879615E+03  0.54405879615E+03  0.00000000000E+00 0.  1.
          3   -1    0    0  501    0  0.00000000000E+00 -0.00000000000E+00 -0.41986955740E+02  0.41986955740E+02  0.00000000000E+00 0. -1.
         23    2    1    2    0    0  0.72531038384E+02  0.81296100322E+02  0.27676985163E+03  0.32267538962E+03  0.12509216138E+03 0.  0.
          5    1    3    3  502    0 -0.27033963133E+02  0.46287202837E+02  0.13928335748E+03  0.14930059069E+03  0.41800000000E+01 0. -1.
         -5    1    3    3    0  502  0.99565001517E+02  0.35008897485E+02  0.13748649415E+03  0.17337479893E+03  0.41800000000E+01 0. -1.
        -11    1    1    2    0    0 -0.18339318510E+02  0.16113455261E+02  0.32251040649E+02  0.40448778310E+02  0.00000000000E+00 0. -1.
         11    1    1    2    0    0 -0.54191719875E+02 -0.97409555583E+02  0.19305094813E+03  0.22292158396E+03  0.00000000000E+00 0.  1.
</event>
<event>
 7    1  0.1243146E-005  0.8058651E+02  0.7561462E-02  0.1327395E+00
          1   -1    0    0  501    0  0.00000000000E+00  0.00000000000E+00  0.72190640356E+02  0.72190640356E+02  0.00000000000E+00 0. -1.
         -1   -1    0    0    0  501 -0.00000000000E+00 -0.00000000000E+00 -0.17239326588E+03  0.17239326588E+03  0.00000000000E+00 0.  1.
         23    2    1    2    0    0 -0.43493175787E+01 -0.79917084180E+01 -0.81923938137E+02  0.14980853033E+03  0.12509308595E+03 0.  0.
          5    1    3    3  502    0  0.43202731023E+02 -0.40375953780E+02 -0.68488987608E+02  0.90580944106E+02  0.41800000000E+01 0. -1.
         -5    1    3    3    0  502 -0.47552048602E+02  0.32384245362E+02 -0.13434950529E+02  0.59227586222E+02  0.41800000000E+01 0. -1.
        -11    1    1    2    0    0 -0.17945575043E+02 -0.47050983179E+01 -0.50376212032E+02  0.53683743838E+02  0.00000000000E+00 0.  1.
         11    1    1    2    0    0  0.22294892622E+02  0.12696806736E+02  0.32097524643E+02  0.41091632074E+02  0.00000000000E+00 0. -1.
</event>
<event>
 6    1  0.1243146E-005  0.7351508E+02  0.7561462E-02  0.1348532E+00
         -1   -1    0    0    0  501 -0.00000000000E+00  0.00000000000E+00  0.20485730481E+03  0.20485730481E+03  0.00000000000E+00 0.  1.
          1   -1    0    0  501    0  0.00000000000E+00 -0.00000000000E+00 -0.10124982030E+03  0.10124982030E+03  0.00000000000E+00 0. -1.
          5    1    1    2  502    0  0.92864845299E+00  0.34205160615E+00 -0.27706373905E+02  0.28037384725E+02  0.41800000000E+01 0. -1.
         -5    1    1    2    0  502  0.15078757459E+02 -0.42360876042E+02  0.16520492990E+03  0.17126574090E+03  0.41800000000E+01 0.  1.
        -11    1    1    2    0    0 -0.50070802834E+02  0.10483698799E+02 -0.34073668912E+01  0.51269907217E+02  0.00000000000E+00 0.  1.
         11    1    1    2    0    0  0.34063396922E+02  0.31535125637E+02 -0.30483704592E+02  0.55534092271E+02  0.00000000000E+00 0. -1.
</event>
<event>
 7    1  0.1243146E-005  0.1123413E+03  0.7561462E-02  0.1256294E+00
          2   -1    0    0  501    0  0.00000000000E+00  0.00000000000E+00  0.41533146485E+03  0.41533146485E+03  0.00000000000E+00 0. -1.
         -2   -1    0    0    0  501 -0.00000000000E+00 -0.00000000000E+00 -0.39888551541E+02  0.39888551541E+02  0.00000000000E+00 0.  1.
         23    2    1    2    0    0  0.70970484645E+02  0.55449448502E+00  0.21033518411E+03  0.25480211613E+03  0.12508441772E+03 0.  0.
          5    1    3    3  502    0  0.42535012890E+02 -0.41958393402E+02  0.29379994325E+02  0.66711247665E+02  0.41800000000E+01 0. -1.
         -5    1    3    3    0  502  0.28435471754E+02  0.42512887888E+02  0.18095518978E+03  0.18809086846E+03  0.41800000000E+01 0. -1.
        -11    1    1    2    0    0 -0.31085129088E+02  0.43872342998E+02  0.73365630265E+02  0.90959240513E+02  0.00000000000E+00 0. -1.
         11    1    1    2    0    0 -0.39885355557E+02 -0.44426837483E+02  0.91742098940E+02  0.10945865975E+03  0.00000000000E+00 0.  1.
</event>
<event>
 7    1  0.1243146E-005  0.1160051E+03  0.7561462E-02  0.1249837E+00
          2   -1    0    0  501    0  0.00000000000E+00  0.00000000000E+00  0.41562489140E+02  0.41562489140E+02  0.00000000000E+00 0. -1.
         -2   -1    0    0    0  501 -0.00000000000E+00 -0.00000000000E+00 -0.43033929429E+03  0.43033929429E+03  0.00000000000E+00 0.  1.
         23    2    1    2    0    0  0.47558329971E+02 -0.62066570776E+02 -0.22529730980E+03  0.26929683998E+03  0.12509139164E+03 0.  0.
          5    1    3    3  502    0  0.69614227034E+01 -0.78760034895E+02 -0.20687538879E+03  0.22150960112E+03  0.41800000000E+01 0. -1.
         -5    1    3    3    0  502  0.40596907268E+02  0.16693464118E+02 -0.18421921012E+02  0.47787238859E+02  0.41800000000E+01 0. -1.
        -11    1    1    2    0    0 -0.63022741195E+02  0.67500065622E+02 -0.96174953178E+02  0.13333321561E+03  0.00000000000E+00 0. -1.
         11    1    1    2    0    0  0.15464411224E+02 -0.54334948461E+01 -0.67304542170E+02  0.69271727836E+02  0.00000000000E+00 0.  1.
</event>
<event>
 7    1  0.1243146E-005  0.1493886E+03  0.7561462E-02  0.1201226E+00
         -1   -1    0    0    0  501 -0.00000000000E+00  0.00000000000E+00  0.49334509446E+03  0.49334509446E+03  0.00000000000E+00 0.  1.
          1   -1    0    0  501    0  0.00000000000E+00 -0.00000000000E+00 -0.93693975659E+02  0.93693975659E+02  0.00000000000E+00 0. -1.
         23    2    1    2    0    0 -0.11425806259E+03  0.72490546235E+02  0.37972943917E+03  0.42208370822E+03  0.12510166111E+03 0.  0.
          5    1    3    3  502    0 -0.54355859785E+02  0.39379484353E+02  0.33149169637E+03  0.33824476411E+03  0.41800000000E+01 0. -1.
         -5    1    3    3    0  502 -0.59902202806E+02  0.33111061882E+02  0.48237742792E+02  0.83838944111E+02  0.41800000000E+01 0. -1.
        -11    1    1    2    0    0  0.37533377123E+02 -0.77453782410E+02  0.18616842244E+02  0.88059239283E+02  0.00000000000E+00 0. -1.
         11    1    1    2    0    0  0.76724685468E+02  0.49632361753E+01  0.13048373949E+01  0.76896122621E+02  0.00000000000E+00 0.  1.
</event>
<event>
 7    1  0.1243146E-005  0.1013213E+03  0.7561462E-02  0.1277542E+00
          2   -1    0    0  501    0  0.00000000000E+00  0.00000000000E+00  0.31581477710E+03  0.31581477710E+03  0.00000000000E+00 0. -1.
         -2   -1    0    0    0  501 -0.00000000000E+00 -0.00000000000E+00 -0.54180156543E+02  0.54180156543E+02  0.00000000000E+00 0.  1.
         23    2    1    2    0    0 -0.71091264660E+02 -0.26363762362E+01  0.12282039956E+03  0.18919844710E+03  0.12510109290E+03 0.  0.
          5    1    3    3  502    0 -0.22165854418E+02 -0.38950634490E+02 -0.71681057465E+01  0.45577748620E+02  0.41800000000E+01 0.  1.
         -5    1    3    3    0  502 -0.48925410242E+02  0.36314258254E+02  0.12998850531E+03  0.14362069848E+03  0.41800000000E+01 0.  1.
        -11    1    1    2    0    0 -0.12693750164E+02  0.13379656341E+01 -0.55158976328E+01  0.13904911793E+02  0.00000000000E+00 0.  1.
         11    1    1    2    0    0  0.83785014824E+02  0.12984106021E+01  0.14433011863E+03  0.16689157475E+03  0.00000000000E+00 0. -1.
</event>
<event>
 7    1  0.1243146E-005  0.1175538E+03  0.7561462E-02  0.1247188E+00
          1   -1    0    0  501    0  0.00000000000E+00  0.00000000000E+00  0.60250958549E+02  0.60250958549E+02  0.00000000000E+00 0. -1.
         -1   -1    0    0    0  501 -0.00000000000E+00 -0.00000000000E+00 -0.28496001169E+03  0.28496001169E+03  0.00000000000E+00 0.  1.
         23    2    1    2    0    0  0.51317686020E+02 -0.13510989736E+02 -0.18990168168E+03  0.23350759554E+03  0.12508835569E+03 0.  0.
          5    1    3    3  502    0  0.10991346077E+02  0.53342420123E+02 -0.10316104762E+03  0.11673002021E+03  0.41800000000E+01 0.  1.
         -5    1    3    3    0  502  0.40326339943E+02 -0.66853409859E+02 -0.86740634056E+02  0.11677757533E+03  0.41800000000E+01 0.  1.
        -11    1    1    2    0    0 -0.10262563302E+02 -0.36314891076E+02  0.12456813105E+01  0.37757691154E+02  0.00000000000E+00 0. -1.
         11    1    1    2    0    0 -0.41055122718E+02  0.49825880812E+02 -0.36053052772E+02  0.73945683540E+02  0.00000000000E+00 0.  1.
</event>
<event>
 7    1  0.1243146E-005  0.9766400E+02  0.7561462E-02  0.1285286E+00
         -1   -1    0    0    0  501 -0.00000000000E+00  0.00000000000E+00  0.11747280219E+03  0.11747280219E+03  0.00000000000E+00 0.  1.
          1   -1    0    0  501    0  0.00000000000E+00 -0.00000000000E+00 -0.11335766023E+03  0.11335766023E+03  0.00000000000E+00 0. -1.
         23    2    1    2    0    0  0.40500079794E+02 -0.67925805726E+00 -0.35360899505E+01  0.13153185680E+03  0.12508959816E+03 0.  0.
          5    1    3    3  502    0  0.85683475464E+02  0.39175215176E+01 -0.25493663128E+01  0.85912610314E+02  0.41800000000E+01 0. -1.
         -5    1    3    3    0  502 -0.45183395670E+02 -0.45967795749E+01 -0.98672363764E+00  0.45619246489E+02  0.41800000000E+01 0. -1.
        -11    1    1    2    0    0 -0.32680746160E+02 -0.22304833344E+02  0.41697826934E+02  0.57482567193E+02  0.00000000000E+00 0.  1.
         11    1    1    2    0    0 -0.78193336341E+01  0.22984091402E+02 -0.34046595026E+02  0.41816038417E+02  0.00000000000E+00 0. -1.
</event>
<event>
 7    1  0.1243146E-005  0.1303759E+03  0.7561462E-02  0.1226899E+00
          3   -1    0    0  501    0  0.00000000000E+00  0.00000000000E+00  0.57696990586E+03  0.57696990586E+03  0.00000000000E+00 0. -1.
         -3   -1    0    0    0  501 -0.00000000000E+00 -0.00000000000E+00 -0.40166875452E+02  0.40166875452E+02  0.00000000000E+00 0.  1.
         23    2    1    2    0    0 -0.73777808479E+02 -0.70263381122E+02  0.22725502240E+03  0.27869851617E+03  0.12509160628E+03 0.  0.
          5    1    3    3  502    0 -0.60301007116E+02  0.17275855384E+02  0.14376190045E+03  0.15690641497E+03  0.41800000000E+01 0. -1.
         -5    1    3    3    0  502 -0.13476801363E+02 -0.87539236506E+02  0.83493121948E+02  0.12179210120E+03  0.41800000000E+01 0. -1.
        -11    1    1    2    0    0  0.54264382809E+02  0.71387990193E+02  0.30561765663E+03  0.31850120946E+03  0.00000000000E+00 0. -1.
         11    1    1    2    0    0  0.19513425670E+02 -0.11246090709E+01  0.39303513820E+01  0.19937055674E+02  0.00000000000E+00 0.  1.
</event>
<event>
 7    1  0.1243146E-005  0.9327020E+02  0.7561462E-02  0.1295120E+00
         -1   -1    0    0    0  501 -0.00000000000E+00  0.00000000000E+00  0.71523348060E+02  0.71523348060E+02  0.00000000000E+00 0.  1.
          1   -1    0    0  501    0  0.00000000000E+00 -0.00000000000E+00 -0.20715878799E+03  0.20715878799E+03  0.00000000000E+00 0. -1.
         23    2    1    2    0    0 -0.52034623742E+02  0.21172789569E+02 -0.83929008882E+02  0.16076654395E+03  0.12508362817E+03 0.  0.
          5    1    3    3  502    0  0.47847705700E+00  0.51426500830E+02 -0.85652358092E+02  0.99993563666E+02  0.41800000000E+01 0. -1.
         -5    1    3    3    0  502 -0.52513100799E+02 -0.30253711261E+02  0.17233492100E+01  0.60772980288E+02  0.41800000000E+01 0. -1.
        -11    1    1    2    0    0  0.38397986060E+02  0.10417141424E+02 -0.68815539407E+02  0.79488996929E+02  0.00000000000E+00 0. -1.
         11    1    1    2    0    0  0.13636637682E+02 -0.31589930993E+02  0.17109108357E+02  0.38426595168E+02  0.00000000000E+00 0.  1.
</event>
<event>
 7    1  0.1243146E-005  0.9595351E+02  0.7561462E-02  0.1289043E+00
          1   -1    0    0  501    0  0.00000000000E+00  0.00000000000E+00  0.26357053300E+02  0.26357053300E+02  0.00000000000E+00 0. -1.
         -1   -1    0    0    0  501 -0.00000000000E+00 -0.00000000000E+00 -0.65529747561E+03  0.65529747561E+03  0.00000000000E+00 0.  1.
         23    2    1    2    0    0  0.39412896096E+02  0.69656380123E+01 -0.51331901145E+03  0.52985587202E+03  0.12509572774E+03 0.  0.
          5    1    3    3  502    0  0.43321922878E+02  0.61025112560E+02 -0.34205491487E+03  0.35017123033E+03  0.41800000000E+01 0. -1.
         -5    1    3    3    0  502 -0.39090267822E+01 -0.54059474547E+02 -0.17126409658E+03  0.17968464168E+03  0.41800000000E+01 0. -1.
        -11    1    1    2    0    0 -0.20941526992E+02 -0.27762133044E+02 -0.20110563711E+01  0.34832857070E+02  0.00000000000E+00 0. -1.
         11    1    1    2    0    0 -0.18471369103E+02  0.20796495032E+02 -0.11361035448E+03  0.11696579982E+03  0.00000000000E+00 0.  1.
</event>
<event>
 6    1  0.1243146E-005  0.1052110E+03  0.7561462E-02  0.1269705E+00
         -2   -1    0    0    0  501 -0.00000000000E+00  0.00000000000E+00  0.75031887898E+03  0.75031887898E+03  0.00000000000E+00 0.  1.
          2   -1    0    0  501    0  0.00000000000E+00 -0.00000000000E+00 -0.24851056327E+02  0.24851056327E+02  0.00000000000E+00 0. -1.
          5    1    1    2  502    0  0.53326867205E+02  0.75619588584E+01  0.41497629610E+02  0.68120948694E+02  0.41800000000E+01 0. -1.
         -5    1    1    2    0  502  0.27617617283E+01 -0.45077070011E+02  0.38135110055E+03  0.38403867495E+03  0.41800000000E+01 0.  1.
        -11    1    1    2    0    0 -0.47568209074E+01 -0.27669380030E+02  0.10481392693E+03  0.10850889924E+03  0.00000000000E+00 0. -1.
         11    1    1    2    0    0 -0.51331808026E+02  0.65184491182E+02  0.19780516557E+03  0.21450141242E+03  0.00000000000E+00 0.  1.
</event>
<event>
 7    1  0.1243146E-005  0.1545370E+03  0.7561462E-02  0.1195006E+00
         -1   -1    0    0    0  501 -0.00000000000E+00  0.00000000000E+00  0.70249575376E+03  0.70249575376E+03  0.00000000000E+00 0.  1.
          1   -1    0    0  501    0  0.00000000000E+00 -0.00000000000E+00 -0.41881256093E+02  0.41881256093E+02  0.00000000000E+00 0. -1.
         23    2    1    2    0    0 -0.10470620497E+03  0.76335781144E+02  0.29820466729E+03  0.34837379920E+03  0.12509092506E+03 0.  0.
          5    1    3    3  502    0 -0.75123333633E+02  0.97005783767E+02  0.14067820422E+03  0.18671225692E+03  0.41800000000E+01 0.  1.
         -5    1    3    3    0  502 -0.29582871333E+02 -0.20670002623E+02  0.15752646307E+03  0.16166154228E+03  0.41800000000E+01 0.  1.
        -11    1    1    2    0    0  0.93996480950E+02 -0.24621115190E+02  0.16342790305E+03  0.19013210470E+03  0.00000000000E+00 0. -1.
         11    1    1    2    0    0  0.10709724016E+02 -0.51714665955E+02  0.19898192732E+03  0.20587110595E+03  0.00000000000E+00 0.  1.
</event>
<event>
 7    1  0.1243146E-005  0.1545411E+03  0.7561462E-02  0.1195001E+00
          2   -1    0    0  501    0  0.00000000000E+00  0.00000000000E+00  0.35822085751E+03  0.35822085751E+03  0.00000000000E+00 0. -1.
         -2   -1    0    0    0  501 -0.00000000000E+00 -0.00000000000E+00 -0.88325196125E+02  0.88325196125E+02  0.00000000000E+00 0.  1.
         23    2    1    2    0    0  0.57133747945E+02  0.11206785260E+03  0.62910445790E+02  0.18822368388E+03  0.12508781813E+03 0.  0.
          5    1    3    3  502    0 -0.21876654066E+02  0.71928527047E+01 -0.21736677290E+02  0.31941832489E+02  0.41800000000E+01 0.  1.
         -5    1    3    3    0  502  0.79010402011E+02  0.10487499989E+03  0.84647123081E+02  0.15628185139E+03  0.41800000000E+01 0.  1.
        -11    1    1    2    0    0  0.13410246980E+02 -0.71871273586E+02  0.10545135465E+03  0.12831719638E+03  0.00000000000E+00 0. -1.
         11    1    1    2    0    0 -0.70543994925E+02 -0.40196579009E+02  0.10153386095E+03  0.13000517337E+03  0.00000000000E+00 0.  1.
</event>
<event>
 7    1  0.1243146E-005  0.9510599E+02  0.7561462E-02  0.1290938E+00
         -2   -1    0    0    0  501 -0.00000000000E+00  0.00000000000E+00  0.10819299398E+03  0.10819299398E+03  0.00000000000E+00 0.  1.
          2   -1    0    0  501    0  0.00000000000E+00 -0.00000000000E+00 -0.12088025455E+03  0.12088025455E+03  0.00000000000E+00 0. -1.
         23    2    1    2    0    0  0.14955611360E+02  0.14384822864E+02  0.23098550430E+02  0.12002072639E+03  0.11593462939E+03 0.  0.
          5    1    3    3  502    0  0.54095335656E+02  0.44059969813E+01 -0.22552968721E+02  0.58922210984E+02  0.41800000000E+01 0. -1.
         -5    1    3    3    0  502 -0.39139724296E+02  0.99788258824E+01  0.45651519151E+02  0.61098515405E+02  0.41800000000E+01 0.  1.
        -11    1    1    2    0    0  0.34769516148E+02 -0.26821443636E+02 -0.37531379956E+02  0.57766024385E+02  0.00000000000E+00 0. -1.
         11    1    1    2    0    0 -0.49725127508E+02  0.12436620772E+02  0.17455689552E+01  0.51286497764E+02  0.00000000000E+00 0.  1.
</event>
<event>
 7    1  0.1243146E-005  0.1307123E+03  0.7561462E-02  0.1226403E+00
         -1   -1    0    0    0  501 -0.00000000000E+00  0.00000000000E+00  0.54865346266E+02  0.54865346266E+02  0.00000000000E+00 0.  1.
          1   -1    0    0  501    0  0.00000000000E+00 -0.00000000000E+00 -0.35294772204E+03  0.35294772204E+03  0.00000000000E+00 0. -1.
         23    2    1    2    0    0 -0.10968510279E+02  0.85247528098E+02 -0.17098518444E+03  0.22862901668E+03  0.12509134545E+03 0.  0.
          5    1    3    3  502    0  0.17001497790E+02 -0.26980653265E+02 -0.18196454346E+02  0.36953889220E+02  0.41800000000E+01 0. -1.
         -5    1    3    3    0  502 -0.27970008069E+02  0.11222818136E+03 -0.15278873009E+03  0.19167512746E+03  0.41800000000E+01 0. -1.
        -11    1    1    2    0    0 -0.21859655783E+02  0.33467138558E+00 -0.64714433833E+02  0.68307499604E+02  0.00000000000E+00 0. -1.
         11    1    1    2    0    0  0.32828166061E+02 -0.85582199483E+02 -0.62382757507E+02  0.11087655203E+03  0.00000000000E+00 0.  1.
</event>
<event>
 7    1  0.1243146E-005  0.1423784E+03  0.7561462E-02  0.1210164E+00
          1   -1    0    0  501    0  0.00000000000E+00  0.00000000000E+00  0.12372127952E+03  0.12372127952E+03  0.00000000000E+00 0. -1.
         -1   -1    0    0    0  501 -0.00000000000E+00 -0.00000000000E+00 -0.18727920028E+03  0.18727920028E+03  0.00000000000E+00 0.  1.
         23    2    1    2    0    0 -0.10781961510E+03  0.50592478212E+01 -0.38473133217E+02  0.16964000190E+03  0.12508750087E+03 0.  0.
          5    1    3    3  502    0 -0.18530801755E+02  0.54070785766E+02  0.75223968433E+01  0.57802243394E+02  0.41800000000E+01 0. -1.
         -5    1    3    3    0  502 -0.89288813350E+02 -0.49011537945E+02 -0.45995530061E+02  0.11183775850E+03  0.41800000000E+01 0. -1.
        -11    1    1    2    0    0  0.10922051075E+03  0.10644954915E+02 -0.42670215033E+02  0.11774201580E+03  0.00000000000E+00 0.  1.
         11    1    1    2    0    0 -0.14008956429E+01 -0.15704202737E+02  0.17585427488E+02  0.23618462103E+02  0.00000000000E+00 0. -1.
</event>
<event>
 7    1  0.1243146E-005  0.2725905E+03  0.7561462E-02  0.1099806E+00
          1   -1    0    0  501    0  0.00000000000E+00  0.00000000000E+00  0.12408957401E+04  0.12408957401E+04  0.00000000000E+00 0. -1.
         -1   -1    0    0    0  501 -0.00000000000E+00 -0.00000000000E+00 -0.69684005733E+02  0.69684005733E+02  0.00000000000E+00 0.  1.
         23    2    1    2    0    0  0.89929979417E+02 -0.24407445573E+03  0.41314066505E+03  0.50397436983E+03  0.12508083461E+03 0.  0.
          5    1    3    3  502    0  0.81873722320E+02 -0.87650841610E+02  0.25251098106E+03  0.27958047929E+03  0.41800000000E+01 0.  1.
         -5    1    3    3    0  502  0.80562570972E+01 -0.15642361412E+03  0.16062968398E+03  0.22439389054E+03  0.41800000000E+01 0.  1.
        -11    1    1    2    0    0 -0.35974872070E+01  0.10315539992E+03  0.38447430353E+03  0.39808851845E+03  0.00000000000E+00 0. -1.
         11    1    1    2    0    0 -0.86332492210E+02  0.14091905581E+03  0.37359676583E+03  0.40851685760E+03  0.00000000000E+00 0.  1.
</event>
<event>
 7    1  0.1243146E-005  0.6066800E+02  0.7561462E-02  0.1395050E+00
         -1   -1    0    0    0  501 -0.00000000000E+00  0.00000000000E+00  0.21846537809E+02  0.21846537809E+02  0.00000000000E+00 0.  1.
          1   -1    0    0  501    0  0.00000000000E+00 -0.00000000000E+00 -0.57398501421E+03  0.57398501421E+03  0.00000000000E+00 0. -1.
         23    2    1    2    0    0 -0.27022263122E+02 -0.58506471504E+01 -0.29174302271E+03  0.31863084265E+03  0.12508872774E+03 0.  0.
          5    1    3    3  502    0 -0.26048811924E+02 -0.38952346176E+01  0.18104148176E+00  0.26668682596E+02  0.41800000000E+01 0. -1.
         -5    1    3    3    0  502 -0.97345119835E+00 -0.19554125329E+01 -0.29192406419E+03  0.29196216005E+03  0.41800000000E+01 0. -1.
        -11    1    1    2    0    0  0.57765521055E+02  0.10933174409E+02 -0.12316751912E+03  0.13647940317E+03  0.00000000000E+00 0.  1.
         11    1    1    2    0    0 -0.30743257932E+02 -0.50825272584E+01 -0.13722793457E+03  0.14072130620E+03  0.00000000000E+00 0. -1.
</event>
<event>
 7    1  0.1243146E-005  0.1414527E+03  0.7561462E-02  0.1211387E+00
          1   -1    0    0  501    0  0.00000000000E+00  0.00000000000E+00  0.35719981997E+03  0.35719981997E+03  0.00000000000E+00 0. -1.
         -1   -1    0    0    0  501 -0.00000000000E+00 -0.00000000000E+00 -0.12430829976E+03  0.12430829976E+03  0.00000000000E+00 0.  1.
         23    2    1    2    0    0 -0.11434450708E+03 -0.53536748357E+02 -0.26050049613E+02  0.17962990766E+03  0.12508976343E+03 0.  0.
          5    1    3    3  502    0  0.10718390422E+02 -0.25538444071E+02  0.28790681004E+02  0.40168043660E+02  0.41800000000E+01 0. -1.
         -5    1    3    3    0  502 -0.12506289751E+03 -0.27998304285E+02 -0.54840730617E+02  0.13946186400E+03  0.41800000000E+01 0. -1.
        -11    1    1    2    0    0  0.39260297501E+02  0.23795038164E+02  0.19069628875E+03  0.19614446039E+03  0.00000000000E+00 0. -1.
         11    1    1    2    0    0  0.75084209584E+02  0.29741710193E+02  0.68245281078E+02  0.10573375168E+03  0.00000000000E+00 0.  1.
</event>
<event>
 7    1  0.1243146E-005  0.1176648E+03  0.7561462E-02  0.1247000E+00
          1   -1    0    0  501    0  0.00000000000E+00  0.00000000000E+00  0.95275763724E+02  0.95275763724E+02  0.00000000000E+00 0. -1.
         -1   -1    0    0    0  501 -0.00000000000E+00 -0.00000000000E+00 -0.20277455809E+03  0.20277455809E+03  0.00000000000E+00 0.  1.
         23    2    1    2    0    0 -0.33892951747E+02 -0.33920409460E+02 -0.13742026928E+03  0.19191349641E+03  0.12508850203E+03 0.  0.
          5    1    3    3  502    0  0.29397610584E+02  0.30916705307E+02 -0.37369304096E+02  0.56868264117E+02  0.41800000000E+01 0.  1.
         -5    1    3    3    0  502 -0.63290562331E+02 -0.64837114767E+02 -0.10005096518E+03  0.13504523229E+03  0.41800000000E+01 0.  1.
        -11    1    1    2    0    0 -0.15045087415E+02  0.48432804447E+02  0.16901965923E+02  0.53458092502E+02  0.00000000000E+00 0.  1.
         11    1    1    2    0    0  0.48938039161E+02 -0.14512394987E+02  0.13019508994E+02  0.52678732897E+02  0.00000000000E+00 0. -1.
</event>
<event>
 7    1  0.1243146E-005  0.9226340E+02  0.7561462E-02  0.1297461E+00
          1   -1    0    0  501    0  0.00000000000E+00  0.00000000000E+00  0.16170252650E+03  0.16170252650E+03  0.00000000000E+00 0. -1.
         -1   -1    0    0    0  501 -0.00000000000E+00 -0.00000000000E+00 -0.96412028796E+02  0.96412028796E+02  0.00000000000E+00 0.  1.
         23    2    1    2    0    0 -0.17474648616E+02  0.59223911533E+02  0.23839837964E+02  0.14151692794E+03  0.12508344406E+03 0.  0.
          5    1    3    3  502    0 -0.44938259280E+02  0.47026321097E+02 -0.35974139818E+02  0.74448191104E+02  0.41800000000E+01 0.  1.
         -5    1    3    3    0  502  0.27463610663E+02  0.12197590435E+02  0.59813977782E+02  0.67068736840E+02  0.41800000000E+01 0.  1.
        -11    1    1    2    0    0 -0.87264692275E+01  0.11007911210E+02 -0.16630493770E+02  0.21769214442E+02  0.00000000000E+00 0.  1.
         11    1    1    2    0    0  0.26201117844E+02 -0.70231822743E+02  0.58081153511E+02  0.94828412911E+02  0.00000000000E+00 0. -1.
</event>
<event>
 7    1  0.1243146E-005  0.2122021E+03  0.7561462E-02  0.1139834E+00
         -2   -1    0    0    0  501 -0.00000000000E+00  0.00000000000E+00  0.42614953347E+02  0.42614953347E+02  0.00000000000E+00 0.  1.
          2   -1    0    0  501    0  0.00000000000E+00 -0.00000000000E+00 -0.11507826705E+04  0.11507826705E+04  0.00000000000E+00 0. -1.
         23    2    1    2    0    0 -0.17659412604E+03  0.72172430583E+02 -0.51091987940E+03  0.55953647114E+03  0.12509034449E+03 0.  0.
          5    1    3    3  502    0 -0.51762950002E+02 -0.22295995413E+02 -0.24043529664E+03  0.24698809420E+03  0.41800000000E+01 0. -1.
         -5    1    3    3    0  502 -0.12483117604E+03  0.94468425996E+02 -0.27048458276E+03  0.31254837694E+03  0.41800000000E+01 0. -1.
        -11    1    1    2    0    0  0.58368541844E+02 -0.72478886152E+02 -0.23253794991E+03  0.25046751040E+03  0.00000000000E+00 0.  1.
         11    1    1    2    0    0  0.11822558419E+03  0.30645556869E+00 -0.36470988781E+03  0.38339364228E+03  0.00000000000E+00 0. -1.
</event>
<event>
 7    1  0.1243146E-005  0.1057256E+03  0.7561462E-02  0.1268697E+00
         -2   -1    0    0    0  501 -0.00000000000E+00  0.00000000000E+00  0.11551337179E+03  0.11551337179E+03  0.00000000000E+00 0.  1.
          2   -1    0    0  501    0  0.00000000000E+00 -0.00000000000E+00 -0.11191556174E+03  0.11191556174E+03  0.00000000000E+00 0. -1.
         23    2    1    2    0    0  0.12324281906E+02  0.68255672705E+02  0.50706335054E+01  0.14319811665E+03  0.12517693281E+03 0.  0.
          5    1    3    3  502    0  0.13878180523E+02 -0.34739278007E+02 -0.10157426212E+02  0.38988037118E+02  0.41800000000E+01 0.  1.
         -5    1    3    3    0  502 -0.15538986165E+01  0.10299495071E+03  0.15228059718E+02  0.10421007953E+03  0.41800000000E+01 0.  1.
        -11    1    1    2    0    0 -0.14713663266E+02 -0.45099642645E+02  0.20995459902E+02  0.51877538395E+02  0.00000000000E+00 0.  1.
         11    1    1    2    0    0  0.23893813597E+01 -0.23156030060E+02 -0.22468283365E+02  0.32353278486E+02  0.00000000000E+00 0. -1.
</event>
<event>
 7    1  0.1243146E-005  0.7451868E+02  0.7561462E-02  0.1345368E+00
          1   -1    0    0  501    0  0.00000000000E+00  0.00000000000E+00  0.54207696043E+02  0.54207696043E+02  0.00000000000E+00 0.  1.
         -1   -1    0    0    0  501 -0.00000000000E+00 -0.00000000000E+00 -0.24442062228E+03  0.24442062228E+03  0.00000000000E+00 0. -1.
         23    2    1    2    0    0 -0.57879454248E+01 -0.45290008355E+02 -0.10173796790E+03  0.16757532108E+03  0.12508472710E+03 0.  0.
          5    1    3    3  502    0  0.35134016161E+02 -0.16911460950E+02  0.13895717245E+02  0.41604806943E+02  0.41800000000E+01 0.  1.
         -5    1    3    3    0  502 -0.40921961586E+02 -0.28378547406E+02 -0.11563368514E+03  0.12597051414E+03  0.41800000000E+01 0.  1.
        -11    1    1    2    0    0  0.22054384765E+02  0.31885489104E+02  0.13451175954E+01  0.38792907137E+02  0.00000000000E+00 0.  1.
         11    1    1    2    0    0 -0.16266439341E+02  0.13404519252E+02 -0.89820075933E+02  0.92260090103E+02  0.00000000000E+00 0. -1.
</event>
<event>
 7    1  0.1243146E-005  0.1186966E+03  0.7561462E-02  0.1245263E+00
         -3   -1    0    0    0  501 -0.00000000000E+00  0.00000000000E+00  0.11798166950E+03  0.11798166950E+03  0.00000000000E+00 0.  1.
          3   -1    0    0  501    0  0.00000000000E+00 -0.00000000000E+00 -0.15732911065E+03  0.15732911065E+03  0.00000000000E+00 0. -1.
         23    2    1    2    0    0  0.50778093478E+02 -0.29121334301E+02  0.34103867124E+02  0.14225179126E+03  0.12508409761E+03 0.  0.
          5    1    3    3  502    0  0.27060007130E+02 -0.75427378658E+02  0.40115680728E+02  0.89712171289E+02  0.41800000000E+01 0. -1.
         -5    1    3    3    0  502  0.23718086348E+02  0.46306044357E+02 -0.60118136047E+01  0.52539619972E+02  0.41800000000E+01 0. -1.
        -11    1    1    2    0    0 -0.13943388926E+02  0.57050258455E+02 -0.62074042061E+02  0.85453711343E+02  0.00000000000E+00 0.  1.
         11    1    1    2    0    0 -0.36834704553E+02 -0.27928924154E+02 -0.11377266210E+02  0.47605277547E+02  0.00000000000E+00 0. -1.
</event>
<event>
 7    1  0.1243146E-005  0.7876099E+02  0.7561462E-02  0.1332605E+00
          1   -1    0    0  501    0  0.00000000000E+00  0.00000000000E+00  0.13357862442E+03  0.13357862442E+03  0.00000000000E+00 0. -1.
         -1   -1    0    0    0  501 -0.00000000000E+00 -0.00000000000E+00 -0.11979247452E+03  0.11979247452E+03  0.00000000000E+00 0.  1.
         23    2    1    2    0    0  0.28443437333E+01 -0.29367667402E+02 -0.49864915099E+02  0.13785207218E+03  0.12508450690E+03 0.  0.
          5    1    3    3  502    0 -0.25448759804E+02 -0.29855491854E+02  0.32212940534E+02  0.50932658553E+02  0.41800000000E+01 0. -1.
         -5    1    3    3    0  502  0.28293103537E+02  0.48782445235E+00 -0.82077855633E+02  0.86919413630E+02  0.41800000000E+01 0. -1.
        -11    1    1    2    0    0 -0.17609829753E+02  0.56169700862E+02  0.19918913989E+02  0.62144223653E+02  0.00000000000E+00 0.  1.
         11    1    1    2    0    0  0.14765486019E+02 -0.26802033461E+02  0.43732151007E+02  0.53374803107E+02  0.00000000000E+00 0. -1.
</event>
<event>
 7    1  0.1243146E-005  0.1293731E+03  0.7561462E-02  0.1228389E+00
         -3   -1    0    0    0  501 -0.00000000000E+00  0.00000000000E+00  0.18839543343E+03  0.18839543343E+03  0.00000000000E+00 0.  1.
          3   -1    0    0  501    0  0.00000000000E+00 -0.00000000000E+00 -0.13513045764E+03  0.13513045764E+03  0.00000000000E+00 0. -1.
         23    2    1    2    0    0 -0.74323648485E+02  0.90083614495E+02  0.29762006483E+02  0.17370129570E+03  0.12508917129E+03 0.  0.
          5    1    3    3  502    0 -0.25863043506E+02 -0.74560461441E+01  0.55397686896E+02  0.61732210044E+02  0.41800000000E+01 0. -1.
         -5    1    3    3    0  502 -0.48460604980E+02  0.97539660639E+02 -0.25635680413E+02  0.11196908566E+03  0.41800000000E+01 0. -1.
        -11    1    1    2    0    0  0.17171012189E+02 -0.49561873983E+02  0.52305486676E+02  0.74074873936E+02  0.00000000000E+00 0. -1.
         11    1    1    2    0    0  0.57152636297E+02 -0.40521740512E+02 -0.28802517368E+02  0.75749721429E+02  0.00000000000E+00 0.  1.
</event>
<event>
 7    1  0.1243146E-005  0.7554553E+02  0.7561462E-02  0.1342190E+00
         -1   -1    0    0    0  501 -0.00000000000E+00  0.00000000000E+00  0.54249216826E+02  0.54249216826E+02  0.00000000000E+00 0.  1.
          1   -1    0    0  501    0  0.00000000000E+00 -0.00000000000E+00 -0.22949900680E+03  0.22949900680E+03  0.00000000000E+00 0. -1.
         23    2    1    2    0    0  0.21531717287E+02  0.48167427321E+01 -0.76689753923E+02  0.14837888113E+03  0.12509259830E+03 0.  0.
          5    1    3    3  502    0  0.40164071114E+02 -0.16185624580E+02 -0.10165752618E+03  0.11057509702E+03  0.41800000000E+01 0. -1.
         -5    1    3    3    0  502 -0.18632353827E+02  0.21002367312E+02  0.24967772259E+02  0.37803784115E+02  0.41800000000E+01 0. -1.
        -11    1    1    2    0    0 -0.28766205773E+02 -0.36630483805E+02 -0.20735788686E+02  0.50982937055E+02  0.00000000000E+00 0.  1.
         11    1    1    2    0    0  0.72344884869E+01  0.31813741073E+02 -0.77824247370E+02  0.84386405442E+02  0.00000000000E+00 0. -1.
</event>
<event>
 7    1  0.1243146E-005  0.5122926E+03  0.7561462E-02  0.1010619E+00
         -2   -1    0    0    0  501 -0.00000000000E+00  0.00000000000E+00  0.19662823152E+03  0.19662823152E+03  0.00000000000E+00 0.  1.
          2   -1    0    0  501    0  0.00000000000E+00 -0.00000000000E+00 -0.13802911802E+04  0.13802911802E+04  0.00000000000E+00 0. -1.
         23    2    1    2    0    0  0.10600902364E+03 -0.49739510706E+03 -0.55174059845E+03  0.76072556609E+03  0.12508354529E+03 0.  0.
          5    1    3    3  502    0  0.15093431097E+02 -0.42359909759E+02 -0.79631601434E+01  0.45859109635E+02  0.41800000000E+01 0.  1.
         -5    1    3    3    0  502  0.90915592542E+02 -0.45503519730E+03 -0.54377743830E+03  0.71486645645E+03  0.41800000000E+01 0.  1.
        -11    1    1    2    0    0  0.13621673275E+02  0.80938002122E+02 -0.12199101246E+03  0.14703168805E+03  0.00000000000E+00 0. -1.
         11    1    1    2    0    0 -0.11963069691E+03  0.41645710494E+03 -0.50993133774E+03  0.66916215756E+03  0.00000000000E+00 0.  1.
</event>
<event>
 7    1  0.1243146E-005  0.1423836E+03  0.7561462E-02  0.1210157E+00
          2   -1    0    0  501    0  0.00000000000E+00  0.00000000000E+00  0.13618688862E+04  0.13618688862E+04  0.00000000000E+00 0. -1.
         -2   -1    0    0    0  501 -0.00000000000E+00 -0.00000000000E+00 -0.20192030749E+02  0.20192030749E+02  0.00000000000E+00 0.  1.
         23    2    1    2    0    0 -0.90022394665E+02  0.80128383236E+02  0.60370368369E+03  0.62819515375E+03  0.12508566725E+03 0.  0.
          5    1    3    3  502    0 -0.48687915226E+01  0.34642836359E+02  0.41210306653E+03  0.41360638424E+03  0.41800000000E+01 0. -1.
         -5    1    3    3    0  502 -0.85153603143E+02  0.45485546877E+02  0.19160061716E+03  0.21458876951E+03  0.41800000000E+01 0. -1.
        -11    1    1    2    0    0  0.91202681186E+02 -0.20774897112E+02  0.40697920507E+03  0.41759022829E+03  0.00000000000E+00 0. -1.
         11    1    1    2    0    0 -0.11802865209E+01 -0.59353486124E+02  0.33099396668E+03  0.33627553490E+03  0.00000000000E+00 0.  1.
</event>
<event>
 7    1  0.1243146E-005  0.1458325E+03  0.7561462E-02  0.1205690E+00
         -2   -1    0    0    0  501 -0.00000000000E+00  0.00000000000E+00  0.15060294123E+03  0.15060294123E+03  0.00000000000E+00 0.  1.
          2   -1    0    0  501    0  0.00000000000E+00 -0.00000000000E+00 -0.16980591860E+03  0.16980591860E+03  0.00000000000E+00 0. -1.
         23    2    1    2    0    0 -0.96507235303E+02  0.64798340934E+02  0.70072273117E+01  0.17090628367E+03  0.12508950839E+03 0.  0.
          5    1    3    3  502    0  0.89249026889E+01  0.39656077810E+02  0.40351236819E+02  0.57427807795E+02  0.41800000000E+01 0. -1.
         -5    1    3    3    0  502 -0.10543213799E+03  0.25142263124E+02 -0.33344009507E+02  0.11347847587E+03  0.41800000000E+01 0. -1.
        -11    1    1    2    0    0  0.10270316344E+03 -0.77191747887E+02 -0.34917308109E+02  0.13313798905E+03  0.00000000000E+00 0.  1.
         11    1    1    2    0    0 -0.61959281378E+01  0.12393406952E+02  0.87071034240E+01  0.16364587114E+02  0.00000000000E+00 0. -1.
</event>
<event>
 7    1  0.1243146E-005  0.9860613E+02  0.7561462E-02  0.1283255E+00
         -4   -1    0    0    0  501 -0.00000000000E+00  0.00000000000E+00  0.83913473290E+03  0.83913473290E+03  0.00000000000E+00 0. -1.
          4   -1    0    0  501    0  0.00000000000E+00 -0.00000000000E+00 -0.16035839154E+02  0.16035839154E+02  0.00000000000E+00 0.  1.
         23    2    1    2    0    0 -0.42547011599E+01 -0.15749145375E+02  0.60742889496E+03  0.62038950957E+03  0.12508854099E+03 0.  0.
          5    1    3    3  502    0  0.41588681061E+02 -0.52031298501E+02  0.35783566004E+03  0.36400646480E+03  0.41800000000E+01 0.  1.
         -5    1    3    3    0  502 -0.45843382221E+02  0.36282153126E+02  0.24959323492E+03  0.25638304477E+03  0.41800000000E+01 0.  1.
        -11    1    1    2    0    0 -0.16962985793E+02 -0.22464432458E+02  0.20620365914E+02  0.34894026754E+02  0.00000000000E+00 0.  1.
         11    1    1    2    0    0  0.21217686953E+02  0.38213577833E+02  0.19504963287E+03  0.19988703573E+03  0.00000000000E+00 0. -1.
</event>
<event>
 7    1  0.1243146E-005  0.1222266E+03  0.7561462E-02  0.1239468E+00
         -2   -1    0    0    0  501 -0.00000000000E+00  0.00000000000E+00  0.40909066480E+02  0.40909066480E+02  0.00000000000E+00 0.  1.
          2   -1    0    0  501    0  0.00000000000E+00 -0.00000000000E+00 -0.91888813617E+03  0.91888813617E+03  0.00000000000E+00 0. -1.
         23    2    1    2    0    0  0.25580442701E+02  0.69299444902E+02 -0.12626886550E+03  0.19247812112E+03  0.12508888281E+03 0.  0.
          5    1    3    3  502    0  0.38440840161E+02  0.67173370215E+02 -0.14784275964E+03  0.16692787016E+03  0.41800000000E+01 0.  1.
         -5    1    3    3    0  502 -0.12860397460E+02  0.21260746876E+01  0.21573894134E+02  0.25550250967E+02  0.41800000000E+01 0.  1.
        -11    1    1    2    0    0  0.53920936107E+02 -0.44691050357E+02 -0.30676898038E+03  0.31466166696E+03  0.00000000000E+00 0.  1.
         11    1    1    2    0    0 -0.79501378808E+02 -0.24608394546E+02 -0.44494122381E+03  0.45265741457E+03  0.00000000000E+00 0. -1.
</event>
<event>
 7    1  0.1243146E-005  0.1073371E+03  0.7561462E-02  0.1265582E+00
         -2   -1    0    0    0  501 -0.00000000000E+00  0.00000000000E+00  0.94151274514E+02  0.94151274514E+02  0.00000000000E+00 0. -1.
          2   -1    0    0  501    0  0.00000000000E+00 -0.00000000000E+00 -0.24943945235E+03  0.24943945235E+03  0.00000000000E+00 0.  1.
         23    2    1    2    0    0 -0.38779970902E+02 -0.80584809264E+02 -0.14792012247E+02  0.15447155948E+03  0.12507942050E+03 0.  0.
          5    1    3    3  502    0 -0.16518780870E+02  0.10270625054E+01 -0.57241409051E+02  0.59732539616E+02  0.41800000000E+01 0. -1.
         -5    1    3    3    0  502 -0.22261190032E+02 -0.81611871770E+02  0.42449396804E+02  0.94739019862E+02  0.41800000000E+01 0. -1.
        -11    1    1    2    0    0 -0.15593178817E+02  0.45745065459E+02 -0.10462389925E+03  0.11524720619E+03  0.00000000000E+00 0.  1.
         11    1    1    2    0    0  0.54373149718E+02  0.34839743805E+02 -0.35872266332E+02  0.73871961193E+02  0.00000000000E+00 0. -1.
</event>
<event>
 7    1  0.1243146E-005  0.1337023E+03  0.7561462E-02  0.1222063E+00
         -1   -1    0    0    0  501 -0.00000000000E+00  0.00000000000E+00  0.79580832653E+02  0.79580832653E+02  0.00000000000E+00 0.  1.
          1   -1    0    0  501    0  0.00000000000E+00 -0.00000000000E+00 -0.48547370445E+03  0.48547370445E+03  0.00000000000E+00 0. -1.
         23    2    1    2    0    0  0.15605286144E+02 -0.10347166096E+03 -0.31926139688E+02  0.16618997611E+03  0.12509964104E+03 0.  0.
          5    1    3    3  502    0 -0.30890814456E+02 -0.53978001386E+02  0.34381929831E+02  0.71186069918E+02  0.41800000000E+01 0.  1.
         -5    1    3    3    0  502  0.46496100600E+02 -0.49493659576E+02 -0.66308069520E+02  0.95003906197E+02  0.41800000000E+01 0.  1.
        -11    1    1    2    0    0  0.35881543577E+02  0.27260600033E+02 -0.15363221823E+03  0.16010460319E+03  0.00000000000E+00 0. -1.
         11    1    1    2    0    0 -0.51486829721E+02  0.76211060930E+02 -0.22033451388E+03  0.23875995780E+03  0.00000000000E+00 0.  1.
</event>
<event>
 7    1  0.1243146E-005  0.1905560E+03  0.7561462E-02  0.1157961E+00
         -2   -1    0    0    0  501 -0.00000000000E+00  0.00000000000E+00  0.43454204298E+02  0.43454204298E+02  0.00000000000E+00 0.  1.
          2   -1    0    0  501    0  0.00000000000E+00 -0.00000000000E+00 -0.90330459279E+03  0.90330459279E+03  0.00000000000E+00 0. -1.
         23    2    1    2    0    0 -0.12922211709E+03 -0.10142252161E+03 -0.44846937643E+03  0.49372185459E+03  0.12510637342E+03 0.  0.
          5    1    3    3  502    0 -0.11341375546E+03 -0.12269075172E+03 -0.42947987029E+03  0.46085369899E+03  0.41800000000E+01 0. -1.
         -5    1    3    3    0  502 -0.15808361627E+02  0.21268230107E+02 -0.18989506135E+02  0.32868155599E+02  0.41800000000E+01 0. -1.
        -11    1    1    2    0    0  0.11094612470E+03  0.32151334159E+02 -0.21619361674E+03  0.24511717768E+03  0.00000000000E+00 0. -1.
         11    1    1    2    0    0  0.18275992387E+02  0.69271187451E+02 -0.19518739532E+03  0.20791976482E+03  0.00000000000E+00 0.  1.
</event>
<event>
 7    1  0.2045058E-005  0.2517381E+03  0.7561462E-02  0.1112211E+00
         -1   -1    0    0    0  501 -0.00000000000E+00  0.00000000000E+00  0.15636910226E+03  0.15636910226E+03  0.00000000000E+00 0.  1.
          1   -1    0    0  501    0  0.00000000000E+00 -0.00000000000E+00 -0.40842010865E+03  0.40842010865E+03  0.00000000000E+00 0. -1.
         23    2    1    2    0    0 -0.18125763632E+03 -0.13617306888E+03 -0.15360162256E+03  0.30106270755E+03  0.12509140662E+03 0.  0.
          5    1    3    3  502    0 -0.10192249758E+03 -0.14671266968E+03 -0.10216386379E+03  0.20583423045E+03  0.41800000000E+01 0. -1.
         -5    1    3    3    0  502 -0.79335138734E+02  0.10539600806E+02 -0.51437758771E+02  0.95228477099E+02  0.41800000000E+01 0. -1.
        -11    1    1    2    0    0  0.69509418983E+02  0.10959493243E+03 -0.53790212564E+02  0.14048485865E+03  0.00000000000E+00 0.  1.
         11    1    1    2    0    0  0.11174821734E+03  0.26578136444E+02 -0.44659171265E+02  0.12324164472E+03  0.00000000000E+00 0. -1.
</event>
<event>
 7    1  0.1243146E-005  0.1531461E+03  0.7561462E-02  0.1196660E+00
         -2   -1    0    0    0  501 -0.00000000000E+00  0.00000000000E+00  0.53987696490E+02  0.53987696490E+02  0.00000000000E+00 0.  1.
          2   -1    0    0  501    0  0.00000000000E+00 -0.00000000000E+00 -0.64489932357E+03  0.64489932357E+03  0.00000000000E+00 0. -1.
         23    2    1    2    0    0  0.13705576919E+03 -0.64553026912E+02 -0.30389461450E+03  0.36187205326E+03  0.12509224220E+03 0.  0.
          5    1    3    3  502    0  0.80707620389E+02 -0.33054783093E+02 -0.27935837818E+03  0.29268569240E+03  0.41800000000E+01 0.  1.
         -5    1    3    3    0  502  0.56348148800E+02 -0.31498243820E+02 -0.24536236316E+02  0.69186360863E+02  0.41800000000E+01 0.  1.
        -11    1    1    2    0    0 -0.79320757846E+02  0.21248453866E+02 -0.68658102457E+02  0.10703837840E+03  0.00000000000E+00 0.  1.
         11    1    1    2    0    0 -0.57735011344E+02  0.43304573046E+02 -0.21835891012E+03  0.22997658840E+03  0.00000000000E+00 0. -1.
</event>
<event>
 6    1  0.1243146E-005  0.1119193E+03  0.7561462E-02  0.1257056E+00
          4   -1    0    0  501    0  0.00000000000E+00  0.00000000000E+00  0.62130992941E+03  0.62130992941E+03  0.00000000000E+00 0. -1.
         -4   -1    0    0    0  501 -0.00000000000E+00 -0.00000000000E+00 -0.24426208504E+02  0.24426208504E+02  0.00000000000E+00 0.  1.
          5    1    1    2  502    0  0.75572880316E+01  0.60246185782E+02  0.12543653250E+03  0.13942206278E+03  0.41800000000E+01 0. -1.
         -5    1    1    2    0  502 -0.25551719547E+02 -0.63293879449E+02  0.91525050868E+02  0.11425109577E+03  0.41800000000E+01 0.  1.
        -11    1    1    2    0    0  0.55891237100E+02  0.76663182302E+01  0.18393139034E+03  0.19238856300E+03  0.00000000000E+00 0.  1.
         11    1    1    2    0    0 -0.37896805585E+02 -0.46186245628E+01  0.19599074719E+03  0.19967441637E+03  0.00000000000E+00 0. -1.
</event>
<event>
 7    1  0.1243146E-005  0.1183392E+03  0.7561462E-02  0.1245862E+00
          1   -1    0    0  501    0  0.00000000000E+00  0.00000000000E+00  0.33148786996E+03  0.33148786996E+03  0.00000000000E+00 0. -1.
         -1   -1    0    0    0  501 -0.00000000000E+00 -0.00000000000E+00 -0.70369535387E+02  0.70369535387E+02  0.00000000000E+00 0.  1.
         23    2    1    2    0    0  0.51367240923E+02  0.85832732822E+02  0.89449928345E+02  0.18344284179E+03  0.12507651682E+03 0.  0.
          5    1    3    3  502    0  0.58554913672E+02  0.50118625934E+02 -0.96378670592E+01  0.77787630521E+02  0.41800000000E+01 0. -1.
         -5    1    3    3    0  502 -0.71876727486E+01  0.35714106888E+02  0.99087795405E+02  0.10565521127E+03  0.41800000000E+01 0. -1.
        -11    1    1    2    0    0  0.28073963239E+01  0.11277455315E+02  0.58922348132E+02  0.60057518946E+02  0.00000000000E+00 0. -1.
         11    1    1    2    0    0 -0.54174637247E+02 -0.97110188138E+02  0.11274605809E+03  0.15835704461E+03  0.00000000000E+00 0.  1.
</event>
<event>
 7    1  0.1243146E-005  0.3060238E+03  0.7561462E-02  0.1082268E+00
          1   -1    0    0  501    0  0.00000000000E+00  0.00000000000E+00  0.10557110331E+04  0.10557110331E+04  0.00000000000E+00 0. -1.
         -1   -1    0    0    0  501 -0.00000000000E+00 -0.00000000000E+00 -0.91519640158E+02  0.91519640158E+02  0.00000000000E+00 0.  1.
         23    2    1    2    0    0 -0.28727044696E+03 -0.44489984149E+02  0.45956722919E+03  0.55798968024E+03  0.12508707659E+03 0.  0.
          5    1    3    3  502    0 -0.16488634576E+03  0.35826842276E+02  0.27050485860E+03  0.31884388119E+03  0.41800000000E+01 0.  1.
         -5    1    3    3    0  502 -0.12238410120E+03 -0.80316826425E+02  0.18906237059E+03  0.23914579905E+03  0.41800000000E+01 0.  1.
        -11    1    1    2    0    0  0.12360324142E+03  0.49317102362E+02  0.16316875159E+03  0.21055635675E+03  0.00000000000E+00 0.  1.
         11    1    1    2    0    0  0.16366720554E+03 -0.48271182130E+01  0.34145541216E+03  0.37868463625E+03  0.00000000000E+00 0. -1.
</event>
<event>
 7    1  0.1243146E-005  0.1035513E+03  0.7561462E-02  0.1273000E+00
         -2   -1    0    0    0  501 -0.00000000000E+00  0.00000000000E+00  0.85369623367E+02  0.85369623367E+02  0.00000000000E+00 0.  1.
          2   -1    0    0  501    0  0.00000000000E+00 -0.00000000000E+00 -0.16635151531E+03  0.16635151531E+03  0.00000000000E+00 0. -1.
         23    2    1    2    0    0  0.49954409034E+02  0.46062306149E+00 -0.47097416339E+02  0.14269253088E+03  0.12508931444E+03 0.  0.
          5    1    3    3  502    0  0.85686132485E+02 -0.19713899017E+02 -0.12599214107E+02  0.88921109478E+02  0.41800000000E+01 0.  1.
         -5    1    3    3    0  502 -0.35731723451E+02  0.20174522078E+02 -0.34498202232E+02  0.53771421398E+02  0.41800000000E+01 0.  1.
        -11    1    1    2    0    0 -0.61079342394E+02 -0.11508278512E+02 -0.54818309614E+02  0.82874444858E+02  0.00000000000E+00 0. -1.
         11    1    1    2    0    0  0.11124933359E+02  0.11047655450E+02  0.20933834007E+02  0.26154162947E+02  0.00000000000E+00 0.  1.
</event>
<event>
 7    1  0.1243146E-005  0.5370690E+02  0.7561462E-02  0.1426315E+00
         -1   -1    0    0    0  501 -0.00000000000E+00  0.00000000000E+00  0.68013024027E+03  0.68013024027E+03  0.00000000000E+00 0.  1.
          1   -1    0    0  501    0  0.00000000000E+00 -0.00000000000E+00 -0.30930136466E+02  0.30930136466E+02  0.00000000000E+00 0. -1.
         23    2    1    2    0    0 -0.43581911529E+01 -0.11252509602E+02  0.58428884895E+03  0.59765069092E+03  0.12508907447E+03 0.  0.
          5    1    3    3  502    0 -0.18488884764E+02  0.81147966330E+01  0.56798259139E+03  0.56835674123E+03  0.41800000000E+01 0. -1.
         -5    1    3    3    0  502  0.14130693611E+02 -0.19367306234E+02  0.16306257557E+02  0.29293949686E+02  0.41800000000E+01 0. -1.
        -11    1    1    2    0    0 -0.81863658273E+01  0.34815039813E+02  0.76393681026E+02  0.84351040796E+02  0.00000000000E+00 0.  1.
         11    1    1    2    0    0  0.12544556980E+02 -0.23562530212E+02 -0.11482426167E+02  0.29058645021E+02  0.00000000000E+00 0. -1.
</event>
<event>
 7    1  0.1243146E-005  0.8144852E+02  0.7561462E-02  0.1324990E+00
          1   -1    0    0  501    0  0.00000000000E+00  0.00000000000E+00  0.29432125845E+02  0.29432125845E+02  0.00000000000E+00 0. -1.
         -1   -1    0    0    0  501 -0.00000000000E+00 -0.00000000000E+00 -0.47356114608E+03  0.47356114608E+03  0.00000000000E+00 0.  1.
         23    2    1    2    0    0  0.47698746537E+02  0.55163344555E+00 -0.22395018004E+03  0.26092298910E+03  0.12510654811E+03 0.  0.
          5    1    3    3  502    0  0.38261159325E+01  0.29487755212E+02 -0.20132439191E+03  0.20355134499E+03  0.41800000000E+01 0. -1.
         -5    1    3    3    0  502  0.43872630604E+02 -0.28936121767E+02 -0.22625788130E+02  0.57371644107E+02  0.41800000000E+01 0. -1.
        -11    1    1    2    0    0 -0.46496157312E+02  0.26199731610E+02 -0.62733296583E+02  0.82363736446E+02  0.00000000000E+00 0. -1.
         11    1    1    2    0    0 -0.12025892254E+01 -0.26751365055E+02 -0.15744554362E+03  0.15970654639E+03  0.00000000000E+00 0.  1.
</event>
<event>
 7    1  0.1243146E-005  0.1620481E+03  0.7561462E-02  0.1186404E+00
          2   -1    0    0  501    0  0.00000000000E+00  0.00000000000E+00  0.37489466172E+03  0.37489466172E+03  0.00000000000E+00 0. -1.
         -2   -1    0    0    0  501 -0.00000000000E+00 -0.00000000000E+00 -0.10771318857E+03  0.10771318857E+03  0.00000000000E+00 0.  1.
         23    2    1    2    0    0 -0.60293789706E+02 -0.14834212065E+03  0.75372991755E+02  0.21672310603E+03  0.12508833266E+03 0.  0.
          5    1    3    3  502    0 -0.63569774123E+02 -0.13416154455E+03  0.10606161763E+03  0.18250198726E+03  0.41800000000E+01 0. -1.
         -5    1    3    3    0  502  0.32759844173E+01 -0.14180576095E+02 -0.30688625874E+02  0.34221118777E+02  0.41800000000E+01 0. -1.
        -11    1    1    2    0    0  0.33616321950E+02  0.95429879952E+02  0.51402084418E+02  0.11348609330E+03  0.00000000000E+00 0.  1.
         11    1    1    2    0    0  0.26677467756E+02  0.52912240695E+02  0.14040639698E+03  0.15239865096E+03  0.00000000000E+00 0. -1.
</event>
<event>
 7    1  0.1243146E-005  0.1767385E+03  0.7561462E-02  0.1170997E+00
          4   -1    0    0  501    0  0.00000000000E+00  0.00000000000E+00  0.12760546115E+04  0.12760546115E+04  0.00000000000E+00 0. -1.
         -4   -1    0    0    0  501 -0.00000000000E+00 -0.00000000000E+00 -0.29700076579E+02  0.29700076579E+02  0.00000000000E+00 0.  1.
         23    2    1    2    0    0  0.15651900231E+03  0.31238048689E+02  0.52157035070E+03  0.55752745968E+03  0.11544359576E+03 0.  0.
          5    1    3    3  502    0 -0.96956411488E+01  0.53406368900E+01  0.28144198118E+01  0.12162286732E+02  0.41800000000E+01 0. -1.
         -5    1    3    3    0  502  0.16621464346E+03  0.25897411799E+02  0.51875593088E+03  0.54536517295E+03  0.41800000000E+01 0.  1.
        -11    1    1    2    0    0 -0.79376938098E+02 -0.50220430209E+02  0.25450303033E+03  0.27128321429E+03  0.00000000000E+00 0.  1.
         11    1    1    2    0    0 -0.77142064210E+02  0.18982381520E+02  0.47028115391E+03  0.47694401411E+03  0.00000000000E+00 0. -1.
</event>
<event>
 6    1  0.1243146E-005  0.1514361E+03  0.7561462E-02  0.1198719E+00
          3   -1    0    0  501    0  0.00000000000E+00  0.00000000000E+00  0.21894071764E+02  0.21894071764E+02  0.00000000000E+00 0. -1.
         -3   -1    0    0    0  501 -0.00000000000E+00 -0.00000000000E+00 -0.13406549969E+04  0.13406549969E+04  0.00000000000E+00 0.  1.
          5    1    1    2  502    0 -0.29479607675E+02 -0.78296789445E+02 -0.19749227025E+03  0.21452296780E+03  0.41800000000E+01 0. -1.
         -5    1    1    2    0  502  0.87240158751E+02  0.73310597278E+02 -0.84115751210E+03  0.84885141311E+03  0.41800000000E+01 0.  1.
        -11    1    1    2    0    0  0.17928419275E+02 -0.18563431544E+02 -0.70706507728E+02  0.75269113476E+02  0.00000000000E+00 0.  1.
         11    1    1    2    0    0 -0.75688970351E+02  0.23549623710E+02 -0.20940463508E+03  0.22390557430E+03  0.00000000000E+00 0. -1.
</event>
<event>
 7    1  0.1243146E-005  0.8572443E+02  0.7561462E-02  0.1313549E+00
         -2   -1    0    0    0  501 -0.00000000000E+00  0.00000000000E+00  0.25534021232E+02  0.25534021232E+02  0.00000000000E+00 0.  1.
          2   -1    0    0  501    0  0.00000000000E+00 -0.00000000000E+00 -0.51844209185E+03  0.51844209185E+03  0.00000000000E+00 0. -1.
         23    2    1    2    0    0  0.72684048556E+01 -0.19274524556E+02 -0.16400416632E+03  0.20728982720E+03  0.12508944353E+03 0.  0.
          5    1    3    3  502    0 -0.34071137992E+02 -0.42124499499E+02 -0.14731871331E+03  0.15702099093E+03  0.41800000000E+01 0. -1.
         -5    1    3    3    0  502  0.41339542847E+02  0.22849974943E+02 -0.16685453020E+02  0.50268836273E+02  0.41800000000E+01 0. -1.
        -11    1    1    2    0    0  0.15309416181E+02 -0.19518030059E+02 -0.79650742579E+02  0.83424052375E+02  0.00000000000E+00 0. -1.
         11    1    1    2    0    0 -0.22577821037E+02  0.38792554616E+02 -0.24925316171E+03  0.25326223351E+03  0.00000000000E+00 0.  1.
</event>
<event>
 7    1  0.1243146E-005  0.2545061E+03  0.7561462E-02  0.1110490E+00
         -1   -1    0    0    0  501 -0.00000000000E+00  0.00000000000E+00  0.16756767739E+03  0.16756767739E+03  0.00000000000E+00 0.  1.
          1   -1    0    0  501    0  0.00000000000E+00 -0.00000000000E+00 -0.40892138161E+03  0.40892138161E+03  0.00000000000E+00 0. -1.
         23    2    1    2    0    0  0.22917014949E+03 -0.47832228781E+02 -0.77369793143E+02  0.27647764754E+03  0.12508766995E+03 0.  0.
          5    1    3    3  502    0  0.86991380609E+02  0.41876369818E+02 -0.19128126889E+02  0.98511361211E+02  0.41800000000E+01 0. -1.
         -5    1    3    3    0  502  0.14217876888E+03 -0.89708598599E+02 -0.58241666254E+02  0.17796628633E+03  0.41800000000E+01 0. -1.
        -11    1    1    2    0    0 -0.20685369199E+03  0.64139910282E+02 -0.11871901495E+03  0.24697486206E+03  0.00000000000E+00 0.  1.
         11    1    1    2    0    0 -0.22316457498E+02 -0.16307681500E+02 -0.45264896130E+02  0.53036549406E+02  0.00000000000E+00 0. -1.
</event>
<event>
 7    1  0.1243146E-005  0.1058928E+03  0.7561462E-02  0.1268371E+00
          1   -1    0    0  501    0  0.00000000000E+00  0.00000000000E+00  0.26292058964E+02  0.26292058964E+02  0.00000000000E+00 0. -1.
         -1   -1    0    0    0  501 -0.00000000000E+00 -0.00000000000E+00 -0.58818674441E+03  0.58818674441E+03  0.00000000000E+00 0.  1.
         23    2    1    2    0    0 -0.27837512187E+01  0.61354917019E+02 -0.37112843295E+03  0.39642614851E+03  0.12508078335E+03 0.  0.
          5    1    3    3  502    0  0.31406538069E+02 -0.14126915146E+02 -0.31660496147E+02  0.46965942781E+02  0.41800000000E+01 0. -1.
         -5    1    3    3    0  502 -0.34190289288E+02  0.75481832165E+02 -0.33946793680E+03  0.34946020573E+03  0.41800000000E+01 0. -1.
        -11    1    1    2    0    0  0.78338658686E+01  0.15361236308E+02 -0.88203053086E+02  0.89872774571E+02  0.00000000000E+00 0.  1.
         11    1    1    2    0    0 -0.50501146499E+01 -0.76716153327E+02 -0.10256319940E+03  0.12817988029E+03  0.00000000000E+00 0. -1.
</event>
<event>
 7    1  0.1243146E-005  0.1018030E+03  0.7561462E-02  0.1276549E+00
          2   -1    0    0  501    0  0.00000000000E+00  0.00000000000E+00  0.20651560097E+03  0.20651560097E+03  0.00000000000E+00 0. -1.
         -2   -1    0    0    0  501 -0.00000000000E+00 -0.00000000000E+00 -0.79107962464E+02  0.79107962464E+02  0.00000000000E+00 0.  1.
         23    2    1    2    0    0  0.49717846988E+02 -0.17087335461E+02  0.21647651212E+02  0.13740406552E+03  0.12508962817E+03 0.  0.
          5    1    3    3  502    0  0.72306813310E+02 -0.29553747931E+02  0.54562298668E+02  0.95374085074E+02  0.41800000000E+01 0.  1.
         -5    1    3    3    0  502 -0.22588966322E+02  0.12466412469E+02 -0.32914647455E+02  0.42029980448E+02  0.41800000000E+01 0.  1.
        -11    1    1    2    0    0 -0.66908629770E+02  0.34066282965E+02  0.96673684010E+02  0.12240538204E+03  0.00000000000E+00 0. -1.
         11    1    1    2    0    0  0.17190782782E+02 -0.16978947504E+02  0.90863032885E+01  0.25814115876E+02  0.00000000000E+00 0.  1.
</event>
<event>
 6    1  0.1243146E-005  0.1411619E+03  0.7561462E-02  0.1211774E+00
         -4   -1    0    0    0  501 -0.00000000000E+00  0.00000000000E+00  0.21411219165E+03  0.21411219165E+03  0.00000000000E+00 0.  1.
          4   -1    0    0  501    0  0.00000000000E+00 -0.00000000000E+00 -0.19149937557E+03  0.19149937557E+03  0.00000000000E+00 0. -1.
          5    1    1    2  502    0 -0.70495330583E+02 -0.51542298804E+02  0.54553625415E+02  0.10305227143E+03  0.41800000000E+01 0. -1.
         -5    1    1    2    0  502  0.86434038225E+02 -0.13116643579E+02  0.97819645796E+02  0.13125945606E+03  0.41800000000E+01 0.  1.
        -11    1    1    2    0    0  0.32849257923E+02  0.10518070221E+02 -0.21010424297E+02  0.40387392543E+02  0.00000000000E+00 0.  1.
         11    1    1    2    0    0 -0.48787965565E+02  0.54140872162E+02 -0.10875003083E+03  0.13091244719E+03  0.00000000000E+00 0. -1.
</event>
<event>
 7    1  0.1243146E-005  0.9329830E+02  0.7561462E-02  0.1295055E+00
         -1   -1    0    0    0  501 -0.00000000000E+00  0.00000000000E+00  0.89557648789E+02  0.89557648789E+02  0.00000000000E+00 0.  1.
          1   -1    0    0  501    0  0.00000000000E+00 -0.00000000000E+00 -0.14041293062E+03  0.14041293062E+03  0.00000000000E+00 0. -1.
         23    2    1    2    0    0 -0.15309391192E+02  0.19706788796E+02 -0.13495184715E+02  0.12826793170E+03  0.12509119597E+03 0.  0.
          5    1    3    3  502    0  0.26196470776E+02  0.49625394369E+02  0.27444487434E+02  0.62606765912E+02  0.41800000000E+01 0.  1.
         -5    1    3    3    0  502 -0.41505861968E+02 -0.29918605573E+02 -0.40939672149E+02  0.65661165789E+02  0.41800000000E+01 0.  1.
        -11    1    1    2    0    0 -0.28190797847E+02  0.54888061762E+01 -0.42366695061E+02  0.51183834625E+02  0.00000000000E+00 0. -1.
         11    1    1    2    0    0  0.43500189039E+02 -0.25195594972E+02  0.50065979440E+01  0.50518813084E+02  0.00000000000E+00 0.  1.
</event>
<event>
 7    1  0.1243146E-005  0.7197803E+02  0.7561462E-02  0.1353493E+00
          2   -1    0    0  501    0  0.00000000000E+00  0.00000000000E+00  0.79767983508E+02  0.79767983508E+02  0.00000000000E+00 0.  1.
         -2   -1    0    0    0  501 -0.00000000000E+00 -0.00000000000E+00 -0.15966893734E+03  0.15966893734E+03  0.00000000000E+00 0. -1.
         23    2    1    2    0    0 -0.22196480336E+02  0.24704491772E+02 -0.53189249333E+02  0.13992226865E+03  0.12508456886E+03 0.  0.
          5    1    3    3  502    0  0.27325667141E+02  0.64125827364E+01 -0.76848045208E+02  0.81920130337E+02  0.41800000000E+01 0.  1.
         -5    1    3    3    0  502 -0.49522147476E+02  0.18291909036E+02  0.23658795876E+02  0.58002138315E+02  0.41800000000E+01 0.  1.
        -11    1    1    2    0    0 -0.17626093137E+02 -0.92382827762E+01  0.25312007174E+02  0.32198179065E+02  0.00000000000E+00 0.  1.
         11    1    1    2    0    0  0.39822573473E+02 -0.15466208996E+02 -0.52023711673E+02  0.67316473132E+02  0.00000000000E+00 0. -1.
</event>
<event>
 7    1  0.1243146E-005  0.1476164E+03  0.7561462E-02  0.1203433E+00
          1   -1    0    0  501    0  0.00000000000E+00  0.00000000000E+00  0.48410632582E+03  0.48410632582E+03  0.00000000000E+00 0. -1.
         -1   -1    0    0    0  501 -0.00000000000E+00 -0.00000000000E+00 -0.68019220863E+02  0.68019220863E+02  0.00000000000E+00 0.  1.
         23    2    1    2    0    0 -0.11472217355E+03 -0.31895356910E+02  0.92121834978E+02  0.19573518970E+03  0.12508933251E+03 0.  0.
          5    1    3    3  502    0 -0.60890906992E+01  0.32270154825E+02  0.54928090430E+02  0.64132732954E+02  0.41800000000E+01 0.  1.
         -5    1    3    3    0  502 -0.10863308286E+03 -0.64165511735E+02  0.37193744548E+02  0.13160245674E+03  0.41800000000E+01 0.  1.
        -11    1    1    2    0    0  0.15813857390E+02 -0.18947882176E+02  0.17182640151E+02  0.30072303654E+02  0.00000000000E+00 0.  1.
         11    1    1    2    0    0  0.98908316165E+02  0.50843239086E+02  0.30678262983E+03  0.32631805333E+03  0.00000000000E+00 0. -1.
</event>
<event>
 7    1  0.1243146E-005  0.1282750E+03  0.7561462E-02  0.1230038E+00
         -1   -1    0    0    0  501 -0.00000000000E+00  0.00000000000E+00  0.54800764589E+02  0.54800764589E+02  0.00000000000E+00 0.  1.
          1   -1    0    0  501    0  0.00000000000E+00 -0.00000000000E+00 -0.33846118839E+03  0.33846118839E+03  0.00000000000E+00 0. -1.
         23    2    1    2    0    0  0.97308711452E+00  0.78922457368E+02 -0.12192901913E+03  0.19168710719E+03  0.12509020818E+03 0.  0.
          5    1    3    3  502    0 -0.18798421142E+01  0.10731111019E+03 -0.12240287976E+03  0.16284700043E+03  0.41800000000E+01 0.  1.
         -5    1    3    3    0  502  0.28529292287E+01 -0.28388652819E+02  0.47386062712E+00  0.28840106761E+02  0.41800000000E+01 0.  1.
        -11    1    1    2    0    0  0.42839749933E+02 -0.21088011128E+02 -0.65381379529E+02  0.80960936116E+02  0.00000000000E+00 0.  1.
         11    1    1    2    0    0 -0.43812837048E+02 -0.57834446240E+02 -0.96350025144E+02  0.12061390968E+03  0.00000000000E+00 0. -1.
</event>
<event>
 7    1  0.1243146E-005  0.1283280E+03  0.7561462E-02  0.1229958E+00
          2   -1    0    0  501    0  0.00000000000E+00  0.00000000000E+00  0.17341277873E+03  0.17341277873E+03  0.00000000000E+00 0. -1.
         -2   -1    0    0    0  501 -0.00000000000E+00 -0.00000000000E+00 -0.11443052772E+03  0.11443052772E+03  0.00000000000E+00 0.  1.
         23    2    1    2    0    0 -0.79638850832E+02  0.37914386689E+02  0.12050253502E+02  0.15353180013E+03  0.12508780021E+03 0.  0.
          5    1    3    3  502    0 -0.80672002693E+02 -0.28574708347E+02 -0.73227943337E+00  0.85688357487E+02  0.41800000000E+01 0. -1.
         -5    1    3    3    0  502  0.10331518616E+01  0.66489095036E+02  0.12782532935E+02  0.67843442644E+02  0.41800000000E+01 0. -1.
        -11    1    1    2    0    0  0.34390869364E+01 -0.27172416285E+02  0.50312051537E+02  0.57284116958E+02  0.00000000000E+00 0. -1.
         11    1    1    2    0    0  0.76199763895E+02 -0.10741970404E+02 -0.33800540253E+01  0.77027389356E+02  0.00000000000E+00 0.  1.
</event>
<event>
 7    1  0.1243146E-005  0.9914647E+02  0.7561462E-02  0.1282101E+00
         -4   -1    0    0    0  501 -0.00000000000E+00  0.00000000000E+00  0.56473313142E+02  0.56473313142E+02  0.00000000000E+00 0.  1.
          4   -1    0    0  501    0  0.00000000000E+00 -0.00000000000E+00 -0.20906547072E+03  0.20906547072E+03  0.00000000000E+00 0. -1.
         23    2    1    2    0    0  0.83123126131E+00  0.28899520599E+02 -0.84150996161E+02  0.15350785560E+03  0.12508956127E+03 0.  0.
          5    1    3    3  502    0 -0.29353392529E+02  0.59530144867E+02 -0.87803421965E+02  0.11014705221E+03  0.41800000000E+01 0.  1.
         -5    1    3    3    0  502  0.30184623790E+02 -0.30630624268E+02  0.36524258042E+01  0.43360803390E+02  0.41800000000E+01 0.  1.
        -11    1    1    2    0    0  0.11966851036E+02  0.27899725861E+02 -0.26172874648E+02  0.40082659520E+02  0.00000000000E+00 0.  1.
         11    1    1    2    0    0 -0.12798082297E+02 -0.56799246460E+02 -0.42268286765E+02  0.71948268742E+02  0.00000000000E+00 0. -1.
</event>
<event>
 7    1  0.1243146E-005  0.1426690E+03  0.7561462E-02  0.1209782E+00
          1   -1    0    0  501    0  0.00000000000E+00  0.00000000000E+00  0.10349647026E+04  0.10349647026E+04  0.00000000000E+00 0. -1.
         -1   -1    0    0    0  501 -0.00000000000E+00 -0.00000000000E+00 -0.25091675331E+02  0.25091675331E+02  0.00000000000E+00 0.  1.
         23    2    1    2    0    0  0.11147629994E+03 -0.43848987754E+01  0.37092135272E+03  0.40703460669E+03  0.12509327861E+03 0.  0.
          5    1    3    3  502    0  0.76433773975E+02  0.46418309706E+02  0.29928360522E+03  0.31238586721E+03  0.41800000000E+01 0.  1.
         -5    1    3    3    0  502  0.35042525964E+02 -0.50803208482E+02  0.71637747502E+02  0.94648739480E+02  0.41800000000E+01 0.  1.
        -11    1    1    2    0    0 -0.54973684622E+02 -0.34921627079E+02  0.34775543751E+03  0.35380145613E+03  0.00000000000E+00 0.  1.
         11    1    1    2    0    0 -0.56502615317E+02  0.39306525854E+02  0.29119623701E+03  0.29922031509E+03  0.00000000000E+00 0. -1.
</event>
<event>
 7    1  0.1243146E-005  0.9245785E+02  0.7561462E-02  0.1297006E+00
         -2   -1    0    0    0  501 -0.00000000000E+00  0.00000000000E+00  0.99724341961E+02  0.99724341961E+02  0.00000000000E+00 0.  1.
          2   -1    0    0  501    0  0.00000000000E+00 -0.00000000000E+00 -0.15045075654E+03  0.15045075654E+03  0.00000000000E+00 0. -1.
         23    2    1    2    0    0 -0.51165220658E+02  0.26877458398E+02 -0.17583834328E+02  0.13891165248E+03  0.12508788266E+03 0.  0.
          5    1    3    3  502    0 -0.69444836459E+02  0.94038463471E+01 -0.57993459343E+02  0.91058944446E+02  0.41800000000E+01 0.  1.
         -5    1    3    3    0  502  0.18279615801E+02  0.17473612051E+02  0.40409625015E+02  0.47852708030E+02  0.41800000000E+01 0.  1.
        -11    1    1    2    0    0  0.99136148620E+01 -0.43493676267E+02 -0.46885010360E+02  0.64716179053E+02  0.00000000000E+00 0. -1.
         11    1    1    2    0    0  0.41251605796E+02  0.16616217868E+02  0.13742430111E+02  0.46547266970E+02  0.00000000000E+00 0.  1.
</event>
<event>
 7    1  0.1243146E-005  0.1418359E+03  0.7561462E-02  0.1210880E+00
          1   -1    0    0  501    0  0.00000000000E+00  0.00000000000E+00  0.42155874243E+03  0.42155874243E+03  0.00000000000E+00 0. -1.
         -1   -1    0    0    0  501 -0.00000000000E+00 -0.00000000000E+00 -0.67206707203E+02  0.67206707203E+02  0.00000000000E+00 0.  1.
         23    2    1    2    0    0  0.12534889580E+03  0.20694590502E+02  0.20626926573E+03  0.27264278255E+03  0.12508583108E+03 0.  0.
          5    1    3    3  502    0  0.58640696256E+02  0.53759278542E+02  0.37326789873E+02  0.87974728922E+02  0.41800000000E+01 0.  1.
         -5    1    3    3    0  502  0.66708199542E+02 -0.33064688041E+02  0.16894247586E+03  0.18466805363E+03  0.41800000000E+01 0.  1.
        -11    1    1    2    0    0 -0.67565791690E+02 -0.23634440767E+02  0.14061403286E+03  0.15778475603E+03  0.00000000000E+00 0.  1.
         11    1    1    2    0    0 -0.57783104107E+02  0.29398502650E+01  0.74687366385E+01  0.58337911060E+02  0.00000000000E+00 0. -1.
</event>
<event>
 7    1  0.1243146E-005  0.9469167E+02  0.7561462E-02  0.1291872E+00
         -2   -1    0    0    0  501 -0.00000000000E+00  0.00000000000E+00  0.10638901707E+03  0.10638901707E+03  0.00000000000E+00 0.  1.
          2   -1    0    0  501    0  0.00000000000E+00 -0.00000000000E+00 -0.14265148884E+03  0.14265148884E+03  0.00000000000E+00 0. -1.
         23    2    1    2    0    0 -0.16491945921E+02  0.39781152684E+02  0.19097732483E+02  0.13366168292E+03  0.12508476208E+03 0.  0.
          5    1    3    3  502    0 -0.41428785539E+02  0.50932558346E+02  0.56801011123E+02  0.86915459128E+02  0.41800000000E+01 0.  1.
         -5    1    3    3    0  502  0.24936839617E+02 -0.11151405662E+02 -0.37703278640E+02  0.46746223789E+02  0.41800000000E+01 0.  1.
        -11    1    1    2    0    0  0.46274910633E+02 -0.10014209768E-01 -0.84377789772E+01  0.47037895025E+02  0.00000000000E+00 0. -1.
         11    1    1    2    0    0 -0.29782964711E+02 -0.39771138475E+02 -0.46922425273E+02  0.68340927972E+02  0.00000000000E+00 0.  1.
</event>
<event>
 7    1  0.1243146E-005  0.8517501E+02  0.7561462E-02  0.1314975E+00
         -2   -1    0    0    0  501 -0.00000000000E+00  0.00000000000E+00  0.61116920146E+02  0.61116920146E+02  0.00000000000E+00 0.  1.
          2   -1    0    0  501    0  0.00000000000E+00 -0.00000000000E+00 -0.27387478800E+03  0.27387478800E+03  0.00000000000E+00 0. -1.
         23    2    1    2    0    0 -0.61407285858E+02 -0.34698171351E+02 -0.11885728573E+03  0.18638850456E+03  0.12505519746E+03 0.  0.
          5    1    3    3  502    0 -0.26887976437E+02  0.83415075304E+01 -0.12727764051E+03  0.13042091166E+03  0.41800000000E+01 0.  1.
         -5    1    3    3    0  502 -0.34519309420E+02 -0.43039678882E+02  0.84203547776E+01  0.55967592906E+02  0.41800000000E+01 0.  1.
        -11    1    1    2    0    0 -0.29311747993E+01  0.20453147500E+02 -0.78170594429E+02  0.80855209243E+02  0.00000000000E+00 0. -1.
         11    1    1    2    0    0  0.64338460657E+02  0.14245023851E+02 -0.15729987698E+02  0.67747994341E+02  0.00000000000E+00 0.  1.
</event>
<event>
 7    1  0.1243146E-005  0.1096284E+03  0.7561462E-02  0.1261260E+00
          4   -1    0    0  501    0  0.00000000000E+00  0.00000000000E+00  0.19192951465E+02  0.19192951465E+02  0.00000000000E+00 0. -1.
         -4   -1    0    0    0  501 -0.00000000000E+00 -0.00000000000E+00 -0.65291336454E+03  0.65291336454E+03  0.00000000000E+00 0.  1.
         23    2    1    2    0    0  0.56982357814E+01  0.16021882090E+02 -0.42547681220E+03  0.44380744888E+03  0.12508142693E+03 0.  0.
          5    1    3    3  502    0 -0.59540227658E+02  0.60343329684E+01 -0.19313901756E+03  0.20224145072E+03  0.41800000000E+01 0. -1.
         -5    1    3    3    0  502  0.65238463439E+02  0.99875491221E+01 -0.23233779463E+03  0.24156599816E+03  0.41800000000E+01 0. -1.
        -11    1    1    2    0    0 -0.38223786339E+02  0.21196140993E+02 -0.86837264430E+02  0.97216483833E+02  0.00000000000E+00 0.  1.
         11    1    1    2    0    0  0.32525550558E+02 -0.37218023083E+02 -0.12140633644E+03  0.13108238329E+03  0.00000000000E+00 0. -1.
</event>
<event>
 7    1  0.1243146E-005  0.1227774E+03  0.7561462E-02  0.1238584E+00
         -2   -1    0    0    0  501 -0.00000000000E+00  0.00000000000E+00  0.25022236749E+02  0.25022236749E+02  0.00000000000E+00 0.  1.
          2   -1    0    0  501    0  0.00000000000E+00 -0.00000000000E+00 -0.73446997947E+03  0.73446997947E+03  0.00000000000E+00 0. -1.
         23    2    1    2    0    0  0.72054877779E+02  0.46914323237E+02 -0.40048748847E+03  0.42828940246E+03  0.12509486282E+03 0.  0.
          5    1    3    3  502    0  0.46299707826E+02 -0.22816498271E+02 -0.29296144299E+03  0.29750316808E+03  0.41800000000E+01 0.  1.
         -5    1    3    3    0  502  0.25755169953E+02  0.69730821508E+02 -0.10752604548E+03  0.13078623438E+03  0.41800000000E+01 0.  1.
        -11    1    1    2    0    0 -0.57847726553E+02  0.11688150947E+02 -0.15496025029E+03  0.16581812781E+03  0.00000000000E+00 0.  1.
         11    1    1    2    0    0 -0.14207151227E+02 -0.58602474184E+02 -0.15400000397E+03  0.16538468596E+03  0.00000000000E+00 0. -1.
</event>
<event>
 7    1  0.1243146E-005  0.1060638E+03  0.7561462E-02  0.1268038E+00
          2   -1    0    0  501    0  0.00000000000E+00  0.00000000000E+00  0.86760621003E+03  0.86760621003E+03  0.00000000000E+00 0. -1.
         -2   -1    0    0    0  501 -0.00000000000E+00 -0.00000000000E+00 -0.16068287908E+02  0.16068287908E+02  0.00000000000E+00 0.  1.
         23    2    1    2    0    0  0.10118745405E+02  0.20156555072E+02  0.31034585711E+03  0.33070730608E+03  0.11200042654E+03 0.  0.
          5    1    3    3  502    0 -0.29113365067E+01  0.58250119690E+02  0.25796901197E+03  0.26451282740E+03  0.41800000000E+01 0. -1.
         -5    1    3    3    0  502  0.13030081912E+02 -0.38093564618E+02  0.52376845143E+02  0.66194478675E+02  0.41800000000E+01 0.  1.
        -11    1    1    2    0    0 -0.75343023010E+01 -0.66418419745E+02  0.29866962522E+03  0.30605835591E+03  0.00000000000E+00 0.  1.
         11    1    1    2    0    0 -0.25844431044E+01  0.46261864673E+02  0.24252243979E+03  0.24690883595E+03  0.00000000000E+00 0. -1.
</event>
<event>
 7    1  0.1243146E-005  0.1503276E+03  0.7561462E-02  0.1200071E+00
         -2   -1    0    0    0  501 -0.00000000000E+00  0.00000000000E+00  0.25934686674E+02  0.25934686674E+02  0.00000000000E+00 0.  1.
          2   -1    0    0  501    0  0.00000000000E+00 -0.00000000000E+00 -0.11596012280E+04  0.11596012280E+04  0.00000000000E+00 0. -1.
         23    2    1    2    0    0  0.13089723170E+03  0.42879728529E+01 -0.71116395868E+03  0.73386208281E+03  0.12508760326E+03 0.  0.
          5    1    3    3  502    0  0.57029581287E+02  0.29751088355E+02 -0.10897997353E+03  0.12661598411E+03  0.41800000000E+01 0. -1.
         -5    1    3    3    0  502  0.73867650416E+02 -0.25463115502E+02 -0.60218398515E+03  0.60724609871E+03  0.41800000000E+01 0. -1.
        -11    1    1    2    0    0 -0.57088504237E+02  0.41959890503E+02 -0.15692492326E+03  0.17217770259E+03  0.00000000000E+00 0.  1.
         11    1    1    2    0    0 -0.73808727467E+02 -0.46247863356E+02 -0.26557765943E+03  0.27949612932E+03  0.00000000000E+00 0. -1.
</event>
<event>
 7    1  0.1243146E-005  0.1551555E+03  0.7561462E-02  0.1194277E+00
          1   -1    0    0  501    0  0.00000000000E+00  0.00000000000E+00  0.53638905892E+03  0.53638905892E+03  0.00000000000E+00 0. -1.
         -1   -1    0    0    0  501 -0.00000000000E+00 -0.00000000000E+00 -0.11144068696E+03  0.11144068696E+03  0.00000000000E+00 0.  1.
         23    2    1    2    0    0  0.33062317447E+02  0.64240393214E+02 -0.40209106024E+02  0.14540089531E+03  0.11960227086E+03 0.  0.
          5    1    3    3  502    0  0.21995405630E+02 -0.30070050274E+02  0.87293763716E+01  0.38492599342E+02  0.41800000000E+01 0. -1.
         -5    1    3    3    0  502  0.11066911818E+02  0.94310443488E+02 -0.48938482396E+02  0.10690829597E+03  0.41800000000E+01 0.  1.
        -11    1    1    2    0    0 -0.93863491846E+02 -0.69427216397E+02  0.21200997988E+03  0.24203042174E+03  0.00000000000E+00 0.  1.
         11    1    1    2    0    0  0.60801174398E+02  0.51868231828E+01  0.25314749810E+03  0.26039842883E+03  0.00000000000E+00 0. -1.
</event>
<event>
 7    1  0.1243146E-005  0.1097645E+03  0.7561462E-02  0.1261007E+00
         -3   -1    0    0    0  501 -0.00000000000E+00  0.00000000000E+00  0.67074526654E+02  0.67074526654E+02  0.00000000000E+00 0.  1.
          3   -1    0    0  501    0  0.00000000000E+00 -0.00000000000E+00 -0.22124631122E+03  0.22124631122E+03  0.00000000000E+00 0. -1.
         23    2    1    2    0    0  0.29842656571E+02 -0.40639098563E+02 -0.55301778268E+02  0.14576554747E+03  0.12508871918E+03 0.  0.
          5    1    3    3  502    0 -0.47914502439E+02 -0.20639208759E+02 -0.93604002536E+01  0.53168279783E+02  0.41800000000E+01 0. -1.
         -5    1    3    3    0  502  0.77757159011E+02 -0.19999889804E+02 -0.45941378014E+02  0.92597267689E+02  0.41800000000E+01 0. -1.
        -11    1    1    2    0    0 -0.35935716286E+02 -0.87868072519E+01 -0.64224978674E+01  0.37547731829E+02  0.00000000000E+00 0.  1.
         11    1    1    2    0    0  0.60930597143E+01  0.49425905815E+02 -0.92447508436E+02  0.10500755858E+03  0.00000000000E+00 0. -1.
</event>
<event>
 7    1  0.1243146E-005  0.9944188E+02  0.7561462E-02  0.1281474E+00
         -2   -1    0    0    0  501 -0.00000000000E+00  0.00000000000E+00  0.44854626085E+02  0.44854626085E+02  0.00000000000E+00 0. -1.
          2   -1    0    0  501    0  0.00000000000E+00 -0.00000000000E+00 -0.40367687628E+03  0.40367687628E+03  0.00000000000E+00 0.  1.
         23    2    1    2    0    0  0.84610274078E+01 -0.13738189696E+02 -0.72438212053E+02  0.14545091399E+03  0.12509335304E+03 0.  0.
          5    1    3    3  502    0  0.45051883422E+02  0.22515292010E+02 -0.78559191832E+02  0.93411078548E+02  0.41800000000E+01 0.  1.
         -5    1    3    3    0  502 -0.36590856014E+02 -0.36253481706E+02  0.61209797795E+01  0.52039835445E+02  0.41800000000E+01 0.  1.
        -11    1    1    2    0    0  0.40795217771E+02 -0.99795822740E+01 -0.15916227463E+03  0.16461005899E+03  0.00000000000E+00 0.  1.
         11    1    1    2    0    0 -0.49256245179E+02  0.23717771970E+02 -0.12722176352E+03  0.13847052939E+03  0.00000000000E+00 0. -1.
</event>
<event>
 7    1  0.1243146E-005  0.9070297E+02  0.7561462E-02  0.1301158E+00
         -2   -1    0    0    0  501 -0.00000000000E+00  0.00000000000E+00  0.60891818943E+02  0.60891818943E+02  0.00000000000E+00 0.  1.
          2   -1    0    0  501    0  0.00000000000E+00 -0.00000000000E+00 -0.20631512494E+03  0.20631512494E+03  0.00000000000E+00 0. -1.
         23    2    1    2    0    0  0.56217345010E+01 -0.15217421023E+02 -0.53799663410E+02  0.13713225216E+03  0.12509067510E+03 0.  0.
          5    1    3    3  502    0 -0.30919547932E+02 -0.48396685840E+02 -0.64491737122E+02  0.86457586143E+02  0.41800000000E+01 0. -1.
         -5    1    3    3    0  502  0.36541282433E+02  0.33179264817E+02  0.10692073712E+02  0.50674666017E+02  0.41800000000E+01 0. -1.
        -11    1    1    2    0    0 -0.35213709133E+02 -0.86633358932E+01 -0.64971886067E+01  0.36841174785E+02  0.00000000000E+00 0.  1.
         11    1    1    2    0    0  0.29591974632E+02  0.23880756916E+02 -0.85126453984E+02  0.93233516942E+02  0.00000000000E+00 0. -1.
</event>
<event>
 7    1  0.1243146E-005  0.7651675E+02  0.7561462E-02  0.1339237E+00
         -1   -1    0    0    0  501 -0.00000000000E+00  0.00000000000E+00  0.14781219877E+02  0.14781219877E+02  0.00000000000E+00 0.  1.
          1   -1    0    0  501    0  0.00000000000E+00 -0.00000000000E+00 -0.92088570463E+03  0.92088570463E+03  0.00000000000E+00 0. -1.
         23    2    1    2    0    0 -0.25804079558E+02 -0.29332234661E+02 -0.59140009621E+03  0.60574568053E+03  0.12509006824E+03 0.  0.
          5    1    3    3  502    0 -0.10091488843E+02 -0.36301918188E+02 -0.58603524252E+03  0.58726011723E+03  0.41800000000E+01 0. -1.
         -5    1    3    3    0  502 -0.15712590716E+02  0.69696835269E+01 -0.53648536875E+01  0.18485563301E+02  0.41800000000E+01 0. -1.
        -11    1    1    2    0    0  0.40322802204E+02 -0.20708468250E+02 -0.17629278432E+03  0.18202723652E+03  0.00000000000E+00 0.  1.
         11    1    1    2    0    0 -0.14518722645E+02  0.50040702911E+02 -0.13841160423E+03  0.14789400745E+03  0.00000000000E+00 0. -1.
</event>
<event>
 7    1  0.1243146E-005  0.1191801E+03  0.7561462E-02  0.1244456E+00
         -2   -1    0    0    0  501 -0.00000000000E+00  0.00000000000E+00  0.18032898662E+03  0.18032898662E+03  0.00000000000E+00 0.  1.
          2   -1    0    0  501    0  0.00000000000E+00 -0.00000000000E+00 -0.19650163375E+03  0.19650163375E+03  0.00000000000E+00 0. -1.
         23    2    1    2    0    0 -0.12195242817E+02  0.72755919000E+02  0.12460469513E+03  0.19135334210E+03  0.12509046242E+03 0.  0.
          5    1    3    3  502    0 -0.53593098576E+02 -0.13071950559E+01  0.77170631096E+02  0.94056938487E+02  0.41800000000E+01 0.  1.
         -5    1    3    3    0  502  0.41397855758E+02  0.74063114056E+02  0.47434064031E+02  0.97296403611E+02  0.41800000000E+01 0.  1.
        -11    1    1    2    0    0  0.34760441722E+02 -0.15431064764E+02 -0.76598811665E+01  0.38795358587E+02  0.00000000000E+00 0.  1.
         11    1    1    2    0    0 -0.22565198904E+02 -0.57324854236E+02 -0.13311746109E+03  0.14668191969E+03  0.00000000000E+00 0. -1.
</event>
<event>
 7    1  0.1243146E-005  0.2145638E+03  0.7561462E-02  0.1138002E+00
         -4   -1    0    0    0  501 -0.00000000000E+00  0.00000000000E+00  0.93883448102E+03  0.93883448102E+03  0.00000000000E+00 0. -1.
          4   -1    0    0  501    0  0.00000000000E+00 -0.00000000000E+00 -0.57450337629E+02  0.57450337629E+02  0.00000000000E+00 0.  1.
         23    2    1    2    0    0 -0.18047868252E+03  0.85770610305E+02  0.58006561492E+03  0.62614227973E+03  0.12509550117E+03 0.  0.
          5    1    3    3  502    0 -0.17902244656E+03  0.10500219641E+03  0.56300558660E+03  0.60005604785E+03  0.41800000000E+01 0.  1.
         -5    1    3    3    0  502 -0.14562359555E+01 -0.19231586100E+02  0.17060028320E+02  0.26086231873E+02  0.41800000000E+01 0.  1.
        -11    1    1    2    0    0  0.84974900934E+02 -0.56011017316E+02  0.88038167724E+02  0.13456852093E+03  0.00000000000E+00 0.  1.
         11    1    1    2    0    0  0.95503781584E+02 -0.29759592989E+02  0.21328036075E+03  0.23557401799E+03  0.00000000000E+00 0. -1.
</event>
<event>
 7    1  0.1243146E-005  0.1128315E+03  0.7561462E-02  0.1255414E+00
         -2   -1    0    0    0  501 -0.00000000000E+00  0.00000000000E+00  0.21314214413E+03  0.21314214413E+03  0.00000000000E+00 0.  1.
          2   -1    0    0  501    0  0.00000000000E+00 -0.00000000000E+00 -0.93095067540E+02  0.93095067540E+02  0.00000000000E+00 0. -1.
         23    2    1    2    0    0 -0.40426491319E+02 -0.65640377118E+02  0.11074975248E+03  0.18399634661E+03  0.12508472162E+03 0.  0.
          5    1    3    3  502    0 -0.75029035907E+02 -0.32609068446E+01  0.51320273612E+02  0.91056205863E+02  0.41800000000E+01 0.  1.
         -5    1    3    3    0  502  0.34602544588E+02 -0.62379470273E+02  0.59429478870E+02  0.92940140748E+02  0.41800000000E+01 0.  1.
        -11    1    1    2    0    0  0.20196213755E+02  0.48274759540E+02 -0.40221498115E+02  0.66000820975E+02  0.00000000000E+00 0. -1.
         11    1    1    2    0    0  0.20230277564E+02  0.17365617577E+02  0.49518822228E+02  0.56240044088E+02  0.00000000000E+00 0.  1.
</event>
<event>
 7    1  0.1243146E-005  0.1748437E+03  0.7561462E-02  0.1172889E+00
          1   -1    0    0  501    0  0.00000000000E+00  0.00000000000E+00  0.29474862901E+03  0.29474862901E+03  0.00000000000E+00 0. -1.
         -1   -1    0    0    0  501 -0.00000000000E+00 -0.00000000000E+00 -0.11473983042E+03  0.11473983042E+03  0.00000000000E+00 0.  1.
         23    2    1    2    0    0 -0.13577174506E+03  0.48943480651E+02  0.75358413428E+02  0.20535260062E+03  0.12514539166E+03 0.  0.
          5    1    3    3  502    0 -0.88166512098E+02  0.80932944387E+02  0.12891219576E+02  0.12044555320E+03  0.41800000000E+01 0.  1.
         -5    1    3    3    0  502 -0.47605232958E+02 -0.31989463736E+02  0.62467193852E+02  0.84907047428E+02  0.41800000000E+01 0.  1.
        -11    1    1    2    0    0  0.34365112596E+02 -0.61294355456E+02  0.24954136020E+02  0.74569885872E+02  0.00000000000E+00 0.  1.
         11    1    1    2    0    0  0.10140663246E+03  0.12350874805E+02  0.79696249141E+02  0.12956597293E+03  0.00000000000E+00 0. -1.
</event>
<event>
 7    1  0.1243146E-005  0.1176944E+03  0.7561462E-02  0.1246950E+00
          2   -1    0    0  501    0  0.00000000000E+00  0.00000000000E+00  0.34360047322E+02  0.34360047322E+02  0.00000000000E+00 0.  1.
         -2   -1    0    0    0  501 -0.00000000000E+00 -0.00000000000E+00 -0.47780503702E+03  0.47780503702E+03  0.00000000000E+00 0. -1.
         23    2    1    2    0    0  0.61364454761E+01 -0.57392088865E+02 -0.32146947448E+03  0.34974599463E+03  0.12509248541E+03 0.  0.
          5    1    3    3  502    0  0.50533270377E+00  0.39710368208E+02 -0.10720546621E+03  0.11440128098E+03  0.41800000000E+01 0.  1.
         -5    1    3    3    0  502  0.56311127724E+01 -0.97102457073E+02 -0.21426400828E+03  0.23534471365E+03  0.41800000000E+01 0.  1.
        -11    1    1    2    0    0  0.29905837947E+00 -0.20219889062E+02 -0.33257539829E+01  0.20493754881E+02  0.00000000000E+00 0.  1.
         11    1    1    2    0    0 -0.64355038556E+01  0.77611977927E+02 -0.11864976123E+03  0.14192533484E+03  0.00000000000E+00 0. -1.
</event>
<event>
 7    1  0.1243146E-005  0.4979481E+03  0.7561462E-02  0.1014316E+00
         -1   -1    0    0    0  501 -0.00000000000E+00  0.00000000000E+00  0.22678493827E+03  0.22678493827E+03  0.00000000000E+00 0.  1.
          1   -1    0    0  501    0  0.00000000000E+00 -0.00000000000E+00 -0.11388228589E+04  0.11388228589E+04  0.00000000000E+00 0. -1.
         23    2    1    2    0    0  0.17184456888E+03  0.45988246096E+03 -0.36285708901E+03  0.62316836405E+03  0.12510439307E+03 0.  0.
          5    1    3    3  502    0 -0.59147312624E+01  0.12809771218E+03 -0.69396887321E+02  0.14586777671E+03  0.41800000000E+01 0. -1.
         -5    1    3    3    0  502  0.17775930014E+03  0.33178474878E+03 -0.29346020169E+03  0.47730058735E+03  0.41800000000E+01 0. -1.
        -11    1    1    2    0    0 -0.13461817599E+03 -0.34173644795E+03 -0.34674694242E+03  0.50511315093E+03  0.00000000000E+00 0.  1.
         11    1    1    2    0    0 -0.37226392890E+02 -0.11814601301E+03 -0.20243388916E+03  0.23732628215E+03  0.00000000000E+00 0. -1.
</event>
<event>
 7    1  0.1243146E-005  0.1463968E+03  0.7561462E-02  0.1204972E+00
         -2   -1    0    0    0  501 -0.00000000000E+00  0.00000000000E+00  0.38734592315E+02  0.38734592315E+02  0.00000000000E+00 0.  1.
          2   -1    0    0  501    0  0.00000000000E+00 -0.00000000000E+00 -0.84844636465E+03  0.84844636465E+03  0.00000000000E+00 0. -1.
         23    2    1    2    0    0  0.13896726457E+03  0.28521670534E+02 -0.35697962955E+03  0.40398979730E+03  0.12509162283E+03 0.  0.
          5    1    3    3  502    0  0.11963728195E+03  0.23956713554E+02 -0.36286922087E+03  0.38285577861E+03  0.41800000000E+01 0.  1.
         -5    1    3    3    0  502  0.19329982620E+02  0.45649569799E+01  0.58895913246E+01  0.21134018698E+02  0.41800000000E+01 0.  1.
        -11    1    1    2    0    0 -0.69326831907E+02 -0.39687495699E+02 -0.12795210260E+03  0.15084113330E+03  0.00000000000E+00 0. -1.
         11    1    1    2    0    0 -0.69640432664E+02  0.11165825165E+02 -0.32478004019E+03  0.33235002636E+03  0.00000000000E+00 0.  1.
</event>
<event>
 7    1  0.1243146E-005  0.7251494E+02  0.7561462E-02  0.1351744E+00
         -2   -1    0    0    0  501 -0.00000000000E+00  0.00000000000E+00  0.27750099872E+02  0.27750099872E+02  0.00000000000E+00 0.  1.
          2   -1    0    0  501    0  0.00000000000E+00 -0.00000000000E+00 -0.45256632474E+03  0.45256632474E+03  0.00000000000E+00 0. -1.
         23    2    1    2    0    0  0.15472272210E+02 -0.20672871348E+02 -0.26612286925E+03  0.29518911645E+03  0.12509386123E+03 0.  0.
          5    1    3    3  502    0 -0.19320592502E+02  0.11676457864E+02  0.18240892229E+01  0.23030950140E+02  0.41800000000E+01 0.  1.
         -5    1    3    3    0  502  0.34792864711E+02 -0.32349329212E+02 -0.26794695847E+03  0.27215816631E+03  0.41800000000E+01 0.  1.
        -11    1    1    2    0    0  0.29622589673E+00 -0.25544549448E+02 -0.12037207369E+03  0.12305302874E+03  0.00000000000E+00 0. -1.
         11    1    1    2    0    0 -0.15768498106E+02  0.46217420796E+02 -0.38321281928E+02  0.62074279425E+02  0.00000000000E+00 0.  1.
</event>
<event>
 7    1  0.1243146E-005  0.9877149E+02  0.7561462E-02  0.1282901E+00
          4   -1    0    0  501    0  0.00000000000E+00  0.00000000000E+00  0.34796834841E+02  0.34796834841E+02  0.00000000000E+00 0. -1.
         -4   -1    0    0    0  501 -0.00000000000E+00 -0.00000000000E+00 -0.41888711208E+03  0.41888711208E+03  0.00000000000E+00 0.  1.
         23    2    1    2    0    0 -0.41254708758E+02  0.83569539303E+01 -0.27331933828E+03  0.30353615196E+03  0.12513570712E+03 0.  0.
          5    1    3    3  502    0  0.26962343655E+02 -0.39912612289E+02 -0.98664051511E+02  0.10987289045E+03  0.41800000000E+01 0.  1.
         -5    1    3    3    0  502 -0.68217052413E+02  0.48269566220E+02 -0.17465528677E+03  0.19366326151E+03  0.41800000000E+01 0.  1.
        -11    1    1    2    0    0 -0.70577274879E+01  0.11334711892E+02  0.11238198120E+02  0.17452343910E+02  0.00000000000E+00 0. -1.
         11    1    1    2    0    0  0.48312436246E+02 -0.19691665823E+02 -0.12200913708E+03  0.13269545105E+03  0.00000000000E+00 0.  1.
</event>
<event>
 7    1  0.1243146E-005  0.1106271E+03  0.7561462E-02  0.1259413E+00
          1   -1    0    0  501    0  0.00000000000E+00  0.00000000000E+00  0.24503390400E+03  0.24503390400E+03  0.00000000000E+00 0. -1.
         -1   -1    0    0    0  501 -0.00000000000E+00 -0.00000000000E+00 -0.85053301214E+02  0.85053301214E+02  0.00000000000E+00 0.  1.
         23    2    1    2    0    0  0.75632785537E+02  0.14049792127E+02  0.23519470511E+02  0.14872148436E+03  0.12508876652E+03 0.  0.
          5    1    3    3  502    0  0.91709813110E+02  0.36877917540E+02  0.49256551346E+02  0.11051855443E+03  0.41800000000E+01 0.  1.
         -5    1    3    3    0  502 -0.16077027573E+02 -0.22828125413E+02 -0.25737080835E+02  0.38202929931E+02  0.41800000000E+01 0.  1.
        -11    1    1    2    0    0 -0.28082858672E+02  0.20956887264E+02  0.26911291618E+01  0.35143708557E+02  0.00000000000E+00 0. -1.
         11    1    1    2    0    0 -0.47549926864E+02 -0.35006679391E+02  0.13377000311E+03  0.14622201229E+03  0.00000000000E+00 0.  1.
</event>
<event>
 7    1  0.1243146E-005  0.1593729E+03  0.7561462E-02  0.1189407E+00
         -3   -1    0    0    0  501 -0.00000000000E+00  0.00000000000E+00  0.97232074150E+03  0.97232074150E+03  0.00000000000E+00 0.  1.
          3   -1    0    0  501    0  0.00000000000E+00 -0.00000000000E+00 -0.31077782119E+02  0.31077782119E+02  0.00000000000E+00 0. -1.
         23    2    1    2    0    0  0.52013669513E+02 -0.10650188875E+03  0.68554015714E+03  0.70686723055E+03  0.12509156825E+03 0.  0.
          5    1    3    3  502    0  0.48863596382E+02  0.12031834192E+02  0.14763900900E+03  0.15603578264E+03  0.41800000000E+01 0.  1.
         -5    1    3    3    0  502  0.31500731310E+01 -0.11853372294E+03  0.53790114814E+03  0.55083144791E+03  0.41800000000E+01 0.  1.
        -11    1    1    2    0    0 -0.26760418620E+02 -0.11353728127E+02  0.60374598838E+02  0.67008352703E+02  0.00000000000E+00 0.  1.
         11    1    1    2    0    0 -0.25253250893E+02  0.11785561688E+03  0.19532820340E+03  0.22952294037E+03  0.00000000000E+00 0. -1.
</event>
<event>
 7    1  0.1243146E-005  0.1250121E+03  0.7561462E-02  0.1235050E+00
          1   -1    0    0  501    0  0.00000000000E+00  0.00000000000E+00  0.55126047439E+03  0.55126047439E+03  0.00000000000E+00 0. -1.
         -1   -1    0    0    0  501 -0.00000000000E+00 -0.00000000000E+00 -0.42854645213E+02  0.42854645213E+02  0.00000000000E+00 0.  1.
         23    2    1    2    0    0 -0.67625753453E+02  0.85682953614E+02  0.28219059210E+03  0.32740142178E+03  0.12508137208E+03 0.  0.
          5    1    3    3  502    0 -0.82657390019E+02  0.46330210535E+02  0.90517494756E+02  0.13110919796E+03  0.41800000000E+01 0. -1.
         -5    1    3    3    0  502  0.15031636566E+02  0.39352743078E+02  0.19167309734E+03  0.19629222382E+03  0.41800000000E+01 0. -1.
        -11    1    1    2    0    0  0.49879641852E+02 -0.40337699706E+02  0.20275848089E+03  0.21266431356E+03  0.00000000000E+00 0. -1.
         11    1    1    2    0    0  0.17746111601E+02 -0.45345253908E+02  0.23456756190E+02  0.54049384270E+02  0.00000000000E+00 0.  1.
</event>
<event>
 7    1  0.1243146E-005  0.1183593E+03  0.7561462E-02  0.1245829E+00
         -3   -1    0    0    0  501 -0.00000000000E+00  0.00000000000E+00  0.12356018686E+03  0.12356018686E+03  0.00000000000E+00 0.  1.
          3   -1    0    0  501    0  0.00000000000E+00 -0.00000000000E+00 -0.17006504010E+03  0.17006504010E+03  0.00000000000E+00 0. -1.
         23    2    1    2    0    0 -0.79366461216E+02  0.29737808308E+02  0.27051435187E+02  0.15350090410E+03  0.12508946800E+03 0.  0.
          5    1    3    3  502    0 -0.10171670058E+03  0.89277512489E+01 -0.12940291652E+02  0.10300929797E+03  0.41800000000E+01 0. -1.
         -5    1    3    3    0  502  0.22350239364E+02  0.20810057059E+02  0.39991726838E+02  0.50491606133E+02  0.41800000000E+01 0. -1.
        -11    1    1    2    0    0 -0.33826144266E+01 -0.20112690799E+02 -0.49308843931E+02  0.53360327036E+02  0.00000000000E+00 0. -1.
         11    1    1    2    0    0  0.82749075643E+02 -0.96251175085E+01 -0.24247444496E+02  0.86763995824E+02  0.00000000000E+00 0.  1.
</event>
<event>
 7    1  0.1243146E-005  0.9061042E+02  0.7561462E-02  0.1301380E+00
          3   -1    0    0  501    0  0.00000000000E+00  0.00000000000E+00  0.12071867746E+03  0.12071867746E+03  0.00000000000E+00 0. -1.
         -3   -1    0    0    0  501 -0.00000000000E+00 -0.00000000000E+00 -0.12674784237E+03  0.12674784237E+03  0.00000000000E+00 0.  1.
         23    2    1    2    0    0  0.41552032694E+02 -0.38232889910E+01 -0.48560262510E+02  0.14051179458E+03  0.12507708168E+03 0.  0.
          5    1    3    3  502    0  0.47095593549E+02 -0.39667501238E+02 -0.73741136237E+02  0.96159935314E+02  0.41800000000E+01 0.  1.
         -5    1    3    3    0  502 -0.55435608548E+01  0.35844212247E+02  0.25180873726E+02  0.44351859264E+02  0.41800000000E+01 0.  1.
        -11    1    1    2    0    0 -0.21935108633E+02  0.37832880613E+02 -0.64234042963E+01  0.44201085608E+02  0.00000000000E+00 0.  1.
         11    1    1    2    0    0 -0.19616924061E+02 -0.34009591622E+02  0.48954501900E+02  0.62753639641E+02  0.00000000000E+00 0. -1.
</event>
<event>
 6    1  0.1243146E-005  0.1898093E+03  0.7561462E-02  0.1158633E+00
         -1   -1    0    0    0  501 -0.00000000000E+00  0.00000000000E+00  0.70731920787E+02  0.70731920787E+02  0.00000000000E+00 0.  1.
          1   -1    0    0  501    0  0.00000000000E+00 -0.00000000000E+00 -0.74058344733E+03  0.74058344733E+03  0.00000000000E+00 0. -1.
          5    1    1    2  502    0 -0.20880834326E+02 -0.12263295798E+03 -0.26277982978E+03  0.29076719719E+03  0.41800000000E+01 0. -1.
         -5    1    1    2    0  502  0.66215956221E+02 -0.45773263783E+02 -0.15363492307E+02  0.82056406402E+02  0.41800000000E+01 0.  1.
        -11    1    1    2    0    0 -0.33040088308E+02  0.13382417426E+03 -0.37224673763E+03  0.39694859960E+03  0.00000000000E+00 0.  1.
         11    1    1    2    0    0 -0.12295033588E+02  0.34582047504E+02 -0.19461466833E+02  0.41543164923E+02  0.00000000000E+00 0. -1.
</event>
<event>
 7    1  0.1243146E-005  0.7476433E+02  0.7561462E-02  0.1344602E+00
          2   -1    0    0  501    0  0.00000000000E+00  0.00000000000E+00  0.22721814240E+03  0.22721814240E+03  0.00000000000E+00 0. -1.
         -2   -1    0    0    0  501 -0.00000000000E+00 -0.00000000000E+00 -0.57852542676E+02  0.57852542676E+02  0.00000000000E+00 0.  1.
         23    2    1    2    0    0  0.11566317884E+02 -0.96630821698E+01  0.52268927245E+02  0.13640321821E+03  0.12508653931E+03 0.  0.
          5    1    3    3  502    0 -0.42729992195E+02 -0.37626700318E+01 -0.18509308804E+02  0.46904976613E+02  0.41800000000E+01 0.  1.
         -5    1    3    3    0  502  0.54296310079E+02 -0.59004121380E+01  0.70778236049E+02  0.89498241601E+02  0.41800000000E+01 0.  1.
        -11    1    1    2    0    0 -0.29153137342E+02  0.15635316046E+02  0.12438986191E+03  0.12871366000E+03  0.00000000000E+00 0. -1.
         11    1    1    2    0    0  0.17586819458E+02 -0.59722338758E+01 -0.72931894315E+01  0.19953806860E+02  0.00000000000E+00 0.  1.
</event>
<event>
 7    1  0.1243146E-005  0.2226292E+03  0.7561462E-02  0.1131938E+00
          4   -1    0    0  501    0  0.00000000000E+00  0.00000000000E+00  0.14903851774E+03  0.14903851774E+03  0.00000000000E+00 0. -1.
         -4   -1    0    0    0  501 -0.00000000000E+00 -0.00000000000E+00 -0.35020772801E+03  0.35020772801E+03  0.00000000000E+00 0.  1.
         23    2    1    2    0    0 -0.12805501423E+03  0.15117610377E+03 -0.13856941435E+03  0.27221456153E+03  0.12508790468E+03 0.  0.
          5    1    3    3  502    0  0.18869525599E+02  0.50316498757E+01  0.43557243612E+01  0.20440675907E+02  0.41800000000E+01 0. -1.
         -5    1    3    3    0  502 -0.14692453983E+03  0.14614445390E+03 -0.14292513871E+03  0.25177388563E+03  0.41800000000E+01 0. -1.
        -11    1    1    2    0    0  0.31172041062E+02  0.75335874081E+01 -0.56593559781E+01  0.32565002584E+02  0.00000000000E+00 0.  1.
         11    1    1    2    0    0  0.96882973169E+02 -0.15870969118E+03 -0.56940439943E+02  0.19446668164E+03  0.00000000000E+00 0. -1.
</event>
<event>
 7    1  0.1243146E-005  0.2245931E+03  0.7561462E-02  0.1130504E+00
         -1   -1    0    0    0  501 -0.00000000000E+00  0.00000000000E+00  0.69777807922E+03  0.69777807922E+03  0.00000000000E+00 0.  1.
          1   -1    0    0  501    0  0.00000000000E+00 -0.00000000000E+00 -0.86438109203E+02  0.86438109203E+02  0.00000000000E+00 0. -1.
         23    2    1    2    0    0 -0.33403965102E+02  0.21213329394E+03  0.39476135037E+03  0.46647645015E+03  0.12508954997E+03 0.  0.
          5    1    3    3  502    0 -0.43254145965E+02  0.10991779787E+03  0.10173566145E+03  0.15595018641E+03  0.41800000000E+01 0. -1.
         -5    1    3    3    0  502  0.98501808635E+01  0.10221549607E+03  0.29302568893E+03  0.31052626374E+03  0.41800000000E+01 0. -1.
        -11    1    1    2    0    0  0.13339092842E+02 -0.20710049531E+03  0.21176386046E+03  0.29650038643E+03  0.00000000000E+00 0. -1.
         11    1    1    2    0    0  0.20064872260E+02 -0.50327986298E+01  0.48147591812E+01  0.21239351845E+02  0.00000000000E+00 0.  1.
</event>
<event>
 7    1  0.1243146E-005  0.1440878E+03  0.7561462E-02  0.1207932E+00
          4   -1    0    0  501    0  0.00000000000E+00  0.00000000000E+00  0.15478242807E+03  0.15478242807E+03  0.00000000000E+00 0. -1.
         -4   -1    0    0    0  501 -0.00000000000E+00 -0.00000000000E+00 -0.18177799061E+03  0.18177799061E+03  0.00000000000E+00 0.  1.
         23    2    1    2    0    0  0.81839889352E+02  0.62506690882E+02 -0.90437342461E+02  0.18555654295E+03  0.12508982304E+03 0.  0.
          5    1    3    3  502    0 -0.17998145340E+00  0.78126527134E+02 -0.39250751888E+02  0.87532168710E+02  0.41800000000E+01 0.  1.
         -5    1    3    3    0  502  0.82019870805E+02 -0.15619836251E+02 -0.51186590572E+02  0.98024374244E+02  0.41800000000E+01 0.  1.
        -11    1    1    2    0    0 -0.80682949137E+02 -0.19095432092E+02  0.68146049715E+02  0.10732314708E+03  0.00000000000E+00 0.  1.
         11    1    1    2    0    0 -0.11569402153E+01 -0.43411258790E+02 -0.47042697972E+01  0.43680728642E+02  0.00000000000E+00 0. -1.
</event>
<event>
 7    1  0.1243146E-005  0.9426669E+02  0.7561462E-02  0.1292836E+00
          3   -1    0    0  501    0  0.00000000000E+00  0.00000000000E+00  0.10682731694E+03  0.10682731694E+03  0.00000000000E+00 0. -1.
         -3   -1    0    0    0  501 -0.00000000000E+00 -0.00000000000E+00 -0.48652836122E+03  0.48652836122E+03  0.00000000000E+00 0.  1.
         23    2    1    2    0    0  0.42816066545E+02  0.26099313604E+02 -0.44929796813E+03  0.46907198556E+03  0.12508186819E+03 0.  0.
          5    1    3    3  502    0  0.26247642679E+02  0.74447682982E+02 -0.21106329169E+03  0.22538097024E+03  0.41800000000E+01 0. -1.
         -5    1    3    3    0  502  0.16568423866E+02 -0.48348369377E+02 -0.23823467644E+03  0.24369101532E+03  0.41800000000E+01 0. -1.
        -11    1    1    2    0    0 -0.65288838295E+00 -0.14445684850E+02 -0.19940501487E+02  0.24631842676E+02  0.00000000000E+00 0.  1.
         11    1    1    2    0    0 -0.42163178162E+02 -0.11653628754E+02  0.89537425336E+02  0.99651849915E+02  0.00000000000E+00 0. -1.
</event>
<event>
 7    1  0.1243146E-005  0.1086232E+03  0.7561462E-02  0.1263141E+00
         -2   -1    0    0    0  501 -0.00000000000E+00  0.00000000000E+00  0.10980315537E+03  0.10980315537E+03  0.00000000000E+00 0.  1.
          2   -1    0    0  501    0  0.00000000000E+00 -0.00000000000E+00 -0.15494020869E+03  0.15494020869E+03  0.00000000000E+00 0. -1.
         23    2    1    2    0    0  0.45991729179E+02 -0.48222935503E+02  0.22563708431E+01  0.14174999498E+03  0.12508908508E+03 0.  0.
          5    1    3    3  502    0  0.16048009995E+02 -0.76157295147E+02 -0.35726557630E+02  0.85739906397E+02  0.41800000000E+01 0.  1.
         -5    1    3    3    0  502  0.29943719184E+02  0.27934359643E+02  0.37982928473E+02  0.56010088579E+02  0.41800000000E+01 0.  1.
        -11    1    1    2    0    0 -0.35538286519E+01  0.55043890939E+02 -0.56604434519E+02  0.79034939331E+02  0.00000000000E+00 0. -1.
         11    1    1    2    0    0 -0.42437900527E+02 -0.68209554363E+01  0.92110103573E+01  0.43958429749E+02  0.00000000000E+00 0.  1.
</event>
<event>
 7    1  0.1243146E-005  0.1155594E+03  0.7561462E-02  0.1250608E+00
         -2   -1    0    0    0  501 -0.00000000000E+00  0.00000000000E+00  0.23363859681E+02  0.23363859681E+02  0.00000000000E+00 0.  1.
          2   -1    0    0  501    0  0.00000000000E+00 -0.00000000000E+00 -0.66425915830E+03  0.66425915830E+03  0.00000000000E+00 0. -1.
         23    2    1    2    0    0  0.90834344108E+01  0.43147702169E+02 -0.48642943956E+03  0.50418720754E+03  0.12508759967E+03 0.  0.
          5    1    3    3  502    0 -0.10940550528E+02 -0.42680528988E+02 -0.17363188557E+03  0.17918378076E+03  0.41800000000E+01 0. -1.
         -5    1    3    3    0  502  0.20023984939E+02  0.85828231157E+02 -0.31279755399E+03  0.32500342678E+03  0.41800000000E+01 0. -1.
        -11    1    1    2    0    0  0.39270674563E+02 -0.11812651233E+02 -0.57143630905E+02  0.70335760199E+02  0.00000000000E+00 0. -1.
         11    1    1    2    0    0 -0.48354108974E+02 -0.31335050936E+02 -0.97322228149E+02  0.11310005024E+03  0.00000000000E+00 0.  1.
</event>
<event>
 7    1  0.1243146E-005  0.1315052E+03  0.7561462E-02  0.1225239E+00
         -3   -1    0    0    0  501 -0.00000000000E+00  0.00000000000E+00  0.41656462628E+03  0.41656462628E+03  0.00000000000E+00 0.  1.
          3   -1    0    0  501    0  0.00000000000E+00 -0.00000000000E+00 -0.50363325390E+02  0.50363325390E+02  0.00000000000E+00 0. -1.
         23    2    1    2    0    0 -0.65669648920E+02  0.55390314118E+02  0.26170338382E+03  0.30252592207E+03  0.12511068193E+03 0.  0.
          5    1    3    3  502    0  0.34941524566E+01 -0.33964942441E+02  0.95496042948E+02  0.10150267501E+03  0.41800000000E+01 0. -1.
         -5    1    3    3    0  502 -0.69163801376E+02  0.89355256560E+02  0.16620734088E+03  0.20102324706E+03  0.41800000000E+01 0. -1.
        -11    1    1    2    0    0  0.25707227706E+02 -0.68752444992E+02  0.96937281403E+02  0.12159192726E+03  0.00000000000E+00 0.  1.
         11    1    1    2    0    0  0.39962421214E+02  0.13362130873E+02  0.75606356634E+01  0.42810102340E+02  0.00000000000E+00 0. -1.
</event>
<event>
 7    1  0.1243146E-005  0.1101807E+03  0.7561462E-02  0.1260236E+00
          1   -1    0    0  501    0  0.00000000000E+00  0.00000000000E+00  0.34148192305E+03  0.34148192305E+03  0.00000000000E+00 0. -1.
         -1   -1    0    0    0  501 -0.00000000000E+00 -0.00000000000E+00 -0.69847658916E+02  0.69847658916E+02  0.00000000000E+00 0.  1.
         23    2    1    2    0    0  0.20796472452E+02 -0.75447246362E+02  0.43887001613E+02  0.15394439726E+03  0.12509207923E+03 0.  0.
          5    1    3    3  502    0  0.51012707136E+02 -0.20283102430E+02  0.67076430036E+02  0.86777994906E+02  0.41800000000E+01 0.  1.
         -5    1    3    3    0  502 -0.30216234684E+02 -0.55164143931E+02 -0.23189428423E+02  0.67166402351E+02  0.41800000000E+01 0.  1.
        -11    1    1    2    0    0  0.23945165662E+02  0.31352246146E+02  0.29044371267E+02  0.48988874240E+02  0.00000000000E+00 0.  1.
         11    1    1    2    0    0 -0.44741638114E+02  0.44095000215E+02  0.19870289126E+03  0.20839631047E+03  0.00000000000E+00 0. -1.
</event>
<event>
 7    1  0.1243146E-005  0.1286283E+03  0.7561462E-02  0.1229505E+00
          2   -1    0    0  501    0  0.00000000000E+00  0.00000000000E+00  0.73200973136E+02  0.73200973136E+02  0.00000000000E+00 0.  1.
         -2   -1    0    0    0  501 -0.00000000000E+00 -0.00000000000E+00 -0.31792359038E+03  0.31792359038E+03  0.00000000000E+00 0. -1.
         23    2    1    2    0    0 -0.40116211917E+02 -0.63603950142E+02 -0.22699195376E+03  0.26986547922E+03  0.12508899580E+03 0.  0.
          5    1    3    3  502    0 -0.79637865721E+02 -0.12540049886E+02 -0.13719989445E+03  0.15918770664E+03  0.41800000000E+01 0. -1.
         -5    1    3    3    0  502  0.39521653804E+02 -0.51063900256E+02 -0.89792059308E+02  0.11067777258E+03  0.41800000000E+01 0. -1.
        -11    1    1    2    0    0 -0.18206490516E+01 -0.19050746266E+02 -0.21134540692E+02  0.28511655626E+02  0.00000000000E+00 0. -1.
         11    1    1    2    0    0  0.41936860969E+02  0.82654696408E+02  0.34038771987E+01  0.92747428677E+02  0.00000000000E+00 0.  1.
</event>
<event>
 7    1  0.1243146E-005  0.1185814E+03  0.7561462E-02  0.1245456E+00
         -2   -1    0    0    0  501 -0.00000000000E+00  0.00000000000E+00  0.89863869746E+02  0.89863869746E+02  0.00000000000E+00 0.  1.
          2   -1    0    0  501    0  0.00000000000E+00 -0.00000000000E+00 -0.17403827851E+03  0.17403827851E+03  0.00000000000E+00 0. -1.
         23    2    1    2    0    0 -0.91766336230E+01 -0.50021506217E+02 -0.79360983599E+01  0.13525881462E+03  0.12508238720E+03 0.  0.
          5    1    3    3  502    0 -0.91910179221E+01  0.41116751628E+02 -0.11771025785E+02  0.43944186452E+02  0.41800000000E+01 0. -1.
         -5    1    3    3    0  502  0.14384299107E-01 -0.91138257845E+02  0.38349274246E+01  0.91314628172E+02  0.41800000000E+01 0. -1.
        -11    1    1    2    0    0 -0.37450349932E+02  0.33200165741E+01 -0.26232040850E+02  0.45843987471E+02  0.00000000000E+00 0. -1.
         11    1    1    2    0    0  0.46626983555E+02  0.46701489643E+02 -0.50006269560E+02  0.82799346166E+02  0.00000000000E+00 0.  1.
</event>
<event>
 7    1  0.1243146E-005  0.1144816E+03  0.7561462E-02  0.1252489E+00
         -1   -1    0    0    0  501 -0.00000000000E+00  0.00000000000E+00  0.18957716480E+03  0.18957716480E+03  0.00000000000E+00 0.  1.
          1   -1    0    0  501    0  0.00000000000E+00 -0.00000000000E+00 -0.74852067099E+02  0.74852067099E+02  0.00000000000E+00 0. -1.
         23    2    1    2    0    0  0.38349595708E+02 -0.23417083022E+02  0.90774527299E+02  0.16095652439E+03  0.12509171303E+03 0.  0.
          5    1    3    3  502    0  0.44013224719E+02  0.45168969276E+02  0.52057052557E+02  0.81882897217E+02  0.41800000000E+01 0. -1.
         -5    1    3    3    0  502 -0.56636290118E+01 -0.68586052299E+02  0.38717474742E+02  0.79073627170E+02  0.41800000000E+01 0. -1.
        -11    1    1    2    0    0 -0.34131969339E+02 -0.28657188657E+02  0.25228417550E+02  0.51212291930E+02  0.00000000000E+00 0.  1.
         11    1    1    2    0    0 -0.42176263689E+01  0.52074271679E+02 -0.12778471508E+01  0.52260415579E+02  0.00000000000E+00 0. -1.
</event>
<event>
 7    1  0.1243146E-005  0.2036616E+03  0.7561462E-02  0.1146686E+00
         -1   -1    0    0    0  501 -0.00000000000E+00  0.00000000000E+00  0.34169617513E+03  0.34169617513E+03  0.00000000000E+00 0.  1.
          1   -1    0    0  501    0  0.00000000000E+00 -0.00000000000E+00 -0.14412064687E+03  0.14412064687E+03  0.00000000000E+00 0. -1.
         23    2    1    2    0    0 -0.17668082651E+03  0.26201673000E+02  0.18628964133E+03  0.28680085985E+03  0.12509300790E+03 0.  0.
          5    1    3    3  502    0 -0.13099301302E+03  0.67215525539E+02  0.16618139044E+03  0.22206040454E+03  0.41800000000E+01 0. -1.
         -5    1    3    3    0  502 -0.45687813482E+02 -0.41013852539E+02  0.20108250886E+02  0.64740455317E+02  0.41800000000E+01 0. -1.
        -11    1    1    2    0    0 -0.80147808891E+00 -0.20917668833E+02 -0.15591911312E+01  0.20991005539E+02  0.00000000000E+00 0.  1.
         11    1    1    2    0    0  0.17748230460E+03 -0.52840041665E+01  0.12845078065E+02  0.17802495661E+03  0.00000000000E+00 0. -1.
</event>
<event>
 7    1  0.1243146E-005  0.2050563E+03  0.7561462E-02  0.1145542E+00
          1   -1    0    0  501    0  0.00000000000E+00  0.00000000000E+00  0.65433593233E+03  0.65433593233E+03  0.00000000000E+00 0. -1.
         -1   -1    0    0    0  501 -0.00000000000E+00 -0.00000000000E+00 -0.68223462820E+02  0.68223462820E+02  0.00000000000E+00 0.  1.
         23    2    1    2    0    0 -0.16218302888E+03  0.74707375915E+02  0.25093585427E+03  0.33241365983E+03  0.12508201874E+03 0.  0.
          5    1    3    3  502    0 -0.17918666806E+03  0.66956957829E+02  0.19457274024E+03  0.27288664287E+03  0.41800000000E+01 0.  1.
         -5    1    3    3    0  502  0.17003639173E+02  0.77504180859E+01  0.56363114032E+02  0.59527016968E+02  0.41800000000E+01 0.  1.
        -11    1    1    2    0    0  0.10419461783E+03 -0.92126841994E+02  0.22967822778E+03  0.26850691186E+03  0.00000000000E+00 0. -1.
         11    1    1    2    0    0  0.57988411057E+02  0.17419466079E+02  0.10549838746E+03  0.12163882346E+03  0.00000000000E+00 0.  1.
</event>
<event>
 7    1  0.1243146E-005  0.1017122E+03  0.7561462E-02  0.1276736E+00
          2   -1    0    0  501    0  0.00000000000E+00  0.00000000000E+00  0.46990457005E+02  0.46990457005E+02  0.00000000000E+00 0. -1.
         -2   -1    0    0    0  501 -0.00000000000E+00 -0.00000000000E+00 -0.28619142659E+03  0.28619142659E+03  0.00000000000E+00 0.  1.
         23    2    1    2    0    0  0.24078437727E+02  0.31098856287E+02 -0.14034353763E+03  0.19206853033E+03  0.12508837582E+03 0.  0.
          5    1    3    3  502    0 -0.24493986888E+00 -0.37274181980E+02 -0.10448624600E+03  0.11101474065E+03  0.41800000000E+01 0. -1.
         -5    1    3    3    0  502  0.24323377596E+02  0.68373038267E+02 -0.35857291624E+02  0.81053789684E+02  0.41800000000E+01 0. -1.
        -11    1    1    2    0    0 -0.55036466309E+02 -0.28965614719E+02 -0.88954730750E+02  0.10854014733E+03  0.00000000000E+00 0. -1.
         11    1    1    2    0    0  0.30958028582E+02 -0.21332415681E+01 -0.99027012075E+01  0.32573205929E+02  0.00000000000E+00 0.  1.
</event>
<event>
 7    1  0.1243146E-005  0.1115528E+03  0.7561462E-02  0.1257721E+00
          2   -1    0    0  501    0  0.00000000000E+00  0.00000000000E+00  0.48425225878E+03  0.48425225878E+03  0.00000000000E+00 0. -1.
         -2   -1    0    0    0  501 -0.00000000000E+00 -0.00000000000E+00 -0.52655027928E+02  0.52655027928E+02  0.00000000000E+00 0.  1.
         23    2    1    2    0    0 -0.10140879473E+03 -0.36825095930E+02  0.15637275923E+03  0.22746416544E+03  0.12509066867E+03 0.  0.
          5    1    3    3  502    0 -0.65024688084E+02 -0.32089267627E+02  0.62886814532E+01  0.72903710960E+02  0.41800000000E+01 0.  1.
         -5    1    3    3    0  502 -0.36384106648E+02 -0.47358283030E+01  0.15008407777E+03  0.15456045448E+03  0.41800000000E+01 0.  1.
        -11    1    1    2    0    0  0.51296280741E+02  0.37311016958E+02  0.56159739898E+02  0.84719164241E+02  0.00000000000E+00 0.  1.
         11    1    1    2    0    0  0.50112513992E+02 -0.48592102741E+00  0.21906473173E+03  0.22472395703E+03  0.00000000000E+00 0. -1.
</event>
<event>
 7    1  0.1243146E-005  0.1217845E+03  0.7561462E-02  0.1240182E+00
         -1   -1    0    0    0  501 -0.00000000000E+00  0.00000000000E+00  0.20288061859E+03  0.20288061859E+03  0.00000000000E+00 0.  1.
          1   -1    0    0  501    0  0.00000000000E+00 -0.00000000000E+00 -0.25053975325E+03  0.25053975325E+03  0.00000000000E+00 0. -1.
         23    2    1    2    0    0 -0.34182327333E+02 -0.69056163912E+02  0.15750706590E+03  0.21539342441E+03  0.12509462896E+03 0.  0.
          5    1    3    3  502    0  0.30843277397E+02 -0.55404810462E+02  0.27322198830E+02  0.69173519007E+02  0.41800000000E+01 0.  1.
         -5    1    3    3    0  502 -0.65025604729E+02 -0.13651353450E+02  0.13018486707E+03  0.14621990540E+03  0.41800000000E+01 0.  1.
        -11    1    1    2    0    0 -0.24443857998E+02  0.22260827986E+01 -0.16823162756E+02  0.29756956221E+02  0.00000000000E+00 0.  1.
         11    1    1    2    0    0  0.58626185330E+02  0.66830081114E+02 -0.18834303781E+03  0.20826999121E+03  0.00000000000E+00 0. -1.
</event>
<event>
 7    1  0.1243146E-005  0.6897577E+02  0.7561462E-02  0.1363611E+00
         -1   -1    0    0    0  501 -0.00000000000E+00  0.00000000000E+00  0.34554177040E+02  0.34554177040E+02  0.00000000000E+00 0.  1.
          1   -1    0    0  501    0  0.00000000000E+00 -0.00000000000E+00 -0.37755750749E+03  0.37755750749E+03  0.00000000000E+00 0. -1.
         23    2    1    2    0    0  0.33523830189E+02  0.15085351537E+02 -0.18874999072E+03  0.22940519269E+03  0.12509503752E+03 0.  0.
          5    1    3    3  502    0  0.21579581033E+02  0.17244318603E+02 -0.20600935384E+03  0.20789509641E+03  0.41800000000E+01 0. -1.
         -5    1    3    3    0  502  0.11944249155E+02 -0.21589670664E+01  0.17259363117E+02  0.21510096278E+02  0.41800000000E+01 0. -1.
        -11    1    1    2    0    0  0.30137365963E+02 -0.14659911649E+02 -0.42894963809E+02  0.54434839551E+02  0.00000000000E+00 0.  1.
         11    1    1    2    0    0 -0.63661196152E+02 -0.42543988786E+00 -0.11135837592E+03  0.12827165229E+03  0.00000000000E+00 0. -1.
</event>
<event>
 7    1  0.1243146E-005  0.9567085E+02  0.7561462E-02  0.1289672E+00
          1   -1    0    0  501    0  0.00000000000E+00  0.00000000000E+00  0.21582753583E+03  0.21582753583E+03  0.00000000000E+00 0. -1.
         -1   -1    0    0    0  501 -0.00000000000E+00 -0.00000000000E+00 -0.96546302793E+02  0.96546302793E+02  0.00000000000E+00 0.  1.
         23    2    1    2    0    0  0.17595567918E+02 -0.67062941205E+02 -0.58542154877E+01  0.14313893443E+03  0.12508973026E+03 0.  0.
          5    1    3    3  502    0 -0.37295142172E+02 -0.12515222716E+02  0.37354549113E+02  0.54409495207E+02  0.41800000000E+01 0.  1.
         -5    1    3    3    0  502  0.54890710090E+02 -0.54547718489E+02 -0.43208764600E+02  0.88729439223E+02  0.41800000000E+01 0.  1.
        -11    1    1    2    0    0  0.67812443391E+01  0.86737846194E+01 -0.13156383730E+02  0.17155472808E+02  0.00000000000E+00 0.  1.
         11    1    1    2    0    0 -0.24376812257E+02  0.58389156585E+02  0.13829183225E+03  0.15207943138E+03  0.00000000000E+00 0. -1.
</event>
<event>
 7    1  0.1243146E-005  0.3423341E+02  0.7561462E-02  0.1555515E+00
         -1   -1    0    0    0  501 -0.00000000000E+00  0.00000000000E+00  0.61457372067E+02  0.61457372067E+02  0.00000000000E+00 0.  1.
          1   -1    0    0  501    0  0.00000000000E+00 -0.00000000000E+00 -0.19563491289E+03  0.19563491289E+03  0.00000000000E+00 0. -1.
         23    2    1    2    0    0  0.62537063995E-01 -0.13373066094E+02 -0.63558096615E+02  0.14094704965E+03  0.12509035275E+03 0.  0.
          5    1    3    3  502    0  0.12022939519E+02 -0.17491650231E+02 -0.99912932728E+02  0.10222805598E+03  0.41800000000E+01 0. -1.
         -5    1    3    3    0  502 -0.11960402455E+02  0.41185841362E+01  0.36354836113E+02  0.38718993672E+02  0.41800000000E+01 0. -1.
        -11    1    1    2    0    0 -0.75314237105E+01 -0.79303674583E+01  0.19979009852E+02  0.22776608742E+02  0.00000000000E+00 0.  1.
         11    1    1    2    0    0  0.74688866465E+01  0.21303433553E+02 -0.90598454061E+02  0.93368626567E+02  0.00000000000E+00 0. -1.
</event>
<event>
 7    1  0.1243146E-005  0.1039445E+03  0.7561462E-02  0.1272213E+00
         -1   -1    0    0    0  501 -0.00000000000E+00  0.00000000000E+00  0.77865921561E+02  0.77865921561E+02  0.00000000000E+00 0.  1.
          1   -1    0    0  501    0  0.00000000000E+00 -0.00000000000E+00 -0.17829920283E+03  0.17829920283E+03  0.00000000000E+00 0. -1.
         23    2    1    2    0    0  0.36318884140E+02 -0.31832036108E+02 -0.40259952619E+02  0.14000240178E+03  0.12508984312E+03 0.  0.
          5    1    3    3  502    0  0.14088087016E+02 -0.75718455246E+02 -0.46767765026E+02  0.90202299894E+02  0.41800000000E+01 0. -1.
         -5    1    3    3    0  502  0.22230797123E+02  0.43886419138E+02  0.65078124073E+01  0.49800101886E+02  0.41800000000E+01 0. -1.
        -11    1    1    2    0    0 -0.55302816209E+02  0.19020837226E+02 -0.70022501927E+02  0.91232365449E+02  0.00000000000E+00 0. -1.
         11    1    1    2    0    0  0.18983932069E+02  0.12811198882E+02  0.98491732811E+01  0.24930357156E+02  0.00000000000E+00 0.  1.
</event>
<event>
 7    1  0.1243146E-005  0.9294296E+02  0.7561462E-02  0.1295877E+00
         -2   -1    0    0    0  501 -0.00000000000E+00  0.00000000000E+00  0.10423752883E+03  0.10423752883E+03  0.00000000000E+00 0.  1.
          2   -1    0    0  501    0  0.00000000000E+00 -0.00000000000E+00 -0.16441491035E+03  0.16441491035E+03  0.00000000000E+00 0. -1.
         23    2    1    2    0    0  0.44193029758E+02 -0.36989147298E+02  0.12200621958E+02  0.13825992846E+03  0.12508289949E+03 0.  0.
          5    1    3    3  502    0  0.16158944823E+02 -0.45103431370E+02  0.63160474938E+02  0.79386075690E+02  0.41800000000E+01 0. -1.
         -5    1    3    3    0  502  0.28034084934E+02  0.81142840716E+01 -0.50959852980E+02  0.58873852768E+02  0.41800000000E+01 0. -1.
        -11    1    1    2    0    0  0.23971506798E+02 -0.95181162331E+01 -0.14369986934E+02  0.29524975856E+02  0.00000000000E+00 0.  1.
         11    1    1    2    0    0 -0.68164536556E+02  0.46507263531E+02 -0.58008016550E+02  0.10086753486E+03  0.00000000000E+00 0. -1.
</event>
<event>
 7    1  0.1243146E-005  0.1192704E+03  0.7561462E-02  0.1244306E+00
          1   -1    0    0  501    0  0.00000000000E+00  0.00000000000E+00  0.31727445736E+02  0.31727445736E+02  0.00000000000E+00 0. -1.
         -1   -1    0    0    0  501 -0.00000000000E+00 -0.00000000000E+00 -0.70887562839E+03  0.70887562839E+03  0.00000000000E+00 0.  1.
         23    2    1    2    0    0  0.62831108051E+02 -0.56160332554E+02 -0.51300601522E+03  0.53471551844E+03  0.12507510913E+03 0.  0.
          5    1    3    3  502    0  0.49761524908E+02 -0.79397119477E+02 -0.49104559182E+03  0.49992335171E+03  0.41800000000E+01 0.  1.
         -5    1    3    3    0  502  0.13069583143E+02  0.23236786922E+02 -0.21960423396E+02  0.34792166730E+02  0.41800000000E+01 0.  1.
        -11    1    1    2    0    0 -0.76631364636E+02  0.20210175248E+02 -0.13866436978E+03  0.15971419685E+03  0.00000000000E+00 0. -1.
         11    1    1    2    0    0  0.13800256585E+02  0.35950157307E+02 -0.25477797657E+02  0.46173358830E+02  0.00000000000E+00 0.  1.
</event>
<event>
 7    1  0.1243146E-005  0.8447412E+02  0.7561462E-02  0.1316814E+00
         -2   -1    0    0    0  501 -0.00000000000E+00  0.00000000000E+00  0.66011379271E+02  0.66011379271E+02  0.00000000000E+00 0.  1.
          2   -1    0    0  501    0  0.00000000000E+00 -0.00000000000E+00 -0.18976070849E+03  0.18976070849E+03  0.00000000000E+00 0. -1.
         23    2    1    2    0    0 -0.17116936265E+02 -0.59372611188E+01 -0.96667951206E+02  0.15912759369E+03  0.12509459504E+03 0.  0.
          5    1    3    3  502    0  0.42184173037E+02 -0.19718630114E+02 -0.84982730225E+02  0.96994152736E+02  0.41800000000E+01 0.  1.
         -5    1    3    3    0  502 -0.59301109302E+02  0.13781368995E+02 -0.11685220981E+02  0.62133440958E+02  0.41800000000E+01 0.  1.
        -11    1    1    2    0    0  0.36004179033E+02  0.16417744773E+02  0.20371580023E+02  0.44506679542E+02  0.00000000000E+00 0.  1.
         11    1    1    2    0    0 -0.18887242767E+02 -0.10480483654E+02 -0.47452958033E+02  0.52137814521E+02  0.00000000000E+00 0. -1.
</event>
<event>
 7    1  0.1243146E-005  0.1343108E+03  0.7561462E-02  0.1221196E+00
          1   -1    0    0  501    0  0.00000000000E+00  0.00000000000E+00  0.56852440516E+03  0.56852440516E+03  0.00000000000E+00 0. -1.
         -1   -1    0    0    0  501 -0.00000000000E+00 -0.00000000000E+00 -0.41246753246E+02  0.41246753246E+02  0.00000000000E+00 0.  1.
         23    2    1    2    0    0 -0.91465609828E+02  0.56141016415E+02  0.30326682645E+03  0.34524758490E+03  0.12532898847E+03 0.  0.
          5    1    3    3  502    0 -0.46582418773E+02  0.90328491098E+02  0.14457596745E+03  0.17677341657E+03  0.41800000000E+01 0. -1.
         -5    1    3    3    0  502 -0.44883191054E+02 -0.34187474683E+02  0.15869085900E+03  0.16847416833E+03  0.41800000000E+01 0. -1.
        -11    1    1    2    0    0  0.59332938313E+02 -0.21575683464E+02  0.40421471203E+02  0.74965345461E+02  0.00000000000E+00 0.  1.
         11    1    1    2    0    0  0.32132671515E+02 -0.34565332950E+02  0.18358935426E+03  0.18955822804E+03  0.00000000000E+00 0. -1.
</event>
<event>
 7    1  0.1243146E-005  0.1575691E+03  0.7561462E-02  0.1191469E+00
          2   -1    0    0  501    0  0.00000000000E+00  0.00000000000E+00  0.16674815108E+03  0.16674815108E+03  0.00000000000E+00 0. -1.
         -2   -1    0    0    0  501 -0.00000000000E+00 -0.00000000000E+00 -0.21415503945E+03  0.21415503945E+03  0.00000000000E+00 0.  1.
         23    2    1    2    0    0  0.11928083826E+03 -0.60887142757E+02 -0.10191200613E+03  0.20968857886E+03  0.12509228825E+03 0.  0.
          5    1    3    3  502    0  0.40667728247E+02 -0.86414706188E+02 -0.78454750328E+02  0.12366885548E+03  0.41800000000E+01 0.  1.
         -5    1    3    3    0  502  0.78613110010E+02  0.25527563431E+02 -0.23457255805E+02  0.86019723378E+02  0.41800000000E+01 0.  1.
        -11    1    1    2    0    0 -0.58741221332E+02  0.45540964633E+02 -0.17029299026E+02  0.76252918427E+02  0.00000000000E+00 0. -1.
         11    1    1    2    0    0 -0.60539616924E+02  0.15346178124E+02  0.71534416785E+02  0.94961693251E+02  0.00000000000E+00 0.  1.
</event>
<event>
 6    1  0.1243146E-005  0.7363538E+02  0.7561462E-02  0.1348150E+00
          2   -1    0    0  501    0  0.00000000000E+00  0.00000000000E+00  0.58674714539E+03  0.58674714539E+03  0.00000000000E+00 0. -1.
         -2   -1    0    0    0  501 -0.00000000000E+00 -0.00000000000E+00 -0.30204160327E+02  0.30204160327E+02  0.00000000000E+00 0.  1.
          5    1    1    2  502    0  0.70465648143E+01  0.12646097305E+02  0.26844435839E+03  0.26886692583E+03  0.41800000000E+01 0. -1.
         -5    1    1    2    0  502  0.30969181344E+02  0.12196598166E+02 -0.91509966339E+01  0.34771544966E+02  0.41800000000E+01 0.  1.
        -11    1    1    2    0    0 -0.11826799198E+02  0.33057395162E+02  0.93035956145E+02  0.99440201578E+02  0.00000000000E+00 0. -1.
         11    1    1    2    0    0 -0.26188946959E+02 -0.57900090633E+02  0.20421366717E+03  0.21387263335E+03  0.00000000000E+00 0.  1.
</event>
<event>
 7    1  0.1243146E-005  0.1277616E+03  0.7561462E-02  0.1230815E+00
          1   -1    0    0  501    0  0.00000000000E+00  0.00000000000E+00  0.20125190864E+03  0.20125190864E+03  0.00000000000E+00 0. -1.
         -1   -1    0    0    0  501 -0.00000000000E+00 -0.00000000000E+00 -0.87319322216E+02  0.87319322216E+02  0.00000000000E+00 0.  1.
         23    2    1    2    0    0  0.39983075447E+02 -0.61888479320E+02  0.42874768067E+02  0.15136965042E+03  0.12508275316E+03 0.  0.
          5    1    3    3  502    0 -0.39924954346E+02 -0.13959803653E+01  0.30216834767E+02  0.50264104926E+02  0.41800000000E+01 0.  1.
         -5    1    3    3    0  502  0.79908029792E+02 -0.60492498954E+02  0.12657933300E+02  0.10110554550E+03  0.41800000000E+01 0.  1.
        -11    1    1    2    0    0 -0.36132841166E+02 -0.14227114581E+02  0.11567658018E+02  0.40519177090E+02  0.00000000000E+00 0.  1.
         11    1    1    2    0    0 -0.38502342808E+01  0.76115593901E+02  0.59490160342E+02  0.96682403344E+02  0.00000000000E+00 0. -1.
</event>
<event>
 7    1  0.1243146E-005  0.2577652E+03  0.7561462E-02  0.1108493E+00
          1   -1    0    0  501    0  0.00000000000E+00  0.00000000000E+00  0.11501098781E+04  0.11501098781E+04  0.00000000000E+00 0. -1.
         -1   -1    0    0    0  501 -0.00000000000E+00 -0.00000000000E+00 -0.70741588051E+02  0.70741588051E+02  0.00000000000E+00 0.  1.
         23    2    1    2    0    0 -0.81079576293E+02  0.22960160398E+03  0.33591763495E+03  0.43333509005E+03  0.12509136081E+03 0.  0.
          5    1    3    3  502    0  0.17297979626E+02  0.12669865166E+03  0.19309223667E+03  0.23163301296E+03  0.41800000000E+01 0. -1.
         -5    1    3    3    0  502 -0.98377555919E+02  0.10290295233E+03  0.14282539828E+03  0.20170207709E+03  0.41800000000E+01 0. -1.
        -11    1    1    2    0    0  0.75346166743E+02 -0.17862253434E+03  0.45560947102E+03  0.49513941946E+03  0.00000000000E+00 0.  1.
         11    1    1    2    0    0  0.57334095494E+01 -0.50979069640E+02  0.28784118404E+03  0.29237695661E+03  0.00000000000E+00 0. -1.
</event>
<event>
 7    1  0.1243146E-005  0.2172199E+03  0.7561462E-02  0.1135973E+00
         -1   -1    0    0    0  501 -0.00000000000E+00  0.00000000000E+00  0.11894052435E+03  0.11894052435E+03  0.00000000000E+00 0.  1.
          1   -1    0    0  501    0  0.00000000000E+00 -0.00000000000E+00 -0.11745299109E+04  0.11745299109E+04  0.00000000000E+00 0. -1.
         23    2    1    2    0    0  0.20047167759E+02  0.19355284696E+03 -0.15906665897E+02  0.23187385207E+03  0.12509143757E+03 0.  0.
          5    1    3    3  502    0  0.43677466797E+02  0.20882877457E+02 -0.29781246631E+02  0.56993076137E+02  0.41800000000E+01 0.  1.
         -5    1    3    3    0  502 -0.23630299038E+02  0.17266996951E+03  0.13874580735E+02  0.17488077594E+03  0.41800000000E+01 0.  1.
        -11    1    1    2    0    0 -0.25449426333E+02 -0.91639155809E+01 -0.83154131468E+02  0.87442896965E+02  0.00000000000E+00 0.  1.
         11    1    1    2    0    0  0.54022585740E+01 -0.18438893138E+03 -0.95652858916E+03  0.97415368618E+03  0.00000000000E+00 0. -1.
</event>
<event>
 7    1  0.1243146E-005  0.1997551E+03  0.7561462E-02  0.1149946E+00
          2   -1    0    0  501    0  0.00000000000E+00  0.00000000000E+00  0.38841000513E+03  0.38841000513E+03  0.00000000000E+00 0. -1.
         -2   -1    0    0    0  501 -0.00000000000E+00 -0.00000000000E+00 -0.16660017437E+03  0.16660017437E+03  0.00000000000E+00 0.  1.
         23    2    1    2    0    0  0.10116199648E+03  0.14055293545E+03 -0.51552730854E+02  0.21975897142E+03  0.12508974484E+03 0.  0.
          5    1    3    3  502    0  0.32710418800E+02 -0.18533887585E+02  0.34835882264E+01  0.37987949064E+02  0.41800000000E+01 0. -1.
         -5    1    3    3    0  502  0.68451577684E+02  0.15908682303E+03 -0.55036319080E+02  0.18177102236E+03  0.41800000000E+01 0. -1.
        -11    1    1    2    0    0 -0.36240458598E+02 -0.11163971733E+03  0.12940578690E+03  0.17470734103E+03  0.00000000000E+00 0. -1.
         11    1    1    2    0    0 -0.64921537887E+02 -0.28913218115E+02  0.14395677471E+03  0.16054386706E+03  0.00000000000E+00 0.  1.
</event>
<event>
 7    1  0.1243146E-005  0.9520044E+02  0.7561462E-02  0.1290725E+00
          2   -1    0    0  501    0  0.00000000000E+00  0.00000000000E+00  0.23586532817E+03  0.23586532817E+03  0.00000000000E+00 0.  1.
         -2   -1    0    0    0  501 -0.00000000000E+00 -0.00000000000E+00 -0.11208696882E+03  0.11208696882E+03  0.00000000000E+00 0. -1.
         23    2    1    2    0    0 -0.46571433965E+02  0.24187813631E+02 -0.48799384358E+02  0.14417698764E+03  0.12510665474E+03 0.  0.
          5    1    3    3  502    0 -0.20525047068E+02 -0.26316729385E+02  0.31255344002E+02  0.45915321314E+02  0.41800000000E+01 0. -1.
         -5    1    3    3    0  502 -0.26046386897E+02  0.50504543016E+02 -0.80054728359E+02  0.98261666322E+02  0.41800000000E+01 0. -1.
        -11    1    1    2    0    0 -0.23190425739E+02 -0.18734162711E+02  0.93721145625E+02  0.98348451110E+02  0.00000000000E+00 0.  1.
         11    1    1    2    0    0  0.69761859703E+02 -0.54536509203E+01  0.78856598088E+02  0.10542685825E+03  0.00000000000E+00 0. -1.
</event>
<event>
 7    1  0.1243146E-005  0.1327100E+03  0.7561462E-02  0.1223489E+00
         -1   -1    0    0    0  501 -0.00000000000E+00  0.00000000000E+00  0.67429131693E+02  0.67429131693E+02  0.00000000000E+00 0.  1.
          1   -1    0    0  501    0  0.00000000000E+00 -0.00000000000E+00 -0.32552776783E+03  0.32552776783E+03  0.00000000000E+00 0. -1.
         23    2    1    2    0    0  0.89924087552E+02  0.44181912823E+02 -0.13801788441E+03  0.21150607245E+03  0.12508996492E+03 0.  0.
          5    1    3    3  502    0  0.22619271779E+02 -0.24952119652E+02  0.94506253380E+01  0.35228205322E+02  0.41800000000E+01 0. -1.
         -5    1    3    3    0  502  0.67304815774E+02  0.69134032474E+02 -0.14746850975E+03  0.17627786713E+03  0.41800000000E+01 0. -1.
        -11    1    1    2    0    0 -0.77484352847E+02  0.11070830250E+02 -0.58009179118E+02  0.97424088810E+02  0.00000000000E+00 0.  1.
         11    1    1    2    0    0 -0.12439734705E+02 -0.55252743072E+02 -0.62071572608E+02  0.84026738259E+02  0.00000000000E+00 0. -1.
</event>
<event>
 7    1  0.1243146E-005  0.1483724E+03  0.7561462E-02  0.1202487E+00
          1   -1    0    0  501    0  0.00000000000E+00  0.00000000000E+00  0.97948460435E+03  0.97948460435E+03  0.00000000000E+00 0. -1.
         -1   -1    0    0    0  501 -0.00000000000E+00 -0.00000000000E+00 -0.32998796809E+02  0.32998796809E+02  0.00000000000E+00 0.  1.
         23    2    1    2    0    0  0.11073598997E+03  0.45416209445E+02  0.27925307644E+03  0.32856422675E+03  0.12508828421E+03 0.  0.
          5    1    3    3  502    0  0.10167486717E+03  0.70572641447E+02  0.27442613558E+03  0.30107383251E+03  0.41800000000E+01 0.  1.
         -5    1    3    3    0  502  0.90611227989E+01 -0.25156432003E+02  0.48269408629E+01  0.27490394242E+02  0.41800000000E+01 0.  1.
        -11    1    1    2    0    0 -0.17479432006E+02 -0.49502572315E+02  0.16719634037E+03  0.17524454754E+03  0.00000000000E+00 0.  1.
         11    1    1    2    0    0 -0.93256557960E+02  0.40863628705E+01  0.50003639072E+03  0.50867462686E+03  0.00000000000E+00 0. -1.
</event>
<event>
 7    1  0.1243146E-005  0.1390093E+03  0.7561462E-02  0.1214668E+00
          2   -1    0    0  501    0  0.00000000000E+00  0.00000000000E+00  0.20067197174E+03  0.20067197174E+03  0.00000000000E+00 0. -1.
         -2   -1    0    0    0  501 -0.00000000000E+00 -0.00000000000E+00 -0.17336756115E+03  0.17336756115E+03  0.00000000000E+00 0.  1.
         23    2    1    2    0    0  0.74300377831E+02 -0.58902677713E+02 -0.10439414201E+03  0.18850833387E+03  0.12508870238E+03 0.  0.
          5    1    3    3  502    0 -0.12192309360E+02 -0.59775443916E+02 -0.12831870482E+02  0.62481080360E+02  0.41800000000E+01 0. -1.
         -5    1    3    3    0  502  0.86492687192E+02  0.87276620299E+00 -0.91562271532E+02  0.12602725351E+03  0.41800000000E+01 0. -1.
        -11    1    1    2    0    0 -0.51434609748E+02 -0.14459420263E+02  0.46874075188E+02  0.71075824575E+02  0.00000000000E+00 0. -1.
         11    1    1    2    0    0 -0.22865768083E+02  0.73362097976E+02  0.84824477421E+02  0.11445537444E+03  0.00000000000E+00 0.  1.
</event>
<event>
 7    1  0.1243146E-005  0.1095262E+03  0.7561462E-02  0.1261450E+00
          4   -1    0    0  501    0  0.00000000000E+00  0.00000000000E+00  0.11812342291E+02  0.11812342291E+02  0.00000000000E+00 0.  1.
         -4   -1    0    0    0  501 -0.00000000000E+00 -0.00000000000E+00 -0.12499086806E+04  0.12499086806E+04  0.00000000000E+00 0. -1.
         23    2    1    2    0    0 -0.32734366695E+02 -0.26563034889E+02 -0.91036430614E+03  0.91909895308E+03  0.11917458652E+03 0.  0.
          5    1    3    3  502    0 -0.60778799263E+02  0.23085079821E+02 -0.36729061438E+03  0.37302392840E+03  0.41800000000E+01 0.  1.
         -5    1    3    3    0  502  0.28044432568E+02 -0.49648114710E+02 -0.54307369176E+03  0.54607502468E+03  0.41800000000E+01 0. -1.
        -11    1    1    2    0    0  0.51015269018E+02  0.46960104043E+02 -0.26938889022E+03  0.27816934270E+03  0.00000000000E+00 0.  1.
         11    1    1    2    0    0 -0.18280902323E+02 -0.20397069154E+02 -0.58343141961E+02  0.64452727123E+02  0.00000000000E+00 0. -1.
</event>
<event>
 7    1  0.1243146E-005  0.1260169E+03  0.7561462E-02  0.1233489E+00
         -1   -1    0    0    0  501 -0.00000000000E+00  0.00000000000E+00  0.24507300682E+02  0.24507300682E+02  0.00000000000E+00 0.  1.
          1   -1    0    0  501    0  0.00000000000E+00 -0.00000000000E+00 -0.91859035156E+03  0.91859035156E+03  0.00000000000E+00 0. -1.
         23    2    1    2    0    0 -0.70374368790E+02  0.71563262412E+02 -0.39989516840E+03  0.43086255781E+03  0.12511013431E+03 0.  0.
          5    1    3    3  502    0 -0.62356017991E+02  0.96320012853E+01 -0.66972078575E+02  0.92107438012E+02  0.41800000000E+01 0. -1.
         -5    1    3    3    0  502 -0.80183507983E+01  0.61931261126E+02 -0.33292308982E+03  0.33875511980E+03  0.41800000000E+01 0. -1.
        -11    1    1    2    0    0  0.75833360578E+02 -0.25766803492E+02 -0.21850637635E+03  0.23272228781E+03  0.00000000000E+00 0.  1.
         11    1    1    2    0    0 -0.54589917886E+01 -0.45796458919E+02 -0.27568150613E+03  0.27951280662E+03  0.00000000000E+00 0. -1.
</event>
<event>
 7    1  0.1243146E-005  0.5327058E+02  0.7561462E-02  0.1428459E+00
          2   -1    0    0  501    0  0.00000000000E+00  0.00000000000E+00  0.43945196666E+03  0.43945196666E+03  0.00000000000E+00 0. -1.
         -2   -1    0    0    0  501 -0.00000000000E+00 -0.00000000000E+00 -0.32885741309E+02  0.32885741309E+02  0.00000000000E+00 0.  1.
         23    2    1    2    0    0 -0.31615139445E+02 -0.17677653740E+02  0.26000052693E+03  0.29079224693E+03  0.12509132818E+03 0.  0.
          5    1    3    3  502    0 -0.49462994705E+01 -0.40934452870E+01  0.26045645780E+03  0.26056910980E+03  0.41800000000E+01 0.  1.
         -5    1    3    3    0  502 -0.26668839974E+02 -0.13584208453E+02 -0.45593086913E+00  0.30223137127E+02  0.41800000000E+01 0.  1.
        -11    1    1    2    0    0  0.50893822565E+01  0.36040870067E+02  0.54685108696E+01  0.36806938722E+02  0.00000000000E+00 0.  1.
         11    1    1    2    0    0  0.26525757188E+02 -0.18363216327E+02  0.14109718755E+03  0.14473852232E+03  0.00000000000E+00 0. -1.
</event>
<event>
 7    1  0.1335299E-005  0.2045698E+03  0.7561462E-02  0.1145940E+00
          1   -1    0    0  501    0  0.00000000000E+00  0.00000000000E+00  0.60149670487E+03  0.60149670487E+03  0.00000000000E+00 0. -1.
         -1   -1    0    0    0  501 -0.00000000000E+00 -0.00000000000E+00 -0.76360023544E+02  0.76360023544E+02  0.00000000000E+00 0.  1.
         23    2    1    2    0    0  0.95219055469E+02  0.15722811006E+03  0.23812713501E+03  0.32579018623E+03  0.12508943160E+03 0.  0.
          5    1    3    3  502    0  0.91283784869E+02  0.38018831365E+02  0.13905190776E+03  0.17067825394E+03  0.41800000000E+01 0.  1.
         -5    1    3    3    0  502  0.39352705994E+01  0.11920927870E+03  0.99075227249E+02  0.15511193228E+03  0.41800000000E+01 0.  1.
        -11    1    1    2    0    0 -0.24300342550E+02 -0.89554389838E+02  0.78036853599E+02  0.12124457063E+03  0.00000000000E+00 0. -1.
         11    1    1    2    0    0 -0.70918712919E+02 -0.67673720223E+02  0.20897269272E+03  0.23082197156E+03  0.00000000000E+00 0.  1.
</event>
<event>
 7    1  0.1243146E-005  0.1444399E+03  0.7561462E-02  0.1207477E+00
          2   -1    0    0  501    0  0.00000000000E+00  0.00000000000E+00  0.20148065287E+03  0.20148065287E+03  0.00000000000E+00 0. -1.
         -2   -1    0    0    0  501 -0.00000000000E+00 -0.00000000000E+00 -0.16345191032E+03  0.16345191032E+03  0.00000000000E+00 0.  1.
         23    2    1    2    0    0  0.13704576031E+03  0.38452518646E+02 -0.10172128751E+02  0.18976547101E+03  0.12508926882E+03 0.  0.
          5    1    3    3  502    0  0.92944058688E+01  0.12380831095E+02 -0.50690334577E+02  0.53166280466E+02  0.41800000000E+01 0.  1.
         -5    1    3    3    0  502  0.12775135444E+03  0.26071687552E+02  0.40518205826E+02  0.13659919054E+03  0.41800000000E+01 0.  1.
        -11    1    1    2    0    0 -0.22024110176E+02 -0.76918866072E+01 -0.25955155361E+02  0.34898375871E+02  0.00000000000E+00 0.  1.
         11    1    1    2    0    0 -0.11502165014E+03 -0.30760632039E+02  0.74156026669E+02  0.14026871631E+03  0.00000000000E+00 0. -1.
</event>
<event>
 7    1  0.1243146E-005  0.1803618E+03  0.7561462E-02  0.1167453E+00
         -2   -1    0    0    0  501 -0.00000000000E+00  0.00000000000E+00  0.47940140950E+03  0.47940140950E+03  0.00000000000E+00 0. -1.
          2   -1    0    0  501    0  0.00000000000E+00 -0.00000000000E+00 -0.89905530534E+02  0.89905530534E+02  0.00000000000E+00 0.  1.
         23    2    1    2    0    0  0.76974653411E+02  0.15836088644E+03  0.21483447877E+03  0.30463799631E+03  0.12508872015E+03 0.  0.
          5    1    3    3  502    0  0.24264112570E+02  0.52390648284E+02 -0.16118503377E+01  0.57910255119E+02  0.41800000000E+01 0.  1.
         -5    1    3    3    0  502  0.52710540841E+02  0.10597023816E+03  0.21644632911E+03  0.24672774119E+03  0.41800000000E+01 0.  1.
        -11    1    1    2    0    0 -0.82144537724E+02 -0.11835822391E+03  0.17182709862E+03  0.22423413224E+03  0.00000000000E+00 0.  1.
         11    1    1    2    0    0  0.51698843125E+01 -0.40002662532E+02  0.28343015771E+01  0.40434811474E+02  0.00000000000E+00 0. -1.
</event>
<event>
 7    1  0.1243146E-005  0.7443007E+02  0.7561462E-02  0.1345645E+00
         -2   -1    0    0    0  501 -0.00000000000E+00  0.00000000000E+00  0.13407199748E+03  0.13407199748E+03  0.00000000000E+00 0.  1.
          2   -1    0    0  501    0  0.00000000000E+00 -0.00000000000E+00 -0.98572547670E+02  0.98572547670E+02  0.00000000000E+00 0. -1.
         23    2    1    2    0    0  0.17980513826E+02 -0.44490076610E+01  0.50036756638E+02  0.13599045687E+03  0.12508650925E+03 0.  0.
          5    1    3    3  502    0  0.35404857549E+02 -0.46477291939E+02 -0.11150177320E+02  0.59627522658E+02  0.41800000000E+01 0. -1.
         -5    1    3    3    0  502 -0.17424343723E+02  0.42028284278E+02  0.61186933958E+02  0.76362934207E+02  0.41800000000E+01 0. -1.
        -11    1    1    2    0    0  0.25513004963E+01 -0.15654252675E+02 -0.49162990976E+02  0.51658149819E+02  0.00000000000E+00 0. -1.
         11    1    1    2    0    0 -0.20531814322E+02  0.20103260336E+02  0.34625684145E+02  0.44995938462E+02  0.00000000000E+00 0.  1.
</event>
<event>
 7    1  0.1243146E-005  0.9552342E+02  0.7561462E-02  0.1290002E+00
         -2   -1    0    0    0  501 -0.00000000000E+00  0.00000000000E+00  0.74311068499E+02  0.74311068499E+02  0.00000000000E+00 0.  1.
          2   -1    0    0  501    0  0.00000000000E+00 -0.00000000000E+00 -0.19690338571E+03  0.19690338571E+03  0.00000000000E+00 0. -1.
         23    2    1    2    0    0 -0.48981700441E+02  0.28574490024E+02 -0.90164593264E+02  0.16429501494E+03  0.12508992605E+03 0.  0.
          5    1    3    3  502    0  0.26259694711E+02 -0.12333965068E+02 -0.70461604679E+02  0.76315191112E+02  0.41800000000E+01 0.  1.
         -5    1    3    3    0  502 -0.75241395152E+02  0.40908455092E+02 -0.19702988585E+02  0.87979823832E+02  0.41800000000E+01 0.  1.
        -11    1    1    2    0    0 -0.99080071572E+01 -0.10389371534E+02  0.20941802138E+02  0.25390287975E+02  0.00000000000E+00 0.  1.
         11    1    1    2    0    0  0.58889707598E+02 -0.18185118490E+02 -0.53369526088E+02  0.81529151292E+02  0.00000000000E+00 0. -1.
</event>
<event>
 7    1  0.1243146E-005  0.1436566E+03  0.7561462E-02  0.1208492E+00
         -2   -1    0    0    0  501 -0.00000000000E+00  0.00000000000E+00  0.19449199103E+02  0.19449199103E+02  0.00000000000E+00 0.  1.
          2   -1    0    0  501    0  0.00000000000E+00 -0.00000000000E+00 -0.14977758502E+04  0.14977758502E+04  0.00000000000E+00 0. -1.
         23    2    1    2    0    0  0.64343227466E+02 -0.11427236328E+03 -0.74510769339E+03  0.76683174603E+03  0.12508888054E+03 0.  0.
          5    1    3    3  502    0 -0.51642629189E+01 -0.16348266808E+01 -0.35108658749E+03  0.35115325228E+03  0.41800000000E+01 0.  1.
         -5    1    3    3    0  502  0.69507490385E+02 -0.11263753660E+03 -0.39402110590E+03  0.41567849375E+03  0.41800000000E+01 0.  1.
        -11    1    1    2    0    0 -0.33670102668E+02  0.43788240150E+01 -0.74579265319E+02  0.81944595483E+02  0.00000000000E+00 0.  1.
         11    1    1    2    0    0 -0.30673124798E+02  0.10989353927E+03 -0.65863969237E+03  0.66844870778E+03  0.00000000000E+00 0. -1.
</event>
<event>
 7    1  0.1243146E-005  0.1186000E+03  0.7561462E-02  0.1245425E+00
         -2   -1    0    0    0  501 -0.00000000000E+00  0.00000000000E+00  0.16389992047E+03  0.16389992047E+03  0.00000000000E+00 0.  1.
          2   -1    0    0  501    0  0.00000000000E+00 -0.00000000000E+00 -0.21294870251E+03  0.21294870251E+03  0.00000000000E+00 0. -1.
         23    2    1    2    0    0 -0.64930588668E+02 -0.21902509326E+02  0.11043329861E+03  0.18038642070E+03  0.12509215031E+03 0.  0.
          5    1    3    3  502    0 -0.31943336770E+02 -0.65999980785E+02  0.22980388412E+02  0.76954173891E+02  0.41800000000E+01 0. -1.
         -5    1    3    3    0  502 -0.32987251898E+02  0.44097471460E+02  0.87452910200E+02  0.10343224681E+03  0.41800000000E+01 0. -1.
        -11    1    1    2    0    0  0.66149646173E+02 -0.18041513146E+02 -0.12939825676E+03  0.14644173154E+03  0.00000000000E+00 0. -1.
         11    1    1    2    0    0 -0.12190575051E+01  0.39944022471E+02 -0.30083823896E+02  0.50020470735E+02  0.00000000000E+00 0.  1.
</event>
<event>
 7    1  0.1243146E-005  0.9295301E+02  0.7561462E-02  0.1295854E+00
          2   -1    0    0  501    0  0.00000000000E+00  0.00000000000E+00  0.49237296354E+03  0.49237296354E+03  0.00000000000E+00 0. -1.
         -2   -1    0    0    0  501 -0.00000000000E+00 -0.00000000000E+00 -0.21854742760E+02  0.21854742760E+02  0.00000000000E+00 0.  1.
         23    2    1    2    0    0 -0.16561557790E+02  0.74092342614E+01  0.19690846745E+03  0.22856210138E+03  0.11462332958E+03 0.  0.
          5    1    3    3  502    0 -0.25871440774E+02  0.58104631634E+02  0.12011859766E+03  0.13598319590E+03  0.41800000000E+01 0. -1.
         -5    1    3    3    0  502  0.93098829836E+01 -0.50695397372E+02  0.76789869792E+02  0.92578905473E+02  0.41800000000E+01 0.  1.
        -11    1    1    2    0    0  0.24920397992E+02  0.25999445821E+02  0.21241100817E+03  0.21544241415E+03  0.00000000000E+00 0. -1.
         11    1    1    2    0    0 -0.83588402015E+01 -0.33408680082E+02  0.61198745163E+02  0.70223190784E+02  0.00000000000E+00 0.  1.
</event>
<event>
 7    1  0.1243146E-005  0.9776409E+02  0.7561462E-02  0.1285069E+00
          2   -1    0    0  501    0  0.00000000000E+00  0.00000000000E+00  0.57961810013E+03  0.57961810013E+03  0.00000000000E+00 0. -1.
         -2   -1    0    0    0  501 -0.00000000000E+00 -0.00000000000E+00 -0.28106699438E+02  0.28106699438E+02  0.00000000000E+00 0.  1.
         23    2    1    2    0    0 -0.59288945975E+02 -0.17211161262E+02  0.25231192225E+03  0.28831248065E+03  0.12510546432E+03 0.  0.
          5    1    3    3  502    0 -0.11235572880E+02  0.27785897088E+02  0.20478709941E+03  0.20701092401E+03  0.41800000000E+01 0. -1.
         -5    1    3    3    0  502 -0.48053373095E+02 -0.44997058351E+02  0.47524822836E+02  0.81301556637E+02  0.41800000000E+01 0. -1.
        -11    1    1    2    0    0 -0.40865034735E+01  0.33595242197E+02  0.18246747041E+03  0.18557941041E+03  0.00000000000E+00 0.  1.
         11    1    1    2    0    0  0.63375449449E+02 -0.16384080935E+02  0.11673200803E+03  0.13383290851E+03  0.00000000000E+00 0. -1.
</event>
<event>
 7    1  0.1243146E-005  0.5878337E+02  0.7561462E-02  0.1403009E+00
          1   -1    0    0  501    0  0.00000000000E+00  0.00000000000E+00  0.44036753501E+03  0.44036753501E+03  0.00000000000E+00 0. -1.
         -1   -1    0    0    0  501 -0.00000000000E+00 -0.00000000000E+00 -0.34914853064E+02  0.34914853064E+02  0.00000000000E+00 0.  1.
         23    2    1    2    0    0 -0.17477246979E+02  0.28425468815E+00  0.11669776829E+03  0.17195918588E+03  0.12508420174E+03 0.  0.
          5    1    3    3  502    0 -0.26971508858E+02 -0.97198402682E+01  0.14086908119E+03  0.14381762068E+03  0.41800000000E+01 0.  1.
         -5    1    3    3    0  502  0.94942618782E+01  0.10004094956E+02 -0.24171312901E+02  0.28141565199E+02  0.41800000000E+01 0.  1.
        -11    1    1    2    0    0  0.41252804168E+02  0.17174734416E+02  0.25325794848E+03  0.25716989291E+03  0.00000000000E+00 0.  1.
         11    1    1    2    0    0 -0.23775557189E+02 -0.17458989104E+02  0.35496965187E+02  0.46153309282E+02  0.00000000000E+00 0. -1.
</event>
<event>
 7    1  0.1243146E-005  0.9074380E+02  0.7561462E-02  0.1301060E+00
          1   -1    0    0  501    0  0.00000000000E+00  0.00000000000E+00  0.76886455275E+02  0.76886455275E+02  0.00000000000E+00 0. -1.
         -1   -1    0    0    0  501 -0.00000000000E+00 -0.00000000000E+00 -0.17958521808E+03  0.17958521808E+03  0.00000000000E+00 0.  1.
         23    2    1    2    0    0  0.19113827902E+02  0.32077461889E+02 -0.93919393057E+02  0.16081695220E+03  0.12508772020E+03 0.  0.
          5    1    3    3  502    0  0.11658740793E+01 -0.44538352792E+02 -0.10302835098E+02  0.45919984134E+02  0.41800000000E+01 0.  1.
         -5    1    3    3    0  502  0.17947953823E+02  0.76615814681E+02 -0.83616557959E+02  0.11489696806E+03  0.41800000000E+01 0.  1.
        -11    1    1    2    0    0 -0.21399618155E+02 -0.42330746173E+02 -0.40418221576E+02  0.62317480406E+02  0.00000000000E+00 0.  1.
         11    1    1    2    0    0  0.22857902526E+01  0.10253284284E+02  0.31638851829E+02  0.33337240749E+02  0.00000000000E+00 0. -1.
</event>
<event>
 7    1  0.1243146E-005  0.1249425E+03  0.7561462E-02  0.1235159E+00
          1   -1    0    0  501    0  0.00000000000E+00  0.00000000000E+00  0.52307602291E+03  0.52307602291E+03  0.00000000000E+00 0. -1.
         -1   -1    0    0    0  501 -0.00000000000E+00 -0.00000000000E+00 -0.40939096783E+02  0.40939096783E+02  0.00000000000E+00 0.  1.
         23    2    1    2    0    0 -0.89997457228E+02 -0.41597663024E+00  0.19670107391E+03  0.24987645190E+03  0.12508882202E+03 0.  0.
          5    1    3    3  502    0  0.13970403669E+02  0.66118409087E+01 -0.96318187716E+01  0.18685099725E+02  0.41800000000E+01 0.  1.
         -5    1    3    3    0  502 -0.10396786090E+03 -0.70278175390E+01  0.20633289268E+03  0.23119135217E+03  0.41800000000E+01 0.  1.
        -11    1    1    2    0    0  0.83502683323E+02 -0.37198730413E+02  0.22228635263E+03  0.24034905082E+03  0.00000000000E+00 0.  1.
         11    1    1    2    0    0  0.64947739041E+01  0.37614707043E+02  0.63149499592E+02  0.73789616971E+02  0.00000000000E+00 0. -1.
</event>
<event>
 7    1  0.1243146E-005  0.1058200E+03  0.7561462E-02  0.1268512E+00
          2   -1    0    0  501    0  0.00000000000E+00  0.00000000000E+00  0.35849470791E+03  0.35849470791E+03  0.00000000000E+00 0. -1.
         -2   -1    0    0    0  501 -0.00000000000E+00 -0.00000000000E+00 -0.34201264451E+02  0.34201264451E+02  0.00000000000E+00 0.  1.
         23    2    1    2    0    0  0.64081658375E+01  0.23481465859E+02  0.17967273582E+03  0.22027490233E+03  0.12508515807E+03 0.  0.
          5    1    3    3  502    0 -0.45898844192E+02  0.47122361692E+02  0.68350317208E+02  0.94955037423E+02  0.41800000000E+01 0. -1.
         -5    1    3    3    0  502  0.52307010029E+02 -0.23640895833E+02  0.11132241861E+03  0.12531986490E+03  0.41800000000E+01 0. -1.
        -11    1    1    2    0    0 -0.34271357829E+02  0.17605265387E+02  0.93668882923E+02  0.10128341900E+03  0.00000000000E+00 0. -1.
         11    1    1    2    0    0  0.27863191991E+02 -0.41086731246E+02  0.50951824716E+02  0.71137651032E+02  0.00000000000E+00 0.  1.
</event>
<event>
 7    1  0.1243146E-005  0.1100868E+03  0.7561462E-02  0.1260409E+00
          4   -1    0    0  501    0  0.00000000000E+00  0.00000000000E+00  0.38590623667E+03  0.38590623667E+03  0.00000000000E+00 0. -1.
         -4   -1    0    0    0  501 -0.00000000000E+00 -0.00000000000E+00 -0.38512023434E+02  0.38512023434E+02  0.00000000000E+00 0.  1.
         23    2    1    2    0    0 -0.37958500562E+02  0.21093467846E+02  0.13226823797E+03  0.18715790344E+03  0.12508961546E+03 0.  0.
          5    1    3    3  502    0 -0.73225063826E+02 -0.97357127908E+01  0.41253906419E+02  0.84711576958E+02  0.41800000000E+01 0. -1.
         -5    1    3    3    0  502  0.35266563264E+02  0.30829180637E+02  0.91014331550E+02  0.10244632649E+03  0.41800000000E+01 0. -1.
        -11    1    1    2    0    0  0.59973082309E+02  0.10263262950E+02  0.11602331010E+03  0.13100959375E+03  0.00000000000E+00 0. -1.
         11    1    1    2    0    0 -0.22014581747E+02 -0.31356730796E+02  0.99102665166E+02  0.10625076291E+03  0.00000000000E+00 0.  1.
</event>
<event>
 7    1  0.1243146E-005  0.7911008E+02  0.7561462E-02  0.1331596E+00
          2   -1    0    0  501    0  0.00000000000E+00  0.00000000000E+00  0.33073774151E+03  0.33073774151E+03  0.00000000000E+00 0. -1.
         -2   -1    0    0    0  501 -0.00000000000E+00 -0.00000000000E+00 -0.39984998856E+02  0.39984998856E+02  0.00000000000E+00 0.  1.
         23    2    1    2    0    0 -0.10572537618E+02 -0.23334854197E+02  0.12039813277E+03  0.17550149242E+03  0.12509504185E+03 0.  0.
          5    1    3    3  502    0  0.66342233856E+01  0.40078201600E+02  0.30580405515E+01  0.40952401339E+02  0.41800000000E+01 0. -1.
         -5    1    3    3    0  502 -0.17206761004E+02 -0.63413055797E+02  0.11734009222E+03  0.13454909108E+03  0.41800000000E+01 0. -1.
        -11    1    1    2    0    0 -0.55292755877E+01 -0.11724587300E+02 -0.62929795019E+01  0.14409733755E+02  0.00000000000E+00 0.  1.
         11    1    1    2    0    0  0.16101813206E+02  0.35059441497E+02  0.17664758939E+03  0.18081151419E+03  0.00000000000E+00 0. -1.
</event>
<event>
 7    1  0.1243146E-005  0.9037806E+02  0.7561462E-02  0.1301939E+00
         -4   -1    0    0    0  501 -0.00000000000E+00  0.00000000000E+00  0.12459309419E+03  0.12459309419E+03  0.00000000000E+00 0.  1.
          4   -1    0    0  501    0  0.00000000000E+00 -0.00000000000E+00 -0.10187866126E+03  0.10187866126E+03  0.00000000000E+00 0. -1.
         23    2    1    2    0    0 -0.29202652116E+02  0.15513708140E+02  0.19363250996E+02  0.13082603582E+03  0.12508815343E+03 0.  0.
          5    1    3    3  502    0 -0.52479420374E+02  0.28791470057E+02 -0.35433057995E+02  0.69685093885E+02  0.41800000000E+01 0.  1.
         -5    1    3    3    0  502  0.23276768258E+02 -0.13277761917E+02  0.54796308991E+02  0.61140941939E+02  0.41800000000E+01 0.  1.
        -11    1    1    2    0    0  0.22235729906E+02  0.35638236123E+02  0.11088300486E+02  0.43444930269E+02  0.00000000000E+00 0.  1.
         11    1    1    2    0    0  0.69669222096E+01 -0.51151944263E+02 -0.77371185512E+01  0.52200789366E+02  0.00000000000E+00 0. -1.
</event>
<event>
 7    1  0.1243146E-005  0.7741209E+02  0.7561462E-02  0.1336560E+00
          2   -1    0    0  501    0  0.00000000000E+00  0.00000000000E+00  0.10077923137E+03  0.10077923137E+03  0.00000000000E+00 0. -1.
         -2   -1    0    0    0  501 -0.00000000000E+00 -0.00000000000E+00 -0.15864996203E+03  0.15864996203E+03  0.00000000000E+00 0.  1.
         23    2    1    2    0    0  0.19399330090E+02 -0.58637092505E+02 -0.14973004311E+02  0.14031038814E+03  0.12509265181E+03 0.  0.
          5    1    3    3  502    0  0.98310862245E+01 -0.45188884147E+02  0.52868527657E+02  0.70365041913E+02  0.41800000000E+01 0.  1.
         -5    1    3    3    0  502  0.95682438657E+01 -0.13448208358E+02 -0.67841531968E+02  0.69945346225E+02  0.41800000000E+01 0.  1.
        -11    1    1    2    0    0  0.96312538251E+01 -0.11768990291E+02  0.16572961585E+02  0.22492959752E+02  0.00000000000E+00 0. -1.
         11    1    1    2    0    0 -0.29030583915E+02  0.70406082796E+02 -0.59470687931E+02  0.96625845508E+02  0.00000000000E+00 0.  1.
</event>
<event>
 7    1  0.1243146E-005  0.1077630E+03  0.7561462E-02  0.1264769E+00
          1   -1    0    0  501    0  0.00000000000E+00  0.00000000000E+00  0.29104910169E+03  0.29104910169E+03  0.00000000000E+00 0. -1.
         -1   -1    0    0    0  501 -0.00000000000E+00 -0.00000000000E+00 -0.14259770631E+03  0.14259770631E+03  0.00000000000E+00 0.  1.
         23    2    1    2    0    0 -0.41380598787E+02 -0.34871717013E+02 -0.10346346150E+03  0.16066491943E+03  0.11036366189E+03 0.  0.
          5    1    3    3  502    0 -0.29874099230E+02  0.36419384258E+02 -0.23392035546E+02  0.52758819940E+02  0.41800000000E+01 0. -1.
         -5    1    3    3    0  502 -0.11506499557E+02 -0.71291101270E+02 -0.80071425950E+02  0.10790609949E+03  0.41800000000E+01 0.  1.
        -11    1    1    2    0    0  0.33165663091E+01 -0.24855937718E+02  0.12639667431E+03  0.12886014329E+03  0.00000000000E+00 0.  1.
         11    1    1    2    0    0  0.38064032477E+02  0.59727654731E+02  0.12551818257E+03  0.14412174529E+03  0.00000000000E+00 0. -1.
</event>
<event>
 7    1  0.1243146E-005  0.1079088E+03  0.7561462E-02  0.1264492E+00
         -2   -1    0    0    0  501 -0.00000000000E+00  0.00000000000E+00  0.34971050143E+02  0.34971050143E+02  0.00000000000E+00 0.  1.
          2   -1    0    0  501    0  0.00000000000E+00 -0.00000000000E+00 -0.59044016538E+03  0.59044016538E+03  0.00000000000E+00 0. -1.
         23    2    1    2    0    0  0.36181369416E+02  0.41472888222E+02 -0.13519618821E+03  0.19223557807E+03  0.12508963274E+03 0.  0.
          5    1    3    3  502    0  0.62688640449E+02 -0.75996564688E+01 -0.11769499012E+03  0.13363084794E+03  0.41800000000E+01 0. -1.
         -5    1    3    3    0  502 -0.26507271034E+02  0.49072544690E+02 -0.17501198090E+02  0.58604730139E+02  0.41800000000E+01 0. -1.
        -11    1    1    2    0    0  0.16441773301E+02 -0.40784164676E+02 -0.10987386851E+03  0.11834672356E+03  0.00000000000E+00 0. -1.
         11    1    1    2    0    0 -0.52623142717E+02 -0.68872354593E+00 -0.31039905851E+03  0.31482891388E+03  0.00000000000E+00 0.  1.
</event>
<event>
 7    1  0.1243146E-005  0.9686659E+02  0.7561462E-02  0.1287027E+00
         -1   -1    0    0    0  501 -0.00000000000E+00  0.00000000000E+00  0.98377105190E+02  0.98377105190E+02  0.00000000000E+00 0.  1.
          1   -1    0    0  501    0  0.00000000000E+00 -0.00000000000E+00 -0.20953170864E+03  0.20953170864E+03  0.00000000000E+00 0. -1.
         23    2    1    2    0    0 -0.64100769498E+02 -0.37668919908E+02  0.29657375360E+01  0.14554967159E+03  0.12509218650E+03 0.  0.
          5    1    3    3  502    0 -0.19992795219E+02  0.30013227137E+02 -0.39946149451E+02  0.53978448661E+02  0.41800000000E+01 0.  1.
         -5    1    3    3    0  502 -0.44107974278E+02 -0.67682147045E+02  0.42911886987E+02  0.91571222927E+02  0.41800000000E+01 0.  1.
        -11    1    1    2    0    0  0.10732667057E+02 -0.77724646484E+00  0.14405343589E+02  0.17980772456E+02  0.00000000000E+00 0.  1.
         11    1    1    2    0    0  0.53368102441E+02  0.38446166373E+02 -0.12852568458E+03  0.14437836979E+03  0.00000000000E+00 0. -1.
</event>
<event>
 7    1  0.1243146E-005  0.1209054E+03  0.7561462E-02  0.1241611E+00
          2   -1    0    0  501    0  0.00000000000E+00  0.00000000000E+00  0.36153443637E+03  0.36153443637E+03  0.00000000000E+00 0. -1.
         -2   -1    0    0    0  501 -0.00000000000E+00 -0.00000000000E+00 -0.53817149381E+02  0.53817149381E+02  0.00000000000E+00 0.  1.
         23    2    1    2    0    0 -0.30105065370E+02  0.55936587854E+02  0.74913359084E+02  0.15909070234E+03  0.12515040304E+03 0.  0.
          5    1    3    3  502    0  0.18995314664E+02 -0.33189496059E+02  0.22208573449E+02  0.44419114832E+02  0.41800000000E+01 0.  1.
         -5    1    3    3    0  502 -0.49100380034E+02  0.89126083912E+02  0.52704785635E+02  0.11467158751E+03  0.41800000000E+01 0.  1.
        -11    1    1    2    0    0  0.54136249132E+02 -0.55405812505E+02  0.20688504035E+03  0.22091165078E+03  0.00000000000E+00 0.  1.
         11    1    1    2    0    0 -0.24031183762E+02 -0.53077534868E+00  0.25918887550E+02  0.35349232626E+02  0.00000000000E+00 0. -1.
</event>
<event>
 7    1  0.1243146E-005  0.1180611E+03  0.7561462E-02  0.1246330E+00
         -2   -1    0    0    0  501 -0.00000000000E+00  0.00000000000E+00  0.29111663625E+03  0.29111663625E+03  0.00000000000E+00 0.  1.
          2   -1    0    0  501    0  0.00000000000E+00 -0.00000000000E+00 -0.93435262257E+02  0.93435262257E+02  0.00000000000E+00 0. -1.
         23    2    1    2    0    0  0.31607939278E+02  0.67691359639E+02  0.22101286318E+03  0.26471595137E+03  0.12508663886E+03 0.  0.
          5    1    3    3  502    0  0.66321641406E+02  0.54498984713E+02  0.20814860703E+03  0.22519328245E+03  0.41800000000E+01 0. -1.
         -5    1    3    3    0  502 -0.34713702128E+02  0.13192374927E+02  0.12864256152E+02  0.39522668913E+02  0.41800000000E+01 0. -1.
        -11    1    1    2    0    0  0.20483986084E+02  0.70867906734E+01 -0.18629619015E+02  0.28581095021E+02  0.00000000000E+00 0. -1.
         11    1    1    2    0    0 -0.52091925362E+02 -0.74778150313E+02 -0.47018701754E+01  0.91254852119E+02  0.00000000000E+00 0.  1.
</event>
<event>
 6    1  0.1243146E-005  0.1192910E+03  0.7561462E-02  0.1244271E+00
         -4   -1    0    0    0  501 -0.00000000000E+00  0.00000000000E+00  0.14011035361E+03  0.14011035361E+03  0.00000000000E+00 0.  1.
          4   -1    0    0  501    0  0.00000000000E+00 -0.00000000000E+00 -0.49397322662E+03  0.49397322662E+03  0.00000000000E+00 0. -1.
          5    1    1    2  502    0 -0.53141834546E+02 -0.54693563324E+02 -0.27740178953E+03  0.28772324494E+03  0.41800000000E+01 0. -1.
         -5    1    1    2    0  502  0.33885697581E+02 -0.17981268736E+02  0.11279535771E+03  0.11921338703E+03  0.41800000000E+01 0.  1.
        -11    1    1    2    0    0 -0.39158430061E+02  0.42797094254E+02 -0.68896236087E+02  0.90064783730E+02  0.00000000000E+00 0. -1.
         11    1    1    2    0    0  0.58414567026E+02  0.29877737805E+02 -0.12036020511E+03  0.13708216452E+03  0.00000000000E+00 0.  1.
</event>
<event>
 7    1  0.1243146E-005  0.1965582E+03  0.7561462E-02  0.1152676E+00
         -3   -1    0    0    0  501 -0.00000000000E+00  0.00000000000E+00  0.68647446918E+02  0.68647446918E+02  0.00000000000E+00 0.  1.
          3   -1    0    0  501    0  0.00000000000E+00 -0.00000000000E+00 -0.71127479012E+03  0.71127479012E+03  0.00000000000E+00 0. -1.
         23    2    1    2    0    0  0.40928996210E+02 -0.18129834767E+03 -0.24727814140E+03  0.33367727710E+03  0.12509905051E+03 0.  0.
          5    1    3    3  502    0  0.37368575955E+02 -0.16334786001E+03 -0.12279306038E+03  0.20778484526E+03  0.41800000000E+01 0. -1.
         -5    1    3    3    0  502  0.35604202551E+01 -0.17950487660E+02 -0.12448508102E+03  0.12589243185E+03  0.41800000000E+01 0. -1.
        -11    1    1    2    0    0 -0.63270968759E+02  0.17059788758E+03 -0.34067548886E+03  0.38622097748E+03  0.00000000000E+00 0. -1.
         11    1    1    2    0    0  0.22341972549E+02  0.10700460095E+02 -0.54673712939E+02  0.60023982458E+02  0.00000000000E+00 0.  1.
</event>
<event>
 7    1  0.1243146E-005  0.8215104E+02  0.7561462E-02  0.1323056E+00
          3   -1    0    0  501    0  0.00000000000E+00  0.00000000000E+00  0.32215599038E+03  0.32215599038E+03  0.00000000000E+00 0. -1.
         -3   -1    0    0    0  501 -0.00000000000E+00 -0.00000000000E+00 -0.47129131848E+02  0.47129131848E+02  0.00000000000E+00 0.  1.
         23    2    1    2    0    0 -0.40113758836E+01 -0.48438398725E+02  0.10305879414E+03  0.16920608991E+03  0.12508883325E+03 0.  0.
          5    1    3    3  502    0  0.30757042895E+02 -0.48629417856E+02 -0.27458861749E+01  0.57756629573E+02  0.41800000000E+01 0.  1.
         -5    1    3    3    0  502 -0.34768418779E+02  0.19101913146E+00  0.10580468031E+03  0.11144946033E+03  0.41800000000E+01 0.  1.
        -11    1    1    2    0    0  0.27180802348E+02  0.36553354682E+02  0.16759427198E+03  0.17367436125E+03  0.00000000000E+00 0. -1.
         11    1    1    2    0    0 -0.23169426465E+02  0.11885044043E+02  0.43737924192E+01  0.26404671078E+02  0.00000000000E+00 0.  1.
</event>
<event>
 7    1  0.1243146E-005  0.1123485E+03  0.7561462E-02  0.1256282E+00
         -1   -1    0    0    0  501 -0.00000000000E+00  0.00000000000E+00  0.31637999040E+02  0.31637999040E+02  0.00000000000E+00 0.  1.
          1   -1    0    0  501    0  0.00000000000E+00 -0.00000000000E+00 -0.46226156486E+03  0.46226156486E+03  0.00000000000E+00 0. -1.
         23    2    1    2    0    0  0.51598059841E+02  0.12834377014E+02 -0.23681786004E+03  0.27305287658E+03  0.12509234013E+03 0.  0.
          5    1    3    3  502    0  0.56707166813E+02 -0.38262913107E+02 -0.19500764168E+03  0.20670076439E+03  0.41800000000E+01 0. -1.
         -5    1    3    3    0  502 -0.51091069710E+01  0.51097290122E+02 -0.41810218366E+02  0.66352112187E+02  0.41800000000E+01 0. -1.
        -11    1    1    2    0    0 -0.70309558418E+02 -0.32531418197E+02 -0.12750134205E+03  0.14919222299E+03  0.00000000000E+00 0.  1.
         11    1    1    2    0    0  0.18711498576E+02  0.19697041182E+02 -0.66304363729E+02  0.71654464339E+02  0.00000000000E+00 0. -1.
</event>
<event>
 7    1  0.1243146E-005  0.1242586E+03  0.7561462E-02  0.1236233E+00
          1   -1    0    0  501    0  0.00000000000E+00  0.00000000000E+00  0.14632701194E+03  0.14632701194E+03  0.00000000000E+00 0. -1.
         -1   -1    0    0    0  501 -0.00000000000E+00 -0.00000000000E+00 -0.15571240553E+03  0.15571240553E+03  0.00000000000E+00 0.  1.
         23    2    1    2    0    0 -0.10234987099E+03  0.18689046700E+02 -0.15340502945E+02  0.16342075013E+03  0.12508490710E+03 0.  0.
          5    1    3    3  502    0 -0.23999338112E+02  0.43487588759E+02 -0.53146436297E+02  0.72863946483E+02  0.41800000000E+01 0.  1.
         -5    1    3    3    0  502 -0.78350532880E+02 -0.24798542059E+02  0.37805933352E+02  0.90556803651E+02  0.41800000000E+01 0.  1.
        -11    1    1    2    0    0  0.56524628613E+02 -0.36426780426E+02 -0.33939112002E+02  0.75324679193E+02  0.00000000000E+00 0.  1.
         11    1    1    2    0    0  0.45825242379E+02  0.17737733726E+02  0.39894221365E+02  0.63293988144E+02  0.00000000000E+00 0. -1.
</event>
<event>
 7    1  0.1243146E-005  0.1134731E+03  0.7561462E-02  0.1254270E+00
          1   -1    0    0  501    0  0.00000000000E+00  0.00000000000E+00  0.10064673282E+03  0.10064673282E+03  0.00000000000E+00 0. -1.
         -1   -1    0    0    0  501 -0.00000000000E+00 -0.00000000000E+00 -0.20540067167E+03  0.20540067167E+03  0.00000000000E+00 0.  1.
         23    2    1    2    0    0 -0.25953547621E+02 -0.61561363558E+02 -0.12938341532E+03  0.19196611409E+03  0.12509009826E+03 0.  0.
          5    1    3    3  502    0 -0.33183385156E+02 -0.91615485597E+02 -0.56559708389E+02  0.11274310296E+03  0.41800000000E+01 0.  1.
         -5    1    3    3    0  502  0.72298375347E+01  0.30054122039E+02 -0.72823706927E+02  0.79223011133E+02  0.41800000000E+01 0.  1.
        -11    1    1    2    0    0 -0.25285402851E+02  0.21229707821E+02 -0.16577900089E+02  0.36944266982E+02  0.00000000000E+00 0.  1.
         11    1    1    2    0    0  0.51238950472E+02  0.40331655736E+02  0.41207376553E+02  0.77137023421E+02  0.00000000000E+00 0. -1.
</event>
<event>
 7    1  0.1243146E-005  0.1050737E+03  0.7561462E-02  0.1269975E+00
          2   -1    0    0  501    0  0.00000000000E+00  0.00000000000E+00  0.37720499863E+03  0.37720499863E+03  0.00000000000E+00 0. -1.
         -2   -1    0    0    0  501 -0.00000000000E+00 -0.00000000000E+00 -0.43938153997E+02  0.43938153997E+02  0.00000000000E+00 0.  1.
         23    2    1    2    0    0  0.47859005966E+02  0.78381821827E-01  0.11620572498E+03  0.17732102721E+03  0.12509390704E+03 0.  0.
          5    1    3    3  502    0  0.63199114258E+02  0.28380889327E+02  0.14961109460E+02  0.70999367027E+02  0.41800000000E+01 0. -1.
         -5    1    3    3    0  502 -0.15340108291E+02 -0.28302507505E+02  0.10124461552E+03  0.10632166018E+03  0.41800000000E+01 0. -1.
        -11    1    1    2    0    0  0.29885746683E+02 -0.53311372502E+01  0.87695158831E+02  0.92800968538E+02  0.00000000000E+00 0. -1.
         11    1    1    2    0    0 -0.77744752649E+02  0.52527554284E+01  0.12936596083E+03  0.15102115688E+03  0.00000000000E+00 0.  1.
</event>
<event>
 7    1  0.1243146E-005  0.8510298E+02  0.7561462E-02  0.1315163E+00
          2   -1    0    0  501    0  0.00000000000E+00  0.00000000000E+00  0.14631916055E+03  0.14631916055E+03  0.00000000000E+00 0. -1.
         -2   -1    0    0    0  501 -0.00000000000E+00 -0.00000000000E+00 -0.10284320781E+03  0.10284320781E+03  0.00000000000E+00 0.  1.
         23    2    1    2    0    0  0.12348634698E+02  0.47206509723E+02 -0.81836891060E+01  0.13451786997E+03  0.12508853358E+03 0.  0.
          5    1    3    3  502    0 -0.74205969704E+01  0.61687836072E+02 -0.53978106028E+02  0.82410938042E+02  0.41800000000E+01 0. -1.
         -5    1    3    3    0  502  0.19769231669E+02 -0.14481326349E+02  0.45794416922E+02  0.52106931927E+02  0.41800000000E+01 0. -1.
        -11    1    1    2    0    0  0.14528421238E+02 -0.53526511511E+02 -0.68169993499E+00  0.55467352316E+02  0.00000000000E+00 0.  1.
         11    1    1    2    0    0 -0.26877055936E+02  0.63200017880E+01  0.52341341777E+02  0.59177146074E+02  0.00000000000E+00 0. -1.
</event>
<event>
 7    1  0.1243146E-005  0.1049571E+03  0.7561462E-02  0.1270204E+00
          1   -1    0    0  501    0  0.00000000000E+00  0.00000000000E+00  0.21361103038E+03  0.21361103038E+03  0.00000000000E+00 0. -1.
         -1   -1    0    0    0  501 -0.00000000000E+00 -0.00000000000E+00 -0.90863680078E+02  0.90863680078E+02  0.00000000000E+00 0.  1.
         23    2    1    2    0    0 -0.67763954327E+02  0.16527345812E+02  0.10679711617E+02  0.14361898460E+03  0.12508896767E+03 0.  0.
          5    1    3    3  502    0  0.94729206025E+01 -0.12863112179E+02 -0.42270877979E+02  0.45381663750E+02  0.41800000000E+01 0. -1.
         -5    1    3    3    0  502 -0.77236874930E+02  0.29390457991E+02  0.52950589596E+02  0.98237320853E+02  0.41800000000E+01 0. -1.
        -11    1    1    2    0    0  0.69065592026E+02  0.21709430792E+02  0.93715833754E+02  0.11842302514E+03  0.00000000000E+00 0. -1.
         11    1    1    2    0    0 -0.13016376984E+01 -0.38236776604E+02  0.18351804933E+02  0.42432700716E+02  0.00000000000E+00 0.  1.
</event>
<event>
 7    1  0.1243146E-005  0.6227698E+02  0.7561462E-02  0.1388517E+00
          2   -1    0    0  501    0  0.00000000000E+00  0.00000000000E+00  0.43258175838E+02  0.43258175838E+02  0.00000000000E+00 0.  1.
         -2   -1    0    0    0  501 -0.00000000000E+00 -0.00000000000E+00 -0.28373763907E+03  0.28373763907E+03  0.00000000000E+00 0. -1.
         23    2    1    2    0    0  0.23555402803E+02  0.31088532104E+01 -0.15914380783E+03  0.20381409230E+03  0.12509560616E+03 0.  0.
          5    1    3    3  502    0  0.61407260827E+01  0.22679833431E+02 -0.17247912822E+03  0.17412238636E+03  0.41800000000E+01 0.  1.
         -5    1    3    3    0  502  0.17414676720E+02 -0.19570980220E+02  0.13335320384E+02  0.29691705943E+02  0.41800000000E+01 0.  1.
        -11    1    1    2    0    0 -0.27446534904E+02 -0.33620604400E+02 -0.81597311812E+02  0.92421743185E+02  0.00000000000E+00 0. -1.
         11    1    1    2    0    0  0.38911321006E+01  0.30511751189E+02  0.26165641570E+00  0.30759979417E+02  0.00000000000E+00 0.  1.
</event>
<event>
 7    1  0.1243146E-005  0.9816338E+02  0.7561462E-02  0.1284206E+00
         -3   -1    0    0    0  501 -0.00000000000E+00  0.00000000000E+00  0.43643903850E+02  0.43643903850E+02  0.00000000000E+00 0.  1.
          3   -1    0    0  501    0  0.00000000000E+00 -0.00000000000E+00 -0.35678581400E+03  0.35678581400E+03  0.00000000000E+00 0. -1.
         23    2    1    2    0    0 -0.39156366531E+02  0.49369883695E+02 -0.14865817669E+03  0.20431074260E+03  0.12519193101E+03 0.  0.
          5    1    3    3  502    0 -0.73961068270E+02  0.56466202216E+02 -0.65741452462E+02  0.11400913378E+03  0.41800000000E+01 0.  1.
         -5    1    3    3    0  502  0.34804701739E+02 -0.70963185211E+01 -0.82916724231E+02  0.90301608828E+02  0.41800000000E+01 0.  1.
        -11    1    1    2    0    0  0.18939531310E+02 -0.65113334378E+01  0.45757898955E+01  0.20543640440E+02  0.00000000000E+00 0.  1.
         11    1    1    2    0    0  0.20216835221E+02 -0.42858550257E+02 -0.16905952335E+03  0.17557533481E+03  0.00000000000E+00 0. -1.
</event>
<event>
 7    1  0.1243146E-005  0.2192894E+03  0.7561462E-02  0.1134414E+00
          2   -1    0    0  501    0  0.00000000000E+00  0.00000000000E+00  0.27275042452E+03  0.27275042452E+03  0.00000000000E+00 0. -1.
         -2   -1    0    0    0  501 -0.00000000000E+00 -0.00000000000E+00 -0.19903877842E+03  0.19903877842E+03  0.00000000000E+00 0.  1.
         23    2    1    2    0    0 -0.11293602042E+02  0.20457952798E+03  0.28373517288E+02  0.24172970078E+03  0.12509141874E+03 0.  0.
          5    1    3    3  502    0 -0.60317110075E+02  0.13804686896E+03 -0.89086434598E+01  0.15096995770E+03  0.41800000000E+01 0. -1.
         -5    1    3    3    0  502  0.49023508033E+02  0.66532659012E+02  0.37282160748E+02  0.90759743086E+02  0.41800000000E+01 0. -1.
        -11    1    1    2    0    0  0.56709169473E+01 -0.16957335844E+03 -0.35054594034E+01  0.16970436481E+03  0.00000000000E+00 0.  1.
         11    1    1    2    0    0  0.56226850951E+01 -0.35006169536E+02  0.48843588215E+02  0.60355137337E+02  0.00000000000E+00 0. -1.
</event>
<event>
 7    1  0.1243146E-005  0.1246214E+03  0.7561462E-02  0.1235662E+00
          2   -1    0    0  501    0  0.00000000000E+00  0.00000000000E+00  0.11986999773E+03  0.11986999773E+03  0.00000000000E+00 0. -1.
         -2   -1    0    0    0  501 -0.00000000000E+00 -0.00000000000E+00 -0.18243637220E+03  0.18243637220E+03  0.00000000000E+00 0.  1.
         23    2    1    2    0    0  0.88582505462E+02  0.52847731474E+01 -0.80455269529E+02  0.17318880783E+03  0.12508606502E+03 0.  0.
          5    1    3    3  502    0  0.10936235002E+03 -0.14933123567E+02 -0.29358619001E+02  0.11429139378E+03  0.41800000000E+01 0.  1.
         -5    1    3    3    0  502 -0.20779844560E+02  0.20217896715E+02 -0.51096650529E+02  0.58897414058E+02  0.41800000000E+01 0.  1.
        -11    1    1    2    0    0 -0.64170316283E+02  0.26491164871E+02 -0.21752731279E+02  0.72751581606E+02  0.00000000000E+00 0.  1.
         11    1    1    2    0    0 -0.24412189179E+02 -0.31775938018E+02  0.39641626342E+02  0.56365980489E+02  0.00000000000E+00 0. -1.
</event>
<event>
 7    1  0.1243146E-005  0.2254909E+03  0.7561462E-02  0.1129854E+00
         -2   -1    0    0    0  501 -0.00000000000E+00  0.00000000000E+00  0.47157909642E+02  0.47157909642E+02  0.00000000000E+00 0.  1.
          2   -1    0    0  501    0  0.00000000000E+00 -0.00000000000E+00 -0.11224816987E+04  0.11224816987E+04  0.00000000000E+00 0. -1.
         23    2    1    2    0    0 -0.84028357400E+01  0.19671783417E+03 -0.49795227458E+03  0.54988359759E+03  0.12508792591E+03 0.  0.
          5    1    3    3  502    0  0.21591206909E+02  0.19598672649E+03 -0.38031543805E+03  0.42840901250E+03  0.41800000000E+01 0. -1.
         -5    1    3    3    0  502 -0.29994042649E+02  0.73110768205E+00 -0.11763683654E+03  0.12147458509E+03  0.41800000000E+01 0. -1.
        -11    1    1    2    0    0 -0.48812562334E+02 -0.90477872757E+02 -0.22719240033E+03  0.24936980264E+03  0.00000000000E+00 0.  1.
         11    1    1    2    0    0  0.57215398074E+02 -0.10623996141E+03 -0.35017911417E+03  0.37038620813E+03  0.00000000000E+00 0. -1.
</event>
<event>
 7    1  0.1243146E-005  0.2592161E+03  0.7561462E-02  0.1107615E+00
          4   -1    0    0  501    0  0.00000000000E+00  0.00000000000E+00  0.34715871486E+03  0.34715871486E+03  0.00000000000E+00 0. -1.
         -4   -1    0    0    0  501 -0.00000000000E+00 -0.00000000000E+00 -0.22177942557E+03  0.22177942557E+03  0.00000000000E+00 0.  1.
         23    2    1    2    0    0 -0.22911619665E+03 -0.10139780514E+03 -0.12671734147E+01  0.27380202394E+03  0.11040922122E+03 0.  0.
          5    1    3    3  502    0  0.27526102982E+01 -0.96389351278E+01  0.20761962625E+02  0.23431120884E+02  0.41800000000E+01 0. -1.
         -5    1    3    3    0  502 -0.23186880695E+03 -0.91758870015E+02 -0.22029136039E+02  0.25037090305E+03  0.41800000000E+01 0.  1.
        -11    1    1    2    0    0  0.82601942096E+02  0.70131274550E+02  0.90114548387E+02  0.14093299237E+03  0.00000000000E+00 0.  1.
         11    1    1    2    0    0  0.14651425455E+03  0.31266530593E+02  0.36531914317E+02  0.15420312411E+03  0.00000000000E+00 0. -1.
</event>
<event>
 7    1  0.1243146E-005  0.1539240E+03  0.7561462E-02  0.1195733E+00
         -1   -1    0    0    0  501 -0.00000000000E+00  0.00000000000E+00  0.31247691982E+03  0.31247691982E+03  0.00000000000E+00 0.  1.
          1   -1    0    0  501    0  0.00000000000E+00 -0.00000000000E+00 -0.95550165290E+02  0.95550165290E+02  0.00000000000E+00 0. -1.
         23    2    1    2    0    0 -0.12335725685E+03 -0.28284131366E+02  0.16991571292E+03  0.24604010115E+03  0.12508947585E+03 0.  0.
          5    1    3    3  502    0  0.22396534902E+02 -0.15808088019E+02  0.48573164524E+02  0.55931432435E+02  0.41800000000E+01 0. -1.
         -5    1    3    3    0  502 -0.14575379175E+03 -0.12476043348E+02  0.12134254840E+03  0.19010866871E+03  0.41800000000E+01 0. -1.
        -11    1    1    2    0    0  0.22255811070E+02 -0.11587333940E+02  0.47032956714E+02  0.53307470879E+02  0.00000000000E+00 0.  1.
         11    1    1    2    0    0  0.10110144578E+03  0.39871465306E+02 -0.21915109440E-01  0.10867951308E+03  0.00000000000E+00 0. -1.
</event>
<event>
 7    1  0.1243146E-005  0.1368292E+03  0.7561462E-02  0.1217660E+00
         -2   -1    0    0    0  501 -0.00000000000E+00  0.00000000000E+00  0.23150092604E+03  0.23150092604E+03  0.00000000000E+00 0.  1.
          2   -1    0    0  501    0  0.00000000000E+00 -0.00000000000E+00 -0.12519388133E+03  0.12519388133E+03  0.00000000000E+00 0. -1.
         23    2    1    2    0    0 -0.37214526364E+01  0.13016208082E+03  0.76816552895E+02  0.19622711847E+03  0.12509309626E+03 0.  0.
          5    1    3    3  502    0  0.21675310657E+02  0.10395079624E+03  0.10540575987E+03  0.14967776637E+03  0.41800000000E+01 0. -1.
         -5    1    3    3    0  502 -0.25396763294E+02  0.26211284581E+02 -0.28589206979E+02  0.46549352099E+02  0.41800000000E+01 0. -1.
        -11    1    1    2    0    0 -0.38013417305E+01 -0.42176521216E+02 -0.31814932835E+02  0.52966962270E+02  0.00000000000E+00 0. -1.
         11    1    1    2    0    0  0.75227943669E+01 -0.87985559608E+02  0.61305424654E+02  0.10750072663E+03  0.00000000000E+00 0.  1.
</event>
<event>
 6    1  0.1243146E-005  0.1288949E+03  0.7561462E-02  0.1229105E+00
          2   -1    0    0  501    0  0.00000000000E+00  0.00000000000E+00  0.49491456341E+03  0.49491456341E+03  0.00000000000E+00 0. -1.
         -2   -1    0    0    0  501 -0.00000000000E+00 -0.00000000000E+00 -0.46972873501E+02  0.46972873501E+02  0.00000000000E+00 0.  1.
          5    1    1    2  502    0  0.51536058966E+02  0.14059502143E+01  0.68451098452E+02  0.85796080033E+02  0.41800000000E+01 0. -1.
         -5    1    1    2    0  502 -0.71594625144E+02 -0.63537361049E+02  0.49630137452E+02  0.10790463170E+03  0.41800000000E+01 0.  1.
        -11    1    1    2    0    0  0.45754881135E+02  0.69778303325E+02  0.22567289809E+03  0.24060502425E+03  0.00000000000E+00 0. -1.
         11    1    1    2    0    0 -0.25696314956E+02 -0.76468924905E+01  0.10418755592E+03  0.10758170093E+03  0.00000000000E+00 0.  1.
</event>
<event>
 6    1  0.1243146E-005  0.1255194E+03  0.7561462E-02  0.1234260E+00
         -2   -1    0    0    0  501 -0.00000000000E+00  0.00000000000E+00  0.57303595043E+02  0.57303595043E+02  0.00000000000E+00 0.  1.
          2   -1    0    0  501    0  0.00000000000E+00 -0.00000000000E+00 -0.38283448320E+03  0.38283448320E+03  0.00000000000E+00 0. -1.
          5    1    1    2  502    0  0.16070639853E+01 -0.84845139871E+02 -0.15567308680E+03  0.17734954967E+03  0.41800000000E+01 0. -1.
         -5    1    1    2    0  502  0.27851415355E+01  0.77451336760E+02 -0.78696537942E+01  0.78011989015E+02  0.41800000000E+01 0.  1.
        -11    1    1    2    0    0 -0.39922458231E+02  0.26696893424E+02 -0.96949455650E+02  0.10819299303E+03  0.00000000000E+00 0. -1.
         11    1    1    2    0    0  0.35530252710E+02 -0.19303090312E+02 -0.65038691916E+02  0.76583546532E+02  0.00000000000E+00 0.  1.
</event>
<event>
 7    1  0.1822855E-005  0.2833555E+03  0.7561462E-02  0.1093870E+00
          1   -1    0    0  501    0  0.00000000000E+00  0.00000000000E+00  0.59997776710E+02  0.59997776710E+02  0.00000000000E+00 0. -1.
         -1   -1    0    0    0  501 -0.00000000000E+00 -0.00000000000E+00 -0.13967520162E+04  0.13967520162E+04  0.00000000000E+00 0.  1.
         23    2    1    2    0    0  0.80402462046E+02 -0.25136057339E+03 -0.80549019606E+03  0.85680122980E+03  0.12508875925E+03 0.  0.
          5    1    3    3  502    0  0.33030186447E+02 -0.24095599549E+03 -0.68027435390E+03  0.72245515705E+03  0.41800000000E+01 0.  1.
         -5    1    3    3    0  502  0.47372275600E+02 -0.10404577909E+02 -0.12521584216E+03  0.13434607275E+03  0.41800000000E+01 0.  1.
        -11    1    1    2    0    0 -0.65421920349E+02  0.82644010046E+02 -0.25455045826E+03  0.27551042786E+03  0.00000000000E+00 0.  1.
         11    1    1    2    0    0 -0.14980541697E+02  0.16871656335E+03 -0.27671358512E+03  0.32443813520E+03  0.00000000000E+00 0. -1.
</event>
<event>
 7    1  0.1243146E-005  0.1051904E+03  0.7561462E-02  0.1269745E+00
         -1   -1    0    0    0  501 -0.00000000000E+00  0.00000000000E+00  0.48159858643E+02  0.48159858643E+02  0.00000000000E+00 0.  1.
          1   -1    0    0  501    0  0.00000000000E+00 -0.00000000000E+00 -0.32659712400E+03  0.32659712400E+03  0.00000000000E+00 0. -1.
         23    2    1    2    0    0 -0.22760767071E+02 -0.57632865193E+02 -0.14129523944E+03  0.19862346036E+03  0.12508930669E+03 0.  0.
          5    1    3    3  502    0  0.20989367610E+02 -0.81909970695E+02 -0.11232501595E+03  0.14065624216E+03  0.41800000000E+01 0. -1.
         -5    1    3    3    0  502 -0.43750134680E+02  0.24277105502E+02 -0.28970223492E+02  0.57967218195E+02  0.41800000000E+01 0. -1.
        -11    1    1    2    0    0 -0.11265917150E+02  0.28755394365E+02 -0.12655152033E+03  0.13026542477E+03  0.00000000000E+00 0. -1.
         11    1    1    2    0    0  0.34026684221E+02  0.28877470829E+02 -0.10590505589E+02  0.45868097509E+02  0.00000000000E+00 0.  1.
</event>
<event>
 7    1  0.1243146E-005  0.1004157E+03  0.7561462E-02  0.1279424E+00
         -1   -1    0    0    0  501 -0.00000000000E+00  0.00000000000E+00  0.70130233506E+02  0.70130233506E+02  0.00000000000E+00 0.  1.
          1   -1    0    0  501    0  0.00000000000E+00 -0.00000000000E+00 -0.36142930073E+03  0.36142930073E+03  0.00000000000E+00 0. -1.
         23    2    1    2    0    0 -0.70997608494E+02 -0.36034849213E+02 -0.41089653091E+02  0.15386400375E+03  0.12508637532E+03 0.  0.
          5    1    3    3  502    0 -0.54610208555E+02  0.83306793721E+01 -0.76628269031E+02  0.94557068017E+02  0.41800000000E+01 0. -1.
         -5    1    3    3    0  502 -0.16387399939E+02 -0.44365528585E+02  0.35538615940E+02  0.59306935736E+02  0.41800000000E+01 0. -1.
        -11    1    1    2    0    0  0.44680716012E+02  0.50898457223E+02 -0.79979751694E+02  0.10480353053E+03  0.00000000000E+00 0.  1.
         11    1    1    2    0    0  0.26316892482E+02 -0.14863608010E+02 -0.17022966243E+03  0.17289199995E+03  0.00000000000E+00 0. -1.
</event>
<event>
 7    1  0.1243146E-005  0.7963807E+02  0.7561462E-02  0.1330082E+00
         -2   -1    0    0    0  501 -0.00000000000E+00  0.00000000000E+00  0.62370749514E+02  0.62370749514E+02  0.00000000000E+00 0. -1.
          2   -1    0    0  501    0  0.00000000000E+00 -0.00000000000E+00 -0.19469595487E+03  0.19469595487E+03  0.00000000000E+00 0.  1.
         23    2    1    2    0    0  0.41511013182E+01  0.11726663151E+01 -0.67369727825E+02  0.14213966115E+03  0.12508555575E+03 0.  0.
          5    1    3    3  502    0  0.56340726653E+02 -0.23932238781E+02 -0.55798217775E+02  0.82933365057E+02  0.41800000000E+01 0.  1.
         -5    1    3    3    0  502 -0.52189625335E+02  0.25104905096E+02 -0.11571510050E+02  0.59206296095E+02  0.41800000000E+01 0.  1.
        -11    1    1    2    0    0 -0.17973856836E+02 -0.12576081924E+02 -0.85148902310E+02  0.87929249574E+02  0.00000000000E+00 0.  1.
         11    1    1    2    0    0  0.13822755517E+02  0.11403415609E+02  0.20193424784E+02  0.26997793653E+02  0.00000000000E+00 0. -1.
</event>
<event>
 7    1  0.1243146E-005  0.9744877E+02  0.7561462E-02  0.1285754E+00
          1   -1    0    0  501    0  0.00000000000E+00  0.00000000000E+00  0.38755096947E+03  0.38755096947E+03  0.00000000000E+00 0. -1.
         -1   -1    0    0    0  501 -0.00000000000E+00 -0.00000000000E+00 -0.31918609112E+02  0.31918609112E+02  0.00000000000E+00 0.  1.
         23    2    1    2    0    0 -0.13611828169E+02 -0.11168372125E+02  0.17301789898E+03  0.21422576531E+03  0.12508985072E+03 0.  0.
          5    1    3    3  502    0  0.94694691613E+01 -0.65195205323E+02  0.75380734556E+02  0.10019886818E+03  0.41800000000E+01 0. -1.
         -5    1    3    3    0  502 -0.23081297331E+02  0.54026833198E+02  0.97637164419E+02  0.11402689712E+03  0.41800000000E+01 0. -1.
        -11    1    1    2    0    0 -0.27160666927E+02  0.10753311782E+02  0.15189029440E+02  0.32924795482E+02  0.00000000000E+00 0.  1.
         11    1    1    2    0    0  0.40772495096E+02  0.41506034269E+00  0.16742543195E+03  0.17231901780E+03  0.00000000000E+00 0. -1.
</event>
<event>
 7    1  0.1243146E-005  0.7062196E+02  0.7561462E-02  0.1357991E+00
          1   -1    0    0  501    0  0.00000000000E+00  0.00000000000E+00  0.17170294284E+03  0.17170294284E+03  0.00000000000E+00 0. -1.
         -1   -1    0    0    0  501 -0.00000000000E+00 -0.00000000000E+00 -0.11318857796E+03  0.11318857796E+03  0.00000000000E+00 0.  1.
         23    2    1    2    0    0  0.88271654845E+01 -0.20127407903E+02 -0.63290843749E+02  0.13222400660E+03  0.11399309461E+03 0.  0.
          5    1    3    3  502    0  0.31819155404E+02 -0.30664356880E+02  0.17311318820E+02  0.47643631188E+02  0.41800000000E+01 0. -1.
         -5    1    3    3    0  502 -0.22991989919E+02  0.10536948977E+02 -0.80602162569E+02  0.84580375413E+02  0.41800000000E+01 0.  1.
        -11    1    1    2    0    0 -0.21119915372E+02 -0.20101522050E+02  0.10216333779E+03  0.10624250375E+03  0.00000000000E+00 0.  1.
         11    1    1    2    0    0  0.12292749888E+02  0.40228929953E+02  0.19641870840E+02  0.46425010447E+02  0.00000000000E+00 0. -1.
</event>
<event>
 7    1  0.1243146E-005  0.1735199E+03  0.7561462E-02  0.1174226E+00
          1   -1    0    0  501    0  0.00000000000E+00  0.00000000000E+00  0.11512965278E+04  0.11512965278E+04  0.00000000000E+00 0. -1.
         -1   -1    0    0    0  501 -0.00000000000E+00 -0.00000000000E+00 -0.28141847926E+02  0.28141847926E+02  0.00000000000E+00 0.  1.
         23    2    1    2    0    0  0.74426266956E+02 -0.12355006496E+03  0.56727191151E+03  0.59853888323E+03  0.12508990922E+03 0.  0.
          5    1    3    3  502    0  0.95329232928E+02 -0.52503774500E+02  0.24968485352E+03  0.27240467592E+03  0.41800000000E+01 0.  1.
         -5    1    3    3    0  502 -0.20902965972E+02 -0.71046290458E+02  0.31758705799E+03  0.32613420731E+03  0.41800000000E+01 0.  1.
        -11    1    1    2    0    0 -0.80451316884E+01  0.88540166475E+02  0.23239001226E+03  0.24881560044E+03  0.00000000000E+00 0.  1.
         11    1    1    2    0    0 -0.66381135267E+02  0.35009898482E+02  0.32349275606E+03  0.33208389202E+03  0.00000000000E+00 0. -1.
</event>
<event>
 7    1  0.1243146E-005  0.1767662E+03  0.7561462E-02  0.1170970E+00
         -4   -1    0    0    0  501 -0.00000000000E+00  0.00000000000E+00  0.18200342609E+03  0.18200342609E+03  0.00000000000E+00 0.  1.
          4   -1    0    0  501    0  0.00000000000E+00 -0.00000000000E+00 -0.24579696481E+03  0.24579696481E+03  0.00000000000E+00 0. -1.
         23    2    1    2    0    0 -0.19902053252E+02  0.16703188502E+03  0.35160435752E+02  0.21256373178E+03  0.12510532158E+03 0.  0.
          5    1    3    3  502    0  0.94710004807E+00  0.13484012969E+03 -0.28725084407E+02  0.13793244886E+03  0.41800000000E+01 0.  1.
         -5    1    3    3    0  502 -0.20849153300E+02  0.32191755334E+02  0.63885520159E+02  0.74631282923E+02  0.41800000000E+01 0.  1.
        -11    1    1    2    0    0 -0.22996721546E+02 -0.76130372092E+02 -0.84420367805E+01  0.79974688131E+02  0.00000000000E+00 0.  1.
         11    1    1    2    0    0  0.42898774797E+02 -0.90901512933E+02 -0.90511937686E+02  0.13526197099E+03  0.00000000000E+00 0. -1.
</event>
<event>
 7    1  0.1243146E-005  0.9628026E+02  0.7561462E-02  0.1288318E+00
          2   -1    0    0  501    0  0.00000000000E+00  0.00000000000E+00  0.57822725701E+02  0.57822725701E+02  0.00000000000E+00 0. -1.
         -2   -1    0    0    0  501 -0.00000000000E+00 -0.00000000000E+00 -0.23149775942E+03  0.23149775942E+03  0.00000000000E+00 0.  1.
         23    2    1    2    0    0  0.37706799446E+02  0.10651233097E+02 -0.11296800008E+03  0.17304884751E+03  0.12509549588E+03 0.  0.
          5    1    3    3  502    0  0.81950626599E+02  0.10143660753E+02 -0.52266626789E+02  0.97816520738E+02  0.41800000000E+01 0. -1.
         -5    1    3    3    0  502 -0.44243827154E+02  0.50757234483E+00 -0.60701373296E+02  0.75232326768E+02  0.41800000000E+01 0. -1.
        -11    1    1    2    0    0 -0.48094586734E+02 -0.19394116150E+02  0.22114958957E+01  0.51904833383E+02  0.00000000000E+00 0. -1.
         11    1    1    2    0    0  0.10387787289E+02  0.87428830524E+01 -0.62918529530E+02  0.64366804232E+02  0.00000000000E+00 0.  1.
</event>
<event>
 7    1  0.1243146E-005  0.1109552E+03  0.7561462E-02  0.1258811E+00
         -2   -1    0    0    0  501 -0.00000000000E+00  0.00000000000E+00  0.54013739520E+02  0.54013739520E+02  0.00000000000E+00 0.  1.
          2   -1    0    0  501    0  0.00000000000E+00 -0.00000000000E+00 -0.29151706338E+03  0.29151706338E+03  0.00000000000E+00 0. -1.
         23    2    1    2    0    0 -0.61853786809E+02 -0.10368149191E+02 -0.13017153051E+03  0.19112244455E+03  0.12509904873E+03 0.  0.
          5    1    3    3  502    0 -0.91678200102E+02  0.12762137285E+02 -0.12037484976E+03  0.15190569896E+03  0.41800000000E+01 0.  1.
         -5    1    3    3    0  502  0.29824413292E+02 -0.23130286476E+02 -0.97966807564E+01  0.39216745588E+02  0.41800000000E+01 0.  1.
        -11    1    1    2    0    0 -0.14090937332E+02 -0.23273137299E+01  0.75150981317E+01  0.16138389140E+02  0.00000000000E+00 0.  1.
         11    1    1    2    0    0  0.75944724142E+02  0.12695462921E+02 -0.11484689147E+03  0.13826996921E+03  0.00000000000E+00 0. -1.
</event>
<event>
 7    1  0.1243146E-005  0.6177867E+02  0.7561462E-02  0.1390515E+00
         -1   -1    0    0    0  501 -0.00000000000E+00  0.00000000000E+00  0.13077157194E+03  0.13077157194E+03  0.00000000000E+00 0.  1.
          1   -1    0    0  501    0  0.00000000000E+00 -0.00000000000E+00 -0.11919750887E+03  0.11919750887E+03  0.00000000000E+00 0. -1.
         23    2    1    2    0    0 -0.53437988774E+00  0.24679413515E+02  0.78945493435E+02  0.13794384617E+03  0.11039363546E+03 0.  0.
          5    1    3    3  502    0  0.10370625198E+02  0.80830288634E+01 -0.26867183891E+02  0.30202701747E+02  0.41800000000E+01 0. -1.
         -5    1    3    3    0  502 -0.10905005086E+02  0.16596384651E+02  0.10581267733E+03  0.10774114443E+03  0.41800000000E+01 0.  1.
        -11    1    1    2    0    0 -0.80700364957E+00 -0.57056316996E+02 -0.41433935142E+02  0.70518405721E+02  0.00000000000E+00 0. -1.
         11    1    1    2    0    0  0.13413835373E+01  0.32376903481E+02 -0.25937495218E+02  0.41506828920E+02  0.00000000000E+00 0.  1.
</event>
<event>
 7    1  0.1243146E-005  0.1004699E+03  0.7561462E-02  0.1279311E+00
          2   -1    0    0  501    0  0.00000000000E+00  0.00000000000E+00  0.13795034144E+02  0.13795034144E+02  0.00000000000E+00 0. -1.
         -2   -1    0    0    0  501 -0.00000000000E+00 -0.00000000000E+00 -0.83283392042E+03  0.83283392042E+03  0.00000000000E+00 0.  1.
         23    2    1    2    0    0 -0.13224664610E+02  0.74682217132E+01 -0.45069661714E+03  0.46798055648E+03  0.12509074487E+03 0.  0.
          5    1    3    3  502    0 -0.12223478656E+02  0.61270555150E+02 -0.15109967045E+03  0.16356062231E+03  0.41800000000E+01 0.  1.
         -5    1    3    3    0  502 -0.10011859531E+01 -0.53802333437E+02 -0.29959694668E+03  0.30441993417E+03  0.41800000000E+01 0.  1.
        -11    1    1    2    0    0 -0.35395780545E+02 -0.33485426608E+01 -0.10590969955E+03  0.11171812063E+03  0.00000000000E+00 0.  1.
         11    1    1    2    0    0  0.48620445155E+02 -0.41196790524E+01 -0.26243256959E+03  0.26693027746E+03  0.00000000000E+00 0. -1.
</event>
<event>
 7    1  0.1243146E-005  0.1368928E+03  0.7561462E-02  0.1217572E+00
          2   -1    0    0  501    0  0.00000000000E+00  0.00000000000E+00  0.80901066739E+02  0.80901066739E+02  0.00000000000E+00 0. -1.
         -2   -1    0    0    0  501 -0.00000000000E+00 -0.00000000000E+00 -0.25072513350E+03  0.25072513350E+03  0.00000000000E+00 0.  1.
         23    2    1    2    0    0  0.41514086144E+02  0.78393593948E+02 -0.10886748785E+03  0.18806524649E+03  0.12508969624E+03 0.  0.
          5    1    3    3  502    0  0.61811047080E+02  0.98510818256E+02 -0.10861235335E+03  0.15918260757E+03  0.41800000000E+01 0. -1.
         -5    1    3    3    0  502 -0.20296960936E+02 -0.20117224308E+02 -0.25513450119E+00  0.28882638916E+02  0.41800000000E+01 0. -1.
        -11    1    1    2    0    0 -0.71396856064E+02 -0.48839218655E+02 -0.30761812088E+02  0.91809963608E+02  0.00000000000E+00 0.  1.
         11    1    1    2    0    0  0.29882769921E+02 -0.29554375293E+02 -0.30194766826E+02  0.51750990143E+02  0.00000000000E+00 0. -1.
</event>
<event>
 7    1  0.1243146E-005  0.1615775E+03  0.7561462E-02  0.1186927E+00
         -1   -1    0    0    0  501 -0.00000000000E+00  0.00000000000E+00  0.65986356924E+02  0.65986356924E+02  0.00000000000E+00 0.  1.
          1   -1    0    0  501    0  0.00000000000E+00 -0.00000000000E+00 -0.49021327558E+03  0.49021327558E+03  0.00000000000E+00 0. -1.
         23    2    1    2    0    0 -0.38864704507E+02 -0.13771006076E+03 -0.21306127431E+03  0.28551109882E+03  0.12508778857E+03 0.  0.
          5    1    3    3  502    0  0.97302087225E+01 -0.88912632348E+02 -0.19441227374E+03  0.21404143929E+03  0.41800000000E+01 0. -1.
         -5    1    3    3    0  502 -0.48594913230E+02 -0.48797428407E+02 -0.18649000569E+02  0.71469659529E+02  0.41800000000E+01 0. -1.
        -11    1    1    2    0    0  0.38873387582E+00  0.12365781292E+03 -0.18343281978E+03  0.22122162006E+03  0.00000000000E+00 0.  1.
         11    1    1    2    0    0  0.38475970631E+02  0.14052247834E+02 -0.27732824573E+02  0.49466913630E+02  0.00000000000E+00 0. -1.
</event>
<event>
 6    1  0.1243146E-005  0.3652116E+03  0.7561462E-02  0.1056539E+00
         -1   -1    0    0    0  501 -0.00000000000E+00  0.00000000000E+00  0.91945890536E+02  0.91945890536E+02  0.00000000000E+00 0. -1.
          1   -1    0    0  501    0  0.00000000000E+00 -0.00000000000E+00 -0.17752272209E+04  0.17752272209E+04  0.00000000000E+00 0.  1.
          5    1    1    2  502    0  0.10964337071E+03  0.40619418770E+02 -0.48713736799E+03  0.50099091170E+03  0.41800000000E+01 0.  1.
         -5    1    1    2    0  502  0.22695619008E+03  0.11348697939E+02 -0.42373938221E+03  0.48084346891E+03  0.41800000000E+01 0. -1.
        -11    1    1    2    0    0  0.22519390027E+02  0.34261720177E+01  0.82768655127E+01  0.24235677928E+02  0.00000000000E+00 0. -1.
         11    1    1    2    0    0 -0.35911895082E+03 -0.55394288727E+02 -0.78068144569E+03  0.86110305290E+03  0.00000000000E+00 0.  1.
</event>
<event>
 7    1  0.1275510E-005  0.4443775E+03  0.7561462E-02  0.1029412E+00
         -2   -1    0    0    0  501 -0.00000000000E+00  0.00000000000E+00  0.95065778312E+02  0.95065778312E+02  0.00000000000E+00 0.  1.
          2   -1    0    0  501    0  0.00000000000E+00 -0.00000000000E+00 -0.21275458980E+04  0.21275458980E+04  0.00000000000E+00 0. -1.
         23    2    1    2    0    0  0.26083032104E+03 -0.34906368753E+03 -0.10727916859E+04  0.11646495180E+04  0.12509430129E+03 0.  0.
          5    1    3    3  502    0 -0.12202382142E+02 -0.52126421315E+01 -0.25776439367E+02  0.29291073629E+02  0.41800000000E+01 0. -1.
         -5    1    3    3    0  502  0.27303270318E+03 -0.34385104540E+03 -0.10470152465E+04  0.11353584444E+04  0.41800000000E+01 0. -1.
        -11    1    1    2    0    0 -0.11951122357E+03  0.16179561074E+03 -0.33599704668E+03  0.39160537227E+03  0.00000000000E+00 0.  1.
         11    1    1    2    0    0 -0.14131909747E+03  0.18726807679E+03 -0.62369138715E+03  0.66635678604E+03  0.00000000000E+00 0. -1.
</event>
<event>
 6    1  0.1243146E-005  0.2727037E+03  0.7561462E-02  0.1099742E+00
          1   -1    0    0  501    0  0.00000000000E+00  0.00000000000E+00  0.11311170035E+04  0.11311170035E+04  0.00000000000E+00 0. -1.
         -1   -1    0    0    0  501 -0.00000000000E+00 -0.00000000000E+00 -0.79089237575E+02  0.79089237575E+02  0.00000000000E+00 0.  1.
          5    1    1    2  502    0  0.20312548990E+02  0.26749299619E+02  0.14995509343E+03  0.15372744427E+03  0.41800000000E+01 0. -1.
         -5    1    1    2    0  502 -0.66278709597E+02  0.23571069628E+03  0.27022601693E+03  0.36468064428E+03  0.41800000000E+01 0.  1.
        -11    1    1    2    0    0  0.84640700487E+01 -0.28628173319E+02  0.20579348695E+02  0.36259100679E+02  0.00000000000E+00 0.  1.
         11    1    1    2    0    0  0.37502090559E+02 -0.23383182258E+03  0.61126730685E+03  0.65553905183E+03  0.00000000000E+00 0. -1.
</event>
<event>
 7    1  0.1243146E-005  0.1077994E+03  0.7561462E-02  0.1264700E+00
         -3   -1    0    0    0  501 -0.00000000000E+00  0.00000000000E+00  0.70086337642E+02  0.70086337642E+02  0.00000000000E+00 0.  1.
          3   -1    0    0  501    0  0.00000000000E+00 -0.00000000000E+00 -0.23723835696E+03  0.23723835696E+03  0.00000000000E+00 0. -1.
         23    2    1    2    0    0 -0.27886540341E+02  0.65726571155E+02 -0.81983862200E+02  0.16572903149E+03  0.12508843643E+03 0.  0.
          5    1    3    3  502    0 -0.50810337272E+02  0.93781898134E+02 -0.53187497946E+02  0.11926071075E+03  0.41800000000E+01 0. -1.
         -5    1    3    3    0  502  0.22923796931E+02 -0.28055326979E+02 -0.28796364254E+02  0.46468320735E+02  0.41800000000E+01 0. -1.
        -11    1    1    2    0    0  0.25987827693E+02 -0.48232933444E+02 -0.10292365250E+03  0.11659786148E+03  0.00000000000E+00 0. -1.
         11    1    1    2    0    0  0.18987126475E+01 -0.17493637711E+02  0.17755495388E+02  0.24997801634E+02  0.00000000000E+00 0.  1.
</event>
<event>
 7    1  0.1243146E-005  0.9148626E+02  0.7561462E-02  0.1299292E+00
         -3   -1    0    0    0  501 -0.00000000000E+00  0.00000000000E+00  0.14619659037E+03  0.14619659037E+03  0.00000000000E+00 0. -1.
          3   -1    0    0  501    0  0.00000000000E+00 -0.00000000000E+00 -0.13379208775E+03  0.13379208775E+03  0.00000000000E+00 0.  1.
         23    2    1    2    0    0 -0.47206654077E+02  0.46458921320E+02  0.65759113654E+02  0.15607820872E+03  0.12509694900E+03 0.  0.
          5    1    3    3  502    0 -0.52239970203E+01 -0.52433012280E+01  0.85941756084E+02  0.86361103463E+02  0.41800000000E+01 0. -1.
         -5    1    3    3    0  502 -0.41982657056E+02  0.51702222548E+02 -0.20182642430E+02  0.69717105257E+02  0.41800000000E+01 0. -1.
        -11    1    1    2    0    0  0.64368684738E+02 -0.70461382985E+01 -0.47972855412E+02  0.80587657220E+02  0.00000000000E+00 0. -1.
         11    1    1    2    0    0 -0.17162030661E+02 -0.39412783022E+02 -0.53817556191E+01  0.43322812183E+02  0.00000000000E+00 0.  1.
</event>
<event>
 7    1  0.1243146E-005  0.8397130E+02  0.7561462E-02  0.1318145E+00
         -2   -1    0    0    0  501 -0.00000000000E+00  0.00000000000E+00  0.58693593697E+02  0.58693593697E+02  0.00000000000E+00 0.  1.
          2   -1    0    0  501    0  0.00000000000E+00 -0.00000000000E+00 -0.28606027753E+03  0.28606027753E+03  0.00000000000E+00 0. -1.
         23    2    1    2    0    0  0.15907520247E+02  0.64595202503E+02 -0.89648244740E+02  0.16765866677E+03  0.12508809444E+03 0.  0.
          5    1    3    3  502    0 -0.85074062578E+01  0.56473718704E+02 -0.11676104437E+03  0.13004718662E+03  0.41800000000E+01 0. -1.
         -5    1    3    3    0  502  0.24414926505E+02  0.81214837993E+01  0.27112799627E+02  0.37611480148E+02  0.41800000000E+01 0. -1.
        -11    1    1    2    0    0  0.85543641730E+01  0.56345480091E+01  0.83299377250E+01  0.13202770170E+02  0.00000000000E+00 0.  1.
         11    1    1    2    0    0 -0.24461884420E+02 -0.70229750512E+02 -0.14604837682E+03  0.16389243429E+03  0.00000000000E+00 0. -1.
</event>
<event>
 6    1  0.1243146E-005  0.2051388E+03  0.7561462E-02  0.1145474E+00
         -2   -1    0    0    0  501 -0.00000000000E+00  0.00000000000E+00  0.13771745898E+03  0.13771745898E+03  0.00000000000E+00 0.  1.
          2   -1    0    0  501    0  0.00000000000E+00 -0.00000000000E+00 -0.32436688049E+03  0.32436688049E+03  0.00000000000E+00 0. -1.
          5    1    1    2  502    0 -0.11236902088E+03 -0.14574909582E+03 -0.13870440343E+03  0.23049073673E+03  0.41800000000E+01 0. -1.
         -5    1    1    2    0  502  0.30283408451E+02 -0.11803629136E+02 -0.32664976198E+01  0.32932550689E+02  0.41800000000E+01 0.  1.
        -11    1    1    2    0    0  0.65172845282E+02  0.16308754660E+03 -0.38285331779E+02  0.17975209108E+03  0.00000000000E+00 0.  1.
         11    1    1    2    0    0  0.16912767149E+02 -0.55348216498E+01 -0.63931886802E+01  0.18908960967E+02  0.00000000000E+00 0. -1.
</event>
<event>
 7    1  0.1243146E-005  0.1283835E+03  0.7561462E-02  0.1229874E+00
         -1   -1    0    0    0  501 -0.00000000000E+00  0.00000000000E+00  0.20303034306E+02  0.20303034306E+02  0.00000000000E+00 0.  1.
          1   -1    0    0  501    0  0.00000000000E+00 -0.00000000000E+00 -0.96981490246E+03  0.96981490246E+03  0.00000000000E+00 0. -1.
         23    2    1    2    0    0  0.15969668444E+02  0.85558255434E+02 -0.42756064772E+03  0.45390664137E+03  0.12509151139E+03 0.  0.
          5    1    3    3  502    0  0.47355122866E+02  0.44227027198E+01 -0.62778483050E+02  0.78871276743E+02  0.41800000000E+01 0. -1.
         -5    1    3    3    0  502 -0.31385454422E+02  0.81135552714E+02 -0.36478216467E+03  0.37503536463E+03  0.41800000000E+01 0. -1.
        -11    1    1    2    0    0 -0.48250907680E+02 -0.72536881656E+02 -0.34178931285E+03  0.35271756927E+03  0.00000000000E+00 0.  1.
         11    1    1    2    0    0  0.32281239236E+02 -0.13021373778E+02 -0.18016190758E+03  0.18349372612E+03  0.00000000000E+00 0. -1.
</event>
<event>
 7    1  0.1243146E-005  0.2281298E+03  0.7561462E-02  0.1127963E+00
         -2   -1    0    0    0  501 -0.00000000000E+00  0.00000000000E+00  0.26902157435E+03  0.26902157435E+03  0.00000000000E+00 0. -1.
          2   -1    0    0  501    0  0.00000000000E+00 -0.00000000000E+00 -0.36617557268E+03  0.36617557268E+03  0.00000000000E+00 0.  1.
         23    2    1    2    0    0  0.16000936547E+03  0.14634327878E+03  0.15151567376E+03  0.29261520349E+03  0.12508919072E+03 0.  0.
          5    1    3    3  502    0  0.54585685309E+02  0.25393404054E+02  0.11215233144E+03  0.12735792028E+03  0.41800000000E+01 0. -1.
         -5    1    3    3    0  502  0.10542368017E+03  0.12094987472E+03  0.39363342321E+02  0.16525728321E+03  0.41800000000E+01 0. -1.
        -11    1    1    2    0    0  0.11458856389E+02 -0.17551720841E+02 -0.18036155459E+02  0.27652688801E+02  0.00000000000E+00 0. -1.
         11    1    1    2    0    0 -0.17146822186E+03 -0.12879155794E+03 -0.23063351663E+03  0.31492925475E+03  0.00000000000E+00 0.  1.
</event>
<event>
 7    1  0.1243146E-005  0.1005050E+03  0.7561462E-02  0.1279237E+00
         -1   -1    0    0    0  501 -0.00000000000E+00  0.00000000000E+00  0.24970110192E+03  0.24970110192E+03  0.00000000000E+00 0.  1.
          1   -1    0    0  501    0  0.00000000000E+00 -0.00000000000E+00 -0.54506622233E+02  0.54506622233E+02  0.00000000000E+00 0. -1.
         23    2    1    2    0    0 -0.42442488151E+02 -0.22223467537E+01  0.14771298278E+03  0.19480180878E+03  0.11967587810E+03 0.  0.
          5    1    3    3  502    0  0.24999965028E+02  0.25836936151E+02  0.79667331091E+01  0.37060582261E+02  0.41800000000E+01 0. -1.
         -5    1    3    3    0  502 -0.67442453179E+02 -0.28059282905E+02  0.13974624967E+03  0.15774122652E+03  0.41800000000E+01 0.  1.
        -11    1    1    2    0    0 -0.22181587281E+02 -0.12371518624E+02  0.32909993861E+02  0.41570963223E+02  0.00000000000E+00 0.  1.
         11    1    1    2    0    0  0.64624075432E+02  0.14593865377E+02  0.14571503050E+02  0.67834952150E+02  0.00000000000E+00 0. -1.
</event>
<event>
 7    1  0.1243146E-005  0.1048856E+03  0.7561462E-02  0.1270345E+00
         -3   -1    0    0    0  501 -0.00000000000E+00  0.00000000000E+00  0.48469087341E+03  0.48469087341E+03  0.00000000000E+00 0.  1.
          3   -1    0    0  501    0  0.00000000000E+00 -0.00000000000E+00 -0.39915867243E+02  0.39915867243E+02  0.00000000000E+00 0. -1.
         23    2    1    2    0    0  0.60818675313E+02  0.30050416295E+02  0.34351137273E+03  0.37181859066E+03  0.12508821837E+03 0.  0.
          5    1    3    3  502    0  0.68734041037E+02  0.57880722258E+02  0.14129637568E+03  0.16750129727E+03  0.41800000000E+01 0. -1.
         -5    1    3    3    0  502 -0.79153657239E+01 -0.27830305963E+02  0.20221499705E+03  0.20431729339E+03  0.41800000000E+01 0. -1.
        -11    1    1    2    0    0 -0.26143505984E+02 -0.45612845865E+02  0.10202391053E+03  0.11477322394E+03  0.00000000000E+00 0.  1.
         11    1    1    2    0    0 -0.34675169329E+02  0.15562429570E+02 -0.76027709544E+00  0.38014926061E+02  0.00000000000E+00 0. -1.
</event>
<event>
 6    1  0.1243146E-005  0.1224418E+03  0.7561462E-02  0.1239122E+00
          1   -1    0    0  501    0  0.00000000000E+00  0.00000000000E+00  0.19575520509E+03  0.19575520509E+03  0.00000000000E+00 0. -1.
         -1   -1    0    0    0  501 -0.00000000000E+00 -0.00000000000E+00 -0.29523074596E+03  0.29523074596E+03  0.00000000000E+00 0.  1.
          5    1    1    2  502    0 -0.65240774267E+02 -0.15447424501E+02 -0.53109304214E+02  0.85633242055E+02  0.41800000000E+01 0. -1.
         -5    1    1    2    0  502  0.79645707005E+02  0.35402758763E+02 -0.20416717677E+03  0.22203266076E+03  0.41800000000E+01 0.  1.
        -11    1    1    2    0    0 -0.50047054141E+02 -0.94911004567E+00  0.64453375371E+02  0.81607879735E+02  0.00000000000E+00 0. -1.
         11    1    1    2    0    0  0.35642121403E+02 -0.19006224217E+02  0.93347564750E+02  0.10171216850E+03  0.00000000000E+00 0.  1.
</event>
<event>
 7    1  0.1243146E-005  0.1525854E+03  0.7561462E-02  0.1197332E+00
          3   -1    0    0  501    0  0.00000000000E+00  0.00000000000E+00  0.26054463110E+03  0.26054463110E+03  0.00000000000E+00 0. -1.
         -3   -1    0    0    0  501 -0.00000000000E+00 -0.00000000000E+00 -0.97258095204E+02  0.97258095204E+02  0.00000000000E+00 0.  1.
         23    2    1    2    0    0  0.11287302335E+03 -0.98891256403E+01  0.57301459504E+02  0.17823745839E+03  0.12508804941E+03 0.  0.
          5    1    3    3  502    0  0.47657042549E+02 -0.60812547150E+02 -0.22639216253E+00  0.77374952334E+02  0.41800000000E+01 0. -1.
         -5    1    3    3    0  502  0.65215980801E+02  0.50923421509E+02  0.57527851666E+02  0.10086250605E+03  0.41800000000E+01 0. -1.
        -11    1    1    2    0    0 -0.19989211727E+02 -0.36128648110E+02  0.30723380408E+02  0.51466240424E+02  0.00000000000E+00 0.  1.
         11    1    1    2    0    0 -0.92883811623E+02  0.46017773750E+02  0.75261695989E+02  0.12809902750E+03  0.00000000000E+00 0. -1.
</event>
<event>
 6    1  0.1243146E-005  0.1048610E+03  0.7561462E-02  0.1270394E+00
          2   -1    0    0  501    0  0.00000000000E+00  0.00000000000E+00  0.15820298679E+03  0.15820298679E+03  0.00000000000E+00 0. -1.
         -2   -1    0    0    0  501 -0.00000000000E+00 -0.00000000000E+00 -0.22478096985E+03  0.22478096985E+03  0.00000000000E+00 0.  1.
          5    1    1    2  502    0 -0.88006251338E+01  0.87876289650E+02  0.35860617799E+02  0.95410427073E+02  0.41800000000E+01 0. -1.
         -5    1    1    2    0  502  0.24785378294E+02 -0.57132147267E+02 -0.16146441673E+03  0.17310871584E+03  0.41800000000E+01 0.  1.
        -11    1    1    2    0    0  0.15990869710E+02 -0.18982484746E+02 -0.17719872304E+02  0.30496500057E+02  0.00000000000E+00 0.  1.
         11    1    1    2    0    0 -0.31975622870E+02 -0.11761657636E+02  0.76745688176E+02  0.83968313678E+02  0.00000000000E+00 0. -1.
</event>
<event>
 7    1  0.1243146E-005  0.9320399E+02  0.7561462E-02  0.1295273E+00
         -1   -1    0    0    0  501 -0.00000000000E+00  0.00000000000E+00  0.30762440423E+03  0.30762440423E+03  0.00000000000E+00 0.  1.
          1   -1    0    0  501    0  0.00000000000E+00 -0.00000000000E+00 -0.47880307152E+02  0.47880307152E+02  0.00000000000E+00 0. -1.
         23    2    1    2    0    0  0.19921127262E+02 -0.44782832431E+02  0.17179208846E+03  0.21808916881E+03  0.12509200816E+03 0.  0.
          5    1    3    3  502    0  0.28175007111E+02 -0.78248095315E+02  0.16178157202E+03  0.18195423846E+03  0.41800000000E+01 0.  1.
         -5    1    3    3    0  502 -0.82538798490E+01  0.33465262884E+02  0.10010516432E+02  0.36134930354E+02  0.41800000000E+01 0.  1.
        -11    1    1    2    0    0  0.23171404846E+01  0.46081899426E+02 -0.55988165167E+00  0.46143515928E+02  0.00000000000E+00 0. -1.
         11    1    1    2    0    0 -0.22238267746E+02 -0.12990669952E+01  0.88511890278E+02  0.91272026646E+02  0.00000000000E+00 0.  1.
</event>
<event>
 7    1  0.1243146E-005  0.1007465E+03  0.7561462E-02  0.1278734E+00
          2   -1    0    0  501    0  0.00000000000E+00  0.00000000000E+00  0.46367359623E+03  0.46367359623E+03  0.00000000000E+00 0.  1.
         -2   -1    0    0    0  501 -0.00000000000E+00 -0.00000000000E+00 -0.30751808647E+02  0.30751808647E+02  0.00000000000E+00 0. -1.
         23    2    1    2    0    0 -0.12164156285E+02 -0.50565721797E+02  0.21022910456E+03  0.25009623860E+03  0.12508794202E+03 0.  0.
          5    1    3    3  502    0  0.39764547476E+02  0.30733217918E+01  0.18230601433E+02  0.44051013285E+02  0.41800000000E+01 0.  1.
         -5    1    3    3    0  502 -0.51928703761E+02 -0.53639043589E+02  0.19199850313E+03  0.20604522531E+03  0.41800000000E+01 0.  1.
        -11    1    1    2    0    0  0.13220125000E+02 -0.15596994831E+02  0.12494292022E+02  0.23961328968E+02  0.00000000000E+00 0. -1.
         11    1    1    2    0    0 -0.10559687157E+01  0.66162716628E+02  0.21019839100E+03  0.22036783731E+03  0.00000000000E+00 0.  1.
</event>
<event>
 7    1  0.1243146E-005  0.1257090E+03  0.7561462E-02  0.1233965E+00
          1   -1    0    0  501    0  0.00000000000E+00  0.00000000000E+00  0.59700513554E+02  0.59700513554E+02  0.00000000000E+00 0. -1.
         -1   -1    0    0    0  501 -0.00000000000E+00 -0.00000000000E+00 -0.33451128634E+03  0.33451128634E+03  0.00000000000E+00 0.  1.
         23    2    1    2    0    0 -0.80327697052E+02  0.77355753961E+01 -0.20542782901E+03  0.25368949469E+03  0.12508152839E+03 0.  0.
          5    1    3    3  502    0 -0.19730160610E+02 -0.52874651008E+02 -0.47195526531E+02  0.73687842154E+02  0.41800000000E+01 0. -1.
         -5    1    3    3    0  502 -0.60597536442E+02  0.60610226404E+02 -0.15823230248E+03  0.18000165253E+03  0.41800000000E+01 0. -1.
        -11    1    1    2    0    0  0.10464742661E+02  0.28469446528E+02 -0.51594203968E+02  0.59849662553E+02  0.00000000000E+00 0.  1.
         11    1    1    2    0    0  0.69862954391E+02 -0.36205021924E+02 -0.17788739810E+02  0.80672642654E+02  0.00000000000E+00 0. -1.
</event>
<event>
 7    1  0.1243146E-005  0.1128001E+03  0.7561462E-02  0.1255471E+00
         -1   -1    0    0    0  501 -0.00000000000E+00  0.00000000000E+00  0.27611899983E+02  0.27611899983E+02  0.00000000000E+00 0.  1.
          1   -1    0    0  501    0  0.00000000000E+00 -0.00000000000E+00 -0.58571742796E+03  0.58571742796E+03  0.00000000000E+00 0. -1.
         23    2    1    2    0    0 -0.37723322582E+02  0.54439048998E+02 -0.28831146588E+03  0.32118033017E+03  0.12508654607E+03 0.  0.
          5    1    3    3  502    0  0.28274426161E+02 -0.37985850075E+01 -0.17640037352E+03  0.17874125601E+03  0.41800000000E+01 0. -1.
         -5    1    3    3    0  502 -0.65997748743E+02  0.58237634005E+02 -0.11191109236E+03  0.14243907416E+03  0.41800000000E+01 0. -1.
        -11    1    1    2    0    0  0.41593932931E+02 -0.76056958641E+02 -0.18112773708E+03  0.20080332008E+03  0.00000000000E+00 0.  1.
         11    1    1    2    0    0 -0.38706103489E+01  0.21617909643E+02 -0.88666325014E+02  0.91345677693E+02  0.00000000000E+00 0. -1.
</event>
<event>
 7    1  0.1243146E-005  0.9923108E+02  0.7561462E-02  0.1281921E+00
          2   -1    0    0  501    0  0.00000000000E+00  0.00000000000E+00  0.25256375398E+03  0.25256375398E+03  0.00000000000E+00 0.  1.
         -2   -1    0    0    0  501 -0.00000000000E+00 -0.00000000000E+00 -0.59809529165E+02  0.59809529165E+02  0.00000000000E+00 0. -1.
         23    2    1    2    0    0 -0.85043490361E+01  0.28681238569E+01  0.38940134837E+02  0.13131571654E+03  0.12508770212E+03 0.  0.
          5    1    3    3  502    0 -0.55637417064E+02  0.97726693806E+01  0.56850407145E+02  0.80252529162E+02  0.41800000000E+01 0. -1.
         -5    1    3    3    0  502  0.47133068027E+02 -0.69045455237E+01 -0.17910272309E+02  0.51063187374E+02  0.41800000000E+01 0. -1.
        -11    1    1    2    0    0 -0.38878008002E+02 -0.19867045119E+02  0.55591797150E+02  0.70686964133E+02  0.00000000000E+00 0.  1.
         11    1    1    2    0    0  0.47382357039E+02  0.16998921262E+02  0.98222292832E+02  0.11037060248E+03  0.00000000000E+00 0. -1.
</event>
<event>
 6    1  0.1243146E-005  0.8494532E+02  0.7561462E-02  0.1315576E+00
          2   -1    0    0  501    0  0.00000000000E+00  0.00000000000E+00  0.44847294173E+03  0.44847294173E+03  0.00000000000E+00 0. -1.
         -2   -1    0    0    0  501 -0.00000000000E+00 -0.00000000000E+00 -0.26992620520E+03  0.26992620520E+03  0.00000000000E+00 0.  1.
          5    1    1    2  502    0 -0.19036302825E+02  0.37544372963E+02  0.34565441458E+03  0.34823326591E+03  0.41800000000E+01 0. -1.
         -5    1    1    2    0  502  0.21495690930E+02 -0.46138872725E+02 -0.24771573846E+03  0.25292571990E+03  0.41800000000E+01 0.  1.
        -11    1    1    2    0    0  0.36693040658E+02  0.68419025807E+01  0.13819116288E+02  0.39801492919E+02  0.00000000000E+00 0. -1.
         11    1    1    2    0    0 -0.39152428763E+02  0.17525971808E+01  0.66788944122E+02  0.77438668195E+02  0.00000000000E+00 0.  1.
</event>
<event>
 7    1  0.1243146E-005  0.1038841E+03  0.7561462E-02  0.1272334E+00
          2   -1    0    0  501    0  0.00000000000E+00  0.00000000000E+00  0.27275268842E+02  0.27275268842E+02  0.00000000000E+00 0.  1.
         -2   -1    0    0    0  501 -0.00000000000E+00 -0.00000000000E+00 -0.64730287401E+03  0.64730287401E+03  0.00000000000E+00 0. -1.
         23    2    1    2    0    0 -0.30593628320E+01 -0.28365888857E+02 -0.51758852683E+03  0.53325367374E+03  0.12509042370E+03 0.  0.
          5    1    3    3  502    0  0.42961368243E+02  0.30948047682E+02 -0.21361953567E+03  0.22012323647E+03  0.41800000000E+01 0. -1.
         -5    1    3    3    0  502 -0.46020731075E+02 -0.59313936539E+02 -0.30396899116E+03  0.31313043727E+03  0.41800000000E+01 0. -1.
        -11    1    1    2    0    0  0.91019579151E+00 -0.25520390586E+02 -0.78078675397E+02  0.82148635678E+02  0.00000000000E+00 0.  1.
         11    1    1    2    0    0  0.21491670405E+01  0.53886279443E+02 -0.24360402946E+02  0.59175833436E+02  0.00000000000E+00 0. -1.
</event>
<event>
 7    1  0.1243146E-005  0.1031085E+03  0.7561462E-02  0.1273892E+00
          2   -1    0    0  501    0  0.00000000000E+00  0.00000000000E+00  0.71118287074E+03  0.71118287074E+03  0.00000000000E+00 0. -1.
         -2   -1    0    0    0  501 -0.00000000000E+00 -0.00000000000E+00 -0.34126117223E+02  0.34126117223E+02  0.00000000000E+00 0.  1.
         23    2    1    2    0    0 -0.30760960939E+02  0.83781195436E+02  0.30458554502E+03  0.34115396341E+03  0.12509255407E+03 0.  0.
          5    1    3    3  502    0 -0.35375599309E+02  0.78206901794E+02  0.31573433304E+03  0.32722071141E+03  0.41800000000E+01 0. -1.
         -5    1    3    3    0  502  0.46146383703E+01  0.55742936423E+01 -0.11148788018E+02  0.13933251996E+02  0.41800000000E+01 0. -1.
        -11    1    1    2    0    0 -0.20225143640E+02 -0.10894248909E+02  0.18924446592E+01  0.23050432563E+02  0.00000000000E+00 0.  1.
         11    1    1    2    0    0  0.50986104579E+02 -0.72886946528E+02  0.37057876383E+03  0.38110459199E+03  0.00000000000E+00 0. -1.
</event>
<event>
 7    1  0.1243146E-005  0.1692230E+03  0.7561462E-02  0.1178661E+00
          2   -1    0    0  501    0  0.00000000000E+00  0.00000000000E+00  0.10913701306E+03  0.10913701306E+03  0.00000000000E+00 0. -1.
         -2   -1    0    0    0  501 -0.00000000000E+00 -0.00000000000E+00 -0.61264260632E+03  0.61264260632E+03  0.00000000000E+00 0.  1.
         23    2    1    2    0    0  0.14652030397E+03  0.10330157515E+02 -0.51455247433E+03  0.54748788142E+03  0.11577486701E+03 0.  0.
          5    1    3    3  502    0  0.15033896247E+03 -0.19455403586E+02 -0.37155320885E+03  0.40130982516E+03  0.41800000000E+01 0. -1.
         -5    1    3    3    0  502 -0.38186584987E+01  0.29785561101E+02 -0.14299926548E+03  0.14617805626E+03  0.41800000000E+01 0.  1.
        -11    1    1    2    0    0 -0.12347299513E+02  0.15523999729E+02  0.30387572129E+02  0.36288495598E+02  0.00000000000E+00 0.  1.
         11    1    1    2    0    0 -0.13417300446E+03 -0.25854157244E+02 -0.19340691061E+02  0.13800324236E+03  0.00000000000E+00 0. -1.
</event>
<event>
 7    1  0.1243146E-005  0.1034944E+03  0.7561462E-02  0.1273115E+00
         -1   -1    0    0    0  501 -0.00000000000E+00  0.00000000000E+00  0.70788233080E+02  0.70788233080E+02  0.00000000000E+00 0.  1.
          1   -1    0    0  501    0  0.00000000000E+00 -0.00000000000E+00 -0.17505579203E+03  0.17505579203E+03  0.00000000000E+00 0. -1.
         23    2    1    2    0    0  0.20652406423E+02  0.13210204625E-01 -0.48067893275E+02  0.13753009721E+03  0.12719073555E+03 0.  0.
          5    1    3    3  502    0 -0.71468272704E+01 -0.57249663580E+02 -0.45658023933E+02  0.73693477795E+02  0.41800000000E+01 0. -1.
         -5    1    3    3    0  502  0.27799233693E+02  0.57262873785E+02 -0.24098693418E+01  0.63836619414E+02  0.41800000000E+01 0.  1.
        -11    1    1    2    0    0 -0.34616387468E+02  0.34038920762E+02 -0.10559989204E+02  0.49683556435E+02  0.00000000000E+00 0. -1.
         11    1    1    2    0    0  0.13963981046E+02 -0.34052130967E+02 -0.45639676475E+02  0.58630371470E+02  0.00000000000E+00 0.  1.
</event>
<event>
 6    1  0.1243146E-005  0.1786614E+03  0.7561462E-02  0.1169105E+00
          1   -1    0    0  501    0  0.00000000000E+00  0.00000000000E+00  0.79591960413E+02  0.79591960413E+02  0.00000000000E+00 0. -1.
         -1   -1    0    0    0  501 -0.00000000000E+00 -0.00000000000E+00 -0.12429361157E+04  0.12429361157E+04  0.00000000000E+00 0.  1.
          5    1    1    2  502    0  0.66442117195E+02 -0.67851397886E+02 -0.76387826161E+03  0.76976999038E+03  0.41800000000E+01 0. -1.
         -5    1    1    2    0  502 -0.74861941876E+02  0.13338421362E+03 -0.41288263153E+03  0.44032397005E+03  0.41800000000E+01 0.  1.
        -11    1    1    2    0    0  0.47900214495E+02 -0.37463832832E+02 -0.40357857924E+01  0.60944703511E+02  0.00000000000E+00 0.  1.
         11    1    1    2    0    0 -0.39480389814E+02 -0.28068982898E+02  0.17452523666E+02  0.51489412146E+02  0.00000000000E+00 0. -1.
</event>
<event>
 7    1  0.1243146E-005  0.9240300E+02  0.7561462E-02  0.1297135E+00
         -2   -1    0    0    0  501 -0.00000000000E+00  0.00000000000E+00  0.77646403849E+02  0.77646403849E+02  0.00000000000E+00 0.  1.
          2   -1    0    0  501    0  0.00000000000E+00 -0.00000000000E+00 -0.21977252318E+03  0.21977252318E+03  0.00000000000E+00 0. -1.
         23    2    1    2    0    0  0.76292213812E+01  0.19202640259E+02 -0.51608509544E+00  0.12678505768E+03  0.12508892075E+03 0.  0.
          5    1    3    3  502    0 -0.58196578134E+02  0.73848741495E+01  0.75418449743E+01  0.59293590702E+02  0.41800000000E+01 0.  1.
         -5    1    3    3    0  502  0.65825799515E+02  0.11817766109E+02 -0.80579300697E+01  0.67491466977E+02  0.41800000000E+01 0.  1.
        -11    1    1    2    0    0  0.52517413358E+01 -0.36802506297E+02 -0.14397409972E+03  0.14869615546E+03  0.00000000000E+00 0. -1.
         11    1    1    2    0    0 -0.12880962717E+02  0.17599866038E+02  0.23640654911E+01  0.21937713890E+02  0.00000000000E+00 0.  1.
</event>
<event>
 7    1  0.1243146E-005  0.2089246E+03  0.7561462E-02  0.1142420E+00
          2   -1    0    0  501    0  0.00000000000E+00  0.00000000000E+00  0.10480827451E+04  0.10480827451E+04  0.00000000000E+00 0. -1.
         -2   -1    0    0    0  501 -0.00000000000E+00 -0.00000000000E+00 -0.48432660883E+02  0.48432660883E+02  0.00000000000E+00 0.  1.
         23    2    1    2    0    0  0.31612950229E+02 -0.19276247035E+03  0.44916642435E+03  0.50552398963E+03  0.12508908317E+03 0.  0.
          5    1    3    3  502    0 -0.19957311728E+02 -0.57263017355E+02  0.26078257065E+03  0.26777298034E+03  0.41800000000E+01 0. -1.
         -5    1    3    3    0  502  0.51570261957E+02 -0.13549945300E+03  0.18838385371E+03  0.23775100929E+03  0.41800000000E+01 0. -1.
        -11    1    1    2    0    0 -0.59723556752E+02  0.12059787985E+03  0.39483620204E+03  0.41714071762E+03  0.00000000000E+00 0. -1.
         11    1    1    2    0    0  0.28110606524E+02  0.72164590498E+02  0.15564745780E+03  0.17385069870E+03  0.00000000000E+00 0.  1.
</event>
<event>
 7    1  0.1243146E-005  0.1217345E+03  0.7561462E-02  0.1240263E+00
         -1   -1    0    0    0  501 -0.00000000000E+00  0.00000000000E+00  0.22258415225E+03  0.22258415225E+03  0.00000000000E+00 0.  1.
          1   -1    0    0  501    0  0.00000000000E+00 -0.00000000000E+00 -0.77808661717E+02  0.77808661717E+02  0.00000000000E+00 0. -1.
         23    2    1    2    0    0 -0.35163360771E+02 -0.57502282316E+02  0.10697790422E+03  0.17786894605E+03  0.12510042192E+03 0.  0.
          5    1    3    3  502    0  0.40306585928E+02 -0.51568182915E+02  0.58445594348E+02  0.87847926880E+02  0.41800000000E+01 0.  1.
         -5    1    3    3    0  502 -0.75469946699E+02 -0.59340994007E+01  0.48532309876E+02  0.90021019170E+02  0.41800000000E+01 0.  1.
        -11    1    1    2    0    0  0.27362511358E+01  0.67944088045E+02 -0.45773696009E+01  0.68153051898E+02  0.00000000000E+00 0. -1.
         11    1    1    2    0    0  0.32427109635E+02 -0.10441805729E+02  0.42374955905E+02  0.54370816015E+02  0.00000000000E+00 0.  1.
</event>
<event>
 7    1  0.1243146E-005  0.1982442E+03  0.7561462E-02  0.1151229E+00
         -2   -1    0    0    0  501 -0.00000000000E+00  0.00000000000E+00  0.52893826188E+02  0.52893826188E+02  0.00000000000E+00 0.  1.
          2   -1    0    0  501    0  0.00000000000E+00 -0.00000000000E+00 -0.76681558688E+03  0.76681558688E+03  0.00000000000E+00 0. -1.
         23    2    1    2    0    0 -0.27768459762E+02 -0.16918625328E+03 -0.33493628307E+03  0.39651616303E+03  0.12509067979E+03 0.  0.
          5    1    3    3  502    0 -0.76603041396E+02 -0.12250946894E+03 -0.22735662518E+03  0.26941622695E+03  0.41800000000E+01 0.  1.
         -5    1    3    3    0  502  0.48834581634E+02 -0.46676784338E+02 -0.10757965788E+03  0.12709993607E+03  0.41800000000E+01 0.  1.
        -11    1    1    2    0    0 -0.21965915841E+02  0.37058980621E+02 -0.55616166417E+02  0.70349324591E+02  0.00000000000E+00 0.  1.
         11    1    1    2    0    0  0.49734375603E+02  0.13212727265E+03 -0.32336931121E+03  0.35284392545E+03  0.00000000000E+00 0. -1.
</event>
<event>
 7    1  0.1243146E-005  0.1095942E+03  0.7561462E-02  0.1261323E+00
         -1   -1    0    0    0  501 -0.00000000000E+00  0.00000000000E+00  0.64347379566E+02  0.64347379566E+02  0.00000000000E+00 0.  1.
          1   -1    0    0  501    0  0.00000000000E+00 -0.00000000000E+00 -0.22308799845E+03  0.22308799845E+03  0.00000000000E+00 0. -1.
         23    2    1    2    0    0  0.94250828811E+01  0.15292841259E+02 -0.32311806074E+02  0.13043832398E+03  0.12508956939E+03 0.  0.
          5    1    3    3  502    0 -0.29159251318E+02 -0.45437689634E+02 -0.17008585821E+02  0.56759228045E+02  0.41800000000E+01 0.  1.
         -5    1    3    3    0  502  0.38584334199E+02  0.60730530893E+02 -0.15303220254E+02  0.73679095938E+02  0.41800000000E+01 0.  1.
        -11    1    1    2    0    0 -0.50561714235E+02 -0.85720890618E+01 -0.73598039174E+02  0.89703060302E+02  0.00000000000E+00 0.  1.
         11    1    1    2    0    0  0.41136631354E+02 -0.67207521974E+01 -0.52830773632E+02  0.67293993728E+02  0.00000000000E+00 0. -1.
</event>
<event>
 7    1  0.1243146E-005  0.1297533E+03  0.7561462E-02  0.1227822E+00
          2   -1    0    0  501    0  0.00000000000E+00  0.00000000000E+00  0.34921260297E+03  0.34921260297E+03  0.00000000000E+00 0.  1.
         -2   -1    0    0    0  501 -0.00000000000E+00 -0.00000000000E+00 -0.61360510960E+02  0.61360510960E+02  0.00000000000E+00 0. -1.
         23    2    1    2    0    0  0.30463453630E+02 -0.90121740392E+02  0.12050445503E+03  0.19786003519E+03  0.12480913326E+03 0.  0.
          5    1    3    3  502    0 -0.41887171946E+02 -0.45133204520E+02  0.85981953494E+02  0.10583907620E+03  0.41800000000E+01 0. -1.
         -5    1    3    3    0  502  0.72350625576E+02 -0.44988535871E+02  0.34522501532E+02  0.92020958989E+02  0.41800000000E+01 0. -1.
        -11    1    1    2    0    0 -0.15129049006E+02  0.95155118065E+02  0.17089835808E+03  0.19618775041E+03  0.00000000000E+00 0.  1.
         11    1    1    2    0    0 -0.15334404624E+02 -0.50333776730E+01 -0.35507211009E+01  0.16525328326E+02  0.00000000000E+00 0. -1.
</event>
<event>
 7    1  0.1243146E-005  0.1758364E+03  0.7561462E-02  0.1171894E+00
         -1   -1    0    0    0  501 -0.00000000000E+00  0.00000000000E+00  0.28514558553E+04  0.28514558553E+04  0.00000000000E+00 0.  1.
          1   -1    0    0  501    0  0.00000000000E+00 -0.00000000000E+00 -0.41169297792E+03  0.41169297792E+03  0.00000000000E+00 0. -1.
         23    2    1    2    0    0 -0.11819069606E+03  0.11482860487E+03  0.28261424804E+04  0.28333789877E+04  0.11747561218E+03 0.  0.
          5    1    3    3  502    0 -0.20807851654E+02  0.80896259906E+02  0.18285724946E+04  0.18304840923E+04  0.41800000000E+01 0. -1.
         -5    1    3    3    0  502 -0.97382844403E+02  0.33932344959E+02  0.99756998577E+03  0.10028948955E+04  0.41800000000E+01 0.  1.
        -11    1    1    2    0    0  0.28887682258E+02 -0.25859000696E+02 -0.20655510243E+03  0.21016230976E+03  0.00000000000E+00 0. -1.
         11    1    1    2    0    0  0.89303013799E+02 -0.88969604169E+02 -0.17982450059E+03  0.21960753574E+03  0.00000000000E+00 0.  1.
</event>
<event>
 7    1  0.1243146E-005  0.8477277E+02  0.7561462E-02  0.1316028E+00
          1   -1    0    0  501    0  0.00000000000E+00  0.00000000000E+00  0.37754182757E+03  0.37754182757E+03  0.00000000000E+00 0. -1.
         -1   -1    0    0    0  501 -0.00000000000E+00 -0.00000000000E+00 -0.46813874441E+02  0.46813874441E+02  0.00000000000E+00 0.  1.
         23    2    1    2    0    0  0.26938214205E+02 -0.57418800982E+02  0.11362952931E+03  0.18049985222E+03  0.12508373447E+03 0.  0.
          5    1    3    3  502    0  0.51359912592E+02 -0.28928708716E+02  0.12729737973E+03  0.14034531021E+03  0.41800000000E+01 0. -1.
         -5    1    3    3    0  502 -0.24421698387E+02 -0.28490092266E+02 -0.13667850421E+02  0.40154542016E+02  0.41800000000E+01 0. -1.
        -11    1    1    2    0    0 -0.31023579382E+02  0.24522748042E+02  0.20615481360E+02  0.44596252319E+02  0.00000000000E+00 0.  1.
         11    1    1    2    0    0  0.40853651773E+01  0.32896052940E+02  0.19648294246E+03  0.19925959747E+03  0.00000000000E+00 0. -1.
</event>
<event>
 7    1  0.1243146E-005  0.1092338E+03  0.7561462E-02  0.1261995E+00
          2   -1    0    0  501    0  0.00000000000E+00  0.00000000000E+00  0.40787842356E+03  0.40787842356E+03  0.00000000000E+00 0. -1.
         -2   -1    0    0    0  501 -0.00000000000E+00 -0.00000000000E+00 -0.36171082342E+02  0.36171082342E+02  0.00000000000E+00 0.  1.
         23    2    1    2    0    0 -0.17250313519E+02 -0.10810388950E+02  0.11523817195E+03  0.17129578652E+03  0.12509185576E+03 0.  0.
          5    1    3    3  502    0  0.41355947851E+02  0.32790645718E+02  0.56880225670E+02  0.77706970997E+02  0.41800000000E+01 0. -1.
         -5    1    3    3    0  502 -0.58606261371E+02 -0.43601034668E+02  0.58357946281E+02  0.93588815518E+02  0.41800000000E+01 0. -1.
        -11    1    1    2    0    0 -0.24267484355E+02  0.36282126342E+02  0.13504802606E+03  0.14192699825E+03  0.00000000000E+00 0. -1.
         11    1    1    2    0    0  0.41517797875E+02 -0.25471737392E+02  0.12142114321E+03  0.13082672114E+03  0.00000000000E+00 0.  1.
</event>
<event>
 7    1  0.1243146E-005  0.1738556E+03  0.7561462E-02  0.1173886E+00
          2   -1    0    0  501    0  0.00000000000E+00  0.00000000000E+00  0.91463846652E+03  0.91463846652E+03  0.00000000000E+00 0. -1.
         -2   -1    0    0    0  501 -0.00000000000E+00 -0.00000000000E+00 -0.39056952811E+02  0.39056952811E+02  0.00000000000E+00 0.  1.
         23    2    1    2    0    0 -0.70334153045E+02 -0.13703011459E+03  0.43158854850E+03  0.47501490877E+03  0.12508534275E+03 0.  0.
          5    1    3    3  502    0 -0.81428288731E+02 -0.32686510893E+02  0.14201277332E+03  0.16698525200E+03  0.41800000000E+01 0. -1.
         -5    1    3    3    0  502  0.11094135686E+02 -0.10434360370E+03  0.28957577518E+03  0.30802965677E+03  0.41800000000E+01 0. -1.
        -11    1    1    2    0    0  0.33806676779E+02  0.48854959821E+02  0.65898797797E+02  0.88726264685E+02  0.00000000000E+00 0.  1.
         11    1    1    2    0    0  0.36527476267E+02  0.88175154774E+02  0.37809416741E+03  0.38995424587E+03  0.00000000000E+00 0. -1.
</event>
<event>
 7    1  0.1243146E-005  0.9222974E+02  0.7561462E-02  0.1297540E+00
         -1   -1    0    0    0  501 -0.00000000000E+00  0.00000000000E+00  0.11437594219E+03  0.11437594219E+03  0.00000000000E+00 0.  1.
          1   -1    0    0  501    0  0.00000000000E+00 -0.00000000000E+00 -0.32889517587E+03  0.32889517587E+03  0.00000000000E+00 0. -1.
         23    2    1    2    0    0 -0.18546643659E+02  0.46313007322E+02  0.62011400760E+02  0.14826206542E+03  0.12508938237E+03 0.  0.
          5    1    3    3  502    0 -0.43392538748E+02  0.48183186873E+01 -0.23629615729E+02  0.49819270905E+02  0.41800000000E+01 0.  1.
         -5    1    3    3    0  502  0.24845895088E+02  0.41494688635E+02  0.85641016489E+02  0.98442794520E+02  0.41800000000E+01 0.  1.
        -11    1    1    2    0    0 -0.23946440293E+02 -0.43269500384E+02 -0.21194626159E+03  0.21763937940E+03  0.00000000000E+00 0. -1.
         11    1    1    2    0    0  0.42493083952E+02 -0.30435069377E+01 -0.64584372853E+02  0.77369673226E+02  0.00000000000E+00 0.  1.
</event>
<event>
 7    1  0.1243146E-005  0.2049363E+03  0.7561462E-02  0.1145640E+00
          2   -1    0    0  501    0  0.00000000000E+00  0.00000000000E+00  0.34538577491E+03  0.34538577491E+03  0.00000000000E+00 0.  1.
         -2   -1    0    0    0  501 -0.00000000000E+00 -0.00000000000E+00 -0.15669605170E+03  0.15669605170E+03  0.00000000000E+00 0. -1.
         23    2    1    2    0    0  0.12850406730E+03 -0.12534334310E+03 -0.10023707302E+02  0.21902637633E+03  0.12509128606E+03 0.  0.
          5    1    3    3  502    0  0.86791448279E+02 -0.66584988909E+01 -0.28757214996E+02  0.91768953989E+02  0.41800000000E+01 0. -1.
         -5    1    3    3    0  502  0.41712619026E+02 -0.11868484421E+03  0.18733507694E+02  0.12725742235E+03  0.41800000000E+01 0. -1.
        -11    1    1    2    0    0 -0.42615067755E+02  0.97761138406E+02  0.13762193063E+03  0.17410651904E+03  0.00000000000E+00 0.  1.
         11    1    1    2    0    0 -0.85888999550E+02  0.27582204697E+02  0.61091499880E+02  0.10894893123E+03  0.00000000000E+00 0. -1.
</event>
<event>
 7    1  0.1243146E-005  0.2166314E+03  0.7561462E-02  0.1136420E+00
          1   -1    0    0  501    0  0.00000000000E+00  0.00000000000E+00  0.24564720729E+03  0.24564720729E+03  0.00000000000E+00 0. -1.
         -1   -1    0    0    0  501 -0.00000000000E+00 -0.00000000000E+00 -0.26340774610E+03  0.26340774610E+03  0.00000000000E+00 0.  1.
         23    2    1    2    0    0  0.19117004692E+03 -0.48645103181E+02 -0.11778728908E+03  0.26159621092E+03  0.12508556750E+03 0.  0.
          5    1    3    3  502    0  0.19724810309E+03 -0.14591564919E+02 -0.91597145984E+02  0.21800742532E+03  0.41800000000E+01 0. -1.
         -5    1    3    3    0  502 -0.60780561753E+01 -0.34053538262E+02 -0.26190143098E+02  0.43588785605E+02  0.41800000000E+01 0. -1.
        -11    1    1    2    0    0 -0.23831829067E+02 -0.59605951377E+01  0.62950492959E+02  0.67574028553E+02  0.00000000000E+00 0. -1.
         11    1    1    2    0    0 -0.16733821785E+03  0.54605698319E+02  0.37076257319E+02  0.17988471391E+03  0.00000000000E+00 0.  1.
</event>
<event>
 7    1  0.1243146E-005  0.8841390E+02  0.7561462E-02  0.1306739E+00
          1   -1    0    0  501    0  0.00000000000E+00  0.00000000000E+00  0.35939146663E+03  0.35939146663E+03  0.00000000000E+00 0. -1.
         -1   -1    0    0    0  501 -0.00000000000E+00 -0.00000000000E+00 -0.34064242114E+02  0.34064242114E+02  0.00000000000E+00 0.  1.
         23    2    1    2    0    0  0.85967431403E+01 -0.16109601922E+02  0.17984192107E+03  0.21982648349E+03  0.12508854066E+03 0.  0.
          5    1    3    3  502    0 -0.37446313414E+02  0.18700540483E+02  0.14781438465E+03  0.15368311980E+03  0.41800000000E+01 0.  1.
         -5    1    3    3    0  502  0.46043056554E+02 -0.34810142405E+02  0.32027536420E+02  0.66143363690E+02  0.41800000000E+01 0.  1.
        -11    1    1    2    0    0  0.33274934611E+02  0.83519949057E+01  0.17034139115E+02  0.38303250354E+02  0.00000000000E+00 0.  1.
         11    1    1    2    0    0 -0.41871677751E+02  0.77576070168E+01  0.12845116433E+03  0.13532597490E+03  0.00000000000E+00 0. -1.
</event>
<event>
 7    1  0.1243146E-005  0.2322118E+03  0.7561462E-02  0.1125093E+00
         -1   -1    0    0    0  501 -0.00000000000E+00  0.00000000000E+00  0.11456981845E+03  0.11456981845E+03  0.00000000000E+00 0.  1.
          1   -1    0    0  501    0  0.00000000000E+00 -0.00000000000E+00 -0.59084587736E+03  0.59084587736E+03  0.00000000000E+00 0. -1.
         23    2    1    2    0    0  0.47908030931E+02 -0.22224700508E+03 -0.32688935210E+03  0.41736505384E+03  0.12509208191E+03 0.  0.
          5    1    3    3  502    0  0.42647024770E+02 -0.22543733244E+03 -0.24705911166E+03  0.33718902212E+03  0.41800000000E+01 0.  1.
         -5    1    3    3    0  502  0.52610061614E+01  0.31903273669E+01 -0.79830240431E+02  0.80176031717E+02  0.41800000000E+01 0.  1.
        -11    1    1    2    0    0 -0.35022187877E+02  0.17862939756E+03 -0.67047888713E+02  0.19398565591E+03  0.00000000000E+00 0.  1.
         11    1    1    2    0    0 -0.12885843054E+02  0.43617607512E+02 -0.82338818107E+02  0.94064986066E+02  0.00000000000E+00 0. -1.
</event>
<event>
 7    1  0.1243146E-005  0.1350559E+03  0.7561462E-02  0.1220141E+00
          2   -1    0    0  501    0  0.00000000000E+00  0.00000000000E+00  0.62816160326E+03  0.62816160326E+03  0.00000000000E+00 0. -1.
         -2   -1    0    0    0  501 -0.00000000000E+00 -0.00000000000E+00 -0.52835588973E+02  0.52835588973E+02  0.00000000000E+00 0.  1.
         23    2    1    2    0    0  0.98812892452E+01 -0.10371082073E+03  0.11643765112E+03  0.20014500405E+03  0.12508685715E+03 0.  0.
          5    1    3    3  502    0  0.27927971059E+02  0.34009894870E+01  0.80942730104E+02  0.85794733252E+02  0.41800000000E+01 0. -1.
         -5    1    3    3    0  502 -0.18046681814E+02 -0.10711181022E+03  0.35494921014E+02  0.11435027080E+03  0.41800000000E+01 0. -1.
        -11    1    1    2    0    0 -0.15787791038E+02 -0.10269270979E+02  0.20447526833E+02  0.27799525641E+02  0.00000000000E+00 0.  1.
         11    1    1    2    0    0  0.59065017929E+01  0.11398009171E+03  0.43844083633E+03  0.45305266254E+03  0.00000000000E+00 0. -1.
</event>
<event>
 7    1  0.1243146E-005  0.1677746E+03  0.7561462E-02  0.1180189E+00
         -1   -1    0    0    0  501 -0.00000000000E+00  0.00000000000E+00  0.14712548645E+03  0.14712548645E+03  0.00000000000E+00 0.  1.
          1   -1    0    0  501    0  0.00000000000E+00 -0.00000000000E+00 -0.25451689318E+03  0.25451689318E+03  0.00000000000E+00 0. -1.
         23    2    1    2    0    0  0.61799436007E+02  0.14281210504E+03 -0.10077974829E+03  0.22364857307E+03  0.12509060290E+03 0.  0.
          5    1    3    3  502    0 -0.16291411578E+02  0.43063269615E+01 -0.55674334590E+02  0.58318594592E+02  0.41800000000E+01 0. -1.
         -5    1    3    3    0  502  0.78090847585E+02  0.13850577808E+03 -0.45105413695E+02  0.16532997848E+03  0.41800000000E+01 0. -1.
        -11    1    1    2    0    0 -0.81893176669E+01 -0.59486895538E+02 -0.41451335516E+02  0.72965532141E+02  0.00000000000E+00 0. -1.
         11    1    1    2    0    0 -0.53610118340E+02 -0.83325209506E+02  0.34839677074E+02  0.10502827441E+03  0.00000000000E+00 0.  1.
</event>
<event>
 7    1  0.1243146E-005  0.1315287E+03  0.7561462E-02  0.1225205E+00
         -2   -1    0    0    0  501 -0.00000000000E+00  0.00000000000E+00  0.50353422475E+02  0.50353422475E+02  0.00000000000E+00 0. -1.
          2   -1    0    0  501    0  0.00000000000E+00 -0.00000000000E+00 -0.42767188300E+03  0.42767188300E+03  0.00000000000E+00 0.  1.
         23    2    1    2    0    0  0.32072532446E+02 -0.79163328127E+02 -0.12254169285E+03  0.19483235542E+03  0.12509076854E+03 0.  0.
          5    1    3    3  502    0  0.80170498482E+02 -0.44190946605E+02 -0.69117396933E+02  0.11478168646E+03  0.41800000000E+01 0.  1.
         -5    1    3    3    0  502 -0.48097966036E+02 -0.34972381522E+02 -0.53424295917E+02  0.80050668957E+02  0.41800000000E+01 0.  1.
        -11    1    1    2    0    0 -0.54133360582E+02  0.41718596448E+02 -0.91350684510E+02  0.11408685103E+03  0.00000000000E+00 0.  1.
         11    1    1    2    0    0  0.22060828136E+02  0.37444731679E+02 -0.16342608317E+03  0.16910609903E+03  0.00000000000E+00 0. -1.
</event>
<event>
 7    1  0.1243146E-005  0.5619740E+02  0.7561462E-02  0.1414520E+00
          1   -1    0    0  501    0  0.00000000000E+00  0.00000000000E+00  0.20193991927E+03  0.20193991927E+03  0.00000000000E+00 0. -1.
         -1   -1    0    0    0  501 -0.00000000000E+00 -0.00000000000E+00 -0.66973966603E+02  0.66973966603E+02  0.00000000000E+00 0.  1.
         23    2    1    2    0    0  0.24752144885E+02 -0.79665724185E+01  0.29695556383E+02  0.13116953537E+03  0.12508991162E+03 0.  0.
          5    1    3    3  502    0  0.18068570605E+02 -0.22485243158E+02 -0.45580006105E+02  0.54102391446E+02  0.41800000000E+01 0.  1.
         -5    1    3    3    0  502  0.66835742798E+01  0.14518670740E+02  0.75275562488E+02  0.77067143927E+02  0.41800000000E+01 0.  1.
        -11    1    1    2    0    0  0.20493752503E+02  0.63407787343E+01  0.85833028432E+02  0.88473205754E+02  0.00000000000E+00 0. -1.
         11    1    1    2    0    0 -0.45245897388E+02  0.16257936841E+01  0.19437367853E+02  0.49271144746E+02  0.00000000000E+00 0.  1.
</event>
<event>
 7    1  0.1243146E-005  0.1725410E+03  0.7561462E-02  0.1175224E+00
         -2   -1    0    0    0  501 -0.00000000000E+00  0.00000000000E+00  0.53226632784E+02  0.53226632784E+02  0.00000000000E+00 0. -1.
          2   -1    0    0  501    0  0.00000000000E+00 -0.00000000000E+00 -0.10655159222E+04  0.10655159222E+04  0.00000000000E+00 0.  1.
         23    2    1    2    0    0  0.13378104720E+03 -0.85834929996E+00 -0.13740310809E+03  0.22896410451E+03  0.12508733624E+03 0.  0.
          5    1    3    3  502    0  0.14163876760E+03  0.35056338414E+02 -0.10546744972E+03  0.18008704201E+03  0.41800000000E+01 0.  1.
         -5    1    3    3    0  502 -0.78577203928E+01 -0.35914687714E+02 -0.31935658369E+02  0.48877062503E+02  0.41800000000E+01 0.  1.
        -11    1    1    2    0    0 -0.75000452186E+01  0.31319894588E+02 -0.17195347258E+03  0.17494337143E+03  0.00000000000E+00 0. -1.
         11    1    1    2    0    0 -0.12628100199E+03 -0.30461545288E+02 -0.70293270871E+03  0.71483507901E+03  0.00000000000E+00 0.  1.
</event>
<event>
 7    1  0.1243146E-005  0.1607135E+03  0.7561462E-02  0.1187894E+00
          1   -1    0    0  501    0  0.00000000000E+00  0.00000000000E+00  0.19617400500E+03  0.19617400500E+03  0.00000000000E+00 0. -1.
         -1   -1    0    0    0  501 -0.00000000000E+00 -0.00000000000E+00 -0.21965870707E+03  0.21965870707E+03  0.00000000000E+00 0.  1.
         23    2    1    2    0    0  0.11791406873E+03  0.36589106904E+02 -0.13866289478E+03  0.22386945433E+03  0.12509054258E+03 0.  0.
          5    1    3    3  502    0  0.79473648021E+02  0.81852235116E+02 -0.74382056987E+02  0.13625715366E+03  0.41800000000E+01 0. -1.
         -5    1    3    3    0  502  0.38440420707E+02 -0.45263128212E+02 -0.64280837796E+02  0.87612300663E+02  0.41800000000E+01 0. -1.
        -11    1    1    2    0    0 -0.52111555589E+02 -0.58531712945E+02  0.34670200812E+02  0.85694798387E+02  0.00000000000E+00 0.  1.
         11    1    1    2    0    0 -0.65802513139E+02  0.21942606041E+02  0.80507991902E+02  0.10626845936E+03  0.00000000000E+00 0. -1.
</event>
<event>
 7    1  0.1243146E-005  0.1096715E+03  0.7561462E-02  0.1261179E+00
          2   -1    0    0  501    0  0.00000000000E+00  0.00000000000E+00  0.17814045407E+03  0.17814045407E+03  0.00000000000E+00 0. -1.
         -2   -1    0    0    0  501 -0.00000000000E+00 -0.00000000000E+00 -0.94805555701E+02  0.94805555701E+02  0.00000000000E+00 0.  1.
         23    2    1    2    0    0 -0.19233837264E+02  0.16174261430E+02 -0.23665094569E+02  0.12976262938E+03  0.12508699395E+03 0.  0.
          5    1    3    3  502    0  0.36191148352E+02 -0.34819167706E+02 -0.20077238143E+02  0.54247041857E+02  0.41800000000E+01 0.  1.
         -5    1    3    3    0  502 -0.55424985616E+02  0.50993429136E+02 -0.35878564266E+01  0.75515587526E+02  0.41800000000E+01 0.  1.
        -11    1    1    2    0    0 -0.35765412770E+02 -0.14205589187E+02  0.31371243763E+02  0.49649959214E+02  0.00000000000E+00 0.  1.
         11    1    1    2    0    0  0.54999250034E+02 -0.19686722424E+01  0.75628749180E+02  0.93533421178E+02  0.00000000000E+00 0. -1.
</event>
<event>
 6    1  0.1243146E-005  0.9806084E+02  0.7561462E-02  0.1284427E+00
         -2   -1    0    0    0  501 -0.00000000000E+00  0.00000000000E+00  0.70842932567E+03  0.70842932567E+03  0.00000000000E+00 0.  1.
          2   -1    0    0  501    0  0.00000000000E+00 -0.00000000000E+00 -0.11412008898E+03  0.11412008898E+03  0.00000000000E+00 0. -1.
          5    1    1    2  502    0  0.16428444664E+02  0.50852139792E+02 -0.86108055585E+02  0.10142930322E+03  0.41800000000E+01 0. -1.
         -5    1    1    2    0  502 -0.62032103459E+02 -0.54775071230E+02  0.64686829262E+03  0.65215362507E+03  0.41800000000E+01 0.  1.
        -11    1    1    2    0    0  0.13100030872E+01  0.14141013668E+02  0.12302683121E+02  0.18789369005E+02  0.00000000000E+00 0.  1.
         11    1    1    2    0    0  0.44293655708E+02 -0.10218082230E+02  0.21246316524E+02  0.50177117357E+02  0.00000000000E+00 0. -1.
</event>
<event>
 6    1  0.1243146E-005  0.1717802E+03  0.7561462E-02  0.1176004E+00
          2   -1    0    0  501    0  0.00000000000E+00  0.00000000000E+00  0.43479186248E+03  0.43479186248E+03  0.00000000000E+00 0. -1.
         -2   -1    0    0    0  501 -0.00000000000E+00 -0.00000000000E+00 -0.71647483032E+02  0.71647483032E+02  0.00000000000E+00 0.  1.
          5    1    1    2  502    0 -0.74059586727E+02 -0.81514200249E+02  0.80958991740E+02  0.13675239659E+03  0.41800000000E+01 0. -1.
         -5    1    1    2    0  502 -0.15583735966E+02  0.10859299067E+03  0.12650957611E+03  0.16750353936E+03  0.41800000000E+01 0.  1.
        -11    1    1    2    0    0  0.66151292870E+02 -0.55739947016E+02  0.13325426233E+03  0.15886986395E+03  0.00000000000E+00 0. -1.
         11    1    1    2    0    0  0.23492029823E+02  0.28661156596E+02  0.22421549265E+02  0.43313545619E+02  0.00000000000E+00 0.  1.
</event>
<event>
 7    1  0.1243146E-005  0.9643117E+02  0.7561462E-02  0.1287985E+00
         -1   -1    0    0    0  501 -0.00000000000E+00  0.00000000000E+00  0.62483300725E+03  0.62483300725E+03  0.00000000000E+00 0.  1.
          1   -1    0    0  501    0  0.00000000000E+00 -0.00000000000E+00 -0.25015591894E+02  0.25015591894E+02  0.00000000000E+00 0. -1.
         23    2    1    2    0    0  0.13575381169E+02 -0.53579062456E+02  0.41620510136E+03  0.43809608574E+03  0.12508591862E+03 0.  0.
          5    1    3    3  502    0  0.12208990392E+02 -0.76595649301E+02  0.40452236307E+03  0.41191232994E+03  0.41800000000E+01 0. -1.
         -5    1    3    3    0  502  0.13663907772E+01  0.23016586844E+02  0.11682738294E+02  0.26183755799E+02  0.41800000000E+01 0. -1.
        -11    1    1    2    0    0 -0.16136237339E+02 -0.15649386553E+02  0.95722702399E+01  0.24431737812E+02  0.00000000000E+00 0. -1.
         11    1    1    2    0    0  0.25608561702E+01  0.69228449010E+02  0.17404004376E+03  0.18732077559E+03  0.00000000000E+00 0.  1.
</event>
<event>
 7    1  0.1243146E-005  0.1064321E+03  0.7561462E-02  0.1267323E+00
         -2   -1    0    0    0  501 -0.00000000000E+00  0.00000000000E+00  0.67010347658E+02  0.67010347658E+02  0.00000000000E+00 0.  1.
          2   -1    0    0  501    0  0.00000000000E+00 -0.00000000000E+00 -0.25531007849E+03  0.25531007849E+03  0.00000000000E+00 0. -1.
         23    2    1    2    0    0 -0.32096576341E+02 -0.85066282590E+01 -0.26430611711E+02  0.13208680321E+03  0.12508314599E+03 0.  0.
          5    1    3    3  502    0 -0.12505910429E+02  0.49827937916E+02 -0.44200659694E+02  0.67899866790E+02  0.41800000000E+01 0.  1.
         -5    1    3    3    0  502 -0.19590665911E+02 -0.58334566175E+02  0.17770047983E+02  0.64186936420E+02  0.41800000000E+01 0.  1.
        -11    1    1    2    0    0 -0.11913721220E+02 -0.35475687699E+02 -0.53858338367E+02  0.65583395633E+02  0.00000000000E+00 0. -1.
         11    1    1    2    0    0  0.44010297561E+02  0.43982315958E+02 -0.10801078076E+03  0.12465022731E+03  0.00000000000E+00 0.  1.
</event>
<event>
 7    1  0.1243146E-005  0.1340753E+03  0.7561462E-02  0.1221531E+00
         -1   -1    0    0    0  501 -0.00000000000E+00  0.00000000000E+00  0.31884681494E+02  0.31884681494E+02  0.00000000000E+00 0.  1.
          1   -1    0    0  501    0  0.00000000000E+00 -0.00000000000E+00 -0.65589649805E+03  0.65589649805E+03  0.00000000000E+00 0. -1.
         23    2    1    2    0    0 -0.76736281812E+02 -0.32777882294E+02 -0.22890117887E+03  0.27387568834E+03  0.12509714809E+03 0.  0.
          5    1    3    3  502    0  0.29435575973E+02  0.83921807383E+01 -0.22887510696E+02  0.38447267474E+02  0.41800000000E+01 0.  1.
         -5    1    3    3    0  502 -0.10617185778E+03 -0.41170063033E+02 -0.20601366818E+03  0.23542842086E+03  0.41800000000E+01 0.  1.
        -11    1    1    2    0    0 -0.80307188641E+01  0.37555988687E+02 -0.12164898385E+03  0.12756731558E+03  0.00000000000E+00 0. -1.
         11    1    1    2    0    0  0.84767000676E+02 -0.47781063924E+01 -0.27346165384E+03  0.28633817563E+03  0.00000000000E+00 0.  1.
</event>
<event>
 7    1  0.1243146E-005  0.1408357E+03  0.7561462E-02  0.1212209E+00
         -2   -1    0    0    0  501 -0.00000000000E+00  0.00000000000E+00  0.45041320571E+02  0.45041320571E+02  0.00000000000E+00 0. -1.
          2   -1    0    0  501    0  0.00000000000E+00 -0.00000000000E+00 -0.67077159300E+03  0.67077159300E+03  0.00000000000E+00 0.  1.
         23    2    1    2    0    0  0.81314102825E+02 -0.49167445229E+02 -0.13290403001E+03  0.20576783935E+03  0.12508997373E+03 0.  0.
          5    1    3    3  502    0  0.95057718493E+02  0.42542103420E+01 -0.54259324544E+02  0.10961576005E+03  0.41800000000E+01 0.  1.
         -5    1    3    3    0  502 -0.13743615668E+02 -0.53421655571E+02 -0.78644705469E+02  0.96152079301E+02  0.41800000000E+01 0.  1.
        -11    1    1    2    0    0 -0.76873127496E+02 -0.47383124097E+01 -0.30631084047E+03  0.31584531076E+03  0.00000000000E+00 0.  1.
         11    1    1    2    0    0 -0.44409753284E+01  0.53905757638E+02 -0.18651540194E+03  0.19419976346E+03  0.00000000000E+00 0. -1.
</event>
<event>
 7    1  0.1243146E-005  0.1565528E+03  0.7561462E-02  0.1192644E+00
          2   -1    0    0  501    0  0.00000000000E+00  0.00000000000E+00  0.39360160666E+03  0.39360160666E+03  0.00000000000E+00 0. -1.
         -2   -1    0    0    0  501 -0.00000000000E+00 -0.00000000000E+00 -0.89679143780E+02  0.89679143780E+02  0.00000000000E+00 0.  1.
         23    2    1    2    0    0 -0.64585367209E+02 -0.97541958197E+02  0.32170833783E+02  0.17426428354E+03  0.12508946681E+03 0.  0.
          5    1    3    3  502    0  0.30924665942E+02 -0.63883296678E+00  0.21131634186E+02  0.37692989196E+02  0.41800000000E+01 0.  1.
         -5    1    3    3    0  502 -0.95510033150E+02 -0.96903125231E+02  0.11039199598E+02  0.13657129435E+03  0.41800000000E+01 0.  1.
        -11    1    1    2    0    0 -0.33936774131E+01  0.73627934819E+02  0.15821752263E+03  0.17454333072E+03  0.00000000000E+00 0.  1.
         11    1    1    2    0    0  0.67979044622E+02  0.23914023378E+02  0.11353410647E+03  0.13447313617E+03  0.00000000000E+00 0. -1.
</event>
<event>
 7    1  0.1243146E-005  0.1179559E+03  0.7561462E-02  0.1246508E+00
         -1   -1    0    0    0  501 -0.00000000000E+00  0.00000000000E+00  0.23532481421E+03  0.23532481421E+03  0.00000000000E+00 0.  1.
          1   -1    0    0  501    0  0.00000000000E+00 -0.00000000000E+00 -0.77060995686E+02  0.77060995686E+02  0.00000000000E+00 0. -1.
         23    2    1    2    0    0  0.11628322140E+02  0.78848934597E+02  0.10704354017E+03  0.18291785452E+03  0.12509296402E+03 0.  0.
          5    1    3    3  502    0 -0.28638308794E+02 -0.11894777879E+02  0.70349461578E+02  0.76994529778E+02  0.41800000000E+01 0. -1.
         -5    1    3    3    0  502  0.40266630934E+02  0.90743712476E+02  0.36694078595E+02  0.10592332474E+03  0.41800000000E+01 0. -1.
        -11    1    1    2    0    0 -0.40659463658E+02 -0.47660846350E+02 -0.25165653030E+00  0.62648316743E+02  0.00000000000E+00 0. -1.
         11    1    1    2    0    0  0.29031141518E+02 -0.31188088248E+02  0.51471934881E+02  0.66819638631E+02  0.00000000000E+00 0.  1.
</event>
<event>
 7    1  0.1243146E-005  0.1082831E+03  0.7561462E-02  0.1263783E+00
         -1   -1    0    0    0  501 -0.00000000000E+00  0.00000000000E+00  0.64208402993E+02  0.64208402993E+02  0.00000000000E+00 0.  1.
          1   -1    0    0  501    0  0.00000000000E+00 -0.00000000000E+00 -0.22925908711E+03  0.22925908711E+03  0.00000000000E+00 0. -1.
         23    2    1    2    0    0 -0.25914409830E+02  0.44837144113E+02 -0.95645005127E+02  0.16576449742E+03  0.12509186812E+03 0.  0.
          5    1    3    3  502    0 -0.68659897194E+02  0.56225587484E+02 -0.49488499394E+02  0.10169602816E+03  0.41800000000E+01 0.  1.
         -5    1    3    3    0  502  0.42745487364E+02 -0.11388443371E+02 -0.46156505733E+02  0.64068469265E+02  0.41800000000E+01 0.  1.
        -11    1    1    2    0    0  0.76194472798E+01 -0.59412430784E+02 -0.60937254000E+01  0.60208192115E+02  0.00000000000E+00 0.  1.
         11    1    1    2    0    0  0.18294962551E+02  0.14575286671E+02 -0.63311953589E+02  0.67494800567E+02  0.00000000000E+00 0. -1.
</event>
<event>
 7    1  0.1243146E-005  0.6557965E+02  0.7561462E-02  0.1375804E+00
         -1   -1    0    0    0  501 -0.00000000000E+00  0.00000000000E+00  0.47737518742E+02  0.47737518742E+02  0.00000000000E+00 0.  1.
          1   -1    0    0  501    0  0.00000000000E+00 -0.00000000000E+00 -0.26524631556E+03  0.26524631556E+03  0.00000000000E+00 0. -1.
         23    2    1    2    0    0 -0.12357986557E+02  0.25614581293E+02 -0.10713832700E+03  0.16713848497E+03  0.12509126844E+03 0.  0.
          5    1    3    3  502    0 -0.23336147208E+02 -0.22391025931E+02  0.14616197294E+02  0.35735688493E+02  0.41800000000E+01 0.  1.
         -5    1    3    3    0  502  0.10978160651E+02  0.48005607224E+02 -0.12175452430E+03  0.13140279648E+03  0.41800000000E+01 0.  1.
        -11    1    1    2    0    0 -0.14094038534E+02 -0.15118482893E+02  0.94246255314E+01  0.22716382053E+02  0.00000000000E+00 0.  1.
         11    1    1    2    0    0  0.26452025091E+02 -0.10496098400E+02 -0.11979509535E+03  0.12312896728E+03  0.00000000000E+00 0. -1.
</event>
<event>
 7    1  0.1243146E-005  0.1083464E+03  0.7561462E-02  0.1263663E+00
         -2   -1    0    0    0  501 -0.00000000000E+00  0.00000000000E+00  0.22476336840E+03  0.22476336840E+03  0.00000000000E+00 0.  1.
          2   -1    0    0  501    0  0.00000000000E+00 -0.00000000000E+00 -0.63730181140E+02  0.63730181140E+02  0.00000000000E+00 0. -1.
         23    2    1    2    0    0 -0.20172986706E+02  0.26962789004E+02  0.13859834735E+03  0.18971593039E+03  0.12509472800E+03 0.  0.
          5    1    3    3  502    0  0.48385280828E+02  0.35608777557E+01  0.24534129604E+02  0.54527159899E+02  0.41800000000E+01 0. -1.
         -5    1    3    3    0  502 -0.68558267534E+02  0.23401911248E+02  0.11406421775E+03  0.13518877050E+03  0.41800000000E+01 0. -1.
        -11    1    1    2    0    0  0.32356078461E+02 -0.55590919181E+02  0.20881523830E+02  0.67626209019E+02  0.00000000000E+00 0.  1.
         11    1    1    2    0    0 -0.12183091756E+02  0.28628130178E+02  0.15533160787E+01  0.31151410129E+02  0.00000000000E+00 0. -1.
</event>
<event>
 7    1  0.1243146E-005  0.8246905E+02  0.7561462E-02  0.1322187E+00
          2   -1    0    0  501    0  0.00000000000E+00  0.00000000000E+00  0.58202503789E+03  0.58202503789E+03  0.00000000000E+00 0. -1.
         -2   -1    0    0    0  501 -0.00000000000E+00 -0.00000000000E+00 -0.16509734322E+02  0.16509734322E+02  0.00000000000E+00 0.  1.
         23    2    1    2    0    0 -0.25653305059E+02  0.54991261813E+02  0.36495219885E+03  0.38847703163E+03  0.11849964442E+03 0.  0.
          5    1    3    3  502    0 -0.42389321672E+02 -0.27645778432E+01  0.28588545887E+03  0.28905443341E+03  0.41800000000E+01 0. -1.
         -5    1    3    3    0  502  0.16736016613E+02  0.57755839656E+02  0.79066739974E+02  0.99422598219E+02  0.41800000000E+01 0.  1.
        -11    1    1    2    0    0  0.20680037937E+02 -0.29634451436E+02  0.10410617143E+03  0.11019963526E+03  0.00000000000E+00 0.  1.
         11    1    1    2    0    0  0.49732671220E+01 -0.25356810376E+02  0.96456933288E+02  0.99858105318E+02  0.00000000000E+00 0. -1.
</event>
<event>
 7    1  0.1243146E-005  0.1108187E+03  0.7561462E-02  0.1259061E+00
         -2   -1    0    0    0  501 -0.00000000000E+00  0.00000000000E+00  0.33314771331E+02  0.33314771331E+02  0.00000000000E+00 0.  1.
          2   -1    0    0  501    0  0.00000000000E+00 -0.00000000000E+00 -0.49237094060E+03  0.49237094060E+03  0.00000000000E+00 0. -1.
         23    2    1    2    0    0  0.66566198191E+02  0.21461239766E+02 -0.19795650266E+03  0.24092380245E+03  0.11817723169E+03 0.  0.
          5    1    3    3  502    0 -0.24246916221E+02 -0.59311534120E+01 -0.10515252577E+03  0.10815552507E+03  0.41800000000E+01 0. -1.
         -5    1    3    3    0  502  0.90813114412E+02  0.27392393178E+02 -0.92803976889E+02  0.13276827738E+03  0.41800000000E+01 0.  1.
        -11    1    1    2    0    0  0.10461246352E+02  0.13260329090E+02 -0.95528933888E+01  0.19404426683E+02  0.00000000000E+00 0.  1.
         11    1    1    2    0    0 -0.77027444543E+02 -0.34721568856E+02 -0.25154677322E+03  0.26535748279E+03  0.00000000000E+00 0. -1.
</event>
<event>
 7    1  0.1243146E-005  0.1154870E+03  0.7561462E-02  0.1250733E+00
         -2   -1    0    0    0  501 -0.00000000000E+00  0.00000000000E+00  0.45545916819E+02  0.45545916819E+02  0.00000000000E+00 0.  1.
          2   -1    0    0  501    0  0.00000000000E+00 -0.00000000000E+00 -0.49198131887E+03  0.49198131887E+03  0.00000000000E+00 0. -1.
         23    2    1    2    0    0  0.43169626615E+02 -0.54974964187E+02 -0.79748530389E+02  0.15305028482E+03  0.11035713948E+03 0.  0.
          5    1    3    3  502    0  0.73346823891E+02 -0.22885831258E+02 -0.76781697988E+02  0.10870335502E+03  0.41800000000E+01 0. -1.
         -5    1    3    3    0  502 -0.30177197277E+02 -0.32089132929E+02 -0.29668324009E+01  0.44346929793E+02  0.41800000000E+01 0.  1.
        -11    1    1    2    0    0  0.25826767057E+02  0.18182312631E+02 -0.16826552625E+03  0.17120428065E+03  0.00000000000E+00 0.  1.
         11    1    1    2    0    0 -0.68996393672E+02  0.36792651557E+02 -0.19842134541E+03  0.21327267022E+03  0.00000000000E+00 0. -1.
</event>
<event>
 7    1  0.1243146E-005  0.8398118E+02  0.7561462E-02  0.1318119E+00
         -2   -1    0    0    0  501 -0.00000000000E+00  0.00000000000E+00  0.24297048916E+02  0.24297048916E+02  0.00000000000E+00 0.  1.
          2   -1    0    0  501    0  0.00000000000E+00 -0.00000000000E+00 -0.56603534215E+03  0.56603534215E+03  0.00000000000E+00 0. -1.
         23    2    1    2    0    0 -0.15069922618E+02  0.34632929435E+02 -0.23660485030E+03  0.27028913774E+03  0.12509124841E+03 0.  0.
          5    1    3    3  502    0 -0.75028510898E+01 -0.18334821734E+02  0.65515833903E+01  0.21280369062E+02  0.41800000000E+01 0. -1.
         -5    1    3    3    0  502 -0.75670715284E+01  0.52967751169E+02 -0.24315643369E+03  0.24900876868E+03  0.41800000000E+01 0. -1.
        -11    1    1    2    0    0 -0.30391333947E+02 -0.37768533973E+02 -0.12088302184E+03  0.13024131566E+03  0.00000000000E+00 0. -1.
         11    1    1    2    0    0  0.45461256565E+02  0.31356045380E+01 -0.18425042110E+03  0.18980193767E+03  0.00000000000E+00 0.  1.
</event>
<event>
 7    1  0.1243146E-005  0.2208882E+03  0.7561462E-02  0.1133223E+00
          2   -1    0    0  501    0  0.00000000000E+00  0.00000000000E+00  0.31669738625E+03  0.31669738625E+03  0.00000000000E+00 0.  1.
         -2   -1    0    0    0  501 -0.00000000000E+00 -0.00000000000E+00 -0.18676018219E+03  0.18676018219E+03  0.00000000000E+00 0. -1.
         23    2    1    2    0    0  0.20451563038E+03 -0.14675448627E+02 -0.79859382600E+01  0.24031295336E+03  0.12507808953E+03 0.  0.
          5    1    3    3  502    0  0.21545036905E+03 -0.11238474004E+02  0.12851865019E+02  0.21616615752E+03  0.41800000000E+01 0. -1.
         -5    1    3    3    0  502 -0.10934738664E+02 -0.34369746227E+01 -0.20837803279E+02  0.24146795848E+02  0.41800000000E+01 0. -1.
        -11    1    1    2    0    0 -0.63072203723E+02 -0.23466343841E+02  0.88062192338E+01  0.67869887822E+02  0.00000000000E+00 0. -1.
         11    1    1    2    0    0 -0.14144342666E+03  0.38141792467E+02  0.12911692308E+03  0.19527472725E+03  0.00000000000E+00 0.  1.
</event>
<event>
 7    1  0.1243146E-005  0.1984841E+03  0.7561462E-02  0.1151024E+00
          2   -1    0    0  501    0  0.00000000000E+00  0.00000000000E+00  0.52532446961E+03  0.52532446961E+03  0.00000000000E+00 0.  1.
         -2   -1    0    0    0  501 -0.00000000000E+00 -0.00000000000E+00 -0.82779539147E+02  0.82779539147E+02  0.00000000000E+00 0. -1.
         23    2    1    2    0    0  0.10079640590E+03 -0.14568911539E+03  0.25442847494E+03  0.33431480228E+03  0.12508918569E+03 0.  0.
          5    1    3    3  502    0  0.80632025339E+02 -0.36025589186E+02  0.50402200912E+02  0.10177043207E+03  0.41800000000E+01 0.  1.
         -5    1    3    3    0  502  0.20164380566E+02 -0.10966352620E+03  0.20402627403E+03  0.23254437021E+03  0.41800000000E+01 0.  1.
        -11    1    1    2    0    0 -0.21232855804E+02  0.10591751741E+03  0.83936754917E+02  0.13680180367E+03  0.00000000000E+00 0. -1.
         11    1    1    2    0    0 -0.79563550101E+02  0.39771597977E+02  0.10417970060E+03  0.13698740281E+03  0.00000000000E+00 0.  1.
</event>
<event>
 7    1  0.1243146E-005  0.1579686E+03  0.7561462E-02  0.1191009E+00
         -1   -1    0    0    0  501 -0.00000000000E+00  0.00000000000E+00  0.40826773172E+02  0.40826773172E+02  0.00000000000E+00 0.  1.
          1   -1    0    0  501    0  0.00000000000E+00 -0.00000000000E+00 -0.89890715485E+03  0.89890715485E+03  0.00000000000E+00 0. -1.
         23    2    1    2    0    0 -0.13346829258E+03 -0.38970530364E+02 -0.26897272839E+03  0.32760853983E+03  0.12509412213E+03 0.  0.
          5    1    3    3  502    0  0.10485502756E+00  0.16402888993E+02 -0.11539839766E+03  0.11663330718E+03  0.41800000000E+01 0.  1.
         -5    1    3    3    0  502 -0.13357314760E+03 -0.55373419357E+02 -0.15357433074E+03  0.21097523265E+03  0.41800000000E+01 0.  1.
        -11    1    1    2    0    0  0.18891589335E+02  0.34923003434E+02 -0.69707524615E+02  0.80222486277E+02  0.00000000000E+00 0.  1.
         11    1    1    2    0    0  0.11457670324E+03  0.40475269301E+01 -0.51940012867E+03  0.53190290191E+03  0.00000000000E+00 0. -1.
</event>
<event>
 7    1  0.1243146E-005  0.1223060E+03  0.7561462E-02  0.1239341E+00
          3   -1    0    0  501    0  0.00000000000E+00  0.00000000000E+00  0.70359653324E+02  0.70359653324E+02  0.00000000000E+00 0. -1.
         -3   -1    0    0    0  501 -0.00000000000E+00 -0.00000000000E+00 -0.22390650177E+03  0.22390650177E+03  0.00000000000E+00 0.  1.
         23    2    1    2    0    0  0.19527818714E+02 -0.60220029988E+02 -0.98658446633E+02  0.17142925548E+03  0.12508682115E+03 0.  0.
          5    1    3    3  502    0  0.69977411676E+02 -0.15199958036E+02 -0.59384832614E+02  0.93123077773E+02  0.41800000000E+01 0. -1.
         -5    1    3    3    0  502 -0.50449592963E+02 -0.45020071952E+02 -0.39273614018E+02  0.78306177705E+02  0.41800000000E+01 0. -1.
        -11    1    1    2    0    0 -0.11255205154E+02 -0.20823633044E+02 -0.28837384477E+02  0.37308150312E+02  0.00000000000E+00 0.  1.
         11    1    1    2    0    0 -0.82726135596E+01  0.81043663033E+02 -0.26051017334E+02  0.85528749301E+02  0.00000000000E+00 0. -1.
</event>
<event>
 7    1  0.1243146E-005  0.1010147E+03  0.7561462E-02  0.1278176E+00
          1   -1    0    0  501    0  0.00000000000E+00  0.00000000000E+00  0.25119578839E+03  0.25119578839E+03  0.00000000000E+00 0. -1.
         -1   -1    0    0    0  501 -0.00000000000E+00 -0.00000000000E+00 -0.66080010385E+02  0.66080010385E+02  0.00000000000E+00 0.  1.
         23    2    1    2    0    0 -0.49616441685E+02  0.11584614827E+01  0.37418024965E+02  0.13656866854E+03  0.12160493130E+03 0.  0.
          5    1    3    3  502    0  0.28295791303E+02  0.16671511563E+02  0.45869801146E+02  0.56569445467E+02  0.41800000000E+01 0. -1.
         -5    1    3    3    0  502 -0.77912232988E+02 -0.15513050080E+02 -0.84517761814E+01  0.79999223075E+02  0.41800000000E+01 0.  1.
        -11    1    1    2    0    0  0.25296522401E+01  0.31796960227E+02  0.13343260576E+02  0.34575835824E+02  0.00000000000E+00 0.  1.
         11    1    1    2    0    0  0.47086789445E+02 -0.32955421709E+02  0.13435449247E+03  0.14613129441E+03  0.00000000000E+00 0. -1.
</event>
<event>
 7    1  0.1243146E-005  0.1367504E+03  0.7561462E-02  0.1217770E+00
         -1   -1    0    0    0  501 -0.00000000000E+00  0.00000000000E+00  0.11955083876E+03  0.11955083876E+03  0.00000000000E+00 0.  1.
          1   -1    0    0  501    0  0.00000000000E+00 -0.00000000000E+00 -0.18325621366E+03  0.18325621366E+03  0.00000000000E+00 0. -1.
         23    2    1    2    0    0 -0.41047195975E+02  0.83690328929E+02 -0.81792225727E+01  0.15621608514E+03  0.12509045575E+03 0.  0.
          5    1    3    3  502    0 -0.26914878737E+02  0.11528787173E+03 -0.18402818388E+02  0.11988261004E+03  0.41800000000E+01 0. -1.
         -5    1    3    3    0  502 -0.14132317238E+02 -0.31597542798E+02  0.10223595815E+02  0.36333475099E+02  0.41800000000E+01 0. -1.
        -11    1    1    2    0    0  0.21987873269E+02  0.10292645081E+02 -0.43670031975E+02  0.49964755642E+02  0.00000000000E+00 0. -1.
         11    1    1    2    0    0  0.19059322706E+02 -0.93982974010E+02 -0.11856120347E+02  0.96626211638E+02  0.00000000000E+00 0.  1.
</event>
<event>
 7    1  0.1243146E-005  0.1068251E+03  0.7561462E-02  0.1266565E+00
         -1   -1    0    0    0  501 -0.00000000000E+00  0.00000000000E+00  0.35211819676E+02  0.35211819676E+02  0.00000000000E+00 0.  1.
          1   -1    0    0  501    0  0.00000000000E+00 -0.00000000000E+00 -0.48484403405E+03  0.48484403405E+03  0.00000000000E+00 0. -1.
         23    2    1    2    0    0  0.25725529357E+02 -0.37505555863E+02 -0.13424723933E+03  0.18906298722E+03  0.12511603529E+03 0.  0.
          5    1    3    3  502    0  0.67889852181E+02  0.55655470910E+01 -0.46712247828E+02  0.82701353319E+02  0.41800000000E+01 0.  1.
         -5    1    3    3    0  502 -0.42164322824E+02 -0.43071102955E+02 -0.87534991501E+02  0.10636163390E+03  0.41800000000E+01 0.  1.
        -11    1    1    2    0    0 -0.10560256531E+02 -0.21558446019E+02 -0.26561666565E+02  0.35802342709E+02  0.00000000000E+00 0.  1.
         11    1    1    2    0    0 -0.15165272825E+02  0.59064001882E+02 -0.28882330848E+03  0.29519052380E+03  0.00000000000E+00 0. -1.
</event>
<event>
 7    1  0.1243146E-005  0.6322433E+02  0.7561462E-02  0.1384778E+00
         -2   -1    0    0    0  501 -0.00000000000E+00  0.00000000000E+00  0.44092303557E+02  0.44092303557E+02  0.00000000000E+00 0.  1.
          2   -1    0    0  501    0  0.00000000000E+00 -0.00000000000E+00 -0.33044943630E+03  0.33044943630E+03  0.00000000000E+00 0. -1.
         23    2    1    2    0    0  0.30202991975E+02 -0.40557099943E+02 -0.14312917372E+03  0.19669971919E+03  0.12509084730E+03 0.  0.
          5    1    3    3  502    0  0.39741888402E+02 -0.23638108282E+02  0.54954543430E+01  0.46753077709E+02  0.41800000000E+01 0. -1.
         -5    1    3    3    0  502 -0.95388964269E+01 -0.16918991661E+02 -0.14862462807E+03  0.14994664148E+03  0.41800000000E+01 0. -1.
        -11    1    1    2    0    0  0.56956327043E+00  0.26181052377E+02 -0.14142514188E+03  0.14382921352E+03  0.00000000000E+00 0. -1.
         11    1    1    2    0    0 -0.30772555245E+02  0.14376047565E+02 -0.18028171345E+01  0.34012807140E+02  0.00000000000E+00 0.  1.
</event>
<event>
 7    1  0.1243146E-005  0.1165101E+03  0.7561462E-02  0.1248968E+00
          1   -1    0    0  501    0  0.00000000000E+00  0.00000000000E+00  0.42857296991E+03  0.42857296991E+03  0.00000000000E+00 0. -1.
         -1   -1    0    0    0  501 -0.00000000000E+00 -0.00000000000E+00 -0.43067625842E+02  0.43067625842E+02  0.00000000000E+00 0.  1.
         23    2    1    2    0    0 -0.53967284888E+02  0.60949896829E+02  0.19037387697E+03  0.24248413307E+03  0.12621007883E+03 0.  0.
          5    1    3    3  502    0 -0.74573426929E+02 -0.10621694902E+02  0.90311874001E+02  0.11767635018E+03  0.41800000000E+01 0.  1.
         -5    1    3    3    0  502  0.20606142041E+02  0.71571591731E+02  0.10006200297E+03  0.12480778289E+03  0.41800000000E+01 0.  1.
        -11    1    1    2    0    0  0.35567108049E+02 -0.28091867446E+02  0.19170285005E+02  0.49210486878E+02  0.00000000000E+00 0. -1.
         11    1    1    2    0    0  0.18400176839E+02 -0.32858029383E+02  0.17596118210E+03  0.17994597580E+03  0.00000000000E+00 0.  1.
</event>
<event>
 7    1  0.1243146E-005  0.1061483E+03  0.7561462E-02  0.1267873E+00
         -1   -1    0    0    0  501 -0.00000000000E+00  0.00000000000E+00  0.25930509196E+02  0.25930509196E+02  0.00000000000E+00 0.  1.
          1   -1    0    0  501    0  0.00000000000E+00 -0.00000000000E+00 -0.51582521263E+03  0.51582521263E+03  0.00000000000E+00 0. -1.
         23    2    1    2    0    0 -0.12503700125E+02  0.31718646989E+02 -0.32403372286E+03  0.34900813443E+03  0.12508560774E+03 0.  0.
          5    1    3    3  502    0 -0.45717220886E+02  0.66867193654E+02 -0.20310836775E+03  0.21870474920E+03  0.41800000000E+01 0.  1.
         -5    1    3    3    0  502  0.33213520761E+02 -0.35148546664E+02 -0.12092535511E+03  0.13030338523E+03  0.41800000000E+01 0.  1.
        -11    1    1    2    0    0  0.44394293559E+02 -0.17231130073E+02 -0.14349068945E+03  0.15118645145E+03  0.00000000000E+00 0. -1.
         11    1    1    2    0    0 -0.31890593433E+02 -0.14487516916E+02 -0.22370291128E+02  0.41561135945E+02  0.00000000000E+00 0.  1.
</event>
<event>
 7    1  0.1243146E-005  0.1126913E+03  0.7561462E-02  0.1255666E+00
          1   -1    0    0  501    0  0.00000000000E+00  0.00000000000E+00  0.23090858210E+03  0.23090858210E+03  0.00000000000E+00 0. -1.
         -1   -1    0    0    0  501 -0.00000000000E+00 -0.00000000000E+00 -0.72468733326E+02  0.72468733326E+02  0.00000000000E+00 0.  1.
         23    2    1    2    0    0  0.27234375949E+02  0.34793110906E+02  0.27370148877E+02  0.13756999626E+03  0.12737388673E+03 0.  0.
          5    1    3    3  502    0 -0.47148979286E+02 -0.93106675687E+01  0.10180840657E+02  0.49303516049E+02  0.41800000000E+01 0. -1.
         -5    1    3    3    0  502  0.74383355236E+02  0.44103778474E+02  0.17189308220E+02  0.88266480211E+02  0.41800000000E+01 0.  1.
        -11    1    1    2    0    0 -0.18039124657E+02  0.24577234032E+02  0.12625841360E+02  0.32997913890E+02  0.00000000000E+00 0.  1.
         11    1    1    2    0    0 -0.91952512923E+01 -0.59370344938E+02  0.11844385854E+03  0.13280940528E+03  0.00000000000E+00 0. -1.
</event>
<event>
 7    1  0.1243146E-005  0.9571749E+02  0.7561462E-02  0.1289568E+00
          1   -1    0    0  501    0  0.00000000000E+00  0.00000000000E+00  0.21442526141E+03  0.21442526141E+03  0.00000000000E+00 0. -1.
         -1   -1    0    0    0  501 -0.00000000000E+00 -0.00000000000E+00 -0.75821513061E+02  0.75821513061E+02  0.00000000000E+00 0.  1.
         23    2    1    2    0    0  0.55973840083E+02  0.34131008283E+02  0.91641649056E+02  0.16835704055E+03  0.12509158550E+03 0.  0.
          5    1    3    3  502    0 -0.12179434243E+01 -0.71011261903E+01  0.97156605715E+02  0.97513013559E+02  0.41800000000E+01 0.  1.
         -5    1    3    3    0  502  0.57191783507E+02  0.41232134473E+02 -0.55149566585E+01  0.70844026995E+02  0.41800000000E+01 0.  1.
        -11    1    1    2    0    0  0.16408023429E+02 -0.36539499878E+02  0.17169380809E+02  0.43579191383E+02  0.00000000000E+00 0. -1.
         11    1    1    2    0    0 -0.72381863512E+02  0.24084915956E+01  0.29792718484E+02  0.78310542534E+02  0.00000000000E+00 0.  1.
</event>
<event>
 7    1  0.1243146E-005  0.1187068E+03  0.7561462E-02  0.1245246E+00
         -2   -1    0    0    0  501 -0.00000000000E+00  0.00000000000E+00  0.60945801916E+02  0.60945801916E+02  0.00000000000E+00 0. -1.
          2   -1    0    0  501    0  0.00000000000E+00 -0.00000000000E+00 -0.27977374358E+03  0.27977374358E+03  0.00000000000E+00 0.  1.
         23    2    1    2    0    0 -0.51954483994E+02  0.44834372926E+02 -0.89632912288E+02  0.16845388182E+03  0.12503304336E+03 0.  0.
          5    1    3    3  502    0  0.28306669220E+02  0.54078767189E+02 -0.31354349554E+02  0.68748441575E+02  0.41800000000E+01 0. -1.
         -5    1    3    3    0  502 -0.80261153214E+02 -0.92443942628E+01 -0.58278562733E+02  0.99705440247E+02  0.41800000000E+01 0. -1.
        -11    1    1    2    0    0  0.67249887508E+02 -0.43244312397E+02 -0.13409845482E+03  0.15612499323E+03  0.00000000000E+00 0.  1.
         11    1    1    2    0    0 -0.15295403514E+02 -0.15900605288E+01  0.49034254518E+01  0.16140670441E+02  0.00000000000E+00 0. -1.
</event>
<event>
 7    1  0.1243146E-005  0.5818843E+02  0.7561462E-02  0.1405595E+00
          1   -1    0    0  501    0  0.00000000000E+00  0.00000000000E+00  0.34978011828E+02  0.34978011828E+02  0.00000000000E+00 0. -1.
         -1   -1    0    0    0  501 -0.00000000000E+00 -0.00000000000E+00 -0.67961365709E+03  0.67961365709E+03  0.00000000000E+00 0.  1.
         23    2    1    2    0    0 -0.49375543701E+02 -0.22693155546E+02 -0.56592143796E+03  0.58212450917E+03  0.12509574974E+03 0.  0.
          5    1    3    3  502    0 -0.20356851644E+02 -0.47875084011E+01 -0.53641502478E+03  0.53683877734E+03  0.41800000000E+01 0.  1.
         -5    1    3    3    0  502 -0.29018692057E+02 -0.17905647144E+02 -0.29506413185E+02  0.45285731830E+02  0.41800000000E+01 0.  1.
        -11    1    1    2    0    0  0.10602628799E+02 -0.62548513073E+01  0.19453983114E+02  0.23021649839E+02  0.00000000000E+00 0. -1.
         11    1    1    2    0    0  0.38772914902E+02  0.28948006853E+02 -0.98168190411E+02  0.10944550991E+03  0.00000000000E+00 0.  1.
</event>
<event>
 7    1  0.1243146E-005  0.9771179E+02  0.7561462E-02  0.1285183E+00
          2   -1    0    0  501    0  0.00000000000E+00  0.00000000000E+00  0.54622457660E+03  0.54622457660E+03  0.00000000000E+00 0. -1.
         -2   -1    0    0    0  501 -0.00000000000E+00 -0.00000000000E+00 -0.24100498831E+02  0.24100498831E+02  0.00000000000E+00 0.  1.
         23    2    1    2    0    0  0.28483934664E+02 -0.28445913989E+02  0.26907848251E+03  0.29945253085E+03  0.12509230163E+03 0.  0.
          5    1    3    3  502    0 -0.25645626326E+02  0.14459216358E+02  0.19812045464E+03  0.20033959677E+03  0.41800000000E+01 0.  1.
         -5    1    3    3    0  502  0.54129560990E+02 -0.42905130347E+02  0.70958027867E+02  0.99112934079E+02  0.41800000000E+01 0.  1.
        -11    1    1    2    0    0 -0.59852548265E+02  0.25242877432E+02  0.16305871028E+03  0.17552114799E+03  0.00000000000E+00 0. -1.
         11    1    1    2    0    0  0.31368613601E+02  0.32030365571E+01  0.89986884986E+02  0.95351396592E+02  0.00000000000E+00 0.  1.
</event>
<event>
 7    1  0.1243146E-005  0.1309213E+03  0.7561462E-02  0.1226095E+00
          2   -1    0    0  501    0  0.00000000000E+00  0.00000000000E+00  0.53539073914E+03  0.53539073914E+03  0.00000000000E+00 0. -1.
         -2   -1    0    0    0  501 -0.00000000000E+00 -0.00000000000E+00 -0.62746843549E+02  0.62746843549E+02  0.00000000000E+00 0.  1.
         23    2    1    2    0    0 -0.98944596124E+02 -0.37519867477E+02  0.81785480833E+02  0.18317181291E+03  0.12516099477E+03 0.  0.
          5    1    3    3  502    0 -0.76385161795E+02 -0.54570152019E+02  0.10885485897E+03  0.14380350189E+03  0.41800000000E+01 0.  1.
         -5    1    3    3    0  502 -0.22559434329E+02  0.17050284542E+02 -0.27069378137E+02  0.39368311025E+02  0.41800000000E+01 0.  1.
        -11    1    1    2    0    0  0.61386160958E+02  0.67495202268E+02  0.26299926766E+03  0.27837470768E+03  0.00000000000E+00 0. -1.
         11    1    1    2    0    0  0.37558435166E+02 -0.29975334791E+02  0.12785914709E+03  0.13659106209E+03  0.00000000000E+00 0.  1.
</event>
<event>
 7    1  0.1243146E-005  0.1818899E+03  0.7561462E-02  0.1165986E+00
          2   -1    0    0  501    0  0.00000000000E+00  0.00000000000E+00  0.11694371892E+04  0.11694371892E+04  0.00000000000E+00 0. -1.
         -2   -1    0    0    0  501 -0.00000000000E+00 -0.00000000000E+00 -0.45541342825E+02  0.45541342825E+02  0.00000000000E+00 0.  1.
         23    2    1    2    0    0  0.12109260872E+03 -0.11837513972E+03  0.28581012866E+03  0.35498165089E+03  0.12509376177E+03 0.  0.
          5    1    3    3  502    0  0.10666064996E+03 -0.11208909318E+03  0.29721124389E+03  0.33510066392E+03  0.41800000000E+01 0. -1.
         -5    1    3    3    0  502  0.14431958757E+02 -0.62860465390E+01 -0.11401115231E+02  0.19880986977E+02  0.41800000000E+01 0. -1.
        -11    1    1    2    0    0 -0.48795800354E+01  0.64380685544E+02  0.29867412760E+03  0.30557309677E+03  0.00000000000E+00 0.  1.
         11    1    1    2    0    0 -0.11621302868E+03  0.53994454179E+02  0.53941159013E+03  0.55442378437E+03  0.00000000000E+00 0. -1.
</event>
<event>
 6    1  0.1243146E-005  0.1532016E+03  0.7561462E-02  0.1196593E+00
          2   -1    0    0  501    0  0.00000000000E+00  0.00000000000E+00  0.22120791452E+03  0.22120791452E+03  0.00000000000E+00 0. -1.
         -2   -1    0    0    0  501 -0.00000000000E+00 -0.00000000000E+00 -0.14330469445E+03  0.14330469445E+03  0.00000000000E+00 0.  1.
          5    1    1    2  502    0  0.30870712853E+02 -0.22445143395E+02  0.54439867308E+02  0.66617992514E+02  0.41800000000E+01 0. -1.
         -5    1    1    2    0  502  0.85378749908E+02  0.73751878940E+02 -0.52546735654E+02  0.12452912274E+03  0.41800000000E+01 0.  1.
        -11    1    1    2    0    0 -0.33103666487E+00 -0.38480076587E+02  0.26165835984E+02  0.46534684400E+02  0.00000000000E+00 0. -1.
         11    1    1    2    0    0 -0.11591842610E+03 -0.12826658958E+02  0.49844252433E+02  0.12683080931E+03  0.00000000000E+00 0.  1.
</event>
<event>
 7    1  0.1243146E-005  0.2551078E+03  0.7561462E-02  0.1110119E+00
         -1   -1    0    0    0  501 -0.00000000000E+00  0.00000000000E+00  0.37880880408E+02  0.37880880408E+02  0.00000000000E+00 0.  1.
          1   -1    0    0  501    0  0.00000000000E+00 -0.00000000000E+00 -0.18417575142E+04  0.18417575142E+04  0.00000000000E+00 0. -1.
         23    2    1    2    0    0  0.22657121500E+03 -0.63239238367E+02 -0.74864051522E+03  0.79463324889E+03  0.12508262264E+03 0.  0.
          5    1    3    3  502    0  0.23695666505E+03 -0.41185464899E+02 -0.65469679077E+03  0.69748839695E+03  0.41800000000E+01 0.  1.
         -5    1    3    3    0  502 -0.10385450050E+02 -0.22053773467E+02 -0.93943724444E+02  0.97144851944E+02  0.41800000000E+01 0.  1.
        -11    1    1    2    0    0 -0.92021110928E+02  0.60935538838E+02 -0.34807005695E+03  0.36514899602E+03  0.00000000000E+00 0.  1.
         11    1    1    2    0    0 -0.13455010407E+03  0.23036995283E+01 -0.70716606165E+03  0.71985614972E+03  0.00000000000E+00 0. -1.
</event>
<event>
 6    1  0.1243146E-005  0.1765729E+03  0.7561462E-02  0.1171162E+00
         -3   -1    0    0    0  501 -0.00000000000E+00  0.00000000000E+00  0.61742283175E+03  0.61742283175E+03  0.00000000000E+00 0.  1.
          3   -1    0    0  501    0  0.00000000000E+00 -0.00000000000E+00 -0.53939266681E+02  0.53939266681E+02  0.00000000000E+00 0. -1.
          5    1    1    2  502    0 -0.62929162496E+02  0.44976607772E+02  0.10089058603E+03  0.12719810333E+03  0.41800000000E+01 0. -1.
         -5    1    1    2    0  502  0.85791986804E+02  0.87443781293E+02  0.21682188622E+03  0.24907003559E+03  0.41800000000E+01 0.  1.
        -11    1    1    2    0    0  0.26277641756E+02 -0.60979613063E+02  0.15953784181E+03  0.17280437100E+03  0.00000000000E+00 0.  1.
         11    1    1    2    0    0 -0.49140466064E+02 -0.71440776002E+02  0.86233251005E+02  0.12228958852E+03  0.00000000000E+00 0. -1.
</event>
<event>
 7    1  0.1243146E-005  0.1157949E+03  0.7561462E-02  0.1250200E+00
          1   -1    0    0  501    0  0.00000000000E+00  0.00000000000E+00  0.28983629330E+03  0.28983629330E+03  0.00000000000E+00 0. -1.
         -1   -1    0    0    0  501 -0.00000000000E+00 -0.00000000000E+00 -0.51263042049E+02  0.51263042049E+02  0.00000000000E+00 0.  1.
         23    2    1    2    0    0  0.37959250723E+02 -0.23052311886E+02  0.86423123160E+02  0.15839397323E+03  0.12508949093E+03 0.  0.
          5    1    3    3  502    0 -0.41339921412E+02 -0.29585698669E+02  0.47573672907E+02  0.69749762881E+02  0.41800000000E+01 0. -1.
         -5    1    3    3    0  502  0.79299172135E+02  0.65333867827E+01  0.38849450253E+02  0.88644210353E+02  0.41800000000E+01 0. -1.
        -11    1    1    2    0    0  0.58062720611E+01 -0.30895678472E+02  0.53450733515E+02  0.62009972237E+02  0.00000000000E+00 0. -1.
         11    1    1    2    0    0 -0.43765522784E+02  0.53947990358E+02  0.98699394575E+02  0.12069538988E+03  0.00000000000E+00 0.  1.
</event>
<event>
 7    1  0.1243146E-005  0.9880833E+02  0.7561462E-02  0.1282822E+00
          2   -1    0    0  501    0  0.00000000000E+00  0.00000000000E+00  0.57889766138E+02  0.57889766138E+02  0.00000000000E+00 0. -1.
         -2   -1    0    0    0  501 -0.00000000000E+00 -0.00000000000E+00 -0.21545066902E+03  0.21545066902E+03  0.00000000000E+00 0.  1.
         23    2    1    2    0    0 -0.13382647516E+01  0.11951087564E+02 -0.11321212412E+03  0.16914433920E+03  0.12509277752E+03 0.  0.
          5    1    3    3  502    0 -0.40411740886E+02 -0.27649045350E+02 -0.76337132785E+01  0.49732529481E+02  0.41800000000E+01 0.  1.
         -5    1    3    3    0  502  0.39073476134E+02  0.39600132914E+02 -0.10557841084E+03  0.11941180972E+03  0.41800000000E+01 0.  1.
        -11    1    1    2    0    0  0.44504482621E+02 -0.19970777279E+02 -0.32851724826E+02  0.58810855653E+02  0.00000000000E+00 0.  1.
         11    1    1    2    0    0 -0.43166217870E+02  0.80196897152E+01 -0.11497053933E+02  0.45385240304E+02  0.00000000000E+00 0. -1.
</event>
<event>
 7    1  0.1243146E-005  0.7972652E+02  0.7561462E-02  0.1329829E+00
         -4   -1    0    0    0  501 -0.00000000000E+00  0.00000000000E+00  0.13560219744E+03  0.13560219744E+03  0.00000000000E+00 0.  1.
          4   -1    0    0  501    0  0.00000000000E+00 -0.00000000000E+00 -0.65071746243E+02  0.65071746243E+02  0.00000000000E+00 0. -1.
         23    2    1    2    0    0 -0.26774471895E+02  0.78029189394E+01  0.42392812761E+02  0.13498554818E+03  0.12508473030E+03 0.  0.
          5    1    3    3  502    0  0.34417299681E+02  0.21582567594E+02 -0.20816581340E+02  0.45838414021E+02  0.41800000000E+01 0.  1.
         -5    1    3    3    0  502 -0.61191771576E+02 -0.13779648654E+02  0.63209394101E+02  0.89147134156E+02  0.41800000000E+01 0.  1.
        -11    1    1    2    0    0 -0.13155160733E+02 -0.87681423167E+01 -0.16032445246E+01  0.15890530721E+02  0.00000000000E+00 0. -1.
         11    1    1    2    0    0  0.39929632628E+02  0.96522337724E+00  0.29740882961E+02  0.49797864787E+02  0.00000000000E+00 0.  1.
</event>
<event>
 7    1  0.1243146E-005  0.1486571E+03  0.7561462E-02  0.1202133E+00
          2   -1    0    0  501    0  0.00000000000E+00  0.00000000000E+00  0.54242271899E+03  0.54242271899E+03  0.00000000000E+00 0. -1.
         -2   -1    0    0    0  501 -0.00000000000E+00 -0.00000000000E+00 -0.58061680680E+02  0.58061680680E+02  0.00000000000E+00 0.  1.
         23    2    1    2    0    0  0.12620486137E+03  0.53151474759E+02  0.20698846753E+03  0.27793513719E+03  0.12510383084E+03 0.  0.
          5    1    3    3  502    0  0.59746493967E+02  0.15508690234E+01  0.17963539303E+03  0.18936313148E+03  0.41800000000E+01 0.  1.
         -5    1    3    3    0  502  0.66458367404E+02  0.51600605736E+02  0.27353074500E+02  0.88572005707E+02  0.41800000000E+01 0.  1.
        -11    1    1    2    0    0  0.93202200605E+00  0.10802585543E+02  0.51484064282E-01  0.10842839574E+02  0.00000000000E+00 0.  1.
         11    1    1    2    0    0 -0.12713688338E+03 -0.63954060302E+02  0.27732108672E+03  0.31170642291E+03  0.00000000000E+00 0. -1.
</event>
<event>
 7    1  0.2256013E-005  0.1343593E+03  0.7561462E-02  0.1221127E+00
         -3   -1    0    0    0  501 -0.00000000000E+00  0.00000000000E+00  0.91092301853E+03  0.91092301853E+03  0.00000000000E+00 0.  1.
          3   -1    0    0  501    0  0.00000000000E+00 -0.00000000000E+00 -0.28764719800E+02  0.28764719800E+02  0.00000000000E+00 0. -1.
         23    2    1    2    0    0 -0.11378674150E+03  0.33423191421E+02  0.50199726619E+03  0.53076689961E+03  0.12509082379E+03 0.  0.
          5    1    3    3  502    0 -0.93794731861E+02  0.17802758285E+02  0.49497111535E+03  0.50411136404E+03  0.41800000000E+01 0. -1.
         -5    1    3    3    0  502 -0.19992009644E+02  0.15620433136E+02  0.70261508410E+01  0.26655535571E+02  0.41800000000E+01 0. -1.
        -11    1    1    2    0    0  0.10922923442E+02  0.26315627782E+02  0.11188255843E+03  0.11545358116E+03  0.00000000000E+00 0. -1.
         11    1    1    2    0    0  0.10286381806E+03 -0.59738819203E+02  0.26827847410E+03  0.29346725755E+03  0.00000000000E+00 0.  1.
</event>
<event>
 7    1  0.1243146E-005  0.2428034E+03  0.7561462E-02  0.1117939E+00
         -2   -1    0    0    0  501 -0.00000000000E+00  0.00000000000E+00  0.12633441129E+03  0.12633441129E+03  0.00000000000E+00 0. -1.
          2   -1    0    0  501    0  0.00000000000E+00 -0.00000000000E+00 -0.53874460952E+03  0.53874460952E+03  0.00000000000E+00 0.  1.
         23    2    1    2    0    0 -0.37452237347E+01 -0.22491955594E+03 -0.11693237398E+03  0.28270723904E+03  0.12508944632E+03 0.  0.
          5    1    3    3  502    0  0.58114873122E+02 -0.14105029497E+03 -0.60927209050E+02  0.16432322231E+03  0.41800000000E+01 0.  1.
         -5    1    3    3    0  502 -0.61860096857E+02 -0.83869260967E+02 -0.56005164927E+02  0.11838401673E+03  0.41800000000E+01 0.  1.
        -11    1    1    2    0    0  0.22532059458E+02  0.11560379349E+03 -0.21563954741E+03  0.24570784518E+03  0.00000000000E+00 0.  1.
         11    1    1    2    0    0 -0.18786835724E+02  0.10931576244E+03 -0.79838276846E+02  0.13666393659E+03  0.00000000000E+00 0. -1.
</event>
<event>
 6    1  0.1243146E-005  0.1005110E+03  0.7561462E-02  0.1279225E+00
         -1   -1    0    0    0  501 -0.00000000000E+00  0.00000000000E+00  0.18443879797E+03  0.18443879797E+03  0.00000000000E+00 0.  1.
          1   -1    0    0  501    0  0.00000000000E+00 -0.00000000000E+00 -0.10724606627E+03  0.10724606627E+03  0.00000000000E+00 0. -1.
          5    1    1    2  502    0  0.26122469116E+02 -0.52498822497E+02  0.86250094064E+01  0.59416941553E+02  0.41800000000E+01 0. -1.
         -5    1    1    2    0  502 -0.54269767178E+02  0.44804326778E+02  0.10780624852E+03  0.12881108239E+03  0.41800000000E+01 0.  1.
        -11    1    1    2    0    0  0.43170300507E+02 -0.13967712709E+02 -0.56108629803E+02  0.72159200263E+02  0.00000000000E+00 0. -1.
         11    1    1    2    0    0 -0.15023002444E+02  0.21662208428E+02  0.16870103579E+02  0.31297640026E+02  0.00000000000E+00 0.  1.
</event>
<event>
 7    1  0.1243146E-005  0.9038952E+02  0.7561462E-02  0.1301911E+00
          2   -1    0    0  501    0  0.00000000000E+00  0.00000000000E+00  0.10605896531E+03  0.10605896531E+03  0.00000000000E+00 0.  1.
         -2   -1    0    0    0  501 -0.00000000000E+00 -0.00000000000E+00 -0.11605415409E+03  0.11605415409E+03  0.00000000000E+00 0. -1.
         23    2    1    2    0    0  0.26658645041E+02 -0.36776881029E+01 -0.25592024088E+02  0.13048540304E+03  0.12508908811E+03 0.  0.
          5    1    3    3  502    0  0.98610348505E+01  0.56136362741E+02  0.11090799237E+02  0.58215199543E+02  0.41800000000E+01 0. -1.
         -5    1    3    3    0  502  0.16797610191E+02 -0.59814050844E+02 -0.36682823325E+02  0.72270203497E+02  0.41800000000E+01 0. -1.
        -11    1    1    2    0    0  0.98540300614E+01  0.19282266518E+02  0.39668243152E+02  0.45193774187E+02  0.00000000000E+00 0.  1.
         11    1    1    2    0    0 -0.36512675103E+02 -0.15604578415E+02 -0.24071407839E+02  0.46433942176E+02  0.00000000000E+00 0. -1.
</event>
<event>
 7    1  0.1243146E-005  0.1030170E+03  0.7561462E-02  0.1274076E+00
         -1   -1    0    0    0  501 -0.00000000000E+00  0.00000000000E+00  0.23131146989E+03  0.23131146989E+03  0.00000000000E+00 0.  1.
          1   -1    0    0  501    0  0.00000000000E+00 -0.00000000000E+00 -0.57979770236E+02  0.57979770236E+02  0.00000000000E+00 0. -1.
         23    2    1    2    0    0 -0.37470127068E+02 -0.34116138936E+02  0.12691650849E+03  0.17627182650E+03  0.11133748395E+03 0.  0.
          5    1    3    3  502    0  0.31036492470E+02 -0.78191705549E+01  0.32882298593E+01  0.32445156011E+02  0.41800000000E+01 0. -1.
         -5    1    3    3    0  502 -0.68506619537E+02 -0.26296968381E+02  0.12362827863E+03  0.14382667049E+03  0.41800000000E+01 0.  1.
        -11    1    1    2    0    0  0.64980160848E+02  0.14805386286E+02  0.42821324518E+02  0.79216706573E+02  0.00000000000E+00 0. -1.
         11    1    1    2    0    0 -0.27510033780E+02  0.19310752651E+02  0.35938666427E+01  0.33802707051E+02  0.00000000000E+00 0.  1.
</event>
<event>
 7    1  0.1243146E-005  0.1300084E+03  0.7561462E-02  0.1227443E+00
          2   -1    0    0  501    0  0.00000000000E+00  0.00000000000E+00  0.19696557301E+03  0.19696557301E+03  0.00000000000E+00 0.  1.
         -2   -1    0    0    0  501 -0.00000000000E+00 -0.00000000000E+00 -0.11405247405E+03  0.11405247405E+03  0.00000000000E+00 0. -1.
         23    2    1    2    0    0  0.19988549866E+02  0.94045613660E+02  0.55318318857E+01  0.15786867779E+03  0.12509116152E+03 0.  0.
          5    1    3    3  502    0  0.18009099370E+02  0.10987763607E+03 -0.32791085389E+02  0.11614710608E+03  0.41800000000E+01 0.  1.
         -5    1    3    3    0  502  0.19794504961E+01 -0.15832022415E+02  0.38322917275E+02  0.41721571716E+02  0.41800000000E+01 0.  1.
        -11    1    1    2    0    0 -0.53273134171E+02 -0.33272586263E+02  0.34462233298E+02  0.71643124896E+02  0.00000000000E+00 0. -1.
         11    1    1    2    0    0  0.33284584305E+02 -0.60773027397E+02  0.42919033775E+02  0.81506244371E+02  0.00000000000E+00 0.  1.
</event>
<event>
 7    1  0.1243146E-005  0.6883223E+02  0.7561462E-02  0.1364110E+00
          4   -1    0    0  501    0  0.00000000000E+00  0.00000000000E+00  0.61447812793E+02  0.61447812793E+02  0.00000000000E+00 0. -1.
         -4   -1    0    0    0  501 -0.00000000000E+00 -0.00000000000E+00 -0.29863828541E+03  0.29863828541E+03  0.00000000000E+00 0.  1.
         23    2    1    2    0    0 -0.38411328728E+02  0.41199952588E+02 -0.18879097467E+03  0.23337217185E+03  0.12509065597E+03 0.  0.
          5    1    3    3  502    0 -0.41883888538E+02  0.33854159118E+02 -0.10724400033E+02  0.55071311631E+02  0.41800000000E+01 0.  1.
         -5    1    3    3    0  502  0.34725598096E+01  0.73457934700E+01 -0.17806657464E+03  0.17830086022E+03  0.41800000000E+01 0.  1.
        -11    1    1    2    0    0 -0.90795583771E+01 -0.21043545197E+02 -0.67820434579E+02  0.71588270836E+02  0.00000000000E+00 0.  1.
         11    1    1    2    0    0  0.47490887106E+02 -0.20156407391E+02  0.19420936627E+02  0.55125655519E+02  0.00000000000E+00 0. -1.
</event>
<event>
 7    1  0.1243146E-005  0.1810747E+03  0.7561462E-02  0.1166767E+00
         -1   -1    0    0    0  501 -0.00000000000E+00  0.00000000000E+00  0.82666095018E+03  0.82666095018E+03  0.00000000000E+00 0.  1.
          1   -1    0    0  501    0  0.00000000000E+00 -0.00000000000E+00 -0.44531569121E+02  0.44531569121E+02  0.00000000000E+00 0. -1.
         23    2    1    2    0    0 -0.15614083168E+03  0.22451538763E+02  0.44492448310E+03  0.48835560195E+03  0.12509743154E+03 0.  0.
          5    1    3    3  502    0 -0.15765423488E+02  0.51345660914E+02  0.16935219558E+03  0.17771483905E+03  0.41800000000E+01 0. -1.
         -5    1    3    3    0  502 -0.14037540819E+03 -0.28894122152E+02  0.27557228752E+03  0.31064076289E+03  0.41800000000E+01 0. -1.
        -11    1    1    2    0    0  0.10983183106E+03 -0.37730460251E+02  0.15180878653E+03  0.19113483830E+03  0.00000000000E+00 0. -1.
         11    1    1    2    0    0  0.46309000624E+02  0.15278921488E+02  0.18539611144E+03  0.19170207906E+03  0.00000000000E+00 0.  1.
</event>
<event>
 7    1  0.1243146E-005  0.1401842E+03  0.7561462E-02  0.1213081E+00
          4   -1    0    0  501    0  0.00000000000E+00  0.00000000000E+00  0.83825810378E+02  0.83825810378E+02  0.00000000000E+00 0. -1.
         -4   -1    0    0    0  501 -0.00000000000E+00 -0.00000000000E+00 -0.31320146698E+03  0.31320146698E+03  0.00000000000E+00 0.  1.
         23    2    1    2    0    0  0.11416105433E+03  0.79399879726E+01 -0.14177682306E+03  0.22100717976E+03  0.12509083185E+03 0.  0.
          5    1    3    3  502    0  0.37668395856E+02  0.29701176691E+02 -0.13232149807E+03  0.14081022405E+03  0.41800000000E+01 0. -1.
         -5    1    3    3    0  502  0.76492658474E+02 -0.21761188719E+02 -0.94553249850E+01  0.80196955712E+02  0.41800000000E+01 0. -1.
        -11    1    1    2    0    0 -0.64755307889E+02 -0.54540805758E+02 -0.45516359356E+02  0.96123297704E+02  0.00000000000E+00 0.  1.
         11    1    1    2    0    0 -0.49405746441E+02  0.46600817786E+02 -0.42082474185E+02  0.79896799894E+02  0.00000000000E+00 0. -1.
</event>
<event>
 7    1  0.1243146E-005  0.1261791E+03  0.7561462E-02  0.1233238E+00
          3   -1    0    0  501    0  0.00000000000E+00  0.00000000000E+00  0.42894290072E+02  0.42894290072E+02  0.00000000000E+00 0. -1.
         -3   -1    0    0    0  501 -0.00000000000E+00 -0.00000000000E+00 -0.10535375115E+04  0.10535375115E+04  0.00000000000E+00 0.  1.
         23    2    1    2    0    0 -0.46681692703E+02  0.58925945630E+02 -0.95627048913E+03  0.96734314666E+03  0.12509223596E+03 0.  0.
          5    1    3    3  502    0 -0.38666599676E+02  0.94052618238E+02 -0.82136899454E+03  0.82765058963E+03  0.41800000000E+01 0.  1.
         -5    1    3    3    0  502 -0.80150930274E+01 -0.35126672608E+02 -0.13490149460E+03  0.13969255703E+03  0.41800000000E+01 0.  1.
        -11    1    1    2    0    0  0.65546643831E+02 -0.16072434058E+02 -0.18137739646E+02  0.69883211528E+02  0.00000000000E+00 0. -1.
         11    1    1    2    0    0 -0.18864951127E+02 -0.42853511572E+02 -0.36234992669E+02  0.59205443405E+02  0.00000000000E+00 0.  1.
</event>
<event>
 7    1  0.1243146E-005  0.1181864E+03  0.7561462E-02  0.1246119E+00
         -1   -1    0    0    0  501 -0.00000000000E+00  0.00000000000E+00  0.11309676111E+03  0.11309676111E+03  0.00000000000E+00 0.  1.
          1   -1    0    0  501    0  0.00000000000E+00 -0.00000000000E+00 -0.16295748676E+03  0.16295748676E+03  0.00000000000E+00 0. -1.
         23    2    1    2    0    0  0.70848285695E+02  0.25244912648E+02  0.17191552178E+00  0.14596422075E+03  0.12509491989E+03 0.  0.
          5    1    3    3  502    0  0.95615247394E+02 -0.16395527030E+02 -0.37830058787E+01  0.97174443010E+02  0.41800000000E+01 0. -1.
         -5    1    3    3    0  502 -0.24766961700E+02  0.41640439678E+02  0.39549214005E+01  0.48789777737E+02  0.41800000000E+01 0. -1.
        -11    1    1    2    0    0 -0.34671025226E+02  0.13888405806E+02  0.19777550644E+02  0.42262504842E+02  0.00000000000E+00 0.  1.
         11    1    1    2    0    0 -0.36177260469E+02 -0.39133318454E+02 -0.69810191816E+02  0.87827522278E+02  0.00000000000E+00 0. -1.
</event>
<event>
 7    1  0.1243146E-005  0.1458803E+03  0.7561462E-02  0.1205629E+00
         -1   -1    0    0    0  501 -0.00000000000E+00  0.00000000000E+00  0.59422981580E+03  0.59422981580E+03  0.00000000000E+00 0.  1.
          1   -1    0    0  501    0  0.00000000000E+00 -0.00000000000E+00 -0.41581506014E+02  0.41581506014E+02  0.00000000000E+00 0. -1.
         23    2    1    2    0    0 -0.38195964176E+02 -0.10460595218E+03  0.34301342627E+03  0.38171452265E+03  0.12508568777E+03 0.  0.
          5    1    3    3  502    0 -0.73507338250E+02 -0.10575282051E+03  0.29536485779E+03  0.32224968493E+03  0.41800000000E+01 0.  1.
         -5    1    3    3    0  502  0.35311374074E+02  0.11468683285E+01  0.47648568486E+02  0.59464837717E+02  0.41800000000E+01 0.  1.
        -11    1    1    2    0    0  0.53398857024E+02  0.60610901729E+02  0.69933743812E+02  0.10684497117E+03  0.00000000000E+00 0. -1.
         11    1    1    2    0    0 -0.15202892848E+02  0.43995050454E+02  0.13970113970E+03  0.14725182800E+03  0.00000000000E+00 0.  1.
</event>
<event>
 7    1  0.1243146E-005  0.1564006E+03  0.7561462E-02  0.1192821E+00
          2   -1    0    0  501    0  0.00000000000E+00  0.00000000000E+00  0.50480130942E+03  0.50480130942E+03  0.00000000000E+00 0. -1.
         -2   -1    0    0    0  501 -0.00000000000E+00 -0.00000000000E+00 -0.60637916473E+02  0.60637916473E+02  0.00000000000E+00 0.  1.
         23    2    1    2    0    0 -0.89876720726E+02 -0.10315509218E+03  0.24682458976E+03  0.30868826451E+03  0.12508904254E+03 0.  0.
          5    1    3    3  502    0  0.12143311693E+02  0.55483684388E+01  0.94429055233E+02  0.95459746927E+02  0.41800000000E+01 0.  1.
         -5    1    3    3    0  502 -0.10202003242E+03 -0.10870346062E+03  0.15239553453E+03  0.21322851758E+03  0.41800000000E+01 0.  1.
        -11    1    1    2    0    0  0.89793231993E+02  0.63402994220E+02  0.18488517055E+03  0.21509367837E+03  0.00000000000E+00 0. -1.
         11    1    1    2    0    0  0.83488733197E-01  0.39752097958E+02  0.12453632644E+02  0.41657283018E+02  0.00000000000E+00 0.  1.
</event>
<event>
 7    1  0.1243146E-005  0.6986021E+02  0.7561462E-02  0.1360569E+00
         -2   -1    0    0    0  501 -0.00000000000E+00  0.00000000000E+00  0.24648927941E+03  0.24648927941E+03  0.00000000000E+00 0.  1.
          2   -1    0    0  501    0  0.00000000000E+00 -0.00000000000E+00 -0.57960024794E+02  0.57960024794E+02  0.00000000000E+00 0. -1.
         23    2    1    2    0    0  0.13075299626E+02 -0.29111244179E+02  0.15887501087E+03  0.20471332343E+03  0.12509135746E+03 0.  0.
          5    1    3    3  502    0 -0.40988099868E+02 -0.32512793159E+02  0.21017824420E+02  0.56536071610E+02  0.41800000000E+01 0.  1.
         -5    1    3    3    0  502  0.54063399494E+02  0.34015489797E+01  0.13785718645E+03  0.14817725182E+03  0.41800000000E+01 0.  1.
        -11    1    1    2    0    0 -0.10082815733E+02  0.12663527144E+02 -0.31996861239E+02  0.35858433066E+02  0.00000000000E+00 0. -1.
         11    1    1    2    0    0 -0.29924838922E+01  0.16447717034E+02  0.61651104980E+02  0.63877547705E+02  0.00000000000E+00 0.  1.
</event>
<event>
 7    1  0.1243146E-005  0.1172136E+03  0.7561462E-02  0.1247766E+00
          2   -1    0    0  501    0  0.00000000000E+00  0.00000000000E+00  0.13519246051E+03  0.13519246051E+03  0.00000000000E+00 0. -1.
         -2   -1    0    0    0  501 -0.00000000000E+00 -0.00000000000E+00 -0.11375449657E+03  0.11375449657E+03  0.00000000000E+00 0.  1.
         23    2    1    2    0    0 -0.46953876088E+02 -0.11547414888E+02 -0.95949801148E+01  0.13441478306E+03  0.12504903435E+03 0.  0.
          5    1    3    3  502    0  0.38844639114E+02 -0.92981477231E+01 -0.24728194960E+02  0.47162671308E+02  0.41800000000E+01 0.  1.
         -5    1    3    3    0  502 -0.85798515202E+02 -0.22492671653E+01  0.15133214845E+02  0.87252111752E+02  0.41800000000E+01 0.  1.
        -11    1    1    2    0    0  0.24268946641E+02  0.54557318896E+02  0.27610504886E+02  0.65786190012E+02  0.00000000000E+00 0.  1.
         11    1    1    2    0    0  0.22684929447E+02 -0.43009904007E+02  0.34224391661E+01  0.48745984004E+02  0.00000000000E+00 0. -1.
</event>
<event>
 7    1  0.1243146E-005  0.1017462E+03  0.7561462E-02  0.1276666E+00
         -1   -1    0    0    0  501 -0.00000000000E+00  0.00000000000E+00  0.19355496908E+03  0.19355496908E+03  0.00000000000E+00 0. -1.
          1   -1    0    0  501    0  0.00000000000E+00 -0.00000000000E+00 -0.92688475387E+02  0.92688475387E+02  0.00000000000E+00 0.  1.
         23    2    1    2    0    0 -0.44492007751E+02 -0.64263243747E+02  0.62793310040E+02  0.16030610264E+03  0.12508294650E+03 0.  0.
          5    1    3    3  502    0 -0.52743998606E+02 -0.38440484970E+02  0.96671837984E+02  0.11671553852E+03  0.41800000000E+01 0. -1.
         -5    1    3    3    0  502  0.82519908548E+01 -0.25822758777E+02 -0.33878527944E+02  0.43590564112E+02  0.41800000000E+01 0. -1.
        -11    1    1    2    0    0  0.26058565739E+02  0.81415589354E+02  0.48952408739E+02  0.98508300968E+02  0.00000000000E+00 0. -1.
         11    1    1    2    0    0  0.18433442012E+02 -0.17152345607E+02 -0.10879225085E+02  0.27429040863E+02  0.00000000000E+00 0.  1.
</event>
<event>
 7    1  0.1243146E-005  0.1964093E+03  0.7561462E-02  0.1152804E+00
          1   -1    0    0  501    0  0.00000000000E+00  0.00000000000E+00  0.46946826593E+03  0.46946826593E+03  0.00000000000E+00 0. -1.
         -1   -1    0    0    0  501 -0.00000000000E+00 -0.00000000000E+00 -0.96683818899E+02  0.96683818899E+02  0.00000000000E+00 0.  1.
         23    2    1    2    0    0 -0.16641656747E+03  0.41088631595E+02  0.10205385317E+03  0.23547049314E+03  0.12509442280E+03 0.  0.
          5    1    3    3  502    0 -0.50546736450E+01 -0.27693039900E+02 -0.64377613189E+01  0.29178268546E+02  0.41800000000E+01 0.  1.
         -5    1    3    3    0  502 -0.16136189383E+03  0.68781671494E+02  0.10849161449E+03  0.20629222459E+03  0.41800000000E+01 0.  1.
        -11    1    1    2    0    0  0.10631793805E+03 -0.64555425127E+02  0.16188068159E+03  0.20414764739E+03  0.00000000000E+00 0.  1.
         11    1    1    2    0    0  0.60098629426E+02  0.23466793532E+02  0.10884991227E+03  0.12653394430E+03  0.00000000000E+00 0. -1.
</event>
<event>
 7    1  0.1243146E-005  0.1915180E+03  0.7561462E-02  0.1157099E+00
          1   -1    0    0  501    0  0.00000000000E+00  0.00000000000E+00  0.88241720078E+02  0.88241720078E+02  0.00000000000E+00 0. -1.
         -1   -1    0    0    0  501 -0.00000000000E+00 -0.00000000000E+00 -0.54169030275E+03  0.54169030275E+03  0.00000000000E+00 0.  1.
         23    2    1    2    0    0  0.13655806145E+03 -0.11185563259E+03 -0.33509140666E+03  0.39886533776E+03  0.12509004821E+03 0.  0.
          5    1    3    3  502    0  0.26868333262E+02 -0.77258445113E+02 -0.22561463144E+03  0.24002126779E+03  0.41800000000E+01 0.  1.
         -5    1    3    3    0  502  0.10968972819E+03 -0.34597187476E+02 -0.10947677522E+03  0.15884406997E+03  0.41800000000E+01 0.  1.
        -11    1    1    2    0    0 -0.91569237325E+02  0.10693339970E+03 -0.50629489955E+02  0.14960956671E+03  0.00000000000E+00 0. -1.
         11    1    1    2    0    0 -0.44988824128E+02  0.49222328842E+01 -0.67727686061E+02  0.81457118364E+02  0.00000000000E+00 0.  1.
</event>
<event>
 7    1  0.1243146E-005  0.1428673E+03  0.7561462E-02  0.1209522E+00
          2   -1    0    0  501    0  0.00000000000E+00  0.00000000000E+00  0.85319879134E+02  0.85319879134E+02  0.00000000000E+00 0. -1.
         -2   -1    0    0    0  501 -0.00000000000E+00 -0.00000000000E+00 -0.27655575113E+03  0.27655575113E+03  0.00000000000E+00 0.  1.
         23    2    1    2    0    0 -0.91691728246E+02  0.49264344447E+02 -0.13695237347E+03  0.21269179823E+03  0.12508996672E+03 0.  0.
          5    1    3    3  502    0 -0.24257324462E+02  0.76841018803E+02 -0.36571640317E+02  0.88588471238E+02  0.41800000000E+01 0.  1.
         -5    1    3    3    0  502 -0.67434403784E+02 -0.27576674356E+02 -0.10038073315E+03  0.12410332699E+03  0.41800000000E+01 0.  1.
        -11    1    1    2    0    0  0.14068719925E+02 -0.52529470212E+02 -0.45673594326E+02  0.71016556800E+02  0.00000000000E+00 0.  1.
         11    1    1    2    0    0  0.77623008321E+02  0.32651257648E+01 -0.86099041988E+01  0.78167275233E+02  0.00000000000E+00 0. -1.
</event>
<event>
 7    1  0.1243146E-005  0.1117476E+03  0.7561462E-02  0.1257367E+00
         -1   -1    0    0    0  501 -0.00000000000E+00  0.00000000000E+00  0.11883760627E+03  0.11883760627E+03  0.00000000000E+00 0.  1.
          1   -1    0    0  501    0  0.00000000000E+00 -0.00000000000E+00 -0.13207322375E+03  0.13207322375E+03  0.00000000000E+00 0. -1.
         23    2    1    2    0    0 -0.52885996938E+02  0.32569124736E+02 -0.16277466469E+02  0.14060672576E+03  0.12509044270E+03 0.  0.
          5    1    3    3  502    0  0.65200084399E+01 -0.36209402952E+02 -0.31190503025E+02  0.48414370296E+02  0.41800000000E+01 0. -1.
         -5    1    3    3    0  502 -0.59406005377E+02  0.68778527688E+02  0.14913036556E+02  0.92192355459E+02  0.41800000000E+01 0. -1.
        -11    1    1    2    0    0 -0.17100054394E+02 -0.16326582268E+02  0.25747267817E+02  0.34955556767E+02  0.00000000000E+00 0.  1.
         11    1    1    2    0    0  0.69986051332E+02 -0.16242542468E+02 -0.22705418830E+02  0.75348547505E+02  0.00000000000E+00 0. -1.
</event>
<event>
 7    1  0.1243146E-005  0.2030457E+03  0.7561462E-02  0.1147194E+00
          1   -1    0    0  501    0  0.00000000000E+00  0.00000000000E+00  0.16881147377E+03  0.16881147377E+03  0.00000000000E+00 0. -1.
         -1   -1    0    0    0  501 -0.00000000000E+00 -0.00000000000E+00 -0.25454789983E+03  0.25454789983E+03  0.00000000000E+00 0.  1.
         23    2    1    2    0    0 -0.17382390332E+03 -0.23184947164E+02 -0.24851962097E+02  0.21683139767E+03  0.12508374737E+03 0.  0.
          5    1    3    3  502    0 -0.19322224453E+03 -0.14717605945E+02 -0.22546281598E+02  0.19513393073E+03  0.41800000000E+01 0. -1.
         -5    1    3    3    0  502  0.19398341215E+02 -0.84673412189E+01 -0.23056804996E+01  0.21697466943E+02  0.41800000000E+01 0. -1.
        -11    1    1    2    0    0  0.12818637142E+03 -0.17717872068E+02 -0.65560651119E+02  0.14506504673E+03  0.00000000000E+00 0.  1.
         11    1    1    2    0    0  0.45637531901E+02  0.40902819232E+02  0.46761871620E+01  0.61462929198E+02  0.00000000000E+00 0. -1.
</event>
<event>
 7    1  0.1243146E-005  0.1386949E+03  0.7561462E-02  0.1215096E+00
         -1   -1    0    0    0  501 -0.00000000000E+00  0.00000000000E+00  0.47278678961E+02  0.47278678961E+02  0.00000000000E+00 0.  1.
          1   -1    0    0  501    0  0.00000000000E+00 -0.00000000000E+00 -0.63883281523E+03  0.63883281523E+03  0.00000000000E+00 0. -1.
         23    2    1    2    0    0  0.69556528739E+02 -0.54183929665E+02 -0.11364257240E+03  0.19062020462E+03  0.12508964475E+03 0.  0.
          5    1    3    3  502    0 -0.27327984320E+02 -0.43861263618E+02 -0.60074589624E+02  0.79354003627E+02  0.41800000000E+01 0.  1.
         -5    1    3    3    0  502  0.96884513059E+02 -0.10322666047E+02 -0.53567982775E+02  0.11126620099E+03  0.41800000000E+01 0.  1.
        -11    1    1    2    0    0 -0.61338678302E+02 -0.11002817428E+02 -0.18199984178E+03  0.19237317343E+03  0.00000000000E+00 0.  1.
         11    1    1    2    0    0 -0.82178504378E+01  0.65186747093E+02 -0.29591172209E+03  0.30311811614E+03  0.00000000000E+00 0. -1.
</event>
<event>
 7    1  0.1243146E-005  0.9468398E+02  0.7561462E-02  0.1291889E+00
         -2   -1    0    0    0  501 -0.00000000000E+00  0.00000000000E+00  0.25987138825E+03  0.25987138825E+03  0.00000000000E+00 0.  1.
          2   -1    0    0  501    0  0.00000000000E+00 -0.00000000000E+00 -0.54831223740E+02  0.54831223740E+02  0.00000000000E+00 0. -1.
         23    2    1    2    0    0 -0.37523058216E+02  0.42297288445E+02  0.15253318303E+03  0.20520944963E+03  0.12508999074E+03 0.  0.
          5    1    3    3  502    0 -0.55692212846E+02 -0.17896967884E+02  0.12161653834E+03  0.13501843885E+03  0.41800000000E+01 0.  1.
         -5    1    3    3    0  502  0.18169154630E+02  0.60194256330E+02  0.30916644692E+02  0.70191010778E+02  0.41800000000E+01 0.  1.
        -11    1    1    2    0    0  0.39750365542E+01 -0.32520591151E+02  0.64668160694E+02  0.72493867133E+02  0.00000000000E+00 0.  1.
         11    1    1    2    0    0  0.33548021662E+02 -0.97766972939E+01 -0.12161179218E+02  0.36999295228E+02  0.00000000000E+00 0. -1.
</event>
<event>
 7    1  0.1243146E-005  0.9106554E+02  0.7561462E-02  0.1300292E+00
          2   -1    0    0  501    0  0.00000000000E+00  0.00000000000E+00  0.43000202614E+02  0.43000202614E+02  0.00000000000E+00 0. -1.
         -2   -1    0    0    0  501 -0.00000000000E+00 -0.00000000000E+00 -0.46052078418E+03  0.46052078418E+03  0.00000000000E+00 0.  1.
         23    2    1    2    0    0 -0.14156367060E+02  0.69755055330E+02 -0.32553851115E+03  0.35593493714E+03  0.12509271268E+03 0.  0.
          5    1    3    3  502    0 -0.23893977554E+02 -0.11026130528E+02 -0.75777031633E+01  0.27701835734E+02  0.41800000000E+01 0.  1.
         -5    1    3    3    0  502  0.97376104939E+01  0.80781185859E+02 -0.31796080798E+03  0.32823310141E+03  0.41800000000E+01 0.  1.
        -11    1    1    2    0    0 -0.18004609891E+01 -0.41686199641E+02  0.80305497102E+01  0.42490829939E+02  0.00000000000E+00 0. -1.
         11    1    1    2    0    0  0.15956828049E+02 -0.28068855689E+02 -0.10001262013E+03  0.10509521971E+03  0.00000000000E+00 0.  1.
</event>
<event>
 7    1  0.1243146E-005  0.7937272E+02  0.7561462E-02  0.1330841E+00
         -1   -1    0    0    0  501 -0.00000000000E+00  0.00000000000E+00  0.61513589090E+02  0.61513589090E+02  0.00000000000E+00 0.  1.
          1   -1    0    0  501    0  0.00000000000E+00 -0.00000000000E+00 -0.22533811422E+03  0.22533811422E+03  0.00000000000E+00 0. -1.
         23    2    1    2    0    0  0.38456524903E+02  0.24449098289E+02 -0.98462021495E+02  0.16558716230E+03  0.12509067082E+03 0.  0.
          5    1    3    3  502    0 -0.10699138805E+02  0.32948182356E+01 -0.11003038834E+03  0.11067739677E+03  0.41800000000E+01 0.  1.
         -5    1    3    3    0  502  0.49155663707E+02  0.21154280053E+02  0.11568366840E+02  0.54909765529E+02  0.41800000000E+01 0.  1.
        -11    1    1    2    0    0 -0.95512473563E+01  0.29993774756E+02 -0.77762790269E-01  0.31477911259E+02  0.00000000000E+00 0.  1.
         11    1    1    2    0    0 -0.28905277546E+02 -0.54442873044E+02 -0.65284740846E+02  0.89786629755E+02  0.00000000000E+00 0. -1.
</event>
<event>
 7    1  0.1243146E-005  0.1160273E+03  0.7561462E-02  0.1249798E+00
         -2   -1    0    0    0  501 -0.00000000000E+00  0.00000000000E+00  0.30497494474E+02  0.30497494474E+02  0.00000000000E+00 0. -1.
          2   -1    0    0  501    0  0.00000000000E+00 -0.00000000000E+00 -0.56272691203E+03  0.56272691203E+03  0.00000000000E+00 0.  1.
         23    2    1    2    0    0  0.52234231821E+02  0.21996434014E+02 -0.21248526858E+03  0.25300514796E+03  0.12509739184E+03 0.  0.
          5    1    3    3  502    0  0.38312896158E+02  0.70899648752E+02 -0.93284388825E+02  0.12334540041E+03  0.41800000000E+01 0. -1.
         -5    1    3    3    0  502  0.13921335663E+02 -0.48903214738E+02 -0.11920087976E+03  0.12965974755E+03  0.41800000000E+01 0. -1.
        -11    1    1    2    0    0 -0.56981252641E+02  0.18235678922E+02 -0.98108278084E+02  0.11491143271E+03  0.00000000000E+00 0. -1.
         11    1    1    2    0    0  0.47470208205E+01 -0.40232112936E+02 -0.22163587089E+03  0.22530782584E+03  0.00000000000E+00 0.  1.
</event>
<event>
 7    1  0.1243146E-005  0.1061881E+03  0.7561462E-02  0.1267796E+00
          3   -1    0    0  501    0  0.00000000000E+00  0.00000000000E+00  0.57725433599E+02  0.57725433599E+02  0.00000000000E+00 0. -1.
         -3   -1    0    0    0  501 -0.00000000000E+00 -0.00000000000E+00 -0.28907571559E+03  0.28907571559E+03  0.00000000000E+00 0.  1.
         23    2    1    2    0    0 -0.53204353029E+02  0.45030824282E+02 -0.13721449347E+03  0.19832829752E+03  0.12509123896E+03 0.  0.
          5    1    3    3  502    0 -0.87383443224E+02  0.58994222042E+02 -0.93770009456E+02  0.14116115421E+03  0.41800000000E+01 0.  1.
         -5    1    3    3    0  502  0.34179090195E+02 -0.13963397759E+02 -0.43444484016E+02  0.57167143316E+02  0.41800000000E+01 0.  1.
        -11    1    1    2    0    0  0.21494300680E+02 -0.18269579336E+02 -0.10235684417E+03  0.10617300052E+03  0.00000000000E+00 0.  1.
         11    1    1    2    0    0  0.31710052349E+02 -0.26761244946E+02  0.82210556490E+01  0.42299851147E+02  0.00000000000E+00 0. -1.
</event>
<event>
 7    1  0.1243146E-005  0.1066679E+03  0.7561462E-02  0.1266868E+00
          1   -1    0    0  501    0  0.00000000000E+00  0.00000000000E+00  0.31044064735E+02  0.31044064735E+02  0.00000000000E+00 0. -1.
         -1   -1    0    0    0  501 -0.00000000000E+00 -0.00000000000E+00 -0.41229382634E+03  0.41229382634E+03  0.00000000000E+00 0.  1.
         23    2    1    2    0    0  0.11458702224E+02  0.13310257838E+02 -0.26334976276E+03  0.29207783741E+03  0.12509156941E+03 0.  0.
          5    1    3    3  502    0 -0.54053018923E+02  0.71930145140E+01 -0.77286089445E+02  0.94678827275E+02  0.41800000000E+01 0.  1.
         -5    1    3    3    0  502  0.65511721147E+02  0.61172433243E+01 -0.18606367332E+03  0.19739901014E+03  0.41800000000E+01 0.  1.
        -11    1    1    2    0    0  0.40125491460E+02 -0.43540157542E+01 -0.36159381685E+02  0.54189606033E+02  0.00000000000E+00 0. -1.
         11    1    1    2    0    0 -0.51584193684E+02 -0.89562420841E+01 -0.81740617152E+02  0.97070447628E+02  0.00000000000E+00 0.  1.
</event>
<event>
 7    1  0.1243146E-005  0.9110459E+02  0.7561462E-02  0.1300199E+00
          2   -1    0    0  501    0  0.00000000000E+00  0.00000000000E+00  0.61826563647E+03  0.61826563647E+03  0.00000000000E+00 0. -1.
         -2   -1    0    0    0  501 -0.00000000000E+00 -0.00000000000E+00 -0.21903733259E+02  0.21903733259E+02  0.00000000000E+00 0.  1.
         23    2    1    2    0    0 -0.42271447851E+01 -0.36535968596E+02  0.28925478624E+03  0.31722561352E+03  0.12494403848E+03 0.  0.
          5    1    3    3  502    0  0.42202296544E+02  0.39646757263E+01  0.22147185611E+03  0.22553050334E+03  0.41800000000E+01 0. -1.
         -5    1    3    3    0  502 -0.46429441329E+02 -0.40500644322E+02  0.67782930133E+02  0.91695110176E+02  0.41800000000E+01 0. -1.
        -11    1    1    2    0    0 -0.23300087093E+01 -0.20408678027E+02  0.15438992444E+02  0.25696411560E+02  0.00000000000E+00 0.  1.
         11    1    1    2    0    0  0.65571534944E+01  0.56944646623E+02  0.29166812453E+03  0.29724734466E+03  0.00000000000E+00 0. -1.
</event>
<event>
 6    1  0.1243146E-005  0.1326097E+03  0.7561462E-02  0.1223634E+00
          1   -1    0    0  501    0  0.00000000000E+00  0.00000000000E+00  0.44279580072E+03  0.44279580072E+03  0.00000000000E+00 0. -1.
         -1   -1    0    0    0  501 -0.00000000000E+00 -0.00000000000E+00 -0.11656034582E+03  0.11656034582E+03  0.00000000000E+00 0.  1.
          5    1    1    2  502    0 -0.50086345770E+02 -0.91081328985E+01 -0.23055381609E+01  0.51131086667E+02  0.41800000000E+01 0. -1.
         -5    1    1    2    0  502  0.77775090979E+02  0.68358734987E+02 -0.48809252152E+02  0.11454997565E+03  0.41800000000E+01 0.  1.
        -11    1    1    2    0    0 -0.48978381727E+02 -0.15459566142E+01  0.13422000993E+03  0.14288555884E+03  0.00000000000E+00 0. -1.
         11    1    1    2    0    0  0.21289636518E+02 -0.57704645474E+02  0.24313023528E+03  0.25078952538E+03  0.00000000000E+00 0.  1.
</event>
<event>
 7    1  0.1243146E-005  0.1340685E+03  0.7561462E-02  0.1221541E+00
          2   -1    0    0  501    0  0.00000000000E+00  0.00000000000E+00  0.72665363520E+03  0.72665363520E+03  0.00000000000E+00 0. -1.
         -2   -1    0    0    0  501 -0.00000000000E+00 -0.00000000000E+00 -0.27586939684E+02  0.27586939684E+02  0.00000000000E+00 0.  1.
         23    2    1    2    0    0  0.32132983079E+02 -0.88842262242E+02  0.36366044700E+03  0.39600768472E+03  0.12509072503E+03 0.  0.
          5    1    3    3  502    0  0.69810939159E+02 -0.89284973734E+02  0.22108988313E+03  0.24848255992E+03  0.41800000000E+01 0.  1.
         -5    1    3    3    0  502 -0.37677956080E+02  0.44271149152E+00  0.14257056387E+03  0.14752512481E+03  0.41800000000E+01 0.  1.
        -11    1    1    2    0    0 -0.45946927491E+02  0.91824709300E+02  0.32457064461E+03  0.34042473577E+03  0.00000000000E+00 0. -1.
         11    1    1    2    0    0  0.13813944412E+02 -0.29824470582E+01  0.10835603919E+02  0.17808154395E+02  0.00000000000E+00 0.  1.
</event>
<event>
 7    1  0.1243146E-005  0.1350759E+03  0.7561462E-02  0.1220113E+00
         -2   -1    0    0    0  501 -0.00000000000E+00  0.00000000000E+00  0.21914145777E+03  0.21914145777E+03  0.00000000000E+00 0.  1.
          2   -1    0    0  501    0  0.00000000000E+00 -0.00000000000E+00 -0.11321870458E+03  0.11321870458E+03  0.00000000000E+00 0. -1.
         23    2    1    2    0    0 -0.55413910332E+02 -0.91907324927E+02  0.98433533340E+02  0.19197459788E+03  0.12508967948E+03 0.  0.
          5    1    3    3  502    0 -0.82210635200E+02 -0.10421823265E+03  0.91842328917E+02  0.16146985582E+03  0.41800000000E+01 0.  1.
         -5    1    3    3    0  502  0.26796724868E+02  0.12310907724E+02  0.65912044232E+01  0.30504742063E+02  0.41800000000E+01 0.  1.
        -11    1    1    2    0    0  0.29688578601E+02  0.42275663503E+02  0.48652610842E+02  0.70962806918E+02  0.00000000000E+00 0.  1.
         11    1    1    2    0    0  0.25725331731E+02  0.49631661425E+02 -0.41163390996E+02  0.69422757556E+02  0.00000000000E+00 0. -1.
</event>
<event>
 7    1  0.1243146E-005  0.8799017E+02  0.7561462E-02  0.1307793E+00
         -2   -1    0    0    0  501 -0.00000000000E+00  0.00000000000E+00  0.99216277919E+02  0.99216277919E+02  0.00000000000E+00 0.  1.
          2   -1    0    0  501    0  0.00000000000E+00 -0.00000000000E+00 -0.24317716033E+03  0.24317716033E+03  0.00000000000E+00 0. -1.
         23    2    1    2    0    0 -0.16026452816E+02  0.30147000888E+02  0.38233540553E+02  0.13518587977E+03  0.12509088542E+03 0.  0.
          5    1    3    3  502    0  0.39733140167E+02  0.25328941378E+02 -0.22592854398E+02  0.52423154890E+02  0.41800000000E+01 0.  1.
         -5    1    3    3    0  502 -0.55759592983E+02  0.48180595108E+01  0.60826394951E+02  0.82762724881E+02  0.41800000000E+01 0.  1.
        -11    1    1    2    0    0 -0.45872617516E+01 -0.46198750397E+02 -0.17360504539E+03  0.17970553495E+03  0.00000000000E+00 0. -1.
         11    1    1    2    0    0  0.20613714568E+02  0.16051749509E+02 -0.85893775703E+01  0.27502023519E+02  0.00000000000E+00 0.  1.
</event>
<event>
 7    1  0.1243146E-005  0.1864587E+03  0.7561462E-02  0.1161695E+00
         -2   -1    0    0    0  501 -0.00000000000E+00  0.00000000000E+00  0.46024584944E+02  0.46024584944E+02  0.00000000000E+00 0. -1.
          2   -1    0    0  501    0  0.00000000000E+00 -0.00000000000E+00 -0.96393911312E+03  0.96393911312E+03  0.00000000000E+00 0.  1.
         23    2    1    2    0    0 -0.16549609333E+03 -0.68473185980E+02 -0.42912697447E+03  0.48153414135E+03  0.12509050709E+03 0.  0.
          5    1    3    3  502    0 -0.11144503375E+03 -0.50935821589E+02 -0.13678018581E+03  0.18368654033E+03  0.41800000000E+01 0. -1.
         -5    1    3    3    0  502 -0.54051059571E+02 -0.17537364391E+02 -0.29234678867E+03  0.29784760102E+03  0.41800000000E+01 0. -1.
        -11    1    1    2    0    0  0.44786595594E+01  0.26581870013E+02 -0.13242987611E+03  0.13514557445E+03  0.00000000000E+00 0.  1.
         11    1    1    2    0    0  0.16101743377E+03  0.41891315967E+02 -0.35635767759E+03  0.39328398227E+03  0.00000000000E+00 0. -1.
</event>
<event>
 7    1  0.1243146E-005  0.1205047E+03  0.7561462E-02  0.1242267E+00
         -2   -1    0    0    0  501 -0.00000000000E+00  0.00000000000E+00  0.33480312444E+02  0.33480312444E+02  0.00000000000E+00 0.  1.
          2   -1    0    0  501    0  0.00000000000E+00 -0.00000000000E+00 -0.65287528713E+03  0.65287528713E+03  0.00000000000E+00 0. -1.
         23    2    1    2    0    0 -0.74967616541E+02  0.67024609477E+02 -0.33245572777E+03  0.36917030368E+03  0.12508980927E+03 0.  0.
          5    1    3    3  502    0 -0.24393404520E+02  0.34901573953E+01 -0.25708888760E+03  0.25830096382E+03  0.41800000000E+01 0. -1.
         -5    1    3    3    0  502 -0.50574212021E+02  0.63534452081E+02 -0.75366840176E+02  0.11086933986E+03  0.41800000000E+01 0. -1.
        -11    1    1    2    0    0  0.78305333437E+02 -0.85493196277E+02 -0.25545361858E+03  0.28053050298E+03  0.00000000000E+00 0. -1.
         11    1    1    2    0    0 -0.33377168963E+01  0.18468586800E+02 -0.31485628327E+02  0.36654792914E+02  0.00000000000E+00 0.  1.
</event>
<event>
 6    1  0.1243146E-005  0.1115572E+03  0.7561462E-02  0.1257713E+00
         -1   -1    0    0    0  501 -0.00000000000E+00  0.00000000000E+00  0.25345202153E+02  0.25345202153E+02  0.00000000000E+00 0.  1.
          1   -1    0    0  501    0  0.00000000000E+00 -0.00000000000E+00 -0.57035394407E+03  0.57035394407E+03  0.00000000000E+00 0. -1.
          5    1    1    2  502    0  0.52116063119E+02 -0.52057067650E+02 -0.21781372681E+03  0.22997024659E+03  0.41800000000E+01 0. -1.
         -5    1    1    2    0  502 -0.24557727712E+02  0.52851316649E+02 -0.70294389637E+02  0.91406330614E+02  0.41800000000E+01 0.  1.
        -11    1    1    2    0    0  0.17783561198E+02  0.30853791227E+02 -0.59684355177E+02  0.69501321821E+02  0.00000000000E+00 0. -1.
         11    1    1    2    0    0 -0.45341896605E+02 -0.31648040225E+02 -0.19721627029E+03  0.20482124720E+03  0.00000000000E+00 0.  1.
</event>
<event>
 7    1  0.1243146E-005  0.9859997E+02  0.7561462E-02  0.1283268E+00
         -1   -1    0    0    0  501 -0.00000000000E+00  0.00000000000E+00  0.37247334465E+02  0.37247334465E+02  0.00000000000E+00 0.  1.
          1   -1    0    0  501    0  0.00000000000E+00 -0.00000000000E+00 -0.44466529995E+03  0.44466529995E+03  0.00000000000E+00 0. -1.
         23    2    1    2    0    0 -0.13104490111E+02  0.59699824348E+02 -0.16233012245E+03  0.21385622839E+03  0.12509045158E+03 0.  0.
          5    1    3    3  502    0 -0.45492023224E+02  0.23331144293E+02 -0.15642644254E+03  0.16462251000E+03  0.41800000000E+01 0. -1.
         -5    1    3    3    0  502  0.32387533113E+02  0.36368680055E+02 -0.59036799062E+01  0.49233718390E+02  0.41800000000E+01 0. -1.
        -11    1    1    2    0    0  0.96097637062E+01 -0.77900878621E+02 -0.23315777436E+03  0.24601512594E+03  0.00000000000E+00 0. -1.
         11    1    1    2    0    0  0.34947264051E+01  0.18201054273E+02 -0.11930068683E+02  0.22041280092E+02  0.00000000000E+00 0.  1.
</event>
<event>
 7    1  0.1243146E-005  0.2377035E+03  0.7561462E-02  0.1121332E+00
         -1   -1    0    0    0  501 -0.00000000000E+00  0.00000000000E+00  0.38874163464E+03  0.38874163464E+03  0.00000000000E+00 0.  1.
          1   -1    0    0  501    0  0.00000000000E+00 -0.00000000000E+00 -0.18109412085E+03  0.18109412085E+03  0.00000000000E+00 0. -1.
         23    2    1    2    0    0  0.12215436903E+03 -0.18334461423E+03  0.21457577397E+03  0.32801493331E+03  0.11407934194E+03 0.  0.
          5    1    3    3  502    0 -0.68500012506E+01 -0.82620270219E+02  0.88812207256E+02  0.12156525871E+03  0.41800000000E+01 0. -1.
         -5    1    3    3    0  502  0.12900437028E+03 -0.10072434401E+03  0.12576356672E+03  0.20644967460E+03  0.41800000000E+01 0.  1.
        -11    1    1    2    0    0 -0.23866687862E+02  0.90055048534E+02 -0.41468768660E+02  0.10197641556E+03  0.00000000000E+00 0. -1.
         11    1    1    2    0    0 -0.98287681169E+02  0.93289565698E+02  0.34540508473E+02  0.13984440662E+03  0.00000000000E+00 0.  1.
</event>
<event>
 7    1  0.1243146E-005  0.2805421E+03  0.7561462E-02  0.1095393E+00
          1   -1    0    0  501    0  0.00000000000E+00  0.00000000000E+00  0.71778713142E+03  0.71778713142E+03  0.00000000000E+00 0. -1.
         -1   -1    0    0    0  501 -0.00000000000E+00 -0.00000000000E+00 -0.21222111338E+03  0.21222111338E+03  0.00000000000E+00 0.  1.
         23    2    1    2    0    0 -0.26750951300E+02  0.27180213727E+03 -0.49689410432E+02  0.30448012107E+03  0.12508833438E+03 0.  0.
          5    1    3    3  502    0  0.26369292670E+02  0.17854613806E+03 -0.72730529618E+02  0.19463110067E+03  0.41800000000E+01 0.  1.
         -5    1    3    3    0  502 -0.53120243970E+02  0.93255999214E+02  0.23041119187E+02  0.10984902040E+03  0.41800000000E+01 0.  1.
        -11    1    1    2    0    0  0.56547100053E+01 -0.76700848365E+02  0.25896702124E+03  0.27014609747E+03  0.00000000000E+00 0.  1.
         11    1    1    2    0    0  0.21096241295E+02 -0.19510128891E+03  0.29628840723E+03  0.35538202626E+03  0.00000000000E+00 0. -1.
</event>
<event>
 7    1  0.1243146E-005  0.1289499E+03  0.7561462E-02  0.1229022E+00
         -1   -1    0    0    0  501 -0.00000000000E+00  0.00000000000E+00  0.15215561899E+02  0.15215561899E+02  0.00000000000E+00 0.  1.
          1   -1    0    0  501    0  0.00000000000E+00 -0.00000000000E+00 -0.11872613417E+04  0.11872613417E+04  0.00000000000E+00 0. -1.
         23    2    1    2    0    0 -0.61366539499E+02  0.36401790267E+02 -0.71088934255E+03  0.72532962842E+03  0.12509384483E+03 0.  0.
          5    1    3    3  502    0 -0.45429195739E+02 -0.42890673107E+02 -0.33731207786E+03  0.34307481973E+03  0.41800000000E+01 0.  1.
         -5    1    3    3    0  502 -0.15937343760E+02  0.79292463374E+02 -0.37357726469E+03  0.38225480869E+03  0.41800000000E+01 0.  1.
        -11    1    1    2    0    0  0.35751181940E+02 -0.66056353150E+02 -0.37570381109E+03  0.38313828114E+03  0.00000000000E+00 0.  1.
         11    1    1    2    0    0  0.25615357559E+02  0.29654562883E+02 -0.85452626146E+02  0.94008994027E+02  0.00000000000E+00 0. -1.
</event>
<event>
 7    1  0.1243146E-005  0.1459826E+03  0.7561462E-02  0.1205498E+00
          3   -1    0    0  501    0  0.00000000000E+00  0.00000000000E+00  0.97230489513E+02  0.97230489513E+02  0.00000000000E+00 0. -1.
         -3   -1    0    0    0  501 -0.00000000000E+00 -0.00000000000E+00 -0.48052496451E+03  0.48052496451E+03  0.00000000000E+00 0.  1.
         23    2    1    2    0    0 -0.11368237677E+03 -0.29891476359E+02 -0.39769921937E+03  0.43316385824E+03  0.12509626633E+03 0.  0.
          5    1    3    3  502    0 -0.50270975409E+02 -0.64033353824E+02 -0.30498057421E+03  0.31568665543E+03  0.41800000000E+01 0.  1.
         -5    1    3    3    0  502 -0.63411401362E+02  0.34141877465E+02 -0.92718645162E+02  0.11747720281E+03  0.41800000000E+01 0.  1.
        -11    1    1    2    0    0  0.88152990683E+02 -0.12287957737E+02  0.28249702408E+02  0.93380883257E+02  0.00000000000E+00 0. -1.
         11    1    1    2    0    0  0.25529386089E+02  0.42179434096E+02 -0.13844958037E+02  0.51210712530E+02  0.00000000000E+00 0.  1.
</event>
<event>
 7    1  0.1243146E-005  0.7623222E+02  0.7561462E-02  0.1340097E+00
         -2   -1    0    0    0  501 -0.00000000000E+00  0.00000000000E+00  0.70471103982E+02  0.70471103982E+02  0.00000000000E+00 0.  1.
          2   -1    0    0  501    0  0.00000000000E+00 -0.00000000000E+00 -0.26060981210E+03  0.26060981210E+03  0.00000000000E+00 0. -1.
         23    2    1    2    0    0 -0.21257988555E+01 -0.45297015718E+02 -0.21964747456E+02  0.13485803646E+03  0.12509157131E+03 0.  0.
          5    1    3    3  502    0 -0.24857827348E+02 -0.27194342846E+02  0.47022573432E+02  0.59883542610E+02  0.41800000000E+01 0.  1.
         -5    1    3    3    0  502  0.22732028493E+02 -0.18102672872E+02 -0.68987320889E+02  0.74974493849E+02  0.41800000000E+01 0.  1.
        -11    1    1    2    0    0 -0.20821625356E+02  0.56699529427E+02 -0.60306689714E+02  0.85353813880E+02  0.00000000000E+00 0.  1.
         11    1    1    2    0    0  0.22947424212E+02 -0.11402513709E+02 -0.10786727095E+03  0.11086906574E+03  0.00000000000E+00 0. -1.
</event>
<event>
 7    1  0.1243146E-005  0.1082411E+03  0.7561462E-02  0.1263862E+00
          1   -1    0    0  501    0  0.00000000000E+00  0.00000000000E+00  0.31532781138E+03  0.31532781138E+03  0.00000000000E+00 0. -1.
         -1   -1    0    0    0  501 -0.00000000000E+00 -0.00000000000E+00 -0.53987762552E+02  0.53987762552E+02  0.00000000000E+00 0.  1.
         23    2    1    2    0    0  0.25092013866E+02 -0.31501374616E+02  0.60123343052E+02  0.14451115325E+03  0.12508681493E+03 0.  0.
          5    1    3    3  502    0 -0.47537050504E+02  0.83131518965E+01  0.20463979758E+02  0.52584470452E+02  0.41800000000E+01 0. -1.
         -5    1    3    3    0  502  0.72629064370E+02 -0.39814526512E+02  0.39659363293E+02  0.91926682794E+02  0.41800000000E+01 0. -1.
        -11    1    1    2    0    0 -0.45579570261E+02  0.42097484652E+02  0.79113425297E+02  0.10054168042E+03  0.00000000000E+00 0.  1.
         11    1    1    2    0    0  0.20487556395E+02 -0.10596110037E+02  0.12210328047E+03  0.12426274026E+03  0.00000000000E+00 0. -1.
</event>
<event>
 7    1  0.1243146E-005  0.1177001E+03  0.7561462E-02  0.1246940E+00
         -1   -1    0    0    0  501 -0.00000000000E+00  0.00000000000E+00  0.57864882516E+03  0.57864882516E+03  0.00000000000E+00 0.  1.
          1   -1    0    0  501    0  0.00000000000E+00 -0.00000000000E+00 -0.33044079636E+02  0.33044079636E+02  0.00000000000E+00 0. -1.
         23    2    1    2    0    0 -0.72023885322E+02 -0.35444606539E+02  0.26347333474E+03  0.30250567677E+03  0.12509087164E+03 0.  0.
          5    1    3    3  502    0  0.24359891140E+02 -0.45095277838E+02  0.99827596691E+02  0.11229430013E+03  0.41800000000E+01 0.  1.
         -5    1    3    3    0  502 -0.96383776462E+02  0.96506712990E+01  0.16364573805E+03  0.19021137664E+03  0.41800000000E+01 0.  1.
        -11    1    1    2    0    0  0.69214472735E+02  0.21036833281E+02  0.28516521261E+03  0.29419787572E+03  0.00000000000E+00 0.  1.
         11    1    1    2    0    0  0.28094125873E+01  0.14407773258E+02 -0.30338018278E+01  0.14989352317E+02  0.00000000000E+00 0. -1.
</event>
<event>
 7    1  0.1243146E-005  0.7601704E+02  0.7561462E-02  0.1340750E+00
         -1   -1    0    0    0  501 -0.00000000000E+00  0.00000000000E+00  0.26867416757E+02  0.26867416757E+02  0.00000000000E+00 0.  1.
          1   -1    0    0  501    0  0.00000000000E+00 -0.00000000000E+00 -0.45677508338E+03  0.45677508338E+03  0.00000000000E+00 0. -1.
         23    2    1    2    0    0 -0.24708906003E+02 -0.82936873838E+01 -0.22632262869E+03  0.25990214154E+03  0.12509146908E+03 0.  0.
          5    1    3    3  502    0 -0.53475243041E+02  0.99269264866E+01 -0.21783463770E+03  0.22456078748E+03  0.41800000000E+01 0.  1.
         -5    1    3    3    0  502  0.28766337038E+02 -0.18220613870E+02 -0.84879909818E+01  0.35341354067E+02  0.41800000000E+01 0.  1.
        -11    1    1    2    0    0 -0.18859611023E+02  0.48516800805E+01 -0.45963287592E+01  0.20008747227E+02  0.00000000000E+00 0.  1.
         11    1    1    2    0    0  0.43568517026E+02  0.34420073033E+01 -0.19898870918E+03  0.20373161137E+03  0.00000000000E+00 0. -1.
</event>
<event>
 7    1  0.1243146E-005  0.8250600E+02  0.7561462E-02  0.1322087E+00
          1   -1    0    0  501    0  0.00000000000E+00  0.00000000000E+00  0.20683458371E+03  0.20683458371E+03  0.00000000000E+00 0. -1.
         -1   -1    0    0    0  501 -0.00000000000E+00 -0.00000000000E+00 -0.55618406822E+02  0.55618406822E+02  0.00000000000E+00 0.  1.
         23    2    1    2    0    0  0.11134750378E+02 -0.19528350986E+02  0.62057193550E+02  0.14143244096E+03  0.12508677358E+03 0.  0.
          5    1    3    3  502    0  0.30695118810E+02 -0.58173100759E+02  0.71142765223E+02  0.96979716510E+02  0.41800000000E+01 0. -1.
         -5    1    3    3    0  502 -0.19560368432E+02  0.38644749773E+02 -0.90855716733E+01  0.44452724448E+02  0.41800000000E+01 0. -1.
        -11    1    1    2    0    0 -0.26580463888E+02  0.27468261305E+02  0.93587949931E+01  0.39352426651E+02  0.00000000000E+00 0.  1.
         11    1    1    2    0    0  0.15445713510E+02 -0.79399103187E+01  0.79800188343E+02  0.81668122920E+02  0.00000000000E+00 0. -1.
</event>
<event>
 7    1  0.1243146E-005  0.1240164E+03  0.7561462E-02  0.1236615E+00
         -1   -1    0    0    0  501 -0.00000000000E+00  0.00000000000E+00  0.47120613587E+02  0.47120613587E+02  0.00000000000E+00 0.  1.
          1   -1    0    0  501    0  0.00000000000E+00 -0.00000000000E+00 -0.39846190130E+03  0.39846190130E+03  0.00000000000E+00 0. -1.
         23    2    1    2    0    0 -0.51164323243E+02 -0.50104598143E+02 -0.12318996470E+03  0.18961065645E+03  0.12509266529E+03 0.  0.
          5    1    3    3  502    0  0.21484829556E+01  0.32915296453E+02 -0.20398583421E+01  0.33311651740E+02  0.41800000000E+01 0. -1.
         -5    1    3    3    0  502 -0.53312806199E+02 -0.83019894595E+02 -0.12115010636E+03  0.15629900471E+03  0.41800000000E+01 0. -1.
        -11    1    1    2    0    0 -0.14535881440E+02  0.48156100287E+02 -0.96391878065E+02  0.10872762299E+03  0.00000000000E+00 0. -1.
         11    1    1    2    0    0  0.65700204683E+02  0.19484978560E+01 -0.13175944494E+03  0.14724423544E+03  0.00000000000E+00 0.  1.
</event>
<event>
 7    1  0.1243146E-005  0.8775244E+02  0.7561462E-02  0.1308388E+00
         -2   -1    0    0    0  501 -0.00000000000E+00  0.00000000000E+00  0.10118300900E+04  0.10118300900E+04  0.00000000000E+00 0.  1.
          2   -1    0    0  501    0  0.00000000000E+00 -0.00000000000E+00 -0.27556766281E+02  0.27556766281E+02  0.00000000000E+00 0. -1.
         23    2    1    2    0    0  0.67060392508E+02 -0.88123479332E+01  0.85241130239E+03  0.86419080382E+03  0.12508382487E+03 0.  0.
          5    1    3    3  502    0 -0.88921917813E+01 -0.74189767866E+01  0.60992984264E+03  0.61005409402E+03  0.41800000000E+01 0.  1.
         -5    1    3    3    0  502  0.75952584289E+02 -0.13933711466E+01  0.24248145975E+03  0.25413670980E+03  0.41800000000E+01 0.  1.
        -11    1    1    2    0    0 -0.40358007288E+02  0.32189560208E+02  0.16038209771E+02  0.54057013525E+02  0.00000000000E+00 0. -1.
         11    1    1    2    0    0 -0.26702385220E+02 -0.23377212274E+02  0.11582381152E+03  0.12113903890E+03  0.00000000000E+00 0.  1.
</event>
<event>
 7    1  0.1243146E-005  0.1733169E+03  0.7561462E-02  0.1174432E+00
         -2   -1    0    0    0  501 -0.00000000000E+00  0.00000000000E+00  0.48846051810E+02  0.48846051810E+02  0.00000000000E+00 0. -1.
          2   -1    0    0  501    0  0.00000000000E+00 -0.00000000000E+00 -0.83468664326E+03  0.83468664326E+03  0.00000000000E+00 0.  1.
         23    2    1    2    0    0 -0.29384733911E+02  0.16449532651E+03 -0.34565438110E+03  0.40378993106E+03  0.12508869740E+03 0.  0.
          5    1    3    3  502    0 -0.41800957691E+02  0.73384689263E+02 -0.60030669482E+02  0.10370046461E+03  0.41800000000E+01 0. -1.
         -5    1    3    3    0  502  0.12416223780E+02  0.91110637243E+02 -0.28562371162E+03  0.30008946645E+03  0.41800000000E+01 0. -1.
        -11    1    1    2    0    0  0.78829193447E+01 -0.12336111030E+03 -0.20003283565E+03  0.23514514516E+03  0.00000000000E+00 0. -1.
         11    1    1    2    0    0  0.21501814566E+02 -0.41134216207E+02 -0.24015337469E+03  0.24459761885E+03  0.00000000000E+00 0.  1.
</event>
<event>
 7    1  0.1243146E-005  0.1537249E+03  0.7561462E-02  0.1195969E+00
         -2   -1    0    0    0  501 -0.00000000000E+00  0.00000000000E+00  0.10982037890E+03  0.10982037890E+03  0.00000000000E+00 0.  1.
          2   -1    0    0  501    0  0.00000000000E+00 -0.00000000000E+00 -0.27953624494E+03  0.27953624494E+03  0.00000000000E+00 0. -1.
         23    2    1    2    0    0 -0.98976122535E+02 -0.91678641149E+02 -0.66014880861E+02  0.19546511985E+03  0.12508957794E+03 0.  0.
          5    1    3    3  502    0 -0.99695951445E+02 -0.34903261272E+02  0.33029354898E+01  0.10576342546E+03  0.41800000000E+01 0.  1.
         -5    1    3    3    0  502  0.71982890922E+00 -0.56775379877E+02 -0.69317816351E+02  0.89701694396E+02  0.41800000000E+01 0.  1.
        -11    1    1    2    0    0  0.50112253895E+01  0.34388692131E+02  0.94844928403E+01  0.36022911193E+02  0.00000000000E+00 0.  1.
         11    1    1    2    0    0  0.93964897146E+02  0.57289949018E+02 -0.11318547802E+03  0.15786859279E+03  0.00000000000E+00 0. -1.
</event>
<event>
 7    1  0.1243146E-005  0.1286341E+03  0.7561462E-02  0.1229497E+00
         -4   -1    0    0    0  501 -0.00000000000E+00  0.00000000000E+00  0.12346792147E+03  0.12346792147E+03  0.00000000000E+00 0.  1.
          4   -1    0    0  501    0  0.00000000000E+00 -0.00000000000E+00 -0.17543846597E+03  0.17543846597E+03  0.00000000000E+00 0. -1.
         23    2    1    2    0    0  0.82739529253E+02  0.54235901720E+02 -0.23105453038E+02  0.16114833558E+03  0.12509021290E+03 0.  0.
          5    1    3    3  502    0 -0.23346313962E+02 -0.10200895245E+02  0.16681284337E+02  0.30738352047E+02  0.41800000000E+01 0.  1.
         -5    1    3    3    0  502  0.10608584321E+03  0.64436796964E+02 -0.39786737376E+02  0.13040998353E+03  0.41800000000E+01 0.  1.
        -11    1    1    2    0    0 -0.20911598189E+02 -0.37934708599E+02 -0.53849488632E+02  0.69109366089E+02  0.00000000000E+00 0. -1.
         11    1    1    2    0    0 -0.61827931064E+02 -0.16301193121E+02  0.24984397172E+02  0.68648685776E+02  0.00000000000E+00 0.  1.
</event>
<event>
 7    1  0.1243146E-005  0.8361386E+02  0.7561462E-02  0.1319098E+00
          2   -1    0    0  501    0  0.00000000000E+00  0.00000000000E+00  0.18064099668E+03  0.18064099668E+03  0.00000000000E+00 0. -1.
         -2   -1    0    0    0  501 -0.00000000000E+00 -0.00000000000E+00 -0.13645025596E+03  0.13645025596E+03  0.00000000000E+00 0.  1.
         23    2    1    2    0    0  0.20715496860E+02  0.57579916422E+02 -0.71425529646E+02  0.15650336931E+03  0.12508844764E+03 0.  0.
          5    1    3    3  502    0  0.11357445306E+02  0.13449753302E+02  0.35792990671E+02  0.40106084438E+02  0.41800000000E+01 0.  1.
         -5    1    3    3    0  502  0.93580515536E+01  0.44130163121E+02 -0.10721852032E+03  0.11639728487E+03  0.41800000000E+01 0.  1.
        -11    1    1    2    0    0  0.20932491596E+02 -0.58540971108E+02  0.39036462026E+02  0.73410216389E+02  0.00000000000E+00 0. -1.
         11    1    1    2    0    0 -0.41647988456E+02  0.96105468598E+00  0.76579808335E+02  0.87177666941E+02  0.00000000000E+00 0.  1.
</event>
<event>
 7    1  0.1243146E-005  0.1198105E+03  0.7561462E-02  0.1243410E+00
         -1   -1    0    0    0  501 -0.00000000000E+00  0.00000000000E+00  0.52379376951E+02  0.52379376951E+02  0.00000000000E+00 0.  1.
          1   -1    0    0  501    0  0.00000000000E+00 -0.00000000000E+00 -0.30448106656E+03  0.30448106656E+03  0.00000000000E+00 0. -1.
         23    2    1    2    0    0  0.57103325337E+02  0.11265257234E+02 -0.10035311260E+03  0.17061430442E+03  0.12510314896E+03 0.  0.
          5    1    3    3  502    0  0.63933509459E+01  0.61043986505E+02 -0.70108342215E+02  0.93273229133E+02  0.41800000000E+01 0.  1.
         -5    1    3    3    0  502  0.50709974391E+02 -0.49778729271E+02 -0.30244770383E+02  0.77341075284E+02  0.41800000000E+01 0.  1.
        -11    1    1    2    0    0  0.13446453144E+02  0.24404991441E+02 -0.28783909375E+02  0.40061504568E+02  0.00000000000E+00 0.  1.
         11    1    1    2    0    0 -0.70549778481E+02 -0.35670248675E+02 -0.12296466764E+03  0.14618463453E+03  0.00000000000E+00 0. -1.
</event>
<event>
 7    1  0.1243146E-005  0.5593549E+02  0.7561462E-02  0.1415726E+00
         -3   -1    0    0    0  501 -0.00000000000E+00  0.00000000000E+00  0.11930162349E+04  0.11930162349E+04  0.00000000000E+00 0.  1.
          3   -1    0    0  501    0  0.00000000000E+00 -0.00000000000E+00 -0.13395662961E+02  0.13395662961E+02  0.00000000000E+00 0. -1.
         23    2    1    2    0    0  0.92501442818E+01 -0.34630099815E+02  0.91905100963E+03  0.92821684739E+03  0.12508776313E+03 0.  0.
          5    1    3    3  502    0  0.12702034966E+02 -0.36481096416E+02  0.92125876891E+03  0.92207776450E+03  0.41800000000E+01 0. -1.
         -5    1    3    3    0  502 -0.34518906840E+01  0.18509966014E+01 -0.22077592764E+01  0.61390828904E+01  0.41800000000E+01 0. -1.
        -11    1    1    2    0    0  0.24150299133E+02  0.12219025667E+02  0.18446701363E+02  0.32753966594E+02  0.00000000000E+00 0. -1.
         11    1    1    2    0    0 -0.33400443415E+02  0.22411074148E+02  0.24212286095E+03  0.24544108389E+03  0.00000000000E+00 0.  1.
</event>
<event>
 7    1  0.1243146E-005  0.1269633E+03  0.7561462E-02  0.1232032E+00
         -2   -1    0    0    0  501 -0.00000000000E+00  0.00000000000E+00  0.20294633879E+02  0.20294633879E+02  0.00000000000E+00 0. -1.
          2   -1    0    0  501    0  0.00000000000E+00 -0.00000000000E+00 -0.95720212229E+03  0.95720212229E+03  0.00000000000E+00 0.  1.
         23    2    1    2    0    0 -0.31872151586E+02 -0.78766754240E+02 -0.45170457215E+03  0.47634428974E+03  0.12508727453E+03 0.  0.
          5    1    3    3  502    0  0.36217311293E+02 -0.21444282156E+02 -0.27718747420E+03  0.28039600412E+03  0.41800000000E+01 0.  1.
         -5    1    3    3    0  502 -0.68089462879E+02 -0.57322472083E+02 -0.17451709795E+03  0.19594828562E+03  0.41800000000E+01 0.  1.
        -11    1    1    2    0    0  0.40617727011E+02 -0.25901207716E+01 -0.11427655626E+03  0.12130803677E+03  0.00000000000E+00 0. -1.
         11    1    1    2    0    0 -0.87455754256E+01  0.81356875011E+02 -0.37092635999E+03  0.37984442966E+03  0.00000000000E+00 0.  1.
</event>
<event>
 7    1  0.1243146E-005  0.1115451E+03  0.7561462E-02  0.1257735E+00
          1   -1    0    0  501    0  0.00000000000E+00  0.00000000000E+00  0.33438457466E+03  0.33438457466E+03  0.00000000000E+00 0. -1.
         -1   -1    0    0    0  501 -0.00000000000E+00 -0.00000000000E+00 -0.49436937372E+02  0.49436937372E+02  0.00000000000E+00 0.  1.
         23    2    1    2    0    0 -0.15574691484E+01 -0.20180398576E+02  0.13161283925E+03  0.18269878618E+03  0.12508889966E+03 0.  0.
          5    1    3    3  502    0 -0.46112393762E+01  0.52990063849E+02  0.56446331323E+02  0.77671559242E+02  0.41800000000E+01 0. -1.
         -5    1    3    3    0  502  0.30537702278E+01 -0.73170462425E+02  0.75166507927E+02  0.10502722694E+03  0.41800000000E+01 0. -1.
        -11    1    1    2    0    0  0.47832528040E+02  0.12869268129E+02  0.14540091159E+03  0.15360662060E+03  0.00000000000E+00 0. -1.
         11    1    1    2    0    0 -0.46275058891E+02  0.73111304475E+01  0.79338864415E+01  0.47516105248E+02  0.00000000000E+00 0.  1.
</event>
<event>
 7    1  0.1243146E-005  0.1155447E+03  0.7561462E-02  0.1250633E+00
          1   -1    0    0  501    0  0.00000000000E+00  0.00000000000E+00  0.87994873759E+02  0.87994873759E+02  0.00000000000E+00 0. -1.
         -1   -1    0    0    0  501 -0.00000000000E+00 -0.00000000000E+00 -0.31114468814E+03  0.31114468814E+03  0.00000000000E+00 0.  1.
         23    2    1    2    0    0 -0.59597107276E+01  0.75693622956E+02 -0.23646348673E+03  0.27807622137E+03  0.12508541732E+03 0.  0.
          5    1    3    3  502    0  0.53005319698E+02  0.66375548468E+02 -0.11924225809E+03  0.14646318945E+03  0.41800000000E+01 0. -1.
         -5    1    3    3    0  502 -0.58965030426E+02  0.93180744883E+01 -0.11722122865E+03  0.13161303192E+03  0.41800000000E+01 0. -1.
        -11    1    1    2    0    0 -0.17023395597E+02 -0.42910608055E+02  0.49078682099E+02  0.67378285211E+02  0.00000000000E+00 0. -1.
         11    1    1    2    0    0  0.22983106325E+02 -0.32783014901E+02 -0.35765009748E+02  0.53685055319E+02  0.00000000000E+00 0.  1.
</event>
<event>
 7    1  0.1243146E-005  0.8293070E+02  0.7561462E-02  0.1320934E+00
          2   -1    0    0  501    0  0.00000000000E+00  0.00000000000E+00  0.10650365399E+03  0.10650365399E+03  0.00000000000E+00 0. -1.
         -2   -1    0    0    0  501 -0.00000000000E+00 -0.00000000000E+00 -0.17379372318E+03  0.17379372318E+03  0.00000000000E+00 0.  1.
         23    2    1    2    0    0 -0.25361029198E+01 -0.59467997248E+02 -0.94259051706E+02  0.16753224252E+03  0.12505762248E+03 0.  0.
          5    1    3    3  502    0  0.79470915381E+01 -0.56842518066E+02 -0.12340716899E+03  0.13616545040E+03  0.41800000000E+01 0. -1.
         -5    1    3    3    0  502 -0.10483194458E+02 -0.26254791814E+01  0.29148117283E+02  0.31366792124E+02  0.41800000000E+01 0. -1.
        -11    1    1    2    0    0 -0.18020776735E+02  0.70934807843E+02 -0.46624675082E+01  0.73336443609E+02  0.00000000000E+00 0.  1.
         11    1    1    2    0    0  0.20556879655E+02 -0.11466810596E+02  0.31631450020E+02  0.39428691035E+02  0.00000000000E+00 0. -1.
</event>
<event>
 7    1  0.1243146E-005  0.1076539E+03  0.7561462E-02  0.1264977E+00
          3   -1    0    0  501    0  0.00000000000E+00  0.00000000000E+00  0.50895449708E+03  0.50895449708E+03  0.00000000000E+00 0. -1.
         -3   -1    0    0    0  501 -0.00000000000E+00 -0.00000000000E+00 -0.25045393544E+02  0.25045393544E+02  0.00000000000E+00 0.  1.
         23    2    1    2    0    0  0.21437378788E+02  0.37226496989E+01  0.22731221788E+03  0.26037182694E+03  0.12509686061E+03 0.  0.
          5    1    3    3  502    0  0.73447431328E+02 -0.63169144294E+01  0.13128182912E+03  0.15062144480E+03  0.41800000000E+01 0. -1.
         -5    1    3    3    0  502 -0.52010052540E+02  0.10039564128E+02  0.96030388758E+02  0.10975038213E+03  0.41800000000E+01 0. -1.
        -11    1    1    2    0    0  0.32982235060E+02 -0.73655056660E+01  0.15147733126E+03  0.15520135434E+03  0.00000000000E+00 0.  1.
         11    1    1    2    0    0 -0.54419613848E+02  0.36428559671E+01  0.10511955440E+03  0.11842670935E+03  0.00000000000E+00 0. -1.
</event>
<event>
 7    1  0.1243146E-005  0.1462825E+03  0.7561462E-02  0.1205117E+00
         -2   -1    0    0    0  501 -0.00000000000E+00  0.00000000000E+00  0.10462422299E+03  0.10462422299E+03  0.00000000000E+00 0.  1.
          2   -1    0    0  501    0  0.00000000000E+00 -0.00000000000E+00 -0.34809616596E+03  0.34809616596E+03  0.00000000000E+00 0. -1.
         23    2    1    2    0    0 -0.73859831551E+02 -0.10761828840E+03 -0.24874415122E+02  0.18249117993E+03  0.12508926217E+03 0.  0.
          5    1    3    3  502    0 -0.23791626310E+00 -0.21037030656E+02  0.44411604966E+02  0.49320141105E+02  0.41800000000E+01 0.  1.
         -5    1    3    3    0  502 -0.73621915288E+02 -0.86581257743E+02 -0.69286020088E+02  0.13317103883E+03  0.41800000000E+01 0.  1.
        -11    1    1    2    0    0 -0.90387753010E+01 -0.10007379979E+02 -0.99020774809E+01  0.16730159934E+02  0.00000000000E+00 0. -1.
         11    1    1    2    0    0  0.82898606852E+02  0.11762566838E+03 -0.20869545037E+03  0.25349904908E+03  0.00000000000E+00 0.  1.
</event>
<event>
 7    1  0.1243146E-005  0.9170623E+02  0.7561462E-02  0.1298772E+00
         -2   -1    0    0    0  501 -0.00000000000E+00  0.00000000000E+00  0.33092481773E+02  0.33092481773E+02  0.00000000000E+00 0.  1.
          2   -1    0    0  501    0  0.00000000000E+00 -0.00000000000E+00 -0.52850516583E+03  0.52850516583E+03  0.00000000000E+00 0. -1.
         23    2    1    2    0    0  0.46914925527E+01  0.16835917125E+02 -0.11346076003E+03  0.16980856346E+03  0.12512452177E+03 0.  0.
          5    1    3    3  502    0  0.35287778417E+02 -0.26385090142E+02 -0.10762438824E+03  0.11636959066E+03  0.41800000000E+01 0.  1.
         -5    1    3    3    0  502 -0.30596285864E+02  0.43221007266E+02 -0.58363717946E+01  0.53438972796E+02  0.41800000000E+01 0.  1.
        -11    1    1    2    0    0  0.21739208063E+02  0.27111476389E+02 -0.18720472177E+03  0.19040281818E+03  0.00000000000E+00 0.  1.
         11    1    1    2    0    0 -0.26430700615E+02 -0.43947393513E+02 -0.19474720226E+03  0.20138626597E+03  0.00000000000E+00 0. -1.
</event>
<event>
 7    1  0.1243146E-005  0.8736527E+02  0.7561462E-02  0.1309360E+00
         -2   -1    0    0    0  501 -0.00000000000E+00  0.00000000000E+00  0.53076385553E+03  0.53076385553E+03  0.00000000000E+00 0.  1.
          2   -1    0    0  501    0  0.00000000000E+00 -0.00000000000E+00 -0.34432365849E+02  0.34432365849E+02  0.00000000000E+00 0. -1.
         23    2    1    2    0    0  0.17826271895E+02 -0.43508833104E+02  0.40782606483E+03  0.42916099541E+03  0.12508503629E+03 0.  0.
          5    1    3    3  502    0 -0.34566979236E+02 -0.10277870449E+02  0.32523738039E+02  0.48741938928E+02  0.41800000000E+01 0. -1.
         -5    1    3    3    0  502  0.52393251131E+02 -0.33230962655E+02  0.37530232679E+03  0.38041905649E+03  0.41800000000E+01 0. -1.
        -11    1    1    2    0    0 -0.23304483593E+02 -0.78511241898E+01  0.79992440951E+02  0.83687094082E+02  0.00000000000E+00 0.  1.
         11    1    1    2    0    0  0.54782116980E+01  0.51359957293E+02  0.85129838988E+01  0.52348131881E+02  0.00000000000E+00 0. -1.
</event>
<event>
 7    1  0.1243146E-005  0.1743641E+03  0.7561462E-02  0.1173372E+00
          3   -1    0    0  501    0  0.00000000000E+00  0.00000000000E+00  0.17501184165E+03  0.17501184165E+03  0.00000000000E+00 0. -1.
         -3   -1    0    0    0  501 -0.00000000000E+00 -0.00000000000E+00 -0.21934211875E+03  0.21934211875E+03  0.00000000000E+00 0.  1.
         23    2    1    2    0    0  0.43621988090E+02  0.15535226091E+03 -0.48927029276E+02  0.20994953306E+03  0.12509096459E+03 0.  0.
          5    1    3    3  502    0  0.13260874139E+02  0.13468741225E+03  0.14870578048E+02  0.13621731275E+03  0.41800000000E+01 0.  1.
         -5    1    3    3    0  502  0.30361113952E+02  0.20664848653E+02 -0.63797607324E+02  0.73732220301E+02  0.41800000000E+01 0.  1.
        -11    1    1    2    0    0 -0.37598869800E+02 -0.23429930117E+02  0.24858375701E+02  0.50799364937E+02  0.00000000000E+00 0. -1.
         11    1    1    2    0    0 -0.60231182906E+01 -0.13192233079E+03 -0.20261623527E+02  0.13360506242E+03  0.00000000000E+00 0.  1.
</event>
<event>
 7    1  0.1243146E-005  0.7508726E+02  0.7561462E-02  0.1343601E+00
          2   -1    0    0  501    0  0.00000000000E+00  0.00000000000E+00  0.29758318458E+02  0.29758318458E+02  0.00000000000E+00 0. -1.
         -2   -1    0    0    0  501 -0.00000000000E+00 -0.00000000000E+00 -0.42322657256E+03  0.42322657256E+03  0.00000000000E+00 0.  1.
         23    2    1    2    0    0  0.10143025101E+02 -0.21424081939E+01 -0.29341649613E+03  0.31913801711E+03  0.12509341666E+03 0.  0.
          5    1    3    3  502    0  0.49749467350E+02  0.31293223855E+02 -0.22843348077E+03  0.23591015853E+03  0.41800000000E+01 0.  1.
         -5    1    3    3    0  502 -0.39606442249E+02 -0.33435632049E+02 -0.64983015363E+02  0.83227858580E+02  0.41800000000E+01 0.  1.
        -11    1    1    2    0    0 -0.16726455504E+02 -0.14004246958E+02 -0.11108860939E+03  0.11321030157E+03  0.00000000000E+00 0.  1.
         11    1    1    2    0    0  0.65834304027E+01  0.16146655151E+02  0.11036851419E+02  0.20636572334E+02  0.00000000000E+00 0. -1.
</event>
<event>
 7    1  0.1243146E-005  0.9628379E+02  0.7561462E-02  0.1288311E+00
          2   -1    0    0  501    0  0.00000000000E+00  0.00000000000E+00  0.86046557157E+02  0.86046557157E+02  0.00000000000E+00 0.  1.
         -2   -1    0    0    0  501 -0.00000000000E+00 -0.00000000000E+00 -0.21660053082E+03  0.21660053082E+03  0.00000000000E+00 0. -1.
         23    2    1    2    0    0  0.41287104510E+02  0.71427840723E+02 -0.80352007489E+02  0.17002902373E+03  0.12508741893E+03 0.  0.
          5    1    3    3  502    0  0.50667482054E+01  0.12654623171E+01  0.31972500514E+02  0.32664759626E+02  0.41800000000E+01 0. -1.
         -5    1    3    3    0  502  0.36220356305E+02  0.70162378406E+02 -0.11232450800E+03  0.13736426410E+03  0.41800000000E+01 0. -1.
        -11    1    1    2    0    0  0.48302031550E+00 -0.64458486021E+02  0.31081013415E+01  0.64535184378E+02  0.00000000000E+00 0.  1.
         11    1    1    2    0    0 -0.41770124826E+02 -0.69693547023E+01 -0.53310067515E+02  0.68082879870E+02  0.00000000000E+00 0. -1.
</event>
<event>
 7    1  0.1243146E-005  0.8567284E+02  0.7561462E-02  0.1313682E+00
         -1   -1    0    0    0  501 -0.00000000000E+00  0.00000000000E+00  0.46275251149E+03  0.46275251149E+03  0.00000000000E+00 0. -1.
          1   -1    0    0  501    0  0.00000000000E+00 -0.00000000000E+00 -0.38620599932E+02  0.38620599932E+02  0.00000000000E+00 0.  1.
         23    2    1    2    0    0  0.10180109743E+02 -0.68420011726E+02  0.30270459554E+03  0.33475761752E+03  0.12509059790E+03 0.  0.
          5    1    3    3  502    0  0.18373818114E+02 -0.56439710346E+02  0.31159887712E+03  0.31722920849E+03  0.41800000000E+01 0.  1.
         -5    1    3    3    0  502 -0.81937083714E+01 -0.11980301379E+02 -0.88942815803E+01  0.17528409022E+02  0.41800000000E+01 0.  1.
        -11    1    1    2    0    0  0.47375967593E+01  0.78559293206E+02  0.50687063582E+02  0.93611889131E+02  0.00000000000E+00 0.  1.
         11    1    1    2    0    0 -0.14917706502E+02 -0.10139281481E+02  0.70740252428E+02  0.73003604773E+02  0.00000000000E+00 0. -1.
</event>
<event>
 7    1  0.1243146E-005  0.1008763E+03  0.7561462E-02  0.1278464E+00
         -2   -1    0    0    0  501 -0.00000000000E+00  0.00000000000E+00  0.35863297814E+02  0.35863297814E+02  0.00000000000E+00 0.  1.
          2   -1    0    0  501    0  0.00000000000E+00 -0.00000000000E+00 -0.35516810200E+03  0.35516810200E+03  0.00000000000E+00 0. -1.
         23    2    1    2    0    0  0.11873825174E+02  0.15444661521E+01 -0.13239610363E+03  0.18253792133E+03  0.12509193165E+03 0.  0.
          5    1    3    3  502    0 -0.27425198730E+01 -0.53460400522E+02 -0.21535448859E+02  0.57851394078E+02  0.41800000000E+01 0.  1.
         -5    1    3    3    0  502  0.14616345047E+02  0.55004866674E+02 -0.11086065477E+03  0.12468652725E+03  0.41800000000E+01 0.  1.
        -11    1    1    2    0    0  0.36315803480E+02 -0.17388931073E+02 -0.65120520580E+02  0.76563011350E+02  0.00000000000E+00 0.  1.
         11    1    1    2    0    0 -0.48189628654E+02  0.15844464921E+02 -0.12178817998E+03  0.13193046714E+03  0.00000000000E+00 0. -1.
</event>
<event>
 7    1  0.1243146E-005  0.8732261E+02  0.7561462E-02  0.1309468E+00
         -1   -1    0    0    0  501 -0.00000000000E+00  0.00000000000E+00  0.10801850758E+03  0.10801850758E+03  0.00000000000E+00 0.  1.
          1   -1    0    0  501    0  0.00000000000E+00 -0.00000000000E+00 -0.13472224089E+03  0.13472224089E+03  0.00000000000E+00 0. -1.
         23    2    1    2    0    0  0.44223480351E+02 -0.91776175947E+01  0.14922104597E+02  0.13386258268E+03  0.12512624408E+03 0.  0.
          5    1    3    3  502    0 -0.39474995438E+02  0.47104270340E+01  0.26747779284E+02  0.48097603727E+02  0.41800000000E+01 0. -1.
         -5    1    3    3    0  502  0.83698475788E+02 -0.13888044629E+02 -0.11825674687E+02  0.85764978952E+02  0.41800000000E+01 0. -1.
        -11    1    1    2    0    0 -0.18072977147E+02  0.14338928722E+02  0.26848441185E+02  0.35398815996E+02  0.00000000000E+00 0.  1.
         11    1    1    2    0    0 -0.26150503204E+02 -0.51613111274E+01 -0.68474279087E+02  0.73479349799E+02  0.00000000000E+00 0. -1.
</event>
<event>
 7    1  0.1243146E-005  0.1321153E+03  0.7561462E-02  0.1224350E+00
         -3   -1    0    0    0  501 -0.00000000000E+00  0.00000000000E+00  0.50320945441E+02  0.50320945441E+02  0.00000000000E+00 0.  1.
          3   -1    0    0  501    0  0.00000000000E+00 -0.00000000000E+00 -0.38394878787E+03  0.38394878787E+03  0.00000000000E+00 0. -1.
         23    2    1    2    0    0 -0.45750329966E+02  0.75178220766E+02 -0.16073066950E+03  0.22187109823E+03  0.12509028156E+03 0.  0.
          5    1    3    3  502    0 -0.40992378208E+02 -0.19776256152E+02 -0.15545924314E+02  0.48276531994E+02  0.41800000000E+01 0.  1.
         -5    1    3    3    0  502 -0.47579517580E+01  0.94954476918E+02 -0.14518474519E+03  0.17359456624E+03  0.41800000000E+01 0.  1.
        -11    1    1    2    0    0 -0.25235769871E+02 -0.10519463172E+02 -0.37312071816E+02  0.46256825330E+02  0.00000000000E+00 0.  1.
         11    1    1    2    0    0  0.70986099838E+02 -0.64658757594E+02 -0.13558510111E+03  0.16614180975E+03  0.00000000000E+00 0. -1.
</event>
<event>
 7    1  0.1243146E-005  0.1048438E+03  0.7561462E-02  0.1270428E+00
          1   -1    0    0  501    0  0.00000000000E+00  0.00000000000E+00  0.49447869670E+03  0.49447869670E+03  0.00000000000E+00 0. -1.
         -1   -1    0    0    0  501 -0.00000000000E+00 -0.00000000000E+00 -0.37368542405E+02  0.37368542405E+02  0.00000000000E+00 0.  1.
         23    2    1    2    0    0 -0.26013779776E+02 -0.79771810728E+01  0.10251969624E+03  0.16400781187E+03  0.12509165472E+03 0.  0.
          5    1    3    3  502    0 -0.69185243977E+02 -0.10140991684E+02  0.97837162984E+02  0.12032880186E+03  0.41800000000E+01 0.  1.
         -5    1    3    3    0  502  0.43171464201E+02  0.21638106109E+01  0.46825332518E+01  0.43679010008E+02  0.41800000000E+01 0.  1.
        -11    1    1    2    0    0  0.59761533221E+02 -0.51878641040E+01  0.18728103162E+03  0.19665334879E+03  0.00000000000E+00 0. -1.
         11    1    1    2    0    0 -0.33747753445E+02  0.13165045177E+02  0.16730942644E+03  0.17118607844E+03  0.00000000000E+00 0.  1.
</event>
<event>
 7    1  0.1243146E-005  0.1355402E+03  0.7561462E-02  0.1219459E+00
         -1   -1    0    0    0  501 -0.00000000000E+00  0.00000000000E+00  0.49518363852E+02  0.49518363852E+02  0.00000000000E+00 0.  1.
          1   -1    0    0  501    0  0.00000000000E+00 -0.00000000000E+00 -0.59579990402E+03  0.59579990402E+03  0.00000000000E+00 0. -1.
         23    2    1    2    0    0 -0.58474171981E+02  0.89667356504E+02 -0.14097249142E+03  0.21674589014E+03  0.12508426737E+03 0.  0.
          5    1    3    3  502    0 -0.65901114721E+01  0.83088138195E+02 -0.21377263131E+02  0.86148291085E+02  0.41800000000E+01 0.  1.
         -5    1    3    3    0  502 -0.51884060509E+02  0.65792183087E+01 -0.11959522829E+03  0.13059759906E+03  0.41800000000E+01 0.  1.
        -11    1    1    2    0    0 -0.11729137474E+02  0.84914978638E+01 -0.86172301617E+02  0.87380454152E+02  0.00000000000E+00 0. -1.
         11    1    1    2    0    0  0.70203309455E+02 -0.98158854367E+02 -0.31913674713E+03  0.34119192358E+03  0.00000000000E+00 0.  1.
</event>
<event>
 7    1  0.1243146E-005  0.8704987E+02  0.7561462E-02  0.1310157E+00
          3   -1    0    0  501    0  0.00000000000E+00  0.00000000000E+00  0.10293550963E+03  0.10293550963E+03  0.00000000000E+00 0.  1.
         -3   -1    0    0    0  501 -0.00000000000E+00 -0.00000000000E+00 -0.16727652257E+03  0.16727652257E+03  0.00000000000E+00 0. -1.
         23    2    1    2    0    0 -0.25427967788E+02 -0.58285639149E+02 -0.62890030135E+02  0.15377327712E+03  0.12508903865E+03 0.  0.
          5    1    3    3  502    0 -0.36855920016E+02 -0.33498439511E+02  0.29027521726E+02  0.57797696385E+02  0.41800000000E+01 0. -1.
         -5    1    3    3    0  502  0.11427952228E+02 -0.24787199638E+02 -0.91917551861E+02  0.95975580739E+02  0.41800000000E+01 0. -1.
        -11    1    1    2    0    0  0.29673915412E+02  0.74264589759E+02  0.26256348961E+02  0.84173430540E+02  0.00000000000E+00 0.  1.
         11    1    1    2    0    0 -0.42459476244E+01 -0.15978950611E+02 -0.27707331766E+02  0.32265324537E+02  0.00000000000E+00 0. -1.
</event>
<event>
 7    1  0.1243146E-005  0.8991315E+02  0.7561462E-02  0.1303062E+00
         -1   -1    0    0    0  501 -0.00000000000E+00  0.00000000000E+00  0.50643879942E+02  0.50643879942E+02  0.00000000000E+00 0.  1.
          1   -1    0    0  501    0  0.00000000000E+00 -0.00000000000E+00 -0.27457546646E+03  0.27457546646E+03  0.00000000000E+00 0. -1.
         23    2    1    2    0    0 -0.29738920038E+02 -0.12142376799E+02 -0.80061568365E+02  0.15196451742E+03  0.12510603162E+03 0.  0.
          5    1    3    3  502    0 -0.37930410604E+02 -0.54601388879E+02 -0.70248877591E+01  0.66983947063E+02  0.41800000000E+01 0.  1.
         -5    1    3    3    0  502  0.81914905656E+01  0.42459012080E+02 -0.73036680606E+02  0.84980570358E+02  0.41800000000E+01 0.  1.
        -11    1    1    2    0    0  0.48574100634E+02  0.25747219652E+01 -0.29368254857E+02  0.56820479045E+02  0.00000000000E+00 0.  1.
         11    1    1    2    0    0 -0.18835180596E+02  0.95676548335E+01 -0.11450176330E+03  0.11643434994E+03  0.00000000000E+00 0. -1.
</event>
<event>
 7    1  0.1243146E-005  0.1432907E+03  0.7561462E-02  0.1208968E+00
          2   -1    0    0  501    0  0.00000000000E+00  0.00000000000E+00  0.55881544280E+03  0.55881544280E+03  0.00000000000E+00 0. -1.
         -2   -1    0    0    0  501 -0.00000000000E+00 -0.00000000000E+00 -0.44527088809E+02  0.44527088809E+02  0.00000000000E+00 0.  1.
         23    2    1    2    0    0 -0.64331978121E+01  0.11357379645E+03  0.24546310147E+03  0.29805882746E+03  0.12508611899E+03 0.  0.
          5    1    3    3  502    0  0.18258835623E+02  0.12227560661E+03  0.24138372359E+03  0.27123473867E+03  0.41800000000E+01 0.  1.
         -5    1    3    3    0  502 -0.24692033435E+02 -0.87018101563E+01  0.40793778865E+01  0.26824088784E+02  0.41800000000E+01 0.  1.
        -11    1    1    2    0    0  0.24372003118E+02 -0.32418955585E+01  0.17372881010E+02  0.30105172602E+02  0.00000000000E+00 0.  1.
         11    1    1    2    0    0 -0.17938805306E+02 -0.11033190089E+03  0.25145237151E+03  0.27517853155E+03  0.00000000000E+00 0. -1.
</event>
<event>
 7    1  0.1243146E-005  0.1075915E+03  0.7561462E-02  0.1265096E+00
         -2   -1    0    0    0  501 -0.00000000000E+00  0.00000000000E+00  0.43858797016E+02  0.43858797016E+02  0.00000000000E+00 0. -1.
          2   -1    0    0  501    0  0.00000000000E+00 -0.00000000000E+00 -0.47444819091E+03  0.47444819091E+03  0.00000000000E+00 0.  1.
         23    2    1    2    0    0  0.31559478898E+02 -0.50918065853E+02 -0.10318428540E+03  0.17286059711E+03  0.12508053062E+03 0.  0.
          5    1    3    3  502    0  0.19773355188E+02 -0.78040843922E+02 -0.18011413084E+02  0.82602919420E+02  0.41800000000E+01 0.  1.
         -5    1    3    3    0  502  0.11786123710E+02  0.27122778069E+02 -0.85172872319E+02  0.90257677686E+02  0.41800000000E+01 0.  1.
        -11    1    1    2    0    0  0.28805370113E+02  0.27883493188E+02 -0.18151234998E+03  0.18588698646E+03  0.00000000000E+00 0.  1.
         11    1    1    2    0    0 -0.60364849011E+02  0.23034572664E+02 -0.14589275851E+03  0.15955940436E+03  0.00000000000E+00 0. -1.
</event>
<event>
 7    1  0.1243146E-005  0.1263221E+03  0.7561462E-02  0.1233017E+00
          1   -1    0    0  501    0  0.00000000000E+00  0.00000000000E+00  0.81122145795E+03  0.81122145795E+03  0.00000000000E+00 0. -1.
         -1   -1    0    0    0  501 -0.00000000000E+00 -0.00000000000E+00 -0.27339077700E+02  0.27339077700E+02  0.00000000000E+00 0.  1.
         23    2    1    2    0    0  0.14009128244E+02 -0.88544491624E+02  0.29046048484E+03  0.32871150922E+03  0.12509028888E+03 0.  0.
          5    1    3    3  502    0  0.21708626546E+02 -0.10585088381E+03  0.13946705656E+03  0.17647721195E+03  0.41800000000E+01 0. -1.
         -5    1    3    3    0  502 -0.76994983021E+01  0.17306392189E+02  0.15099342827E+03  0.15223429727E+03  0.41800000000E+01 0. -1.
        -11    1    1    2    0    0  0.25563501838E+02 -0.26508584417E+01  0.61881224626E+02  0.67006011954E+02  0.00000000000E+00 0.  1.
         11    1    1    2    0    0 -0.39572630082E+02  0.91195350066E+02  0.43154067079E+03  0.44284301447E+03  0.00000000000E+00 0. -1.
</event>
<event>
 7    1  0.1243146E-005  0.1206486E+03  0.7561462E-02  0.1242031E+00
          1   -1    0    0  501    0  0.00000000000E+00  0.00000000000E+00  0.58783879051E+02  0.58783879051E+02  0.00000000000E+00 0. -1.
         -1   -1    0    0    0  501 -0.00000000000E+00 -0.00000000000E+00 -0.28837747091E+03  0.28837747091E+03  0.00000000000E+00 0.  1.
         23    2    1    2    0    0 -0.30196564406E+01 -0.69589818554E+02 -0.15686554347E+03  0.21238562865E+03  0.12509594462E+03 0.  0.
          5    1    3    3  502    0  0.25620677254E+02  0.29483232685E+02 -0.34303722393E+02  0.52152640226E+02  0.41800000000E+01 0.  1.
         -5    1    3    3    0  502 -0.28640333694E+02 -0.99073051240E+02 -0.12256182107E+03  0.16023298843E+03  0.41800000000E+01 0.  1.
        -11    1    1    2    0    0 -0.31179554823E+02  0.15536195972E+02  0.37930700136E+01  0.35041766570E+02  0.00000000000E+00 0. -1.
         11    1    1    2    0    0  0.34199211263E+02  0.54053622582E+02 -0.76521118411E+02  0.99733954741E+02  0.00000000000E+00 0.  1.
</event>
<event>
 6    1  0.1243146E-005  0.1440231E+03  0.7561462E-02  0.1208016E+00
         -2   -1    0    0    0  501 -0.00000000000E+00  0.00000000000E+00  0.61887899217E+02  0.61887899217E+02  0.00000000000E+00 0.  1.
          2   -1    0    0  501    0  0.00000000000E+00 -0.00000000000E+00 -0.86655502065E+03  0.86655502065E+03  0.00000000000E+00 0. -1.
          5    1    1    2  502    0 -0.28771458357E+02 -0.63866248576E+02 -0.13651174028E+03  0.15349144001E+03  0.41800000000E+01 0. -1.
         -5    1    1    2    0  502  0.48273441484E+02 -0.51044076856E+02  0.18344768185E+02  0.72731189008E+02  0.41800000000E+01 0.  1.
        -11    1    1    2    0    0  0.20173829459E+02  0.10456274904E+03 -0.51373942622E+03  0.52466041392E+03  0.00000000000E+00 0. -1.
         11    1    1    2    0    0 -0.39675812586E+02  0.10347576393E+02 -0.17276072312E+03  0.17755987693E+03  0.00000000000E+00 0.  1.
</event>
<event>
 7    1  0.1243146E-005  0.3087558E+03  0.7561462E-02  0.1080944E+00
         -2   -1    0    0    0  501 -0.00000000000E+00  0.00000000000E+00  0.37310967703E+03  0.37310967703E+03  0.00000000000E+00 0.  1.
          2   -1    0    0  501    0  0.00000000000E+00 -0.00000000000E+00 -0.33305622043E+03  0.33305622043E+03  0.00000000000E+00 0. -1.
         23    2    1    2    0    0  0.27148302014E+03  0.10754477705E+03  0.18452222573E+03  0.36737579296E+03  0.12509041600E+03 0.  0.
          5    1    3    3  502    0  0.16836331125E+03  0.36279016603E+01  0.74483940614E+02  0.18418657947E+03  0.41800000000E+01 0. -1.
         -5    1    3    3    0  502  0.10311970889E+03  0.10391687539E+03  0.11003828511E+03  0.18318921350E+03  0.41800000000E+01 0. -1.
        -11    1    1    2    0    0 -0.16796068216E+03 -0.10686473615E+03 -0.69062733441E+02  0.21071431782E+03  0.00000000000E+00 0. -1.
         11    1    1    2    0    0 -0.10352233797E+03 -0.68004089550E+00 -0.75406035685E+02  0.12807578668E+03  0.00000000000E+00 0.  1.
</event>
<event>
 7    1  0.1243146E-005  0.1428639E+03  0.7561462E-02  0.1209527E+00
         -1   -1    0    0    0  501 -0.00000000000E+00  0.00000000000E+00  0.82752680496E+03  0.82752680496E+03  0.00000000000E+00 0.  1.
          1   -1    0    0  501    0  0.00000000000E+00 -0.00000000000E+00 -0.35744626597E+02  0.35744626597E+02  0.00000000000E+00 0. -1.
         23    2    1    2    0    0  0.35013661178E+02 -0.11337198605E+03  0.57486387514E+03  0.60016236106E+03  0.12508885245E+03 0.  0.
          5    1    3    3  502    0  0.13622711777E+02 -0.11560230601E+03  0.26431289338E+03  0.28883948733E+03  0.41800000000E+01 0. -1.
         -5    1    3    3    0  502  0.21390949401E+02  0.22303199534E+01  0.31055098175E+03  0.31132287373E+03  0.41800000000E+01 0. -1.
        -11    1    1    2    0    0 -0.54498505606E+02  0.31005033059E+02  0.73835629590E+02  0.96866399671E+02  0.00000000000E+00 0. -1.
         11    1    1    2    0    0  0.19484844428E+02  0.82366952993E+02  0.14308267363E+03  0.16624267082E+03  0.00000000000E+00 0.  1.
</event>
<event>
 7    1  0.1243146E-005  0.8743124E+02  0.7561462E-02  0.1309194E+00
         -1   -1    0    0    0  501 -0.00000000000E+00  0.00000000000E+00  0.16558758274E+03  0.16558758274E+03  0.00000000000E+00 0.  1.
          1   -1    0    0  501    0  0.00000000000E+00 -0.00000000000E+00 -0.82183994687E+02  0.82183994687E+02  0.00000000000E+00 0. -1.
         23    2    1    2    0    0  0.24330568598E+02 -0.96612255405E+01  0.84252860735E+02  0.15307715427E+03  0.12509498300E+03 0.  0.
          5    1    3    3  502    0 -0.17647895022E+02 -0.40953302547E+02 -0.93400474627E+01  0.45752924222E+02  0.41800000000E+01 0.  1.
         -5    1    3    3    0  502  0.41978463620E+02  0.31292077007E+02  0.93592908197E+02  0.10732423005E+03  0.41800000000E+01 0.  1.
        -11    1    1    2    0    0 -0.50634989055E+02  0.67617614957E+01  0.25720388303E+02  0.57194072329E+02  0.00000000000E+00 0.  1.
         11    1    1    2    0    0  0.26304420456E+02  0.28994640448E+01 -0.26569660984E+02  0.37500350826E+02  0.00000000000E+00 0. -1.
</event>
<event>
 7    1  0.1243146E-005  0.3973350E+03  0.7561462E-02  0.1044706E+00
          2   -1    0    0  501    0  0.00000000000E+00  0.00000000000E+00  0.15312553602E+04  0.15312553602E+04  0.00000000000E+00 0.  1.
         -2   -1    0    0    0  501 -0.00000000000E+00 -0.00000000000E+00 -0.24145575280E+03  0.24145575280E+03  0.00000000000E+00 0. -1.
         23    2    1    2    0    0  0.38429019933E+03  0.87747684128E+02 -0.73307957370E+01  0.41373025470E+03  0.12546063015E+03 0.  0.
          5    1    3    3  502    0  0.10150531809E+03  0.30404015690E+01  0.49549873240E+02  0.11307181780E+03  0.41800000000E+01 0.  1.
         -5    1    3    3    0  502  0.28278488125E+03  0.84707282559E+02 -0.56880668977E+02  0.30065843691E+03  0.41800000000E+01 0.  1.
        -11    1    1    2    0    0 -0.13111888379E+03 -0.41382388316E+01  0.55859882433E+03  0.57379607288E+03  0.00000000000E+00 0.  1.
         11    1    1    2    0    0 -0.25317131554E+03 -0.83609445297E+02  0.73853157878E+03  0.78518478539E+03  0.00000000000E+00 0. -1.
</event>
<event>
 7    1  0.1243146E-005  0.6960549E+02  0.7561462E-02  0.1361440E+00
         -1   -1    0    0    0  501 -0.00000000000E+00  0.00000000000E+00  0.10880908476E+03  0.10880908476E+03  0.00000000000E+00 0.  1.
          1   -1    0    0  501    0  0.00000000000E+00 -0.00000000000E+00 -0.74733211684E+02  0.74733211684E+02  0.00000000000E+00 0. -1.
         23    2    1    2    0    0  0.13979023498E+02 -0.74001077618E+01  0.47373791151E+02  0.13468960209E+03  0.12508732202E+03 0.  0.
          5    1    3    3  502    0  0.10157529305E+02  0.46184237017E+02  0.62723561102E+02  0.78663057834E+02  0.41800000000E+01 0. -1.
         -5    1    3    3    0  502  0.38214941930E+01 -0.53584344779E+02 -0.15349769951E+02  0.56026544252E+02  0.41800000000E+01 0. -1.
        -11    1    1    2    0    0  0.98672092534E+01  0.97777877350E+01  0.86434830857E+01  0.16360829786E+02  0.00000000000E+00 0.  1.
         11    1    1    2    0    0 -0.23846232752E+02 -0.23776799732E+01 -0.21941401161E+02  0.32491864573E+02  0.00000000000E+00 0. -1.
</event>
<event>
 7    1  0.1243146E-005  0.1110217E+03  0.7561462E-02  0.1258689E+00
          3   -1    0    0  501    0  0.00000000000E+00  0.00000000000E+00  0.35065464859E+02  0.35065464859E+02  0.00000000000E+00 0. -1.
         -3   -1    0    0    0  501 -0.00000000000E+00 -0.00000000000E+00 -0.51961313084E+03  0.51961313084E+03  0.00000000000E+00 0.  1.
         23    2    1    2    0    0  0.39471173191E+02  0.54309996807E+02 -0.35429609153E+03  0.38167619006E+03  0.12507375553E+03 0.  0.
          5    1    3    3  502    0  0.54106454203E+02  0.83043673201E+02 -0.31717912694E+03  0.33233090590E+03  0.41800000000E+01 0. -1.
         -5    1    3    3    0  502 -0.14635281012E+02 -0.28733676395E+02 -0.37116964587E+02  0.49345284168E+02  0.41800000000E+01 0. -1.
        -11    1    1    2    0    0  0.10109791986E+02 -0.36126415618E+02 -0.59967133643E+01  0.37990608979E+02  0.00000000000E+00 0. -1.
         11    1    1    2    0    0 -0.49580965177E+02 -0.18183581188E+02 -0.12425486108E+03  0.13501179665E+03  0.00000000000E+00 0.  1.
</event>
<event>
 6    1  0.1243146E-005  0.1439211E+03  0.7561462E-02  0.1208148E+00
         -1   -1    0    0    0  501 -0.00000000000E+00  0.00000000000E+00  0.31825865765E+03  0.31825865765E+03  0.00000000000E+00 0.  1.
          1   -1    0    0  501    0  0.00000000000E+00 -0.00000000000E+00 -0.79808350532E+02  0.79808350532E+02  0.00000000000E+00 0. -1.
          5    1    1    2  502    0 -0.43961633032E+02  0.93243996238E+01  0.87312655899E+01  0.45970392711E+02  0.41800000000E+01 0. -1.
         -5    1    1    2    0  502  0.11505934988E+03  0.45892118382E+02  0.16964518984E+03  0.21009927025E+03  0.41800000000E+01 0.  1.
        -11    1    1    2    0    0 -0.64784573213E+02 -0.74350562243E+02  0.25302230781E+02  0.10180987140E+03  0.00000000000E+00 0.  1.
         11    1    1    2    0    0 -0.63131436340E+01  0.19134044237E+02  0.34771620914E+02  0.40187473825E+02  0.00000000000E+00 0. -1.
</event>
<event>
 7    1  0.1969066E-005  0.1541868E+03  0.7561462E-02  0.1195421E+00
         -1   -1    0    0    0  501 -0.00000000000E+00  0.00000000000E+00  0.27437935814E+02  0.27437935814E+02  0.00000000000E+00 0.  1.
          1   -1    0    0  501    0  0.00000000000E+00 -0.00000000000E+00 -0.98298583782E+03  0.98298583782E+03  0.00000000000E+00 0. -1.
         23    2    1    2    0    0 -0.50541541844E+02  0.97755167699E+02 -0.34225503787E+03  0.38065304009E+03  0.12509078992E+03 0.  0.
          5    1    3    3  502    0 -0.85158888272E+02  0.30080514695E+02 -0.19114769099E+03  0.21145161572E+03  0.41800000000E+01 0. -1.
         -5    1    3    3    0  502  0.34617346428E+02  0.67674653004E+02 -0.15110734687E+03  0.16920142438E+03  0.41800000000E+01 0. -1.
        -11    1    1    2    0    0  0.58387120745E+02 -0.17160846143E+02 -0.22221486346E+03  0.23039747405E+03  0.00000000000E+00 0.  1.
         11    1    1    2    0    0 -0.78455789011E+01 -0.80594321555E+02 -0.39107800069E+03  0.39937325949E+03  0.00000000000E+00 0. -1.
</event>
<event>
 7    1  0.1243146E-005  0.1892894E+03  0.7561462E-02  0.1159104E+00
         -1   -1    0    0    0  501 -0.00000000000E+00  0.00000000000E+00  0.15781497717E+04  0.15781497717E+04  0.00000000000E+00 0.  1.
          1   -1    0    0  501    0  0.00000000000E+00 -0.00000000000E+00 -0.33257293280E+02  0.33257293280E+02  0.00000000000E+00 0. -1.
         23    2    1    2    0    0  0.16184605731E+03  0.42340843318E+02  0.12074989735E+04  0.12241740660E+04  0.11207800600E+03 0.  0.
          5    1    3    3  502    0  0.17722711204E+03  0.27148696188E+02  0.10777771849E+04  0.10925967388E+04  0.41800000000E+01 0. -1.
         -5    1    3    3    0  502 -0.15381054726E+02  0.15192147131E+02  0.12972178861E+03  0.13157732715E+03  0.41800000000E+01 0.  1.
        -11    1    1    2    0    0 -0.12127393359E+02  0.12831329391E+02  0.47235720653E+01  0.18276455254E+02  0.00000000000E+00 0. -1.
         11    1    1    2    0    0 -0.14971866395E+03 -0.55172172709E+02  0.33266993283E+03  0.36895654377E+03  0.00000000000E+00 0.  1.
</event>
<event>
 7    1  0.1245472E-005  0.1867304E+03  0.7561462E-02  0.1161444E+00
         -1   -1    0    0    0  501 -0.00000000000E+00  0.00000000000E+00  0.27870194467E+03  0.27870194467E+03  0.00000000000E+00 0.  1.
          1   -1    0    0  501    0  0.00000000000E+00 -0.00000000000E+00 -0.14138482419E+03  0.14138482419E+03  0.00000000000E+00 0. -1.
         23    2    1    2    0    0 -0.12133520505E+03 -0.11309541406E+03  0.77815621760E+02  0.22184535481E+03  0.12508911141E+03 0.  0.
          5    1    3    3  502    0 -0.64269600525E+02  0.15954820469E+02  0.29797160528E+02  0.72735692912E+02  0.41800000000E+01 0.  1.
         -5    1    3    3    0  502 -0.57065604528E+02 -0.12905023453E+03  0.48018461232E+02  0.14910966190E+03  0.41800000000E+01 0.  1.
        -11    1    1    2    0    0  0.77873368315E+02  0.69342919685E+02 -0.10675752249E+02  0.10481733487E+03  0.00000000000E+00 0. -1.
         11    1    1    2    0    0  0.43461836738E+02  0.43752494372E+02  0.70177250973E+02  0.93424079179E+02  0.00000000000E+00 0.  1.
</event>
<event>
 7    1  0.1243146E-005  0.9163339E+02  0.7561462E-02  0.1298944E+00
         -2   -1    0    0    0  501 -0.00000000000E+00  0.00000000000E+00  0.30762044039E+02  0.30762044039E+02  0.00000000000E+00 0.  1.
          2   -1    0    0  501    0  0.00000000000E+00 -0.00000000000E+00 -0.46154022327E+03  0.46154022327E+03  0.00000000000E+00 0. -1.
         23    2    1    2    0    0  0.39616754550E+02  0.27651605410E+02 -0.23985169494E+03  0.27479538440E+03  0.12509823820E+03 0.  0.
          5    1    3    3  502    0  0.54175182094E+02  0.34433685929E+02 -0.24807097205E+03  0.25627584485E+03  0.41800000000E+01 0. -1.
         -5    1    3    3    0  502 -0.14558427545E+02 -0.67820805186E+01  0.82192771121E+01  0.18519539546E+02  0.41800000000E+01 0. -1.
        -11    1    1    2    0    0 -0.66120656788E+02 -0.35036119620E+02 -0.11986406540E+03  0.14130415814E+03  0.00000000000E+00 0. -1.
         11    1    1    2    0    0  0.26503902239E+02  0.73845142098E+01 -0.71062418887E+02  0.76202724768E+02  0.00000000000E+00 0.  1.
</event>
<event>
 7    1  0.1243146E-005  0.9297615E+02  0.7561462E-02  0.1295800E+00
          1   -1    0    0  501    0  0.00000000000E+00  0.00000000000E+00  0.61222093385E+02  0.61222093385E+02  0.00000000000E+00 0. -1.
         -1   -1    0    0    0  501 -0.00000000000E+00 -0.00000000000E+00 -0.28903020301E+03  0.28903020301E+03  0.00000000000E+00 0.  1.
         23    2    1    2    0    0 -0.14538208280E+02  0.51158723610E+02 -0.19229132833E+03  0.23548215468E+03  0.12508923103E+03 0.  0.
          5    1    3    3  502    0  0.35047898640E+02  0.49902838204E+02 -0.34853598867E+02  0.70362591011E+02  0.41800000000E+01 0.  1.
         -5    1    3    3    0  502 -0.49586106921E+02  0.12558854066E+01 -0.15743772946E+03  0.16511956367E+03  0.41800000000E+01 0.  1.
        -11    1    1    2    0    0 -0.51080175362E+00  0.11042774294E+02  0.24597839449E+02  0.26967711955E+02  0.00000000000E+00 0. -1.
         11    1    1    2    0    0  0.15049010034E+02 -0.62201497904E+02 -0.60114620747E+02  0.87802429762E+02  0.00000000000E+00 0.  1.
</event>
<event>
 7    1  0.1243146E-005  0.1494635E+03  0.7561462E-02  0.1201134E+00
          2   -1    0    0  501    0  0.00000000000E+00  0.00000000000E+00  0.96846169747E+03  0.96846169747E+03  0.00000000000E+00 0. -1.
         -2   -1    0    0    0  501 -0.00000000000E+00 -0.00000000000E+00 -0.36787633469E+02  0.36787633469E+02  0.00000000000E+00 0.  1.
         23    2    1    2    0    0 -0.12547433617E+03 -0.45146976678E+02  0.28302091460E+03  0.33694081394E+03  0.12508483305E+03 0.  0.
          5    1    3    3  502    0 -0.22716976481E+02 -0.33686828116E+02  0.20041200564E+03  0.20453192371E+03  0.41800000000E+01 0.  1.
         -5    1    3    3    0  502 -0.10275735968E+03 -0.11460148562E+02  0.82608908961E+02  0.13240889024E+03  0.41800000000E+01 0.  1.
        -11    1    1    2    0    0  0.20501122282E+02 -0.21936703963E+02  0.66335585159E+02  0.72814317644E+02  0.00000000000E+00 0.  1.
         11    1    1    2    0    0  0.10497321388E+03  0.67083680641E+02  0.58231756424E+03  0.59549419936E+03  0.00000000000E+00 0. -1.
</event>
<event>
 7    1  0.1243146E-005  0.1818234E+03  0.7561462E-02  0.1166050E+00
         -3   -1    0    0    0  501 -0.00000000000E+00  0.00000000000E+00  0.27650303240E+03  0.27650303240E+03  0.00000000000E+00 0. -1.
          3   -1    0    0  501    0  0.00000000000E+00 -0.00000000000E+00 -0.13509186777E+03  0.13509186777E+03  0.00000000000E+00 0.  1.
         23    2    1    2    0    0  0.99357439212E+02 -0.12386413184E+03  0.80590049551E+02  0.21761671161E+03  0.12509217882E+03 0.  0.
          5    1    3    3  502    0 -0.48540202792E+01  0.87600271330E+01 -0.18865766768E+02  0.21764400842E+02  0.41800000000E+01 0.  1.
         -5    1    3    3    0  502  0.10421145949E+03 -0.13262415897E+03  0.99455816319E+02  0.19585231076E+03  0.41800000000E+01 0.  1.
        -11    1    1    2    0    0 -0.11713282867E+03  0.98175620336E+02  0.47815260788E+02  0.16014009849E+03  0.00000000000E+00 0.  1.
         11    1    1    2    0    0  0.17775389459E+02  0.25688511503E+02  0.13005854295E+02  0.33838090070E+02  0.00000000000E+00 0. -1.
</event>
<event>
 7    1  0.1412574E-005  0.2073840E+03  0.7561462E-02  0.1143655E+00
          1   -1    0    0  501    0  0.00000000000E+00  0.00000000000E+00  0.93045924629E+03  0.93045924629E+03  0.00000000000E+00 0. -1.
         -1   -1    0    0    0  501 -0.00000000000E+00 -0.00000000000E+00 -0.55986113598E+02  0.55986113598E+02  0.00000000000E+00 0.  1.
         23    2    1    2    0    0  0.41789443666E+02  0.19361880826E+03  0.38374494763E+03  0.44960207171E+03  0.12508891853E+03 0.  0.
          5    1    3    3  502    0  0.20047409530E+01  0.22923997795E+02 -0.43091312976E+01  0.23781708806E+02  0.41800000000E+01 0. -1.
         -5    1    3    3    0  502  0.39784702713E+02  0.17069481047E+03  0.38805407893E+03  0.42582036290E+03  0.41800000000E+01 0. -1.
        -11    1    1    2    0    0 -0.68653101515E+02 -0.13033990812E+03  0.30273919901E+03  0.33667902016E+03  0.00000000000E+00 0. -1.
         11    1    1    2    0    0  0.26863657849E+02 -0.63278900144E+02  0.18798898605E+03  0.20016426802E+03  0.00000000000E+00 0.  1.
</event>
<event>
 7    1  0.1243146E-005  0.1272389E+03  0.7561462E-02  0.1231611E+00
          1   -1    0    0  501    0  0.00000000000E+00  0.00000000000E+00  0.17196617707E+03  0.17196617707E+03  0.00000000000E+00 0. -1.
         -1   -1    0    0    0  501 -0.00000000000E+00 -0.00000000000E+00 -0.18169153107E+03  0.18169153107E+03  0.00000000000E+00 0.  1.
         23    2    1    2    0    0 -0.10383606916E+03  0.27542653239E+02 -0.94417501068E+02  0.19000869752E+03  0.12509242031E+03 0.  0.
          5    1    3    3  502    0 -0.11606575957E+02 -0.18682362172E+02 -0.83190592059E+02  0.86150393318E+02  0.41800000000E+01 0.  1.
         -5    1    3    3    0  502 -0.92229493203E+02  0.46225015411E+02 -0.11226909009E+02  0.10385830420E+03  0.41800000000E+01 0.  1.
        -11    1    1    2    0    0  0.14515222040E+02  0.22259222581E+02  0.48249404077E+02  0.55083297419E+02  0.00000000000E+00 0. -1.
         11    1    1    2    0    0  0.89320847120E+02 -0.49801875820E+02  0.36442742992E+02  0.10856571320E+03  0.00000000000E+00 0.  1.
</event>
<event>
 7    1  0.1243146E-005  0.1171495E+03  0.7561462E-02  0.1247875E+00
         -2   -1    0    0    0  501 -0.00000000000E+00  0.00000000000E+00  0.40499330456E+02  0.40499330456E+02  0.00000000000E+00 0. -1.
          2   -1    0    0  501    0  0.00000000000E+00 -0.00000000000E+00 -0.42083371339E+03  0.42083371339E+03  0.00000000000E+00 0.  1.
         23    2    1    2    0    0  0.47869974293E+02  0.49859407331E+02 -0.16648191450E+03  0.21941203720E+03  0.12509164350E+03 0.  0.
          5    1    3    3  502    0  0.90165611418E+02  0.29208510301E+02 -0.12170787530E+03  0.15431543625E+03  0.41800000000E+01 0. -1.
         -5    1    3    3    0  502 -0.42295637125E+02  0.20650897030E+02 -0.44774039199E+02  0.65096600942E+02  0.41800000000E+01 0. -1.
        -11    1    1    2    0    0 -0.58299087159E+02 -0.21802114681E+02 -0.64638555388E+02  0.89734378088E+02  0.00000000000E+00 0. -1.
         11    1    1    2    0    0  0.10429112867E+02 -0.28057292650E+02 -0.14921391305E+03  0.15218662856E+03  0.00000000000E+00 0.  1.
</event>
<event>
 7    1  0.1243146E-005  0.1411158E+03  0.7561462E-02  0.1211835E+00
          1   -1    0    0  501    0  0.00000000000E+00  0.00000000000E+00  0.14846725495E+03  0.14846725495E+03  0.00000000000E+00 0. -1.
         -1   -1    0    0    0  501 -0.00000000000E+00 -0.00000000000E+00 -0.20358044241E+03  0.20358044241E+03  0.00000000000E+00 0.  1.
         23    2    1    2    0    0  0.85932276649E+02  0.66054157923E+02 -0.11056208103E+03  0.19908063983E+03  0.12514639206E+03 0.  0.
          5    1    3    3  502    0  0.12284317939E+02  0.80576458686E+02 -0.25389290943E+02  0.85472560838E+02  0.41800000000E+01 0. -1.
         -5    1    3    3    0  502  0.73647958710E+02 -0.14522300762E+02 -0.85172790082E+02  0.11360807899E+03  0.41800000000E+01 0. -1.
        -11    1    1    2    0    0 -0.47047452008E+02  0.19613476566E+01 -0.13088276890E+02  0.48873434676E+02  0.00000000000E+00 0.  1.
         11    1    1    2    0    0 -0.38884824641E+02 -0.68015505580E+02  0.68537170452E+02  0.10409362286E+03  0.00000000000E+00 0. -1.
</event>
<event>
 7    1  0.1243146E-005  0.1762971E+03  0.7561462E-02  0.1171436E+00
          1   -1    0    0  501    0  0.00000000000E+00  0.00000000000E+00  0.36039035238E+03  0.36039035238E+03  0.00000000000E+00 0. -1.
         -1   -1    0    0    0  501 -0.00000000000E+00 -0.00000000000E+00 -0.10467592791E+03  0.10467592791E+03  0.00000000000E+00 0.  1.
         23    2    1    2    0    0 -0.59926756239E+02 -0.12598675622E+03  0.38657585116E+02  0.19160151399E+03  0.12551036778E+03 0.  0.
          5    1    3    3  502    0  0.27363593690E+02 -0.87694108657E+02  0.13648499913E+02  0.92966536467E+02  0.41800000000E+01 0.  1.
         -5    1    3    3    0  502 -0.87290349929E+02 -0.38292647567E+02  0.25009085203E+02  0.98634977524E+02  0.41800000000E+01 0.  1.
        -11    1    1    2    0    0 -0.10741957262E+02  0.80427304109E+02  0.12244501055E+03  0.14689016816E+03  0.00000000000E+00 0. -1.
         11    1    1    2    0    0  0.70668713501E+02  0.45559452115E+02  0.94611828804E+02  0.12657459814E+03  0.00000000000E+00 0.  1.
</event>
<event>
 7    1  0.1243146E-005  0.8399373E+02  0.7561462E-02  0.1318085E+00
          4   -1    0    0  501    0  0.00000000000E+00  0.00000000000E+00  0.12618619657E+03  0.12618619657E+03  0.00000000000E+00 0. -1.
         -4   -1    0    0    0  501 -0.00000000000E+00 -0.00000000000E+00 -0.11120151452E+03  0.11120151452E+03  0.00000000000E+00 0.  1.
         23    2    1    2    0    0  0.20460267907E+02 -0.26444842862E+02 -0.25331154964E+02  0.13193756348E+03  0.12509157033E+03 0.  0.
          5    1    3    3  502    0 -0.45669219508E+02  0.14260805019E+02  0.53809840330E+01  0.48326758214E+02  0.41800000000E+01 0.  1.
         -5    1    3    3    0  502  0.66129487415E+02 -0.40705647881E+02 -0.30712138997E+02  0.83610805265E+02  0.41800000000E+01 0.  1.
        -11    1    1    2    0    0 -0.22761256761E+02  0.88032986873E+01 -0.26664979916E+02  0.36146839848E+02  0.00000000000E+00 0.  1.
         11    1    1    2    0    0  0.23009888539E+01  0.17641544175E+02  0.66980816931E+02  0.69303307766E+02  0.00000000000E+00 0. -1.
</event>
<event>
 7    1  0.1243146E-005  0.9282564E+02  0.7561462E-02  0.1296150E+00
          3   -1    0    0  501    0  0.00000000000E+00  0.00000000000E+00  0.27373838029E+02  0.27373838029E+02  0.00000000000E+00 0. -1.
         -3   -1    0    0    0  501 -0.00000000000E+00 -0.00000000000E+00 -0.39078295017E+03  0.39078295017E+03  0.00000000000E+00 0.  1.
         23    2    1    2    0    0 -0.71534720972E+01  0.13479565365E+02 -0.28098807718E+03  0.30589555161E+03  0.11993714241E+03 0.  0.
          5    1    3    3  502    0  0.42677827128E+02  0.39881110121E+02 -0.18949938319E+03  0.19834159550E+03  0.41800000000E+01 0. -1.
         -5    1    3    3    0  502 -0.49831299225E+02 -0.26401544755E+02 -0.91488693988E+02  0.10755395611E+03  0.41800000000E+01 0.  1.
        -11    1    1    2    0    0  0.24572191563E+02 -0.35057391489E+02 -0.27920762585E+02  0.51111469159E+02  0.00000000000E+00 0. -1.
         11    1    1    2    0    0 -0.17418719466E+02  0.21577826124E+02 -0.54500272371E+02  0.61149767428E+02  0.00000000000E+00 0.  1.
</event>
<event>
 7    1  0.1243146E-005  0.1905411E+03  0.7561462E-02  0.1157974E+00
          1   -1    0    0  501    0  0.00000000000E+00  0.00000000000E+00  0.30507619500E+03  0.30507619500E+03  0.00000000000E+00 0. -1.
         -1   -1    0    0    0  501 -0.00000000000E+00 -0.00000000000E+00 -0.39774418994E+03  0.39774418994E+03  0.00000000000E+00 0.  1.
         23    2    1    2    0    0  0.16604151687E+03  0.87676392686E+02 -0.32511629148E+03  0.39569693125E+03  0.12497409033E+03 0.  0.
          5    1    3    3  502    0  0.29940555663E+02  0.58856900958E+01 -0.17315343261E+03  0.17587115126E+03  0.41800000000E+01 0. -1.
         -5    1    3    3    0  502  0.13610096120E+03  0.81790702590E+02 -0.15196285888E+03  0.21982577999E+03  0.41800000000E+01 0. -1.
        -11    1    1    2    0    0 -0.11642852943E+03 -0.41322428421E+02  0.10259112412E+03  0.16058668781E+03  0.00000000000E+00 0.  1.
         11    1    1    2    0    0 -0.49612987440E+02 -0.46353964264E+02  0.12985717242E+03  0.14653676588E+03  0.00000000000E+00 0. -1.
</event>
<event>
 7    1  0.1243146E-005  0.2241036E+03  0.7561462E-02  0.1130860E+00
         -3   -1    0    0    0  501 -0.00000000000E+00  0.00000000000E+00  0.18126875523E+03  0.18126875523E+03  0.00000000000E+00 0.  1.
          3   -1    0    0  501    0  0.00000000000E+00 -0.00000000000E+00 -0.29170861473E+03  0.29170861473E+03  0.00000000000E+00 0. -1.
         23    2    1    2    0    0  0.15150500856E+03  0.13300545426E+03 -0.48223933852E+02  0.24211015283E+03  0.12509020675E+03 0.  0.
          5    1    3    3  502    0  0.40847367274E+02 -0.13563951682E+02 -0.38916251638E+02  0.58175899134E+02  0.41800000000E+01 0. -1.
         -5    1    3    3    0  502  0.11065764129E+03  0.14656940594E+03 -0.93076822133E+01  0.18393425369E+03  0.41800000000E+01 0. -1.
        -11    1    1    2    0    0 -0.11096130750E+03 -0.14152327520E+03 -0.41568865600E+02  0.18457849218E+03  0.00000000000E+00 0.  1.
         11    1    1    2    0    0 -0.40543701059E+02  0.85178209413E+01 -0.20647060057E+02  0.46288724957E+02  0.00000000000E+00 0. -1.
</event>
<event>
 7    1  0.1243146E-005  0.2162243E+03  0.7561462E-02  0.1136730E+00
         -2   -1    0    0    0  501 -0.00000000000E+00  0.00000000000E+00  0.42122928610E+02  0.42122928610E+02  0.00000000000E+00 0. -1.
          2   -1    0    0  501    0  0.00000000000E+00 -0.00000000000E+00 -0.11928435314E+04  0.11928435314E+04  0.00000000000E+00 0.  1.
         23    2    1    2    0    0 -0.64630575115E+02 -0.18457744090E+03 -0.56269490962E+03  0.60870265923E+03  0.12508966028E+03 0.  0.
          5    1    3    3  502    0  0.18351488647E+02 -0.13173555270E+03 -0.30139138249E+03  0.32946209314E+03  0.41800000000E+01 0. -1.
         -5    1    3    3    0  502 -0.82982063761E+02 -0.52841888201E+02 -0.26130352713E+03  0.27924056608E+03  0.41800000000E+01 0. -1.
        -11    1    1    2    0    0  0.70012383219E+02  0.14556927728E+03 -0.54266484890E+03  0.56619544905E+03  0.00000000000E+00 0.  1.
         11    1    1    2    0    0 -0.53818081045E+01  0.39008163622E+02 -0.45360844296E+02  0.60068351758E+02  0.00000000000E+00 0. -1.
</event>
<event>
 7    1  0.1243146E-005  0.9710245E+02  0.7561462E-02  0.1286510E+00
          1   -1    0    0  501    0  0.00000000000E+00  0.00000000000E+00  0.16194479568E+02  0.16194479568E+02  0.00000000000E+00 0. -1.
         -1   -1    0    0    0  501 -0.00000000000E+00 -0.00000000000E+00 -0.92173087833E+03  0.92173087833E+03  0.00000000000E+00 0.  1.
         23    2    1    2    0    0 -0.12839694598E+02 -0.47999312309E+02 -0.60122340942E+03  0.61610367159E+03  0.12508139099E+03 0.  0.
          5    1    3    3  502    0 -0.45356508951E+02 -0.15865489443E+02 -0.52436988208E+03  0.52658349033E+03  0.41800000000E+01 0.  1.
         -5    1    3    3    0  502  0.32516814353E+02 -0.32133822866E+02 -0.76853527343E+02  0.89520181260E+02  0.41800000000E+01 0.  1.
        -11    1    1    2    0    0  0.37078743381E+02  0.61876341912E+02 -0.25648219519E+03  0.26643316489E+03  0.00000000000E+00 0.  1.
         11    1    1    2    0    0 -0.24239048784E+02 -0.13877029603E+02 -0.47830794148E+02  0.55388521423E+02  0.00000000000E+00 0. -1.
</event>
<event>
 7    1  0.1243146E-005  0.1362687E+03  0.7561462E-02  0.1218440E+00
         -1   -1    0    0    0  501 -0.00000000000E+00  0.00000000000E+00  0.42842550769E+02  0.42842550769E+02  0.00000000000E+00 0.  1.
          1   -1    0    0  501    0  0.00000000000E+00 -0.00000000000E+00 -0.52424373974E+03  0.52424373974E+03  0.00000000000E+00 0. -1.
         23    2    1    2    0    0 -0.82679888817E+01 -0.10003719151E+03 -0.20749702343E+03  0.26159350429E+03  0.12369457316E+03 0.  0.
          5    1    3    3  502    0  0.38270700376E+02 -0.75871481969E+02 -0.57627164584E+02  0.10275938294E+03  0.41800000000E+01 0.  1.
         -5    1    3    3    0  502 -0.46538689258E+02 -0.24165709543E+02 -0.14986985885E+03  0.15883412135E+03  0.41800000000E+01 0.  1.
        -11    1    1    2    0    0  0.61166358730E+01 -0.16860022832E+02 -0.45405700906E+02  0.48819578850E+02  0.00000000000E+00 0. -1.
         11    1    1    2    0    0  0.21513530087E+01  0.11689721434E+03 -0.22849846463E+03  0.25667320737E+03  0.00000000000E+00 0.  1.
</event>
<event>
 7    1  0.1243146E-005  0.9688639E+02  0.7561462E-02  0.1286983E+00
         -3   -1    0    0    0  501 -0.00000000000E+00  0.00000000000E+00  0.95537546560E+02  0.95537546560E+02  0.00000000000E+00 0.  1.
          3   -1    0    0  501    0  0.00000000000E+00 -0.00000000000E+00 -0.11691910465E+03  0.11691910465E+03  0.00000000000E+00 0. -1.
         23    2    1    2    0    0 -0.24461866802E+01 -0.18609933663E+02 -0.28042082841E+02  0.12956192580E+03  0.12509045026E+03 0.  0.
          5    1    3    3  502    0  0.29162481265E+02 -0.58668988566E+02  0.91436376613E+01  0.66284078349E+02  0.41800000000E+01 0. -1.
         -5    1    3    3    0  502 -0.31608667945E+02  0.40059054904E+02 -0.37185720502E+02  0.63277847453E+02  0.41800000000E+01 0. -1.
        -11    1    1    2    0    0  0.38519140718E+02  0.82525413373E+01 -0.11727344203E+02  0.41101815559E+02  0.00000000000E+00 0. -1.
         11    1    1    2    0    0 -0.36072954038E+02  0.10357392326E+02  0.18387868955E+02  0.41792909847E+02  0.00000000000E+00 0.  1.
</event>
<event>
 7    1  0.1243146E-005  0.1039663E+03  0.7561462E-02  0.1272170E+00
         -2   -1    0    0    0  501 -0.00000000000E+00  0.00000000000E+00  0.17927123631E+02  0.17927123631E+02  0.00000000000E+00 0.  1.
          2   -1    0    0  501    0  0.00000000000E+00 -0.00000000000E+00 -0.80704024503E+03  0.80704024503E+03  0.00000000000E+00 0. -1.
         23    2    1    2    0    0 -0.13703630565E+01  0.43824794407E+02 -0.34926449329E+03  0.37357044634E+03  0.12508677633E+03 0.  0.
          5    1    3    3  502    0 -0.48221408934E+02  0.93594229822E+01 -0.27379286382E+03  0.27819580831E+03  0.41800000000E+01 0.  1.
         -5    1    3    3    0  502  0.46851045878E+02  0.34465371425E+02 -0.75471629462E+02  0.95374638039E+02  0.41800000000E+01 0.  1.
        -11    1    1    2    0    0 -0.33502910191E+02 -0.54391856272E+02 -0.31109386335E+03  0.31758512376E+03  0.00000000000E+00 0. -1.
         11    1    1    2    0    0  0.34873273247E+02  0.10567061865E+02 -0.12875476477E+03  0.13381179856E+03  0.00000000000E+00 0.  1.
</event>
<event>
 7    1  0.1243146E-005  0.9484427E+02  0.7561462E-02  0.1291527E+00
          1   -1    0    0  501    0  0.00000000000E+00  0.00000000000E+00  0.22536268954E+02  0.22536268954E+02  0.00000000000E+00 0. -1.
         -1   -1    0    0    0  501 -0.00000000000E+00 -0.00000000000E+00 -0.59623789679E+03  0.59623789679E+03  0.00000000000E+00 0.  1.
         23    2    1    2    0    0  0.38100842282E+02  0.19140192185E+02 -0.34804991887E+03  0.37229685233E+03  0.12509268200E+03 0.  0.
          5    1    3    3  502    0 -0.10563316585E+02 -0.29900839155E+02 -0.25135811554E+03  0.25338511891E+03  0.41800000000E+01 0. -1.
         -5    1    3    3    0  502  0.48664158866E+02  0.49041031340E+02 -0.96691803328E+02  0.11891173342E+03  0.41800000000E+01 0. -1.
        -11    1    1    2    0    0  0.22808068975E+02  0.43257488195E+01 -0.12048417911E+03  0.12270027518E+03  0.00000000000E+00 0.  1.
         11    1    1    2    0    0 -0.60908911256E+02 -0.23465941004E+02 -0.10516752985E+03  0.12377703823E+03  0.00000000000E+00 0. -1.
</event>
<event>
 6    1  0.1243146E-005  0.2927027E+03  0.7561462E-02  0.1088946E+00
          1   -1    0    0  501    0  0.00000000000E+00  0.00000000000E+00  0.51333724116E+03  0.51333724116E+03  0.00000000000E+00 0. -1.
         -1   -1    0    0    0  501 -0.00000000000E+00 -0.00000000000E+00 -0.30174270302E+03  0.30174270302E+03  0.00000000000E+00 0.  1.
          5    1    1    2  502    0  0.78270260764E+02 -0.46211512428E+02  0.53878872541E+02  0.10574565195E+03  0.41800000000E+01 0. -1.
         -5    1    1    2    0  502 -0.75993699215E+02  0.25757003814E+03 -0.16505597982E+03  0.31524326439E+03  0.41800000000E+01 0.  1.
        -11    1    1    2    0    0 -0.37006663409E+02 -0.15720958638E+03  0.22188844977E+03  0.27444276512E+03  0.00000000000E+00 0.  1.
         11    1    1    2    0    0  0.34730101861E+02 -0.54148939334E+02  0.10088319565E+03  0.11964826272E+03  0.00000000000E+00 0. -1.
</event>
<event>
 7    1  0.1243146E-005  0.1220919E+03  0.7561462E-02  0.1239685E+00
          2   -1    0    0  501    0  0.00000000000E+00  0.00000000000E+00  0.25454411737E+02  0.25454411737E+02  0.00000000000E+00 0. -1.
         -2   -1    0    0    0  501 -0.00000000000E+00 -0.00000000000E+00 -0.70196808876E+03  0.70196808876E+03  0.00000000000E+00 0.  1.
         23    2    1    2    0    0 -0.19179150251E+02  0.69625318199E+02 -0.44170286201E+03  0.46471967229E+03  0.12508969090E+03 0.  0.
          5    1    3    3  502    0 -0.42689495549E+02 -0.15082991443E+02 -0.24559627024E+03  0.24976967394E+03  0.41800000000E+01 0.  1.
         -5    1    3    3    0  502  0.23510345298E+02  0.84708309642E+02 -0.19610659177E+03  0.21494999836E+03  0.41800000000E+01 0.  1.
        -11    1    1    2    0    0  0.38903003935E+02 -0.58918780123E+00 -0.12970448964E+03  0.13541434743E+03  0.00000000000E+00 0.  1.
         11    1    1    2    0    0 -0.19723853683E+02 -0.69036130398E+02 -0.10510632537E+03  0.12728848077E+03  0.00000000000E+00 0. -1.
</event>
<event>
 7    1  0.1243146E-005  0.1562753E+03  0.7561462E-02  0.1192967E+00
         -2   -1    0    0    0  501 -0.00000000000E+00  0.00000000000E+00  0.94211103651E+02  0.94211103651E+02  0.00000000000E+00 0.  1.
          2   -1    0    0  501    0  0.00000000000E+00 -0.00000000000E+00 -0.34641531084E+03  0.34641531084E+03  0.00000000000E+00 0. -1.
         23    2    1    2    0    0  0.38992776247E+02  0.12139416886E+03 -0.53483263650E+02  0.18645379890E+03  0.12509028261E+03 0.  0.
          5    1    3    3  502    0  0.46041423711E+02  0.14320723485E+03 -0.60390530287E+02  0.16214997181E+03  0.41800000000E+01 0.  1.
         -5    1    3    3    0  502 -0.70486474637E+01 -0.21813065991E+02  0.69072666365E+01  0.24303827093E+02  0.41800000000E+01 0.  1.
        -11    1    1    2    0    0 -0.17459867542E+02 -0.21501221056E+01  0.39600692741E+01  0.18031975718E+02  0.00000000000E+00 0.  1.
         11    1    1    2    0    0 -0.21532908705E+02 -0.11924404675E+03 -0.20268101281E+03  0.23614063987E+03  0.00000000000E+00 0. -1.
</event>
<event>
 7    1  0.1243146E-005  0.1094132E+03  0.7561462E-02  0.1261660E+00
         -1   -1    0    0    0  501 -0.00000000000E+00  0.00000000000E+00  0.96403933009E+02  0.96403933009E+02  0.00000000000E+00 0.  1.
          1   -1    0    0  501    0  0.00000000000E+00 -0.00000000000E+00 -0.17794407634E+03  0.17794407634E+03  0.00000000000E+00 0. -1.
         23    2    1    2    0    0 -0.38654903580E+01 -0.71304856338E+02 -0.22112975913E+02  0.14572829110E+03  0.12509367119E+03 0.  0.
          5    1    3    3  502    0  0.51559422931E+02  0.18873476831E+01 -0.13015892305E+02  0.53374357389E+02  0.41800000000E+01 0. -1.
         -5    1    3    3    0  502 -0.55424913289E+02 -0.73192204022E+02 -0.90970836072E+01  0.92353933716E+02  0.41800000000E+01 0. -1.
        -11    1    1    2    0    0 -0.55900807480E+01  0.60674599785E+02  0.64054525247E+01  0.61267331294E+02  0.00000000000E+00 0.  1.
         11    1    1    2    0    0  0.94555711060E+01  0.10630256554E+02 -0.65832619944E+02  0.67352386951E+02  0.00000000000E+00 0. -1.
</event>
<event>
 7    1  0.1243146E-005  0.1140489E+03  0.7561462E-02  0.1253250E+00
          1   -1    0    0  501    0  0.00000000000E+00  0.00000000000E+00  0.63983992444E+03  0.63983992444E+03  0.00000000000E+00 0. -1.
         -1   -1    0    0    0  501 -0.00000000000E+00 -0.00000000000E+00 -0.21128076847E+02  0.21128076847E+02  0.00000000000E+00 0.  1.
         23    2    1    2    0    0 -0.25203885848E+02 -0.29758960741E+02  0.30995851055E+03  0.33651493706E+03  0.12508874049E+03 0.  0.
          5    1    3    3  502    0  0.41850713685E+02 -0.44405452125E+02  0.16780465308E+03  0.17860347255E+03  0.41800000000E+01 0.  1.
         -5    1    3    3    0  502 -0.67054599533E+02  0.14646491384E+02  0.14215385748E+03  0.15791146451E+03  0.41800000000E+01 0.  1.
        -11    1    1    2    0    0  0.52276111139E+02  0.43321429916E+02  0.23795949874E+03  0.24745557404E+03  0.00000000000E+00 0. -1.
         11    1    1    2    0    0 -0.27072225291E+02 -0.13562469175E+02  0.70793838306E+02  0.76997490182E+02  0.00000000000E+00 0.  1.
</event>
<event>
 7    1  0.1243146E-005  0.2790913E+03  0.7561462E-02  0.1096186E+00
         -2   -1    0    0    0  501 -0.00000000000E+00  0.00000000000E+00  0.11191278731E+03  0.11191278731E+03  0.00000000000E+00 0.  1.
          2   -1    0    0  501    0  0.00000000000E+00 -0.00000000000E+00 -0.74592254023E+03  0.74592254023E+03  0.00000000000E+00 0. -1.
         23    2    1    2    0    0 -0.14691664126E+03 -0.22306068869E+03 -0.30237367956E+03  0.42239649702E+03  0.12509351818E+03 0.  0.
          5    1    3    3  502    0 -0.87420840282E+02 -0.18681568163E+03 -0.15084109160E+03  0.25556410064E+03  0.41800000000E+01 0.  1.
         -5    1    3    3    0  502 -0.59495800975E+02 -0.36245007059E+02 -0.15153258796E+03  0.16683239639E+03  0.41800000000E+01 0.  1.
        -11    1    1    2    0    0  0.13040388436E+03  0.11840312747E+03 -0.20177574165E+03  0.26783936150E+03  0.00000000000E+00 0.  1.
         11    1    1    2    0    0  0.16512756895E+02  0.10465756122E+03 -0.12986033172E+03  0.16759946901E+03  0.00000000000E+00 0. -1.
</event>
<event>
 7    1  0.1243146E-005  0.1230275E+03  0.7561462E-02  0.1238185E+00
          2   -1    0    0  501    0  0.00000000000E+00  0.00000000000E+00  0.43473462364E+03  0.43473462364E+03  0.00000000000E+00 0. -1.
         -2   -1    0    0    0  501 -0.00000000000E+00 -0.00000000000E+00 -0.50892721736E+02  0.50892721736E+02  0.00000000000E+00 0.  1.
         23    2    1    2    0    0  0.36210317898E+02  0.82080133040E+02  0.14355129580E+03  0.21048247612E+03  0.12509021891E+03 0.  0.
          5    1    3    3  502    0  0.68537922197E+02  0.42268355591E+02  0.13651529239E+03  0.15854954469E+03  0.41800000000E+01 0. -1.
         -5    1    3    3    0  502 -0.32327604299E+02  0.39811777449E+02  0.70360034022E+01  0.51932931433E+02  0.41800000000E+01 0. -1.
        -11    1    1    2    0    0 -0.76756023967E+01 -0.84944598355E+02  0.22892392633E+03  0.24429626217E+03  0.00000000000E+00 0. -1.
         11    1    1    2    0    0 -0.28534715501E+02  0.28644653149E+01  0.11366679780E+02  0.30848607092E+02  0.00000000000E+00 0.  1.
</event>
<event>
 7    1  0.1243146E-005  0.1425821E+03  0.7561462E-02  0.1209896E+00
          2   -1    0    0  501    0  0.00000000000E+00  0.00000000000E+00  0.40256445966E+03  0.40256445966E+03  0.00000000000E+00 0. -1.
         -2   -1    0    0    0  501 -0.00000000000E+00 -0.00000000000E+00 -0.97108128544E+02  0.97108128544E+02  0.00000000000E+00 0.  1.
         23    2    1    2    0    0 -0.10976568921E+03  0.16627421607E+02  0.58738171098E+01  0.16735567143E+03  0.12509373028E+03 0.  0.
          5    1    3    3  502    0 -0.13374498896E+03 -0.47183095432E+01 -0.24954673450E+01  0.13391670647E+03  0.41800000000E+01 0.  1.
         -5    1    3    3    0  502  0.23979299749E+02  0.21345731151E+02  0.83692844548E+01  0.33438964952E+02  0.41800000000E+01 0.  1.
        -11    1    1    2    0    0  0.44153962557E+02 -0.28031675917E+02  0.44455257603E+02  0.68641220798E+02  0.00000000000E+00 0.  1.
         11    1    1    2    0    0  0.65611726650E+02  0.11404254309E+02  0.25512725640E+03  0.26367569598E+03  0.00000000000E+00 0. -1.
</event>
<event>
 7    1  0.1243146E-005  0.1211510E+03  0.7561462E-02  0.1241210E+00
          4   -1    0    0  501    0  0.00000000000E+00  0.00000000000E+00  0.46114228878E+02  0.46114228878E+02  0.00000000000E+00 0.  1.
         -4   -1    0    0    0  501 -0.00000000000E+00 -0.00000000000E+00 -0.85644262114E+03  0.85644262114E+03  0.00000000000E+00 0. -1.
         23    2    1    2    0    0 -0.47270077626E+02  0.48840181261E+02 -0.77038166783E+03  0.78342277432E+03  0.12507400070E+03 0.  0.
          5    1    3    3  502    0  0.15681535204E+02 -0.28984929564E+02 -0.94772007659E+02  0.10042530818E+03  0.41800000000E+01 0.  1.
         -5    1    3    3    0  502 -0.62951612829E+02  0.77825110825E+02 -0.67560966017E+03  0.68299746614E+03  0.41800000000E+01 0.  1.
        -11    1    1    2    0    0 -0.24969681838E+02 -0.14951184259E+02 -0.24089364803E+02  0.37779894368E+02  0.00000000000E+00 0. -1.
         11    1    1    2    0    0  0.72239759464E+02 -0.33888997002E+02 -0.15857359628E+02  0.81354181328E+02  0.00000000000E+00 0.  1.
</event>
<event>
 7    1  0.1243146E-005  0.1430019E+03  0.7561462E-02  0.1209346E+00
          2   -1    0    0  501    0  0.00000000000E+00  0.00000000000E+00  0.11545257744E+04  0.11545257744E+04  0.00000000000E+00 0. -1.
         -2   -1    0    0    0  501 -0.00000000000E+00 -0.00000000000E+00 -0.24969607881E+02  0.24969607881E+02  0.00000000000E+00 0.  1.
         23    2    1    2    0    0 -0.11925078378E+03 -0.45533728342E+02  0.51286168399E+03  0.54311032498E+03  0.12509056060E+03 0.  0.
          5    1    3    3  502    0 -0.34301872826E+01 -0.50354187416E+01 -0.62508703615E+01  0.96781923402E+01  0.41800000000E+01 0. -1.
         -5    1    3    3    0  502 -0.11582059649E+03 -0.40498309601E+02  0.51911255435E+03  0.53343213264E+03  0.41800000000E+01 0. -1.
        -11    1    1    2    0    0  0.43237624847E+02 -0.26839397842E+02  0.16570273126E+03  0.17334139905E+03  0.00000000000E+00 0.  1.
         11    1    1    2    0    0  0.76013158929E+02  0.72373126185E+02  0.45099175124E+03  0.46304365821E+03  0.00000000000E+00 0. -1.
</event>
<event>
 7    1  0.1243146E-005  0.1187327E+03  0.7561462E-02  0.1245202E+00
         -2   -1    0    0    0  501 -0.00000000000E+00  0.00000000000E+00  0.56570875886E+03  0.56570875886E+03  0.00000000000E+00 0.  1.
          2   -1    0    0  501    0  0.00000000000E+00 -0.00000000000E+00 -0.28879770378E+02  0.28879770378E+02  0.00000000000E+00 0. -1.
         23    2    1    2    0    0  0.10114314991E+02  0.71372193333E+02  0.33830529179E+03  0.36470164365E+03  0.11558775488E+03 0.  0.
          5    1    3    3  502    0  0.48560942061E+02  0.11107800737E+02  0.64030888696E+02  0.81234078060E+02  0.41800000000E+01 0. -1.
         -5    1    3    3    0  502 -0.38446627070E+02  0.60264392597E+02  0.27427440310E+03  0.28346756559E+03  0.41800000000E+01 0.  1.
        -11    1    1    2    0    0 -0.42107762107E+02 -0.72516674136E+02  0.14652814678E+03  0.16882603311E+03  0.00000000000E+00 0.  1.
         11    1    1    2    0    0  0.31993447116E+02  0.11444808031E+01  0.51995549906E+02  0.61060852473E+02  0.00000000000E+00 0. -1.
</event>
<event>
 7    1  0.1243146E-005  0.2401558E+03  0.7561462E-02  0.1119689E+00
          2   -1    0    0  501    0  0.00000000000E+00  0.00000000000E+00  0.15868687228E+04  0.15868687228E+04  0.00000000000E+00 0. -1.
         -2   -1    0    0    0  501 -0.00000000000E+00 -0.00000000000E+00 -0.41308443684E+02  0.41308443684E+02  0.00000000000E+00 0.  1.
         23    2    1    2    0    0 -0.35946952825E+02  0.22781727461E+03  0.83407095545E+03  0.87436530024E+03  0.12508966989E+03 0.  0.
          5    1    3    3  502    0 -0.25432993276E+02  0.19640143498E+03  0.48775796820E+03  0.52644626387E+03  0.41800000000E+01 0.  1.
         -5    1    3    3    0  502 -0.10513959550E+02  0.31415839627E+02  0.34631298725E+03  0.34791903636E+03  0.41800000000E+01 0.  1.
        -11    1    1    2    0    0 -0.32044949817E+02 -0.76824679213E+02  0.22416308381E+03  0.23911921355E+03  0.00000000000E+00 0. -1.
         11    1    1    2    0    0  0.67991902642E+02 -0.15099259539E+03  0.48732623989E+03  0.51469265273E+03  0.00000000000E+00 0.  1.
</event>
<event>
 7    1  0.1243146E-005  0.1244962E+03  0.7561462E-02  0.1235859E+00
          1   -1    0    0  501    0  0.00000000000E+00  0.00000000000E+00  0.61490134957E+03  0.61490134957E+03  0.00000000000E+00 0. -1.
         -1   -1    0    0    0  501 -0.00000000000E+00 -0.00000000000E+00 -0.29398925992E+02  0.29398925992E+02  0.00000000000E+00 0.  1.
         23    2    1    2    0    0  0.17700357427E+02 -0.71684574678E+02  0.24561378176E+03  0.28536666078E+03  0.12512402007E+03 0.  0.
          5    1    3    3  502    0  0.71480693045E+02 -0.42793305342E+02  0.15510673158E+03  0.17611452819E+03  0.41800000000E+01 0. -1.
         -5    1    3    3    0  502 -0.53780335618E+02 -0.28891269336E+02  0.90507050179E+02  0.10925213259E+03  0.41800000000E+01 0. -1.
        -11    1    1    2    0    0 -0.40105355948E+02  0.13962624848E+02  0.21934068911E+03  0.22341381418E+03  0.00000000000E+00 0.  1.
         11    1    1    2    0    0  0.22404998520E+02  0.57721949830E+02  0.12054795271E+03  0.13551980059E+03  0.00000000000E+00 0. -1.
</event>
<event>
 7    1  0.1243146E-005  0.1686430E+03  0.7561462E-02  0.1179270E+00
         -2   -1    0    0    0  501 -0.00000000000E+00  0.00000000000E+00  0.83976678625E+02  0.83976678625E+02  0.00000000000E+00 0.  1.
          2   -1    0    0  501    0  0.00000000000E+00 -0.00000000000E+00 -0.44729194482E+03  0.44729194482E+03  0.00000000000E+00 0. -1.
         23    2    1    2    0    0 -0.10995149279E+03 -0.11148424876E+03 -0.23594573307E+03  0.30957315564E+03  0.12508829383E+03 0.  0.
          5    1    3    3  502    0 -0.10055475015E+03 -0.10194273833E+03 -0.10434222756E+03  0.17722401792E+03  0.41800000000E+01 0. -1.
         -5    1    3    3    0  502 -0.93967426381E+01 -0.95415104364E+01 -0.13160350551E+03  0.13234913772E+03  0.41800000000E+01 0. -1.
        -11    1    1    2    0    0  0.63770506482E+02  0.11724579585E+03 -0.10622407166E+03  0.17057786358E+03  0.00000000000E+00 0. -1.
         11    1    1    2    0    0  0.46180986306E+02 -0.57615470888E+01 -0.21145461462E+02  0.51117604223E+02  0.00000000000E+00 0.  1.
</event>
<event>
 7    1  0.1243146E-005  0.1072818E+03  0.7561462E-02  0.1265688E+00
          1   -1    0    0  501    0  0.00000000000E+00  0.00000000000E+00  0.15729537262E+03  0.15729537262E+03  0.00000000000E+00 0. -1.
         -1   -1    0    0    0  501 -0.00000000000E+00 -0.00000000000E+00 -0.11479773833E+03  0.11479773833E+03  0.00000000000E+00 0.  1.
         23    2    1    2    0    0 -0.66598811733E+02 -0.10544730299E+01 -0.20810657231E+02  0.14323780377E+03  0.12508985305E+03 0.  0.
          5    1    3    3  502    0 -0.84817482329E+02 -0.66183358629E+01  0.28813100118E+02  0.89919268328E+02  0.41800000000E+01 0.  1.
         -5    1    3    3    0  502  0.18218670596E+02  0.55638628330E+01 -0.49623757349E+02  0.53318535439E+02  0.41800000000E+01 0.  1.
        -11    1    1    2    0    0  0.14216167096E+02  0.41394475958E+02  0.12636365223E+02  0.45555238697E+02  0.00000000000E+00 0.  1.
         11    1    1    2    0    0  0.52382644637E+02 -0.40340002928E+02  0.50671926299E+02  0.83300068488E+02  0.00000000000E+00 0. -1.
</event>
<event>
 7    1  0.1243146E-005  0.1699877E+03  0.7561462E-02  0.1177861E+00
          3   -1    0    0  501    0  0.00000000000E+00  0.00000000000E+00  0.45320120882E+03  0.45320120882E+03  0.00000000000E+00 0. -1.
         -3   -1    0    0    0  501 -0.00000000000E+00 -0.00000000000E+00 -0.10955194319E+03  0.10955194319E+03  0.00000000000E+00 0.  1.
         23    2    1    2    0    0  0.87078176778E+02 -0.13550132659E+03  0.41131412984E+02  0.20803748819E+03  0.12507831538E+03 0.  0.
          5    1    3    3  502    0 -0.82332126224E+01  0.25507010394E+01 -0.25686281576E+02  0.27414399995E+02  0.41800000000E+01 0.  1.
         -5    1    3    3    0  502  0.95311389400E+02 -0.13805202763E+03  0.66817694561E+02  0.18062308819E+03  0.41800000000E+01 0.  1.
        -11    1    1    2    0    0 -0.67083795345E+02  0.85083998281E+02  0.10879829766E+03  0.15354670929E+03  0.00000000000E+00 0.  1.
         11    1    1    2    0    0 -0.19994381432E+02  0.50417328307E+02  0.19371955499E+03  0.20116895453E+03  0.00000000000E+00 0. -1.
</event>
<event>
 7    1  0.1243146E-005  0.1292242E+03  0.7561462E-02  0.1228611E+00
          1   -1    0    0  501    0  0.00000000000E+00  0.00000000000E+00  0.30903389884E+03  0.30903389884E+03  0.00000000000E+00 0. -1.
         -1   -1    0    0    0  501 -0.00000000000E+00 -0.00000000000E+00 -0.78052205940E+02  0.78052205940E+02  0.00000000000E+00 0.  1.
         23    2    1    2    0    0 -0.39040264810E+02  0.89244590265E+02  0.54557981921E+02  0.16510060844E+03  0.12162605950E+03 0.  0.
          5    1    3    3  502    0  0.30061358894E+02  0.51403872760E+02  0.61739417507E+02  0.85879400949E+02  0.41800000000E+01 0. -1.
         -5    1    3    3    0  502 -0.69101623704E+02  0.37840717505E+02 -0.71814355862E+01  0.79221207495E+02  0.41800000000E+01 0.  1.
        -11    1    1    2    0    0 -0.14454208884E+02 -0.53748647313E+02  0.32647190907E+02  0.64526586122E+02  0.00000000000E+00 0.  1.
         11    1    1    2    0    0  0.53494473695E+02 -0.35495942952E+02  0.14377652007E+03  0.15745891021E+03  0.00000000000E+00 0. -1.
</event>
<event>
 7    1  0.1243146E-005  0.3210853E+03  0.7561462E-02  0.1075151E+00
         -1   -1    0    0    0  501 -0.00000000000E+00  0.00000000000E+00  0.64296546747E+03  0.64296546747E+03  0.00000000000E+00 0.  1.
          1   -1    0    0  501    0  0.00000000000E+00 -0.00000000000E+00 -0.16324146962E+03  0.16324146962E+03  0.00000000000E+00 0. -1.
         23    2    1    2    0    0 -0.27439313569E+03 -0.13182691592E+03  0.26710408465E+03  0.42386400786E+03  0.12508467708E+03 0.  0.
          5    1    3    3  502    0 -0.27384881618E+02  0.21276642502E+02  0.11375229481E+02  0.36735480168E+02  0.41800000000E+01 0.  1.
         -5    1    3    3    0  502 -0.24700825408E+03 -0.15310355842E+03  0.25572885517E+03  0.38712852769E+03  0.41800000000E+01 0.  1.
        -11    1    1    2    0    0  0.19007015387E+03  0.13348780635E+03  0.14110691804E+03  0.27176611296E+03  0.00000000000E+00 0. -1.
         11    1    1    2    0    0  0.84322981827E+02 -0.16608904260E+01  0.71512995158E+02  0.11057681628E+03  0.00000000000E+00 0.  1.
</event>
<event>
 7    1  0.1243146E-005  0.2019255E+03  0.7561462E-02  0.1148125E+00
          1   -1    0    0  501    0  0.00000000000E+00  0.00000000000E+00  0.12192396254E+03  0.12192396254E+03  0.00000000000E+00 0. -1.
         -1   -1    0    0    0  501 -0.00000000000E+00 -0.00000000000E+00 -0.35981930301E+03  0.35981930301E+03  0.00000000000E+00 0.  1.
         23    2    1    2    0    0 -0.94275460898E+02  0.15008767052E+03 -0.14935526742E+03  0.26337794433E+03  0.12508706681E+03 0.  0.
          5    1    3    3  502    0  0.72130080726E+01  0.10409299013E+03 -0.84914854392E+02  0.13459339871E+03  0.41800000000E+01 0.  1.
         -5    1    3    3    0  502 -0.10148846897E+03  0.45994680386E+02 -0.64440413031E+02  0.12878454562E+03  0.41800000000E+01 0.  1.
        -11    1    1    2    0    0  0.43831818541E+02 -0.19583223262E+02  0.75980612147E+01  0.48605159028E+02  0.00000000000E+00 0. -1.
         11    1    1    2    0    0  0.50443642357E+02 -0.13050444726E+03 -0.96138134267E+02  0.16976016220E+03  0.00000000000E+00 0.  1.
</event>
<event>
 7    1  0.1243146E-005  0.1005263E+03  0.7561462E-02  0.1279193E+00
          1   -1    0    0  501    0  0.00000000000E+00  0.00000000000E+00  0.28910263177E+03  0.28910263177E+03  0.00000000000E+00 0. -1.
         -1   -1    0    0    0  501 -0.00000000000E+00 -0.00000000000E+00 -0.61617619675E+02  0.61617619675E+02  0.00000000000E+00 0.  1.
         23    2    1    2    0    0 -0.73987235852E+01 -0.65500483953E+02  0.72182296805E+02  0.15875850045E+03  0.12509565534E+03 0.  0.
          5    1    3    3  502    0 -0.39010133214E+02 -0.42114494714E+02  0.96481746244E+02  0.11234598754E+03  0.41800000000E+01 0.  1.
         -5    1    3    3    0  502  0.31611409629E+02 -0.23385989239E+02 -0.24299449438E+02  0.46412512908E+02  0.41800000000E+01 0.  1.
        -11    1    1    2    0    0  0.35768375254E+02  0.37106202676E+01  0.21559026487E+02  0.41927759232E+02  0.00000000000E+00 0.  1.
         11    1    1    2    0    0 -0.28369651669E+02  0.61789863686E+02  0.13374368880E+03  0.15003399176E+03  0.00000000000E+00 0. -1.
</event>
<event>
 7    1  0.1243146E-005  0.9495560E+02  0.7561462E-02  0.1291276E+00
         -4   -1    0    0    0  501 -0.00000000000E+00  0.00000000000E+00  0.51663189093E+03  0.51663189093E+03  0.00000000000E+00 0.  1.
          4   -1    0    0  501    0  0.00000000000E+00 -0.00000000000E+00 -0.27826389767E+02  0.27826389767E+02  0.00000000000E+00 0. -1.
         23    2    1    2    0    0  0.15014793781E+02 -0.44354145904E+02  0.32349555716E+03  0.34998409651E+03  0.12508700180E+03 0.  0.
          5    1    3    3  502    0 -0.41851108735E+02 -0.34260425063E+01  0.40769202276E+02  0.58675832536E+02  0.41800000000E+01 0.  1.
         -5    1    3    3    0  502  0.56865902516E+02 -0.40928103398E+02  0.28272635488E+03  0.29130826398E+03  0.41800000000E+01 0.  1.
        -11    1    1    2    0    0  0.77240195921E+01  0.52729814148E+02  0.39456802863E+02  0.66309373929E+02  0.00000000000E+00 0. -1.
         11    1    1    2    0    0 -0.22738813373E+02 -0.83756682436E+01  0.12585314114E+03  0.12816481025E+03  0.00000000000E+00 0.  1.
</event>
<event>
 7    1  0.1243146E-005  0.2082600E+03  0.7561462E-02  0.1142951E+00
          2   -1    0    0  501    0  0.00000000000E+00  0.00000000000E+00  0.56917240571E+02  0.56917240571E+02  0.00000000000E+00 0. -1.
         -2   -1    0    0    0  501 -0.00000000000E+00 -0.00000000000E+00 -0.10551001518E+04  0.10551001518E+04  0.00000000000E+00 0.  1.
         23    2    1    2    0    0  0.43010938168E+02 -0.18002690457E+03 -0.78601857940E+03  0.81714930424E+03  0.12509257006E+03 0.  0.
          5    1    3    3  502    0 -0.27186373417E+00 -0.16827387489E+03 -0.70110015407E+03  0.72102362605E+03  0.41800000000E+01 0.  1.
         -5    1    3    3    0  502  0.43282801902E+02 -0.11753029674E+02 -0.84918425328E+02  0.96125678188E+02  0.41800000000E+01 0.  1.
        -11    1    1    2    0    0 -0.49957263179E+02  0.42907506901E+02 -0.51983239436E+02  0.83898983754E+02  0.00000000000E+00 0. -1.
         11    1    1    2    0    0  0.69463250110E+01  0.13711939766E+03 -0.16018109244E+03  0.21096910443E+03  0.00000000000E+00 0.  1.
</event>
<event>
 6    1  0.1243146E-005  0.1012239E+03  0.7561462E-02  0.1277743E+00
          2   -1    0    0  501    0  0.00000000000E+00  0.00000000000E+00  0.69801662217E+03  0.69801662217E+03  0.00000000000E+00 0. -1.
         -2   -1    0    0    0  501 -0.00000000000E+00 -0.00000000000E+00 -0.46444076820E+02  0.46444076820E+02  0.00000000000E+00 0.  1.
          5    1    1    2  502    0 -0.64866848407E+02 -0.85257773268E+01  0.42715975200E+03  0.43216122342E+03  0.41800000000E+01 0. -1.
         -5    1    1    2    0  502  0.34566856853E+02  0.38411426455E+02 -0.13612197477E+02  0.53601022333E+02  0.41800000000E+01 0.  1.
        -11    1    1    2    0    0  0.38728505009E+02 -0.49995522477E+02  0.22403898449E+03  0.23279371972E+03  0.00000000000E+00 0. -1.
         11    1    1    2    0    0 -0.84285134546E+01  0.20109873349E+02  0.13986006328E+02  0.25904733509E+02  0.00000000000E+00 0.  1.
</event>
<event>
 7    1  0.1243146E-005  0.8721101E+02  0.7561462E-02  0.1309750E+00
          1   -1    0    0  501    0  0.00000000000E+00  0.00000000000E+00  0.19263315773E+03  0.19263315773E+03  0.00000000000E+00 0. -1.
         -1   -1    0    0    0  501 -0.00000000000E+00 -0.00000000000E+00 -0.93503848744E+02  0.93503848744E+02  0.00000000000E+00 0.  1.
         23    2    1    2    0    0  0.10018341552E+02  0.77642334412E+02  0.50906807967E+02  0.15610142019E+03  0.12508977188E+03 0.  0.
          5    1    3    3  502    0 -0.18037627026E+02  0.28987610903E+02  0.84006428936E+02  0.90775492712E+02  0.41800000000E+01 0. -1.
         -5    1    3    3    0  502  0.28055968578E+02  0.48654723509E+02 -0.33099620969E+02  0.65325927479E+02  0.41800000000E+01 0. -1.
        -11    1    1    2    0    0 -0.17724864373E+02 -0.25847504187E+02 -0.24947596794E+02  0.40058043830E+02  0.00000000000E+00 0.  1.
         11    1    1    2    0    0  0.77065228210E+01 -0.51794830226E+02  0.73170097816E+02  0.89977542457E+02  0.00000000000E+00 0. -1.
</event>
<event>
 7    1  0.1243146E-005  0.1185571E+03  0.7561462E-02  0.1245497E+00
          1   -1    0    0  501    0  0.00000000000E+00  0.00000000000E+00  0.45484790625E+02  0.45484790625E+02  0.00000000000E+00 0. -1.
         -1   -1    0    0    0  501 -0.00000000000E+00 -0.00000000000E+00 -0.51846482849E+03  0.51846482849E+03  0.00000000000E+00 0.  1.
         23    2    1    2    0    0 -0.58643049125E+02  0.83905219025E+02 -0.35949467165E+03  0.39416102061E+03  0.12508956086E+03 0.  0.
          5    1    3    3  502    0  0.11116750444E+02  0.46493960150E+02 -0.33141543868E+02  0.58318991768E+02  0.41800000000E+01 0. -1.
         -5    1    3    3    0  502 -0.69759799569E+02  0.37411258875E+02 -0.32635312778E+03  0.33584202884E+03  0.41800000000E+01 0. -1.
        -11    1    1    2    0    0  0.37981473742E+02 -0.20476400792E+02 -0.88673183536E+02  0.98614445267E+02  0.00000000000E+00 0. -1.
         11    1    1    2    0    0  0.20661575384E+02 -0.63428818233E+02 -0.24812182684E+02  0.71174153239E+02  0.00000000000E+00 0.  1.
</event>
<event>
 7    1  0.1243146E-005  0.1713783E+03  0.7561462E-02  0.1176418E+00
         -2   -1    0    0    0  501 -0.00000000000E+00  0.00000000000E+00  0.18485828197E+03  0.18485828197E+03  0.00000000000E+00 0.  1.
          2   -1    0    0  501    0  0.00000000000E+00 -0.00000000000E+00 -0.22412339139E+03  0.22412339139E+03  0.00000000000E+00 0. -1.
         23    2    1    2    0    0  0.14104554371E+03  0.65873081600E+02  0.54044331766E+02  0.20664736843E+03  0.12469657896E+03 0.  0.
          5    1    3    3  502    0  0.11512767296E+01  0.45423215196E+02 -0.16585462254E+02  0.48550426106E+02  0.41800000000E+01 0.  1.
         -5    1    3    3    0  502  0.13989426698E+03  0.20449866404E+02  0.70629794020E+02  0.15809694232E+03  0.41800000000E+01 0.  1.
        -11    1    1    2    0    0 -0.27807760727E+02 -0.12064482822E+02  0.17509064850E+02  0.35005580331E+02  0.00000000000E+00 0.  1.
         11    1    1    2    0    0 -0.11323778298E+03 -0.53808598778E+02 -0.11081850604E+03  0.16732872460E+03  0.00000000000E+00 0. -1.
</event>
<event>
 7    1  0.1243146E-005  0.1175427E+03  0.7561462E-02  0.1247207E+00
          2   -1    0    0  501    0  0.00000000000E+00  0.00000000000E+00  0.95648843821E+02  0.95648843821E+02  0.00000000000E+00 0. -1.
         -2   -1    0    0    0  501 -0.00000000000E+00 -0.00000000000E+00 -0.16532364654E+03  0.16532364654E+03  0.00000000000E+00 0.  1.
         23    2    1    2    0    0  0.30195024072E+01  0.60367060530E+02 -0.72015516715E+02  0.15648413722E+03  0.12509097155E+03 0.  0.
          5    1    3    3  502    0 -0.19163958154E+02  0.92491812449E+02 -0.30508337130E+02  0.99348999475E+02  0.41800000000E+01 0.  1.
         -5    1    3    3    0  502  0.22183460561E+02 -0.32124751919E+02 -0.41507179585E+02  0.57135137748E+02  0.41800000000E+01 0.  1.
        -11    1    1    2    0    0 -0.42039446856E+02 -0.35312101396E+02  0.14029494347E+02  0.56666447820E+02  0.00000000000E+00 0.  1.
         11    1    1    2    0    0  0.39019944449E+02 -0.25054959134E+02 -0.11688780348E+02  0.47821905315E+02  0.00000000000E+00 0. -1.
</event>
<event>
 7    1  0.1243146E-005  0.1175689E+03  0.7561462E-02  0.1247162E+00
         -2   -1    0    0    0  501 -0.00000000000E+00  0.00000000000E+00  0.46076036446E+02  0.46076036446E+02  0.00000000000E+00 0.  1.
          2   -1    0    0  501    0  0.00000000000E+00 -0.00000000000E+00 -0.46276776448E+03  0.46276776448E+03  0.00000000000E+00 0. -1.
         23    2    1    2    0    0  0.62123754678E+02  0.55212142006E+01 -0.94908827751E+02  0.16897263016E+03  0.12511682324E+03 0.  0.
          5    1    3    3  502    0 -0.33516742577E+02 -0.99348522013E+01 -0.52315556965E+02  0.63059204100E+02  0.41800000000E+01 0.  1.
         -5    1    3    3    0  502  0.95640497254E+02  0.15456066402E+02 -0.42593270786E+02  0.10591342606E+03  0.41800000000E+01 0.  1.
        -11    1    1    2    0    0 -0.25190034904E+02  0.38180004305E+02 -0.87878518898E+02  0.99070099783E+02  0.00000000000E+00 0.  1.
         11    1    1    2    0    0 -0.36933719773E+02 -0.43701218506E+02 -0.23390438138E+03  0.24080107098E+03  0.00000000000E+00 0. -1.
</event>
<event>
 7    1  0.1243146E-005  0.1417132E+03  0.7561462E-02  0.1211042E+00
          1   -1    0    0  501    0  0.00000000000E+00  0.00000000000E+00  0.75382607277E+02  0.75382607277E+02  0.00000000000E+00 0. -1.
         -1   -1    0    0    0  501 -0.00000000000E+00 -0.00000000000E+00 -0.41279398301E+03  0.41279398301E+03  0.00000000000E+00 0.  1.
         23    2    1    2    0    0  0.12958289743E+03 -0.35232348073E+02 -0.22732250200E+03  0.29215781390E+03  0.12509045786E+03 0.  0.
          5    1    3    3  502    0  0.92843239777E+02 -0.23350679844E+02 -0.45220023048E+02  0.10595963527E+03  0.41800000000E+01 0. -1.
         -5    1    3    3    0  502  0.36739657655E+02 -0.11881668229E+02 -0.18210247895E+03  0.18619817863E+03  0.41800000000E+01 0. -1.
        -11    1    1    2    0    0 -0.86213124074E+02  0.53758780763E+02 -0.35215930886E+02  0.10753079122E+03  0.00000000000E+00 0. -1.
         11    1    1    2    0    0 -0.43369773359E+02 -0.18526432690E+02 -0.74872942842E+02  0.88487985169E+02  0.00000000000E+00 0.  1.
</event>
<event>
 7    1  0.1243146E-005  0.1427941E+03  0.7561462E-02  0.1209618E+00
         -2   -1    0    0    0  501 -0.00000000000E+00  0.00000000000E+00  0.16116741116E+03  0.16116741116E+03  0.00000000000E+00 0.  1.
          2   -1    0    0  501    0  0.00000000000E+00 -0.00000000000E+00 -0.16029547331E+03  0.16029547331E+03  0.00000000000E+00 0. -1.
         23    2    1    2    0    0 -0.11271766289E+03  0.18824113289E+02  0.32017567521E+02  0.17243035491E+03  0.12508990325E+03 0.  0.
          5    1    3    3  502    0 -0.91874723198E+02  0.68881706162E+02  0.25023625276E+02  0.11759808004E+03  0.41800000000E+01 0. -1.
         -5    1    3    3    0  502 -0.20842939694E+02 -0.50057592873E+02  0.69939422456E+01  0.54832274871E+02  0.41800000000E+01 0. -1.
        -11    1    1    2    0    0  0.75253937272E+02 -0.22781771883E+02  0.24035323680E+02  0.82218373795E+02  0.00000000000E+00 0.  1.
         11    1    1    2    0    0  0.37463725620E+02  0.39576585943E+01 -0.55180953345E+02  0.66814155767E+02  0.00000000000E+00 0. -1.
</event>
<event>
 7    1  0.1243146E-005  0.7426378E+02  0.7561462E-02  0.1346166E+00
          1   -1    0    0  501    0  0.00000000000E+00  0.00000000000E+00  0.39443772307E+03  0.39443772307E+03  0.00000000000E+00 0. -1.
         -1   -1    0    0    0  501 -0.00000000000E+00 -0.00000000000E+00 -0.33529810964E+02  0.33529810964E+02  0.00000000000E+00 0.  1.
         23    2    1    2    0    0  0.25704412790E+02 -0.18523321850E+02  0.17532441110E+03  0.21768095756E+03  0.12507005983E+03 0.  0.
          5    1    3    3  502    0  0.47166245713E+02 -0.14729945153E+02  0.96407800343E+01  0.50517749935E+02  0.41800000000E+01 0. -1.
         -5    1    3    3    0  502 -0.21461832923E+02 -0.37933766967E+01  0.16568363107E+03  0.16716320762E+03  0.41800000000E+01 0. -1.
        -11    1    1    2    0    0  0.16815900605E+02  0.28481935088E+02  0.19150785491E+02  0.38219729519E+02  0.00000000000E+00 0.  1.
         11    1    1    2    0    0 -0.42520313395E+02 -0.99586132388E+01  0.16643271551E+03  0.17206684696E+03  0.00000000000E+00 0. -1.
</event>
<event>
 7    1  0.1243146E-005  0.9220751E+02  0.7561462E-02  0.1297592E+00
         -2   -1    0    0    0  501 -0.00000000000E+00  0.00000000000E+00  0.22386681131E+03  0.22386681131E+03  0.00000000000E+00 0.  1.
          2   -1    0    0  501    0  0.00000000000E+00 -0.00000000000E+00 -0.63402790112E+02  0.63402790112E+02  0.00000000000E+00 0. -1.
         23    2    1    2    0    0  0.73060427509E+01 -0.73935006833E+01  0.14846391501E+03  0.19441422018E+03  0.12508921950E+03 0.  0.
          5    1    3    3  502    0 -0.42925164509E+02 -0.17361688493E+02  0.13279335838E+03  0.14069664674E+03  0.41800000000E+01 0. -1.
         -5    1    3    3    0  502  0.50231207260E+02  0.99681878095E+01  0.15670556636E+02  0.53717573440E+02  0.41800000000E+01 0. -1.
        -11    1    1    2    0    0 -0.23574540110E+02 -0.34395118385E+02 -0.10036774104E+02  0.42889625139E+02  0.00000000000E+00 0.  1.
         11    1    1    2    0    0  0.16268497359E+02  0.41788619068E+02  0.22036880290E+02  0.49965756102E+02  0.00000000000E+00 0. -1.
</event>
<event>
 7    1  0.1243146E-005  0.1479610E+03  0.7561462E-02  0.1203001E+00
         -3   -1    0    0    0  501 -0.00000000000E+00  0.00000000000E+00  0.53359162972E+02  0.53359162972E+02  0.00000000000E+00 0.  1.
          3   -1    0    0  501    0  0.00000000000E+00 -0.00000000000E+00 -0.49138892182E+03  0.49138892182E+03  0.00000000000E+00 0. -1.
         23    2    1    2    0    0 -0.11218953718E+03 -0.28277607234E+02 -0.18241306249E+03  0.24961160673E+03  0.12508122771E+03 0.  0.
          5    1    3    3  502    0 -0.46964653710E+02  0.49612645962E+02 -0.66643751084E+02  0.95529865990E+02  0.41800000000E+01 0.  1.
         -5    1    3    3    0  502 -0.65224883474E+02 -0.77890253197E+02 -0.11576931141E+03  0.15408174074E+03  0.41800000000E+01 0.  1.
        -11    1    1    2    0    0  0.37499787458E+02  0.34361261857E+02 -0.33965407459E+02  0.61160275340E+02  0.00000000000E+00 0.  1.
         11    1    1    2    0    0  0.74689749726E+02 -0.60836546222E+01 -0.22165128890E+03  0.23397620272E+03  0.00000000000E+00 0. -1.
</event>
<event>
 7    1  0.1243146E-005  0.9765598E+02  0.7561462E-02  0.1285304E+00
          2   -1    0    0  501    0  0.00000000000E+00  0.00000000000E+00  0.27751534583E+03  0.27751534583E+03  0.00000000000E+00 0. -1.
         -2   -1    0    0    0  501 -0.00000000000E+00 -0.00000000000E+00 -0.57852465670E+02  0.57852465670E+02  0.00000000000E+00 0.  1.
         23    2    1    2    0    0  0.11610069155E+02  0.15332942577E+02  0.39702198719E+02  0.13264199165E+03  0.12509092906E+03 0.  0.
          5    1    3    3  502    0  0.61541350951E+02  0.99550018465E+01 -0.83180727575E+01  0.63032552487E+02  0.41800000000E+01 0. -1.
         -5    1    3    3    0  502 -0.49931281796E+02  0.53779407304E+01  0.48020271476E+02  0.69609439165E+02  0.41800000000E+01 0. -1.
        -11    1    1    2    0    0 -0.41971632542E+02  0.97097069692E+01  0.14064920009E+03  0.14709892533E+03  0.00000000000E+00 0. -1.
         11    1    1    2    0    0  0.30361563387E+02 -0.25042649546E+02  0.39311481351E+02  0.55626894517E+02  0.00000000000E+00 0.  1.
</event>
<event>
 7    1  0.1243146E-005  0.1674989E+03  0.7561462E-02  0.1180481E+00
         -3   -1    0    0    0  501 -0.00000000000E+00  0.00000000000E+00  0.67063068595E+03  0.67063068595E+03  0.00000000000E+00 0.  1.
          3   -1    0    0  501    0  0.00000000000E+00 -0.00000000000E+00 -0.46774954986E+02  0.46774954986E+02  0.00000000000E+00 0. -1.
         23    2    1    2    0    0 -0.12564042387E+03  0.56586723175E+02  0.37005006310E+03  0.41421187482E+03  0.12508738822E+03 0.  0.
          5    1    3    3  502    0 -0.40162712207E+01 -0.25629189847E+02  0.15644995167E+02  0.30581433592E+02  0.41800000000E+01 0.  1.
         -5    1    3    3    0  502 -0.12162415265E+03  0.82215913022E+02  0.35440506793E+03  0.38363044123E+03  0.41800000000E+01 0.  1.
        -11    1    1    2    0    0  0.34990923082E+02  0.22462959256E+02  0.97284826415E+02  0.10579833027E+03  0.00000000000E+00 0.  1.
         11    1    1    2    0    0  0.90649500788E+02 -0.79049682432E+02  0.15652084145E+03  0.19739543585E+03  0.00000000000E+00 0. -1.
</event>
<event>
 7    1  0.1243146E-005  0.9568702E+02  0.7561462E-02  0.1289636E+00
          2   -1    0    0  501    0  0.00000000000E+00  0.00000000000E+00  0.59410532661E+03  0.59410532661E+03  0.00000000000E+00 0. -1.
         -2   -1    0    0    0  501 -0.00000000000E+00 -0.00000000000E+00 -0.21829652195E+02  0.21829652195E+02  0.00000000000E+00 0.  1.
         23    2    1    2    0    0 -0.28747690725E+02  0.23990458792E+01  0.28967221465E+03  0.31684439476E+03  0.12509273923E+03 0.  0.
          5    1    3    3  502    0 -0.63758186534E+02 -0.11900493126E+02  0.76853344903E+02  0.10065106611E+03  0.41800000000E+01 0. -1.
         -5    1    3    3    0  502  0.35010495809E+02  0.14299539005E+02  0.21281886975E+03  0.21619332865E+03  0.41800000000E+01 0. -1.
        -11    1    1    2    0    0 -0.12696915285E+02 -0.33948426407E+02  0.18440471229E+03  0.18793298068E+03  0.00000000000E+00 0. -1.
         11    1    1    2    0    0  0.41444606010E+02  0.31549380528E+02  0.98198747471E+02  0.11115760336E+03  0.00000000000E+00 0.  1.
</event>
<event>
 7    1  0.1243146E-005  0.1971890E+03  0.7561462E-02  0.1152133E+00
          2   -1    0    0  501    0  0.00000000000E+00  0.00000000000E+00  0.46173816723E+02  0.46173816723E+02  0.00000000000E+00 0. -1.
         -2   -1    0    0    0  501 -0.00000000000E+00 -0.00000000000E+00 -0.92297066742E+03  0.92297066742E+03  0.00000000000E+00 0.  1.
         23    2    1    2    0    0 -0.51091166013E+02  0.16067736843E+03 -0.56806666968E+03  0.60562134631E+03  0.12509975995E+03 0.  0.
          5    1    3    3  502    0 -0.12728148433E+02 -0.18864101269E+02 -0.10394275757E+03  0.10648675659E+03  0.41800000000E+01 0. -1.
         -5    1    3    3    0  502 -0.38363017579E+02  0.17954146970E+03 -0.46412391211E+03  0.49913458972E+03  0.41800000000E+01 0. -1.
        -11    1    1    2    0    0  0.27783193286E+01 -0.13072526691E+03 -0.17706263066E+03  0.22010904034E+03  0.00000000000E+00 0. -1.
         11    1    1    2    0    0  0.48312846684E+02 -0.29952101521E+02 -0.13166755035E+03  0.14341409748E+03  0.00000000000E+00 0.  1.
</event>
<event>
 7    1  0.1243146E-005  0.1287364E+03  0.7561462E-02  0.1229343E+00
         -3   -1    0    0    0  501 -0.00000000000E+00  0.00000000000E+00  0.41717921681E+02  0.41717921681E+02  0.00000000000E+00 0.  1.
          3   -1    0    0  501    0  0.00000000000E+00 -0.00000000000E+00 -0.40205854248E+03  0.40205854248E+03  0.00000000000E+00 0. -1.
         23    2    1    2    0    0  0.39628696406E+01 -0.71742130505E+02 -0.18158269928E+03  0.23190872495E+03  0.12508693939E+03 0.  0.
          5    1    3    3  502    0  0.72806807719E+01 -0.10741244611E+03 -0.14367872826E+03  0.17958700188E+03  0.41800000000E+01 0. -1.
         -5    1    3    3    0  502 -0.33178111313E+01  0.35670315603E+02 -0.37903971019E+02  0.52321723069E+02  0.41800000000E+01 0. -1.
        -11    1    1    2    0    0 -0.45838668837E+02  0.31748067685E+02 -0.91138751682E+02  0.10684285386E+03  0.00000000000E+00 0.  1.
         11    1    1    2    0    0  0.41875799196E+02  0.39994062820E+02 -0.87619169840E+02  0.10502488535E+03  0.00000000000E+00 0. -1.
</event>
<event>
 7    1  0.1243146E-005  0.6340056E+02  0.7561462E-02  0.1384091E+00
         -1   -1    0    0    0  501 -0.00000000000E+00  0.00000000000E+00  0.18063388625E+03  0.18063388625E+03  0.00000000000E+00 0.  1.
          1   -1    0    0  501    0  0.00000000000E+00 -0.00000000000E+00 -0.71844414855E+02  0.71844414855E+02  0.00000000000E+00 0. -1.
         23    2    1    2    0    0 -0.39421441260E+02 -0.10236246581E+02  0.74834424278E+02  0.15134817441E+03  0.12508896060E+03 0.  0.
          5    1    3    3  502    0 -0.20155862705E+02 -0.18042037123E+02 -0.32183788585E+02  0.42249763935E+02  0.41800000000E+01 0.  1.
         -5    1    3    3    0  502 -0.19265578555E+02  0.78057905414E+01  0.10701821286E+03  0.10909841047E+03  0.41800000000E+01 0.  1.
        -11    1    1    2    0    0  0.57523569188E+02  0.19224094902E+00  0.48979125665E+02  0.75550994167E+02  0.00000000000E+00 0.  1.
         11    1    1    2    0    0 -0.18102127928E+02  0.10044005632E+02 -0.15024078549E+02  0.25579132529E+02  0.00000000000E+00 0. -1.
</event>
<event>
 7    1  0.1243146E-005  0.8231060E+02  0.7561462E-02  0.1322619E+00
         -1   -1    0    0    0  501 -0.00000000000E+00  0.00000000000E+00  0.38402687184E+02  0.38402687184E+02  0.00000000000E+00 0.  1.
          1   -1    0    0  501    0  0.00000000000E+00 -0.00000000000E+00 -0.39285558734E+03  0.39285558734E+03  0.00000000000E+00 0. -1.
         23    2    1    2    0    0  0.25787302903E+02  0.24989359916E+02 -0.11945545969E+03  0.17665463836E+03  0.12509117197E+03 0.  0.
          5    1    3    3  502    0 -0.23925000739E+02 -0.53434593831E+01 -0.11548731209E+03  0.11813445675E+03  0.41800000000E+01 0.  1.
         -5    1    3    3    0  502  0.49712303642E+02  0.30332819299E+02 -0.39681476027E+01  0.58520181608E+02  0.41800000000E+01 0.  1.
        -11    1    1    2    0    0 -0.29113222144E+02 -0.49070915821E+02 -0.21694777116E+03  0.22432536614E+03  0.00000000000E+00 0. -1.
         11    1    1    2    0    0  0.33259192412E+01  0.24081555905E+02 -0.18049669304E+02  0.30278270023E+02  0.00000000000E+00 0.  1.
</event>
<event>
 7    1  0.1243146E-005  0.1242330E+03  0.7561462E-02  0.1236273E+00
         -2   -1    0    0    0  501 -0.00000000000E+00  0.00000000000E+00  0.54275414088E+02  0.54275414088E+02  0.00000000000E+00 0.  1.
          2   -1    0    0  501    0  0.00000000000E+00 -0.00000000000E+00 -0.34403692399E+03  0.34403692399E+03  0.00000000000E+00 0. -1.
         23    2    1    2    0    0 -0.29164465989E+02  0.77825463276E+02 -0.15204540086E+03  0.21371191883E+03  0.12509041336E+03 0.  0.
          5    1    3    3  502    0  0.22919314563E+02 -0.18642285779E+02 -0.50074853852E+01  0.30255199701E+02  0.41800000000E+01 0. -1.
         -5    1    3    3    0  502 -0.52083780552E+02  0.96467749054E+02 -0.14703791548E+03  0.18345671912E+03  0.41800000000E+01 0. -1.
        -11    1    1    2    0    0  0.52632410203E+02 -0.51216228496E+02 -0.46994971456E+02  0.87188302009E+02  0.00000000000E+00 0.  1.
         11    1    1    2    0    0 -0.23467944214E+02 -0.26609234780E+02 -0.90721137586E+02  0.97412117245E+02  0.00000000000E+00 0. -1.
</event>
<event>
 7    1  0.1243146E-005  0.2335830E+03  0.7561462E-02  0.1124143E+00
          2   -1    0    0  501    0  0.00000000000E+00  0.00000000000E+00  0.40742236507E+03  0.40742236507E+03  0.00000000000E+00 0.  1.
         -2   -1    0    0    0  501 -0.00000000000E+00 -0.00000000000E+00 -0.18537525982E+03  0.18537525982E+03  0.00000000000E+00 0. -1.
         23    2    1    2    0    0 -0.21748916805E+03 -0.68303195358E+02 -0.42886857568E+00  0.26003176901E+03  0.12509785071E+03 0.  0.
          5    1    3    3  502    0 -0.33876570313E+02 -0.24754024113E+02  0.49266864427E+02  0.64846588626E+02  0.41800000000E+01 0.  1.
         -5    1    3    3    0  502 -0.18361259774E+03 -0.43549171246E+02 -0.49695733003E+02  0.19518518038E+03  0.41800000000E+01 0.  1.
        -11    1    1    2    0    0  0.18897473366E+03  0.34625177416E+02  0.21443544103E+03  0.28791129058E+03  0.00000000000E+00 0.  1.
         11    1    1    2    0    0  0.28514434393E+02  0.33678017943E+02  0.80405327967E+01  0.44854565308E+02  0.00000000000E+00 0. -1.
</event>
<event>
 7    1  0.1243146E-005  0.1151674E+03  0.7561462E-02  0.1251289E+00
          1   -1    0    0  501    0  0.00000000000E+00  0.00000000000E+00  0.16759853289E+03  0.16759853289E+03  0.00000000000E+00 0. -1.
         -1   -1    0    0    0  501 -0.00000000000E+00 -0.00000000000E+00 -0.11762416805E+03  0.11762416805E+03  0.00000000000E+00 0.  1.
         23    2    1    2    0    0 -0.74785444473E+02  0.44031861224E+02  0.10070678622E+02  0.15258297917E+03  0.12509388257E+03 0.  0.
          5    1    3    3  502    0  0.26193849210E+02 -0.59452362406E+01 -0.22432192476E+02  0.35243995654E+02  0.41800000000E+01 0.  1.
         -5    1    3    3    0  502 -0.10097929368E+03  0.49977097465E+02  0.32502871098E+02  0.11733898352E+03  0.41800000000E+01 0.  1.
        -11    1    1    2    0    0  0.48627258575E+02 -0.41847495518E+02  0.68480383444E+02  0.93837018678E+02  0.00000000000E+00 0. -1.
         11    1    1    2    0    0  0.26158185898E+02 -0.21843657057E+01 -0.28576697226E+02  0.38802703093E+02  0.00000000000E+00 0.  1.
</event>
<event>
 6    1  0.1243146E-005  0.1016597E+03  0.7561462E-02  0.1276844E+00
          1   -1    0    0  501    0  0.00000000000E+00  0.00000000000E+00  0.68509002741E+03  0.68509002741E+03  0.00000000000E+00 0. -1.
         -1   -1    0    0    0  501 -0.00000000000E+00 -0.00000000000E+00 -0.21609026611E+02  0.21609026611E+02  0.00000000000E+00 0.  1.
          5    1    1    2  502    0 -0.56244744682E+02  0.33112369262E+02  0.25883401287E+03  0.26696894749E+03  0.41800000000E+01 0. -1.
         -5    1    1    2    0  502  0.39409689918E+02 -0.47490560333E+02  0.73102594242E+02  0.95759796706E+02  0.41800000000E+01 0.  1.
        -11    1    1    2    0    0  0.23378184750E+02  0.41788340373E+02  0.28899647364E+03  0.29293645503E+03  0.00000000000E+00 0. -1.
         11    1    1    2    0    0 -0.65431299863E+01 -0.27410149303E+02  0.42547920046E+02  0.51033854793E+02  0.00000000000E+00 0.  1.
</event>
<event>
 7    1  0.1243146E-005  0.1311608E+03  0.7561462E-02  0.1225743E+00
          1   -1    0    0  501    0  0.00000000000E+00  0.00000000000E+00  0.20037921201E+02  0.20037921201E+02  0.00000000000E+00 0. -1.
         -1   -1    0    0    0  501 -0.00000000000E+00 -0.00000000000E+00 -0.98864921553E+03  0.98864921553E+03  0.00000000000E+00 0.  1.
         23    2    1    2    0    0 -0.84411457323E+02  0.29816267297E+01 -0.63704046005E+03  0.65467643394E+03  0.12508597520E+03 0.  0.
          5    1    3    3  502    0 -0.19023028778E+02  0.58981465865E+02 -0.32861234070E+03  0.33443120638E+03  0.41800000000E+01 0.  1.
         -5    1    3    3    0  502 -0.65388428545E+02 -0.55999839136E+02 -0.30842811935E+03  0.32024522756E+03  0.41800000000E+01 0.  1.
        -11    1    1    2    0    0 -0.68045909290E+01 -0.20087827641E+02 -0.20908823817E+02  0.29782581998E+02  0.00000000000E+00 0. -1.
         11    1    1    2    0    0  0.91216048252E+02  0.17106200911E+02 -0.31066201047E+03  0.32422812080E+03  0.00000000000E+00 0.  1.
</event>
<event>
 7    1  0.1243146E-005  0.9372776E+02  0.7561462E-02  0.1294067E+00
          1   -1    0    0  501    0  0.00000000000E+00  0.00000000000E+00  0.15171307240E+03  0.15171307240E+03  0.00000000000E+00 0. -1.
         -1   -1    0    0    0  501 -0.00000000000E+00 -0.00000000000E+00 -0.75315314024E+02  0.75315314024E+02  0.00000000000E+00 0.  1.
         23    2    1    2    0    0  0.14662044279E+02  0.33737852006E+02  0.61223889464E+02  0.14352622899E+03  0.12449174899E+03 0.  0.
          5    1    3    3  502    0  0.60737682448E+02  0.33865304585E+02  0.37808931168E+01  0.69768850331E+02  0.41800000000E+01 0. -1.
         -5    1    3    3    0  502 -0.46075638169E+02 -0.12745257989E+00  0.57442996347E+02  0.73757378656E+02  0.41800000000E+01 0.  1.
        -11    1    1    2    0    0  0.21278563563E+02  0.13164786356E+01  0.24458667125E+02  0.32445905456E+02  0.00000000000E+00 0. -1.
         11    1    1    2    0    0 -0.35940607842E+02 -0.35054330641E+02 -0.92847982114E+01  0.51056251983E+02  0.00000000000E+00 0.  1.
</event>
<event>
 7    1  0.1243146E-005  0.9724722E+02  0.7561462E-02  0.1286194E+00
         -3   -1    0    0    0  501 -0.00000000000E+00  0.00000000000E+00  0.90055837849E+03  0.90055837849E+03  0.00000000000E+00 0.  1.
          3   -1    0    0  501    0  0.00000000000E+00 -0.00000000000E+00 -0.13839179574E+02  0.13839179574E+02  0.00000000000E+00 0. -1.
         23    2    1    2    0    0 -0.13610678713E+02 -0.42190280582E+01  0.67670173543E+03  0.68831366738E+03  0.12508962869E+03 0.  0.
          5    1    3    3  502    0 -0.45564910113E+02 -0.50998026087E+02  0.40246525406E+03  0.40825569540E+03  0.41800000000E+01 0. -1.
         -5    1    3    3    0  502  0.31954231400E+02  0.46778998029E+02  0.27423648136E+03  0.28005797199E+03  0.41800000000E+01 0. -1.
        -11    1    1    2    0    0 -0.22305046989E+02 -0.16468290019E+02  0.15357554695E+03  0.15605822093E+03  0.00000000000E+00 0.  1.
         11    1    1    2    0    0  0.35915725702E+02  0.20687318077E+02  0.56441916538E+02  0.70025669753E+02  0.00000000000E+00 0. -1.
</event>
<event>
 7    1  0.1243146E-005  0.1012597E+03  0.7561462E-02  0.1277669E+00
          1   -1    0    0  501    0  0.00000000000E+00  0.00000000000E+00  0.22770130135E+03  0.22770130135E+03  0.00000000000E+00 0. -1.
         -1   -1    0    0    0  501 -0.00000000000E+00 -0.00000000000E+00 -0.83799262012E+02  0.83799262012E+02  0.00000000000E+00 0.  1.
         23    2    1    2    0    0  0.22440755847E+02  0.23942913873E+01 -0.13591876653E+02  0.12782453101E+03  0.12508018014E+03 0.  0.
          5    1    3    3  502    0 -0.43205741595E+02 -0.33502214874E+01  0.26121830366E+02  0.50771867333E+02  0.41800000000E+01 0. -1.
         -5    1    3    3    0  502  0.65646497442E+02  0.57445128747E+01 -0.39713707020E+02  0.77052663677E+02  0.41800000000E+01 0. -1.
        -11    1    1    2    0    0 -0.31056309048E+02  0.39463341713E+02  0.68318860194E+02  0.84789836237E+02  0.00000000000E+00 0.  1.
         11    1    1    2    0    0  0.86155532017E+01 -0.41857633100E+02  0.89175055793E+02  0.98886196111E+02  0.00000000000E+00 0. -1.
</event>
<event>
 7    1  0.1243146E-005  0.1087233E+03  0.7561462E-02  0.1262952E+00
          2   -1    0    0  501    0  0.00000000000E+00  0.00000000000E+00  0.14612882082E+03  0.14612882082E+03  0.00000000000E+00 0.  1.
         -2   -1    0    0    0  501 -0.00000000000E+00 -0.00000000000E+00 -0.90418199460E+02  0.90418199460E+02  0.00000000000E+00 0. -1.
         23    2    1    2    0    0  0.22391617569E+02 -0.34847239966E+02  0.23373314467E+02  0.13380576804E+03  0.12506780985E+03 0.  0.
          5    1    3    3  502    0 -0.42312401975E+02 -0.35027003272E+02  0.38521524367E+02  0.67220611115E+02  0.41800000000E+01 0. -1.
         -5    1    3    3    0  502  0.64704019544E+02  0.17976330592E+00 -0.15148209900E+02  0.66585156928E+02  0.41800000000E+01 0. -1.
        -11    1    1    2    0    0  0.95020098131E+01 -0.26622924767E+02  0.94565013278E+01  0.29807611964E+02  0.00000000000E+00 0.  1.
         11    1    1    2    0    0 -0.31893627382E+02  0.61470164732E+02  0.22880805561E+02  0.72933640269E+02  0.00000000000E+00 0. -1.
</event>
<event>
 7    1  0.1243146E-005  0.1745182E+03  0.7561462E-02  0.1173216E+00
          2   -1    0    0  501    0  0.00000000000E+00  0.00000000000E+00  0.33150404840E+03  0.33150404840E+03  0.00000000000E+00 0. -1.
         -2   -1    0    0    0  501 -0.00000000000E+00 -0.00000000000E+00 -0.15478733446E+03  0.15478733446E+03  0.00000000000E+00 0.  1.
         23    2    1    2    0    0  0.27056918682E+02 -0.14941007276E+03 -0.45500732310E+02  0.20192478879E+03  0.12509139457E+03 0.  0.
          5    1    3    3  502    0 -0.40743909667E+02 -0.66522513894E+02  0.13974244915E+02  0.79360336130E+02  0.41800000000E+01 0. -1.
         -5    1    3    3    0  502  0.67800828349E+02 -0.82887558866E+02 -0.59474977225E+02  0.12256445266E+03  0.41800000000E+01 0. -1.
        -11    1    1    2    0    0  0.19766538176E+02  0.53106584215E+02  0.29470409246E+02  0.63871201176E+02  0.00000000000E+00 0. -1.
         11    1    1    2    0    0 -0.46823456859E+02  0.96303488545E+02  0.19274703700E+03  0.22049539290E+03  0.00000000000E+00 0.  1.
</event>
<event>
 7    1  0.1243146E-005  0.8910592E+02  0.7561462E-02  0.1305031E+00
          1   -1    0    0  501    0  0.00000000000E+00  0.00000000000E+00  0.47143941596E+02  0.47143941596E+02  0.00000000000E+00 0. -1.
         -1   -1    0    0    0  501 -0.00000000000E+00 -0.00000000000E+00 -0.28189705657E+03  0.28189705657E+03  0.00000000000E+00 0.  1.
         23    2    1    2    0    0  0.57892755417E+01 -0.42981782001E+02 -0.15981668443E+03  0.20752923575E+03  0.12508421873E+03 0.  0.
          5    1    3    3  502    0 -0.13999940465E+02  0.28520215729E+02 -0.11797823853E+03  0.12225276359E+03  0.41800000000E+01 0.  1.
         -5    1    3    3    0  502  0.19789216007E+02 -0.71501997731E+02 -0.41838445893E+02  0.85276472162E+02  0.41800000000E+01 0.  1.
        -11    1    1    2    0    0  0.84613781552E+01 -0.12211234912E+02 -0.61063640609E+02  0.62844867593E+02  0.00000000000E+00 0.  1.
         11    1    1    2    0    0 -0.14250653697E+02  0.55193016914E+02 -0.13872789935E+02  0.58666894816E+02  0.00000000000E+00 0. -1.
</event>
<event>
 7    1  0.1243146E-005  0.1438502E+03  0.7561462E-02  0.1208240E+00
         -1   -1    0    0    0  501 -0.00000000000E+00  0.00000000000E+00  0.17467904424E+03  0.17467904424E+03  0.00000000000E+00 0.  1.
          1   -1    0    0  501    0  0.00000000000E+00 -0.00000000000E+00 -0.20049377676E+03  0.20049377676E+03  0.00000000000E+00 0. -1.
         23    2    1    2    0    0  0.56932706932E+02  0.12077203768E+03  0.56820359902E+02  0.19157921977E+03  0.12508727330E+03 0.  0.
          5    1    3    3  502    0  0.42832602672E+02  0.12991558401E+03  0.83096388717E+02  0.16010987802E+03  0.41800000000E+01 0.  1.
         -5    1    3    3    0  502  0.14100104260E+02 -0.91435463346E+01 -0.26276028815E+02  0.31469341747E+02  0.41800000000E+01 0.  1.
        -11    1    1    2    0    0 -0.36706385174E+02 -0.79301195247E+02  0.17676948051E+01  0.87402305605E+02  0.00000000000E+00 0.  1.
         11    1    1    2    0    0 -0.20226321758E+02 -0.41470842433E+02 -0.84402787230E+02  0.96191295636E+02  0.00000000000E+00 0. -1.
</event>
<event>
 7    1  0.1243146E-005  0.8610048E+02  0.7561462E-02  0.1312579E+00
          2   -1    0    0  501    0  0.00000000000E+00  0.00000000000E+00  0.14014845924E+03  0.14014845924E+03  0.00000000000E+00 0. -1.
         -2   -1    0    0    0  501 -0.00000000000E+00 -0.00000000000E+00 -0.10117779356E+03  0.10117779356E+03  0.00000000000E+00 0.  1.
         23    2    1    2    0    0  0.23272098954E+02  0.64458912227E+01 -0.21434878246E+02  0.12919175458E+03  0.12509162778E+03 0.  0.
          5    1    3    3  502    0 -0.37896634278E+02 -0.31359213683E+02 -0.28186058369E+02  0.56846120877E+02  0.41800000000E+01 0.  1.
         -5    1    3    3    0  502  0.61168733232E+02  0.37805104905E+02  0.67511801231E+01  0.72345633698E+02  0.41800000000E+01 0.  1.
        -11    1    1    2    0    0 -0.35460022355E+02  0.27062532084E+01 -0.12467027113E+02  0.37685060128E+02  0.00000000000E+00 0.  1.
         11    1    1    2    0    0  0.12187923401E+02 -0.91521444312E+01  0.72872571031E+02  0.74449438099E+02  0.00000000000E+00 0. -1.
</event>
<event>
 7    1  0.1243146E-005  0.1377726E+03  0.7561462E-02  0.1216358E+00
          2   -1    0    0  501    0  0.00000000000E+00  0.00000000000E+00  0.11566600630E+04  0.11566600630E+04  0.00000000000E+00 0.  1.
         -2   -1    0    0    0  501 -0.00000000000E+00 -0.00000000000E+00 -0.17456941168E+02  0.17456941168E+02  0.00000000000E+00 0. -1.
         23    2    1    2    0    0  0.84281205855E+02 -0.17430322273E+02  0.48770910839E+03  0.51078353243E+03  0.12503001563E+03 0.  0.
          5    1    3    3  502    0 -0.32559219946E+02 -0.26511746948E+01  0.83975125020E+02  0.90202137186E+02  0.41800000000E+01 0. -1.
         -5    1    3    3    0  502  0.11684042580E+03 -0.14779147578E+02  0.40373398337E+03  0.42058139525E+03  0.41800000000E+01 0. -1.
        -11    1    1    2    0    0 -0.86221955704E+02 -0.18994876507E+02  0.45992192286E+03  0.46831955555E+03  0.00000000000E+00 0. -1.
         11    1    1    2    0    0  0.19407498487E+01  0.36425198780E+02  0.19157209062E+03  0.19501391622E+03  0.00000000000E+00 0.  1.
</event>
<event>
 7    1  0.1243146E-005  0.8693930E+02  0.7561462E-02  0.1310438E+00
         -1   -1    0    0    0  501 -0.00000000000E+00  0.00000000000E+00  0.13694330610E+03  0.13694330610E+03  0.00000000000E+00 0.  1.
          1   -1    0    0  501    0  0.00000000000E+00 -0.00000000000E+00 -0.92129989679E+02  0.92129989679E+02  0.00000000000E+00 0. -1.
         23    2    1    2    0    0 -0.39597008276E+01  0.22750628610E+02  0.39962961399E+02  0.13333231800E+03  0.12508876212E+03 0.  0.
          5    1    3    3  502    0  0.55354882709E+02  0.24079290218E+01 -0.53985074639E+01  0.55826314984E+02  0.41800000000E+01 0. -1.
         -5    1    3    3    0  502 -0.59314583536E+02  0.20342699588E+02  0.45361468863E+02  0.77506003020E+02  0.41800000000E+01 0. -1.
        -11    1    1    2    0    0  0.24439912586E+02  0.55094364840E+00 -0.36571675621E+02  0.43989775219E+02  0.00000000000E+00 0. -1.
         11    1    1    2    0    0 -0.20480211758E+02 -0.23301572258E+02  0.41422030642E+02  0.51751202555E+02  0.00000000000E+00 0.  1.
</event>
<event>
 7    1  0.1243146E-005  0.1380780E+03  0.7561462E-02  0.1215939E+00
         -1   -1    0    0    0  501 -0.00000000000E+00  0.00000000000E+00  0.28990593940E+02  0.28990593940E+02  0.00000000000E+00 0.  1.
          1   -1    0    0  501    0  0.00000000000E+00 -0.00000000000E+00 -0.71188147554E+03  0.71188147554E+03  0.00000000000E+00 0. -1.
         23    2    1    2    0    0  0.91536313847E+02 -0.16772456112E+02 -0.34110422684E+03  0.37504325194E+03  0.12508051497E+03 0.  0.
          5    1    3    3  502    0  0.10350363683E+03 -0.46952544671E+02 -0.19890432506E+03  0.22912430516E+03  0.41800000000E+01 0.  1.
         -5    1    3    3    0  502 -0.11967322982E+02  0.30180088558E+02 -0.14219990178E+03  0.14591894679E+03  0.41800000000E+01 0.  1.
        -11    1    1    2    0    0 -0.76551554730E+02 -0.28743813098E+02 -0.19616605572E+03  0.21252639540E+03  0.00000000000E+00 0. -1.
         11    1    1    2    0    0 -0.14984759117E+02  0.45516269211E+02 -0.14562059905E+03  0.15330242214E+03  0.00000000000E+00 0.  1.
</event>
<event>
 7    1  0.1243146E-005  0.1249176E+03  0.7561462E-02  0.1235198E+00
          2   -1    0    0  501    0  0.00000000000E+00  0.00000000000E+00  0.56968573243E+03  0.56968573243E+03  0.00000000000E+00 0.  1.
         -2   -1    0    0    0  501 -0.00000000000E+00 -0.00000000000E+00 -0.28565701147E+02  0.28565701147E+02  0.00000000000E+00 0. -1.
         23    2    1    2    0    0 -0.41080074773E+02 -0.50333201250E+02  0.33459059682E+03  0.36307039103E+03  0.12509291614E+03 0.  0.
          5    1    3    3  502    0 -0.73370156101E+02 -0.69940077500E+02  0.26537963118E+03  0.28411021680E+03  0.41800000000E+01 0. -1.
         -5    1    3    3    0  502  0.32290081329E+02  0.19606876250E+02  0.69210965641E+02  0.78960174223E+02  0.41800000000E+01 0. -1.
        -11    1    1    2    0    0 -0.69862536867E+01  0.60787027358E+02  0.91475793252E+02  0.11005312893E+03  0.00000000000E+00 0. -1.
         11    1    1    2    0    0  0.48066328459E+02 -0.10453826108E+02  0.11505364122E+03  0.12512791363E+03  0.00000000000E+00 0.  1.
</event>
<event>
 7    1  0.1243146E-005  0.1254224E+03  0.7561462E-02  0.1234411E+00
         -2   -1    0    0    0  501 -0.00000000000E+00  0.00000000000E+00  0.35794274938E+03  0.35794274938E+03  0.00000000000E+00 0.  1.
          2   -1    0    0  501    0  0.00000000000E+00 -0.00000000000E+00 -0.59923008285E+02  0.59923008285E+02  0.00000000000E+00 0. -1.
         23    2    1    2    0    0 -0.11524133002E+02  0.98603583550E+02  0.15036354892E+03  0.21934554932E+03  0.12509117007E+03 0.  0.
          5    1    3    3  502    0 -0.38842784608E+02  0.59432426642E+02  0.11001409045E+02  0.71968594912E+02  0.41800000000E+01 0. -1.
         -5    1    3    3    0  502  0.27318651605E+02  0.39171156908E+02  0.13936213987E+03  0.14737695440E+03  0.41800000000E+01 0. -1.
        -11    1    1    2    0    0  0.43422757348E+02 -0.88065025565E+02  0.99371905505E+02  0.13969881956E+03  0.00000000000E+00 0.  1.
         11    1    1    2    0    0 -0.31898624345E+02 -0.10538557985E+02  0.48284286673E+02  0.58821388789E+02  0.00000000000E+00 0. -1.
</event>
<event>
 7    1  0.1243146E-005  0.9550171E+02  0.7561462E-02  0.1290050E+00
         -1   -1    0    0    0  501 -0.00000000000E+00  0.00000000000E+00  0.21183794342E+03  0.21183794342E+03  0.00000000000E+00 0.  1.
          1   -1    0    0  501    0  0.00000000000E+00 -0.00000000000E+00 -0.79480241369E+02  0.79480241369E+02  0.00000000000E+00 0. -1.
         23    2    1    2    0    0 -0.32489868829E+02  0.43680746985E+02  0.12657045998E+03  0.18609121413E+03  0.12508500871E+03 0.  0.
          5    1    3    3  502    0  0.42075015987E+02  0.36805596779E+02  0.29262109994E+02  0.63235293989E+02  0.41800000000E+01 0. -1.
         -5    1    3    3    0  502 -0.74564884816E+02  0.68751502055E+01  0.97308349981E+02  0.12285592014E+03  0.41800000000E+01 0. -1.
        -11    1    1    2    0    0  0.91828243010E+01 -0.33103302322E+02 -0.40027202126E+02  0.52747794236E+02  0.00000000000E+00 0. -1.
         11    1    1    2    0    0  0.23307044528E+02 -0.10577444663E+02  0.45814444197E+02  0.52479176416E+02  0.00000000000E+00 0.  1.
</event>
<event>
 6    1  0.1243146E-005  0.1430721E+03  0.7561462E-02  0.1209254E+00
         -1   -1    0    0    0  501 -0.00000000000E+00  0.00000000000E+00  0.78456150112E+02  0.78456150112E+02  0.00000000000E+00 0.  1.
          1   -1    0    0  501    0  0.00000000000E+00 -0.00000000000E+00 -0.42879193364E+03  0.42879193364E+03  0.00000000000E+00 0. -1.
          5    1    1    2  502    0 -0.45114397070E+02  0.92640808359E+02 -0.10665980238E+03  0.14836244148E+03  0.41800000000E+01 0. -1.
         -5    1    1    2    0  502  0.42308854729E+02 -0.74998701603E+02  0.86435376321E+01  0.86643104592E+02  0.41800000000E+01 0.  1.
        -11    1    1    2    0    0 -0.81611378554E+01 -0.56164117650E+02 -0.18883468661E+03  0.19717898252E+03  0.00000000000E+00 0. -1.
         11    1    1    2    0    0  0.10966680196E+02  0.38522010894E+02 -0.63484832166E+02  0.75063555159E+02  0.00000000000E+00 0.  1.
</event>
<event>
 7    1  0.1243146E-005  0.1339827E+03  0.7561462E-02  0.1221663E+00
         -2   -1    0    0    0  501 -0.00000000000E+00  0.00000000000E+00  0.28546246538E+02  0.28546246538E+02  0.00000000000E+00 0.  1.
          2   -1    0    0  501    0  0.00000000000E+00 -0.00000000000E+00 -0.64029935566E+03  0.64029935566E+03  0.00000000000E+00 0. -1.
         23    2    1    2    0    0 -0.24249044885E+02 -0.75990394701E+02 -0.35116415246E+03  0.38121675848E+03  0.12508956275E+03 0.  0.
          5    1    3    3  502    0  0.50807002841E+02 -0.26812077483E+02 -0.11689652082E+03  0.13031695214E+03  0.41800000000E+01 0. -1.
         -5    1    3    3    0  502 -0.75056047726E+02 -0.49178317218E+02 -0.23426763165E+03  0.25089980634E+03  0.41800000000E+01 0. -1.
        -11    1    1    2    0    0 -0.34151852031E+02  0.19716030837E+02 -0.10520678526E+03  0.11235452165E+03  0.00000000000E+00 0.  1.
         11    1    1    2    0    0  0.58400896916E+02  0.56274363864E+02 -0.15538217140E+03  0.17527432207E+03  0.00000000000E+00 0. -1.
</event>
<event>
 7    1  0.1243146E-005  0.1003521E+03  0.7561462E-02  0.1279557E+00
          4   -1    0    0  501    0  0.00000000000E+00  0.00000000000E+00  0.87224762874E+02  0.87224762874E+02  0.00000000000E+00 0.  1.
         -4   -1    0    0    0  501 -0.00000000000E+00 -0.00000000000E+00 -0.32705489026E+03  0.32705489026E+03  0.00000000000E+00 0. -1.
         23    2    1    2    0    0 -0.73973283365E+02 -0.43803332232E+02 -0.24633606382E+03  0.28934425877E+03  0.12509142729E+03 0.  0.
          5    1    3    3  502    0 -0.72249774006E+02 -0.46402265993E+02 -0.64604708496E+02  0.10753809043E+03  0.41800000000E+01 0.  1.
         -5    1    3    3    0  502 -0.17235093594E+01  0.25989337607E+01 -0.18173135532E+03  0.18180616835E+03  0.41800000000E+01 0.  1.
        -11    1    1    2    0    0  0.66630962766E+02  0.15660694967E+01 -0.25577555640E+02  0.71388718474E+02  0.00000000000E+00 0. -1.
         11    1    1    2    0    0  0.73423205990E+01  0.42237262736E+02  0.32083492070E+02  0.53546675887E+02  0.00000000000E+00 0.  1.
</event>
<event>
 6    1  0.1243146E-005  0.2978807E+03  0.7561462E-02  0.1086305E+00
         -1   -1    0    0    0  501 -0.00000000000E+00  0.00000000000E+00  0.86105847185E+02  0.86105847185E+02  0.00000000000E+00 0.  1.
          1   -1    0    0  501    0  0.00000000000E+00 -0.00000000000E+00 -0.12722857886E+04  0.12722857886E+04  0.00000000000E+00 0. -1.
          5    1    1    2  502    0  0.69789650660E+02 -0.15043871220E+03 -0.25024779942E+03  0.30023962926E+03  0.41800000000E+01 0. -1.
         -5    1    1    2    0  502  0.15911259635E+03  0.62047414926E+02 -0.14173364482E+03  0.22197431944E+03  0.41800000000E+01 0.  1.
        -11    1    1    2    0    0 -0.58891131663E+02  0.64523361456E+02 -0.32579214951E+03  0.33730098464E+03  0.00000000000E+00 0.  1.
         11    1    1    2    0    0 -0.17001111535E+03  0.23867935814E+02 -0.46840634771E+03  0.49887670248E+03  0.00000000000E+00 0. -1.
</event>
<event>
 7    1  0.1243146E-005  0.8147762E+02  0.7561462E-02  0.1324910E+00
          2   -1    0    0  501    0  0.00000000000E+00  0.00000000000E+00  0.56563780732E+03  0.56563780732E+03  0.00000000000E+00 0. -1.
         -2   -1    0    0    0  501 -0.00000000000E+00 -0.00000000000E+00 -0.24108322933E+02  0.24108322933E+02  0.00000000000E+00 0.  1.
         23    2    1    2    0    0  0.96423746728E+01  0.14027688625E+02  0.20482399374E+03  0.24060302581E+03  0.12508875321E+03 0.  0.
          5    1    3    3  502    0  0.36765251972E+02 -0.48111102691E+01  0.45596565609E+01  0.37591134627E+02  0.41800000000E+01 0. -1.
         -5    1    3    3    0  502 -0.27122877299E+02  0.18838798894E+02  0.20026433718E+03  0.20301189118E+03  0.41800000000E+01 0. -1.
        -11    1    1    2    0    0 -0.38450699577E+02 -0.38605188418E+02  0.20043873826E+03  0.20771255298E+03  0.00000000000E+00 0. -1.
         11    1    1    2    0    0  0.28808324904E+02  0.24577499793E+02  0.13626675239E+03  0.14143055146E+03  0.00000000000E+00 0.  1.
</event>
<event>
 7    1  0.1243146E-005  0.2251896E+03  0.7561462E-02  0.1130072E+00
          2   -1    0    0  501    0  0.00000000000E+00  0.00000000000E+00  0.76324526827E+03  0.76324526827E+03  0.00000000000E+00 0. -1.
         -2   -1    0    0    0  501 -0.00000000000E+00 -0.00000000000E+00 -0.70226002579E+02  0.70226002579E+02  0.00000000000E+00 0.  1.
         23    2    1    2    0    0  0.19207675500E+03 -0.69619697349E+02  0.38332105437E+03  0.45202076474E+03  0.12508940389E+03 0.  0.
          5    1    3    3  502    0 -0.76333586152E+01  0.13019866190E+02  0.67559393490E+02  0.69350768764E+02  0.41800000000E+01 0. -1.
         -5    1    3    3    0  502  0.19971011362E+03 -0.82639563540E+02  0.31576166088E+03  0.38266999598E+03  0.41800000000E+01 0. -1.
        -11    1    1    2    0    0 -0.11352493981E+02  0.31990413855E+02  0.25063840954E+02  0.42195518975E+02  0.00000000000E+00 0.  1.
         11    1    1    2    0    0 -0.18072426102E+03  0.37629283495E+02  0.28463437037E+03  0.33925498713E+03  0.00000000000E+00 0. -1.
</event>
<event>
 7    1  0.1243146E-005  0.1399930E+03  0.7561462E-02  0.1213338E+00
         -2   -1    0    0    0  501 -0.00000000000E+00  0.00000000000E+00  0.43017922323E+03  0.43017922323E+03  0.00000000000E+00 0.  1.
          2   -1    0    0  501    0  0.00000000000E+00 -0.00000000000E+00 -0.57999628650E+02  0.57999628650E+02  0.00000000000E+00 0. -1.
         23    2    1    2    0    0  0.10635175889E+03 -0.42544128600E+02  0.21344043299E+03  0.27262839423E+03  0.12509485765E+03 0.  0.
          5    1    3    3  502    0  0.11241283930E+03  0.40870411029E+01  0.18768041686E+03  0.21884871857E+03  0.41800000000E+01 0.  1.
         -5    1    3    3    0  502 -0.60610804149E+01 -0.46631169703E+02  0.25760016128E+02  0.53779675665E+02  0.41800000000E+01 0.  1.
        -11    1    1    2    0    0 -0.16084523622E+01  0.10578346360E+02 -0.98312126133E+01  0.14530701021E+02  0.00000000000E+00 0. -1.
         11    1    1    2    0    0 -0.10474330652E+03  0.31965782240E+02  0.16857037420E+03  0.20101975662E+03  0.00000000000E+00 0.  1.
</event>
<event>
 7    1  0.1243146E-005  0.1749061E+03  0.7561462E-02  0.1172826E+00
          1   -1    0    0  501    0  0.00000000000E+00  0.00000000000E+00  0.20606976602E+03  0.20606976602E+03  0.00000000000E+00 0.  1.
         -1   -1    0    0    0  501 -0.00000000000E+00 -0.00000000000E+00 -0.18523781521E+03  0.18523781521E+03  0.00000000000E+00 0. -1.
         23    2    1    2    0    0  0.11747333651E+03 -0.90036346961E+02 -0.55211530361E+02  0.20149789869E+03  0.12508621638E+03 0.  0.
          5    1    3    3  502    0  0.56982610360E+02  0.26041730245E+02 -0.16108673254E+02  0.64824002897E+02  0.41800000000E+01 0.  1.
         -5    1    3    3    0  502  0.60490726152E+02 -0.11607807721E+03 -0.39102857107E+02  0.13667389580E+03  0.41800000000E+01 0.  1.
        -11    1    1    2    0    0 -0.15160235133E+02  0.38756481739E+02  0.61766068658E+02  0.74477814438E+02  0.00000000000E+00 0.  1.
         11    1    1    2    0    0 -0.10231310138E+03  0.51279865223E+02  0.14277412506E+02  0.11533186810E+03  0.00000000000E+00 0. -1.
</event>
<event>
 7    1  0.1243146E-005  0.8284448E+02  0.7561462E-02  0.1321168E+00
         -2   -1    0    0    0  501 -0.00000000000E+00  0.00000000000E+00  0.48869759132E+03  0.48869759132E+03  0.00000000000E+00 0.  1.
          2   -1    0    0  501    0  0.00000000000E+00 -0.00000000000E+00 -0.33534124984E+02  0.33534124984E+02  0.00000000000E+00 0. -1.
         23    2    1    2    0    0 -0.26343214331E+01  0.12082792898E+01  0.39775078109E+03  0.41696735008E+03  0.12509071744E+03 0.  0.
          5    1    3    3  502    0  0.13930557151E+02  0.36356556236E+02  0.36165266010E+03  0.36376637910E+03  0.41800000000E+01 0.  1.
         -5    1    3    3    0  502 -0.16564878584E+02 -0.35148276946E+02  0.36098120987E+02  0.53200970983E+02  0.41800000000E+01 0.  1.
        -11    1    1    2    0    0 -0.39601557373E+02  0.14808933579E+02  0.20802734860E+02  0.47120501247E+02  0.00000000000E+00 0. -1.
         11    1    1    2    0    0  0.42235878806E+02 -0.16017212869E+02  0.36609950381E+02  0.58143864969E+02  0.00000000000E+00 0.  1.
</event>
<event>
 7    1  0.1243146E-005  0.1359699E+03  0.7561462E-02  0.1218857E+00
         -3   -1    0    0    0  501 -0.00000000000E+00  0.00000000000E+00  0.97859020710E+03  0.97859020710E+03  0.00000000000E+00 0.  1.
          3   -1    0    0  501    0  0.00000000000E+00 -0.00000000000E+00 -0.20521433712E+02  0.20521433712E+02  0.00000000000E+00 0. -1.
         23    2    1    2    0    0  0.35146053428E+02  0.83289907815E+02  0.52056878241E+03  0.54296539338E+03  0.12508839823E+03 0.  0.
          5    1    3    3  502    0 -0.99352956925E+01 -0.29063751937E+02  0.14756412579E+03  0.15078479829E+03  0.41800000000E+01 0.  1.
         -5    1    3    3    0  502  0.45081349121E+02  0.11235365975E+03  0.37300465662E+03  0.39218059509E+03  0.41800000000E+01 0.  1.
        -11    1    1    2    0    0  0.18910851019E+02 -0.56294961771E+02  0.30201748115E+03  0.30780075037E+03  0.00000000000E+00 0.  1.
         11    1    1    2    0    0 -0.54056904448E+02 -0.26994946044E+02  0.13548250982E+03  0.14834549706E+03  0.00000000000E+00 0. -1.
</event>
<event>
 7    1  0.1243146E-005  0.1636662E+03  0.7561462E-02  0.1184619E+00
          1   -1    0    0  501    0  0.00000000000E+00  0.00000000000E+00  0.56352895769E+02  0.56352895769E+02  0.00000000000E+00 0. -1.
         -1   -1    0    0    0  501 -0.00000000000E+00 -0.00000000000E+00 -0.59774769409E+03  0.59774769409E+03  0.00000000000E+00 0.  1.
         23    2    1    2    0    0 -0.14746959118E+02  0.13946552297E+03 -0.36254842771E+03  0.40835930508E+03  0.12509138545E+03 0.  0.
          5    1    3    3  502    0 -0.28430426315E+02  0.10077893811E+02 -0.18887852439E+03  0.19131759579E+03  0.41800000000E+01 0. -1.
         -5    1    3    3    0  502  0.13683467198E+02  0.12938762915E+03 -0.17366990332E+03  0.21704170929E+03  0.41800000000E+01 0. -1.
        -11    1    1    2    0    0 -0.38198466202E+02 -0.53364407623E+02 -0.53177411000E+02  0.84467270950E+02  0.00000000000E+00 0. -1.
         11    1    1    2    0    0  0.52945425320E+02 -0.86101115343E+02 -0.12566895961E+03  0.16127401383E+03  0.00000000000E+00 0.  1.
</event>
<event>
 7    1  0.1243146E-005  0.1107684E+03  0.7561462E-02  0.1259153E+00
         -2   -1    0    0    0  501 -0.00000000000E+00  0.00000000000E+00  0.32960438982E+02  0.32960438982E+02  0.00000000000E+00 0. -1.
          2   -1    0    0  501    0  0.00000000000E+00 -0.00000000000E+00 -0.46605529174E+03  0.46605529174E+03  0.00000000000E+00 0.  1.
         23    2    1    2    0    0 -0.29392057225E+02 -0.58225376769E+02 -0.23092954666E+03  0.27061161309E+03  0.12509237423E+03 0.  0.
          5    1    3    3  502    0 -0.22147850970E+02  0.25529559471E+02 -0.15009830849E+03  0.15391315838E+03  0.41800000000E+01 0. -1.
         -5    1    3    3    0  502 -0.72442062547E+01 -0.83754936240E+02 -0.80831238170E+02  0.11669845472E+03  0.41800000000E+01 0. -1.
        -11    1    1    2    0    0  0.51211259944E+02  0.12604006206E+02 -0.12993523979E+03  0.14023059815E+03  0.00000000000E+00 0.  1.
         11    1    1    2    0    0 -0.21819202719E+02  0.45621370563E+02 -0.72230066305E+02  0.88173519481E+02  0.00000000000E+00 0. -1.
</event>
<event>
 6    1  0.1243146E-005  0.1301410E+03  0.7561462E-02  0.1227247E+00
          2   -1    0    0  501    0  0.00000000000E+00  0.00000000000E+00  0.14048673732E+03  0.14048673732E+03  0.00000000000E+00 0. -1.
         -2   -1    0    0    0  501 -0.00000000000E+00 -0.00000000000E+00 -0.17152734791E+03  0.17152734791E+03  0.00000000000E+00 0.  1.
          5    1    1    2  502    0 -0.31137466633E+02 -0.50895651005E+02  0.36629705195E+02  0.70136415807E+02  0.41800000000E+01 0. -1.
         -5    1    1    2    0  502 -0.72833846937E+02  0.22295733191E+02 -0.66111603647E+02  0.10094595344E+03  0.41800000000E+01 0.  1.
        -11    1    1    2    0    0  0.53270378472E+02  0.46203829902E+02 -0.33930389453E+02  0.78254702405E+02  0.00000000000E+00 0.  1.
         11    1    1    2    0    0  0.50700935099E+02 -0.17603912087E+02  0.32371677314E+02  0.62677013592E+02  0.00000000000E+00 0. -1.
</event>
<event>
 7    1  0.1243146E-005  0.9888186E+02  0.7561462E-02  0.1282665E+00
         -1   -1    0    0    0  501 -0.00000000000E+00  0.00000000000E+00  0.23049269248E+02  0.23049269248E+02  0.00000000000E+00 0.  1.
          1   -1    0    0  501    0  0.00000000000E+00 -0.00000000000E+00 -0.59929801932E+03  0.59929801932E+03  0.00000000000E+00 0. -1.
         23    2    1    2    0    0  0.19629366937E+01  0.35978860833E+02 -0.22659522256E+03  0.26132624373E+03  0.12509068401E+03 0.  0.
          5    1    3    3  502    0 -0.43483675322E+02 -0.10341706457E+02 -0.16766100430E+03  0.17356689107E+03  0.41800000000E+01 0.  1.
         -5    1    3    3    0  502  0.45446612016E+02  0.46320567290E+02 -0.58934218267E+02  0.87759352667E+02  0.41800000000E+01 0.  1.
        -11    1    1    2    0    0 -0.34601664157E+02 -0.42248976454E+02 -0.17835748221E+03  0.18653054076E+03  0.00000000000E+00 0.  1.
         11    1    1    2    0    0  0.32638727463E+02  0.62701156210E+01 -0.17129604529E+03  0.17449050408E+03  0.00000000000E+00 0. -1.
</event>
<event>
 7    1  0.1243146E-005  0.1022092E+03  0.7561462E-02  0.1275718E+00
         -2   -1    0    0    0  501 -0.00000000000E+00  0.00000000000E+00  0.56598970303E+02  0.56598970303E+02  0.00000000000E+00 0.  1.
          2   -1    0    0  501    0  0.00000000000E+00 -0.00000000000E+00 -0.20046790544E+03  0.20046790544E+03  0.00000000000E+00 0. -1.
         23    2    1    2    0    0  0.11515743931E+02  0.14775921053E+02 -0.76369731532E+02  0.14774981047E+03  0.12508689139E+03 0.  0.
          5    1    3    3  502    0  0.47514005467E+02 -0.39012047853E+02 -0.37842194833E+02  0.72311995568E+02  0.41800000000E+01 0.  1.
         -5    1    3    3    0  502 -0.35998261536E+02  0.53787968906E+02 -0.38527536698E+02  0.75437814899E+02  0.41800000000E+01 0.  1.
        -11    1    1    2    0    0 -0.43943346473E+02 -0.10962973984E+02 -0.15409265062E+02  0.47839836408E+02  0.00000000000E+00 0.  1.
         11    1    1    2    0    0  0.32427602542E+02 -0.38129470693E+01 -0.52089938544E+02  0.61477228870E+02  0.00000000000E+00 0. -1.
</event>
<event>
 7    1  0.1243146E-005  0.1409096E+03  0.7561462E-02  0.1212110E+00
         -1   -1    0    0    0  501 -0.00000000000E+00  0.00000000000E+00  0.66435087161E+02  0.66435087161E+02  0.00000000000E+00 0.  1.
          1   -1    0    0  501    0  0.00000000000E+00 -0.00000000000E+00 -0.41841945676E+03  0.41841945676E+03  0.00000000000E+00 0. -1.
         23    2    1    2    0    0 -0.95466474817E+02 -0.44480487281E+02 -0.11990454691E+03  0.20277485485E+03  0.12509268495E+03 0.  0.
          5    1    3    3  502    0 -0.74019228583E+01 -0.42304458312E+02 -0.10475304519E+03  0.11329222626E+03  0.41800000000E+01 0. -1.
         -5    1    3    3    0  502 -0.88064551959E+02 -0.21760289688E+01 -0.15151501714E+02  0.89482628582E+02  0.41800000000E+01 0. -1.
        -11    1    1    2    0    0 -0.23684279402E+02  0.13916047545E+02 -0.90251914010E+02  0.94339861418E+02  0.00000000000E+00 0. -1.
         11    1    1    2    0    0  0.11915075422E+03  0.30564439736E+02 -0.14182790869E+03  0.18773982766E+03  0.00000000000E+00 0.  1.
</event>
<event>
 7    1  0.1243146E-005  0.1073647E+03  0.7561462E-02  0.1265529E+00
         -2   -1    0    0    0  501 -0.00000000000E+00  0.00000000000E+00  0.10462980411E+03  0.10462980411E+03  0.00000000000E+00 0.  1.
          2   -1    0    0  501    0  0.00000000000E+00 -0.00000000000E+00 -0.15455549508E+03  0.15455549508E+03  0.00000000000E+00 0. -1.
         23    2    1    2    0    0  0.65553387627E+02 -0.60694798856E+01 -0.19465371253E+02  0.14268632599E+03  0.12508557763E+03 0.  0.
          5    1    3    3  502    0 -0.29502041916E+02  0.21020180427E+02 -0.23999478771E+02  0.43653932740E+02  0.41800000000E+01 0.  1.
         -5    1    3    3    0  502  0.95055429543E+02 -0.27089660313E+02  0.45341075184E+01  0.99032393248E+02  0.41800000000E+01 0.  1.
        -11    1    1    2    0    0 -0.25236083329E+02 -0.19239156472E+02  0.27152549767E+02  0.41764410715E+02  0.00000000000E+00 0.  1.
         11    1    1    2    0    0 -0.40317304298E+02  0.25308636358E+02 -0.57612869486E+02  0.74734562490E+02  0.00000000000E+00 0. -1.
</event>
<event>
 7    1  0.1243146E-005  0.1433151E+03  0.7561462E-02  0.1208937E+00
         -1   -1    0    0    0  501 -0.00000000000E+00  0.00000000000E+00  0.95992979927E+02  0.95992979927E+02  0.00000000000E+00 0.  1.
          1   -1    0    0  501    0  0.00000000000E+00 -0.00000000000E+00 -0.27455636099E+03  0.27455636099E+03  0.00000000000E+00 0. -1.
         23    2    1    2    0    0  0.15245261624E+02 -0.11790739011E+03 -0.88148556974E+02  0.19582515547E+03  0.12822929764E+03 0.  0.
          5    1    3    3  502    0  0.43863338884E+02 -0.18345683182E+02 -0.78274832040E+02  0.91678668841E+02  0.41800000000E+01 0. -1.
         -5    1    3    3    0  502 -0.28618077261E+02 -0.99561706928E+02 -0.98737249336E+01  0.10414648663E+03  0.41800000000E+01 0.  1.
        -11    1    1    2    0    0  0.16818358003E+02  0.45551178908E+01 -0.45378561906E+02  0.48608848429E+02  0.00000000000E+00 0. -1.
         11    1    1    2    0    0 -0.32063619626E+02  0.11335227222E+03 -0.45036262186E+02  0.12611533702E+03  0.00000000000E+00 0.  1.
</event>
<event>
 7    1  0.1243146E-005  0.1360547E+03  0.7561462E-02  0.1218738E+00
          2   -1    0    0  501    0  0.00000000000E+00  0.00000000000E+00  0.10676967735E+04  0.10676967735E+04  0.00000000000E+00 0. -1.
         -2   -1    0    0    0  501 -0.00000000000E+00 -0.00000000000E+00 -0.18636369695E+02  0.18636369695E+02  0.00000000000E+00 0.  1.
         23    2    1    2    0    0  0.57513461215E+02 -0.62240086107E+02  0.45453403807E+03  0.47898868959E+03  0.12508935388E+03 0.  0.
          5    1    3    3  502    0 -0.34574328834E+02  0.31530903227E+01  0.15361499794E+03  0.15754480691E+03  0.41800000000E+01 0. -1.
         -5    1    3    3    0  502  0.92087790049E+02 -0.65393176430E+02  0.30091904013E+03  0.32144388268E+03  0.41800000000E+01 0. -1.
        -11    1    1    2    0    0 -0.48388221600E+01  0.70617096735E+02  0.33977699716E+03  0.34707145713E+03  0.00000000000E+00 0.  1.
         11    1    1    2    0    0 -0.52674639055E+02 -0.83770106277E+01  0.25474936859E+03  0.26027299650E+03  0.00000000000E+00 0. -1.
</event>
<event>
 7    1  0.1243146E-005  0.1316082E+03  0.7561462E-02  0.1225089E+00
          2   -1    0    0  501    0  0.00000000000E+00  0.00000000000E+00  0.62979864179E+03  0.62979864179E+03  0.00000000000E+00 0. -1.
         -2   -1    0    0    0  501 -0.00000000000E+00 -0.00000000000E+00 -0.37715577543E+02  0.37715577543E+02  0.00000000000E+00 0.  1.
         23    2    1    2    0    0  0.38357680555E+02  0.80976794680E+02  0.18396104208E+03  0.23982919773E+03  0.12509127126E+03 0.  0.
          5    1    3    3  502    0 -0.12977959199E+02  0.87888647979E+02  0.15898470820E+03  0.18217148984E+03  0.41800000000E+01 0. -1.
         -5    1    3    3    0  502  0.51335639753E+02 -0.69118532991E+01  0.24976333874E+02  0.57657707886E+02  0.41800000000E+01 0. -1.
        -11    1    1    2    0    0 -0.15920889820E+01 -0.85277930803E+02  0.21998837040E+03  0.23594436492E+03  0.00000000000E+00 0.  1.
         11    1    1    2    0    0 -0.36765591573E+02  0.43011361227E+01  0.18813365177E+03  0.19174065668E+03  0.00000000000E+00 0. -1.
</event>
<event>
 7    1  0.1243146E-005  0.7991412E+02  0.7561462E-02  0.1329295E+00
          1   -1    0    0  501    0  0.00000000000E+00  0.00000000000E+00  0.19589212280E+02  0.19589212280E+02  0.00000000000E+00 0. -1.
         -1   -1    0    0    0  501 -0.00000000000E+00 -0.00000000000E+00 -0.71218934776E+03  0.71218934776E+03  0.00000000000E+00 0.  1.
         23    2    1    2    0    0  0.30942792654E+02 -0.16717859372E+02 -0.49413729985E+03  0.51094243455E+03  0.12511417617E+03 0.  0.
          5    1    3    3  502    0  0.25902886145E+02  0.15262210660E+02 -0.21542495535E+02  0.37221581088E+02  0.41800000000E+01 0.  1.
         -5    1    3    3    0  502  0.50399065094E+01 -0.31980070031E+02 -0.47259480432E+03  0.47372085346E+03  0.41800000000E+01 0.  1.
        -11    1    1    2    0    0 -0.37027949761E+02 -0.31265908872E+02 -0.10185478526E+03  0.11279638027E+03  0.00000000000E+00 0.  1.
         11    1    1    2    0    0  0.60851571073E+01  0.47983768244E+02 -0.96608050364E+02  0.10803974522E+03  0.00000000000E+00 0. -1.
</event>
<event>
 7    1  0.1243146E-005  0.1106328E+03  0.7561462E-02  0.1259403E+00
          2   -1    0    0  501    0  0.00000000000E+00  0.00000000000E+00  0.79305262523E+02  0.79305262523E+02  0.00000000000E+00 0. -1.
         -2   -1    0    0    0  501 -0.00000000000E+00 -0.00000000000E+00 -0.19907063014E+03  0.19907063014E+03  0.00000000000E+00 0.  1.
         23    2    1    2    0    0 -0.44626534506E+02 -0.38815974068E+02 -0.94731493071E+02  0.16768509798E+03  0.12508408724E+03 0.  0.
          5    1    3    3  502    0 -0.70104281067E+02  0.15578586947E+01 -0.96934416034E+02  0.11971128000E+03  0.41800000000E+01 0. -1.
         -5    1    3    3    0  502  0.25477746561E+02 -0.40373832763E+02  0.22029229638E+01  0.47973817977E+02  0.41800000000E+01 0. -1.
        -11    1    1    2    0    0  0.12923274239E+02 -0.27060554578E+02 -0.22585041590E+02  0.37541560100E+02  0.00000000000E+00 0.  1.
         11    1    1    2    0    0  0.31703260268E+02  0.65876528646E+02 -0.24488329600E+01  0.73149234588E+02  0.00000000000E+00 0. -1.
</event>
<event>
 7    1  0.1243146E-005  0.1626136E+03  0.7561462E-02  0.1185777E+00
         -1   -1    0    0    0  501 -0.00000000000E+00  0.00000000000E+00  0.71303306187E+03  0.71303306187E+03  0.00000000000E+00 0.  1.
          1   -1    0    0  501    0  0.00000000000E+00 -0.00000000000E+00 -0.43624198962E+02  0.43624198962E+02  0.00000000000E+00 0. -1.
         23    2    1    2    0    0 -0.83488156485E+01 -0.13802486592E+03  0.36612684225E+03  0.41087803687E+03  0.12510527660E+03 0.  0.
          5    1    3    3  502    0  0.82620325664E+01 -0.15687390295E+03  0.28023142217E+03  0.32128617303E+03  0.41800000000E+01 0. -1.
         -5    1    3    3    0  502 -0.16610848215E+02  0.18849037034E+02  0.85895420077E+02  0.89591863837E+02  0.41800000000E+01 0. -1.
        -11    1    1    2    0    0  0.22108527572E+02  0.83657939410E+02  0.88406640674E+02  0.12370598988E+03  0.00000000000E+00 0. -1.
         11    1    1    2    0    0 -0.13759711923E+02  0.54366926511E+02  0.21487537998E+03  0.22207323408E+03  0.00000000000E+00 0.  1.
</event>
<event>
 7    1  0.1243146E-005  0.9384534E+02  0.7561462E-02  0.1293798E+00
         -2   -1    0    0    0  501 -0.00000000000E+00  0.00000000000E+00  0.38270404669E+03  0.38270404669E+03  0.00000000000E+00 0.  1.
          2   -1    0    0  501    0  0.00000000000E+00 -0.00000000000E+00 -0.35959728769E+02  0.35959728769E+02  0.00000000000E+00 0. -1.
         23    2    1    2    0    0  0.19903963196E+02  0.49187835512E+02  0.23692977448E+03  0.27312710627E+03  0.12508831773E+03 0.  0.
          5    1    3    3  502    0  0.63089667761E+02  0.41552510552E+02  0.79914583645E+02  0.11004876369E+03  0.41800000000E+01 0. -1.
         -5    1    3    3    0  502 -0.43185704565E+02  0.76353249599E+01  0.15701519083E+03  0.16307834258E+03  0.41800000000E+01 0. -1.
        -11    1    1    2    0    0  0.10354285983E+02 -0.30975610827E+02  0.27248157353E+01  0.32773835984E+02  0.00000000000E+00 0. -1.
         11    1    1    2    0    0 -0.30258249179E+02 -0.18212224685E+02  0.10708972771E+03  0.11276283321E+03  0.00000000000E+00 0.  1.
</event>
<event>
 7    1  0.1243146E-005  0.7326930E+02  0.7561462E-02  0.1349316E+00
         -2   -1    0    0    0  501 -0.00000000000E+00  0.00000000000E+00  0.12366546831E+03  0.12366546831E+03  0.00000000000E+00 0.  1.
          2   -1    0    0  501    0  0.00000000000E+00 -0.00000000000E+00 -0.63791195698E+02  0.63791195698E+02  0.00000000000E+00 0. -1.
         23    2    1    2    0    0 -0.45438668968E+01 -0.73813394087E+01  0.40923541524E+02  0.13189816622E+03  0.12508900473E+03 0.  0.
          5    1    3    3  502    0 -0.43761675696E+02 -0.36933543023E+02  0.56157798786E+02  0.80314018854E+02  0.41800000000E+01 0.  1.
         -5    1    3    3    0  502  0.39217808800E+02  0.29552203614E+02 -0.15234257262E+02  0.51584147369E+02  0.41800000000E+01 0.  1.
        -11    1    1    2    0    0  0.57203446835E+01  0.23241533692E+02  0.28335927243E+02  0.37091993804E+02  0.00000000000E+00 0.  1.
         11    1    1    2    0    0 -0.11764777867E+01 -0.15860194283E+02 -0.93851961501E+01  0.18466503986E+02  0.00000000000E+00 0. -1.
</event>
<event>
 7    1  0.1364036E-005  0.1211681E+03  0.7561462E-02  0.1241182E+00
         -1   -1    0    0    0  501 -0.00000000000E+00  0.00000000000E+00  0.30881817718E+03  0.30881817718E+03  0.00000000000E+00 0.  1.
          1   -1    0    0  501    0  0.00000000000E+00 -0.00000000000E+00 -0.48372476009E+02  0.48372476009E+02  0.00000000000E+00 0. -1.
         23    2    1    2    0    0 -0.29416451086E+02  0.46691090057E+02  0.16062692749E+03  0.21093566173E+03  0.12508980002E+03 0.  0.
          5    1    3    3  502    0 -0.23038602230E+02  0.89467745406E+02  0.98381341154E+02  0.13502449907E+03  0.41800000000E+01 0.  1.
         -5    1    3    3    0  502 -0.63778488568E+01 -0.42776655349E+02  0.62245586335E+02  0.75911162664E+02  0.41800000000E+01 0.  1.
        -11    1    1    2    0    0  0.61468568228E+02 -0.19839525612E+02  0.53650037620E+02  0.83966172910E+02  0.00000000000E+00 0.  1.
         11    1    1    2    0    0 -0.32052117142E+02 -0.26851564445E+02  0.46168736059E+02  0.62288818544E+02  0.00000000000E+00 0. -1.
</event>
<event>
 7    1  0.1243146E-005  0.1060674E+03  0.7561462E-02  0.1268031E+00
          1   -1    0    0  501    0  0.00000000000E+00  0.00000000000E+00  0.46922165386E+03  0.46922165386E+03  0.00000000000E+00 0. -1.
         -1   -1    0    0    0  501 -0.00000000000E+00 -0.00000000000E+00 -0.28008713532E+02  0.28008713532E+02  0.00000000000E+00 0.  1.
         23    2    1    2    0    0  0.24058317378E+02 -0.12117919275E+02  0.19120973819E+03  0.23007443894E+03  0.12508971531E+03 0.  0.
          5    1    3    3  502    0 -0.88225570104E+01  0.51140820727E+02  0.11146720757E+03  0.12302695567E+03  0.41800000000E+01 0.  1.
         -5    1    3    3    0  502  0.32880874389E+02 -0.63258740001E+02  0.79742530614E+02  0.10704748328E+03  0.41800000000E+01 0.  1.
        -11    1    1    2    0    0  0.30136422734E+02 -0.74350393550E+01  0.13506917421E+03  0.13858991885E+03  0.00000000000E+00 0.  1.
         11    1    1    2    0    0 -0.54194740112E+02  0.19552958630E+02  0.11493402793E+03  0.12856600959E+03  0.00000000000E+00 0. -1.
</event>
<event>
 7    1  0.1243146E-005  0.1067558E+03  0.7561462E-02  0.1266698E+00
         -1   -1    0    0    0  501 -0.00000000000E+00  0.00000000000E+00  0.86384719051E+02  0.86384719051E+02  0.00000000000E+00 0.  1.
          1   -1    0    0  501    0  0.00000000000E+00 -0.00000000000E+00 -0.18320971138E+03  0.18320971138E+03  0.00000000000E+00 0. -1.
         23    2    1    2    0    0  0.59509471051E+02  0.22683448008E+02 -0.34591890470E+02  0.14456273780E+03  0.12508345341E+03 0.  0.
          5    1    3    3  502    0 -0.35598108782E+02 -0.12022896366E+01  0.92946316739E+01  0.37047718245E+02  0.41800000000E+01 0. -1.
         -5    1    3    3    0  502  0.95107579833E+02  0.23885737645E+02 -0.43886522144E+02  0.10751501956E+03  0.41800000000E+01 0. -1.
        -11    1    1    2    0    0 -0.19459633539E+02 -0.32847730995E+02 -0.72957183101E+02  0.82343192403E+02  0.00000000000E+00 0. -1.
         11    1    1    2    0    0 -0.40049837512E+02  0.10164282987E+02  0.10724081240E+02  0.42688500229E+02  0.00000000000E+00 0.  1.
</event>
<event>
 7    1  0.1243146E-005  0.1614768E+03  0.7561462E-02  0.1187039E+00
         -1   -1    0    0    0  501 -0.00000000000E+00  0.00000000000E+00  0.37004506972E+02  0.37004506972E+02  0.00000000000E+00 0.  1.
          1   -1    0    0  501    0  0.00000000000E+00 -0.00000000000E+00 -0.84409286133E+03  0.84409286133E+03  0.00000000000E+00 0. -1.
         23    2    1    2    0    0 -0.79299561299E+02  0.98103325899E+02 -0.28002279911E+03  0.33162951915E+03  0.12511069889E+03 0.  0.
          5    1    3    3  502    0 -0.11317983394E+02 -0.27060266974E+02 -0.22103037129E+02  0.36964461949E+02  0.41800000000E+01 0. -1.
         -5    1    3    3    0  502 -0.67981577905E+02  0.12516359287E+03 -0.25791976198E+03  0.29466505720E+03  0.41800000000E+01 0. -1.
        -11    1    1    2    0    0  0.91678173688E+02 -0.10266229651E+03 -0.50777123776E+03  0.52609510979E+03  0.00000000000E+00 0.  1.
         11    1    1    2    0    0 -0.12378612389E+02  0.45589706089E+01 -0.19294317497E+02  0.23372739364E+02  0.00000000000E+00 0. -1.
</event>
<event>
 7    1  0.1243146E-005  0.9283056E+02  0.7561462E-02  0.1296138E+00
          2   -1    0    0  501    0  0.00000000000E+00  0.00000000000E+00  0.31528375713E+02  0.31528375713E+02  0.00000000000E+00 0. -1.
         -2   -1    0    0    0  501 -0.00000000000E+00 -0.00000000000E+00 -0.42599052049E+03  0.42599052049E+03  0.00000000000E+00 0.  1.
         23    2    1    2    0    0  0.39854004071E+02  0.85445882492E+01 -0.22721293997E+03  0.26255356537E+03  0.12508918006E+03 0.  0.
          5    1    3    3  502    0 -0.21507789285E+02 -0.94352505106E+01 -0.18336234824E+03  0.18490763128E+03  0.41800000000E+01 0. -1.
         -5    1    3    3    0  502  0.61361793357E+02  0.17979838760E+02 -0.43850591734E+02  0.77645934093E+02  0.41800000000E+01 0. -1.
        -11    1    1    2    0    0 -0.68278488601E+02 -0.86542185970E+00 -0.13506535761E+03  0.15134514127E+03  0.00000000000E+00 0. -1.
         11    1    1    2    0    0  0.28424484530E+02 -0.76791663895E+01 -0.32183847195E+02  0.43620189562E+02  0.00000000000E+00 0.  1.
</event>
<event>
 7    1  0.1243146E-005  0.2259689E+03  0.7561462E-02  0.1129510E+00
         -2   -1    0    0    0  501 -0.00000000000E+00  0.00000000000E+00  0.56929074585E+03  0.56929074585E+03  0.00000000000E+00 0. -1.
          2   -1    0    0  501    0  0.00000000000E+00 -0.00000000000E+00 -0.11108045530E+03  0.11108045530E+03  0.00000000000E+00 0.  1.
         23    2    1    2    0    0 -0.91475055747E+02  0.18290837495E+03  0.35349729563E+03  0.42711921058E+03  0.12508925845E+03 0.  0.
          5    1    3    3  502    0  0.28327298703E+02  0.66533170669E+02  0.11552132717E+03  0.13635156062E+03  0.41800000000E+01 0. -1.
         -5    1    3    3    0  502 -0.11980235445E+03  0.11637520428E+03  0.23797596846E+03  0.29076764996E+03  0.41800000000E+01 0. -1.
        -11    1    1    2    0    0  0.73194542565E+02 -0.82145113966E+02  0.10317531886E+03  0.15083238125E+03  0.00000000000E+00 0.  1.
         11    1    1    2    0    0  0.18280513183E+02 -0.10076326098E+03  0.15376760661E+01  0.10241960932E+03  0.00000000000E+00 0. -1.
</event>
<event>
 7    1  0.1243146E-005  0.1162097E+03  0.7561462E-02  0.1249484E+00
         -2   -1    0    0    0  501 -0.00000000000E+00  0.00000000000E+00  0.38689038000E+02  0.38689038000E+02  0.00000000000E+00 0.  1.
          2   -1    0    0  501    0  0.00000000000E+00 -0.00000000000E+00 -0.44936860400E+03  0.44936860400E+03  0.00000000000E+00 0. -1.
         23    2    1    2    0    0  0.70333524764E+02 -0.13561420455E+02 -0.20654552985E+03  0.25187495273E+03  0.12509683881E+03 0.  0.
          5    1    3    3  502    0  0.46689238525E+02  0.54547061660E+02 -0.10132181417E+03  0.12425316638E+03  0.41800000000E+01 0. -1.
         -5    1    3    3    0  502  0.23644286240E+02 -0.68108482115E+02 -0.10522371568E+03  0.12762178634E+03  0.41800000000E+01 0. -1.
        -11    1    1    2    0    0 -0.25068289908E+02  0.30916330964E+02 -0.17720937100E+02  0.43569143793E+02  0.00000000000E+00 0.  1.
         11    1    1    2    0    0 -0.45265234856E+02 -0.17354910508E+02 -0.18641309904E+03  0.19261354547E+03  0.00000000000E+00 0. -1.
</event>
<event>
 7    1  0.1327677E-005  0.1909459E+03  0.7561462E-02  0.1157611E+00
         -1   -1    0    0    0  501 -0.00000000000E+00  0.00000000000E+00  0.27537446099E+02  0.27537446099E+02  0.00000000000E+00 0. -1.
          1   -1    0    0  501    0  0.00000000000E+00 -0.00000000000E+00 -0.13778667765E+04  0.13778667765E+04  0.00000000000E+00 0.  1.
         23    2    1    2    0    0 -0.13356260004E+03  0.88900296277E+02 -0.65732881061E+03  0.68809204717E+03  0.12508904553E+03 0.  0.
          5    1    3    3  502    0 -0.84116999091E+00  0.68151499244E+02 -0.19414375822E+03  0.20580234613E+03  0.41800000000E+01 0. -1.
         -5    1    3    3    0  502 -0.13272143005E+03  0.20748797033E+02 -0.46318505239E+03  0.48228970105E+03  0.41800000000E+01 0. -1.
        -11    1    1    2    0    0  0.98886208694E+02 -0.10207024006E+03 -0.61103617167E+03  0.62734521539E+03  0.00000000000E+00 0.  1.
         11    1    1    2    0    0  0.34676391349E+02  0.13169943784E+02 -0.81964348069E+02  0.89966959995E+02  0.00000000000E+00 0. -1.
</event>
<event>
 7    1  0.1243146E-005  0.1147893E+03  0.7561462E-02  0.1251949E+00
          1   -1    0    0  501    0  0.00000000000E+00  0.00000000000E+00  0.67676301674E+03  0.67676301674E+03  0.00000000000E+00 0. -1.
         -1   -1    0    0    0  501 -0.00000000000E+00 -0.00000000000E+00 -0.32067061022E+02  0.32067061022E+02  0.00000000000E+00 0.  1.
         23    2    1    2    0    0  0.53769676074E+02 -0.70813664633E+02  0.25463134407E+03  0.29730488583E+03  0.12508925049E+03 0.  0.
          5    1    3    3  502    0  0.48782701506E+02 -0.30458885960E+02  0.24953698007E+03  0.25611261687E+03  0.41800000000E+01 0.  1.
         -5    1    3    3    0  502  0.49869745684E+01 -0.40354778673E+02  0.50943640044E+01  0.41192268955E+02  0.41800000000E+01 0.  1.
        -11    1    1    2    0    0 -0.76728698085E+02  0.26578738428E+02  0.25012513587E+03  0.26297586588E+03  0.00000000000E+00 0.  1.
         11    1    1    2    0    0  0.22959022011E+02  0.44234926205E+02  0.13993947578E+03  0.14854932605E+03  0.00000000000E+00 0. -1.
</event>
<event>
 7    1  0.1243146E-005  0.1600036E+03  0.7561462E-02  0.1188693E+00
          3   -1    0    0  501    0  0.00000000000E+00  0.00000000000E+00  0.17408592615E+03  0.17408592615E+03  0.00000000000E+00 0. -1.
         -3   -1    0    0    0  501 -0.00000000000E+00 -0.00000000000E+00 -0.20137624024E+03  0.20137624024E+03  0.00000000000E+00 0.  1.
         23    2    1    2    0    0  0.11648179446E+03  0.50797853197E+02 -0.99305033426E+02  0.20410206333E+03  0.12509089600E+03 0.  0.
          5    1    3    3  502    0 -0.20691635782E+02 -0.86883989497E+01 -0.33860127541E+02  0.40836413956E+02  0.41800000000E+01 0. -1.
         -5    1    3    3    0  502  0.13717343024E+03  0.59486252146E+02 -0.65444905885E+02  0.16326564937E+03  0.41800000000E+01 0. -1.
        -11    1    1    2    0    0 -0.92469726130E+02 -0.70712929034E+02  0.32201040630E+02  0.12078027819E+03  0.00000000000E+00 0.  1.
         11    1    1    2    0    0 -0.24012068329E+02  0.19915075838E+02  0.39813678714E+02  0.50579824869E+02  0.00000000000E+00 0. -1.
</event>
<event>
 7    1  0.1243146E-005  0.9334083E+02  0.7561462E-02  0.1294957E+00
          1   -1    0    0  501    0  0.00000000000E+00  0.00000000000E+00  0.50891850167E+03  0.50891850167E+03  0.00000000000E+00 0. -1.
         -1   -1    0    0    0  501 -0.00000000000E+00 -0.00000000000E+00 -0.24395609364E+02  0.24395609364E+02  0.00000000000E+00 0.  1.
         23    2    1    2    0    0 -0.22229207058E+02  0.16263409298E+01  0.25433583350E+03  0.28431108966E+03  0.12509714973E+03 0.  0.
          5    1    3    3  502    0  0.39758762998E+02 -0.10574426168E+02  0.18845055156E+03  0.19293434248E+03  0.41800000000E+01 0.  1.
         -5    1    3    3    0  502 -0.61987970057E+02  0.12200767097E+02  0.65885281939E+02  0.91376747183E+02  0.41800000000E+01 0.  1.
        -11    1    1    2    0    0  0.41015693214E+02 -0.27979103502E+02  0.71491779438E+02  0.87041322657E+02  0.00000000000E+00 0.  1.
         11    1    1    2    0    0 -0.18786486156E+02  0.26352762573E+02  0.15869527937E+03  0.16196169872E+03  0.00000000000E+00 0. -1.
</event>
<event>
 6    1  0.1243146E-005  0.1401363E+03  0.7561462E-02  0.1213146E+00
         -4   -1    0    0    0  501 -0.00000000000E+00  0.00000000000E+00  0.89249374284E+03  0.89249374284E+03  0.00000000000E+00 0.  1.
          4   -1    0    0  501    0  0.00000000000E+00 -0.00000000000E+00 -0.30230422613E+02  0.30230422613E+02  0.00000000000E+00 0. -1.
          5    1    1    2  502    0 -0.89780605875E+02  0.18355549340E+02  0.12846530389E+03  0.15785528210E+03  0.41800000000E+01 0. -1.
         -5    1    1    2    0  502  0.44718191778E+02  0.52655844877E+02  0.44285060636E+03  0.44822593257E+03  0.41800000000E+01 0.  1.
        -11    1    1    2    0    0  0.69665015814E+02 -0.42221265169E+02  0.23793459718E+03  0.25149298638E+03  0.00000000000E+00 0. -1.
         11    1    1    2    0    0 -0.24602601717E+02 -0.28790129048E+02  0.53012812806E+02  0.65149964416E+02  0.00000000000E+00 0.  1.
</event>
<event>
 7    1  0.1243146E-005  0.1044877E+03  0.7561462E-02  0.1271132E+00
          2   -1    0    0  501    0  0.00000000000E+00  0.00000000000E+00  0.10945107997E+04  0.10945107997E+04  0.00000000000E+00 0.  1.
         -2   -1    0    0    0  501 -0.00000000000E+00 -0.00000000000E+00 -0.17652369703E+02  0.17652369703E+02  0.00000000000E+00 0. -1.
         23    2    1    2    0    0  0.38765068709E+02 -0.68243357302E+02  0.44455730340E+03  0.46844714199E+03  0.12510652448E+03 0.  0.
          5    1    3    3  502    0  0.19439643181E+02 -0.67630868170E+02  0.94831201914E+02  0.11816202145E+03  0.41800000000E+01 0. -1.
         -5    1    3    3    0  502  0.19325425528E+02 -0.61248913207E+00  0.34972610148E+03  0.35028512054E+03  0.41800000000E+01 0. -1.
        -11    1    1    2    0    0 -0.59316357785E+02  0.76284365302E+02  0.55400141401E+03  0.56236580747E+03  0.00000000000E+00 0.  1.
         11    1    1    2    0    0  0.20551289077E+02 -0.80410079995E+01  0.78299712579E+02  0.81350219928E+02  0.00000000000E+00 0. -1.
</event>
<event>
 7    1  0.1243146E-005  0.1215631E+03  0.7561462E-02  0.1240541E+00
          1   -1    0    0  501    0  0.00000000000E+00  0.00000000000E+00  0.14310466570E+03  0.14310466570E+03  0.00000000000E+00 0. -1.
         -1   -1    0    0    0  501 -0.00000000000E+00 -0.00000000000E+00 -0.13502186784E+03  0.13502186784E+03  0.00000000000E+00 0.  1.
         23    2    1    2    0    0 -0.59463040750E+02 -0.59358641590E+02  0.22886224064E+02  0.15241603232E+03  0.12509023187E+03 0.  0.
          5    1    3    3  502    0  0.21801461122E+02  0.24417943454E+02 -0.17857852978E+01  0.33048465905E+02  0.41800000000E+01 0.  1.
         -5    1    3    3    0  502 -0.81264501872E+02 -0.83776585044E+02  0.24672009362E+02  0.11936756642E+03  0.41800000000E+01 0.  1.
        -11    1    1    2    0    0  0.55826608038E+02  0.29281510513E+02 -0.49132190788E+02  0.79924897213E+02  0.00000000000E+00 0.  1.
         11    1    1    2    0    0  0.36364327122E+01  0.30077131077E+02  0.34328764587E+02  0.45785604012E+02  0.00000000000E+00 0. -1.
</event>
<event>
 6    1  0.1243146E-005  0.1602002E+03  0.7561462E-02  0.1188471E+00
          1   -1    0    0  501    0  0.00000000000E+00  0.00000000000E+00  0.18024284265E+03  0.18024284265E+03  0.00000000000E+00 0. -1.
         -1   -1    0    0    0  501 -0.00000000000E+00 -0.00000000000E+00 -0.45738414683E+03  0.45738414683E+03  0.00000000000E+00 0.  1.
          5    1    1    2  502    0 -0.15263524169E+02  0.30980764953E+02 -0.12929023012E+03  0.13388883064E+03  0.41800000000E+01 0. -1.
         -5    1    1    2    0  502 -0.20468147793E+02 -0.12566055693E+03 -0.27279353376E+03  0.30107026606E+03  0.41800000000E+01 0.  1.
        -11    1    1    2    0    0  0.24086827489E+02 -0.26889888183E+02  0.18012116353E+02  0.40344487610E+02  0.00000000000E+00 0.  1.
         11    1    1    2    0    0  0.11644844473E+02  0.12156968016E+03  0.10693034335E+03  0.16232340517E+03  0.00000000000E+00 0. -1.
</event>
<event>
 7    1  0.1243146E-005  0.7839791E+02  0.7561462E-02  0.1333660E+00
          1   -1    0    0  501    0  0.00000000000E+00  0.00000000000E+00  0.20550332607E+03  0.20550332607E+03  0.00000000000E+00 0. -1.
         -1   -1    0    0    0  501 -0.00000000000E+00 -0.00000000000E+00 -0.83867821879E+02  0.83867821879E+02  0.00000000000E+00 0.  1.
         23    2    1    2    0    0 -0.31472042704E+02 -0.65772018258E+02  0.83081692999E+02  0.16692913420E+03  0.12508525204E+03 0.  0.
          5    1    3    3  502    0 -0.40399697571E+02 -0.45818933915E+02  0.11366379171E+03  0.12910631361E+03  0.41800000000E+01 0. -1.
         -5    1    3    3    0  502  0.89276548670E+01 -0.19953084342E+02 -0.30582098709E+02  0.37822820593E+02  0.41800000000E+01 0. -1.
        -11    1    1    2    0    0  0.26972997457E+02  0.48854095955E+02  0.68133279815E+02  0.88070478037E+02  0.00000000000E+00 0. -1.
         11    1    1    2    0    0  0.44990452463E+01  0.16917922303E+02 -0.29579468620E+02  0.34371535710E+02  0.00000000000E+00 0.  1.
</event>
<event>
 7    1  0.1243146E-005  0.9997698E+02  0.7561462E-02  0.1280344E+00
          2   -1    0    0  501    0  0.00000000000E+00  0.00000000000E+00  0.18350524463E+03  0.18350524463E+03  0.00000000000E+00 0. -1.
         -2   -1    0    0    0  501 -0.00000000000E+00 -0.00000000000E+00 -0.10196403524E+03  0.10196403524E+03  0.00000000000E+00 0.  1.
         23    2    1    2    0    0  0.67394309632E+02 -0.26233633630E+02  0.13730223359E+02  0.14513931992E+03  0.12508679646E+03 0.  0.
          5    1    3    3  502    0  0.77967450456E+02 -0.19573094863E+02  0.57828650472E+02  0.99114351073E+02  0.41800000000E+01 0.  1.
         -5    1    3    3    0  502 -0.10573140824E+02 -0.66605387669E+01 -0.44098427113E+02  0.46024968847E+02  0.41800000000E+01 0.  1.
        -11    1    1    2    0    0  0.37279613112E+01  0.34481971262E+02  0.58663278128E+02  0.68148985601E+02  0.00000000000E+00 0. -1.
         11    1    1    2    0    0 -0.71122270944E+02 -0.82483376320E+01  0.91477078969E+01  0.72180974347E+02  0.00000000000E+00 0.  1.
</event>
<event>
 7    1  0.1243146E-005  0.1681680E+03  0.7561462E-02  0.1179772E+00
         -1   -1    0    0    0  501 -0.00000000000E+00  0.00000000000E+00  0.34902578375E+03  0.34902578375E+03  0.00000000000E+00 0.  1.
          1   -1    0    0  501    0  0.00000000000E+00 -0.00000000000E+00 -0.11340398157E+03  0.11340398157E+03  0.00000000000E+00 0. -1.
         23    2    1    2    0    0  0.19923947943E+02 -0.13680278970E+03  0.23150567828E+03  0.29699510299E+03  0.12449596440E+03 0.  0.
          5    1    3    3  502    0  0.37925985644E+02 -0.56770678215E+01  0.11574004739E+02  0.40274551169E+02  0.41800000000E+01 0. -1.
         -5    1    3    3    0  502 -0.18002037701E+02 -0.13112572188E+03  0.21993167354E+03  0.25672055182E+03  0.41800000000E+01 0. -1.
        -11    1    1    2    0    0 -0.22833906693E+02  0.15004906253E+03  0.48348105758E+01  0.15185349471E+03  0.00000000000E+00 0.  1.
         11    1    1    2    0    0  0.29099587497E+01 -0.13246272827E+02 -0.71868666928E+00  0.13581167633E+02  0.00000000000E+00 0. -1.
</event>
<event>
 7    1  0.1243146E-005  0.1596285E+03  0.7561462E-02  0.1189117E+00
         -2   -1    0    0    0  501 -0.00000000000E+00  0.00000000000E+00  0.16164348201E+03  0.16164348201E+03  0.00000000000E+00 0.  1.
          2   -1    0    0  501    0  0.00000000000E+00 -0.00000000000E+00 -0.21179120698E+03  0.21179120698E+03  0.00000000000E+00 0. -1.
         23    2    1    2    0    0  0.12358392164E+02  0.14812972928E+03 -0.16389617813E+02  0.19496265067E+03  0.12508664609E+03 0.  0.
          5    1    3    3  502    0 -0.22776569510E+02  0.51070529140E+02  0.47505050749E+02  0.73492675227E+02  0.41800000000E+01 0.  1.
         -5    1    3    3    0  502  0.35134961674E+02  0.97059200145E+02 -0.63894668562E+02  0.12146997545E+03  0.41800000000E+01 0.  1.
        -11    1    1    2    0    0 -0.26304659771E+02 -0.14237944497E+03 -0.36946216155E+01  0.14483608564E+03  0.00000000000E+00 0.  1.
         11    1    1    2    0    0  0.13946267607E+02 -0.57502843166E+01 -0.30063485539E+02  0.33635952680E+02  0.00000000000E+00 0. -1.
</event>
<event>
 7    1  0.1243146E-005  0.1848457E+03  0.7561462E-02  0.1163194E+00
          1   -1    0    0  501    0  0.00000000000E+00  0.00000000000E+00  0.14217115338E+03  0.14217115338E+03  0.00000000000E+00 0. -1.
         -1   -1    0    0    0  501 -0.00000000000E+00 -0.00000000000E+00 -0.36184214330E+03  0.36184214330E+03  0.00000000000E+00 0.  1.
         23    2    1    2    0    0  0.17273972911E+03  0.23567405058E+02 -0.21965029650E+03  0.30706358903E+03  0.12508940148E+03 0.  0.
          5    1    3    3  502    0  0.13683722659E+03  0.54867720782E+02 -0.21257558232E+03  0.25872909377E+03  0.41800000000E+01 0. -1.
         -5    1    3    3    0  502  0.35902502521E+02 -0.31300315724E+02 -0.70747141855E+01  0.48334495265E+02  0.41800000000E+01 0. -1.
        -11    1    1    2    0    0 -0.72695508618E+02 -0.12011561935E+02 -0.45339399324E+02  0.86513442449E+02  0.00000000000E+00 0.  1.
         11    1    1    2    0    0 -0.10004422049E+03 -0.11555843123E+02  0.45318705911E+02  0.11043626519E+03  0.00000000000E+00 0. -1.
</event>
<event>
 6    1  0.1243146E-005  0.1366761E+03  0.7561462E-02  0.1217873E+00
          3   -1    0    0  501    0  0.00000000000E+00  0.00000000000E+00  0.20290563517E+03  0.20290563517E+03  0.00000000000E+00 0. -1.
         -3   -1    0    0    0  501 -0.00000000000E+00 -0.00000000000E+00 -0.10555613397E+03  0.10555613397E+03  0.00000000000E+00 0.  1.
          5    1    1    2  502    0  0.69309222530E+02 -0.29578132707E+02  0.13589104768E+02  0.76686181484E+02  0.41800000000E+01 0. -1.
         -5    1    1    2    0  502  0.51299607098E+01  0.81731072195E+02  0.92551354347E+01  0.82519177110E+02  0.41800000000E+01 0.  1.
        -11    1    1    2    0    0 -0.85108537666E+02 -0.28199135344E+02  0.24746592970E+02  0.93011011614E+02  0.00000000000E+00 0.  1.
         11    1    1    2    0    0  0.10669354426E+02 -0.23953804144E+02  0.49758668033E+02  0.56245398934E+02  0.00000000000E+00 0. -1.
</event>
<event>
 7    1  0.1243146E-005  0.1089874E+03  0.7561462E-02  0.1262457E+00
         -1   -1    0    0    0  501 -0.00000000000E+00  0.00000000000E+00  0.16795321301E+03  0.16795321301E+03  0.00000000000E+00 0.  1.
          1   -1    0    0  501    0  0.00000000000E+00 -0.00000000000E+00 -0.12361822503E+03  0.12361822503E+03  0.00000000000E+00 0. -1.
         23    2    1    2    0    0 -0.53353123478E+02 -0.25971761570E+02  0.98423697839E+02  0.16986952523E+03  0.12508934056E+03 0.  0.
          5    1    3    3  502    0 -0.85931717182E+02 -0.19885670733E+02  0.10353502532E+03  0.13607598534E+03  0.41800000000E+01 0. -1.
         -5    1    3    3    0  502  0.32578593704E+02 -0.60860908376E+01 -0.51113274826E+01  0.33793539886E+02  0.41800000000E+01 0. -1.
        -11    1    1    2    0    0  0.93379016715E+01  0.46694434277E+02  0.17396634869E+01  0.47650740069E+02  0.00000000000E+00 0.  1.
         11    1    1    2    0    0  0.44015221807E+02 -0.20722672707E+02 -0.55828373344E+02  0.74051172746E+02  0.00000000000E+00 0. -1.
</event>
<event>
 7    1  0.1243146E-005  0.8151430E+02  0.7561462E-02  0.1324808E+00
         -1   -1    0    0    0  501 -0.00000000000E+00  0.00000000000E+00  0.87567686417E+02  0.87567686417E+02  0.00000000000E+00 0.  1.
          1   -1    0    0  501    0  0.00000000000E+00 -0.00000000000E+00 -0.16239907217E+03  0.16239907217E+03  0.00000000000E+00 0. -1.
         23    2    1    2    0    0 -0.33491018379E+02  0.20981525797E+01 -0.34223768998E+01  0.12955955828E+03  0.12509163010E+03 0.  0.
          5    1    3    3  502    0 -0.58852781125E+02 -0.21551928483E+02 -0.43493462333E+02  0.76402153983E+02  0.41800000000E+01 0. -1.
         -5    1    3    3    0  502  0.25361762746E+02  0.23650081063E+02  0.40071085434E+02  0.53157404298E+02  0.41800000000E+01 0. -1.
        -11    1    1    2    0    0  0.36663012174E+02 -0.23566797402E+02  0.22259405863E+01  0.43640866318E+02  0.00000000000E+00 0.  1.
         11    1    1    2    0    0 -0.31719937957E+01  0.21468644822E+02 -0.73634949436E+02  0.76766333985E+02  0.00000000000E+00 0. -1.
</event>
<event>
 6    1  0.1243146E-005  0.1136391E+03  0.7561462E-02  0.1253976E+00
         -3   -1    0    0    0  501 -0.00000000000E+00  0.00000000000E+00  0.56684834630E+02  0.56684834630E+02  0.00000000000E+00 0.  1.
          3   -1    0    0  501    0  0.00000000000E+00 -0.00000000000E+00 -0.39073010431E+03  0.39073010431E+03  0.00000000000E+00 0. -1.
          5    1    1    2  502    0  0.43644420821E+02 -0.47270972108E+02 -0.26867931098E+02  0.69847966286E+02  0.41800000000E+01 0. -1.
         -5    1    1    2    0  502 -0.60961212344E+02  0.43533095723E+02 -0.23165649266E+02  0.78520822332E+02  0.41800000000E+01 0.  1.
        -11    1    1    2    0    0  0.20463152997E+02  0.43405073193E+02 -0.20547573839E+03  0.21100478686E+03  0.00000000000E+00 0. -1.
         11    1    1    2    0    0 -0.31463614728E+01 -0.39667196808E+02 -0.78535950923E+02  0.88041363463E+02  0.00000000000E+00 0.  1.
</event>
<event>
 7    1  0.1243146E-005  0.9031250E+02  0.7561462E-02  0.1302097E+00
          1   -1    0    0  501    0  0.00000000000E+00  0.00000000000E+00  0.30829796235E+03  0.30829796235E+03  0.00000000000E+00 0. -1.
         -1   -1    0    0    0  501 -0.00000000000E+00 -0.00000000000E+00 -0.35222278858E+02  0.35222278858E+02  0.00000000000E+00 0.  1.
         23    2    1    2    0    0  0.35813328221E+02  0.15518793583E+02  0.14922036207E+03  0.19859290182E+03  0.12509595023E+03 0.  0.
          5    1    3    3  502    0  0.22422630352E+02  0.65368340565E+02  0.46034032018E+02  0.83140837161E+02  0.41800000000E+01 0. -1.
         -5    1    3    3    0  502  0.13390697869E+02 -0.49849546981E+02  0.10318633005E+03  0.11545206466E+03  0.41800000000E+01 0. -1.
        -11    1    1    2    0    0 -0.83174645295E+01 -0.28145941387E+02  0.10557184956E+03  0.10957549750E+03  0.00000000000E+00 0. -1.
         11    1    1    2    0    0 -0.27495863691E+02  0.12627147804E+02  0.18283471863E+02  0.35351841892E+02  0.00000000000E+00 0.  1.
</event>
<event>
 7    1  0.1243146E-005  0.2529061E+03  0.7561462E-02  0.1111482E+00
          1   -1    0    0  501    0  0.00000000000E+00  0.00000000000E+00  0.80802731017E+03  0.80802731017E+03  0.00000000000E+00 0. -1.
         -1   -1    0    0    0  501 -0.00000000000E+00 -0.00000000000E+00 -0.85727152352E+02  0.85727152352E+02  0.00000000000E+00 0.  1.
         23    2    1    2    0    0 -0.17831132492E+03 -0.15882861698E+03  0.33564971219E+03  0.43050007630E+03  0.12509247875E+03 0.  0.
          5    1    3    3  502    0 -0.10633934339E+03 -0.41017856888E+02  0.78029823813E+02  0.13819061596E+03  0.41800000000E+01 0. -1.
         -5    1    3    3    0  502 -0.71971981531E+02 -0.11781076009E+03  0.25761988837E+03  0.29230946034E+03  0.41800000000E+01 0. -1.
        -11    1    1    2    0    0  0.89005272300E+02  0.24466974557E+02  0.11704886417E+03  0.14906712563E+03  0.00000000000E+00 0.  1.
         11    1    1    2    0    0  0.89306052620E+02  0.13436164242E+03  0.26960158146E+03  0.31418726058E+03  0.00000000000E+00 0. -1.
</event>
<event>
 7    1  0.1243146E-005  0.8791939E+02  0.7561462E-02  0.1307970E+00
          2   -1    0    0  501    0  0.00000000000E+00  0.00000000000E+00  0.32399070506E+03  0.32399070506E+03  0.00000000000E+00 0. -1.
         -2   -1    0    0    0  501 -0.00000000000E+00 -0.00000000000E+00 -0.49719534749E+02  0.49719534749E+02  0.00000000000E+00 0.  1.
         23    2    1    2    0    0 -0.44270751553E+02  0.49518126345E+02  0.13816011753E+03  0.19785912990E+03  0.12509225766E+03 0.  0.
          5    1    3    3  502    0 -0.13997079898E+02  0.18414211888E+02  0.15067195958E+03  0.15249430562E+03  0.41800000000E+01 0. -1.
         -5    1    3    3    0  502 -0.30273671654E+02  0.31103914458E+02 -0.12511842042E+02  0.45364824273E+02  0.41800000000E+01 0. -1.
        -11    1    1    2    0    0 -0.90497366439E+01 -0.54434908227E+02  0.50090328813E+02  0.74525821079E+02  0.00000000000E+00 0.  1.
         11    1    1    2    0    0  0.53320488197E+02  0.49167818813E+01  0.86020723960E+02  0.10132528883E+03  0.00000000000E+00 0. -1.
</event>
<event>
 7    1  0.1243146E-005  0.1186173E+03  0.7561462E-02  0.1245396E+00
         -1   -1    0    0    0  501 -0.00000000000E+00  0.00000000000E+00  0.88594014519E+02  0.88594014519E+02  0.00000000000E+00 0.  1.
          1   -1    0    0  501    0  0.00000000000E+00 -0.00000000000E+00 -0.18498080999E+03  0.18498080999E+03  0.00000000000E+00 0. -1.
         23    2    1    2    0    0  0.21129385082E+02  0.47445760316E+02 -0.75753193532E+01  0.13681586215E+03  0.12634731334E+03 0.  0.
          5    1    3    3  502    0 -0.23645949117E+02 -0.34212304670E+02 -0.12007110184E+02  0.43488570860E+02  0.41800000000E+01 0. -1.
         -5    1    3    3    0  502  0.44775334199E+02  0.81658064987E+02  0.44317908306E+01  0.93327291292E+02  0.41800000000E+01 0.  1.
        -11    1    1    2    0    0 -0.22365700130E+02  0.22811260956E+02 -0.16601805783E+02  0.36002751616E+02  0.00000000000E+00 0.  1.
         11    1    1    2    0    0  0.12363150475E+01 -0.70257021272E+02 -0.72209670333E+02  0.10075621074E+03  0.00000000000E+00 0. -1.
</event>
<event>
 7    1  0.1243146E-005  0.1495437E+03  0.7561462E-02  0.1201035E+00
          2   -1    0    0  501    0  0.00000000000E+00  0.00000000000E+00  0.16414491045E+03  0.16414491045E+03  0.00000000000E+00 0. -1.
         -2   -1    0    0    0  501 -0.00000000000E+00 -0.00000000000E+00 -0.18693818959E+03  0.18693818959E+03  0.00000000000E+00 0.  1.
         23    2    1    2    0    0 -0.82172118034E+01 -0.13364353018E+03 -0.36712221474E+02  0.18687790911E+03  0.12508976769E+03 0.  0.
          5    1    3    3  502    0  0.79549324303E+01 -0.12680198052E+03 -0.72827003814E+02  0.14650347469E+03  0.41800000000E+01 0. -1.
         -5    1    3    3    0  502 -0.16172144234E+02 -0.68415496584E+01  0.36114782340E+02  0.40374434415E+02  0.41800000000E+01 0. -1.
        -11    1    1    2    0    0 -0.23317614432E+02  0.11487920735E+03 -0.14057478900E+02  0.11806166244E+03  0.00000000000E+00 0.  1.
         11    1    1    2    0    0  0.31534826235E+02  0.18764322822E+02  0.27976421227E+02  0.46143528488E+02  0.00000000000E+00 0. -1.
</event>
<event>
 7    1  0.1243146E-005  0.1047198E+03  0.7561462E-02  0.1270673E+00
          2   -1    0    0  501    0  0.00000000000E+00  0.00000000000E+00  0.42144883026E+03  0.42144883026E+03  0.00000000000E+00 0. -1.
         -2   -1    0    0    0  501 -0.00000000000E+00 -0.00000000000E+00 -0.50309937964E+02  0.50309937964E+02  0.00000000000E+00 0.  1.
         23    2    1    2    0    0 -0.36509908578E+02 -0.34942931523E+02  0.67727019912E+02  0.15096118865E+03  0.12509336259E+03 0.  0.
          5    1    3    3  502    0 -0.70422208038E+02 -0.59604164508E+02  0.40890007924E+02  0.10100202453E+03  0.41800000000E+01 0. -1.
         -5    1    3    3    0  502  0.33912299460E+02  0.24661232985E+02  0.26837011989E+02  0.49959164119E+02  0.41800000000E+01 0. -1.
        -11    1    1    2    0    0  0.22568959124E+02 -0.12290141341E+02  0.18509861186E+02  0.31670498121E+02  0.00000000000E+00 0.  1.
         11    1    1    2    0    0  0.13940949454E+02  0.47233072864E+02  0.28490201120E+03  0.28912708145E+03  0.00000000000E+00 0. -1.
</event>
<event>
 7    1  0.1243146E-005  0.1371845E+03  0.7561462E-02  0.1217168E+00
          1   -1    0    0  501    0  0.00000000000E+00  0.00000000000E+00  0.11542816428E+04  0.11542816428E+04  0.00000000000E+00 0. -1.
         -1   -1    0    0    0  501 -0.00000000000E+00 -0.00000000000E+00 -0.16598413275E+02  0.16598413275E+02  0.00000000000E+00 0.  1.
         23    2    1    2    0    0  0.24098974858E+02  0.17054193057E+01  0.53788769175E+03  0.55277370419E+03  0.12510767386E+03 0.  0.
          5    1    3    3  502    0  0.27547260869E+02  0.60845226701E+02  0.32104736923E+03  0.32794798198E+03  0.41800000000E+01 0.  1.
         -5    1    3    3    0  502 -0.34482860116E+01 -0.59139807396E+02  0.21684032252E+03  0.22482572221E+03  0.41800000000E+01 0.  1.
        -11    1    1    2    0    0 -0.76138266237E+02 -0.37526472086E+02  0.30325896868E+03  0.31491470873E+03  0.00000000000E+00 0. -1.
         11    1    1    2    0    0  0.52039291380E+02  0.35821052781E+02  0.29653656914E+03  0.30319164320E+03  0.00000000000E+00 0.  1.
</event>
<event>
 7    1  0.1243146E-005  0.2377696E+03  0.7561462E-02  0.1121288E+00
         -1   -1    0    0    0  501 -0.00000000000E+00  0.00000000000E+00  0.30059095710E+03  0.30059095710E+03  0.00000000000E+00 0.  1.
          1   -1    0    0  501    0  0.00000000000E+00 -0.00000000000E+00 -0.25161266006E+03  0.25161266006E+03  0.00000000000E+00 0. -1.
         23    2    1    2    0    0  0.35963742325E+02 -0.22801926569E+03  0.14296903776E+03  0.29895482125E+03  0.12509061957E+03 0.  0.
          5    1    3    3  502    0  0.39699485558E+02 -0.58549183923E+02  0.10253234520E+03  0.12463711447E+03  0.41800000000E+01 0. -1.
         -5    1    3    3    0  502 -0.37357432332E+01 -0.16947008176E+03  0.40436692559E+02  0.17431770678E+03  0.41800000000E+01 0. -1.
        -11    1    1    2    0    0 -0.25497826173E+02  0.44431290620E+02 -0.18394490508E+02  0.54430102027E+02  0.00000000000E+00 0. -1.
         11    1    1    2    0    0 -0.10465916152E+02  0.18358797507E+03 -0.75596250217E+02  0.19881869388E+03  0.00000000000E+00 0.  1.
</event>
<event>
 7    1  0.1243146E-005  0.9092431E+02  0.7561462E-02  0.1300629E+00
          1   -1    0    0  501    0  0.00000000000E+00  0.00000000000E+00  0.37543820422E+03  0.37543820422E+03  0.00000000000E+00 0. -1.
         -1   -1    0    0    0  501 -0.00000000000E+00 -0.00000000000E+00 -0.43412464478E+02  0.43412464478E+02  0.00000000000E+00 0.  1.
         23    2    1    2    0    0  0.33946488144E+01  0.66793246344E+02  0.18382329987E+03  0.23218227619E+03  0.12507894468E+03 0.  0.
          5    1    3    3  502    0 -0.51863333781E+01  0.18517896910E+02 -0.16637363305E+02  0.25769843182E+02  0.41800000000E+01 0.  1.
         -5    1    3    3    0  502  0.85809821925E+01  0.48275349433E+02  0.20046066318E+03  0.20641243301E+03  0.41800000000E+01 0.  1.
        -11    1    1    2    0    0  0.33807339553E+02  0.29277375433E+01  0.36486719958E+02  0.49827588624E+02  0.00000000000E+00 0.  1.
         11    1    1    2    0    0 -0.37201988367E+02 -0.69720983887E+02  0.11171571992E+03  0.13684080389E+03  0.00000000000E+00 0. -1.
</event>
<event>
 7    1  0.1243146E-005  0.5110010E+02  0.7561462E-02  0.1439497E+00
          2   -1    0    0  501    0  0.00000000000E+00  0.00000000000E+00  0.21034187330E+03  0.21034187330E+03  0.00000000000E+00 0. -1.
         -2   -1    0    0    0  501 -0.00000000000E+00 -0.00000000000E+00 -0.66265244170E+02  0.66265244170E+02  0.00000000000E+00 0.  1.
         23    2    1    2    0    0 -0.26835593437E+02  0.10071404153E+02  0.68719644505E+02  0.14559474922E+03  0.12511538356E+03 0.  0.
          5    1    3    3  502    0 -0.94135049321E+01  0.20126398662E+02 -0.34005381424E+02  0.40835332299E+02  0.41800000000E+01 0. -1.
         -5    1    3    3    0  502 -0.17422088505E+02 -0.10054994509E+02  0.10272502593E+03  0.10475941692E+03  0.41800000000E+01 0. -1.
        -11    1    1    2    0    0  0.42502853550E+02 -0.68527596796E+01  0.95815804032E+02  0.10504342520E+03  0.00000000000E+00 0. -1.
         11    1    1    2    0    0 -0.15667260114E+02 -0.32186444738E+01 -0.20458819405E+02  0.25968943050E+02  0.00000000000E+00 0.  1.
</event>
<event>
 7    1  0.1243146E-005  0.1031036E+03  0.7561462E-02  0.1273902E+00
          1   -1    0    0  501    0  0.00000000000E+00  0.00000000000E+00  0.23177172579E+03  0.23177172579E+03  0.00000000000E+00 0. -1.
         -1   -1    0    0    0  501 -0.00000000000E+00 -0.00000000000E+00 -0.49829132218E+02  0.49829132218E+02  0.00000000000E+00 0.  1.
         23    2    1    2    0    0  0.15805746750E+01 -0.16168053511E+02  0.82418295760E+02  0.14410233983E+03  0.11708460487E+03 0.  0.
          5    1    3    3  502    0  0.38147524397E+02  0.33178978680E+02  0.15210022402E+02  0.52961263442E+02  0.41800000000E+01 0. -1.
         -5    1    3    3    0  502 -0.36566949722E+02 -0.49347032191E+02  0.67208273358E+02  0.91141076391E+02  0.41800000000E+01 0.  1.
        -11    1    1    2    0    0 -0.20490855790E+02 -0.34337361368E+02  0.32892263204E+02  0.51776737396E+02  0.00000000000E+00 0.  1.
         11    1    1    2    0    0  0.18910281115E+02  0.50505414879E+02  0.66632034605E+02  0.85721780776E+02  0.00000000000E+00 0. -1.
</event>
<event>
 6    1  0.1243146E-005  0.3032235E+03  0.7561462E-02  0.1083640E+00
         -2   -1    0    0    0  501 -0.00000000000E+00  0.00000000000E+00  0.12717463240E+03  0.12717463240E+03  0.00000000000E+00 0.  1.
          2   -1    0    0  501    0  0.00000000000E+00 -0.00000000000E+00 -0.14814043408E+04  0.14814043408E+04  0.00000000000E+00 0. -1.
          5    1    1    2  502    0  0.15510747123E+03 -0.10771633690E+03 -0.58895464612E+03  0.61850318063E+03  0.41800000000E+01 0. -1.
         -5    1    1    2    0  502  0.27235766589E+02  0.19312957422E+03 -0.20604459745E+01  0.19509622564E+03  0.41800000000E+01 0.  1.
        -11    1    1    2    0    0 -0.11130844730E+03 -0.10037284183E+03 -0.51613783818E+03  0.53745934341E+03  0.00000000000E+00 0. -1.
         11    1    1    2    0    0 -0.71034790519E+02  0.14959604506E+02 -0.24707677816E+03  0.25752022355E+03  0.00000000000E+00 0.  1.
</event>
<event>
 7    1  0.1243146E-005  0.7279617E+02  0.7561462E-02  0.1350835E+00
         -2   -1    0    0    0  501 -0.00000000000E+00  0.00000000000E+00  0.41047835708E+02  0.41047835708E+02  0.00000000000E+00 0. -1.
          2   -1    0    0  501    0  0.00000000000E+00 -0.00000000000E+00 -0.35371954740E+03  0.35371954740E+03  0.00000000000E+00 0.  1.
         23    2    1    2    0    0  0.25856239492E+01 -0.52486452620E+02 -0.17830449916E+03  0.22405687262E+03  0.12508986605E+03 0.  0.
          5    1    3    3  502    0  0.69021037535E+01 -0.24913960944E+02  0.13998264125E+02  0.29694583423E+02  0.41800000000E+01 0.  1.
         -5    1    3    3    0  502 -0.43164798043E+01 -0.27572491676E+02 -0.19230276329E+03  0.19436228920E+03  0.41800000000E+01 0.  1.
        -11    1    1    2    0    0  0.25733044611E+02 -0.58038884927E+01 -0.85694216155E+02  0.89662552880E+02  0.00000000000E+00 0.  1.
         11    1    1    2    0    0 -0.28318668560E+02  0.58290341112E+02 -0.48672996380E+02  0.81047957609E+02  0.00000000000E+00 0. -1.
</event>
<event>
 7    1  0.1243146E-005  0.1968974E+03  0.7561462E-02  0.1152383E+00
         -2   -1    0    0    0  501 -0.00000000000E+00  0.00000000000E+00  0.12164908507E+04  0.12164908507E+04  0.00000000000E+00 0.  1.
          2   -1    0    0  501    0  0.00000000000E+00 -0.00000000000E+00 -0.33117590415E+02  0.33117590415E+02  0.00000000000E+00 0. -1.
         23    2    1    2    0    0 -0.16640289994E+03  0.97442146225E+01  0.54579301407E+03  0.58422919933E+03  0.12509543681E+03 0.  0.
          5    1    3    3  502    0 -0.30092053126E+02  0.55695766869E+02  0.14097356786E+03  0.15459162120E+03  0.41800000000E+01 0. -1.
         -5    1    3    3    0  502 -0.13631084681E+03 -0.45951552247E+02  0.40481944621E+03  0.42963757813E+03  0.41800000000E+01 0. -1.
        -11    1    1    2    0    0  0.79152884274E+02  0.37096669173E+02  0.23306605884E+03  0.24891992635E+03  0.00000000000E+00 0.  1.
         11    1    1    2    0    0  0.87250015662E+02 -0.46840883795E+02  0.40451418741E+03  0.41645931547E+03  0.00000000000E+00 0. -1.
</event>
<event>
 7    1  0.1243146E-005  0.1137897E+03  0.7561462E-02  0.1253709E+00
          2   -1    0    0  501    0  0.00000000000E+00  0.00000000000E+00  0.23662778661E+03  0.23662778661E+03  0.00000000000E+00 0. -1.
         -2   -1    0    0    0  501 -0.00000000000E+00 -0.00000000000E+00 -0.10026983526E+03  0.10026983526E+03  0.00000000000E+00 0.  1.
         23    2    1    2    0    0 -0.77084907644E+02  0.22539769667E+02 -0.72291639657E+01  0.14882807656E+03  0.12508961330E+03 0.  0.
          5    1    3    3  502    0 -0.47715929620E+01  0.54869671637E+02  0.28126186043E+02  0.61983898766E+02  0.41800000000E+01 0. -1.
         -5    1    3    3    0  502 -0.72313314682E+02 -0.32329901970E+02 -0.35355350009E+02  0.86844177790E+02  0.41800000000E+01 0. -1.
        -11    1    1    2    0    0  0.21285720835E+02 -0.29939573651E+02  0.32660461919E+01  0.36879900211E+02  0.00000000000E+00 0.  1.
         11    1    1    2    0    0  0.55799186809E+02  0.73998039838E+01  0.14032106913E+03  0.15118964511E+03  0.00000000000E+00 0. -1.
</event>
<event>
 7    1  0.1243146E-005  0.1285033E+03  0.7561462E-02  0.1229694E+00
          1   -1    0    0  501    0  0.00000000000E+00  0.00000000000E+00  0.51799949283E+03  0.51799949283E+03  0.00000000000E+00 0. -1.
         -1   -1    0    0    0  501 -0.00000000000E+00 -0.00000000000E+00 -0.39541203200E+02  0.39541203200E+02  0.00000000000E+00 0.  1.
         23    2    1    2    0    0  0.81687846275E+02 -0.39193431323E+00  0.18817430676E+03  0.24027026944E+03  0.12508866780E+03 0.  0.
          5    1    3    3  502    0  0.10507997340E+03 -0.25367085511E+01  0.18910364471E+03  0.21639292166E+03  0.41800000000E+01 0.  1.
         -5    1    3    3    0  502 -0.23392127129E+02  0.21447742379E+01 -0.92933795153E+00  0.23877347783E+02  0.41800000000E+01 0.  1.
        -11    1    1    2    0    0 -0.77363009226E+02  0.40698940144E+02  0.19264042978E+03  0.21154615126E+03  0.00000000000E+00 0.  1.
         11    1    1    2    0    0 -0.43248370495E+01 -0.40307005831E+02  0.97643553089E+02  0.10572427533E+03  0.00000000000E+00 0. -1.
</event>
<event>
 7    1  0.1243146E-005  0.9525223E+02  0.7561462E-02  0.1290609E+00
          1   -1    0    0  501    0  0.00000000000E+00  0.00000000000E+00  0.40640382978E+02  0.40640382978E+02  0.00000000000E+00 0. -1.
         -1   -1    0    0    0  501 -0.00000000000E+00 -0.00000000000E+00 -0.31149813039E+03  0.31149813039E+03  0.00000000000E+00 0.  1.
         23    2    1    2    0    0  0.11931406264E+02  0.36199932133E+01 -0.19601658855E+03  0.23286353800E+03  0.12508981387E+03 0.  0.
          5    1    3    3  502    0 -0.54071266356E+02  0.55699924817E+01 -0.12175193926E+03  0.13340065133E+03  0.41800000000E+01 0.  1.
         -5    1    3    3    0  502  0.66002672620E+02 -0.19499992684E+01 -0.74264649294E+02  0.99462886671E+02  0.41800000000E+01 0.  1.
        -11    1    1    2    0    0 -0.32228936224E+02 -0.24665377599E+02 -0.79886390542E+02  0.89604244186E+02  0.00000000000E+00 0.  1.
         11    1    1    2    0    0  0.20297529961E+02  0.21045384386E+02  0.50452316802E+01  0.29670731187E+02  0.00000000000E+00 0. -1.
</event>
<event>
 7    1  0.1243146E-005  0.2527616E+03  0.7561462E-02  0.1111572E+00
          1   -1    0    0  501    0  0.00000000000E+00  0.00000000000E+00  0.11468427461E+03  0.11468427461E+03  0.00000000000E+00 0. -1.
         -1   -1    0    0    0  501 -0.00000000000E+00 -0.00000000000E+00 -0.72942813815E+03  0.72942813815E+03  0.00000000000E+00 0.  1.
         23    2    1    2    0    0  0.18969420118E+03 -0.15961608514E+03 -0.46661106809E+03  0.54298735206E+03  0.12509272974E+03 0.  0.
          5    1    3    3  502    0  0.10476303786E+03 -0.11955122143E+03 -0.17430868582E+03  0.23594232134E+03  0.41800000000E+01 0. -1.
         -5    1    3    3    0  502  0.84931163314E+02 -0.40064863711E+02 -0.29230238228E+03  0.30704503072E+03  0.41800000000E+01 0. -1.
        -11    1    1    2    0    0 -0.51293302455E+02  0.73072852854E+02 -0.92792564495E+02  0.12876763851E+03  0.00000000000E+00 0.  1.
         11    1    1    2    0    0 -0.13840089872E+03  0.86543232287E+02 -0.55340230955E+02  0.17235742219E+03  0.00000000000E+00 0. -1.
</event>
<event>
 7    1  0.1243146E-005  0.1568194E+03  0.7561462E-02  0.1192335E+00
         -2   -1    0    0    0  501 -0.00000000000E+00  0.00000000000E+00  0.79190914479E+02  0.79190914479E+02  0.00000000000E+00 0.  1.
          2   -1    0    0  501    0  0.00000000000E+00 -0.00000000000E+00 -0.75432608622E+03  0.75432608622E+03  0.00000000000E+00 0. -1.
         23    2    1    2    0    0 -0.11223363837E+03 -0.38129794956E+02 -0.37570012075E+02  0.17793941653E+03  0.12728181058E+03 0.  0.
          5    1    3    3  502    0 -0.64697012440E+02  0.35067596094E+02 -0.50864414288E+02  0.89555015244E+02  0.41800000000E+01 0. -1.
         -5    1    3    3    0  502 -0.47536625929E+02 -0.73197391050E+02  0.13294402213E+02  0.88384401290E+02  0.41800000000E+01 0.  1.
        -11    1    1    2    0    0  0.11229039104E+03  0.62277388534E+02 -0.54357133373E+03  0.55853146724E+03  0.00000000000E+00 0. -1.
         11    1    1    2    0    0 -0.56752674949E-01 -0.24147593578E+02 -0.93993825934E+02  0.97046116925E+02  0.00000000000E+00 0.  1.
</event>
<event>
 7    1  0.1243146E-005  0.1307603E+03  0.7561462E-02  0.1226332E+00
          1   -1    0    0  501    0  0.00000000000E+00  0.00000000000E+00  0.88308800757E+03  0.88308800757E+03  0.00000000000E+00 0. -1.
         -1   -1    0    0    0  501 -0.00000000000E+00 -0.00000000000E+00 -0.27934224132E+02  0.27934224132E+02  0.00000000000E+00 0.  1.
         23    2    1    2    0    0  0.67696171573E+02  0.91175023035E+02  0.46155674981E+03  0.49151177480E+03  0.12511408794E+03 0.  0.
          5    1    3    3  502    0  0.86343075358E+02  0.80837012138E+02  0.45292562649E+03  0.46813336211E+03  0.41800000000E+01 0.  1.
         -5    1    3    3    0  502 -0.18646903785E+02  0.10338010897E+02  0.86311233242E+01  0.23378412690E+02  0.41800000000E+01 0.  1.
        -11    1    1    2    0    0 -0.45935936649E+02 -0.26117798823E+02  0.29314397197E+03  0.29786849110E+03  0.00000000000E+00 0. -1.
         11    1    1    2    0    0 -0.21760234924E+02 -0.65057224212E+02  0.10045306166E+03  0.12164196580E+03  0.00000000000E+00 0.  1.
</event>
<event>
 7    1  0.1243146E-005  0.9304697E+02  0.7561462E-02  0.1295636E+00
          1   -1    0    0  501    0  0.00000000000E+00  0.00000000000E+00  0.17149050250E+03  0.17149050250E+03  0.00000000000E+00 0. -1.
         -1   -1    0    0    0  501 -0.00000000000E+00 -0.00000000000E+00 -0.10074017314E+03  0.10074017314E+03  0.00000000000E+00 0.  1.
         23    2    1    2    0    0  0.38212136386E+02  0.49319452928E+02  0.18004845869E+01  0.13979879157E+03  0.12509150480E+03 0.  0.
          5    1    3    3  502    0  0.26649926209E+01 -0.11841973758E+02  0.51608388089E+02  0.53181130575E+02  0.41800000000E+01 0.  1.
         -5    1    3    3    0  502  0.35547143765E+02  0.61161426686E+02 -0.49807903502E+02  0.86617660990E+02  0.41800000000E+01 0.  1.
        -11    1    1    2    0    0 -0.14999416152E+02  0.22428634728E+02 -0.42767956703E+01  0.27318805279E+02  0.00000000000E+00 0.  1.
         11    1    1    2    0    0 -0.23212720234E+02 -0.71748087656E+02  0.73226640443E+02  0.10511307879E+03  0.00000000000E+00 0. -1.
</event>
<event>
 7    1  0.1243146E-005  0.1007686E+03  0.7561462E-02  0.1278688E+00
         -1   -1    0    0    0  501 -0.00000000000E+00  0.00000000000E+00  0.12358067296E+03  0.12358067296E+03  0.00000000000E+00 0.  1.
          1   -1    0    0  501    0  0.00000000000E+00 -0.00000000000E+00 -0.11034376970E+03  0.11034376970E+03  0.00000000000E+00 0. -1.
         23    2    1    2    0    0 -0.19081994483E+02 -0.18673315270E+02  0.31303084816E+02  0.13167961396E+03  0.12508725913E+03 0.  0.
          5    1    3    3  502    0 -0.56880271201E+02 -0.26008628530E+02  0.57386742094E+02  0.84985437447E+02  0.41800000000E+01 0. -1.
         -5    1    3    3    0  502  0.37798276718E+02  0.73353132599E+01 -0.26083657278E+02  0.46694176515E+02  0.41800000000E+01 0. -1.
        -11    1    1    2    0    0 -0.38793836057E+02 -0.15266271280E+01 -0.20031216865E+01  0.38875503893E+02  0.00000000000E+00 0.  1.
         11    1    1    2    0    0  0.57875830540E+02  0.20199942398E+02 -0.16063059878E+02  0.63369324805E+02  0.00000000000E+00 0. -1.
</event>
<event>
 7    1  0.1243146E-005  0.1106537E+03  0.7561462E-02  0.1259364E+00
          4   -1    0    0  501    0  0.00000000000E+00  0.00000000000E+00  0.69210998733E+02  0.69210998733E+02  0.00000000000E+00 0. -1.
         -4   -1    0    0    0  501 -0.00000000000E+00 -0.00000000000E+00 -0.27993370448E+03  0.27993370448E+03  0.00000000000E+00 0.  1.
         23    2    1    2    0    0 -0.42875046729E+01 -0.76599788298E+02 -0.16681369012E+03  0.22217886218E+03  0.12510287496E+03 0.  0.
          5    1    3    3  502    0 -0.41263842770E+02 -0.17863527763E+01 -0.73630028362E+01  0.42161380280E+02  0.41800000000E+01 0.  1.
         -5    1    3    3    0  502  0.36976338097E+02 -0.74813435522E+02 -0.15945068729E+03  0.18001748190E+03  0.41800000000E+01 0.  1.
        -11    1    1    2    0    0 -0.26964278666E+02  0.37306314314E+02  0.16062751559E+02  0.48752901445E+02  0.00000000000E+00 0. -1.
         11    1    1    2    0    0  0.31251783339E+02  0.39293473985E+02 -0.59971767178E+02  0.78212939583E+02  0.00000000000E+00 0.  1.
</event>
<event>
 7    1  0.1243146E-005  0.1136968E+03  0.7561462E-02  0.1253873E+00
         -1   -1    0    0    0  501 -0.00000000000E+00  0.00000000000E+00  0.18189078699E+03  0.18189078699E+03  0.00000000000E+00 0.  1.
          1   -1    0    0  501    0  0.00000000000E+00 -0.00000000000E+00 -0.83762967724E+02  0.83762967724E+02  0.00000000000E+00 0. -1.
         23    2    1    2    0    0  0.51523553088E+02 -0.12751080518E+02  0.86543941120E+02  0.16110489447E+03  0.12509063394E+03 0.  0.
          5    1    3    3  502    0  0.88715458605E+02 -0.11633543693E+01  0.32991041494E+02  0.94750552546E+02  0.41800000000E+01 0.  1.
         -5    1    3    3    0  502 -0.37191905517E+02 -0.11587726149E+02  0.53552899626E+02  0.66354341920E+02  0.41800000000E+01 0.  1.
        -11    1    1    2    0    0 -0.63119508169E+02 -0.18733741221E+02 -0.69689603286E+01  0.66208698671E+02  0.00000000000E+00 0. -1.
         11    1    1    2    0    0  0.11595955081E+02  0.31484821739E+02  0.18552838469E+02  0.38340161573E+02  0.00000000000E+00 0.  1.
</event>
<event>
 7    1  0.1243146E-005  0.1426049E+03  0.7561462E-02  0.1209866E+00
         -2   -1    0    0    0  501 -0.00000000000E+00  0.00000000000E+00  0.39473688773E+02  0.39473688773E+02  0.00000000000E+00 0.  1.
          2   -1    0    0  501    0  0.00000000000E+00 -0.00000000000E+00 -0.65880979391E+03  0.65880979391E+03  0.00000000000E+00 0. -1.
         23    2    1    2    0    0 -0.56201930499E+02 -0.10387411079E+03 -0.29274306828E+03  0.33955023072E+03  0.12508943710E+03 0.  0.
          5    1    3    3  502    0 -0.55496602421E+02  0.17083735411E+00 -0.16842919818E+03  0.17738593311E+03  0.41800000000E+01 0. -1.
         -5    1    3    3    0  502 -0.70532807823E+00 -0.10404494814E+03 -0.12431387010E+03  0.16216429761E+03  0.41800000000E+01 0. -1.
        -11    1    1    2    0    0  0.24402870481E+02  0.10108655696E+02 -0.12156950573E+02  0.29077077826E+02  0.00000000000E+00 0.  1.
         11    1    1    2    0    0  0.31799060019E+02  0.93765455091E+02 -0.31443608629E+03  0.32965617413E+03  0.00000000000E+00 0. -1.
</event>
<event>
 7    1  0.1243146E-005  0.1552555E+03  0.7561462E-02  0.1194160E+00
          2   -1    0    0  501    0  0.00000000000E+00  0.00000000000E+00  0.83695704823E+03  0.83695704823E+03  0.00000000000E+00 0. -1.
         -2   -1    0    0    0  501 -0.00000000000E+00 -0.00000000000E+00 -0.33896588017E+02  0.33896588017E+02  0.00000000000E+00 0.  1.
         23    2    1    2    0    0 -0.11178001797E+03 -0.14856755212E+02  0.26406619976E+03  0.31319896095E+03  0.12508851141E+03 0.  0.
          5    1    3    3  502    0 -0.12470967564E+01  0.42660663165E+02  0.54449391872E+02  0.69308701526E+02  0.41800000000E+01 0. -1.
         -5    1    3    3    0  502 -0.11053292121E+03 -0.57517418377E+02  0.20961680789E+03  0.24389025942E+03  0.41800000000E+01 0. -1.
        -11    1    1    2    0    0  0.10145097918E+03  0.45079946762E+02  0.42692018567E+03  0.44111829220E+03  0.00000000000E+00 0.  1.
         11    1    1    2    0    0  0.10329038785E+02 -0.30223191550E+02  0.11207407477E+03  0.11653638310E+03  0.00000000000E+00 0. -1.
</event>
<event>
 7    1  0.1243146E-005  0.2634057E+03  0.7561462E-02  0.1105114E+00
          1   -1    0    0  501    0  0.00000000000E+00  0.00000000000E+00  0.10053873316E+04  0.10053873316E+04  0.00000000000E+00 0. -1.
         -1   -1    0    0    0  501 -0.00000000000E+00 -0.00000000000E+00 -0.10373648086E+03  0.10373648086E+03  0.00000000000E+00 0.  1.
         23    2    1    2    0    0 -0.19842002898E+03  0.14528294644E+03  0.15265871215E+03  0.31532425070E+03  0.12508820191E+03 0.  0.
          5    1    3    3  502    0 -0.17376258322E+03  0.75020539236E+02  0.64836151467E+02  0.20010676044E+03  0.41800000000E+01 0. -1.
         -5    1    3    3    0  502 -0.24657445757E+02  0.70262407202E+02  0.87822560679E+02  0.11521749026E+03  0.41800000000E+01 0. -1.
        -11    1    1    2    0    0  0.96975706902E+02 -0.15521375241E+02  0.28194116294E+03  0.29855656111E+03  0.00000000000E+00 0. -1.
         11    1    1    2    0    0  0.10144432208E+03 -0.12976157120E+03  0.46705097567E+03  0.49524300068E+03  0.00000000000E+00 0.  1.
</event>
<event>
 7    1  0.1243146E-005  0.8555797E+02  0.7561462E-02  0.1313980E+00
         -2   -1    0    0    0  501 -0.00000000000E+00  0.00000000000E+00  0.13389423046E+03  0.13389423046E+03  0.00000000000E+00 0.  1.
          2   -1    0    0  501    0  0.00000000000E+00 -0.00000000000E+00 -0.11314454323E+03  0.11314454323E+03  0.00000000000E+00 0. -1.
         23    2    1    2    0    0  0.10970212291E+02  0.57619299226E+02  0.20573769839E+02  0.13968296962E+03  0.12509085816E+03 0.  0.
          5    1    3    3  502    0  0.12396934782E+02  0.62773456487E+02  0.67013670575E+02  0.92749637602E+02  0.41800000000E+01 0. -1.
         -5    1    3    3    0  502 -0.14267224913E+01 -0.51541572615E+01 -0.46439900736E+02  0.46933332021E+02  0.41800000000E+01 0. -1.
        -11    1    1    2    0    0 -0.46320680457E+02 -0.28321661112E+02  0.19296997416E+02  0.57620274517E+02  0.00000000000E+00 0.  1.
         11    1    1    2    0    0  0.35350468166E+02 -0.29297638114E+02 -0.19121080022E+02  0.49735529552E+02  0.00000000000E+00 0. -1.
</event>
<event>
 7    1  0.1243146E-005  0.1588834E+03  0.7561462E-02  0.1189963E+00
         -3   -1    0    0    0  501 -0.00000000000E+00  0.00000000000E+00  0.70838877116E+02  0.70838877116E+02  0.00000000000E+00 0.  1.
          3   -1    0    0  501    0  0.00000000000E+00 -0.00000000000E+00 -0.42693060460E+03  0.42693060460E+03  0.00000000000E+00 0. -1.
         23    2    1    2    0    0 -0.11657693693E+03  0.54531475638E+02 -0.12647828983E+03  0.21958137582E+03  0.12512137607E+03 0.  0.
          5    1    3    3  502    0  0.21584437098E+01 -0.29983461193E+02 -0.71691865844E+01  0.31185516841E+02  0.41800000000E+01 0. -1.
         -5    1    3    3    0  502 -0.11873538064E+03  0.84514936831E+02 -0.11930910325E+03  0.18839585898E+03  0.41800000000E+01 0. -1.
        -11    1    1    2    0    0  0.11502906121E+03 -0.32505325428E+02 -0.22620566851E+03  0.25584621469E+03  0.00000000000E+00 0. -1.
         11    1    1    2    0    0  0.15478757145E+01 -0.22026150210E+02 -0.34077691470E+01  0.22341891211E+02  0.00000000000E+00 0.  1.
</event>
<event>
 7    1  0.1243146E-005  0.1557234E+03  0.7561462E-02  0.1193611E+00
          1   -1    0    0  501    0  0.00000000000E+00  0.00000000000E+00  0.50030918179E+03  0.50030918179E+03  0.00000000000E+00 0. -1.
         -1   -1    0    0    0  501 -0.00000000000E+00 -0.00000000000E+00 -0.54378661216E+02  0.54378661216E+02  0.00000000000E+00 0.  1.
         23    2    1    2    0    0  0.27947180049E+02 -0.12019511232E+03  0.25099245079E+03  0.30638856401E+03  0.12509529131E+03 0.  0.
          5    1    3    3  502    0 -0.43361822388E+02 -0.76264615250E+02  0.16087686466E+03  0.18329041754E+03  0.41800000000E+01 0.  1.
         -5    1    3    3    0  502  0.71309002437E+02 -0.43930497074E+02  0.90115586132E+02  0.12309814648E+03  0.41800000000E+01 0.  1.
        -11    1    1    2    0    0  0.21508036526E+02  0.43020910329E+02  0.12206836605E+03  0.13120244034E+03  0.00000000000E+00 0. -1.
         11    1    1    2    0    0 -0.49455216575E+02  0.77174201994E+02  0.72869703735E+02  0.11709683865E+03  0.00000000000E+00 0.  1.
</event>
<event>
 7    1  0.1243146E-005  0.1685601E+03  0.7561462E-02  0.1179358E+00
          1   -1    0    0  501    0  0.00000000000E+00  0.00000000000E+00  0.36743672561E+02  0.36743672561E+02  0.00000000000E+00 0. -1.
         -1   -1    0    0    0  501 -0.00000000000E+00 -0.00000000000E+00 -0.11119066568E+04  0.11119066568E+04  0.00000000000E+00 0.  1.
         23    2    1    2    0    0 -0.23477066589E+01  0.15710782202E+03 -0.74517042478E+03  0.77176087624E+03  0.12509000227E+03 0.  0.
          5    1    3    3  502    0  0.21550841862E+02  0.49075246423E+02 -0.73712151394E+02  0.91234709731E+02  0.41800000000E+01 0.  1.
         -5    1    3    3    0  502 -0.23898548521E+02  0.10803257560E+03 -0.67145827338E+03  0.68052616651E+03  0.41800000000E+01 0.  1.
        -11    1    1    2    0    0 -0.34341495810E+02 -0.86420184935E+02 -0.11674656576E+03  0.14925664915E+03  0.00000000000E+00 0.  1.
         11    1    1    2    0    0  0.36689202469E+02 -0.70687637083E+02 -0.21324599374E+03  0.22763280401E+03  0.00000000000E+00 0. -1.
</event>
<event>
 7    1  0.1243146E-005  0.9711070E+02  0.7561462E-02  0.1286492E+00
         -1   -1    0    0    0  501 -0.00000000000E+00  0.00000000000E+00  0.21353297566E+02  0.21353297566E+02  0.00000000000E+00 0.  1.
          1   -1    0    0  501    0  0.00000000000E+00 -0.00000000000E+00 -0.53768778969E+03  0.53768778969E+03  0.00000000000E+00 0. -1.
         23    2    1    2    0    0  0.11600116332E+01 -0.21591558267E+02 -0.31458105163E+03  0.33922993675E+03  0.12509264938E+03 0.  0.
          5    1    3    3  502    0  0.21418413169E+02  0.41838714520E+02 -0.61586463824E+02  0.77586025685E+02  0.41800000000E+01 0.  1.
         -5    1    3    3    0  502 -0.20258401536E+02 -0.63430272787E+02 -0.25299458781E+03  0.26164391107E+03  0.41800000000E+01 0.  1.
        -11    1    1    2    0    0 -0.11952792751E+02 -0.27535027334E+02 -0.12105363585E+03  0.12471980491E+03  0.00000000000E+00 0.  1.
         11    1    1    2    0    0  0.10792781117E+02  0.49126585601E+02 -0.80699804648E+02  0.95091345596E+02  0.00000000000E+00 0. -1.
</event>
<event>
 7    1  0.1243146E-005  0.1797890E+03  0.7561462E-02  0.1168007E+00
          2   -1    0    0  501    0  0.00000000000E+00  0.00000000000E+00  0.35712236089E+03  0.35712236089E+03  0.00000000000E+00 0. -1.
         -2   -1    0    0    0  501 -0.00000000000E+00 -0.00000000000E+00 -0.11360729371E+03  0.11360729371E+03  0.00000000000E+00 0.  1.
         23    2    1    2    0    0  0.15826881745E+03 -0.38045051356E+02  0.73145910286E+02  0.21793147920E+03  0.12508941173E+03 0.  0.
          5    1    3    3  502    0  0.68536459966E+02 -0.51238343792E+02  0.91449004894E+02  0.12531163998E+03  0.41800000000E+01 0.  1.
         -5    1    3    3    0  502  0.89732357481E+02  0.13193292436E+02 -0.18303094607E+02  0.92619839217E+02  0.41800000000E+01 0.  1.
        -11    1    1    2    0    0 -0.18798807113E+02  0.39376799536E+02  0.63683110052E+02  0.77197577659E+02  0.00000000000E+00 0. -1.
         11    1    1    2    0    0 -0.13947001033E+03 -0.13317481799E+01  0.10668604684E+03  0.17560059774E+03  0.00000000000E+00 0.  1.
</event>
<event>
 7    1  0.1243146E-005  0.1637554E+03  0.7561462E-02  0.1184521E+00
         -2   -1    0    0    0  501 -0.00000000000E+00  0.00000000000E+00  0.25071723591E+03  0.25071723591E+03  0.00000000000E+00 0.  1.
          2   -1    0    0  501    0  0.00000000000E+00 -0.00000000000E+00 -0.16366422252E+03  0.16366422252E+03  0.00000000000E+00 0. -1.
         23    2    1    2    0    0 -0.43009261907E+02  0.15504999128E+03  0.10834848802E+03  0.23081977375E+03  0.12509227272E+03 0.  0.
          5    1    3    3  502    0 -0.29250280811E+02  0.10689494800E+03  0.13436991262E+03  0.17422644647E+03  0.41800000000E+01 0.  1.
         -5    1    3    3    0  502 -0.13758981095E+02  0.48155043283E+02 -0.26021424599E+02  0.56593327279E+02  0.41800000000E+01 0.  1.
        -11    1    1    2    0    0 -0.24328871041E+01 -0.68967860892E+02  0.27971192943E+02  0.74463900048E+02  0.00000000000E+00 0.  1.
         11    1    1    2    0    0  0.45442149011E+02 -0.86082130388E+02 -0.49266667569E+02  0.10909778463E+03  0.00000000000E+00 0. -1.
</event>
<event>
 7    1  0.1243146E-005  0.1100788E+03  0.7561462E-02  0.1260424E+00
         -1   -1    0    0    0  501 -0.00000000000E+00  0.00000000000E+00  0.10478119469E+03  0.10478119469E+03  0.00000000000E+00 0.  1.
          1   -1    0    0  501    0  0.00000000000E+00 -0.00000000000E+00 -0.15547464830E+03  0.15547464830E+03  0.00000000000E+00 0. -1.
         23    2    1    2    0    0 -0.40316501981E+02  0.47556335890E+02 -0.46116422851E+01  0.13984146051E+03  0.12508933375E+03 0.  0.
          5    1    3    3  502    0  0.44480596280E+02  0.12230096369E+02  0.80595105108E+01  0.47016239879E+02  0.41800000000E+01 0. -1.
         -5    1    3    3    0  502 -0.84797098261E+02  0.35326239521E+02 -0.12671152796E+02  0.92825220632E+02  0.41800000000E+01 0. -1.
        -11    1    1    2    0    0  0.37346049059E+02 -0.59127783184E+02 -0.66663332482E+02  0.96616882698E+02  0.00000000000E+00 0. -1.
         11    1    1    2    0    0  0.29704529220E+01  0.11571447294E+02  0.20581521151E+02  0.23797499783E+02  0.00000000000E+00 0.  1.
</event>
<event>
 7    1  0.1243146E-005  0.9930444E+02  0.7561462E-02  0.1281765E+00
         -1   -1    0    0    0  501 -0.00000000000E+00  0.00000000000E+00  0.21085008984E+02  0.21085008984E+02  0.00000000000E+00 0.  1.
          1   -1    0    0  501    0  0.00000000000E+00 -0.00000000000E+00 -0.55917765396E+03  0.55917765396E+03  0.00000000000E+00 0. -1.
         23    2    1    2    0    0  0.17526246428E+01  0.43030295239E+01 -0.31434790615E+03  0.33835509292E+03  0.12509186642E+03 0.  0.
          5    1    3    3  502    0  0.18029408771E+02  0.59821358502E+02 -0.11757238016E+03  0.13320807592E+03  0.41800000000E+01 0.  1.
         -5    1    3    3    0  502 -0.16276784128E+02 -0.55518328978E+02 -0.19677552599E+03  0.20514701700E+03  0.41800000000E+01 0.  1.
        -11    1    1    2    0    0 -0.30274169468E+02  0.23369164839E+02 -0.46228809353E+02  0.59997883434E+02  0.00000000000E+00 0.  1.
         11    1    1    2    0    0  0.28521544825E+02 -0.27672194363E+02 -0.17751592947E+03  0.18190968659E+03  0.00000000000E+00 0. -1.
</event>
<event>
 6    1  0.1243146E-005  0.2435399E+03  0.7561462E-02  0.1117457E+00
          2   -1    0    0  501    0  0.00000000000E+00  0.00000000000E+00  0.98344442246E+03  0.98344442246E+03  0.00000000000E+00 0. -1.
         -2   -1    0    0    0  501 -0.00000000000E+00 -0.00000000000E+00 -0.64392424831E+02  0.64392424831E+02  0.00000000000E+00 0.  1.
          5    1    1    2  502    0 -0.16727262816E+02  0.39183442037E+02  0.30330274666E+02  0.52464668230E+02  0.41800000000E+01 0. -1.
         -5    1    1    2    0  502 -0.18444218509E+03 -0.10750235150E+03  0.36309405126E+03  0.42122492528E+03  0.41800000000E+01 0.  1.
        -11    1    1    2    0    0  0.14361216158E+03  0.89724221828E+02  0.39736737049E+03  0.43194411220E+03  0.00000000000E+00 0. -1.
         11    1    1    2    0    0  0.57557286322E+02 -0.21405312366E+02  0.12826030121E+03  0.14220314158E+03  0.00000000000E+00 0.  1.
</event>
<event>
 6    1  0.1243146E-005  0.2088660E+03  0.7561462E-02  0.1142467E+00
          1   -1    0    0  501    0  0.00000000000E+00  0.00000000000E+00  0.22887839898E+02  0.22887839898E+02  0.00000000000E+00 0. -1.
         -1   -1    0    0    0  501 -0.00000000000E+00 -0.00000000000E+00 -0.22438148219E+04  0.22438148219E+04  0.00000000000E+00 0.  1.
          5    1    1    2  502    0 -0.32775374346E+02 -0.68508857473E+02 -0.20225999341E+03  0.21608856066E+03  0.41800000000E+01 0. -1.
         -5    1    1    2    0  502  0.17428133430E+03  0.13838677396E+02 -0.12105512743E+04  0.12231178818E+04  0.41800000000E+01 0.  1.
        -11    1    1    2    0    0 -0.10676353394E+03  0.59186991993E+01 -0.64371138335E+03  0.65253185994E+03  0.00000000000E+00 0. -1.
         11    1    1    2    0    0 -0.34742426008E+02  0.48751480877E+02 -0.16440433087E+03  0.17496435940E+03  0.00000000000E+00 0.  1.
</event>
<event>
 7    1  0.1243146E-005  0.1068589E+03  0.7561462E-02  0.1266500E+00
         -1   -1    0    0    0  501 -0.00000000000E+00  0.00000000000E+00  0.90984103020E+02  0.90984103020E+02  0.00000000000E+00 0.  1.
          1   -1    0    0  501    0  0.00000000000E+00 -0.00000000000E+00 -0.14598426816E+03  0.14598426816E+03  0.00000000000E+00 0. -1.
         23    2    1    2    0    0 -0.37345133264E+02 -0.87614819460E+01 -0.35421544774E+02  0.13556001317E+03  0.12510159388E+03 0.  0.
          5    1    3    3  502    0 -0.77036076965E+02 -0.46250959607E+01  0.64630446811E+01  0.77557668952E+02  0.41800000000E+01 0. -1.
         -5    1    3    3    0  502  0.39690943701E+02 -0.41363859854E+01 -0.41884589455E+02  0.58002344217E+02  0.41800000000E+01 0. -1.
        -11    1    1    2    0    0  0.13085990370E+02 -0.39868215964E+02  0.40361456609E+01  0.42154575788E+02  0.00000000000E+00 0.  1.
         11    1    1    2    0    0  0.24259142895E+02  0.48629697910E+02 -0.23614766024E+02  0.59253782218E+02  0.00000000000E+00 0. -1.
</event>
<event>
 7    1  0.1243146E-005  0.1072586E+03  0.7561462E-02  0.1265732E+00
          1   -1    0    0  501    0  0.00000000000E+00  0.00000000000E+00  0.38209877347E+02  0.38209877347E+02  0.00000000000E+00 0. -1.
         -1   -1    0    0    0  501 -0.00000000000E+00 -0.00000000000E+00 -0.30941600575E+03  0.30941600575E+03  0.00000000000E+00 0.  1.
         23    2    1    2    0    0  0.14093805600E+02  0.60897107481E+01 -0.16278636766E+03  0.20587279440E+03  0.12509390890E+03 0.  0.
          5    1    3    3  502    0 -0.47954818700E+01 -0.57914464255E+02 -0.63589127857E+02  0.86244602138E+02  0.41800000000E+01 0.  1.
         -5    1    3    3    0  502  0.18889287470E+02  0.64004175003E+02 -0.99197239805E+02  0.11962819226E+03  0.41800000000E+01 0.  1.
        -11    1    1    2    0    0  0.36302110112E+02  0.77675700714E+01 -0.59698953760E+02  0.70300379966E+02  0.00000000000E+00 0.  1.
         11    1    1    2    0    0 -0.50395915712E+02 -0.13857280820E+02 -0.48720806983E+02  0.71452708733E+02  0.00000000000E+00 0. -1.
</event>
<event>
 7    1  0.1243146E-005  0.8117189E+02  0.7561462E-02  0.1325758E+00
         -1   -1    0    0    0  501 -0.00000000000E+00  0.00000000000E+00  0.13040512099E+03  0.13040512099E+03  0.00000000000E+00 0.  1.
          1   -1    0    0  501    0  0.00000000000E+00 -0.00000000000E+00 -0.98773873775E+02  0.98773873775E+02  0.00000000000E+00 0. -1.
         23    2    1    2    0    0  0.26878864588E+02  0.15017047661E+02  0.54778562554E+02  0.12875257889E+03  0.11237682401E+03 0.  0.
          5    1    3    3  502    0  0.42565693035E+02  0.38860750294E+00  0.82813441674E+02  0.93206908334E+02  0.41800000000E+01 0. -1.
         -5    1    3    3    0  502 -0.15686828447E+02  0.14628440158E+02 -0.28034879120E+02  0.35545670558E+02  0.41800000000E+01 0.  1.
        -11    1    1    2    0    0 -0.56262160647E+02 -0.31033934000E+02 -0.15624799863E+02  0.66126168428E+02  0.00000000000E+00 0.  1.
         11    1    1    2    0    0  0.29383296059E+02  0.16016886340E+02 -0.75225154799E+01  0.34300247440E+02  0.00000000000E+00 0. -1.
</event>
<event>
 6    1  0.1243146E-005  0.1332139E+03  0.7561462E-02  0.1222763E+00
         -2   -1    0    0    0  501 -0.00000000000E+00  0.00000000000E+00  0.16594394996E+04  0.16594394996E+04  0.00000000000E+00 0.  1.
          2   -1    0    0  501    0  0.00000000000E+00 -0.00000000000E+00 -0.16525206210E+03  0.16525206210E+03  0.00000000000E+00 0. -1.
          5    1    1    2  502    0 -0.86251873189E+02 -0.24524762476E+02  0.76828105501E+03  0.77350766091E+03  0.41800000000E+01 0. -1.
         -5    1    1    2    0  502  0.83936379576E+02  0.17193005154E+02  0.87313036508E+03  0.87733404246E+03  0.41800000000E+01 0.  1.
        -11    1    1    2    0    0 -0.20981734874E+02 -0.36007395061E+02 -0.83675209055E+02  0.93478908358E+02  0.00000000000E+00 0.  1.
         11    1    1    2    0    0  0.23297228486E+02  0.43339152384E+02 -0.63548773525E+02  0.80370949982E+02  0.00000000000E+00 0. -1.
</event>
<event>
 7    1  0.1243146E-005  0.8976549E+02  0.7561462E-02  0.1303421E+00
         -1   -1    0    0    0  501 -0.00000000000E+00  0.00000000000E+00  0.61125831620E+02  0.61125831620E+02  0.00000000000E+00 0.  1.
          1   -1    0    0  501    0  0.00000000000E+00 -0.00000000000E+00 -0.35185875553E+03  0.35185875553E+03  0.00000000000E+00 0. -1.
         23    2    1    2    0    0  0.46105543692E+02  0.59462683147E+02 -0.69166728893E+02  0.16153253140E+03  0.12508873038E+03 0.  0.
          5    1    3    3  502    0 -0.19034235971E+01 -0.93351591560E+01  0.29894614646E+02  0.31653255799E+02  0.41800000000E+01 0.  1.
         -5    1    3    3    0  502  0.48008967289E+02  0.68797842303E+02 -0.99061343539E+02  0.12987927560E+03  0.41800000000E+01 0.  1.
        -11    1    1    2    0    0 -0.47691539763E-01 -0.30973241198E+02 -0.92315593787E+01  0.32319740614E+02  0.00000000000E+00 0.  1.
         11    1    1    2    0    0 -0.46057852152E+02 -0.28489441949E+02 -0.21233463564E+03  0.21913231514E+03  0.00000000000E+00 0. -1.
</event>
<event>
 6    1  0.1243146E-005  0.9823249E+02  0.7561462E-02  0.1284057E+00
         -2   -1    0    0    0  501 -0.00000000000E+00  0.00000000000E+00  0.18375358096E+03  0.18375358096E+03  0.00000000000E+00 0.  1.
          2   -1    0    0  501    0  0.00000000000E+00 -0.00000000000E+00 -0.83817634819E+02  0.83817634819E+02  0.00000000000E+00 0. -1.
          5    1    1    2  502    0  0.55749413915E+02  0.21513378779E+02 -0.22717782104E+02  0.64065533964E+02  0.41800000000E+01 0. -1.
         -5    1    1    2    0  502 -0.34781467039E+02 -0.38250449244E+02  0.87539128874E+02  0.10175175085E+03  0.41800000000E+01 0.  1.
        -11    1    1    2    0    0  0.14612788457E+02 -0.25547571803E+02 -0.92884472059E+01  0.30862392373E+02  0.00000000000E+00 0. -1.
         11    1    1    2    0    0 -0.35580735333E+02  0.42284642267E+02  0.44403046574E+02  0.70891538589E+02  0.00000000000E+00 0.  1.
</event>
<event>
 7    1  0.1243146E-005  0.9845223E+02  0.7561462E-02  0.1283585E+00
         -2   -1    0    0    0  501 -0.00000000000E+00  0.00000000000E+00  0.16508578648E+03  0.16508578648E+03  0.00000000000E+00 0.  1.
          2   -1    0    0  501    0  0.00000000000E+00 -0.00000000000E+00 -0.92826517735E+02  0.92826517735E+02  0.00000000000E+00 0. -1.
         23    2    1    2    0    0 -0.56424374073E+02 -0.94654735596E+01  0.58473591147E+02  0.14946831918E+03  0.12509321484E+03 0.  0.
          5    1    3    3  502    0 -0.32157439975E+02 -0.66358516752E+02  0.20042953099E+02  0.76529380372E+02  0.41800000000E+01 0.  1.
         -5    1    3    3    0  502 -0.24266934098E+02  0.56893043193E+02  0.38430638047E+02  0.72938938812E+02  0.41800000000E+01 0.  1.
        -11    1    1    2    0    0  0.17889389797E+02 -0.69171404072E+01 -0.37569159021E+02  0.42181972551E+02  0.00000000000E+00 0. -1.
         11    1    1    2    0    0  0.38534984276E+02  0.16382613967E+02  0.51354836618E+02  0.66262012478E+02  0.00000000000E+00 0.  1.
</event>
<event>
 7    1  0.1243146E-005  0.9935537E+02  0.7561462E-02  0.1281657E+00
          3   -1    0    0  501    0  0.00000000000E+00  0.00000000000E+00  0.91404694113E+02  0.91404694113E+02  0.00000000000E+00 0. -1.
         -3   -1    0    0    0  501 -0.00000000000E+00 -0.00000000000E+00 -0.19966971646E+03  0.19966971646E+03  0.00000000000E+00 0.  1.
         23    2    1    2    0    0 -0.55225848034E+02  0.65918303291E+01 -0.12253008467E+03  0.18372335695E+03  0.12508918307E+03 0.  0.
          5    1    3    3  502    0 -0.37681592521E+02 -0.44847513408E+02 -0.11226553743E+02  0.59788876748E+02  0.41800000000E+01 0.  1.
         -5    1    3    3    0  502 -0.17544255512E+02  0.51439343737E+02 -0.11130353093E+03  0.12393448020E+03  0.41800000000E+01 0.  1.
        -11    1    1    2    0    0 -0.55161768102E+00 -0.26309909406E+02  0.35766711686E+02  0.44404653808E+02  0.00000000000E+00 0.  1.
         11    1    1    2    0    0  0.55777465715E+02  0.19718079076E+02 -0.21501649357E+02  0.62946399811E+02  0.00000000000E+00 0. -1.
</event>
<event>
 7    1  0.1243146E-005  0.1169330E+03  0.7561462E-02  0.1248244E+00
          1   -1    0    0  501    0  0.00000000000E+00  0.00000000000E+00  0.36583596345E+02  0.36583596345E+02  0.00000000000E+00 0. -1.
         -1   -1    0    0    0  501 -0.00000000000E+00 -0.00000000000E+00 -0.72298080742E+03  0.72298080742E+03  0.00000000000E+00 0.  1.
         23    2    1    2    0    0 -0.44729447727E+02 -0.15287729290E+02 -0.62806340308E+03  0.64214685666E+03  0.12511798058E+03 0.  0.
          5    1    3    3  502    0 -0.76084475890E+02 -0.45626216863E+02 -0.37999041899E+03  0.39023171330E+03  0.41800000000E+01 0. -1.
         -5    1    3    3    0  502  0.31355028163E+02  0.30338487574E+02 -0.24807298409E+03  0.25191514336E+03  0.41800000000E+01 0. -1.
        -11    1    1    2    0    0 -0.26375094467E+02 -0.59008859798E+01 -0.97520490200E+01  0.28732708254E+02  0.00000000000E+00 0. -1.
         11    1    1    2    0    0  0.71104542195E+02  0.21188615269E+02 -0.48581758974E+02  0.88684838855E+02  0.00000000000E+00 0.  1.
</event>
<event>
 7    1  0.1243146E-005  0.8942319E+02  0.7561462E-02  0.1304255E+00
         -2   -1    0    0    0  501 -0.00000000000E+00  0.00000000000E+00  0.20727419583E+03  0.20727419583E+03  0.00000000000E+00 0.  1.
          2   -1    0    0  501    0  0.00000000000E+00 -0.00000000000E+00 -0.66562695277E+02  0.66562695277E+02  0.00000000000E+00 0. -1.
         23    2    1    2    0    0  0.39075160258E+02  0.18608915110E+02  0.89078656459E+02  0.15956364626E+03  0.12510951322E+03 0.  0.
          5    1    3    3  502    0  0.57997915187E+02  0.34134424678E+02  0.10870103921E+03  0.12791522755E+03  0.41800000000E+01 0.  1.
         -5    1    3    3    0  502 -0.18922754930E+02 -0.15525509569E+02 -0.19622382752E+02  0.31648418703E+02  0.41800000000E+01 0.  1.
        -11    1    1    2    0    0  0.22652281240E+02 -0.24739875213E+01  0.44601856246E+02  0.50085647048E+02  0.00000000000E+00 0.  1.
         11    1    1    2    0    0 -0.61727441497E+02 -0.16134927588E+02  0.70309878517E+01  0.64187597807E+02  0.00000000000E+00 0. -1.
</event>
<event>
 7    1  0.1243146E-005  0.1046068E+03  0.7561462E-02  0.1270896E+00
          2   -1    0    0  501    0  0.00000000000E+00  0.00000000000E+00  0.38302682086E+03  0.38302682086E+03  0.00000000000E+00 0. -1.
         -2   -1    0    0    0  501 -0.00000000000E+00 -0.00000000000E+00 -0.52444030237E+02  0.52444030237E+02  0.00000000000E+00 0.  1.
         23    2    1    2    0    0  0.45071477112E+02 -0.56105825060E+02  0.92749980604E+02  0.17154797055E+03  0.12508735205E+03 0.  0.
          5    1    3    3  502    0  0.66402407380E+02 -0.70790382177E+02  0.10460689851E+03  0.14276075627E+03  0.41800000000E+01 0. -1.
         -5    1    3    3    0  502 -0.21330930268E+02  0.14684557117E+02 -0.11856917905E+02  0.28787214281E+02  0.41800000000E+01 0. -1.
        -11    1    1    2    0    0 -0.40685107506E+02  0.13302551060E+02  0.31485570459E+02  0.53137340775E+02  0.00000000000E+00 0.  1.
         11    1    1    2    0    0 -0.43863696058E+01  0.42803274000E+02  0.20634723956E+03  0.21078553978E+03  0.00000000000E+00 0. -1.
</event>
<event>
 7    1  0.1243146E-005  0.1056179E+03  0.7561462E-02  0.1268907E+00
         -3   -1    0    0    0  501 -0.00000000000E+00  0.00000000000E+00  0.10002525405E+03  0.10002525405E+03  0.00000000000E+00 0.  1.
          3   -1    0    0  501    0  0.00000000000E+00 -0.00000000000E+00 -0.13516128577E+03  0.13516128577E+03  0.00000000000E+00 0. -1.
         23    2    1    2    0    0 -0.21961482734E+02 -0.21510540955E+02  0.92160329564E+01  0.12914772090E+03  0.12509671641E+03 0.  0.
          5    1    3    3  502    0 -0.53236951127E+02  0.29679052527E+02 -0.17198502759E+02  0.63468732628E+02  0.41800000000E+01 0.  1.
         -5    1    3    3    0  502  0.31275468393E+02 -0.51189593482E+02  0.26414535716E+02  0.65678988277E+02  0.41800000000E+01 0.  1.
        -11    1    1    2    0    0 -0.15758501172E+02 -0.25352440680E+02  0.22596859249E+01  0.29936312199E+02  0.00000000000E+00 0.  1.
         11    1    1    2    0    0  0.37719983906E+02  0.46862981635E+02 -0.46611750606E+02  0.76102506714E+02  0.00000000000E+00 0. -1.
</event>
<event>
 7    1  0.1243146E-005  0.4512609E+03  0.7561462E-02  0.1027347E+00
          2   -1    0    0  501    0  0.00000000000E+00  0.00000000000E+00  0.32545323356E+04  0.32545323356E+04  0.00000000000E+00 0. -1.
         -2   -1    0    0    0  501 -0.00000000000E+00 -0.00000000000E+00 -0.65999557408E+02  0.65999557408E+02  0.00000000000E+00 0.  1.
         23    2    1    2    0    0  0.38658950023E+03  0.21913447364E+03  0.13220022307E+04  0.13997142706E+04  0.11848536623E+03 0.  0.
          5    1    3    3  502    0  0.23342119336E+03  0.18306931641E+03  0.96434222465E+03  0.10089465926E+04  0.41800000000E+01 0. -1.
         -5    1    3    3    0  502  0.15316830687E+03  0.36065157231E+02  0.35766000609E+03  0.39076767798E+03  0.41800000000E+01 0.  1.
        -11    1    1    2    0    0 -0.86722203721E+02 -0.79501063131E+02  0.62501470219E+03  0.63599098863E+03  0.00000000000E+00 0. -1.
         11    1    1    2    0    0 -0.29986729651E+03 -0.13963341051E+03  0.12415158452E+04  0.12848266338E+04  0.00000000000E+00 0.  1.
</event>
<event>
 7    1  0.1243146E-005  0.1291697E+03  0.7561462E-02  0.1228693E+00
         -1   -1    0    0    0  501 -0.00000000000E+00  0.00000000000E+00  0.86927823733E+02  0.86927823733E+02  0.00000000000E+00 0.  1.
          1   -1    0    0  501    0  0.00000000000E+00 -0.00000000000E+00 -0.24546012672E+03  0.24546012672E+03  0.00000000000E+00 0. -1.
         23    2    1    2    0    0 -0.93883279199E+00  0.94832974198E+02 -0.61480354622E+02  0.16858867821E+03  0.12509250183E+03 0.  0.
          5    1    3    3  502    0  0.41670680020E+02 -0.41053743104E+01  0.43001194668E+01  0.42299682020E+02  0.41800000000E+01 0. -1.
         -5    1    3    3    0  502 -0.42609512812E+02  0.98938348508E+02 -0.65780474088E+02  0.12628899619E+03  0.41800000000E+01 0. -1.
        -11    1    1    2    0    0  0.25869240035E+02 -0.62376627444E+02 -0.10875420771E+02  0.68398362614E+02  0.00000000000E+00 0.  1.
         11    1    1    2    0    0 -0.24930407243E+02 -0.32456346754E+02 -0.86176527598E+02  0.95400909633E+02  0.00000000000E+00 0. -1.
</event>
<event>
 7    1  0.1243146E-005  0.8651464E+02  0.7561462E-02  0.1311518E+00
         -2   -1    0    0    0  501 -0.00000000000E+00  0.00000000000E+00  0.53013491345E+02  0.53013491345E+02  0.00000000000E+00 0.  1.
          2   -1    0    0  501    0  0.00000000000E+00 -0.00000000000E+00 -0.27294918077E+03  0.27294918077E+03  0.00000000000E+00 0. -1.
         23    2    1    2    0    0 -0.31142616925E+02  0.52913553117E+00 -0.71481971516E+02  0.14740512318E+03  0.12509378687E+03 0.  0.
          5    1    3    3  502    0  0.26673593925E+02  0.80163566216E+00 -0.83883933582E+02  0.88125535151E+02  0.41800000000E+01 0. -1.
         -5    1    3    3    0  502 -0.57816210850E+02 -0.27250013098E+00  0.12401962065E+02  0.59279588025E+02  0.41800000000E+01 0. -1.
        -11    1    1    2    0    0  0.22051678340E+02 -0.41009226305E+02 -0.36498761494E+02  0.59162426846E+02  0.00000000000E+00 0.  1.
         11    1    1    2    0    0  0.90909385849E+01  0.40480090774E+02 -0.11195495641E+03  0.11939512209E+03  0.00000000000E+00 0. -1.
</event>
<event>
 7    1  0.1243146E-005  0.2727515E+03  0.7561462E-02  0.1099715E+00
         -2   -1    0    0    0  501 -0.00000000000E+00  0.00000000000E+00  0.15971054024E+03  0.15971054024E+03  0.00000000000E+00 0.  1.
          2   -1    0    0  501    0  0.00000000000E+00 -0.00000000000E+00 -0.50991848443E+03  0.50991848443E+03  0.00000000000E+00 0. -1.
         23    2    1    2    0    0 -0.24047068574E+03 -0.10775885361E+03 -0.16284695109E+03  0.33407220616E+03  0.12508792194E+03 0.  0.
          5    1    3    3  502    0 -0.70287302037E+02 -0.10124040365E+02 -0.10972031574E+03  0.13076246062E+03  0.41800000000E+01 0. -1.
         -5    1    3    3    0  502 -0.17018338371E+03 -0.97634813247E+02 -0.53126635343E+02  0.20330974554E+03  0.41800000000E+01 0. -1.
        -11    1    1    2    0    0  0.11510624829E+03  0.36487057590E+01 -0.70521366660E+02  0.13504082569E+03  0.00000000000E+00 0.  1.
         11    1    1    2    0    0  0.12536443746E+03  0.10411014785E+03 -0.11683962645E+03  0.20051599281E+03  0.00000000000E+00 0. -1.
</event>
<event>
 7    1  0.1243146E-005  0.1700801E+03  0.7561462E-02  0.1177764E+00
         -2   -1    0    0    0  501 -0.00000000000E+00  0.00000000000E+00  0.61829320431E+02  0.61829320431E+02  0.00000000000E+00 0.  1.
          2   -1    0    0  501    0  0.00000000000E+00 -0.00000000000E+00 -0.63402660715E+03  0.63402660715E+03  0.00000000000E+00 0. -1.
         23    2    1    2    0    0 -0.51739333352E+02  0.12488610618E+03 -0.13371913890E+03  0.22760077492E+03  0.12509119275E+03 0.  0.
          5    1    3    3  502    0 -0.28914771684E+02  0.14684269831E+03 -0.12342892293E+03  0.19403869069E+03  0.41800000000E+01 0. -1.
         -5    1    3    3    0  502 -0.22824561668E+02 -0.21956592128E+02 -0.10290215961E+02  0.33562084228E+02  0.41800000000E+01 0. -1.
        -11    1    1    2    0    0  0.44453422485E+02 -0.12922947742E+02 -0.19100593203E+03  0.19653593926E+03  0.00000000000E+00 0. -1.
         11    1    1    2    0    0  0.72859108673E+01 -0.11196315844E+03 -0.24747221580E+03  0.27171921341E+03  0.00000000000E+00 0.  1.
</event>
<event>
 7    1  0.1243146E-005  0.1460189E+03  0.7561462E-02  0.1205452E+00
         -2   -1    0    0    0  501 -0.00000000000E+00  0.00000000000E+00  0.11077997914E+03  0.11077997914E+03  0.00000000000E+00 0.  1.
          2   -1    0    0  501    0  0.00000000000E+00 -0.00000000000E+00 -0.24065720120E+03  0.24065720120E+03  0.00000000000E+00 0. -1.
         23    2    1    2    0    0 -0.42164363605E+02  0.90917028688E+02  0.59278778395E+01  0.16039147727E+03  0.12508615663E+03 0.  0.
          5    1    3    3  502    0 -0.67972955244E+02  0.34511924594E+01 -0.53965441277E+01  0.68401962417E+02  0.41800000000E+01 0. -1.
         -5    1    3    3    0  502  0.25808591639E+02  0.87465836228E+02  0.11324421967E+02  0.91989514850E+02  0.41800000000E+01 0. -1.
        -11    1    1    2    0    0  0.53695228407E+02 -0.14971595211E+02 -0.41959427960E+02  0.69770479514E+02  0.00000000000E+00 0.  1.
         11    1    1    2    0    0 -0.11530864802E+02 -0.75945433476E+02 -0.93845671937E+02  0.12127522356E+03  0.00000000000E+00 0. -1.
</event>
<event>
 7    1  0.1243146E-005  0.1426955E+03  0.7561462E-02  0.1209747E+00
          2   -1    0    0  501    0  0.00000000000E+00  0.00000000000E+00  0.43783508714E+03  0.43783508714E+03  0.00000000000E+00 0. -1.
         -2   -1    0    0    0  501 -0.00000000000E+00 -0.00000000000E+00 -0.90620099854E+02  0.90620099854E+02  0.00000000000E+00 0.  1.
         23    2    1    2    0    0 -0.13315364575E+03 -0.38948312003E+02  0.59477420868E+02  0.19604065905E+03  0.12509001568E+03 0.  0.
          5    1    3    3  502    0 -0.43727890321E+02 -0.16239426852E+02  0.87738077613E+02  0.99454964882E+02  0.41800000000E+01 0. -1.
         -5    1    3    3    0  502 -0.89425755424E+02 -0.22708885151E+02 -0.28260656745E+02  0.96585694166E+02  0.41800000000E+01 0. -1.
        -11    1    1    2    0    0  0.66010830617E+02  0.43252241852E+02  0.73440546470E+02  0.10780398903E+03  0.00000000000E+00 0.  1.
         11    1    1    2    0    0  0.67142815128E+02 -0.43039298487E+01  0.21429701995E+03  0.22461053892E+03  0.00000000000E+00 0. -1.
</event>
<event>
 7    1  0.1243146E-005  0.1603120E+03  0.7561462E-02  0.1188345E+00
          2   -1    0    0  501    0  0.00000000000E+00  0.00000000000E+00  0.95443081921E+02  0.95443081921E+02  0.00000000000E+00 0. -1.
         -2   -1    0    0    0  501 -0.00000000000E+00 -0.00000000000E+00 -0.30849414729E+03  0.30849414729E+03  0.00000000000E+00 0.  1.
         23    2    1    2    0    0 -0.11266536220E+03  0.73044761975E+02 -0.11735476003E+03  0.21782213666E+03  0.12508126329E+03 0.  0.
          5    1    3    3  502    0 -0.13070467888E+03  0.53875056933E+02 -0.58201301735E+02  0.15294148804E+03  0.41800000000E+01 0. -1.
         -5    1    3    3    0  502  0.18039316676E+02  0.19169705043E+02 -0.59153458297E+02  0.64880648625E+02  0.41800000000E+01 0. -1.
        -11    1    1    2    0    0  0.11582172166E+03 -0.44907337026E+02 -0.97244663537E+02  0.15775888157E+03  0.00000000000E+00 0.  1.
         11    1    1    2    0    0 -0.31563594611E+01 -0.28137424949E+02  0.15483582025E+01  0.28356210976E+02  0.00000000000E+00 0. -1.
</event>
<event>
 7    1  0.1243146E-005  0.1378849E+03  0.7561462E-02  0.1216204E+00
         -1   -1    0    0    0  501 -0.00000000000E+00  0.00000000000E+00  0.30057243087E+02  0.30057243087E+02  0.00000000000E+00 0.  1.
          1   -1    0    0  501    0  0.00000000000E+00 -0.00000000000E+00 -0.82559517606E+03  0.82559517606E+03  0.00000000000E+00 0. -1.
         23    2    1    2    0    0 -0.10262924400E+03  0.48810893109E+02 -0.45148419927E+03  0.48207403352E+03  0.12506848762E+03 0.  0.
          5    1    3    3  502    0  0.15453675819E+01  0.25887373117E+02 -0.27184357671E+03  0.27310977069E+03  0.41800000000E+01 0.  1.
         -5    1    3    3    0  502 -0.10417461158E+03  0.22923519992E+02 -0.17964062256E+03  0.20896426283E+03  0.41800000000E+01 0.  1.
        -11    1    1    2    0    0  0.35586556397E+02 -0.64710805424E+02 -0.21425082236E+03  0.22662150431E+03  0.00000000000E+00 0.  1.
         11    1    1    2    0    0  0.67042687601E+02  0.15899912315E+02 -0.12980291135E+03  0.14695688132E+03  0.00000000000E+00 0. -1.
</event>
<event>
 7    1  0.1243146E-005  0.1207472E+03  0.7561462E-02  0.1241869E+00
          2   -1    0    0  501    0  0.00000000000E+00  0.00000000000E+00  0.22434134511E+03  0.22434134511E+03  0.00000000000E+00 0. -1.
         -2   -1    0    0    0  501 -0.00000000000E+00 -0.00000000000E+00 -0.13862498160E+03  0.13862498160E+03  0.00000000000E+00 0.  1.
         23    2    1    2    0    0  0.37845210552E+01  0.62602297861E+02 -0.81398754055E+02  0.16188981075E+03  0.12509669606E+03 0.  0.
          5    1    3    3  502    0  0.22952271606E+02  0.95095094658E+02 -0.75134851782E+02  0.12342042842E+03  0.41800000000E+01 0.  1.
         -5    1    3    3    0  502 -0.19167750551E+02 -0.32492796798E+02 -0.62639022727E+01  0.38469382327E+02  0.41800000000E+01 0.  1.
        -11    1    1    2    0    0 -0.28769777391E+02 -0.73073172637E+02  0.14917558775E+03  0.16858453260E+03  0.00000000000E+00 0. -1.
         11    1    1    2    0    0  0.24985256336E+02  0.10470874776E+02  0.17939529813E+02  0.32491983360E+02  0.00000000000E+00 0.  1.
</event>
<event>
 7    1  0.1243146E-005  0.8231522E+02  0.7561462E-02  0.1322607E+00
          2   -1    0    0  501    0  0.00000000000E+00  0.00000000000E+00  0.45075021738E+03  0.45075021738E+03  0.00000000000E+00 0. -1.
         -2   -1    0    0    0  501 -0.00000000000E+00 -0.00000000000E+00 -0.36135666904E+02  0.36135666904E+02  0.00000000000E+00 0.  1.
         23    2    1    2    0    0  0.57522354043E+02 -0.32216400844E+02  0.20250994914E+03  0.24699078817E+03  0.12508977673E+03 0.  0.
          5    1    3    3  502    0 -0.15212607680E+02  0.32205589560E+01  0.14906960326E+03  0.14993670147E+03  0.41800000000E+01 0.  1.
         -5    1    3    3    0  502  0.72734961724E+02 -0.35436959800E+02  0.53440345875E+02  0.97054086695E+02  0.41800000000E+01 0.  1.
        -11    1    1    2    0    0 -0.21881589408E+02  0.20529659501E+02  0.62464527611E+01  0.30647822865E+02  0.00000000000E+00 0.  1.
         11    1    1    2    0    0 -0.35640764636E+02  0.11686741343E+02  0.20585814858E+03  0.20924727325E+03  0.00000000000E+00 0. -1.
</event>
<event>
 7    1  0.1243146E-005  0.1088683E+03  0.7561462E-02  0.1262680E+00
          2   -1    0    0  501    0  0.00000000000E+00  0.00000000000E+00  0.22785723682E+03  0.22785723682E+03  0.00000000000E+00 0. -1.
         -2   -1    0    0    0  501 -0.00000000000E+00 -0.00000000000E+00 -0.58610805928E+02  0.58610805928E+02  0.00000000000E+00 0.  1.
         23    2    1    2    0    0  0.11610733816E+01 -0.33468121782E+02  0.75915269953E+02  0.15010676849E+03  0.12508976963E+03 0.  0.
          5    1    3    3  502    0 -0.59693419256E+02 -0.84666573626E+01  0.19984459474E+02  0.63654062006E+02  0.41800000000E+01 0. -1.
         -5    1    3    3    0  502  0.60854492638E+02 -0.25001464420E+02  0.55930810479E+02  0.86452706482E+02  0.41800000000E+01 0. -1.
        -11    1    1    2    0    0 -0.18834134948E+02  0.58091876260E+02  0.34396235791E+02  0.70089170085E+02  0.00000000000E+00 0.  1.
         11    1    1    2    0    0  0.17673061566E+02 -0.24623754478E+02  0.58934925153E+02  0.66272104180E+02  0.00000000000E+00 0. -1.
</event>
<event>
 7    1  0.1243146E-005  0.1569793E+03  0.7561462E-02  0.1192150E+00
         -3   -1    0    0    0  501 -0.00000000000E+00  0.00000000000E+00  0.27519446509E+03  0.27519446509E+03  0.00000000000E+00 0.  1.
          3   -1    0    0  501    0  0.00000000000E+00 -0.00000000000E+00 -0.13128648246E+03  0.13128648246E+03  0.00000000000E+00 0. -1.
         23    2    1    2    0    0  0.10119612634E+03 -0.90127871204E+02  0.15810915029E+03  0.24291584202E+03  0.12508362701E+03 0.  0.
          5    1    3    3  502    0 -0.24715209005E+02 -0.25858661555E+02  0.84245978434E+01  0.36985918704E+02  0.41800000000E+01 0.  1.
         -5    1    3    3    0  502  0.12591133534E+03 -0.64269209650E+02  0.14968455244E+03  0.20592992331E+03  0.41800000000E+01 0.  1.
        -11    1    1    2    0    0 -0.28000071313E+02  0.15580826562E+02  0.35541137478E+02  0.47853302949E+02  0.00000000000E+00 0.  1.
         11    1    1    2    0    0 -0.73196055025E+02  0.74547044642E+02 -0.49742305138E+02  0.11571180258E+03  0.00000000000E+00 0. -1.
</event>
<event>
 7    1  0.1243146E-005  0.2944228E+03  0.7561462E-02  0.1088062E+00
          2   -1    0    0  501    0  0.00000000000E+00  0.00000000000E+00  0.43719867579E+03  0.43719867579E+03  0.00000000000E+00 0. -1.
         -2   -1    0    0    0  501 -0.00000000000E+00 -0.00000000000E+00 -0.25134407024E+03  0.25134407024E+03  0.00000000000E+00 0.  1.
         23    2    1    2    0    0 -0.25159596939E+03  0.13538768273E+03 -0.38113216929E+02  0.31421323762E+03  0.12508790885E+03 0.  0.
          5    1    3    3  502    0 -0.19376215614E+03  0.63238451465E+02 -0.71164065160E+02  0.21592746807E+03  0.41800000000E+01 0.  1.
         -5    1    3    3    0  502 -0.57833813254E+02  0.72149231266E+02  0.33050848231E+02  0.98285769553E+02  0.41800000000E+01 0.  1.
        -11    1    1    2    0    0  0.17516736416E+03 -0.60242024523E+02  0.18059603992E+03  0.25870376228E+03  0.00000000000E+00 0. -1.
         11    1    1    2    0    0  0.76428605236E+02 -0.75145658208E+02  0.43371782564E+02  0.11562574613E+03  0.00000000000E+00 0.  1.
</event>
<event>
 7    1  0.1243146E-005  0.8468804E+02  0.7561462E-02  0.1316250E+00
          1   -1    0    0  501    0  0.00000000000E+00  0.00000000000E+00  0.32666720844E+03  0.32666720844E+03  0.00000000000E+00 0. -1.
         -1   -1    0    0    0  501 -0.00000000000E+00 -0.00000000000E+00 -0.50237203305E+02  0.50237203305E+02  0.00000000000E+00 0.  1.
         23    2    1    2    0    0  0.32417498734E+02 -0.68237486783E+02  0.14211927165E+03  0.19915688226E+03  0.11729589742E+03 0.  0.
          5    1    3    3  502    0  0.15392940624E+00 -0.13067259488E+02 -0.20336145270E+02  0.24531778762E+02  0.41800000000E+01 0. -1.
         -5    1    3    3    0  502  0.32263569328E+02 -0.55170227295E+02  0.16245541692E+03  0.17462510350E+03  0.41800000000E+01 0.  1.
        -11    1    1    2    0    0 -0.25245202167E+02  0.76563545146E+02  0.14271618276E+03  0.16391218838E+03  0.00000000000E+00 0. -1.
         11    1    1    2    0    0 -0.71722965669E+01 -0.83260583622E+01 -0.84054492771E+01  0.13835341103E+02  0.00000000000E+00 0.  1.
</event>
<event>
 7    1  0.1243146E-005  0.1090668E+03  0.7561462E-02  0.1262308E+00
          4   -1    0    0  501    0  0.00000000000E+00  0.00000000000E+00  0.85004201480E+02  0.85004201480E+02  0.00000000000E+00 0. -1.
         -4   -1    0    0    0  501 -0.00000000000E+00 -0.00000000000E+00 -0.19438031940E+03  0.19438031940E+03  0.00000000000E+00 0.  1.
         23    2    1    2    0    0  0.53116425020E+01  0.49265558855E+02 -0.11247075780E+03  0.17535539637E+03  0.12507811496E+03 0.  0.
          5    1    3    3  502    0 -0.58078641643E+02  0.33639488586E+02 -0.42434319193E+02  0.79516587281E+02  0.41800000000E+01 0.  1.
         -5    1    3    3    0  502  0.63390284145E+02  0.15626070269E+02 -0.70036438604E+02  0.95838809093E+02  0.41800000000E+01 0.  1.
        -11    1    1    2    0    0 -0.36534096162E+02 -0.16129238150E+02 -0.28106586411E+02  0.48835158496E+02  0.00000000000E+00 0.  1.
         11    1    1    2    0    0  0.31222453660E+02 -0.33136320705E+02  0.31201226285E+02  0.55193966012E+02  0.00000000000E+00 0. -1.
</event>
<event>
 7    1  0.1243146E-005  0.7478869E+02  0.7561462E-02  0.1344527E+00
         -3   -1    0    0    0  501 -0.00000000000E+00  0.00000000000E+00  0.26913130411E+03  0.26913130411E+03  0.00000000000E+00 0.  1.
          3   -1    0    0  501    0  0.00000000000E+00 -0.00000000000E+00 -0.54626359377E+02  0.54626359377E+02  0.00000000000E+00 0. -1.
         23    2    1    2    0    0 -0.23352724679E+01 -0.23891016315E+02  0.19767548779E+03  0.22887812279E+03  0.11284220160E+03 0.  0.
          5    1    3    3  502    0  0.15080427123E+01  0.15936522331E+02 -0.86484794652E+01  0.18668570751E+02  0.41800000000E+01 0. -1.
         -5    1    3    3    0  502 -0.38433151802E+01 -0.39827538646E+02  0.20632396726E+03  0.21020955204E+03  0.41800000000E+01 0.  1.
        -11    1    1    2    0    0  0.13846718887E+02 -0.32458866214E+02  0.13300776472E+01  0.35314001846E+02  0.00000000000E+00 0.  1.
         11    1    1    2    0    0 -0.11511446419E+02  0.56349882529E+02  0.15499379296E+02  0.59565538848E+02  0.00000000000E+00 0. -1.
</event>
<event>
 7    1  0.1243146E-005  0.8580181E+02  0.7561462E-02  0.1313349E+00
         -3   -1    0    0    0  501 -0.00000000000E+00  0.00000000000E+00  0.10479670581E+03  0.10479670581E+03  0.00000000000E+00 0.  1.
          3   -1    0    0  501    0  0.00000000000E+00 -0.00000000000E+00 -0.12534883576E+03  0.12534883576E+03  0.00000000000E+00 0. -1.
         23    2    1    2    0    0 -0.32053766841E+02  0.28606577559E+01 -0.81304072530E+00  0.12915209376E+03  0.12507587680E+03 0.  0.
          5    1    3    3  502    0 -0.40570197419E+02 -0.28316689975E+02 -0.49795263284E+02  0.70319389184E+02  0.41800000000E+01 0.  1.
         -5    1    3    3    0  502  0.85164305778E+01  0.31177347730E+02  0.48982222558E+02  0.58832704579E+02  0.41800000000E+01 0.  1.
        -11    1    1    2    0    0  0.18295155287E+02 -0.43107935209E+02  0.11499048861E+02  0.48220689643E+02  0.00000000000E+00 0.  1.
         11    1    1    2    0    0  0.13758611554E+02  0.40247277453E+02 -0.31238138086E+02  0.52772758174E+02  0.00000000000E+00 0. -1.
</event>
<event>
 7    1  0.1243146E-005  0.1187289E+03  0.7561462E-02  0.1245209E+00
         -1   -1    0    0    0  501 -0.00000000000E+00  0.00000000000E+00  0.41377466677E+03  0.41377466677E+03  0.00000000000E+00 0.  1.
          1   -1    0    0  501    0  0.00000000000E+00 -0.00000000000E+00 -0.46247225595E+02  0.46247225595E+02  0.00000000000E+00 0. -1.
         23    2    1    2    0    0  0.49966848993E+02 -0.59067220048E+02  0.26319754631E+03  0.30150553004E+03  0.12508802413E+03 0.  0.
          5    1    3    3  502    0  0.37837734681E+02 -0.89895108221E+02  0.24442533826E+03  0.26319962582E+03  0.41800000000E+01 0.  1.
         -5    1    3    3    0  502  0.12129114312E+02  0.30827888173E+02  0.18772208046E+02  0.38305904220E+02  0.41800000000E+01 0.  1.
        -11    1    1    2    0    0 -0.39163802301E+02  0.76495951743E+02  0.10764792720E+03  0.13774436567E+03  0.00000000000E+00 0.  1.
         11    1    1    2    0    0 -0.10803046692E+02 -0.17428731695E+02 -0.33180323350E+01  0.20771996652E+02  0.00000000000E+00 0. -1.
</event>
<event>
 7    1  0.1243146E-005  0.1062235E+03  0.7561462E-02  0.1267728E+00
          3   -1    0    0  501    0  0.00000000000E+00  0.00000000000E+00  0.11675348942E+03  0.11675348942E+03  0.00000000000E+00 0. -1.
         -3   -1    0    0    0  501 -0.00000000000E+00 -0.00000000000E+00 -0.15228262081E+03  0.15228262081E+03  0.00000000000E+00 0.  1.
         23    2    1    2    0    0  0.64241272610E+02 -0.14823741510E+02 -0.59676749724E+02  0.15348671256E+03  0.12510064771E+03 0.  0.
          5    1    3    3  502    0  0.78130356781E+02  0.29889791257E+02 -0.65218399918E+02  0.10615396535E+03  0.41800000000E+01 0. -1.
         -5    1    3    3    0  502 -0.13889084171E+02 -0.44713532768E+02  0.55416501940E+01  0.47332747211E+02  0.41800000000E+01 0. -1.
        -11    1    1    2    0    0 -0.18516146191E+02  0.28472929844E+02 -0.28613130772E+02  0.44410208919E+02  0.00000000000E+00 0.  1.
         11    1    1    2    0    0 -0.45725126419E+02 -0.13649188333E+02  0.52760749109E+02  0.71139188741E+02  0.00000000000E+00 0. -1.
</event>
<event>
 7    1  0.1243146E-005  0.9209544E+02  0.7561462E-02  0.1297855E+00
          2   -1    0    0  501    0  0.00000000000E+00  0.00000000000E+00  0.23486542272E+03  0.23486542272E+03  0.00000000000E+00 0.  1.
         -2   -1    0    0    0  501 -0.00000000000E+00 -0.00000000000E+00 -0.41927985063E+02  0.41927985063E+02  0.00000000000E+00 0. -1.
         23    2    1    2    0    0 -0.45430378175E+01  0.35651777297E+02  0.12476533268E+03  0.18028690170E+03  0.12508113474E+03 0.  0.
          5    1    3    3  502    0 -0.52906009163E+02 -0.64771526679E+01  0.19422101657E+02  0.56883123552E+02  0.41800000000E+01 0.  1.
         -5    1    3    3    0  502  0.48362971345E+02  0.42128929965E+02  0.10534323103E+03  0.12340377814E+03  0.41800000000E+01 0.  1.
        -11    1    1    2    0    0  0.27256032959E+02 -0.34143066668E+02  0.33604434240E+02  0.55117132861E+02  0.00000000000E+00 0. -1.
         11    1    1    2    0    0 -0.22712995142E+02 -0.15087106290E+01  0.34567670732E+02  0.41389373224E+02  0.00000000000E+00 0.  1.
</event>
<event>
 7    1  0.1243146E-005  0.1309402E+03  0.7561462E-02  0.1226067E+00
          2   -1    0    0  501    0  0.00000000000E+00  0.00000000000E+00  0.29642295258E+03  0.29642295258E+03  0.00000000000E+00 0.  1.
         -2   -1    0    0    0  501 -0.00000000000E+00 -0.00000000000E+00 -0.74427135244E+02  0.74427135244E+02  0.00000000000E+00 0. -1.
         23    2    1    2    0    0 -0.57375230468E+02 -0.62844124101E+02  0.52461579261E+02  0.16013403148E+03  0.12509752090E+03 0.  0.
          5    1    3    3  502    0  0.39888032977E+02 -0.15748034988E+02  0.12873592202E+02  0.44969518087E+02  0.41800000000E+01 0. -1.
         -5    1    3    3    0  502 -0.97263263446E+02 -0.47096089112E+02  0.39587987059E+02  0.11516451339E+03  0.41800000000E+01 0. -1.
        -11    1    1    2    0    0 -0.15360865540E+02  0.23153950839E+02  0.75890579275E+01  0.28803739858E+02  0.00000000000E+00 0. -1.
         11    1    1    2    0    0  0.72736096008E+02  0.39690173262E+02  0.16194518015E+03  0.18191231649E+03  0.00000000000E+00 0.  1.
</event>
<event>
 7    1  0.1243146E-005  0.1049703E+03  0.7561462E-02  0.1270178E+00
          1   -1    0    0  501    0  0.00000000000E+00  0.00000000000E+00  0.56964447902E+02  0.56964447902E+02  0.00000000000E+00 0. -1.
         -1   -1    0    0    0  501 -0.00000000000E+00 -0.00000000000E+00 -0.25581226566E+03  0.25581226566E+03  0.00000000000E+00 0.  1.
         23    2    1    2    0    0  0.13885030021E+02  0.21630953463E+02 -0.17502061894E+03  0.21665703712E+03  0.12508941791E+03 0.  0.
          5    1    3    3  502    0 -0.29665021817E+02 -0.38559373732E+02 -0.98405670601E+02  0.10985439103E+03  0.41800000000E+01 0.  1.
         -5    1    3    3    0  502  0.43550051838E+02  0.60190327195E+02 -0.76614948338E+02  0.10680264609E+03  0.41800000000E+01 0.  1.
        -11    1    1    2    0    0  0.32307496518E+02  0.60212686702E+01 -0.26499362931E+02  0.42216658364E+02  0.00000000000E+00 0.  1.
         11    1    1    2    0    0 -0.46192526539E+02 -0.27652222133E+02  0.26721641137E+01  0.53903018079E+02  0.00000000000E+00 0. -1.
</event>
<event>
 7    1  0.1243146E-005  0.9259473E+02  0.7561462E-02  0.1296687E+00
          1   -1    0    0  501    0  0.00000000000E+00  0.00000000000E+00  0.16028753897E+03  0.16028753897E+03  0.00000000000E+00 0. -1.
         -1   -1    0    0    0  501 -0.00000000000E+00 -0.00000000000E+00 -0.93118419534E+02  0.93118419534E+02  0.00000000000E+00 0.  1.
         23    2    1    2    0    0 -0.14301944899E+02  0.47053708989E+02  0.55015716490E+01  0.13452403820E+03  0.12509137623E+03 0.  0.
          5    1    3    3  502    0 -0.26869103984E+02 -0.20549224073E+02 -0.39551761132E+02  0.52211431388E+02  0.41800000000E+01 0.  1.
         -5    1    3    3    0  502  0.12567159085E+02  0.67602933062E+02  0.45053332781E+02  0.82312606816E+02  0.41800000000E+01 0.  1.
        -11    1    1    2    0    0 -0.55710592896E+01  0.15559344830E+02  0.49352816032E+02  0.52046425078E+02  0.00000000000E+00 0. -1.
         11    1    1    2    0    0  0.19873004189E+02 -0.62613053819E+02  0.12314731759E+02  0.66835495228E+02  0.00000000000E+00 0.  1.
</event>
<event>
 7    1  0.1243146E-005  0.1106497E+03  0.7561462E-02  0.1259372E+00
         -3   -1    0    0    0  501 -0.00000000000E+00  0.00000000000E+00  0.10148254440E+03  0.10148254440E+03  0.00000000000E+00 0.  1.
          3   -1    0    0  501    0  0.00000000000E+00 -0.00000000000E+00 -0.14168613853E+03  0.14168613853E+03  0.00000000000E+00 0. -1.
         23    2    1    2    0    0  0.43690916625E+02  0.25826513996E+02  0.40486864017E+01  0.13505627659E+03  0.12509157031E+03 0.  0.
          5    1    3    3  502    0 -0.39595730561E+02  0.19171991694E+02 -0.19270990398E+02  0.48210274995E+02  0.41800000000E+01 0.  1.
         -5    1    3    3    0  502  0.83286647187E+02  0.66545223016E+01  0.23319676800E+02  0.86846001593E+02  0.41800000000E+01 0.  1.
        -11    1    1    2    0    0 -0.44507631454E+02  0.19160809073E+02 -0.55704223574E+01  0.48775972232E+02  0.00000000000E+00 0.  1.
         11    1    1    2    0    0  0.81671482851E+00 -0.44987323068E+02 -0.38681858175E+02  0.59336434101E+02  0.00000000000E+00 0. -1.
</event>
<event>
 7    1  0.1243146E-005  0.9503798E+02  0.7561462E-02  0.1291091E+00
         -1   -1    0    0    0  501 -0.00000000000E+00  0.00000000000E+00  0.43239993936E+02  0.43239993936E+02  0.00000000000E+00 0.  1.
          1   -1    0    0  501    0  0.00000000000E+00 -0.00000000000E+00 -0.35454562840E+03  0.35454562840E+03  0.00000000000E+00 0. -1.
         23    2    1    2    0    0  0.13204202158E+02 -0.40743582529E+02 -0.23665690055E+03  0.27110730905E+03  0.12513310502E+03 0.  0.
          5    1    3    3  502    0 -0.37943178113E+02  0.33262954433E+01 -0.18205153132E+02  0.42422270181E+02  0.41800000000E+01 0. -1.
         -5    1    3    3    0  502  0.51147380272E+02 -0.44069877972E+02 -0.21845174742E+03  0.22868503887E+03  0.41800000000E+01 0. -1.
        -11    1    1    2    0    0  0.28482858743E+02  0.29350364924E+02 -0.55520647093E+00  0.40902633382E+02  0.00000000000E+00 0. -1.
         11    1    1    2    0    0 -0.41687060902E+02  0.11393217605E+02 -0.74093527440E+02  0.85775679901E+02  0.00000000000E+00 0.  1.
</event>
<event>
 7    1  0.1948527E-005  0.8524419E+02  0.7561462E-02  0.1314795E+00
         -3   -1    0    0    0  501 -0.00000000000E+00  0.00000000000E+00  0.32191848399E+03  0.32191848399E+03  0.00000000000E+00 0.  1.
          3   -1    0    0  501    0  0.00000000000E+00 -0.00000000000E+00 -0.52060051041E+02  0.52060051041E+02  0.00000000000E+00 0. -1.
         23    2    1    2    0    0  0.70701560599E+02  0.52432885960E+01  0.14696509166E+03  0.20560247638E+03  0.12508971733E+03 0.  0.
          5    1    3    3  502    0  0.28235695403E+02  0.28824101485E+02  0.15131253734E+03  0.15665580002E+03  0.41800000000E+01 0. -1.
         -5    1    3    3    0  502  0.42465865196E+02 -0.23580812889E+02 -0.43474456853E+01  0.48946676366E+02  0.41800000000E+01 0. -1.
        -11    1    1    2    0    0 -0.64112223083E+02  0.96964686808E+01  0.13383874340E+03  0.14871855260E+03  0.00000000000E+00 0.  1.
         11    1    1    2    0    0 -0.65893375160E+01 -0.14939757277E+02 -0.10945402113E+02  0.19657506042E+02  0.00000000000E+00 0. -1.
</event>
<event>
 7    1  0.1243146E-005  0.1824887E+03  0.7561462E-02  0.1165416E+00
         -1   -1    0    0    0  501 -0.00000000000E+00  0.00000000000E+00  0.49700795646E+03  0.49700795646E+03  0.00000000000E+00 0.  1.
          1   -1    0    0  501    0  0.00000000000E+00 -0.00000000000E+00 -0.69663664111E+02  0.69663664111E+02  0.00000000000E+00 0. -1.
         23    2    1    2    0    0  0.11608524059E+03 -0.95402915756E+02  0.24569655875E+03  0.31399372276E+03  0.12509100501E+03 0.  0.
          5    1    3    3  502    0  0.48627576848E+02  0.23308535457E+02  0.10369655335E+03  0.11695459218E+03  0.41800000000E+01 0. -1.
         -5    1    3    3    0  502  0.67457663741E+02 -0.11871145121E+03  0.14200000540E+03  0.19703913058E+03  0.41800000000E+01 0. -1.
        -11    1    1    2    0    0 -0.12786047882E+03  0.99291953257E+02  0.17574965938E+03  0.23894588676E+03  0.00000000000E+00 0.  1.
         11    1    1    2    0    0  0.11775238231E+02 -0.38890375010E+01  0.58980742173E+01  0.13732011052E+02  0.00000000000E+00 0. -1.
</event>
<event>
 7    1  0.1243146E-005  0.9512791E+02  0.7561462E-02  0.1290888E+00
          1   -1    0    0  501    0  0.00000000000E+00  0.00000000000E+00  0.25142054749E+02  0.25142054749E+02  0.00000000000E+00 0. -1.
         -1   -1    0    0    0  501 -0.00000000000E+00 -0.00000000000E+00 -0.52057689168E+03  0.52057689168E+03  0.00000000000E+00 0.  1.
         23    2    1    2    0    0  0.25585799241E+02  0.73573009756E+01 -0.33944612753E+03  0.36273398641E+03  0.12507401169E+03 0.  0.
          5    1    3    3  502    0  0.14141883812E+02  0.53271027852E+02 -0.28572753775E+03  0.29102490188E+03  0.41800000000E+01 0. -1.
         -5    1    3    3    0  502  0.11443915428E+02 -0.45913726876E+02 -0.53718589779E+02  0.71709084528E+02  0.41800000000E+01 0. -1.
        -11    1    1    2    0    0  0.27769900587E+01  0.35760763910E+02 -0.10277649456E+03  0.10885564635E+03  0.00000000000E+00 0.  1.
         11    1    1    2    0    0 -0.28362789299E+02 -0.43118064885E+02 -0.53212214845E+02  0.74129313669E+02  0.00000000000E+00 0. -1.
</event>
<event>
 7    1  0.1243146E-005  0.1225501E+03  0.7561462E-02  0.1238949E+00
         -2   -1    0    0    0  501 -0.00000000000E+00  0.00000000000E+00  0.14768523747E+02  0.14768523747E+02  0.00000000000E+00 0.  1.
          2   -1    0    0  501    0  0.00000000000E+00 -0.00000000000E+00 -0.10586546727E+04  0.10586546727E+04  0.00000000000E+00 0. -1.
         23    2    1    2    0    0 -0.53111105715E+02 -0.32159770356E+02 -0.59400232523E+03  0.61019794862E+03  0.12509090191E+03 0.  0.
          5    1    3    3  502    0 -0.88655685267E+02 -0.30885811279E+01 -0.30972505650E+03  0.32220560654E+03  0.41800000000E+01 0. -1.
         -5    1    3    3    0  502  0.35544579552E+02 -0.29071189228E+02 -0.28427726873E+03  0.28799234208E+03  0.41800000000E+01 0. -1.
        -11    1    1    2    0    0 -0.52767507960E+01  0.49103915336E+02 -0.21522184474E+03  0.22081549098E+03  0.00000000000E+00 0.  1.
         11    1    1    2    0    0  0.58387856511E+02 -0.16944144980E+02 -0.23466197894E+03  0.24240975681E+03  0.00000000000E+00 0. -1.
</event>
<event>
 7    1  0.1243146E-005  0.9718276E+02  0.7561462E-02  0.1286334E+00
          1   -1    0    0  501    0  0.00000000000E+00  0.00000000000E+00  0.12550665270E+03  0.12550665270E+03  0.00000000000E+00 0. -1.
         -1   -1    0    0    0  501 -0.00000000000E+00 -0.00000000000E+00 -0.10182446382E+03  0.10182446382E+03  0.00000000000E+00 0.  1.
         23    2    1    2    0    0 -0.19398404998E+02 -0.22051661487E+01 -0.23661704868E+02  0.12879910800E+03  0.12509265794E+03 0.  0.
          5    1    3    3  502    0 -0.49818585848E+02  0.34018207839E+02 -0.46331354632E+02  0.76178716073E+02  0.41800000000E+01 0.  1.
         -5    1    3    3    0  502  0.30420180850E+02 -0.36223373987E+02  0.22669649764E+02  0.52620391925E+02  0.41800000000E+01 0.  1.
        -11    1    1    2    0    0  0.46410641104E+02  0.23491701724E+02  0.28063358634E+02  0.59104650878E+02  0.00000000000E+00 0.  1.
         11    1    1    2    0    0 -0.27012236105E+02 -0.21286535576E+02  0.19280535115E+02  0.39427357641E+02  0.00000000000E+00 0. -1.
</event>
<event>
 7    1  0.1243146E-005  0.1484431E+03  0.7561462E-02  0.1202399E+00
          2   -1    0    0  501    0  0.00000000000E+00  0.00000000000E+00  0.15161534416E+03  0.15161534416E+03  0.00000000000E+00 0. -1.
         -2   -1    0    0    0  501 -0.00000000000E+00 -0.00000000000E+00 -0.14666186747E+03  0.14666186747E+03  0.00000000000E+00 0.  1.
         23    2    1    2    0    0  0.23745330465E+02  0.97717421474E+02 -0.11303773089E+02  0.16090515639E+03  0.12510059508E+03 0.  0.
          5    1    3    3  502    0  0.24361399492E+02 -0.26483414561E+02 -0.18411902981E+01  0.36272736507E+02  0.41800000000E+01 0. -1.
         -5    1    3    3    0  502 -0.61606902765E+00  0.12420083603E+03 -0.94625827911E+01  0.12463241988E+03  0.41800000000E+01 0. -1.
        -11    1    1    2    0    0 -0.36089699189E+02  0.17740485860E+01  0.53212934029E+01  0.36523003702E+02  0.00000000000E+00 0.  1.
         11    1    1    2    0    0  0.12344368724E+02 -0.99491470060E+02  0.10935956371E+02  0.10084905154E+03  0.00000000000E+00 0. -1.
</event>
<event>
 7    1  0.1243146E-005  0.9305139E+02  0.7561462E-02  0.1295626E+00
         -2   -1    0    0    0  501 -0.00000000000E+00  0.00000000000E+00  0.18821694128E+03  0.18821694128E+03  0.00000000000E+00 0.  1.
          2   -1    0    0  501    0  0.00000000000E+00 -0.00000000000E+00 -0.14399735499E+03  0.14399735499E+03  0.00000000000E+00 0. -1.
         23    2    1    2    0    0 -0.61738663996E+01  0.14859442940E+02  0.14969362107E+03  0.19231389081E+03  0.11965589304E+03 0.  0.
          5    1    3    3  502    0 -0.46642608567E+02 -0.23675227390E+02  0.30722183274E+02  0.60806038113E+02  0.41800000000E+01 0. -1.
         -5    1    3    3    0  502  0.40468742167E+02  0.38534670330E+02  0.11897143780E+03  0.13150785270E+03  0.41800000000E+01 0.  1.
        -11    1    1    2    0    0  0.31744277500E+02 -0.33345419542E+02 -0.22730273094E+02  0.51344731700E+02  0.00000000000E+00 0. -1.
         11    1    1    2    0    0 -0.25570411101E+02  0.18485976602E+02 -0.82743761692E+02  0.88555673753E+02  0.00000000000E+00 0.  1.
</event>
<event>
 7    1  0.1243146E-005  0.8359874E+02  0.7561462E-02  0.1319138E+00
         -2   -1    0    0    0  501 -0.00000000000E+00  0.00000000000E+00  0.51622576159E+02  0.51622576159E+02  0.00000000000E+00 0.  1.
          2   -1    0    0  501    0  0.00000000000E+00 -0.00000000000E+00 -0.27529606860E+03  0.27529606860E+03  0.00000000000E+00 0. -1.
         23    2    1    2    0    0 -0.16152697167E+02 -0.22852426800E+01 -0.62290019383E+02  0.14068538360E+03  0.12508476600E+03 0.  0.
          5    1    3    3  502    0 -0.14463782213E+02  0.41843124694E+02  0.18780871416E+02  0.48272576181E+02  0.41800000000E+01 0. -1.
         -5    1    3    3    0  502 -0.16889149539E+01 -0.44128367374E+02 -0.81070890799E+02  0.92412807423E+02  0.41800000000E+01 0. -1.
        -11    1    1    2    0    0  0.47191751082E+02  0.33715851965E+01 -0.14187666319E+03  0.14955740207E+03  0.00000000000E+00 0. -1.
         11    1    1    2    0    0 -0.31039053916E+02 -0.10863425165E+01 -0.19506809866E+02  0.36675859079E+02  0.00000000000E+00 0.  1.
</event>
<event>
 7    1  0.1243146E-005  0.7769713E+02  0.7561462E-02  0.1335717E+00
          2   -1    0    0  501    0  0.00000000000E+00  0.00000000000E+00  0.58398155074E+02  0.58398155074E+02  0.00000000000E+00 0. -1.
         -2   -1    0    0    0  501 -0.00000000000E+00 -0.00000000000E+00 -0.24892955810E+03  0.24892955810E+03  0.00000000000E+00 0.  1.
         23    2    1    2    0    0 -0.52313154023E+02  0.65615596335E+01 -0.12087217761E+03  0.18176264200E+03  0.12509138482E+03 0.  0.
          5    1    3    3  502    0 -0.55335844349E+02 -0.10334716614E+02  0.31051517231E+01  0.56532967413E+02  0.41800000000E+01 0. -1.
         -5    1    3    3    0  502  0.30226903261E+01  0.16896276247E+02 -0.12397732933E+03  0.12522967458E+03  0.41800000000E+01 0. -1.
        -11    1    1    2    0    0 -0.20471251981E+01  0.20468635863E+02  0.11996877289E+02  0.23813459227E+02  0.00000000000E+00 0. -1.
         11    1    1    2    0    0  0.54360279221E+02 -0.27030195496E+02 -0.81656102709E+02  0.10175161195E+03  0.00000000000E+00 0.  1.
</event>
<event>
 7    1  0.1243146E-005  0.1080825E+03  0.7561462E-02  0.1264163E+00
          2   -1    0    0  501    0  0.00000000000E+00  0.00000000000E+00  0.56376212513E+02  0.56376212513E+02  0.00000000000E+00 0. -1.
         -2   -1    0    0    0  501 -0.00000000000E+00 -0.00000000000E+00 -0.24604246586E+03  0.24604246586E+03  0.00000000000E+00 0.  1.
         23    2    1    2    0    0  0.40516334833E+02 -0.90522761822E+01 -0.12683105819E+03  0.18291204239E+03  0.12508869188E+03 0.  0.
          5    1    3    3  502    0  0.77938123113E+02 -0.14378178892E+01 -0.12108560145E+03  0.14406808679E+03  0.41800000000E+01 0. -1.
         -5    1    3    3    0  502 -0.37421788280E+02 -0.76144582930E+01 -0.57454567419E+01  0.38843955596E+02  0.41800000000E+01 0. -1.
        -11    1    1    2    0    0 -0.52519516495E+02 -0.28853866690E+02 -0.49000539391E+02  0.77407351695E+02  0.00000000000E+00 0. -1.
         11    1    1    2    0    0  0.12003181662E+02  0.37906142873E+02 -0.13834655769E+02  0.42099284290E+02  0.00000000000E+00 0.  1.
</event>
<event>
 7    1  0.1243146E-005  0.1948606E+03  0.7561462E-02  0.1154149E+00
          2   -1    0    0  501    0  0.00000000000E+00  0.00000000000E+00  0.67758202092E+03  0.67758202092E+03  0.00000000000E+00 0.  1.
         -2   -1    0    0    0  501 -0.00000000000E+00 -0.00000000000E+00 -0.60339709718E+02  0.60339709718E+02  0.00000000000E+00 0. -1.
         23    2    1    2    0    0 -0.15620778976E+03  0.68478474079E+02  0.30860560890E+03  0.37413677203E+03  0.12510286705E+03 0.  0.
          5    1    3    3  502    0 -0.17798544784E+01  0.48456201684E+02  0.37409440134E+02  0.61384932799E+02  0.41800000000E+01 0.  1.
         -5    1    3    3    0  502 -0.15442793528E+03  0.20022272395E+02  0.27119616876E+03  0.31275183923E+03  0.41800000000E+01 0.  1.
        -11    1    1    2    0    0  0.11813519183E+03 -0.83160911204E+02  0.27603218928E+03  0.31155325423E+03  0.00000000000E+00 0. -1.
         11    1    1    2    0    0  0.38072597933E+02  0.14682437125E+02  0.32604513025E+02  0.52231704384E+02  0.00000000000E+00 0.  1.
</event>
<event>
 7    1  0.1243146E-005  0.4833717E+02  0.7561462E-02  0.1454522E+00
         -1   -1    0    0    0  501 -0.00000000000E+00  0.00000000000E+00  0.52464806896E+03  0.52464806896E+03  0.00000000000E+00 0.  1.
          1   -1    0    0  501    0  0.00000000000E+00 -0.00000000000E+00 -0.24444950820E+02  0.24444950820E+02  0.00000000000E+00 0. -1.
         23    2    1    2    0    0  0.31256909206E+02 -0.52656120385E+00  0.33219551651E+03  0.35634100556E+03  0.12509108448E+03 0.  0.
          5    1    3    3  502    0  0.24627165324E+02 -0.14173048902E+02  0.33825917467E+03  0.33947623516E+03  0.41800000000E+01 0.  1.
         -5    1    3    3    0  502  0.66297438817E+01  0.13646487698E+02 -0.60636581651E+01  0.16864770403E+02  0.41800000000E+01 0.  1.
        -11    1    1    2    0    0  0.10016607878E+02 -0.38095545938E+01 -0.70597107389E+01  0.12832951933E+02  0.00000000000E+00 0. -1.
         11    1    1    2    0    0 -0.41273517084E+02  0.43361157977E+01  0.17506731237E+03  0.17991906228E+03  0.00000000000E+00 0.  1.
</event>
<event>
 7    1  0.1243146E-005  0.1357594E+03  0.7561462E-02  0.1219152E+00
         -1   -1    0    0    0  501 -0.00000000000E+00  0.00000000000E+00  0.55446951306E+02  0.55446951306E+02  0.00000000000E+00 0.  1.
          1   -1    0    0  501    0  0.00000000000E+00 -0.00000000000E+00 -0.40393608848E+03  0.40393608848E+03  0.00000000000E+00 0. -1.
         23    2    1    2    0    0  0.92658200183E+02 -0.41412254158E+02 -0.20613232086E+03  0.26160800136E+03  0.12509075033E+03 0.  0.
          5    1    3    3  502    0  0.46671125991E+02 -0.66755861872E+02 -0.18960343505E+03  0.20640124534E+03  0.41800000000E+01 0. -1.
         -5    1    3    3    0  502  0.45987074192E+02  0.25343607714E+02 -0.16528885818E+02  0.55206756028E+02  0.41800000000E+01 0. -1.
        -11    1    1    2    0    0  0.16844734526E+02  0.19217444368E+02 -0.27383984074E+02  0.37455811740E+02  0.00000000000E+00 0. -1.
         11    1    1    2    0    0 -0.10950293471E+03  0.22194809789E+02 -0.11497283224E+03  0.16031922668E+03  0.00000000000E+00 0.  1.
</event>
<event>
 7    1  0.1243146E-005  0.8865327E+02  0.7561462E-02  0.1306146E+00
         -1   -1    0    0    0  501 -0.00000000000E+00  0.00000000000E+00  0.34419627950E+03  0.34419627950E+03  0.00000000000E+00 0.  1.
          1   -1    0    0  501    0  0.00000000000E+00 -0.00000000000E+00 -0.36067256622E+02  0.36067256622E+02  0.00000000000E+00 0. -1.
         23    2    1    2    0    0 -0.27377475910E+02 -0.10284476218E+02  0.17606148560E+03  0.21794466304E+03  0.12508770042E+03 0.  0.
          5    1    3    3  502    0 -0.70655839946E+02 -0.11031602410E+02  0.58134500081E+02  0.92255278819E+02  0.41800000000E+01 0. -1.
         -5    1    3    3    0  502  0.43278364037E+02  0.74712619199E+00  0.11792698552E+03  0.12568938422E+03  0.41800000000E+01 0. -1.
        -11    1    1    2    0    0  0.43894916497E+02  0.26079573189E+01  0.13663869917E+03  0.14353988730E+03  0.00000000000E+00 0.  1.
         11    1    1    2    0    0 -0.16517440588E+02  0.76765188989E+01 -0.45711618938E+01  0.18778985783E+02  0.00000000000E+00 0. -1.
</event>
<event>
 7    1  0.1243146E-005  0.1575377E+03  0.7561462E-02  0.1191505E+00
         -2   -1    0    0    0  501 -0.00000000000E+00  0.00000000000E+00  0.16972542004E+03  0.16972542004E+03  0.00000000000E+00 0.  1.
          2   -1    0    0  501    0  0.00000000000E+00 -0.00000000000E+00 -0.19583274219E+03  0.19583274219E+03  0.00000000000E+00 0. -1.
         23    2    1    2    0    0  0.12611386199E+03 -0.91382918692E+01  0.60123776285E+02  0.18774823549E+03  0.12508523851E+03 0.  0.
          5    1    3    3  502    0  0.98250269822E+02  0.39037568785E+02  0.12332246990E+00  0.10580422915E+03  0.41800000000E+01 0. -1.
         -5    1    3    3    0  502  0.27863592164E+02 -0.48175860654E+02  0.60000453815E+02  0.81944006346E+02  0.41800000000E+01 0. -1.
        -11    1    1    2    0    0 -0.83470744819E+02 -0.36410419769E+02 -0.65067690096E+02  0.11192358198E+03  0.00000000000E+00 0. -1.
         11    1    1    2    0    0 -0.42643117167E+02  0.45548711638E+02 -0.21163408340E+02  0.65886344763E+02  0.00000000000E+00 0.  1.
</event>
<event>
 7    1  0.1243146E-005  0.1501726E+03  0.7561462E-02  0.1200261E+00
         -3   -1    0    0    0  501 -0.00000000000E+00  0.00000000000E+00  0.18115182194E+03  0.18115182194E+03  0.00000000000E+00 0.  1.
          3   -1    0    0  501    0  0.00000000000E+00 -0.00000000000E+00 -0.13593383835E+03  0.13593383835E+03  0.00000000000E+00 0. -1.
         23    2    1    2    0    0 -0.94582355650E+02 -0.63834496856E+02  0.24144860583E+02  0.17103006363E+03  0.12509054074E+03 0.  0.
          5    1    3    3  502    0 -0.12040438898E+03 -0.37243405977E+02 -0.89299936003E+00  0.12610534494E+03  0.41800000000E+01 0. -1.
         -5    1    3    3    0  502  0.25822033327E+02 -0.26591090879E+02  0.25037859943E+02  0.44924718694E+02  0.41800000000E+01 0. -1.
        -11    1    1    2    0    0  0.32886545961E+02  0.67554856105E+02  0.34704780165E+02  0.82762342009E+02  0.00000000000E+00 0. -1.
         11    1    1    2    0    0  0.61695809690E+02 -0.37203592491E+01 -0.13631657159E+02  0.63293254641E+02  0.00000000000E+00 0.  1.
</event>
<event>
 7    1  0.1243146E-005  0.1002552E+03  0.7561462E-02  0.1279760E+00
          1   -1    0    0  501    0  0.00000000000E+00  0.00000000000E+00  0.62959077761E+02  0.62959077761E+02  0.00000000000E+00 0. -1.
         -1   -1    0    0    0  501 -0.00000000000E+00 -0.00000000000E+00 -0.20597198633E+03  0.20597198633E+03  0.00000000000E+00 0.  1.
         23    2    1    2    0    0  0.45092227864E+01 -0.20938424556E+02 -0.10692994825E+03  0.16595184245E+03  0.12508896621E+03 0.  0.
          5    1    3    3  502    0  0.64480280108E+02 -0.83940512809E+01 -0.61101431970E+02  0.89325382779E+02  0.41800000000E+01 0.  1.
         -5    1    3    3    0  502 -0.59971057322E+02 -0.12544373275E+02 -0.45828516279E+02  0.76626459670E+02  0.41800000000E+01 0.  1.
        -11    1    1    2    0    0  0.29594780325E+02 -0.63433574212E+01  0.16621924780E+02  0.34530820860E+02  0.00000000000E+00 0. -1.
         11    1    1    2    0    0 -0.34104003112E+02  0.27281781977E+02 -0.52704885099E+02  0.68448400780E+02  0.00000000000E+00 0.  1.
</event>
<event>
 7    1  0.1243146E-005  0.1299673E+03  0.7561462E-02  0.1227504E+00
          1   -1    0    0  501    0  0.00000000000E+00  0.00000000000E+00  0.10655607625E+03  0.10655607625E+03  0.00000000000E+00 0. -1.
         -1   -1    0    0    0  501 -0.00000000000E+00 -0.00000000000E+00 -0.28226490460E+03  0.28226490460E+03  0.00000000000E+00 0.  1.
         23    2    1    2    0    0 -0.99462740928E+02  0.10695444905E+02 -0.19415456973E+03  0.25169490273E+03  0.12508835973E+03 0.  0.
          5    1    3    3  502    0 -0.21100365160E+02  0.44994461110E+02 -0.13342149212E+02  0.51625694049E+02  0.41800000000E+01 0.  1.
         -5    1    3    3    0  502 -0.78362375767E+02 -0.34299016205E+02 -0.18081242052E+03  0.20006920868E+03  0.41800000000E+01 0.  1.
        -11    1    1    2    0    0  0.31333617829E+02 -0.39528916110E+02 -0.19381390257E+02  0.54036738460E+02  0.00000000000E+00 0.  1.
         11    1    1    2    0    0  0.68129123098E+02  0.28833471205E+02  0.37827131639E+02  0.83089339652E+02  0.00000000000E+00 0. -1.
</event>
<event>
 7    1  0.1243146E-005  0.1226728E+03  0.7561462E-02  0.1238752E+00
          2   -1    0    0  501    0  0.00000000000E+00  0.00000000000E+00  0.88487705934E+02  0.88487705934E+02  0.00000000000E+00 0. -1.
         -2   -1    0    0    0  501 -0.00000000000E+00 -0.00000000000E+00 -0.22785223158E+03  0.22785223158E+03  0.00000000000E+00 0.  1.
         23    2    1    2    0    0  0.25013303098E+02  0.83601227013E+02 -0.10897395563E+03  0.18744815003E+03  0.12508659183E+03 0.  0.
          5    1    3    3  502    0 -0.18660336392E+02 -0.26138034485E+02 -0.36566447597E+02  0.48846519742E+02  0.41800000000E+01 0. -1.
         -5    1    3    3    0  502  0.43673639490E+02  0.10973926150E+03 -0.72407508029E+02  0.13860163029E+03  0.41800000000E+01 0. -1.
        -11    1    1    2    0    0  0.97772438285E+01 -0.20710612579E+02  0.28082960276E+02  0.36237779018E+02  0.00000000000E+00 0. -1.
         11    1    1    2    0    0 -0.34790546926E+02 -0.62890614433E+02 -0.58473530297E+02  0.92654008465E+02  0.00000000000E+00 0.  1.
</event>
<event>
 7    1  0.1243146E-005  0.1523538E+03  0.7561462E-02  0.1197610E+00
          1   -1    0    0  501    0  0.00000000000E+00  0.00000000000E+00  0.23549430553E+03  0.23549430553E+03  0.00000000000E+00 0. -1.
         -1   -1    0    0    0  501 -0.00000000000E+00 -0.00000000000E+00 -0.15549224591E+03  0.15549224591E+03  0.00000000000E+00 0.  1.
         23    2    1    2    0    0  0.15666862004E+01 -0.11647949799E+03  0.14959290189E+03  0.22713462720E+03  0.12506867961E+03 0.  0.
          5    1    3    3  502    0 -0.35311733109E+02  0.11523176598E+02  0.27692539713E+02  0.46519364246E+02  0.41800000000E+01 0. -1.
         -5    1    3    3    0  502  0.36878419309E+02 -0.12800267459E+03  0.12190036218E+03  0.18061526296E+03  0.41800000000E+01 0. -1.
        -11    1    1    2    0    0 -0.30150302141E+02  0.90636770334E+02 -0.79261759383E+02  0.12412288812E+03  0.00000000000E+00 0.  1.
         11    1    1    2    0    0  0.28583615940E+02  0.25842727657E+02  0.96709171033E+01  0.39729036114E+02  0.00000000000E+00 0. -1.
</event>
<event>
 7    1  0.1243146E-005  0.1227992E+03  0.7561462E-02  0.1238549E+00
         -1   -1    0    0    0  501 -0.00000000000E+00  0.00000000000E+00  0.31792062561E+02  0.31792062561E+02  0.00000000000E+00 0.  1.
          1   -1    0    0  501    0  0.00000000000E+00 -0.00000000000E+00 -0.57334823711E+03  0.57334823711E+03  0.00000000000E+00 0. -1.
         23    2    1    2    0    0  0.77051749750E+02 -0.24393747642E+02 -0.32276565385E+03  0.35547314052E+03  0.12510579228E+03 0.  0.
          5    1    3    3  502    0  0.90066383348E+02  0.96679638420E+01 -0.12556037789E+03  0.15488158002E+03  0.41800000000E+01 0. -1.
         -5    1    3    3    0  502 -0.13014633598E+02 -0.34061711484E+02 -0.19720527596E+03  0.20059156050E+03  0.41800000000E+01 0. -1.
        -11    1    1    2    0    0 -0.57883182659E+02  0.56458783956E+02 -0.16969509219E+03  0.18797468296E+03  0.00000000000E+00 0.  1.
         11    1    1    2    0    0 -0.19168567091E+02 -0.32065036314E+02 -0.49095428516E+02  0.61692476197E+02  0.00000000000E+00 0. -1.
</event>
<event>
 7    1  0.1243146E-005  0.1053029E+03  0.7561462E-02  0.1269524E+00
         -2   -1    0    0    0  501 -0.00000000000E+00  0.00000000000E+00  0.66804988816E+02  0.66804988816E+02  0.00000000000E+00 0.  1.
          2   -1    0    0  501    0  0.00000000000E+00 -0.00000000000E+00 -0.27308351439E+03  0.27308351439E+03  0.00000000000E+00 0. -1.
         23    2    1    2    0    0  0.41783018688E+02 -0.21191925405E+02 -0.32679280277E+02  0.13751628067E+03  0.12509146149E+03 0.  0.
          5    1    3    3  502    0  0.38409683510E+02 -0.67518041849E+02  0.44299156581E+01  0.77917175997E+02  0.41800000000E+01 0. -1.
         -5    1    3    3    0  502  0.33733351775E+01  0.46326116444E+02 -0.37109195935E+02  0.59599104674E+02  0.41800000000E+01 0. -1.
        -11    1    1    2    0    0 -0.28543554530E+02 -0.25112552620E+02 -0.13616999405E+03  0.14137765765E+03  0.00000000000E+00 0. -1.
         11    1    1    2    0    0 -0.13239464158E+02  0.46304478025E+02 -0.37429251253E+02  0.60994564886E+02  0.00000000000E+00 0.  1.
</event>
<event>
 7    1  0.1243146E-005  0.1213370E+03  0.7561462E-02  0.1240908E+00
         -2   -1    0    0    0  501 -0.00000000000E+00  0.00000000000E+00  0.40298247465E+02  0.40298247465E+02  0.00000000000E+00 0.  1.
          2   -1    0    0  501    0  0.00000000000E+00 -0.00000000000E+00 -0.47080933977E+03  0.47080933977E+03  0.00000000000E+00 0. -1.
         23    2    1    2    0    0  0.61161206292E+01  0.72104404731E+02 -0.15441032416E+03  0.21148646531E+03  0.12509006630E+03 0.  0.
          5    1    3    3  502    0  0.26383011451E+02  0.10331138888E+03 -0.10757520418E+03  0.15152294651E+03  0.41800000000E+01 0.  1.
         -5    1    3    3    0  502 -0.20266890822E+02 -0.31206984145E+02 -0.46835119981E+02  0.59963518798E+02  0.41800000000E+01 0.  1.
        -11    1    1    2    0    0 -0.31901139378E+02 -0.13778835615E+02 -0.31696397695E+02  0.47034036945E+02  0.00000000000E+00 0.  1.
         11    1    1    2    0    0  0.25785018748E+02 -0.58325569117E+02 -0.24440437045E+03  0.25258708498E+03  0.00000000000E+00 0. -1.
</event>
<event>
 7    1  0.1243146E-005  0.9356771E+02  0.7561462E-02  0.1294435E+00
          2   -1    0    0  501    0  0.00000000000E+00  0.00000000000E+00  0.42930133343E+02  0.42930133343E+02  0.00000000000E+00 0. -1.
         -2   -1    0    0    0  501 -0.00000000000E+00 -0.00000000000E+00 -0.28964759565E+03  0.28964759565E+03  0.00000000000E+00 0.  1.
         23    2    1    2    0    0 -0.45163353482E+01 -0.47999797820E+01 -0.17784404203E+03  0.21753190197E+03  0.12509271760E+03 0.  0.
          5    1    3    3  502    0 -0.50372374219E+02 -0.32359047047E+01 -0.22359420270E+02  0.55364819503E+02  0.41800000000E+01 0. -1.
         -5    1    3    3    0  502  0.45856038871E+02 -0.15640750772E+01 -0.15548462176E+03  0.16216708247E+03  0.41800000000E+01 0. -1.
        -11    1    1    2    0    0  0.46746198624E+02 -0.51455170952E+01 -0.46883898855E+02  0.66406200041E+02  0.00000000000E+00 0. -1.
         11    1    1    2    0    0 -0.42229863276E+02  0.99454968772E+01 -0.21989521419E+02  0.48639626979E+02  0.00000000000E+00 0.  1.
</event>
<event>
 7    1  0.1243146E-005  0.1682747E+03  0.7561462E-02  0.1179659E+00
          1   -1    0    0  501    0  0.00000000000E+00  0.00000000000E+00  0.10780868343E+04  0.10780868343E+04  0.00000000000E+00 0. -1.
         -1   -1    0    0    0  501 -0.00000000000E+00 -0.00000000000E+00 -0.29317790410E+02  0.29317790410E+02  0.00000000000E+00 0.  1.
         23    2    1    2    0    0 -0.10805543254E+03  0.75407194164E+02  0.40197634254E+03  0.44112889326E+03  0.12508996392E+03 0.  0.
          5    1    3    3  502    0 -0.14322900112E+02  0.81677616836E+02  0.13978193619E+03  0.16258179678E+03  0.41800000000E+01 0.  1.
         -5    1    3    3    0  502 -0.93732532430E+02 -0.62704226727E+01  0.26219440635E+03  0.27854709648E+03  0.41800000000E+01 0.  1.
        -11    1    1    2    0    0  0.37115396117E+02 -0.80211791336E+02  0.33312632011E+03  0.34465146054E+03  0.00000000000E+00 0. -1.
         11    1    1    2    0    0  0.70940036425E+02  0.48045971720E+01  0.31366638128E+03  0.32162427096E+03  0.00000000000E+00 0.  1.
</event>
<event>
 7    1  0.1243146E-005  0.7062762E+02  0.7561462E-02  0.1357972E+00
          3   -1    0    0  501    0  0.00000000000E+00  0.00000000000E+00  0.77222102716E+02  0.77222102716E+02  0.00000000000E+00 0. -1.
         -3   -1    0    0    0  501 -0.00000000000E+00 -0.00000000000E+00 -0.19411488841E+03  0.19411488841E+03  0.00000000000E+00 0.  1.
         23    2    1    2    0    0 -0.21099951501E+02  0.20902671610E+02 -0.11911838015E+03  0.17526581223E+03  0.12508711689E+03 0.  0.
          5    1    3    3  502    0  0.14621853063E+02  0.10739052859E+02  0.22266797520E+02  0.29024274584E+02  0.41800000000E+01 0.  1.
         -5    1    3    3    0  502 -0.35721804564E+02  0.10163618751E+02 -0.14138517768E+03  0.14624153765E+03  0.41800000000E+01 0.  1.
        -11    1    1    2    0    0 -0.25982201857E+02  0.11184871199E+02  0.21920458348E+02  0.35786626709E+02  0.00000000000E+00 0. -1.
         11    1    1    2    0    0  0.47082153357E+02 -0.32087542809E+02 -0.19694863885E+02  0.60284552182E+02  0.00000000000E+00 0.  1.
</event>
<event>
 7    1  0.1243146E-005  0.6933808E+02  0.7561462E-02  0.1362359E+00
         -4   -1    0    0    0  501 -0.00000000000E+00  0.00000000000E+00  0.19204857434E+03  0.19204857434E+03  0.00000000000E+00 0. -1.
          4   -1    0    0  501    0  0.00000000000E+00 -0.00000000000E+00 -0.83526911081E+02  0.83526911081E+02  0.00000000000E+00 0.  1.
         23    2    1    2    0    0 -0.15624209722E+02 -0.47657895873E+02  0.10340759937E+03  0.16986788175E+03  0.12508626893E+03 0.  0.
          5    1    3    3  502    0  0.21428023473E+02 -0.86156724925E+01  0.11267269879E+03  0.11509126577E+03  0.41800000000E+01 0.  1.
         -5    1    3    3    0  502 -0.37052233195E+02 -0.39042223380E+02 -0.92650994264E+01  0.54776615984E+02  0.41800000000E+01 0.  1.
        -11    1    1    2    0    0  0.25136626485E+02  0.20478848789E+02 -0.40429426413E+02  0.51824432065E+02  0.00000000000E+00 0.  1.
         11    1    1    2    0    0 -0.95124167630E+01  0.27179047083E+02  0.45543490298E+02  0.53883171599E+02  0.00000000000E+00 0. -1.
</event>
<event>
 7    1  0.1243146E-005  0.8982391E+02  0.7561462E-02  0.1303279E+00
          1   -1    0    0  501    0  0.00000000000E+00  0.00000000000E+00  0.13948118733E+03  0.13948118733E+03  0.00000000000E+00 0. -1.
         -1   -1    0    0    0  501 -0.00000000000E+00 -0.00000000000E+00 -0.11124641329E+03  0.11124641329E+03  0.00000000000E+00 0.  1.
         23    2    1    2    0    0  0.54316563842E+02 -0.20639768875E+02  0.40157779955E+02  0.14364109409E+03  0.12507528714E+03 0.  0.
          5    1    3    3  502    0 -0.49155606552E+01  0.25339180236E+02  0.60437479010E+02  0.65851333021E+02  0.41800000000E+01 0. -1.
         -5    1    3    3    0  502  0.59232124497E+02 -0.45978949111E+02 -0.20279699054E+02  0.77789761072E+02  0.41800000000E+01 0. -1.
        -11    1    1    2    0    0 -0.62913638529E+02  0.26211499234E+02 -0.38728186434E+02  0.78390312090E+02  0.00000000000E+00 0.  1.
         11    1    1    2    0    0  0.85970746871E+01 -0.55717303588E+01  0.26805180520E+02  0.28696194435E+02  0.00000000000E+00 0. -1.
</event>
<event>
 6    1  0.1243146E-005  0.1276931E+03  0.7561462E-02  0.1230919E+00
         -1   -1    0    0    0  501 -0.00000000000E+00  0.00000000000E+00  0.37026589037E+02  0.37026589037E+02  0.00000000000E+00 0.  1.
          1   -1    0    0  501    0  0.00000000000E+00 -0.00000000000E+00 -0.67776038335E+03  0.67776038335E+03  0.00000000000E+00 0. -1.
          5    1    1    2  502    0 -0.22775926573E+02  0.46719907359E+02 -0.21480602840E+03  0.22104432770E+03  0.41800000000E+01 0. -1.
         -5    1    1    2    0  502  0.69807612969E+02  0.26032838126E+02 -0.35424896162E+02  0.82602706720E+02  0.41800000000E+01 0.  1.
        -11    1    1    2    0    0  0.28101653213E+02 -0.74428527810E+01 -0.88546905078E+02  0.93196852789E+02  0.00000000000E+00 0.  1.
         11    1    1    2    0    0 -0.75133339609E+02 -0.65309892704E+02 -0.30195596468E+03  0.31794308517E+03  0.00000000000E+00 0. -1.
</event>
<event>
 7    1  0.1243146E-005  0.1091565E+03  0.7561462E-02  0.1262140E+00
         -2   -1    0    0    0  501 -0.00000000000E+00  0.00000000000E+00  0.42153706836E+02  0.42153706836E+02  0.00000000000E+00 0.  1.
          2   -1    0    0  501    0  0.00000000000E+00 -0.00000000000E+00 -0.43988073883E+03  0.43988073883E+03  0.00000000000E+00 0. -1.
         23    2    1    2    0    0 -0.45199819091E+02  0.38072724670E+02 -0.13479450741E+03  0.19315697329E+03  0.12508997199E+03 0.  0.
          5    1    3    3  502    0 -0.70777844012E+02  0.46053310267E+02 -0.14185157564E+03  0.16513555796E+03  0.41800000000E+01 0.  1.
         -5    1    3    3    0  502  0.25578024920E+02 -0.79805855965E+01  0.70570682274E+01  0.28021415333E+02  0.41800000000E+01 0.  1.
        -11    1    1    2    0    0  0.49791689526E+02  0.16063752460E+02 -0.64022872514E+02  0.82681223346E+02  0.00000000000E+00 0.  1.
         11    1    1    2    0    0 -0.45918704347E+01 -0.54136477130E+02 -0.19890965207E+03  0.20619624903E+03  0.00000000000E+00 0. -1.
</event>
<event>
 7    1  0.1243146E-005  0.1487307E+03  0.7561462E-02  0.1202041E+00
         -3   -1    0    0    0  501 -0.00000000000E+00  0.00000000000E+00  0.21395324664E+03  0.21395324664E+03  0.00000000000E+00 0.  1.
          3   -1    0    0  501    0  0.00000000000E+00 -0.00000000000E+00 -0.15672246642E+03  0.15672246642E+03  0.00000000000E+00 0. -1.
         23    2    1    2    0    0  0.11977690888E+03  0.39252052745E+02  0.10896752851E+03  0.20834585497E+03  0.12508733537E+03 0.  0.
          5    1    3    3  502    0  0.10882457853E+03  0.57145739725E+02  0.30084176127E+02  0.12661340575E+03  0.41800000000E+01 0.  1.
         -5    1    3    3    0  502  0.10952330349E+02 -0.17893686980E+02  0.78883352379E+02  0.81732449225E+02  0.41800000000E+01 0.  1.
        -11    1    1    2    0    0 -0.76455595645E+02 -0.66981397925E+02 -0.26540090730E+02  0.10505399654E+03  0.00000000000E+00 0. -1.
         11    1    1    2    0    0 -0.43321313238E+02  0.27729345180E+02 -0.25196657555E+02  0.57275861554E+02  0.00000000000E+00 0.  1.
</event>
<event>
 7    1  0.1243146E-005  0.1179251E+03  0.7561462E-02  0.1246560E+00
          2   -1    0    0  501    0  0.00000000000E+00  0.00000000000E+00  0.88032927386E+02  0.88032927386E+02  0.00000000000E+00 0.  1.
         -2   -1    0    0    0  501 -0.00000000000E+00 -0.00000000000E+00 -0.22530723109E+03  0.22530723109E+03  0.00000000000E+00 0. -1.
         23    2    1    2    0    0 -0.46318669832E+02  0.67151995032E+02 -0.12015466975E+03  0.19167362446E+03  0.12508726570E+03 0.  0.
          5    1    3    3  502    0 -0.46588091807E+02  0.97739222727E+02 -0.11876895266E+03  0.16076984317E+03  0.41800000000E+01 0.  1.
         -5    1    3    3    0  502  0.26942197518E+00 -0.30587227694E+02 -0.13857170932E+01  0.30903781291E+02  0.41800000000E+01 0.  1.
        -11    1    1    2    0    0  0.22255656044E+02  0.30008752835E+01 -0.38421290353E+02  0.44502977775E+02  0.00000000000E+00 0. -1.
         11    1    1    2    0    0  0.24063013788E+02 -0.70152870316E+02  0.21301656402E+02  0.77163556240E+02  0.00000000000E+00 0.  1.
</event>
<event>
 7    1  0.1243146E-005  0.1739173E+03  0.7561462E-02  0.1173823E+00
         -1   -1    0    0    0  501 -0.00000000000E+00  0.00000000000E+00  0.60311657832E+03  0.60311657832E+03  0.00000000000E+00 0. -1.
          1   -1    0    0  501    0  0.00000000000E+00 -0.00000000000E+00 -0.59893631524E+02  0.59893631524E+02  0.00000000000E+00 0.  1.
         23    2    1    2    0    0 -0.81256149620E+01 -0.15447427453E+03  0.32881409050E+03  0.38431063509E+03  0.12509049133E+03 0.  0.
          5    1    3    3  502    0 -0.48885057628E+02 -0.53918849382E+02  0.21493654004E+03  0.22696294812E+03  0.41800000000E+01 0.  1.
         -5    1    3    3    0  502  0.40759442666E+02 -0.10055542515E+03  0.11387755046E+03  0.15734768696E+03  0.41800000000E+01 0.  1.
        -11    1    1    2    0    0 -0.24253033539E+02  0.10071920596E+03  0.17853659765E+03  0.20641677447E+03  0.00000000000E+00 0. -1.
         11    1    1    2    0    0  0.32378648501E+02  0.53755068576E+02  0.35872258657E+02  0.72282800288E+02  0.00000000000E+00 0.  1.
</event>
<event>
 7    1  0.1243146E-005  0.1327885E+03  0.7561462E-02  0.1223376E+00
          2   -1    0    0  501    0  0.00000000000E+00  0.00000000000E+00  0.39348376385E+03  0.39348376385E+03  0.00000000000E+00 0. -1.
         -2   -1    0    0    0  501 -0.00000000000E+00 -0.00000000000E+00 -0.45653464082E+02  0.45653464082E+02  0.00000000000E+00 0.  1.
         23    2    1    2    0    0  0.24825196281E+02  0.73720007793E+02  0.18889295179E+03  0.23954409569E+03  0.12509954686E+03 0.  0.
          5    1    3    3  502    0  0.13474990667E+02 -0.34208074267E+02  0.64951848057E+02  0.74752810546E+02  0.41800000000E+01 0. -1.
         -5    1    3    3    0  502  0.11350205614E+02  0.10792808206E+03  0.12394110374E+03  0.16479128515E+03  0.41800000000E+01 0. -1.
        -11    1    1    2    0    0  0.34442204103E+02 -0.35417372485E+02  0.76650184421E+02  0.91191592096E+02  0.00000000000E+00 0. -1.
         11    1    1    2    0    0 -0.59267400384E+02 -0.38302635308E+02  0.82287163549E+02  0.10840154014E+03  0.00000000000E+00 0.  1.
</event>
<event>
 7    1  0.1243146E-005  0.1072555E+03  0.7561462E-02  0.1265738E+00
         -1   -1    0    0    0  501 -0.00000000000E+00  0.00000000000E+00  0.40186940883E+02  0.40186940883E+02  0.00000000000E+00 0.  1.
          1   -1    0    0  501    0  0.00000000000E+00 -0.00000000000E+00 -0.30920314718E+03  0.30920314718E+03  0.00000000000E+00 0. -1.
         23    2    1    2    0    0  0.25923011260E+02 -0.13109565363E+02 -0.15949112891E+03  0.20476517097E+03  0.12508993495E+03 0.  0.
          5    1    3    3  502    0 -0.14181279430E+02 -0.61624550626E+02 -0.97750681440E+02  0.11649618899E+03  0.41800000000E+01 0.  1.
         -5    1    3    3    0  502  0.40104290689E+02  0.48514985263E+02 -0.61740447468E+02  0.88268981983E+02  0.41800000000E+01 0.  1.
        -11    1    1    2    0    0 -0.45345980111E+02 -0.20084850335E+02 -0.86755017332E+02  0.99930436592E+02  0.00000000000E+00 0. -1.
         11    1    1    2    0    0  0.19422968851E+02  0.33194415698E+02 -0.22770060058E+02  0.44694480504E+02  0.00000000000E+00 0.  1.
</event>
<event>
 7    1  0.1243146E-005  0.1276210E+03  0.7561462E-02  0.1231029E+00
          1   -1    0    0  501    0  0.00000000000E+00  0.00000000000E+00  0.97048415748E+02  0.97048415748E+02  0.00000000000E+00 0. -1.
         -1   -1    0    0    0  501 -0.00000000000E+00 -0.00000000000E+00 -0.18928840060E+03  0.18928840060E+03  0.00000000000E+00 0.  1.
         23    2    1    2    0    0 -0.47415073149E+02 -0.54279666838E+02 -0.81575658507E+02  0.16581834550E+03  0.12508662698E+03 0.  0.
          5    1    3    3  502    0 -0.69496642528E+02  0.91033487311E+01 -0.66906562815E+02  0.96987704522E+02  0.41800000000E+01 0. -1.
         -5    1    3    3    0  502  0.22081569379E+02 -0.63383015569E+02 -0.14669095692E+02  0.68830640977E+02  0.41800000000E+01 0. -1.
        -11    1    1    2    0    0  0.86019431324E+01  0.73822770809E+02 -0.17942997097E+02  0.76457478773E+02  0.00000000000E+00 0.  1.
         11    1    1    2    0    0  0.38813130017E+02 -0.19543103971E+02  0.72786707549E+01  0.44060992073E+02  0.00000000000E+00 0. -1.
</event>
<event>
 7    1  0.1243146E-005  0.1398732E+03  0.7561462E-02  0.1213500E+00
         -1   -1    0    0    0  501 -0.00000000000E+00  0.00000000000E+00  0.43383675258E+03  0.43383675258E+03  0.00000000000E+00 0.  1.
          1   -1    0    0  501    0  0.00000000000E+00 -0.00000000000E+00 -0.47035093426E+02  0.47035093426E+02  0.00000000000E+00 0. -1.
         23    2    1    2    0    0 -0.19122300347E+02 -0.82531343309E+02  0.23911488802E+03  0.28284190186E+03  0.12508607745E+03 0.  0.
          5    1    3    3  502    0  0.14562427450E+02 -0.10652421170E+03  0.15097803711E+03  0.18539501628E+03  0.41800000000E+01 0. -1.
         -5    1    3    3    0  502 -0.33684727797E+02  0.23992868387E+02  0.88136850909E+02  0.97446885576E+02  0.41800000000E+01 0. -1.
        -11    1    1    2    0    0  0.57285844813E+02  0.69918871469E+02  0.88623710920E+02  0.12658783014E+03  0.00000000000E+00 0. -1.
         11    1    1    2    0    0 -0.38163544466E+02  0.12612471839E+02  0.59063060208E+02  0.71442114003E+02  0.00000000000E+00 0.  1.
</event>
<event>
 7    1  0.1243146E-005  0.1216766E+03  0.7561462E-02  0.1240356E+00
          2   -1    0    0  501    0  0.00000000000E+00  0.00000000000E+00  0.70956126011E+03  0.70956126011E+03  0.00000000000E+00 0. -1.
         -2   -1    0    0    0  501 -0.00000000000E+00 -0.00000000000E+00 -0.30308052721E+02  0.30308052721E+02  0.00000000000E+00 0.  1.
         23    2    1    2    0    0 -0.15298040129E+02 -0.90967128147E+02  0.28212248700E+03  0.32210221044E+03  0.12509071853E+03 0.  0.
          5    1    3    3  502    0 -0.40797718939E+02 -0.32011837840E+02  0.26280402129E+02  0.58286735786E+02  0.41800000000E+01 0.  1.
         -5    1    3    3    0  502  0.25499678810E+02 -0.58955290306E+02  0.25584208487E+03  0.26381547466E+03  0.41800000000E+01 0.  1.
        -11    1    1    2    0    0 -0.20657040060E+02  0.88543589823E+02  0.24227924418E+03  0.25877772849E+03  0.00000000000E+00 0.  1.
         11    1    1    2    0    0  0.35955080189E+02  0.24235383238E+01  0.15485147621E+03  0.15898937390E+03  0.00000000000E+00 0. -1.
</event>
<event>
 7    1  0.1243146E-005  0.1305541E+03  0.7561462E-02  0.1226636E+00
         -1   -1    0    0    0  501 -0.00000000000E+00  0.00000000000E+00  0.72856998712E+03  0.72856998712E+03  0.00000000000E+00 0.  1.
          1   -1    0    0  501    0  0.00000000000E+00 -0.00000000000E+00 -0.24081665398E+02  0.24081665398E+02  0.00000000000E+00 0. -1.
         23    2    1    2    0    0  0.73167959034E+02 -0.14609425444E+02  0.43431906957E+03  0.45809157562E+03  0.12509137428E+03 0.  0.
          5    1    3    3  502    0  0.17685580967E+02  0.54085863821E+02  0.18204412055E+03  0.19077629482E+03  0.41800000000E+01 0.  1.
         -5    1    3    3    0  502  0.55482378067E+02 -0.68695289265E+02  0.25227494902E+03  0.26731528079E+03  0.41800000000E+01 0.  1.
        -11    1    1    2    0    0 -0.82514935549E+02  0.37714505388E+02  0.18894837022E+03  0.20960101410E+03  0.00000000000E+00 0. -1.
         11    1    1    2    0    0  0.93469765144E+01 -0.23105079944E+02  0.81220881939E+02  0.84959062801E+02  0.00000000000E+00 0.  1.
</event>
<event>
 7    1  0.1243146E-005  0.8974745E+02  0.7561462E-02  0.1303464E+00
         -2   -1    0    0    0  501 -0.00000000000E+00  0.00000000000E+00  0.10837376469E+03  0.10837376469E+03  0.00000000000E+00 0.  1.
          2   -1    0    0  501    0  0.00000000000E+00 -0.00000000000E+00 -0.12104128190E+03  0.12104128190E+03  0.00000000000E+00 0. -1.
         23    2    1    2    0    0 -0.32859365871E+02  0.52052332063E+01 -0.86734420453E+01  0.12973830770E+03  0.12509983017E+03 0.  0.
          5    1    3    3  502    0  0.12381936989E+02  0.49177754899E+02 -0.34458602111E+02  0.61454304975E+02  0.41800000000E+01 0. -1.
         -5    1    3    3    0  502 -0.45241302860E+02 -0.43972521692E+02  0.25785160066E+02  0.68284002724E+02  0.41800000000E+01 0. -1.
        -11    1    1    2    0    0  0.14199182322E+02  0.25652949756E+02  0.35601284909E+02  0.46120950738E+02  0.00000000000E+00 0.  1.
         11    1    1    2    0    0  0.18660183549E+02 -0.30858182962E+02 -0.39595360068E+02  0.53555788153E+02  0.00000000000E+00 0. -1.
</event>
<event>
 6    1  0.1243146E-005  0.1123340E+03  0.7561462E-02  0.1256308E+00
         -2   -1    0    0    0  501 -0.00000000000E+00  0.00000000000E+00  0.16766067054E+03  0.16766067054E+03  0.00000000000E+00 0.  1.
          2   -1    0    0  501    0  0.00000000000E+00 -0.00000000000E+00 -0.18021741255E+03  0.18021741255E+03  0.00000000000E+00 0. -1.
          5    1    1    2  502    0  0.11253716165E+02  0.83846109509E+02  0.55923424886E+01  0.84885587126E+02  0.41800000000E+01 0. -1.
         -5    1    1    2    0  502  0.15775997543E+02 -0.52896616151E+02  0.96242660264E+02  0.11102727662E+03  0.41800000000E+01 0.  1.
        -11    1    1    2    0    0  0.25464886178E+02 -0.15818316935E+02 -0.59835757148E+01  0.30569310706E+02  0.00000000000E+00 0. -1.
         11    1    1    2    0    0 -0.52494599886E+02 -0.15131176423E+02 -0.10840816905E+03  0.12139590864E+03  0.00000000000E+00 0.  1.
</event>
<event>
 7    1  0.1243146E-005  0.1224638E+03  0.7561462E-02  0.1239087E+00
          2   -1    0    0  501    0  0.00000000000E+00  0.00000000000E+00  0.32683398031E+03  0.32683398031E+03  0.00000000000E+00 0.  1.
         -2   -1    0    0    0  501 -0.00000000000E+00 -0.00000000000E+00 -0.47030863632E+02  0.47030863632E+02  0.00000000000E+00 0. -1.
         23    2    1    2    0    0  0.58490697172E+02 -0.14780775684E+02  0.14497956958E+03  0.20078010917E+03  0.12511572106E+03 0.  0.
          5    1    3    3  502    0 -0.23890800302E+02 -0.43716453123E+02  0.39037043454E+02  0.63429187085E+02  0.41800000000E+01 0. -1.
         -5    1    3    3    0  502  0.82381497474E+02  0.28935677439E+02  0.10594252613E+03  0.13735092209E+03  0.41800000000E+01 0. -1.
        -11    1    1    2    0    0 -0.43233530706E+02  0.51804158999E+02  0.72826462385E+02  0.99279920883E+02  0.00000000000E+00 0.  1.
         11    1    1    2    0    0 -0.15257166466E+02 -0.37023383315E+02  0.61997084710E+02  0.73804813889E+02  0.00000000000E+00 0. -1.
</event>
<event>
 7    1  0.1243146E-005  0.1464506E+03  0.7561462E-02  0.1204904E+00
          2   -1    0    0  501    0  0.00000000000E+00  0.00000000000E+00  0.64950436699E+03  0.64950436699E+03  0.00000000000E+00 0. -1.
         -2   -1    0    0    0  501 -0.00000000000E+00 -0.00000000000E+00 -0.40257330135E+02  0.40257330135E+02  0.00000000000E+00 0.  1.
         23    2    1    2    0    0  0.10404090623E+03  0.59780799710E+02  0.37174362274E+03  0.41017021823E+03  0.12509209682E+03 0.  0.
          5    1    3    3  502    0  0.11995470813E+03  0.15683433791E+02  0.21762181382E+03  0.24902174272E+03  0.41800000000E+01 0.  1.
         -5    1    3    3    0  502 -0.15913801903E+02  0.44097365919E+02  0.15412180892E+03  0.16114847551E+03  0.41800000000E+01 0.  1.
        -11    1    1    2    0    0 -0.19275511267E+02 -0.28556177191E+02  0.11693527925E+02  0.36383226709E+02  0.00000000000E+00 0.  1.
         11    1    1    2    0    0 -0.84765394958E+02 -0.31224622519E+02  0.22580988619E+03  0.24320825219E+03  0.00000000000E+00 0. -1.
</event>
<event>
 7    1  0.1243146E-005  0.1018026E+03  0.7561462E-02  0.1276550E+00
          3   -1    0    0  501    0  0.00000000000E+00  0.00000000000E+00  0.30326232936E+03  0.30326232936E+03  0.00000000000E+00 0. -1.
         -3   -1    0    0    0  501 -0.00000000000E+00 -0.00000000000E+00 -0.58691173919E+02  0.58691173919E+02  0.00000000000E+00 0.  1.
         23    2    1    2    0    0  0.77111668023E+02 -0.15420938505E+02  0.13363693135E+03  0.19922509970E+03  0.12509115172E+03 0.  0.
          5    1    3    3  502    0  0.41871428091E+02  0.30471267074E+02  0.13125561826E+03  0.14116382090E+03  0.41800000000E+01 0. -1.
         -5    1    3    3    0  502  0.35240239933E+02 -0.45892205579E+02  0.23813130975E+01  0.58061278796E+02  0.41800000000E+01 0. -1.
        -11    1    1    2    0    0 -0.24882350498E+02  0.30418576541E+02  0.99800858957E+02  0.10725965045E+03  0.00000000000E+00 0. -1.
         11    1    1    2    0    0 -0.52229317525E+02 -0.14997638036E+02  0.11133365134E+02  0.55468753141E+02  0.00000000000E+00 0.  1.
</event>
<event>
 7    1  0.1243146E-005  0.1698991E+03  0.7561462E-02  0.1177953E+00
         -2   -1    0    0    0  501 -0.00000000000E+00  0.00000000000E+00  0.24566119747E+03  0.24566119747E+03  0.00000000000E+00 0.  1.
          2   -1    0    0  501    0  0.00000000000E+00 -0.00000000000E+00 -0.12326386795E+03  0.12326386795E+03  0.00000000000E+00 0. -1.
         23    2    1    2    0    0 -0.12640828509E+03 -0.46542225894E+02  0.78381751824E+02  0.19984202313E+03  0.12509157389E+03 0.  0.
          5    1    3    3  502    0  0.16561199565E+02  0.19123896791E+02  0.47177201216E+01  0.26071556199E+02  0.41800000000E+01 0.  1.
         -5    1    3    3    0  502 -0.14296948466E+03 -0.65666122685E+02  0.73664031702E+02  0.17377046693E+03  0.41800000000E+01 0.  1.
        -11    1    1    2    0    0  0.22895652295E+02  0.48075193231E+02  0.37936884902E+02  0.65380748958E+02  0.00000000000E+00 0.  1.
         11    1    1    2    0    0  0.10351263280E+03 -0.15329673372E+01  0.60786927956E+01  0.10370229334E+03  0.00000000000E+00 0. -1.
</event>
<event>
 7    1  0.1243146E-005  0.8093299E+02  0.7561462E-02  0.1326424E+00
          2   -1    0    0  501    0  0.00000000000E+00  0.00000000000E+00  0.27684614466E+03  0.27684614466E+03  0.00000000000E+00 0. -1.
         -2   -1    0    0    0  501 -0.00000000000E+00 -0.00000000000E+00 -0.42358724176E+02  0.42358724176E+02  0.00000000000E+00 0.  1.
         23    2    1    2    0    0 -0.74133385431E+01 -0.54623015799E+01  0.95750815620E+02  0.15780015870E+03  0.12509147479E+03 0.  0.
          5    1    3    3  502    0  0.71249785114E+00 -0.41771095043E+02 -0.12051421799E+02  0.43681130957E+02  0.41800000000E+01 0.  1.
         -5    1    3    3    0  502 -0.81258363942E+01  0.36308793463E+02  0.10780223742E+03  0.11411902774E+03  0.41800000000E+01 0.  1.
        -11    1    1    2    0    0  0.70016210994E+01 -0.38169043046E+02  0.62651271851E+02  0.73695864264E+02  0.00000000000E+00 0.  1.
         11    1    1    2    0    0  0.41171744371E+00  0.43631344626E+02  0.76085333011E+02  0.87708845874E+02  0.00000000000E+00 0. -1.
</event>
<event>
 7    1  0.1243146E-005  0.1520428E+03  0.7561462E-02  0.1197985E+00
         -2   -1    0    0    0  501 -0.00000000000E+00  0.00000000000E+00  0.89743039526E+03  0.89743039526E+03  0.00000000000E+00 0. -1.
          2   -1    0    0  501    0  0.00000000000E+00 -0.00000000000E+00 -0.32091938318E+02  0.32091938318E+02  0.00000000000E+00 0.  1.
         23    2    1    2    0    0  0.10061916057E+03  0.68864622578E+02  0.58716149241E+03  0.61259451222E+03  0.12508743547E+03 0.  0.
          5    1    3    3  502    0  0.12410671340E+02 -0.22298867580E+02  0.26614021644E+03  0.26739362645E+03  0.41800000000E+01 0. -1.
         -5    1    3    3    0  502  0.88208489232E+02  0.91163490157E+02  0.32102127597E+03  0.34520088577E+03  0.41800000000E+01 0. -1.
        -11    1    1    2    0    0 -0.12808926185E+02 -0.61907820686E+02  0.12973064406E+03  0.14431454140E+03  0.00000000000E+00 0. -1.
         11    1    1    2    0    0 -0.87810234387E+02 -0.69568018921E+01  0.14844632047E+03  0.17261327995E+03  0.00000000000E+00 0.  1.
</event>
<event>
 7    1  0.1243146E-005  0.1193869E+03  0.7561462E-02  0.1244112E+00
         -1   -1    0    0    0  501 -0.00000000000E+00  0.00000000000E+00  0.21124960553E+03  0.21124960553E+03  0.00000000000E+00 0.  1.
          1   -1    0    0  501    0  0.00000000000E+00 -0.00000000000E+00 -0.78238978943E+02  0.78238978943E+02  0.00000000000E+00 0. -1.
         23    2    1    2    0    0 -0.48695324167E+02  0.56937463081E+01  0.12673197268E+03  0.18469341116E+03  0.12508800856E+03 0.  0.
          5    1    3    3  502    0  0.38449578842E+02 -0.19749660072E+02  0.38721403217E+02  0.58182803758E+02  0.41800000000E+01 0.  1.
         -5    1    3    3    0  502 -0.87144903009E+02  0.25443406380E+02  0.88010569466E+02  0.12651060741E+03  0.41800000000E+01 0.  1.
        -11    1    1    2    0    0  0.64556436119E+02 -0.33292620152E+02  0.68518415510E+01  0.72958068324E+02  0.00000000000E+00 0.  1.
         11    1    1    2    0    0 -0.15861111951E+02  0.27598873844E+02 -0.57318764489E+00  0.31837104986E+02  0.00000000000E+00 0. -1.
</event>
<event>
 7    1  0.1243146E-005  0.1630560E+03  0.7561462E-02  0.1185289E+00
          3   -1    0    0  501    0  0.00000000000E+00  0.00000000000E+00  0.44047947673E+03  0.44047947673E+03  0.00000000000E+00 0. -1.
         -3   -1    0    0    0  501 -0.00000000000E+00 -0.00000000000E+00 -0.68869334312E+02  0.68869334312E+02  0.00000000000E+00 0.  1.
         23    2    1    2    0    0  0.13177787401E+03 -0.18177076841E+02  0.24076108815E+03  0.30217278234E+03  0.12508666844E+03 0.  0.
          5    1    3    3  502    0  0.15025606194E+03  0.66946130423E+01  0.20975278633E+03  0.25813834618E+03  0.41800000000E+01 0. -1.
         -5    1    3    3    0  502 -0.18478187930E+02 -0.24871689883E+02  0.31008301815E+02  0.44034436164E+02  0.41800000000E+01 0. -1.
        -11    1    1    2    0    0 -0.13061960284E+03  0.28750931178E+02  0.13965335228E+03  0.19336792777E+03  0.00000000000E+00 0. -1.
         11    1    1    2    0    0 -0.11582711733E+01 -0.10573854337E+02 -0.88042980096E+01  0.13808100923E+02  0.00000000000E+00 0.  1.
</event>
<event>
 7    1  0.1243146E-005  0.1376589E+03  0.7561462E-02  0.1216514E+00
          4   -1    0    0  501    0  0.00000000000E+00  0.00000000000E+00  0.70747779625E+03  0.70747779625E+03  0.00000000000E+00 0. -1.
         -4   -1    0    0    0  501 -0.00000000000E+00 -0.00000000000E+00 -0.30378596689E+02  0.30378596689E+02  0.00000000000E+00 0.  1.
         23    2    1    2    0    0 -0.45430634719E+02 -0.74770847412E+02  0.25801764536E+03  0.29979466217E+03  0.12509641062E+03 0.  0.
          5    1    3    3  502    0 -0.86930822137E+02 -0.37343784561E+02  0.13840546031E+03  0.16770530679E+03  0.41800000000E+01 0. -1.
         -5    1    3    3    0  502  0.41500187418E+02 -0.37427062851E+02  0.11961218506E+03  0.13208935538E+03  0.41800000000E+01 0. -1.
        -11    1    1    2    0    0  0.92803367672E+01 -0.20592596971E+02  0.11896220962E+03  0.12108751801E+03  0.00000000000E+00 0.  1.
         11    1    1    2    0    0  0.36150297952E+02  0.95363444382E+02  0.30011934458E+03  0.31697421277E+03  0.00000000000E+00 0. -1.
</event>
<event>
 7    1  0.1243146E-005  0.1256476E+03  0.7561462E-02  0.1234061E+00
          4   -1    0    0  501    0  0.00000000000E+00  0.00000000000E+00  0.44362274605E+03  0.44362274605E+03  0.00000000000E+00 0. -1.
         -4   -1    0    0    0  501 -0.00000000000E+00 -0.00000000000E+00 -0.47547714789E+02  0.47547714789E+02  0.00000000000E+00 0.  1.
         23    2    1    2    0    0  0.15717632567E+01  0.93453639154E+02  0.17366485281E+03  0.23354493109E+03  0.12509076955E+03 0.  0.
          5    1    3    3  502    0 -0.49476352783E+02  0.49863409137E+02  0.14351717093E+03  0.15984029469E+03  0.41800000000E+01 0. -1.
         -5    1    3    3    0  502  0.51048116040E+02  0.43590230017E+02  0.30147681878E+02  0.73704636399E+02  0.41800000000E+01 0. -1.
        -11    1    1    2    0    0  0.34707860819E+01 -0.10290169055E+03  0.22425228869E+03  0.24675877544E+03  0.00000000000E+00 0. -1.
         11    1    1    2    0    0 -0.50425493386E+01  0.94480513981E+01 -0.18421102354E+01  0.10866754307E+02  0.00000000000E+00 0.  1.
</event>
<event>
 7    1  0.1697217E-005  0.3110465E+03  0.7561462E-02  0.1079845E+00
         -3   -1    0    0    0  501 -0.00000000000E+00  0.00000000000E+00  0.22856392773E+03  0.22856392773E+03  0.00000000000E+00 0.  1.
          3   -1    0    0  501    0  0.00000000000E+00 -0.00000000000E+00 -0.45138962774E+03  0.45138962774E+03  0.00000000000E+00 0. -1.
         23    2    1    2    0    0  0.22152303585E+02  0.30061020836E+03 -0.95573715702E+02  0.34005923163E+03  0.12509485985E+03 0.  0.
          5    1    3    3  502    0  0.16834239672E+01  0.29972330663E+03 -0.71489031188E+02  0.30816399601E+03  0.41800000000E+01 0. -1.
         -5    1    3    3    0  502  0.20468879617E+02  0.88690172673E+00 -0.24084684515E+02  0.31895235626E+02  0.41800000000E+01 0. -1.
        -11    1    1    2    0    0 -0.16039402595E+02 -0.21459407387E+03 -0.13382557982E+03  0.25341105893E+03  0.00000000000E+00 0. -1.
         11    1    1    2    0    0 -0.61129009898E+01 -0.86016134493E+02  0.65735955161E+01  0.86483264911E+02  0.00000000000E+00 0.  1.
</event>
<event>
 7    1  0.1477684E-005  0.1515776E+03  0.7561462E-02  0.1198548E+00
          1   -1    0    0  501    0  0.00000000000E+00  0.00000000000E+00  0.23767675717E+03  0.23767675717E+03  0.00000000000E+00 0. -1.
         -1   -1    0    0    0  501 -0.00000000000E+00 -0.00000000000E+00 -0.11467771152E+03  0.11467771152E+03  0.00000000000E+00 0.  1.
         23    2    1    2    0    0  0.10464215921E+03 -0.97387452383E+01 -0.17415956912E+01  0.16338766009E+03  0.12509064581E+03 0.  0.
          5    1    3    3  502    0  0.12453342842E+03 -0.36248555438E+02  0.19132875910E+01  0.12978314850E+03  0.41800000000E+01 0. -1.
         -5    1    3    3    0  502 -0.19891269203E+02  0.26509810200E+02 -0.36548832822E+01  0.33604511589E+02  0.41800000000E+01 0. -1.
        -11    1    1    2    0    0 -0.55361443109E+02  0.51329368278E+02  0.82754654528E+02  0.11201752665E+03  0.00000000000E+00 0.  1.
         11    1    1    2    0    0 -0.49280716106E+02 -0.41590623040E+02  0.41985986806E+02  0.76949281951E+02  0.00000000000E+00 0. -1.
</event>
<event>
 7    1  0.1243146E-005  0.1022922E+03  0.7561462E-02  0.1275548E+00
         -2   -1    0    0    0  501 -0.00000000000E+00  0.00000000000E+00  0.27396178968E+02  0.27396178968E+02  0.00000000000E+00 0.  1.
          2   -1    0    0  501    0  0.00000000000E+00 -0.00000000000E+00 -0.47671028761E+03  0.47671028761E+03  0.00000000000E+00 0. -1.
         23    2    1    2    0    0  0.15363021176E+02 -0.31496094342E+02 -0.23806855407E+03  0.27120457059E+03  0.12508899350E+03 0.  0.
          5    1    3    3  502    0  0.62800734963E+02 -0.20463518488E+02 -0.19545206141E+03  0.20635326169E+03  0.41800000000E+01 0.  1.
         -5    1    3    3    0  502 -0.47437713786E+02 -0.11032575853E+02 -0.42616492653E+02  0.64851308894E+02  0.41800000000E+01 0.  1.
        -11    1    1    2    0    0 -0.41093118133E+02  0.44599276528E+02 -0.18185710083E+03  0.19170222989E+03  0.00000000000E+00 0. -1.
         11    1    1    2    0    0  0.25730096957E+02 -0.13103182187E+02 -0.29388453750E+02  0.41199666099E+02  0.00000000000E+00 0.  1.
</event>
<event>
 7    1  0.2505329E-005  0.1502842E+03  0.7561462E-02  0.1200124E+00
         -1   -1    0    0    0  501 -0.00000000000E+00  0.00000000000E+00  0.94579671361E+02  0.94579671361E+02  0.00000000000E+00 0.  1.
          1   -1    0    0  501    0  0.00000000000E+00 -0.00000000000E+00 -0.39037837679E+03  0.39037837679E+03  0.00000000000E+00 0. -1.
         23    2    1    2    0    0  0.14754782812E+03  0.94683835477E+01 -0.85855234199E+02  0.21184389417E+03  0.12508677943E+03 0.  0.
          5    1    3    3  502    0  0.10376788567E+03  0.23067934557E+02  0.86388166850E+01  0.10673333713E+03  0.41800000000E+01 0.  1.
         -5    1    3    3    0  502  0.43779942453E+02 -0.13599551009E+02 -0.94494050884E+02  0.10511055704E+03  0.41800000000E+01 0.  1.
        -11    1    1    2    0    0 -0.34048445520E+02  0.17878231124E+01 -0.12854765630E+03  0.13299245428E+03  0.00000000000E+00 0. -1.
         11    1    1    2    0    0 -0.11349938260E+03 -0.11256206660E+02 -0.81395814931E+02  0.14012169970E+03  0.00000000000E+00 0.  1.
</event>
<event>
 7    1  0.1243146E-005  0.2522072E+03  0.7561462E-02  0.1111918E+00
          2   -1    0    0  501    0  0.00000000000E+00  0.00000000000E+00  0.16156747342E+04  0.16156747342E+04  0.00000000000E+00 0. -1.
         -2   -1    0    0    0  501 -0.00000000000E+00 -0.00000000000E+00 -0.52058271687E+02  0.52058271687E+02  0.00000000000E+00 0.  1.
         23    2    1    2    0    0  0.22360416171E+03  0.53916518342E+02  0.39902648460E+03  0.47725431106E+03  0.12507489727E+03 0.  0.
          5    1    3    3  502    0  0.16385637188E+03 -0.20522947451E+02  0.23142634902E+03  0.28433383442E+03  0.41800000000E+01 0.  1.
         -5    1    3    3    0  502  0.59747789822E+02  0.74439465792E+02  0.16760013558E+03  0.19292047663E+03  0.41800000000E+01 0.  1.
        -11    1    1    2    0    0 -0.10728147077E+03 -0.67219409220E+02  0.70047139429E+03  0.71182015789E+03  0.00000000000E+00 0.  1.
         11    1    1    2    0    0 -0.11632269093E+03  0.13302890878E+02  0.46411858363E+03  0.47865853696E+03  0.00000000000E+00 0. -1.
</event>
<event>
 7    1  0.1243146E-005  0.1070773E+03  0.7561462E-02  0.1266080E+00
         -3   -1    0    0    0  501 -0.00000000000E+00  0.00000000000E+00  0.20796811945E+02  0.20796811945E+02  0.00000000000E+00 0.  1.
          3   -1    0    0  501    0  0.00000000000E+00 -0.00000000000E+00 -0.61847924403E+03  0.61847924403E+03  0.00000000000E+00 0. -1.
         23    2    1    2    0    0  0.10437587210E+02 -0.19891956731E+02 -0.25813113421E+03  0.28772609181E+03  0.12509991323E+03 0.  0.
          5    1    3    3  502    0  0.34203108399E+01 -0.71177080446E+02 -0.18267629621E+03  0.19612745066E+03  0.41800000000E+01 0. -1.
         -5    1    3    3    0  502  0.70172763698E+01  0.51285123715E+02 -0.75454838004E+02  0.91598641149E+02  0.41800000000E+01 0. -1.
        -11    1    1    2    0    0 -0.49315447776E+02  0.15617434249E+02 -0.18113181084E+03  0.18837369917E+03  0.00000000000E+00 0.  1.
         11    1    1    2    0    0  0.38877860566E+02  0.42745224818E+01 -0.15841948703E+03  0.16317626499E+03  0.00000000000E+00 0. -1.
</event>
<event>
 7    1  0.1243146E-005  0.9708761E+02  0.7561462E-02  0.1286542E+00
         -2   -1    0    0    0  501 -0.00000000000E+00  0.00000000000E+00  0.25746609408E+02  0.25746609408E+02  0.00000000000E+00 0.  1.
          2   -1    0    0  501    0  0.00000000000E+00 -0.00000000000E+00 -0.71936628463E+03  0.71936628463E+03  0.00000000000E+00 0. -1.
         23    2    1    2    0    0  0.64352426010E+02 -0.29705060214E+02 -0.26708240659E+03  0.30332333815E+03  0.12509360585E+03 0.  0.
          5    1    3    3  502    0  0.21561565863E+02 -0.32399768731E+02 -0.70814170414E+01  0.39777694800E+02  0.41800000000E+01 0.  1.
         -5    1    3    3    0  502  0.42790860147E+02  0.26947085166E+01 -0.26000098955E+03  0.26354564335E+03  0.41800000000E+01 0.  1.
        -11    1    1    2    0    0 -0.38658663543E+02  0.60531917903E+02 -0.31958141084E+03  0.32755287131E+03  0.00000000000E+00 0. -1.
         11    1    1    2    0    0 -0.25693762467E+02 -0.30826857689E+02 -0.10695585780E+03  0.11423668457E+03  0.00000000000E+00 0.  1.
</event>
<event>
 7    1  0.1243146E-005  0.1222421E+03  0.7561462E-02  0.1239444E+00
         -1   -1    0    0    0  501 -0.00000000000E+00  0.00000000000E+00  0.55880064570E+03  0.55880064570E+03  0.00000000000E+00 0.  1.
          1   -1    0    0  501    0  0.00000000000E+00 -0.00000000000E+00 -0.54684499011E+02  0.54684499011E+02  0.00000000000E+00 0. -1.
         23    2    1    2    0    0 -0.76967276720E+02  0.81461493106E+02  0.42375151293E+03  0.45581910731E+03  0.12508308170E+03 0.  0.
          5    1    3    3  502    0 -0.87830934424E+02  0.56845652378E+02  0.16353984265E+03  0.19418664673E+03  0.41800000000E+01 0. -1.
         -5    1    3    3    0  502  0.10863657703E+02  0.24615840728E+02  0.26021167029E+03  0.26163246058E+03  0.41800000000E+01 0. -1.
        -11    1    1    2    0    0  0.62699109181E+02 -0.60030150044E+02  0.94482113785E+02  0.12830302815E+03  0.00000000000E+00 0.  1.
         11    1    1    2    0    0  0.14268167540E+02 -0.21431343062E+02 -0.14117480028E+02  0.29363009258E+02  0.00000000000E+00 0. -1.
</event>
<event>
 7    1  0.1243146E-005  0.1681846E+03  0.7561462E-02  0.1179754E+00
         -2   -1    0    0    0  501 -0.00000000000E+00  0.00000000000E+00  0.40676471693E+03  0.40676471693E+03  0.00000000000E+00 0. -1.
          2   -1    0    0  501    0  0.00000000000E+00 -0.00000000000E+00 -0.91856238750E+02  0.91856238750E+02  0.00000000000E+00 0.  1.
         23    2    1    2    0    0 -0.89146137653E+01 -0.15958938773E+03  0.16590774512E+03  0.26214831071E+03  0.12509242144E+03 0.  0.
          5    1    3    3  502    0  0.31446440729E+02 -0.74542042093E+02  0.14427862759E+03  0.16546658108E+03  0.41800000000E+01 0. -1.
         -5    1    3    3    0  502 -0.40361054494E+02 -0.85047345634E+02  0.21629117530E+02  0.96681729630E+02  0.41800000000E+01 0. -1.
        -11    1    1    2    0    0 -0.36904184924E+01  0.10638934469E+03  0.38527344078E+02  0.11321072429E+03  0.00000000000E+00 0.  1.
         11    1    1    2    0    0  0.12605032258E+02  0.53200043035E+02  0.11047338899E+03  0.12326192069E+03  0.00000000000E+00 0. -1.
</event>
<event>
 7    1  0.1243146E-005  0.8967406E+02  0.7561462E-02  0.1303643E+00
         -1   -1    0    0    0  501 -0.00000000000E+00  0.00000000000E+00  0.62759560730E+02  0.62759560730E+02  0.00000000000E+00 0.  1.
          1   -1    0    0  501    0  0.00000000000E+00 -0.00000000000E+00 -0.20957992937E+03  0.20957992937E+03  0.00000000000E+00 0. -1.
         23    2    1    2    0    0  0.28887115259E+02  0.21009509246E+02 -0.65262927665E+02  0.14476431309E+03  0.12418370147E+03 0.  0.
          5    1    3    3  502    0 -0.52342484535E+01  0.65838953051E+02 -0.57637328596E+02  0.87759325108E+02  0.41800000000E+01 0. -1.
         -5    1    3    3    0  502  0.34121363713E+02 -0.44829443806E+02 -0.76255990693E+01  0.57004987981E+02  0.41800000000E+01 0. -1.
        -11    1    1    2    0    0 -0.13409770641E+02  0.13393299138E+02 -0.87373518825E+02  0.89405448392E+02  0.00000000000E+00 0. -1.
         11    1    1    2    0    0 -0.15477344619E+02 -0.34402808384E+02  0.58160778513E+01  0.38169728617E+02  0.00000000000E+00 0.  1.
</event>
<event>
 7    1  0.1243146E-005  0.1209191E+03  0.7561462E-02  0.1241588E+00
          1   -1    0    0  501    0  0.00000000000E+00  0.00000000000E+00  0.46727294832E+03  0.46727294832E+03  0.00000000000E+00 0. -1.
         -1   -1    0    0    0  501 -0.00000000000E+00 -0.00000000000E+00 -0.51325843440E+02  0.51325843440E+02  0.00000000000E+00 0.  1.
         23    2    1    2    0    0 -0.39478464107E+02  0.76460516586E+02  0.10875527196E+03  0.18675523779E+03  0.12508017404E+03 0.  0.
          5    1    3    3  502    0  0.28891775328E+02 -0.97274231338E+01 -0.16826906314E+01  0.30816574927E+02  0.41800000000E+01 0. -1.
         -5    1    3    3    0  502 -0.68370239435E+02  0.86187939720E+02  0.11043796259E+03  0.15593866286E+03  0.41800000000E+01 0. -1.
        -11    1    1    2    0    0  0.52277165970E+02 -0.54235889643E+02  0.29300807102E+03  0.30253621848E+03  0.00000000000E+00 0. -1.
         11    1    1    2    0    0 -0.12798701864E+02 -0.22224626943E+02  0.14183761896E+02  0.29307335493E+02  0.00000000000E+00 0.  1.
</event>
<event>
 7    1  0.1243146E-005  0.1243228E+03  0.7561462E-02  0.1236131E+00
         -1   -1    0    0    0  501 -0.00000000000E+00  0.00000000000E+00  0.10321531682E+03  0.10321531682E+03  0.00000000000E+00 0.  1.
          1   -1    0    0  501    0  0.00000000000E+00 -0.00000000000E+00 -0.21923256254E+03  0.21923256254E+03  0.00000000000E+00 0. -1.
         23    2    1    2    0    0 -0.16581968111E+02 -0.10511144666E+03 -0.79668365948E+02  0.18252348661E+03  0.12507756292E+03 0.  0.
          5    1    3    3  502    0  0.19966504188E+02  0.44853133859E+01 -0.62190139019E+02  0.65603849863E+02  0.41800000000E+01 0.  1.
         -5    1    3    3    0  502 -0.36548472299E+02 -0.10959676005E+03 -0.17478226930E+02  0.11691963675E+03  0.41800000000E+01 0.  1.
        -11    1    1    2    0    0  0.54632447095E+01  0.99588435456E+02  0.18534593939E+01  0.99755394997E+02  0.00000000000E+00 0.  1.
         11    1    1    2    0    0  0.11118723402E+02  0.55230112046E+01 -0.38202339166E+02  0.40168997755E+02  0.00000000000E+00 0. -1.
</event>
<event>
 7    1  0.1243146E-005  0.8617400E+02  0.7561462E-02  0.1312391E+00
          1   -1    0    0  501    0  0.00000000000E+00  0.00000000000E+00  0.81809816883E+02  0.81809816883E+02  0.00000000000E+00 0. -1.
         -1   -1    0    0    0  501 -0.00000000000E+00 -0.00000000000E+00 -0.21292660212E+03  0.21292660212E+03  0.00000000000E+00 0.  1.
         23    2    1    2    0    0  0.38368113653E+02  0.19941828351E+02 -0.15456291592E+03  0.19623417735E+03  0.11290867424E+03 0.  0.
          5    1    3    3  502    0  0.21409395167E+02  0.49818709280E+02 -0.15210944632E+03  0.16153953713E+03  0.41800000000E+01 0. -1.
         -5    1    3    3    0  502  0.16958718486E+02 -0.29876880928E+02 -0.24534695958E+01  0.34694640216E+02  0.41800000000E+01 0.  1.
        -11    1    1    2    0    0  0.16570148713E+02  0.11392943550E+02 -0.14458535548E+02  0.24767281669E+02  0.00000000000E+00 0.  1.
         11    1    1    2    0    0 -0.54938262366E+02 -0.31334771901E+02  0.37904666231E+02  0.73734959985E+02  0.00000000000E+00 0. -1.
</event>
<event>
 7    1  0.1243146E-005  0.1422596E+03  0.7561462E-02  0.1210320E+00
         -1   -1    0    0    0  501 -0.00000000000E+00  0.00000000000E+00  0.11778484494E+03  0.11778484494E+03  0.00000000000E+00 0.  1.
          1   -1    0    0  501    0  0.00000000000E+00 -0.00000000000E+00 -0.23483810643E+03  0.23483810643E+03  0.00000000000E+00 0. -1.
         23    2    1    2    0    0 -0.47660070546E+02 -0.92059619534E+02  0.12094421371E+02  0.16291217821E+03  0.12509055483E+03 0.  0.
          5    1    3    3  502    0 -0.56718684529E+02  0.19720062994E+01 -0.23916071931E+02  0.61728023459E+02  0.41800000000E+01 0. -1.
         -5    1    3    3    0  502  0.90586139830E+01 -0.94031625834E+02  0.36010493302E+02  0.10118415475E+03  0.41800000000E+01 0. -1.
        -11    1    1    2    0    0  0.48275698668E+02  0.10737351290E+03 -0.12863658834E+03  0.17437599094E+03  0.00000000000E+00 0. -1.
         11    1    1    2    0    0 -0.61562812150E+00 -0.15313893369E+02 -0.51109451703E+00  0.15334782219E+02  0.00000000000E+00 0.  1.
</event>
<event>
 6    1  0.1243146E-005  0.1095133E+03  0.7561462E-02  0.1261474E+00
         -1   -1    0    0    0  501 -0.00000000000E+00  0.00000000000E+00  0.84738657898E+03  0.84738657898E+03  0.00000000000E+00 0.  1.
          1   -1    0    0  501    0  0.00000000000E+00 -0.00000000000E+00 -0.26024943670E+02  0.26024943670E+02  0.00000000000E+00 0. -1.
          5    1    1    2  502    0  0.21845653104E+02 -0.52785988498E+02  0.14262361096E+03  0.15369632378E+03  0.41800000000E+01 0. -1.
         -5    1    1    2    0  502  0.31055394722E+02  0.50745564838E+02  0.54150560908E+03  0.54478009046E+03  0.41800000000E+01 0.  1.
        -11    1    1    2    0    0 -0.58187721940E+02 -0.32847607816E+02  0.59104656639E+02  0.89208389517E+02  0.00000000000E+00 0. -1.
         11    1    1    2    0    0  0.52866741141E+01  0.34888031476E+02  0.78127758626E+02  0.85726718888E+02  0.00000000000E+00 0.  1.
</event>
<event>
 7    1  0.1243146E-005  0.1150110E+03  0.7561462E-02  0.1251562E+00
         -2   -1    0    0    0  501 -0.00000000000E+00  0.00000000000E+00  0.32085185593E+02  0.32085185593E+02  0.00000000000E+00 0.  1.
          2   -1    0    0  501    0  0.00000000000E+00 -0.00000000000E+00 -0.46564136650E+03  0.46564136650E+03  0.00000000000E+00 0. -1.
         23    2    1    2    0    0  0.16163716255E+02 -0.46676014946E+02 -0.19198739422E+03  0.23441097383E+03  0.12509767792E+03 0.  0.
          5    1    3    3  502    0  0.56294593244E+02  0.13538804842E+02 -0.11407605865E+03  0.12799687504E+03  0.41800000000E+01 0. -1.
         -5    1    3    3    0  502 -0.40130876989E+02 -0.60214819789E+02 -0.77911335572E+02  0.10641409879E+03  0.41800000000E+01 0. -1.
        -11    1    1    2    0    0 -0.49853846925E+02  0.12284471437E+02 -0.82984515780E+02  0.97584548730E+02  0.00000000000E+00 0.  1.
         11    1    1    2    0    0  0.33690130670E+02  0.34391543509E+02 -0.15858427091E+03  0.16573102953E+03  0.00000000000E+00 0. -1.
</event>
<event>
 7    1  0.1243146E-005  0.8708787E+02  0.7561462E-02  0.1310061E+00
         -1   -1    0    0    0  501 -0.00000000000E+00  0.00000000000E+00  0.98710356748E+02  0.98710356748E+02  0.00000000000E+00 0.  1.
          1   -1    0    0  501    0  0.00000000000E+00 -0.00000000000E+00 -0.13433308687E+03  0.13433308687E+03  0.00000000000E+00 0. -1.
         23    2    1    2    0    0 -0.20010509882E+02 -0.30489116547E+02 -0.35764129215E+02  0.13513601776E+03  0.12511060556E+03 0.  0.
          5    1    3    3  502    0  0.18629571297E+02  0.38043848236E+02 -0.36911663753E+02  0.56341269389E+02  0.41800000000E+01 0. -1.
         -5    1    3    3    0  502 -0.38640081178E+02 -0.68532964783E+02  0.11475345381E+01  0.78794748372E+02  0.41800000000E+01 0. -1.
        -11    1    1    2    0    0 -0.11012280404E+02  0.13605666506E+02 -0.40465704323E+02  0.44089201706E+02  0.00000000000E+00 0. -1.
         11    1    1    2    0    0  0.31022790285E+02  0.16883450042E+02  0.40607103418E+02  0.53818224148E+02  0.00000000000E+00 0.  1.
</event>
<event>
 7    1  0.1243146E-005  0.1062908E+03  0.7561462E-02  0.1267597E+00
          2   -1    0    0  501    0  0.00000000000E+00  0.00000000000E+00  0.12305651241E+03  0.12305651241E+03  0.00000000000E+00 0. -1.
         -2   -1    0    0    0  501 -0.00000000000E+00 -0.00000000000E+00 -0.14724365063E+03  0.14724365063E+03  0.00000000000E+00 0.  1.
         23    2    1    2    0    0  0.14616154079E+02 -0.73579640019E+02 -0.39072986741E+02  0.15100506339E+03  0.12509290743E+03 0.  0.
          5    1    3    3  502    0 -0.12411056141E+02  0.26971796562E+02  0.15088661448E+02  0.33565640596E+02  0.41800000000E+01 0.  1.
         -5    1    3    3    0  502  0.27027210220E+02 -0.10055143658E+03 -0.54161648189E+02  0.11743942279E+03  0.41800000000E+01 0.  1.
        -11    1    1    2    0    0 -0.20407725226E+02  0.47836524389E+02 -0.35119499253E+02  0.62754980219E+02  0.00000000000E+00 0.  1.
         11    1    1    2    0    0  0.57915711476E+01  0.25743115630E+02  0.50005347775E+02  0.56540119427E+02  0.00000000000E+00 0. -1.
</event>
<event>
 7    1  0.1243146E-005  0.2348241E+03  0.7561462E-02  0.1123290E+00
          3   -1    0    0  501    0  0.00000000000E+00  0.00000000000E+00  0.28487631159E+03  0.28487631159E+03  0.00000000000E+00 0. -1.
         -3   -1    0    0    0  501 -0.00000000000E+00 -0.00000000000E+00 -0.21895606926E+03  0.21895606926E+03  0.00000000000E+00 0.  1.
         23    2    1    2    0    0 -0.12850412980E+02  0.21820787620E+03 -0.19265284917E+02  0.25257818523E+03  0.12507908739E+03 0.  0.
          5    1    3    3  502    0 -0.58884066555E+02  0.67018422006E+02 -0.29746663238E+02  0.94133620753E+02  0.41800000000E+01 0.  1.
         -5    1    3    3    0  502  0.46033653576E+02  0.15118945420E+03  0.10481378321E+02  0.15844456448E+03  0.41800000000E+01 0.  1.
        -11    1    1    2    0    0  0.26283754862E+02 -0.17585821815E+03  0.10051445906E+03  0.20425500028E+03  0.00000000000E+00 0. -1.
         11    1    1    2    0    0 -0.13433341883E+02 -0.42349658056E+02 -0.15328931806E+02  0.46999195333E+02  0.00000000000E+00 0.  1.
</event>
<event>
 7    1  0.1243146E-005  0.5501452E+02  0.7561462E-02  0.1420030E+00
          2   -1    0    0  501    0  0.00000000000E+00  0.00000000000E+00  0.60598078598E+02  0.60598078598E+02  0.00000000000E+00 0. -1.
         -2   -1    0    0    0  501 -0.00000000000E+00 -0.00000000000E+00 -0.20712801472E+03  0.20712801472E+03  0.00000000000E+00 0.  1.
         23    2    1    2    0    0 -0.38099424572E+01  0.15019189005E+02 -0.92408640523E+02  0.15626911107E+03  0.12506233058E+03 0.  0.
          5    1    3    3  502    0  0.25813321951E+02 -0.51355752949E+01 -0.11206412261E+03  0.11518915617E+03  0.41800000000E+01 0.  1.
         -5    1    3    3    0  502 -0.29623264408E+02  0.20154764300E+02  0.19655482086E+02  0.41079954895E+02  0.41800000000E+01 0.  1.
        -11    1    1    2    0    0 -0.36831122761E+01  0.15474437311E+02 -0.73070387064E+02  0.74781715625E+02  0.00000000000E+00 0.  1.
         11    1    1    2    0    0  0.74930547333E+01 -0.30493626316E+02  0.18949091461E+02  0.36675266629E+02  0.00000000000E+00 0. -1.
</event>
<event>
 6    1  0.1243146E-005  0.2191394E+03  0.7561462E-02  0.1134526E+00
         -2   -1    0    0    0  501 -0.00000000000E+00  0.00000000000E+00  0.14139003105E+03  0.14139003105E+03  0.00000000000E+00 0.  1.
          2   -1    0    0  501    0  0.00000000000E+00 -0.00000000000E+00 -0.61170605682E+03  0.61170605682E+03  0.00000000000E+00 0. -1.
          5    1    1    2  502    0  0.57286111804E+02 -0.66974670373E+02 -0.63298143020E+02  0.10858836212E+03  0.41800000000E+01 0. -1.
         -5    1    1    2    0  502 -0.41087984621E+01 -0.13228308089E+03  0.47245064202E+02  0.14058899035E+03  0.41800000000E+01 0.  1.
        -11    1    1    2    0    0 -0.12158165085E+02  0.16126811331E+03 -0.32227471761E+03  0.36057761849E+03  0.00000000000E+00 0. -1.
         11    1    1    2    0    0 -0.41019148257E+02  0.37989637954E+02 -0.13198822934E+03  0.14334111692E+03  0.00000000000E+00 0.  1.
</event>
<event>
 7    1  0.1243146E-005  0.1032338E+03  0.7561462E-02  0.1273639E+00
         -2   -1    0    0    0  501 -0.00000000000E+00  0.00000000000E+00  0.24683808784E+03  0.24683808784E+03  0.00000000000E+00 0. -1.
          2   -1    0    0  501    0  0.00000000000E+00 -0.00000000000E+00 -0.48160100301E+02  0.48160100301E+02  0.00000000000E+00 0.  1.
         23    2    1    2    0    0 -0.61260337308E+01 -0.29254848225E+01  0.10334509778E+03  0.16240216466E+03  0.12509263408E+03 0.  0.
          5    1    3    3  502    0  0.55946981903E+02  0.13849487393E+02  0.31201590417E+02  0.65672556899E+02  0.41800000000E+01 0.  1.
         -5    1    3    3    0  502 -0.62073015634E+02 -0.16774972216E+02  0.72143507360E+02  0.96729607758E+02  0.41800000000E+01 0.  1.
        -11    1    1    2    0    0 -0.16070398039E+01 -0.40300614995E+02  0.19114619872E+02  0.44632844842E+02  0.00000000000E+00 0.  1.
         11    1    1    2    0    0  0.77330735347E+01  0.43226099817E+02  0.76218269892E+02  0.87963178643E+02  0.00000000000E+00 0. -1.
</event>
<event>
 7    1  0.1243146E-005  0.1580210E+03  0.7561462E-02  0.1190949E+00
          2   -1    0    0  501    0  0.00000000000E+00  0.00000000000E+00  0.95315394940E+03  0.95315394940E+03  0.00000000000E+00 0. -1.
         -2   -1    0    0    0  501 -0.00000000000E+00 -0.00000000000E+00 -0.41977628113E+02  0.41977628113E+02  0.00000000000E+00 0.  1.
         23    2    1    2    0    0  0.99424566500E+02 -0.10397836754E+03  0.25763390888E+03  0.32049863063E+03  0.12508955147E+03 0.  0.
          5    1    3    3  502    0  0.39363591339E+02 -0.14718761417E+02  0.18704883129E+03  0.19175732567E+03  0.41800000000E+01 0. -1.
         -5    1    3    3    0  502  0.60060975161E+02 -0.89259606126E+02  0.70585077592E+02  0.12874130496E+03  0.41800000000E+01 0. -1.
        -11    1    1    2    0    0 -0.33461586562E+01  0.60657082804E+02  0.27950304006E+03  0.28602871862E+03  0.00000000000E+00 0. -1.
         11    1    1    2    0    0 -0.96078407844E+02  0.43321284739E+02  0.37403937235E+03  0.38860422827E+03  0.00000000000E+00 0.  1.
</event>
<event>
 7    1  0.1243146E-005  0.1603190E+03  0.7561462E-02  0.1188337E+00
         -2   -1    0    0    0  501 -0.00000000000E+00  0.00000000000E+00  0.52313696066E+02  0.52313696066E+02  0.00000000000E+00 0.  1.
          2   -1    0    0  501    0  0.00000000000E+00 -0.00000000000E+00 -0.51169448933E+03  0.51169448933E+03  0.00000000000E+00 0. -1.
         23    2    1    2    0    0  0.97484555435E+02  0.64849188262E+02 -0.18988131671E+03  0.25575207787E+03  0.12508219349E+03 0.  0.
          5    1    3    3  502    0  0.10798789120E+03  0.26622573967E+01 -0.12184161708E+03  0.16288438941E+03  0.41800000000E+01 0. -1.
         -5    1    3    3    0  502 -0.10503335767E+02  0.62186930865E+02 -0.68039699631E+02  0.92867688453E+02  0.41800000000E+01 0. -1.
        -11    1    1    2    0    0 -0.76139334473E+01 -0.58762768226E+02 -0.97369645165E+02  0.11398194029E+03  0.00000000000E+00 0.  1.
         11    1    1    2    0    0 -0.89870621988E+02 -0.60864200360E+01 -0.17212983138E+03  0.19427416724E+03  0.00000000000E+00 0. -1.
</event>
<event>
 7    1  0.1243146E-005  0.9879008E+02  0.7561462E-02  0.1282861E+00
         -2   -1    0    0    0  501 -0.00000000000E+00  0.00000000000E+00  0.16120194313E+03  0.16120194313E+03  0.00000000000E+00 0.  1.
          2   -1    0    0  501    0  0.00000000000E+00 -0.00000000000E+00 -0.21172478665E+03  0.21172478665E+03  0.00000000000E+00 0. -1.
         23    2    1    2    0    0  0.13038800466E+02 -0.52573295016E+02  0.11379738784E+03  0.17757000290E+03  0.12508916333E+03 0.  0.
          5    1    3    3  502    0  0.59098542093E+02 -0.40893468821E+02  0.10761005820E+03  0.12946934191E+03  0.41800000000E+01 0. -1.
         -5    1    3    3    0  502 -0.46059741628E+02 -0.11679826195E+02  0.61873296397E+01  0.48100660981E+02  0.41800000000E+01 0. -1.
        -11    1    1    2    0    0 -0.33521916247E+02  0.44863992932E+02 -0.16418126530E+03  0.17347041421E+03  0.00000000000E+00 0. -1.
         11    1    1    2    0    0  0.20483115782E+02  0.77093020841E+01 -0.13896605257E+00  0.21886312671E+02  0.00000000000E+00 0.  1.
</event>
<event>
 7    1  0.1243146E-005  0.1222214E+03  0.7561462E-02  0.1239477E+00
         -2   -1    0    0    0  501 -0.00000000000E+00  0.00000000000E+00  0.11043033917E+03  0.11043033917E+03  0.00000000000E+00 0.  1.
          2   -1    0    0  501    0  0.00000000000E+00 -0.00000000000E+00 -0.13641649076E+03  0.13641649076E+03  0.00000000000E+00 0. -1.
         23    2    1    2    0    0 -0.32232833524E+02 -0.44147199281E+02 -0.18642540991E+02  0.13777507431E+03  0.12508595447E+03 0.  0.
          5    1    3    3  502    0 -0.72541824365E+02  0.47816717051E+01 -0.66635754863E+01  0.73123568736E+02  0.41800000000E+01 0. -1.
         -5    1    3    3    0  502  0.40308990841E+02 -0.48928870986E+02 -0.11978965504E+02  0.64651505575E+02  0.41800000000E+01 0. -1.
        -11    1    1    2    0    0 -0.25702710527E+02  0.43057486657E+02  0.28920670278E+01  0.50228881506E+02  0.00000000000E+00 0.  1.
         11    1    1    2    0    0  0.57935544051E+02  0.10897126239E+01 -0.10235677628E+02  0.58842874119E+02  0.00000000000E+00 0. -1.
</event>
<event>
 7    1  0.1243146E-005  0.1130750E+03  0.7561462E-02  0.1254979E+00
         -1   -1    0    0    0  501 -0.00000000000E+00  0.00000000000E+00  0.58046761126E+03  0.58046761126E+03  0.00000000000E+00 0.  1.
          1   -1    0    0  501    0  0.00000000000E+00 -0.00000000000E+00 -0.22230567262E+02  0.22230567262E+02  0.00000000000E+00 0. -1.
         23    2    1    2    0    0 -0.11272528781E+02  0.52256892290E+02  0.29025681075E+03  0.31519287533E+03  0.11063308627E+03 0.  0.
          5    1    3    3  502    0  0.18498113662E+01 -0.34520058414E+02  0.90427864578E+02  0.96900605401E+02  0.41800000000E+01 0. -1.
         -5    1    3    3    0  502 -0.13122340148E+02  0.86776950704E+02  0.19982894617E+03  0.21829226993E+03  0.41800000000E+01 0.  1.
        -11    1    1    2    0    0  0.47931609575E+02 -0.12808590139E+02  0.11220985271E+03  0.12268883496E+03  0.00000000000E+00 0.  1.
         11    1    1    2    0    0 -0.36659080794E+02 -0.39448302151E+02  0.15577038054E+03  0.16481646823E+03  0.00000000000E+00 0. -1.
</event>
<event>
 7    1  0.1243146E-005  0.1229071E+03  0.7561462E-02  0.1238377E+00
          1   -1    0    0  501    0  0.00000000000E+00  0.00000000000E+00  0.23842310303E+03  0.23842310303E+03  0.00000000000E+00 0. -1.
         -1   -1    0    0    0  501 -0.00000000000E+00 -0.00000000000E+00 -0.10971469150E+03  0.10971469150E+03  0.00000000000E+00 0.  1.
         23    2    1    2    0    0  0.90740277396E+02  0.51100954079E+02  0.58282470488E+01  0.16287361805E+03  0.12509493012E+03 0.  0.
          5    1    3    3  502    0  0.76553149425E+02 -0.11275994348E+02  0.43148768675E+02  0.88695103437E+02  0.41800000000E+01 0. -1.
         -5    1    3    3    0  502  0.14187127971E+02  0.62376948427E+02 -0.37320521626E+02  0.74178514609E+02  0.41800000000E+01 0. -1.
        -11    1    1    2    0    0 -0.60007530579E+02 -0.31616897453E+02  0.12407419244E+02  0.68952708309E+02  0.00000000000E+00 0.  1.
         11    1    1    2    0    0 -0.30732746817E+02 -0.19484056626E+02  0.11047274524E+03  0.11631146818E+03  0.00000000000E+00 0. -1.
</event>
<event>
 7    1  0.1243146E-005  0.1727688E+03  0.7561462E-02  0.1174991E+00
         -1   -1    0    0    0  501 -0.00000000000E+00  0.00000000000E+00  0.11744507764E+03  0.11744507764E+03  0.00000000000E+00 0.  1.
          1   -1    0    0  501    0  0.00000000000E+00 -0.00000000000E+00 -0.30742637016E+03  0.30742637016E+03  0.00000000000E+00 0. -1.
         23    2    1    2    0    0 -0.28776302650E+02  0.14816716899E+03 -0.56521486030E+02  0.20402088956E+03  0.12509300313E+03 0.  0.
          5    1    3    3  502    0 -0.16165344437E+02  0.15971025963E+03 -0.76095265298E+02  0.17769819131E+03  0.41800000000E+01 0. -1.
         -5    1    3    3    0  502 -0.12610958212E+02 -0.11543090641E+02  0.19573779268E+02  0.26322698255E+02  0.41800000000E+01 0. -1.
        -11    1    1    2    0    0  0.50760120378E+02 -0.72092521032E+02 -0.35900857596E+02  0.95198702647E+02  0.00000000000E+00 0.  1.
         11    1    1    2    0    0 -0.21983817729E+02 -0.76074647960E+02 -0.97558948892E+02  0.12565185559E+03  0.00000000000E+00 0. -1.
</event>
<event>
 7    1  0.1243146E-005  0.8851001E+02  0.7561462E-02  0.1306501E+00
         -2   -1    0    0    0  501 -0.00000000000E+00  0.00000000000E+00  0.49326767766E+02  0.49326767766E+02  0.00000000000E+00 0.  1.
          2   -1    0    0  501    0  0.00000000000E+00 -0.00000000000E+00 -0.26347590110E+03  0.26347590110E+03  0.00000000000E+00 0. -1.
         23    2    1    2    0    0  0.20041594885E+02 -0.26875217194E-01 -0.82836701440E+02  0.15136312458E+03  0.12508880897E+03 0.  0.
          5    1    3    3  502    0 -0.13749820695E+02  0.44990283069E+02 -0.82332488078E+02  0.94917301546E+02  0.41800000000E+01 0. -1.
         -5    1    3    3    0  502  0.33791415580E+02 -0.45017158286E+02 -0.50421336240E+00  0.56445823036E+02  0.41800000000E+01 0. -1.
        -11    1    1    2    0    0 -0.72182619385E+01  0.35187691253E+02 -0.11523948635E+03  0.12070797875E+03  0.00000000000E+00 0. -1.
         11    1    1    2    0    0 -0.12823332947E+02 -0.35160816036E+02 -0.16072945548E+02  0.40731565533E+02  0.00000000000E+00 0.  1.
</event>
<event>
 7    1  0.1243146E-005  0.9099903E+02  0.7561462E-02  0.1300450E+00
         -1   -1    0    0    0  501 -0.00000000000E+00  0.00000000000E+00  0.15913952625E+03  0.15913952625E+03  0.00000000000E+00 0.  1.
          1   -1    0    0  501    0  0.00000000000E+00 -0.00000000000E+00 -0.86627976884E+02  0.86627976884E+02  0.00000000000E+00 0. -1.
         23    2    1    2    0    0 -0.15592738890E+02 -0.22722295187E+02  0.80595401086E+02  0.15134679142E+03  0.12510314301E+03 0.  0.
          5    1    3    3  502    0 -0.54899987467E+02  0.60825457570E+00  0.89026583310E+02  0.10467847693E+03  0.41800000000E+01 0. -1.
         -5    1    3    3    0  502  0.39307248577E+02 -0.23330549763E+02 -0.84311822244E+01  0.46668314482E+02  0.41800000000E+01 0. -1.
        -11    1    1    2    0    0 -0.18562495992E+01  0.49249184697E+02 -0.28250057006E+02  0.56806633211E+02  0.00000000000E+00 0. -1.
         11    1    1    2    0    0  0.17448988490E+02 -0.26526889510E+02  0.20166205291E+02  0.37614078511E+02  0.00000000000E+00 0.  1.
</event>
<event>
 7    1  0.1243146E-005  0.1227145E+03  0.7561462E-02  0.1238685E+00
          1   -1    0    0  501    0  0.00000000000E+00  0.00000000000E+00  0.15381573593E+03  0.15381573593E+03  0.00000000000E+00 0. -1.
         -1   -1    0    0    0  501 -0.00000000000E+00 -0.00000000000E+00 -0.15631835343E+03  0.15631835343E+03  0.00000000000E+00 0.  1.
         23    2    1    2    0    0 -0.66050421437E+02 -0.53399525699E+02 -0.67373423653E+02  0.16602335641E+03  0.12573944942E+03 0.  0.
          5    1    3    3  502    0  0.19406191274E+02 -0.13286526579E+02  0.24507071016E+02  0.34222813708E+02  0.41800000000E+01 0. -1.
         -5    1    3    3    0  502 -0.85456612712E+02 -0.40112999120E+02 -0.91880494669E+02  0.13180054270E+03  0.41800000000E+01 0.  1.
        -11    1    1    2    0    0  0.88526156743E+01  0.67547171600E+02  0.46156735060E+02  0.82288719682E+02  0.00000000000E+00 0. -1.
         11    1    1    2    0    0  0.57197805763E+02 -0.14147645901E+02  0.18714071098E+02  0.61822013278E+02  0.00000000000E+00 0.  1.
</event>
<event>
 7    1  0.1417041E-005  0.2459241E+03  0.7561462E-02  0.1115908E+00
         -1   -1    0    0    0  501 -0.00000000000E+00  0.00000000000E+00  0.33380444456E+02  0.33380444456E+02  0.00000000000E+00 0.  1.
          1   -1    0    0  501    0  0.00000000000E+00 -0.00000000000E+00 -0.19924347090E+04  0.19924347090E+04  0.00000000000E+00 0. -1.
         23    2    1    2    0    0 -0.20106509328E+03 -0.99625170699E+02 -0.75754639212E+03  0.79992265484E+03  0.12508945257E+03 0.  0.
          5    1    3    3  502    0 -0.76856591013E+02 -0.10588860181E+03 -0.43225098570E+03  0.45163892504E+03  0.41800000000E+01 0. -1.
         -5    1    3    3    0  502 -0.12420850227E+03  0.62634311135E+01 -0.32529540642E+03  0.34828372980E+03  0.41800000000E+01 0. -1.
        -11    1    1    2    0    0  0.17121791587E+03  0.49610681591E+02 -0.10139104634E+04  0.10294616176E+04  0.00000000000E+00 0. -1.
         11    1    1    2    0    0  0.29847177404E+02  0.50014489108E+02 -0.18759740904E+03  0.19643088096E+03  0.00000000000E+00 0.  1.
</event>
<event>
 7    1  0.1243146E-005  0.1040230E+03  0.7561462E-02  0.1272057E+00
          1   -1    0    0  501    0  0.00000000000E+00  0.00000000000E+00  0.27800610183E+03  0.27800610183E+03  0.00000000000E+00 0. -1.
         -1   -1    0    0    0  501 -0.00000000000E+00 -0.00000000000E+00 -0.56505705058E+02  0.56505705058E+02  0.00000000000E+00 0.  1.
         23    2    1    2    0    0  0.32493153727E+02 -0.15745421172E+02  0.56087103241E+02  0.14176421556E+03  0.12509039266E+03 0.  0.
          5    1    3    3  502    0  0.77835451800E+02 -0.11684523628E+02  0.14864726898E+02  0.80207968152E+02  0.41800000000E+01 0. -1.
         -5    1    3    3    0  502 -0.45342298073E+02 -0.40608975447E+01  0.41222376343E+02  0.61556247406E+02  0.41800000000E+01 0. -1.
        -11    1    1    2    0    0 -0.52276178259E+02  0.28921167241E+02  0.15623487971E+03  0.16726795977E+03  0.00000000000E+00 0. -1.
         11    1    1    2    0    0  0.19783024531E+02 -0.13175746069E+02  0.91784138203E+01  0.25479631558E+02  0.00000000000E+00 0.  1.
</event>
<event>
 7    1  0.1243146E-005  0.1813403E+03  0.7561462E-02  0.1166512E+00
         -2   -1    0    0    0  501 -0.00000000000E+00  0.00000000000E+00  0.41989674737E+02  0.41989674737E+02  0.00000000000E+00 0. -1.
          2   -1    0    0  501    0  0.00000000000E+00 -0.00000000000E+00 -0.10238593631E+04  0.10238593631E+04  0.00000000000E+00 0.  1.
         23    2    1    2    0    0 -0.11610514888E+03  0.12580251784E+03 -0.40995869795E+03  0.46154034286E+03  0.12508666987E+03 0.  0.
          5    1    3    3  502    0 -0.86965819601E+02  0.58538445801E+02 -0.35401036167E+03  0.36922975501E+03  0.41800000000E+01 0.  1.
         -5    1    3    3    0  502 -0.29139329281E+02  0.67264072037E+02 -0.55948336274E+02  0.92310587853E+02  0.41800000000E+01 0.  1.
        -11    1    1    2    0    0  0.92937927056E+02 -0.13097999720E+03 -0.54616689725E+03  0.56929034561E+03  0.00000000000E+00 0.  1.
         11    1    1    2    0    0  0.23167221825E+02  0.51774793675E+01 -0.25744093203E+02  0.35018349398E+02  0.00000000000E+00 0. -1.
</event>
