<event>
 8    1  0.6635152E-009  0.1153358E+03  0.7561462E-02  0.1250996E+00
          1   -1    0    0  501    0  0.00000000000E+00  0.00000000000E+00  0.86485182088E+03  0.86485182088E+03  0.00000000000E+00 0. -1.
         -1   -1    0    0    0  501 -0.00000000000E+00 -0.00000000000E+00 -0.29987003451E+02  0.29987003451E+02  0.00000000000E+00 0.  1.
         25    2    1    2    0    0 -0.66740457657E+02 -0.28420787046E+02  0.70995200119E+03  0.72453281831E+03  0.12511567043E+03 0.  0.
         23    2    1    2    0    0  0.66740457657E+02  0.28420787046E+02  0.12491281624E+03  0.17030600602E+03  0.90215820131E+02 0.  0.
          5    1    3    3  502    0  0.13304238950E+02 -0.39156802533E+02  0.45886902877E+03  0.46074777907E+03  0.41800000000E+01 0.  1.
         -5    1    3    3    0  502 -0.80044696607E+02  0.10736015487E+02  0.25108297242E+03  0.26378503923E+03  0.41800000000E+01 0.  1.
        -11    1    4    4    0    0  0.11696741316E+02  0.48312550616E+02  0.88122500620E+02  0.10117554754E+03  0.00000000000E+00 0. -1.
         11    1    4    4    0    0  0.55043716341E+02 -0.19891763570E+02  0.36790315617E+02  0.69130458481E+02  0.00000000000E+00 0.  1.
</event>
<event>
 8    1  0.6635152E-009  0.1615576E+03  0.7561462E-02  0.1186949E+00
          2   -1    0    0  501    0  0.00000000000E+00  0.00000000000E+00  0.19600356057E+04  0.19600356057E+04  0.00000000000E+00 0.  1.
         -2   -1    0    0    0  501 -0.00000000000E+00 -0.00000000000E+00 -0.16594500741E+02  0.16594500741E+02  0.00000000000E+00 0. -1.
         25    2    1    2    0    0  0.10448053428E+03 -0.98561106904E+02  0.11321307554E+04  0.11480405975E+04  0.12508673910E+03 0.  0.
         23    2    1    2    0    0 -0.10448053428E+03  0.98561106904E+02  0.81131034959E+03  0.82858950899E+03  0.87781645146E+02 0.  0.
          5    1    3    3  502    0  0.55806368110E+02 -0.68505065235E+01  0.14694235025E+03  0.15738744186E+03  0.41800000000E+01 0. -1.
         -5    1    3    3    0  502  0.48674166168E+02 -0.91710600380E+02  0.98518840514E+03  0.99065315560E+03  0.41800000000E+01 0. -1.
        -11    1    4    4    0    0 -0.67023133086E+02  0.10524555075E+03  0.69790911659E+03  0.70897521913E+03  0.00000000000E+00 0. -1.
         11    1    4    4    0    0 -0.37457401192E+02 -0.66844438444E+01  0.11340123300E+03  0.11961428987E+03  0.00000000000E+00 0.  1.
</event>
<event>
 8    1  0.6635152E-009  0.1082906E+03  0.7561462E-02  0.1263769E+00
         -1   -1    0    0    0  501 -0.00000000000E+00  0.00000000000E+00  0.29424238690E+02  0.29424238690E+02  0.00000000000E+00 0.  1.
          1   -1    0    0  501    0  0.00000000000E+00 -0.00000000000E+00 -0.45277720091E+03  0.45277720091E+03  0.00000000000E+00 0. -1.
         25    2    1    2    0    0  0.12007373061E+02  0.20277757029E+02 -0.17423777574E+03  0.21578146345E+03  0.12508985984E+03 0.  0.
         23    2    1    2    0    0 -0.12007373061E+02 -0.20277757029E+02 -0.24911518648E+03  0.26641997615E+03  0.91465092359E+02 0.  0.
          5    1    3    3  502    0  0.62573964546E+02  0.32006751283E+02 -0.70135868056E+02  0.99380307680E+02  0.41800000000E+01 0.  1.
         -5    1    3    3    0  502 -0.50566591485E+02 -0.11728994254E+02 -0.10410190769E+03  0.11640115577E+03  0.41800000000E+01 0.  1.
        -11    1    4    4    0    0 -0.45430117381E+02  0.12669139060E+02 -0.11329062276E+03  0.12271580116E+03  0.00000000000E+00 0.  1.
         11    1    4    4    0    0  0.33422744320E+02 -0.32946896088E+02 -0.13582456372E+03  0.14370417499E+03  0.00000000000E+00 0. -1.
</event>
<event>
 8    1  0.6635152E-009  0.1191255E+03  0.7561462E-02  0.1244547E+00
         -1   -1    0    0    0  501 -0.00000000000E+00  0.00000000000E+00  0.28167456637E+02  0.28167456637E+02  0.00000000000E+00 0.  1.
          1   -1    0    0  501    0  0.00000000000E+00 -0.00000000000E+00 -0.77191300751E+03  0.77191300751E+03  0.00000000000E+00 0. -1.
         25    2    1    2    0    0 -0.63503008336E+02  0.26489507790E+02 -0.59356394765E+03  0.61050044052E+03  0.12513313644E+03 0.  0.
         23    2    1    2    0    0  0.63503008336E+02 -0.26489507790E+02 -0.15018160322E+03  0.18958002363E+03  0.93014758619E+02 0.  0.
          5    1    3    3  502    0  0.17353904053E+02  0.53195836524E+02 -0.27909426474E+03  0.28467882959E+03  0.41800000000E+01 0.  1.
         -5    1    3    3    0  502 -0.80856912389E+02 -0.26706328734E+02 -0.31446968291E+03  0.32582161093E+03  0.41800000000E+01 0.  1.
        -11    1    4    4    0    0  0.77991745992E+02 -0.17825591283E+02 -0.65973741031E+02  0.10369666655E+03  0.00000000000E+00 0.  1.
         11    1    4    4    0    0 -0.14488737657E+02 -0.86639165069E+01 -0.84207862192E+02  0.85883357079E+02  0.00000000000E+00 0. -1.
</event>
<event>
 8    1  0.6635152E-009  0.1046091E+03  0.7561462E-02  0.1270892E+00
          1   -1    0    0  501    0  0.00000000000E+00  0.00000000000E+00  0.62388272866E+02  0.62388272866E+02  0.00000000000E+00 0. -1.
         -1   -1    0    0    0  501 -0.00000000000E+00 -0.00000000000E+00 -0.20350893648E+03  0.20350893648E+03  0.00000000000E+00 0.  1.
         25    2    1    2    0    0 -0.15864038632E+02  0.10510626354E+02 -0.10473544172E+03  0.16425787419E+03  0.12509594515E+03 0.  0.
         23    2    1    2    0    0  0.15864038632E+02 -0.10510626354E+02 -0.36385221895E+02  0.10163933516E+03  0.92975959749E+02 0.  0.
          5    1    3    3  502    0 -0.57070943535E+02  0.36703099896E+02 -0.90570874770E+02  0.11324648292E+03  0.41800000000E+01 0.  1.
         -5    1    3    3    0  502  0.41206904903E+02 -0.26192473542E+02 -0.14164566951E+02  0.51011391266E+02  0.41800000000E+01 0.  1.
        -11    1    4    4    0    0  0.33241718801E+02 -0.43616760225E+02 -0.33216924798E+02  0.64115503074E+02  0.00000000000E+00 0. -1.
         11    1    4    4    0    0 -0.17377680169E+02  0.33106133871E+02 -0.31682970974E+01  0.37523832086E+02  0.00000000000E+00 0.  1.
</event>
<event>
 8    1  0.6635152E-009  0.1076106E+03  0.7561462E-02  0.1265060E+00
         -1   -1    0    0    0  501 -0.00000000000E+00  0.00000000000E+00  0.30259596798E+03  0.30259596798E+03  0.00000000000E+00 0. -1.
          1   -1    0    0  501    0  0.00000000000E+00 -0.00000000000E+00 -0.80576093327E+02  0.80576093327E+02  0.00000000000E+00 0.  1.
         25    2    1    2    0    0  0.57030841678E+02 -0.72836942774E+02  0.19803443869E+03  0.25183823680E+03  0.12508845460E+03 0.  0.
         23    2    1    2    0    0 -0.57030841678E+02  0.72836942774E+02  0.23985435965E+02  0.13133382450E+03  0.90086265243E+02 0.  0.
          5    1    3    3  502    0  0.35789360949E+02 -0.66718923824E+02  0.21214033747E+03  0.22528490481E+03  0.41800000000E+01 0. -1.
         -5    1    3    3    0  502  0.21241480729E+02 -0.61180189498E+01 -0.14105898782E+02  0.26553331992E+02  0.41800000000E+01 0. -1.
        -11    1    4    4    0    0 -0.14490726215E+02  0.72931396812E+02 -0.12365162687E+02  0.75378160202E+02  0.00000000000E+00 0. -1.
         11    1    4    4    0    0 -0.42540115463E+02 -0.94454038109E-01  0.36350598652E+02  0.55955664302E+02  0.00000000000E+00 0.  1.
</event>
<event>
 8    1  0.6635152E-009  0.1133698E+03  0.7561462E-02  0.1254454E+00
         -1   -1    0    0    0  501 -0.00000000000E+00  0.00000000000E+00  0.18534715436E+02  0.18534715436E+02  0.00000000000E+00 0.  1.
          1   -1    0    0  501    0  0.00000000000E+00 -0.00000000000E+00 -0.75326318423E+03  0.75326318423E+03  0.00000000000E+00 0. -1.
         25    2    1    2    0    0 -0.17668116730E+02 -0.45309966579E+02 -0.35456547745E+03  0.37911660681E+03  0.12509024079E+03 0.  0.
         23    2    1    2    0    0  0.17668116730E+02  0.45309966579E+02 -0.38016299134E+03  0.39268129285E+03  0.85495861599E+02 0.  0.
          5    1    3    3  502    0  0.53231358423E+02 -0.14179976521E+02 -0.17525894257E+03  0.18376022041E+03  0.41800000000E+01 0. -1.
         -5    1    3    3    0  502 -0.70899475153E+02 -0.31129990059E+02 -0.17930653488E+03  0.19535638640E+03  0.41800000000E+01 0. -1.
        -11    1    4    4    0    0 -0.10056920612E+02  0.61180909252E+02 -0.19019706150E+03  0.20004791304E+03  0.00000000000E+00 0.  1.
         11    1    4    4    0    0  0.27725037342E+02 -0.15870942672E+02 -0.18996592984E+03  0.19263337981E+03  0.00000000000E+00 0. -1.
</event>
<event>
 8    1  0.6635152E-009  0.1944405E+03  0.7561462E-02  0.1154516E+00
         -1   -1    0    0    0  501 -0.00000000000E+00  0.00000000000E+00  0.48144483749E+02  0.48144483749E+02  0.00000000000E+00 0.  1.
          1   -1    0    0  501    0  0.00000000000E+00 -0.00000000000E+00 -0.91320422422E+03  0.91320422422E+03  0.00000000000E+00 0. -1.
         25    2    1    2    0    0 -0.15568817552E+03  0.31974472188E+02 -0.28294559718E+03  0.34780370044E+03  0.12509207891E+03 0.  0.
         23    2    1    2    0    0  0.15568817552E+03 -0.31974472188E+02 -0.58211414329E+03  0.61354500753E+03  0.11099290779E+03 0.  0.
          5    1    3    3  502    0 -0.15992320538E+03 -0.86123342951E+01 -0.21025421686E+03  0.26433673984E+03  0.41800000000E+01 0.  1.
         -5    1    3    3    0  502  0.42350298650E+01  0.40586806483E+02 -0.72691380325E+02  0.83466960601E+02  0.41800000000E+01 0.  1.
        -11    1    4    4    0    0  0.10072306563E+03  0.29726525502E+02 -0.40007731611E+03  0.41363106887E+03  0.00000000000E+00 0. -1.
         11    1    4    4    0    0  0.54965109890E+02 -0.61700997691E+02 -0.18203682718E+03  0.19991393866E+03  0.00000000000E+00 0.  1.
</event>
<event>
 8    1  0.6635152E-009  0.1120808E+03  0.7561462E-02  0.1256764E+00
         -2   -1    0    0    0  501 -0.00000000000E+00  0.00000000000E+00  0.16267508201E+02  0.16267508201E+02  0.00000000000E+00 0. -1.
          2   -1    0    0  501    0  0.00000000000E+00 -0.00000000000E+00 -0.93134268687E+03  0.93134268687E+03  0.00000000000E+00 0.  1.
         25    2    1    2    0    0  0.50027947194E+02 -0.29479817520E+02 -0.51903626704E+03  0.53705177599E+03  0.12511637961E+03 0.  0.
         23    2    1    2    0    0 -0.50027947194E+02  0.29479817520E+02 -0.39603891163E+03  0.41055841908E+03  0.91321086365E+02 0.  0.
          5    1    3    3  502    0  0.64385754083E+02 -0.59448355003E+02 -0.46699454026E+03  0.47516418771E+03  0.41800000000E+01 0. -1.
         -5    1    3    3    0  502 -0.14357806889E+02  0.29968537483E+02 -0.52041726777E+02  0.61887588283E+02  0.41800000000E+01 0. -1.
        -11    1    4    4    0    0 -0.74181710951E+02  0.25588056671E+02 -0.34691727943E+03  0.35568142157E+03  0.00000000000E+00 0.  1.
         11    1    4    4    0    0  0.24153763757E+02  0.38917608496E+01 -0.49121632198E+02  0.54876997512E+02  0.00000000000E+00 0. -1.
</event>
<event>
 8    1  0.6635152E-009  0.1092373E+03  0.7561462E-02  0.1261989E+00
         -2   -1    0    0    0  501 -0.00000000000E+00  0.00000000000E+00  0.26648338525E+02  0.26648338525E+02  0.00000000000E+00 0.  1.
          2   -1    0    0  501    0  0.00000000000E+00 -0.00000000000E+00 -0.57637046689E+03  0.57637046689E+03  0.00000000000E+00 0. -1.
         25    2    1    2    0    0  0.52037265588E+01 -0.47211134949E+02 -0.40084404730E+03  0.42258686725E+03  0.12509092725E+03 0.  0.
         23    2    1    2    0    0 -0.52037265588E+01  0.47211134949E+02 -0.14887808106E+03  0.18043193816E+03  0.90194408116E+02 0.  0.
          5    1    3    3  502    0 -0.10072120987E+02 -0.88367575586E+02 -0.24753197751E+03  0.26305860245E+03  0.41800000000E+01 0.  1.
         -5    1    3    3    0  502  0.15275847546E+02  0.41156440637E+02 -0.15331206980E+03  0.15952826480E+03  0.41800000000E+01 0.  1.
        -11    1    4    4    0    0 -0.14939775664E+02 -0.15703477448E+02 -0.93731555045E+02  0.96204992136E+02  0.00000000000E+00 0. -1.
         11    1    4    4    0    0  0.97360491050E+01  0.62914612397E+02 -0.55146526015E+02  0.84226946026E+02  0.00000000000E+00 0.  1.
</event>
<event>
 8    1  0.6635152E-009  0.1360236E+03  0.7561462E-02  0.1218782E+00
         -2   -1    0    0    0  501 -0.00000000000E+00  0.00000000000E+00  0.28983684770E+03  0.28983684770E+03  0.00000000000E+00 0. -1.
          2   -1    0    0  501    0  0.00000000000E+00 -0.00000000000E+00 -0.92948239118E+02  0.92948239118E+02  0.00000000000E+00 0.  1.
         25    2    1    2    0    0  0.56673293996E+02  0.10404488846E+03  0.14127755380E+03  0.22281115411E+03  0.12509301387E+03 0.  0.
         23    2    1    2    0    0 -0.56673293996E+02 -0.10404488846E+03  0.55611054789E+02  0.15997393271E+03  0.91988415931E+02 0.  0.
          5    1    3    3  502    0  0.64790034091E+02  0.22794637240E+02  0.12000374365E+02  0.69848589029E+02  0.41800000000E+01 0.  1.
         -5    1    3    3    0  502 -0.81167400953E+01  0.81250251223E+02  0.12927717943E+03  0.15296256508E+03  0.41800000000E+01 0.  1.
        -11    1    4    4    0    0 -0.37666125542E+01 -0.31300773066E+02 -0.24182577458E+02  0.39733145070E+02  0.00000000000E+00 0.  1.
         11    1    4    4    0    0 -0.52906681442E+02 -0.72744115397E+02  0.79793632246E+02  0.12024078764E+03  0.00000000000E+00 0. -1.
</event>
<event>
 8    1  0.6635152E-009  0.8844829E+02  0.7561462E-02  0.1306653E+00
          1   -1    0    0  501    0  0.00000000000E+00  0.00000000000E+00  0.12653732055E+03  0.12653732055E+03  0.00000000000E+00 0. -1.
         -1   -1    0    0    0  501 -0.00000000000E+00 -0.00000000000E+00 -0.16483949544E+03  0.16483949544E+03  0.00000000000E+00 0.  1.
         25    2    1    2    0    0 -0.34048403364E+01 -0.38744202786E+02  0.66794607743E+02  0.14704262477E+03  0.12508919893E+03 0.  0.
         23    2    1    2    0    0  0.34048403364E+01  0.38744202786E+02 -0.10509678264E+03  0.14433419122E+03  0.90963282953E+02 0.  0.
          5    1    3    3  502    0 -0.46284626036E+02  0.21237257738E+02  0.49613313371E+02  0.71219667138E+02  0.41800000000E+01 0. -1.
         -5    1    3    3    0  502  0.42879785699E+02 -0.59981460524E+02  0.17181294372E+02  0.75822957635E+02  0.41800000000E+01 0. -1.
        -11    1    4    4    0    0 -0.94455343058E+01  0.37914275047E+02 -0.11907902058E+03  0.12532566980E+03  0.00000000000E+00 0.  1.
         11    1    4    4    0    0  0.12850374642E+02  0.82992773921E+00  0.13982237937E+02  0.19008521411E+02  0.00000000000E+00 0. -1.
</event>
<event>
 8    1  0.6635152E-009  0.1061623E+03  0.7561462E-02  0.1267846E+00
          1   -1    0    0  501    0  0.00000000000E+00  0.00000000000E+00  0.44471211793E+02  0.44471211793E+02  0.00000000000E+00 0. -1.
         -1   -1    0    0    0  501 -0.00000000000E+00 -0.00000000000E+00 -0.31541995114E+03  0.31541995114E+03  0.00000000000E+00 0.  1.
         25    2    1    2    0    0 -0.54435809208E+01  0.43014037995E+02 -0.10775131732E+03  0.17070344634E+03  0.12509788235E+03 0.  0.
         23    2    1    2    0    0  0.54435809208E+01 -0.43014037995E+02 -0.16319742203E+03  0.18918771660E+03  0.85315611216E+02 0.  0.
          5    1    3    3  502    0  0.45979043573E+02 -0.14388182569E+02 -0.69221393725E+02  0.84440310248E+02  0.41800000000E+01 0. -1.
         -5    1    3    3    0  502 -0.51422624494E+02  0.57402220565E+02 -0.38529923595E+02  0.86263136088E+02  0.41800000000E+01 0. -1.
        -11    1    4    4    0    0  0.32612039258E+02 -0.49100336155E+02 -0.14335076966E+03  0.15499622988E+03  0.00000000000E+00 0.  1.
         11    1    4    4    0    0 -0.27168458337E+02  0.60862981601E+01 -0.19846652366E+02  0.34191486715E+02  0.00000000000E+00 0. -1.
</event>
<event>
 8    1  0.6635152E-009  0.1100142E+03  0.7561462E-02  0.1260544E+00
         -1   -1    0    0    0  501 -0.00000000000E+00  0.00000000000E+00  0.15572043897E+02  0.15572043897E+02  0.00000000000E+00 0.  1.
          1   -1    0    0  501    0  0.00000000000E+00 -0.00000000000E+00 -0.83668465316E+03  0.83668465316E+03  0.00000000000E+00 0. -1.
         25    2    1    2    0    0  0.23718656405E+02 -0.24975248926E+01 -0.37771932446E+03  0.39860573661E+03  0.12508330382E+03 0.  0.
         23    2    1    2    0    0 -0.23718656405E+02  0.24975248926E+01 -0.44339328481E+03  0.45365096045E+03  0.92912736563E+02 0.  0.
          5    1    3    3  502    0  0.72035275019E+02 -0.19669299994E+02 -0.19748235336E+03  0.21116987119E+03  0.41800000000E+01 0. -1.
         -5    1    3    3    0  502 -0.48316618614E+02  0.17171775102E+02 -0.18023697109E+03  0.18743586542E+03  0.41800000000E+01 0. -1.
        -11    1    4    4    0    0  0.27555078287E+02  0.25546719734E+02 -0.13291028034E+03  0.13811973012E+03  0.00000000000E+00 0.  1.
         11    1    4    4    0    0 -0.51273734692E+02 -0.23049194841E+02 -0.31048300447E+03  0.31553123033E+03  0.00000000000E+00 0. -1.
</event>
<event>
 8    1  0.6635152E-009  0.7891897E+02  0.7561462E-02  0.1332148E+00
          1   -1    0    0  501    0  0.00000000000E+00  0.00000000000E+00  0.34729520768E+03  0.34729520768E+03  0.00000000000E+00 0. -1.
         -1   -1    0    0    0  501 -0.00000000000E+00 -0.00000000000E+00 -0.58572738060E+02  0.58572738060E+02  0.00000000000E+00 0.  1.
         25    2    1    2    0    0  0.41021652207E+02  0.48938654225E+02  0.25485712679E+03  0.29099394357E+03  0.12509017663E+03 0.  0.
         23    2    1    2    0    0 -0.41021652207E+02 -0.48938654225E+02  0.33865342832E+02  0.11487400217E+03  0.89282736872E+02 0.  0.
          5    1    3    3  502    0 -0.16698830333E+02  0.77885456082E+01  0.20095934088E+03  0.20184558817E+03  0.41800000000E+01 0.  1.
         -5    1    3    3    0  502  0.57720482540E+02  0.41150108617E+02  0.53897785910E+02  0.89148355396E+02  0.41800000000E+01 0.  1.
        -11    1    4    4    0    0 -0.30153649301E+02 -0.17944140028E+02 -0.27959592618E+02  0.44866173749E+02  0.00000000000E+00 0.  1.
         11    1    4    4    0    0 -0.10868002906E+02 -0.30994514196E+02  0.61824935450E+02  0.70007828425E+02  0.00000000000E+00 0. -1.
</event>
<event>
 8    1  0.6635152E-009  0.1611016E+03  0.7561462E-02  0.1187459E+00
          2   -1    0    0  501    0  0.00000000000E+00  0.00000000000E+00  0.32392369950E+03  0.32392369950E+03  0.00000000000E+00 0. -1.
         -2   -1    0    0    0  501 -0.00000000000E+00 -0.00000000000E+00 -0.11730021241E+03  0.11730021241E+03  0.00000000000E+00 0.  1.
         25    2    1    2    0    0 -0.79634263116E+02 -0.12107223430E+03  0.30997343243E+02  0.19392867183E+03  0.12508953870E+03 0.  0.
         23    2    1    2    0    0  0.79634263116E+02  0.12107223430E+03  0.17562614385E+03  0.24729524007E+03  0.96489852217E+02 0.  0.
          5    1    3    3  502    0 -0.96989332997E+02 -0.12243857455E+03  0.53511367474E+02  0.16516377963E+03  0.41800000000E+01 0.  1.
         -5    1    3    3    0  502  0.17355069881E+02  0.13663402534E+01 -0.22514024231E+02  0.28764892201E+02  0.41800000000E+01 0.  1.
        -11    1    4    4    0    0  0.42155851443E+02  0.37370248973E+02  0.89323741191E+01  0.57038922032E+02  0.00000000000E+00 0.  1.
         11    1    4    4    0    0  0.37478411673E+02  0.83701985325E+02  0.16669376973E+03  0.19025631804E+03  0.00000000000E+00 0. -1.
</event>
<event>
 8    1  0.6635152E-009  0.7156828E+02  0.7561462E-02  0.1354840E+00
          2   -1    0    0  501    0  0.00000000000E+00  0.00000000000E+00  0.35953401724E+03  0.35953401724E+03  0.00000000000E+00 0. -1.
         -2   -1    0    0    0  501 -0.00000000000E+00 -0.00000000000E+00 -0.40473364648E+02  0.40473364648E+02  0.00000000000E+00 0.  1.
         25    2    1    2    0    0 -0.46173595565E+01  0.24009390298E+02  0.10193287283E+03  0.16320139139E+03  0.12508642115E+03 0.  0.
         23    2    1    2    0    0  0.46173595565E+01 -0.24009390298E+02  0.21712777976E+03  0.23680599050E+03  0.91295309630E+02 0.  0.
          5    1    3    3  502    0 -0.32535299354E+02 -0.34759594316E+01  0.11658791130E+03  0.12116452228E+03  0.41800000000E+01 0. -1.
         -5    1    3    3    0  502  0.27917939798E+02  0.27485349729E+02 -0.14655038466E+02  0.42036869112E+02  0.41800000000E+01 0. -1.
        -11    1    4    4    0    0 -0.29520529410E+02 -0.21501126945E+02  0.32050932394E+02  0.48590352786E+02  0.00000000000E+00 0.  1.
         11    1    4    4    0    0  0.34137888967E+02 -0.25082633531E+01  0.18507684737E+03  0.18821563772E+03  0.00000000000E+00 0. -1.
</event>
<event>
 8    1  0.6635152E-009  0.1248778E+03  0.7561462E-02  0.1235260E+00
         -1   -1    0    0    0  501 -0.00000000000E+00  0.00000000000E+00  0.17706456857E+02  0.17706456857E+02  0.00000000000E+00 0.  1.
          1   -1    0    0  501    0  0.00000000000E+00 -0.00000000000E+00 -0.10286050886E+04  0.10286050886E+04  0.00000000000E+00 0. -1.
         25    2    1    2    0    0 -0.50741602722E+02 -0.49657566720E+02 -0.68641958129E+03  0.70132744647E+03  0.12509101255E+03 0.  0.
         23    2    1    2    0    0  0.50741602722E+02  0.49657566720E+02 -0.32447905047E+03  0.34498409900E+03  0.93202951607E+02 0.  0.
          5    1    3    3  502    0  0.98085807373E+01 -0.72566793114E+02 -0.45948576422E+03  0.46530289881E+03  0.41800000000E+01 0.  1.
         -5    1    3    3    0  502 -0.60550183460E+02  0.22909226393E+02 -0.22693381707E+03  0.23602454766E+03  0.41800000000E+01 0.  1.
        -11    1    4    4    0    0  0.56045896639E+02  0.70480423414E+02 -0.20978430678E+03  0.22829386322E+03  0.00000000000E+00 0.  1.
         11    1    4    4    0    0 -0.53042939164E+01 -0.20822856694E+02 -0.11469474369E+03  0.11669023578E+03  0.00000000000E+00 0. -1.
</event>
<event>
 8    1  0.6635152E-009  0.1140143E+03  0.7561462E-02  0.1253312E+00
          1   -1    0    0  501    0  0.00000000000E+00  0.00000000000E+00  0.13118037837E+03  0.13118037837E+03  0.00000000000E+00 0. -1.
         -1   -1    0    0    0  501 -0.00000000000E+00 -0.00000000000E+00 -0.33828166537E+03  0.33828166537E+03  0.00000000000E+00 0.  1.
         25    2    1    2    0    0 -0.61765296538E+02  0.55003122961E+02  0.70253222685E+02  0.16559959191E+03  0.12508962447E+03 0.  0.
         23    2    1    2    0    0  0.61765296538E+02 -0.55003122961E+02 -0.27735450969E+03  0.30386245183E+03  0.92555768030E+02 0.  0.
          5    1    3    3  502    0  0.19269086866E+02  0.20652009272E+02 -0.23469426364E+02  0.36960648932E+02  0.41800000000E+01 0. -1.
         -5    1    3    3    0  502 -0.81034383404E+02  0.34351113689E+02  0.93722649049E+02  0.12863894298E+03  0.41800000000E+01 0. -1.
        -11    1    4    4    0    0  0.98992249749E+01 -0.58543874661E+02 -0.21306716826E+03  0.22118543828E+03  0.00000000000E+00 0.  1.
         11    1    4    4    0    0  0.51866071563E+02  0.35407516995E+01 -0.64287341424E+02  0.82677013549E+02  0.00000000000E+00 0. -1.
</event>
<event>
 8    1  0.6635152E-009  0.1117159E+03  0.7561462E-02  0.1257425E+00
          4   -1    0    0  501    0  0.00000000000E+00  0.00000000000E+00  0.50829125390E+03  0.50829125390E+03  0.00000000000E+00 0. -1.
         -4   -1    0    0    0  501 -0.00000000000E+00 -0.00000000000E+00 -0.64132926685E+02  0.64132926685E+02  0.00000000000E+00 0.  1.
         25    2    1    2    0    0  0.86771983947E+01  0.92084578756E+02  0.41029445495E+03  0.43879847054E+03  0.12509074534E+03 0.  0.
         23    2    1    2    0    0 -0.86771983947E+01 -0.92084578756E+02  0.33863872261E+02  0.13362571004E+03  0.90300637445E+02 0.  0.
          5    1    3    3  502    0  0.15782724658E+00 -0.46641620867E+01  0.25829283762E+03  0.25836880942E+03  0.41800000000E+01 0.  1.
         -5    1    3    3    0  502  0.85193711481E+01  0.96748740843E+02  0.15200161733E+03  0.18042966112E+03  0.41800000000E+01 0.  1.
        -11    1    4    4    0    0 -0.15079194030E+02  0.97249428397E+01  0.25625538772E+02  0.31282980088E+02  0.00000000000E+00 0.  1.
         11    1    4    4    0    0  0.64019956353E+01 -0.10180952160E+03  0.82383334893E+01  0.10234272995E+03  0.00000000000E+00 0. -1.
</event>
<event>
 8    1  0.6635152E-009  0.1078750E+03  0.7561462E-02  0.1264556E+00
         -2   -1    0    0    0  501 -0.00000000000E+00  0.00000000000E+00  0.23281030448E+02  0.23281030448E+02  0.00000000000E+00 0.  1.
          2   -1    0    0  501    0  0.00000000000E+00 -0.00000000000E+00 -0.96905180274E+03  0.96905180274E+03  0.00000000000E+00 0. -1.
         25    2    1    2    0    0 -0.16982047405E+02  0.93164596458E+02 -0.64064967877E+03  0.65958185749E+03  0.12509270106E+03 0.  0.
         23    2    1    2    0    0  0.16982047405E+02 -0.93164596458E+02 -0.30512109352E+03  0.33275097570E+03  0.93039229077E+02 0.  0.
          5    1    3    3  502    0  0.19317576045E+02  0.45644406790E+01 -0.40051852994E+03  0.40103187914E+03  0.41800000000E+01 0. -1.
         -5    1    3    3    0  502 -0.36299623449E+02  0.88600155779E+02 -0.24013114883E+03  0.25854997835E+03  0.41800000000E+01 0. -1.
        -11    1    4    4    0    0  0.21829519325E+02 -0.34930331159E+02 -0.24672039818E+03  0.25013518510E+03  0.00000000000E+00 0. -1.
         11    1    4    4    0    0 -0.48474719200E+01 -0.58234265299E+02 -0.58400695346E+02  0.82615790596E+02  0.00000000000E+00 0.  1.
</event>
<event>
 8    1  0.6635152E-009  0.2034285E+03  0.7561462E-02  0.1146878E+00
         -1   -1    0    0    0  501 -0.00000000000E+00  0.00000000000E+00  0.11311646775E+03  0.11311646775E+03  0.00000000000E+00 0.  1.
          1   -1    0    0  501    0  0.00000000000E+00 -0.00000000000E+00 -0.56312437175E+03  0.56312437175E+03  0.00000000000E+00 0. -1.
         25    2    1    2    0    0 -0.45469561799E+02 -0.18868972721E+03 -0.73230676969E+02  0.24222838347E+03  0.12506223853E+03 0.  0.
         23    2    1    2    0    0  0.45469561799E+02  0.18868972721E+03 -0.37677722703E+03  0.43401245603E+03  0.93458220482E+02 0.  0.
          5    1    3    3  502    0  0.14351921311E+02 -0.71232701317E+02  0.25890423732E+02  0.77251937343E+02  0.41800000000E+01 0.  1.
         -5    1    3    3    0  502 -0.59821483109E+02 -0.11745702589E+03 -0.99121100701E+02  0.16497644613E+03  0.41800000000E+01 0.  1.
        -11    1    4    4    0    0  0.25917543179E+01  0.12721893064E+03 -0.15868659653E+03  0.20340307131E+03  0.00000000000E+00 0.  1.
         11    1    4    4    0    0  0.42877807481E+02  0.61470796574E+02 -0.21809063050E+03  0.23060938471E+03  0.00000000000E+00 0. -1.
</event>
<event>
 7    1  0.6635152E-009  0.1233262E+03  0.7561462E-02  0.1237709E+00
          1   -1    0    0  501    0  0.00000000000E+00  0.00000000000E+00  0.46422903884E+02  0.46422903884E+02  0.00000000000E+00 0. -1.
         -1   -1    0    0    0  501 -0.00000000000E+00 -0.00000000000E+00 -0.41974118978E+03  0.41974118978E+03  0.00000000000E+00 0.  1.
         25    2    1    2    0    0 -0.74115400308E+02  0.63017260042E+02 -0.15716019067E+03  0.22318444849E+03  0.12509078659E+03 0.  0.
          5    1    3    3  502    0  0.83647661339E+01 -0.19388847259E+02  0.62369370004E+01  0.22411347431E+02  0.41800000000E+01 0.  1.
         -5    1    3    3    0  502 -0.82480166442E+02  0.82406107301E+02 -0.16339712767E+03  0.20077310106E+03  0.41800000000E+01 0.  1.
        -11    1    1    2    0    0  0.31226938168E+02 -0.57212678599E+02 -0.10372452437E+03  0.12250383347E+03  0.00000000000E+00 0. -1.
         11    1    1    2    0    0  0.42888462140E+02 -0.58045814431E+01 -0.11243357086E+03  0.12047581171E+03  0.00000000000E+00 0.  1.
</event>
<event>
 8    1  0.6635152E-009  0.3452627E+03  0.7561462E-02  0.1064576E+00
          2   -1    0    0  501    0  0.00000000000E+00  0.00000000000E+00  0.10195277582E+04  0.10195277582E+04  0.00000000000E+00 0. -1.
         -2   -1    0    0    0  501 -0.00000000000E+00 -0.00000000000E+00 -0.12776387847E+03  0.12776387847E+03  0.00000000000E+00 0.  1.
         25    2    1    2    0    0 -0.21317722533E+03 -0.25599718774E+03  0.31593547705E+03  0.47585988884E+03  0.12509323970E+03 0.  0.
         23    2    1    2    0    0  0.21317722533E+03  0.25599718774E+03  0.57582840268E+03  0.67143174782E+03  0.90901887347E+02 0.  0.
          5    1    3    3  502    0 -0.70205352484E+02 -0.18134370725E+03  0.17231899585E+03  0.25985696144E+03  0.41800000000E+01 0.  1.
         -5    1    3    3    0  502 -0.14297187284E+03 -0.74653480484E+02  0.14361648120E+03  0.21600292740E+03  0.41800000000E+01 0.  1.
        -11    1    4    4    0    0  0.17582516114E+03  0.22839710514E+03  0.42427602531E+03  0.51292287001E+03  0.00000000000E+00 0.  1.
         11    1    4    4    0    0  0.37352064186E+02  0.27600082593E+02  0.15155237737E+03  0.15850887781E+03  0.00000000000E+00 0. -1.
</event>
<event>
 8    1  0.6635152E-009  0.6886632E+02  0.7561462E-02  0.1363991E+00
         -4   -1    0    0    0  501 -0.00000000000E+00  0.00000000000E+00  0.64969233284E+02  0.64969233284E+02  0.00000000000E+00 0.  1.
          4   -1    0    0  501    0  0.00000000000E+00 -0.00000000000E+00 -0.19429284684E+03  0.19429284684E+03  0.00000000000E+00 0. -1.
         25    2    1    2    0    0  0.15184702370E+02 -0.23071368585E+02 -0.96061630230E+02  0.16010285020E+03  0.12506887145E+03 0.  0.
         23    2    1    2    0    0 -0.15184702370E+02  0.23071368585E+02 -0.33261983322E+02  0.99159229918E+02  0.89237492731E+02 0.  0.
          5    1    3    3  502    0  0.47767003766E+02 -0.16261624305E+02 -0.11203616063E+03  0.12294592618E+03  0.41800000000E+01 0.  1.
         -5    1    3    3    0  502 -0.32582301396E+02 -0.68097442795E+01  0.15974530404E+02  0.37156924026E+02  0.41800000000E+01 0.  1.
        -11    1    4    4    0    0  0.16303967497E+02  0.41770789040E+01 -0.54292393935E+02  0.56841282388E+02  0.00000000000E+00 0. -1.
         11    1    4    4    0    0 -0.31488669868E+02  0.18894289681E+02  0.21030410613E+02  0.42317947530E+02  0.00000000000E+00 0.  1.
</event>
<event>
 8    1  0.6635152E-009  0.1170689E+03  0.7561462E-02  0.1248012E+00
         -2   -1    0    0    0  501 -0.00000000000E+00  0.00000000000E+00  0.10556246572E+04  0.10556246572E+04  0.00000000000E+00 0.  1.
          2   -1    0    0  501    0  0.00000000000E+00 -0.00000000000E+00 -0.28392994607E+02  0.28392994607E+02  0.00000000000E+00 0. -1.
         25    2    1    2    0    0  0.82069229928E+00 -0.88560191627E+02  0.85785714350E+03  0.87143898653E+03  0.12507376831E+03 0.  0.
         23    2    1    2    0    0 -0.82069229928E+00  0.88560191627E+02  0.16937451910E+03  0.21257866528E+03  0.93050417173E+02 0.  0.
          5    1    3    3  502    0  0.51717168882E+02 -0.34764063389E+02  0.20289533305E+03  0.21229035361E+03  0.41800000000E+01 0.  1.
         -5    1    3    3    0  502 -0.50896476583E+02 -0.53796128238E+02  0.65496181044E+03  0.65914863292E+03  0.41800000000E+01 0.  1.
        -11    1    4    4    0    0 -0.17416660595E+02  0.71946166180E+02  0.17359547738E+03  0.18871931714E+03  0.00000000000E+00 0.  1.
         11    1    4    4    0    0  0.16595968295E+02  0.16614025447E+02 -0.42209582772E+01  0.23859348147E+02  0.00000000000E+00 0. -1.
</event>
<event>
 8    1  0.6635152E-009  0.1030425E+03  0.7561462E-02  0.1274025E+00
         -1   -1    0    0    0  501 -0.00000000000E+00  0.00000000000E+00  0.41737263968E+03  0.41737263968E+03  0.00000000000E+00 0.  1.
          1   -1    0    0  501    0  0.00000000000E+00 -0.00000000000E+00 -0.31298914796E+02  0.31298914796E+02  0.00000000000E+00 0. -1.
         25    2    1    2    0    0  0.47628437997E+01 -0.22027686105E+02  0.17291887880E+03  0.21460687028E+03  0.12508903425E+03 0.  0.
         23    2    1    2    0    0 -0.47628437997E+01  0.22027686105E+02  0.21315484608E+03  0.23406468419E+03  0.94039270209E+02 0.  0.
          5    1    3    3  502    0 -0.20736719826E+01  0.47075544744E+02  0.11406169026E+03  0.12348258425E+03  0.41800000000E+01 0. -1.
         -5    1    3    3    0  502  0.68365157824E+01 -0.69103230849E+02  0.58857188544E+02  0.91124286033E+02  0.41800000000E+01 0. -1.
        -11    1    4    4    0    0  0.14177190137E+02  0.51922280559E+02  0.80987765022E+02  0.97241627002E+02  0.00000000000E+00 0. -1.
         11    1    4    4    0    0 -0.18940033936E+02 -0.29894594454E+02  0.13216708106E+03  0.13682305719E+03  0.00000000000E+00 0.  1.
</event>
<event>
 8    1  0.6635152E-009  0.1042720E+03  0.7561462E-02  0.1271561E+00
          2   -1    0    0  501    0  0.00000000000E+00  0.00000000000E+00  0.12723251256E+03  0.12723251256E+03  0.00000000000E+00 0. -1.
         -2   -1    0    0    0  501 -0.00000000000E+00 -0.00000000000E+00 -0.10722266613E+03  0.10722266613E+03  0.00000000000E+00 0.  1.
         25    2    1    2    0    0 -0.63210572898E+01 -0.87894130371E+01 -0.40194497116E+02  0.13183737950E+03  0.12509311528E+03 0.  0.
         23    2    1    2    0    0  0.63210572898E+01  0.87894130371E+01  0.60204343550E+02  0.10261779919E+03  0.82393204705E+02 0.  0.
          5    1    3    3  502    0  0.66639589890E+01  0.57416309602E+02 -0.19446915748E+02  0.61128519447E+02  0.41800000000E+01 0. -1.
         -5    1    3    3    0  502 -0.12985016279E+02 -0.66205722639E+02 -0.20747581367E+02  0.70708860057E+02  0.41800000000E+01 0. -1.
        -11    1    4    4    0    0  0.44424295944E+02  0.45641140828E+01  0.29799652483E+02  0.53687694080E+02  0.00000000000E+00 0.  1.
         11    1    4    4    0    0 -0.38103238654E+02  0.42252989543E+01  0.30404691067E+02  0.48930105110E+02  0.00000000000E+00 0. -1.
</event>
<event>
 8    1  0.6635152E-009  0.1132148E+03  0.7561462E-02  0.1254730E+00
         -4   -1    0    0    0  501 -0.00000000000E+00  0.00000000000E+00  0.13364394035E+03  0.13364394035E+03  0.00000000000E+00 0. -1.
          4   -1    0    0  501    0  0.00000000000E+00 -0.00000000000E+00 -0.11177794686E+03  0.11177794686E+03  0.00000000000E+00 0.  1.
         25    2    1    2    0    0 -0.47671348896E+01  0.47790725008E+02  0.51322835733E+02  0.14347755388E+03  0.12508035829E+03 0.  0.
         23    2    1    2    0    0  0.47671348896E+01 -0.47790725008E+02 -0.29456842245E+02  0.10194433332E+03  0.84960358813E+02 0.  0.
          5    1    3    3  502    0  0.46760432840E+02  0.62302923520E+02  0.43194179338E+02  0.89170633547E+02  0.41800000000E+01 0.  1.
         -5    1    3    3    0  502 -0.51527567729E+02 -0.14512198512E+02  0.81286563950E+01  0.54306920338E+02  0.41800000000E+01 0.  1.
        -11    1    4    4    0    0 -0.35434860774E+02 -0.46229182214E+01 -0.23243543328E+02  0.42629368250E+02  0.00000000000E+00 0.  1.
         11    1    4    4    0    0  0.40201995664E+02 -0.43167806787E+02 -0.62132989177E+01  0.59314965072E+02  0.00000000000E+00 0. -1.
</event>
<event>
 8    1  0.6635152E-009  0.1328192E+03  0.7561462E-02  0.1223331E+00
         -3   -1    0    0    0  501 -0.00000000000E+00  0.00000000000E+00  0.39345621843E+03  0.39345621843E+03  0.00000000000E+00 0.  1.
          3   -1    0    0  501    0  0.00000000000E+00 -0.00000000000E+00 -0.59370594738E+02  0.59370594738E+02  0.00000000000E+00 0. -1.
         25    2    1    2    0    0  0.93008238260E+02  0.52890547188E+02  0.20369321516E+03  0.26189030935E+03  0.12509063061E+03 0.  0.
         23    2    1    2    0    0 -0.93008238260E+02 -0.52890547188E+02  0.13039240854E+03  0.19093650382E+03  0.89479751454E+02 0.  0.
          5    1    3    3  502    0 -0.10171051376E+02 -0.48971769917E+00  0.11537934954E+03  0.11590322174E+03  0.41800000000E+01 0.  1.
         -5    1    3    3    0  502  0.10317928964E+03  0.53380264887E+02  0.88313865618E+02  0.14598708761E+03  0.41800000000E+01 0.  1.
        -11    1    4    4    0    0 -0.47272863873E+02  0.20807956253E+02  0.37376854353E+02  0.63755187581E+02  0.00000000000E+00 0. -1.
         11    1    4    4    0    0 -0.45735374387E+02 -0.73698503441E+02  0.93015554182E+02  0.12718131624E+03  0.00000000000E+00 0.  1.
</event>
<event>
 8    1  0.6635152E-009  0.1144990E+03  0.7561462E-02  0.1252458E+00
          1   -1    0    0  501    0  0.00000000000E+00  0.00000000000E+00  0.50546069186E+03  0.50546069186E+03  0.00000000000E+00 0. -1.
         -1   -1    0    0    0  501 -0.00000000000E+00 -0.00000000000E+00 -0.57536576488E+02  0.57536576488E+02  0.00000000000E+00 0.  1.
         25    2    1    2    0    0 -0.73935397205E+02 -0.61679249339E+02  0.38631475970E+03  0.41732171154E+03  0.12509014591E+03 0.  0.
         23    2    1    2    0    0  0.73935397205E+02  0.61679249339E+02  0.61609355676E+02  0.14567555681E+03  0.90304387415E+02 0.  0.
          5    1    3    3  502    0 -0.62983063569E+02 -0.52670257328E+02  0.39270304312E+03  0.40121587055E+03  0.41800000000E+01 0. -1.
         -5    1    3    3    0  502 -0.10952333636E+02 -0.90089920113E+01 -0.63882834184E+01  0.16105840995E+02  0.41800000000E+01 0. -1.
        -11    1    4    4    0    0  0.16666660337E+02  0.71920131855E+02  0.34948903464E+02  0.81680528806E+02  0.00000000000E+00 0. -1.
         11    1    4    4    0    0  0.57268736868E+02 -0.10240882516E+02  0.26660452212E+02  0.63995028004E+02  0.00000000000E+00 0.  1.
</event>
<event>
 8    1  0.6635152E-009  0.3278348E+03  0.7561462E-02  0.1072099E+00
          2   -1    0    0  501    0  0.00000000000E+00  0.00000000000E+00  0.54336425448E+03  0.54336425448E+03  0.00000000000E+00 0. -1.
         -2   -1    0    0    0  501 -0.00000000000E+00 -0.00000000000E+00 -0.22292638173E+03  0.22292638173E+03  0.00000000000E+00 0.  1.
         25    2    1    2    0    0 -0.31069639282E+03 -0.62623239260E+02  0.26689063605E+03  0.43281995043E+03  0.12509428153E+03 0.  0.
         23    2    1    2    0    0  0.31069639282E+03  0.62623239260E+02  0.53547236710E+02  0.33347068579E+03  0.88777661114E+02 0.  0.
          5    1    3    3  502    0 -0.27788567528E+03 -0.15296183047E+02  0.24584440885E+03  0.37136419794E+03  0.41800000000E+01 0.  1.
         -5    1    3    3    0  502 -0.32810717534E+02 -0.47327056213E+02  0.21046227193E+02  0.61455752489E+02  0.41800000000E+01 0.  1.
        -11    1    4    4    0    0  0.18626924583E+03  0.57957668555E+02 -0.66011926440E+01  0.19518939272E+03  0.00000000000E+00 0. -1.
         11    1    4    4    0    0  0.12442714698E+03  0.46655707050E+01  0.60148429354E+02  0.13828129306E+03  0.00000000000E+00 0.  1.
</event>
<event>
 8    1  0.6635152E-009  0.2276133E+03  0.7561462E-02  0.1128331E+00
          1   -1    0    0  501    0  0.00000000000E+00  0.00000000000E+00  0.32341144373E+03  0.32341144373E+03  0.00000000000E+00 0. -1.
         -1   -1    0    0    0  501 -0.00000000000E+00 -0.00000000000E+00 -0.18788524518E+03  0.18788524518E+03  0.00000000000E+00 0.  1.
         25    2    1    2    0    0  0.20598542856E+03 -0.33036239619E+02 -0.53255343117E+01  0.24330409803E+03  0.12508850026E+03 0.  0.
         23    2    1    2    0    0 -0.20598542856E+03  0.33036239619E+02  0.14085173286E+03  0.26799259088E+03  0.91975149962E+02 0.  0.
          5    1    3    3  502    0  0.69927012035E+02  0.35164889010E+02 -0.38731990895E+02  0.87429948816E+02  0.41800000000E+01 0.  1.
         -5    1    3    3    0  502  0.13605841652E+03 -0.68201128629E+02  0.33406456583E+02  0.15587414922E+03  0.41800000000E+01 0.  1.
        -11    1    4    4    0    0 -0.10773201982E+03 -0.24840885894E+02  0.92425313774E+02  0.14410307537E+03  0.00000000000E+00 0. -1.
         11    1    4    4    0    0 -0.98253408741E+02  0.57877125513E+02  0.48426419085E+02  0.12388951551E+03  0.00000000000E+00 0.  1.
</event>
<event>
 8    1  0.6635152E-009  0.1568435E+03  0.7561462E-02  0.1192307E+00
          2   -1    0    0  501    0  0.00000000000E+00  0.00000000000E+00  0.64322809704E+02  0.64322809704E+02  0.00000000000E+00 0.  1.
         -2   -1    0    0    0  501 -0.00000000000E+00 -0.00000000000E+00 -0.45478216532E+03  0.45478216532E+03  0.00000000000E+00 0. -1.
         25    2    1    2    0    0 -0.72287258187E+02 -0.95130721932E+02 -0.30682560558E+03  0.35222620255E+03  0.12508414597E+03 0.  0.
         23    2    1    2    0    0  0.72287258187E+02  0.95130721932E+02 -0.83633750043E+02  0.16687877248E+03  0.81108683913E+02 0.  0.
          5    1    3    3  502    0 -0.28233281788E+02  0.29224839084E+02 -0.78528840786E+02  0.88518137436E+02  0.41800000000E+01 0. -1.
         -5    1    3    3    0  502 -0.44053976398E+02 -0.12435556102E+03 -0.22829676479E+03  0.26370806511E+03  0.41800000000E+01 0. -1.
        -11    1    4    4    0    0  0.86439941070E+02  0.67046144417E+02 -0.79343175414E+02  0.13513840453E+03  0.00000000000E+00 0.  1.
         11    1    4    4    0    0 -0.14152682883E+02  0.28084577515E+02 -0.42905746287E+01  0.31740367951E+02  0.00000000000E+00 0. -1.
</event>
<event>
 8    1  0.6635152E-009  0.2101971E+03  0.7561462E-02  0.1141410E+00
          1   -1    0    0  501    0  0.00000000000E+00  0.00000000000E+00  0.54073707741E+03  0.54073707741E+03  0.00000000000E+00 0. -1.
         -1   -1    0    0    0  501 -0.00000000000E+00 -0.00000000000E+00 -0.11118171991E+03  0.11118171991E+03  0.00000000000E+00 0.  1.
         25    2    1    2    0    0  0.20566480678E+03 -0.12846190345E+02  0.32029170645E+03  0.40087238893E+03  0.12509539411E+03 0.  0.
         23    2    1    2    0    0 -0.20566480678E+03  0.12846190345E+02  0.10926365105E+03  0.25104640840E+03  0.92858582678E+02 0.  0.
          5    1    3    3  502    0  0.12787402178E+03 -0.27042397874E+01  0.28944557557E+03  0.31647320893E+03  0.41800000000E+01 0. -1.
         -5    1    3    3    0  502  0.77790785004E+02 -0.10141950558E+02  0.30846130887E+02  0.84399179992E+02  0.41800000000E+01 0. -1.
        -11    1    4    4    0    0 -0.15114224961E+03  0.34782707270E+02  0.39919619635E+02  0.16014803268E+03  0.00000000000E+00 0.  1.
         11    1    4    4    0    0 -0.54522557174E+02 -0.21936516925E+02  0.69344031411E+02  0.90898375717E+02  0.00000000000E+00 0. -1.
</event>
<event>
 8    1  0.6635152E-009  0.1122227E+03  0.7561462E-02  0.1256508E+00
         -3   -1    0    0    0  501 -0.00000000000E+00  0.00000000000E+00  0.38662907406E+02  0.38662907406E+02  0.00000000000E+00 0.  1.
          3   -1    0    0  501    0  0.00000000000E+00 -0.00000000000E+00 -0.44709125137E+03  0.44709125137E+03  0.00000000000E+00 0. -1.
         25    2    1    2    0    0 -0.31915566327E+02 -0.65867645573E+02 -0.19370348908E+03  0.24192091379E+03  0.12509011448E+03 0.  0.
         23    2    1    2    0    0  0.31915566327E+02  0.65867645573E+02 -0.21472485488E+03  0.24383324499E+03  0.89390927662E+02 0.  0.
          5    1    3    3  502    0 -0.44395339456E+02 -0.78792106407E+02 -0.63902571729E+02  0.11081585298E+03  0.41800000000E+01 0. -1.
         -5    1    3    3    0  502  0.12479773130E+02  0.12924460834E+02 -0.12980091735E+03  0.13110506081E+03  0.41800000000E+01 0. -1.
        -11    1    4    4    0    0 -0.31254590319E+02  0.26940416022E+02 -0.72734168364E+02  0.83623529458E+02  0.00000000000E+00 0. -1.
         11    1    4    4    0    0  0.63170156645E+02  0.38927229551E+02 -0.14199068652E+03  0.16020971553E+03  0.00000000000E+00 0.  1.
</event>
<event>
 8    1  0.6635152E-009  0.1583000E+03  0.7561462E-02  0.1190629E+00
         -1   -1    0    0    0  501 -0.00000000000E+00  0.00000000000E+00  0.34611016011E+02  0.34611016011E+02  0.00000000000E+00 0.  1.
          1   -1    0    0  501    0  0.00000000000E+00 -0.00000000000E+00 -0.88503399049E+03  0.88503399049E+03  0.00000000000E+00 0. -1.
         25    2    1    2    0    0  0.82025759086E+02 -0.10134950354E+03 -0.55960905647E+03  0.58805545231E+03  0.12508785666E+03 0.  0.
         23    2    1    2    0    0 -0.82025759086E+02  0.10134950354E+03 -0.29081391801E+03  0.33158955420E+03  0.91536607555E+02 0.  0.
          5    1    3    3  502    0  0.93870313993E+02 -0.27505975097E+02 -0.39902741377E+03  0.41086319360E+03  0.41800000000E+01 0.  1.
         -5    1    3    3    0  502 -0.11844554907E+02 -0.73843528440E+02 -0.16058164269E+03  0.17719225870E+03  0.41800000000E+01 0.  1.
        -11    1    4    4    0    0 -0.15600230499E+02  0.67417605749E+02 -0.69631314625E+02  0.98168328563E+02  0.00000000000E+00 0.  1.
         11    1    4    4    0    0 -0.66425528587E+02  0.33931897789E+02 -0.22118260339E+03  0.23342122564E+03  0.00000000000E+00 0. -1.
</event>
<event>
 8    1  0.6635152E-009  0.1723838E+03  0.7561462E-02  0.1175384E+00
          1   -1    0    0  501    0  0.00000000000E+00  0.00000000000E+00  0.11999093476E+03  0.11999093476E+03  0.00000000000E+00 0.  1.
         -1   -1    0    0    0  501 -0.00000000000E+00 -0.00000000000E+00 -0.25770446470E+03  0.25770446470E+03  0.00000000000E+00 0. -1.
         25    2    1    2    0    0 -0.12004936503E+03  0.63681629865E+02 -0.51936188711E+02  0.19186955786E+03  0.12509740010E+03 0.  0.
         23    2    1    2    0    0  0.12004936503E+03 -0.63681629865E+02 -0.85777341229E+02  0.18582584159E+03  0.93307508321E+02 0.  0.
          5    1    3    3  502    0  0.24596186183E+02  0.23985207787E+02 -0.80644076167E+01  0.35535470133E+02  0.41800000000E+01 0. -1.
         -5    1    3    3    0  502 -0.14464555121E+03  0.39696422078E+02 -0.43871781095E+02  0.15633408773E+03  0.41800000000E+01 0. -1.
        -11    1    4    4    0    0  0.97679226848E+02 -0.55692038265E+01 -0.73468859771E+02  0.12235162747E+03  0.00000000000E+00 0. -1.
         11    1    4    4    0    0  0.22370138178E+02 -0.58112426039E+02 -0.12308481457E+02  0.63474214118E+02  0.00000000000E+00 0.  1.
</event>
<event>
 8    1  0.6635152E-009  0.7662051E+02  0.7561462E-02  0.1338925E+00
          1   -1    0    0  501    0  0.00000000000E+00  0.00000000000E+00  0.13811494005E+02  0.13811494005E+02  0.00000000000E+00 0. -1.
         -1   -1    0    0    0  501 -0.00000000000E+00 -0.00000000000E+00 -0.10743248491E+04  0.10743248491E+04  0.00000000000E+00 0.  1.
         25    2    1    2    0    0  0.20637007895E+02 -0.11958378223E+02 -0.79212341024E+03  0.80229207716E+03  0.12507674089E+03 0.  0.
         23    2    1    2    0    0 -0.20637007895E+02  0.11958378223E+02 -0.26838994483E+03  0.28584426593E+03  0.95419562837E+02 0.  0.
          5    1    3    3  502    0  0.38559338447E+02 -0.63476152746E+01 -0.72964407586E+02  0.82875762293E+02  0.41800000000E+01 0. -1.
         -5    1    3    3    0  502 -0.17922330552E+02 -0.56107629480E+01 -0.71915900266E+03  0.71941631487E+03  0.41800000000E+01 0. -1.
        -11    1    4    4    0    0 -0.53668061770E+02 -0.10594948252E+02 -0.19168314976E+03  0.19933625783E+03  0.00000000000E+00 0.  1.
         11    1    4    4    0    0  0.33031053875E+02  0.22553326475E+02 -0.76706795067E+02  0.86508008096E+02  0.00000000000E+00 0. -1.
</event>
<event>
 7    1  0.6635152E-009  0.7127798E+02  0.7561462E-02  0.1355800E+00
         -2   -1    0    0    0  501 -0.00000000000E+00  0.00000000000E+00  0.95329075457E+02  0.95329075457E+02  0.00000000000E+00 0.  1.
          2   -1    0    0  501    0  0.00000000000E+00 -0.00000000000E+00 -0.13701578013E+03  0.13701578013E+03  0.00000000000E+00 0. -1.
         23    2    1    2    0    0 -0.56593846879E+01  0.33473931584E+02 -0.26443622331E+01  0.97181188538E+02  0.91020096810E+02 0.  0.
          5    1    1    2  502    0  0.10329011170E+02  0.35915964795E+02  0.21103397316E+02  0.43121581339E+02  0.41800000000E+01 0.  1.
         -5    1    1    2    0  502 -0.46696264825E+01 -0.69389896379E+02 -0.60145739756E+02  0.92042085709E+02  0.41800000000E+01 0.  1.
        -11    1    3    3    0    0 -0.70702548730E+01  0.13359916172E+02 -0.46509301280E+02  0.48903895240E+02  0.00000000000E+00 0. -1.
         11    1    3    3    0    0  0.14108701850E+01  0.20114015412E+02  0.43864939047E+02  0.48277293299E+02  0.00000000000E+00 0.  1.
</event>
<event>
 8    1  0.6635152E-009  0.8806959E+02  0.7561462E-02  0.1307595E+00
         -1   -1    0    0    0  501 -0.00000000000E+00  0.00000000000E+00  0.72066811413E+02  0.72066811413E+02  0.00000000000E+00 0.  1.
          1   -1    0    0  501    0  0.00000000000E+00 -0.00000000000E+00 -0.17403835211E+03  0.17403835211E+03  0.00000000000E+00 0. -1.
         25    2    1    2    0    0 -0.29920097788E+02  0.49375665518E+01 -0.53884425321E+02  0.13953183082E+03  0.12508400659E+03 0.  0.
         23    2    1    2    0    0  0.29920097788E+02 -0.49375665518E+01 -0.48087115371E+02  0.10657333270E+03  0.90143844839E+02 0.  0.
          5    1    3    3  502    0 -0.60523285002E+02 -0.98710478208E+01 -0.76763973306E+02  0.98339644143E+02  0.41800000000E+01 0. -1.
         -5    1    3    3    0  502  0.30603187214E+02  0.14808614373E+02  0.22879547985E+02  0.41192186678E+02  0.41800000000E+01 0. -1.
        -11    1    4    4    0    0  0.15925511464E+02  0.34810467151E+02  0.52060453734E+01  0.38632802733E+02  0.00000000000E+00 0.  1.
         11    1    4    4    0    0  0.13994586324E+02 -0.39748033702E+02 -0.53293160745E+02  0.67940529964E+02  0.00000000000E+00 0. -1.
</event>
<event>
 8    1  0.6635152E-009  0.9536321E+02  0.7561462E-02  0.1290360E+00
         -2   -1    0    0    0  501 -0.00000000000E+00  0.00000000000E+00  0.15572506469E+02  0.15572506469E+02  0.00000000000E+00 0.  1.
          2   -1    0    0  501    0  0.00000000000E+00 -0.00000000000E+00 -0.10086185677E+04  0.10086185677E+04  0.00000000000E+00 0. -1.
         25    2    1    2    0    0  0.61052199819E+02  0.14335506154E+02 -0.52619753102E+03  0.54448513137E+03  0.12508932327E+03 0.  0.
         23    2    1    2    0    0 -0.61052199819E+02 -0.14335506154E+02 -0.46684853017E+03  0.47970594275E+03  0.90759922615E+02 0.  0.
          5    1    3    3  502    0  0.21435645548E+02  0.44075637632E+02 -0.45498757607E+03  0.45763884834E+03  0.41800000000E+01 0. -1.
         -5    1    3    3    0  502  0.39616554271E+02 -0.29740131478E+02 -0.71209954951E+02  0.86846283034E+02  0.41800000000E+01 0. -1.
        -11    1    4    4    0    0  0.12870454894E+02  0.73040241505E+01 -0.14060213074E+02  0.20412911837E+02  0.00000000000E+00 0.  1.
         11    1    4    4    0    0 -0.73922654712E+02 -0.21639530304E+02 -0.45278831709E+03  0.45929303091E+03  0.00000000000E+00 0. -1.
</event>
<event>
 8    1  0.6635152E-009  0.1241922E+03  0.7561462E-02  0.1236337E+00
         -1   -1    0    0    0  501 -0.00000000000E+00  0.00000000000E+00  0.21717977141E+03  0.21717977141E+03  0.00000000000E+00 0.  1.
          1   -1    0    0  501    0  0.00000000000E+00 -0.00000000000E+00 -0.80107697380E+02  0.80107697380E+02  0.00000000000E+00 0. -1.
         25    2    1    2    0    0  0.66203978254E+02  0.35507089068E+02  0.76790615088E+02  0.16488790115E+03  0.12508997270E+03 0.  0.
         23    2    1    2    0    0 -0.66203978254E+02 -0.35507089068E+02  0.60281458947E+02  0.13239956764E+03  0.90840910981E+02 0.  0.
          5    1    3    3  502    0 -0.25778841744E+02 -0.24663144686E+02  0.18828346323E+02  0.40556114369E+02  0.41800000000E+01 0.  1.
         -5    1    3    3    0  502  0.91982819998E+02  0.60170233754E+02  0.57962268765E+02  0.12433178679E+03  0.41800000000E+01 0.  1.
        -11    1    4    4    0    0 -0.27485673647E+02  0.20565639417E+02 -0.87250263297E+01  0.35419399556E+02  0.00000000000E+00 0. -1.
         11    1    4    4    0    0 -0.38718304608E+02 -0.56072728485E+02  0.69006485277E+02  0.96980168085E+02  0.00000000000E+00 0.  1.
</event>
<event>
 8    1  0.6635152E-009  0.1085347E+03  0.7561462E-02  0.1263308E+00
         -1   -1    0    0    0  501 -0.00000000000E+00  0.00000000000E+00  0.86539199161E+02  0.86539199161E+02  0.00000000000E+00 0.  1.
          1   -1    0    0  501    0  0.00000000000E+00 -0.00000000000E+00 -0.23396105529E+03  0.23396105529E+03  0.00000000000E+00 0. -1.
         25    2    1    2    0    0 -0.29812169332E+02  0.20532143291E+02  0.16057483124E+02  0.13121059300E+03  0.12509213646E+03 0.  0.
         23    2    1    2    0    0  0.29812169332E+02 -0.20532143291E+02 -0.16347933925E+03  0.18928966145E+03  0.88287865642E+02 0.  0.
          5    1    3    3  502    0 -0.54555999323E+02  0.58841108633E+02 -0.56132826779E+01  0.80545729060E+02  0.41800000000E+01 0. -1.
         -5    1    3    3    0  502  0.24743829991E+02 -0.38308965341E+02  0.21670765802E+02  0.50664863945E+02  0.41800000000E+01 0. -1.
        -11    1    4    4    0    0  0.10042100243E+01 -0.49826807597E+02 -0.11747548957E+03  0.12760959934E+03  0.00000000000E+00 0.  1.
         11    1    4    4    0    0  0.28807959308E+02  0.29294664306E+02 -0.46003849682E+02  0.61680062109E+02  0.00000000000E+00 0. -1.
</event>
<event>
 8    1  0.6635152E-009  0.8973561E+02  0.7561462E-02  0.1303493E+00
          3   -1    0    0  501    0  0.00000000000E+00  0.00000000000E+00  0.38453092079E+03  0.38453092079E+03  0.00000000000E+00 0. -1.
         -3   -1    0    0    0  501 -0.00000000000E+00 -0.00000000000E+00 -0.37266914278E+02  0.37266914278E+02  0.00000000000E+00 0.  1.
         25    2    1    2    0    0 -0.46752120846E+02  0.24193024433E+02  0.18025810442E+03  0.22561833116E+03  0.12505832205E+03 0.  0.
         23    2    1    2    0    0  0.46752120846E+02 -0.24193024433E+02  0.16700590209E+03  0.19617950390E+03  0.88455430490E+02 0.  0.
          5    1    3    3  502    0 -0.68223946628E+02  0.43379441398E+02  0.57091787519E+02  0.99061735456E+02  0.41800000000E+01 0.  1.
         -5    1    3    3    0  502  0.21471825782E+02 -0.19186416965E+02  0.12316631690E+03  0.12655659571E+03  0.41800000000E+01 0.  1.
        -11    1    4    4    0    0 -0.90689832023E+01 -0.52069119016E+01 -0.69143314253E+01  0.12536601092E+02  0.00000000000E+00 0.  1.
         11    1    4    4    0    0  0.55821104048E+02 -0.18986112532E+02  0.17392023351E+03  0.18364290281E+03  0.00000000000E+00 0. -1.
</event>
<event>
 8    1  0.6635152E-009  0.1304153E+03  0.7561462E-02  0.1226841E+00
         -2   -1    0    0    0  501 -0.00000000000E+00  0.00000000000E+00  0.40844687551E+02  0.40844687551E+02  0.00000000000E+00 0.  1.
          2   -1    0    0  501    0  0.00000000000E+00 -0.00000000000E+00 -0.49642028763E+03  0.49642028763E+03  0.00000000000E+00 0. -1.
         25    2    1    2    0    0  0.70050208186E+02 -0.22182810855E+02 -0.14437929530E+03  0.20467524424E+03  0.12508983143E+03 0.  0.
         23    2    1    2    0    0 -0.70050208186E+02  0.22182810855E+02 -0.31119630477E+03  0.33258973094E+03  0.91507815277E+02 0.  0.
          5    1    3    3  502    0  0.57388458363E+02  0.46695501472E+02 -0.84960831909E+02  0.11273739561E+03  0.41800000000E+01 0.  1.
         -5    1    3    3    0  502  0.12661749823E+02 -0.68878312328E+02 -0.59418463392E+02  0.91937848624E+02  0.41800000000E+01 0.  1.
        -11    1    4    4    0    0 -0.55201945228E+02 -0.29643868578E+02 -0.18629989972E+03  0.19655448694E+03  0.00000000000E+00 0. -1.
         11    1    4    4    0    0 -0.14848262958E+02  0.51826679433E+02 -0.12489640505E+03  0.13603524400E+03  0.00000000000E+00 0.  1.
</event>
<event>
 7    1  0.6635152E-009  0.1218991E+03  0.7561462E-02  0.1239997E+00
         -1   -1    0    0    0  501 -0.00000000000E+00  0.00000000000E+00  0.34439477944E+02  0.34439477944E+02  0.00000000000E+00 0.  1.
          1   -1    0    0  501    0  0.00000000000E+00 -0.00000000000E+00 -0.56212079628E+03  0.56212079628E+03  0.00000000000E+00 0. -1.
         23    2    1    2    0    0  0.60731581047E+02 -0.38022776148E+02 -0.31780707688E+03  0.34153894198E+03  0.10253513705E+03 0.  0.
          5    1    1    2  502    0 -0.56113595768E+02  0.78498007297E+02 -0.10618867335E+03  0.14354156028E+03  0.41800000000E+01 0. -1.
         -5    1    1    2    0  502 -0.46179852791E+01 -0.40475231149E+02 -0.10368556810E+03  0.11147977196E+03  0.41800000000E+01 0. -1.
        -11    1    3    3    0    0  0.75657652251E+02 -0.46786627361E+02 -0.31007322722E+03  0.32258095896E+03  0.00000000000E+00 0. -1.
         11    1    3    3    0    0 -0.14926071204E+02  0.87638512123E+01 -0.77338496649E+01  0.18957983023E+02  0.00000000000E+00 0.  1.
</event>
<event>
 8    1  0.6635152E-009  0.9832828E+02  0.7561462E-02  0.1283851E+00
          2   -1    0    0  501    0  0.00000000000E+00  0.00000000000E+00  0.23624583854E+03  0.23624583854E+03  0.00000000000E+00 0.  1.
         -2   -1    0    0    0  501 -0.00000000000E+00 -0.00000000000E+00 -0.14012644641E+03  0.14012644641E+03  0.00000000000E+00 0. -1.
         25    2    1    2    0    0 -0.81635935617E+02 -0.49798956166E+02 -0.65549992453E+02  0.17056384587E+03  0.12510340518E+03 0.  0.
         23    2    1    2    0    0  0.81635935617E+02  0.49798956166E+02  0.16166938458E+03  0.20580843909E+03  0.84117546736E+02 0.  0.
          5    1    3    3  502    0 -0.64683184514E+02 -0.23288522061E+02 -0.10146363068E+03  0.12263201201E+03  0.41800000000E+01 0. -1.
         -5    1    3    3    0  502 -0.16952751103E+02 -0.26510434105E+02  0.35913638228E+02  0.47931833860E+02  0.41800000000E+01 0. -1.
        -11    1    4    4    0    0  0.28723885771E+02  0.12644119028E+02  0.13015008096E+03  0.13388046510E+03  0.00000000000E+00 0.  1.
         11    1    4    4    0    0  0.52912049846E+02  0.37154837138E+02  0.31519303619E+02  0.71927973990E+02  0.00000000000E+00 0. -1.
</event>
<event>
 8    1  0.6635152E-009  0.1543706E+03  0.7561462E-02  0.1195203E+00
          1   -1    0    0  501    0  0.00000000000E+00  0.00000000000E+00  0.11377961833E+04  0.11377961833E+04  0.00000000000E+00 0. -1.
         -1   -1    0    0    0  501 -0.00000000000E+00 -0.00000000000E+00 -0.23299494269E+02  0.23299494269E+02  0.00000000000E+00 0.  1.
         25    2    1    2    0    0  0.12099879702E+03 -0.72232863321E+01  0.64711539111E+03  0.67014793025E+03  0.12508810602E+03 0.  0.
         23    2    1    2    0    0 -0.12099879702E+03  0.72232863321E+01  0.46738129792E+03  0.49094774732E+03  0.88834273803E+02 0.  0.
          5    1    3    3  502    0  0.62430601642E+02  0.51186642487E+02  0.43478499274E+03  0.44223649182E+03  0.41800000000E+01 0. -1.
         -5    1    3    3    0  502  0.58568195377E+02 -0.58409928819E+02  0.21233039837E+03  0.22791143843E+03  0.41800000000E+01 0. -1.
        -11    1    4    4    0    0 -0.92615657892E+02  0.40722249774E+02  0.26046489072E+03  0.27942426704E+03  0.00000000000E+00 0.  1.
         11    1    4    4    0    0 -0.28383139126E+02 -0.33498963442E+02  0.20691640720E+03  0.21152348028E+03  0.00000000000E+00 0. -1.
</event>
<event>
 8    1  0.6635152E-009  0.1168359E+03  0.7561462E-02  0.1248410E+00
          2   -1    0    0  501    0  0.00000000000E+00  0.00000000000E+00  0.56411629533E+03  0.56411629533E+03  0.00000000000E+00 0.  1.
         -2   -1    0    0    0  501 -0.00000000000E+00 -0.00000000000E+00 -0.45471923899E+02  0.45471923899E+02  0.00000000000E+00 0. -1.
         25    2    1    2    0    0  0.94377478142E+02  0.47657467696E+02  0.36718740531E+03  0.40205837057E+03  0.12508397228E+03 0.  0.
         23    2    1    2    0    0 -0.94377478142E+02 -0.47657467696E+02  0.15145696612E+03  0.20752984866E+03  0.94610162717E+02 0.  0.
          5    1    3    3  502    0  0.43466865335E+02  0.14960706716E+02  0.32480158491E+03  0.32806513544E+03  0.41800000000E+01 0. -1.
         -5    1    3    3    0  502  0.50910612807E+02  0.32696760980E+02  0.42385820398E+02  0.73993235136E+02  0.41800000000E+01 0. -1.
        -11    1    4    4    0    0 -0.16867000581E+02 -0.46368819839E+02  0.10781304581E+03  0.11856734799E+03  0.00000000000E+00 0.  1.
         11    1    4    4    0    0 -0.77510477561E+02 -0.12886478567E+01  0.43643920307E+02  0.88962500667E+02  0.00000000000E+00 0. -1.
</event>
<event>
 8    1  0.6635152E-009  0.8618424E+02  0.7561462E-02  0.1312364E+00
         -2   -1    0    0    0  501 -0.00000000000E+00  0.00000000000E+00  0.15357192567E+04  0.15357192567E+04  0.00000000000E+00 0.  1.
          2   -1    0    0  501    0  0.00000000000E+00 -0.00000000000E+00 -0.15283108997E+02  0.15283108997E+02  0.00000000000E+00 0. -1.
         25    2    1    2    0    0  0.37332559657E+02 -0.53178667378E+02  0.12545981449E+04  0.12624922854E+04  0.12509426348E+03 0.  0.
         23    2    1    2    0    0 -0.37332559657E+02  0.53178667378E+02  0.26583800276E+03  0.28851008029E+03  0.91359356606E+02 0.  0.
          5    1    3    3  502    0 -0.28565169308E+00 -0.58241886038E+02  0.11439613906E+04  0.11454507123E+04  0.41800000000E+01 0. -1.
         -5    1    3    3    0  502  0.37618211350E+02  0.50632186600E+01  0.11063675433E+03  0.11704157303E+03  0.41800000000E+01 0. -1.
        -11    1    4    4    0    0 -0.12102746338E+02  0.48679408376E+02  0.25630375289E+03  0.26116618275E+03  0.00000000000E+00 0.  1.
         11    1    4    4    0    0 -0.25229813319E+02  0.44992590023E+01  0.95342498741E+01  0.27343897534E+02  0.00000000000E+00 0. -1.
</event>
<event>
 8    1  0.6635152E-009  0.8968067E+02  0.7561462E-02  0.1303627E+00
         -2   -1    0    0    0  501 -0.00000000000E+00  0.00000000000E+00  0.59366184591E+02  0.59366184591E+02  0.00000000000E+00 0.  1.
          2   -1    0    0  501    0  0.00000000000E+00 -0.00000000000E+00 -0.36897067351E+03  0.36897067351E+03  0.00000000000E+00 0. -1.
         25    2    1    2    0    0 -0.48248303474E+02 -0.32823020974E+00 -0.29517762701E+03  0.32419180551E+03  0.12506993544E+03 0.  0.
         23    2    1    2    0    0  0.48248303474E+02  0.32823020974E+00 -0.14426861907E+02  0.10414505259E+03  0.91159481740E+02 0.  0.
          5    1    3    3  502    0 -0.21830564043E+02 -0.47088664230E+02 -0.24533862287E+03  0.25080356477E+03  0.41800000000E+01 0.  1.
         -5    1    3    3    0  502 -0.26417739431E+02  0.46760434020E+02 -0.49839004134E+02  0.73388240744E+02  0.41800000000E+01 0.  1.
        -11    1    4    4    0    0  0.58839167485E+02  0.92640991606E+01 -0.42273930939E+02  0.73040785871E+02  0.00000000000E+00 0. -1.
         11    1    4    4    0    0 -0.10590864011E+02 -0.89358689509E+01  0.27847069032E+02  0.31104266718E+02  0.00000000000E+00 0.  1.
</event>
<event>
 8    1  0.6635152E-009  0.3041745E+03  0.7561462E-02  0.1083172E+00
         -1   -1    0    0    0  501 -0.00000000000E+00  0.00000000000E+00  0.94008617634E+02  0.94008617634E+02  0.00000000000E+00 0.  1.
          1   -1    0    0  501    0  0.00000000000E+00 -0.00000000000E+00 -0.10622365120E+04  0.10622365120E+04  0.00000000000E+00 0. -1.
         25    2    1    2    0    0 -0.28512884631E+03  0.81825456643E+02 -0.50755230995E+03  0.60104314870E+03  0.12509858075E+03 0.  0.
         23    2    1    2    0    0  0.28512884631E+03 -0.81825456643E+02 -0.46067558440E+03  0.55520198092E+03  0.89629131438E+02 0.  0.
          5    1    3    3  502    0 -0.28132241099E+03  0.85871689086E+02 -0.51356805860E+03  0.59184953250E+03  0.41800000000E+01 0. -1.
         -5    1    3    3    0  502 -0.38064353252E+01 -0.40462324428E+01  0.60157486518E+01  0.91936161932E+01  0.41800000000E+01 0. -1.
        -11    1    4    4    0    0  0.23087072027E+03 -0.31103647851E+02 -0.37840649317E+03  0.44436494063E+03  0.00000000000E+00 0. -1.
         11    1    4    4    0    0  0.54258126036E+02 -0.50721808791E+02 -0.82269091228E+02  0.11083704029E+03  0.00000000000E+00 0.  1.
</event>
<event>
 8    1  0.6635152E-009  0.1027125E+03  0.7561462E-02  0.1274693E+00
          2   -1    0    0  501    0  0.00000000000E+00  0.00000000000E+00  0.43531967770E+03  0.43531967770E+03  0.00000000000E+00 0. -1.
         -2   -1    0    0    0  501 -0.00000000000E+00 -0.00000000000E+00 -0.28452266633E+02  0.28452266633E+02  0.00000000000E+00 0.  1.
         25    2    1    2    0    0  0.11635510665E+02 -0.26304728829E+01  0.18748264540E+03  0.22569880758E+03  0.12509158613E+03 0.  0.
         23    2    1    2    0    0 -0.11635510665E+02  0.26304728829E+01  0.21938476566E+03  0.23807313675E+03  0.91688813614E+02 0.  0.
          5    1    3    3  502    0  0.54918019798E+02 -0.29301611117E+02  0.52977673005E+02  0.81845461387E+02  0.41800000000E+01 0. -1.
         -5    1    3    3    0  502 -0.43282509132E+02  0.26671138234E+02  0.13450497240E+03  0.14385334620E+03  0.41800000000E+01 0. -1.
        -11    1    4    4    0    0  0.30681428241E+02 -0.26591206650E+02  0.10835904379E+03  0.11571570628E+03  0.00000000000E+00 0.  1.
         11    1    4    4    0    0 -0.42316938906E+02  0.29221679533E+02  0.11102572188E+03  0.12235743047E+03  0.00000000000E+00 0. -1.
</event>
<event>
 8    1  0.6635152E-009  0.1292243E+03  0.7561462E-02  0.1228611E+00
          2   -1    0    0  501    0  0.00000000000E+00  0.00000000000E+00  0.35570446836E+03  0.35570446836E+03  0.00000000000E+00 0. -1.
         -2   -1    0    0    0  501 -0.00000000000E+00 -0.00000000000E+00 -0.82300068495E+02  0.82300068495E+02  0.00000000000E+00 0.  1.
         25    2    1    2    0    0  0.67550472295E+02  0.70709350565E+02  0.25999655998E+03  0.30464402000E+03  0.12508752599E+03 0.  0.
         23    2    1    2    0    0 -0.67550472295E+02 -0.70709350565E+02  0.13407839881E+02  0.13336051685E+03  0.89679310429E+02 0.  0.
          5    1    3    3  502    0 -0.32144915010E+02  0.14156923003E+02  0.11171627649E+03  0.11718239144E+03  0.41800000000E+01 0.  1.
         -5    1    3    3    0  502  0.99695387305E+02  0.56552427562E+02  0.14828028349E+03  0.18746162856E+03  0.41800000000E+01 0.  1.
        -11    1    4    4    0    0 -0.69821686689E+02 -0.46098892936E+02  0.43597367565E+02  0.94344614688E+02  0.00000000000E+00 0. -1.
         11    1    4    4    0    0  0.22712143945E+01 -0.24610457629E+02 -0.30189527684E+02  0.39015902160E+02  0.00000000000E+00 0.  1.
</event>
<event>
 8    1  0.6635152E-009  0.1078356E+03  0.7561462E-02  0.1264631E+00
          4   -1    0    0  501    0  0.00000000000E+00  0.00000000000E+00  0.33673544289E+03  0.33673544289E+03  0.00000000000E+00 0.  1.
         -4   -1    0    0    0  501 -0.00000000000E+00 -0.00000000000E+00 -0.37066204969E+02  0.37066204969E+02  0.00000000000E+00 0. -1.
         25    2    1    2    0    0  0.13233731732E+02 -0.87493579437E+00  0.13568286439E+03  0.18500540264E+03  0.12506503169E+03 0.  0.
         23    2    1    2    0    0 -0.13233731732E+02  0.87493579437E+00  0.16398637353E+03  0.18879624522E+03  0.92609904085E+02 0.  0.
          5    1    3    3  502    0 -0.48156650118E+02  0.26527703550E+02  0.82276476136E+02  0.99043792999E+02  0.41800000000E+01 0. -1.
         -5    1    3    3    0  502  0.61390381850E+02 -0.27402639345E+02  0.53406388251E+02  0.85961609645E+02  0.41800000000E+01 0. -1.
        -11    1    4    4    0    0 -0.15522444075E+02  0.45713711664E+02  0.76445211078E+02  0.90413273367E+02  0.00000000000E+00 0. -1.
         11    1    4    4    0    0  0.22887123423E+01 -0.44838775870E+02  0.87541162456E+02  0.98382971849E+02  0.00000000000E+00 0.  1.
</event>
<event>
 8    1  0.6635152E-009  0.1024613E+03  0.7561462E-02  0.1275204E+00
          2   -1    0    0  501    0  0.00000000000E+00  0.00000000000E+00  0.50534785913E+03  0.50534785913E+03  0.00000000000E+00 0. -1.
         -2   -1    0    0    0  501 -0.00000000000E+00 -0.00000000000E+00 -0.27355690946E+02  0.27355690946E+02  0.00000000000E+00 0.  1.
         25    2    1    2    0    0 -0.32831678334E+02 -0.22997224537E+02  0.21793086174E+03  0.25445551366E+03  0.12508779514E+03 0.  0.
         23    2    1    2    0    0  0.32831678334E+02  0.22997224537E+02  0.26006130644E+03  0.27824803642E+03  0.90461567660E+02 0.  0.
          5    1    3    3  502    0 -0.32699619216E+02 -0.72461847380E+02  0.15551042998E+03  0.17470246322E+03  0.41800000000E+01 0.  1.
         -5    1    3    3    0  502 -0.13205911739E+00  0.49464622844E+02  0.62420431761E+02  0.79753050436E+02  0.41800000000E+01 0.  1.
        -11    1    4    4    0    0 -0.56385010357E+01  0.34939922197E+02  0.35593217996E+02  0.50194302709E+02  0.00000000000E+00 0.  1.
         11    1    4    4    0    0  0.38470179369E+02 -0.11942697661E+02  0.22446808845E+03  0.22805373371E+03  0.00000000000E+00 0. -1.
</event>
<event>
 8    1  0.6635152E-009  0.1422305E+03  0.7561462E-02  0.1210359E+00
          3   -1    0    0  501    0  0.00000000000E+00  0.00000000000E+00  0.22517787102E+03  0.22517787102E+03  0.00000000000E+00 0.  1.
         -3   -1    0    0    0  501 -0.00000000000E+00 -0.00000000000E+00 -0.13052196732E+03  0.13052196732E+03  0.00000000000E+00 0. -1.
         25    2    1    2    0    0 -0.41125455503E+01  0.13055876031E+03  0.24848646955E+02  0.18255791556E+03  0.12508970523E+03 0.  0.
         23    2    1    2    0    0  0.41125455503E+01 -0.13055876031E+03  0.69807256741E+02  0.17314192277E+03  0.89680373570E+02 0.  0.
          5    1    3    3  502    0 -0.35559127340E+02  0.10233575579E+03 -0.30661272497E+02  0.11267051292E+03  0.41800000000E+01 0. -1.
         -5    1    3    3    0  502  0.31446581790E+02  0.28223004515E+02  0.55509919453E+02  0.69887402640E+02  0.41800000000E+01 0. -1.
        -11    1    4    4    0    0 -0.81952935271E+01 -0.10386167413E+03  0.77483385412E+01  0.10447223047E+03  0.00000000000E+00 0. -1.
         11    1    4    4    0    0  0.12307839077E+02 -0.26697086182E+02  0.62058918200E+02  0.68669692307E+02  0.00000000000E+00 0.  1.
</event>
<event>
 8    1  0.6635152E-009  0.2000837E+03  0.7561462E-02  0.1149668E+00
          1   -1    0    0  501    0  0.00000000000E+00  0.00000000000E+00  0.66307931933E+03  0.66307931933E+03  0.00000000000E+00 0. -1.
         -1   -1    0    0    0  501 -0.00000000000E+00 -0.00000000000E+00 -0.64643254286E+02  0.64643254286E+02  0.00000000000E+00 0.  1.
         25    2    1    2    0    0  0.11937777304E+03 -0.12187215106E+03  0.23528670764E+03  0.31640505699E+03  0.12509377042E+03 0.  0.
         23    2    1    2    0    0 -0.11937777304E+03  0.12187215106E+03  0.36314935741E+03  0.41131751662E+03  0.90558101784E+02 0.  0.
          5    1    3    3  502    0  0.80950698122E+02 -0.14256683977E+03  0.15903645968E+03  0.22844777792E+03  0.41800000000E+01 0.  1.
         -5    1    3    3    0  502  0.38427074914E+02  0.20694688715E+02  0.76250247959E+02  0.87957279069E+02  0.41800000000E+01 0.  1.
        -11    1    4    4    0    0 -0.10112478387E+03  0.40507602480E+02  0.18671436510E+03  0.21616970626E+03  0.00000000000E+00 0.  1.
         11    1    4    4    0    0 -0.18252989169E+02  0.81364548579E+02  0.17643499231E+03  0.19514781036E+03  0.00000000000E+00 0. -1.
</event>
<event>
 8    1  0.6635152E-009  0.1787148E+03  0.7561462E-02  0.1169053E+00
          4   -1    0    0  501    0  0.00000000000E+00  0.00000000000E+00  0.12513753612E+04  0.12513753612E+04  0.00000000000E+00 0. -1.
         -4   -1    0    0    0  501 -0.00000000000E+00 -0.00000000000E+00 -0.50378210207E+02  0.50378210207E+02  0.00000000000E+00 0.  1.
         25    2    1    2    0    0 -0.41398508482E+02  0.15154520398E+03  0.10471147065E+04  0.10661975495E+04  0.12509284774E+03 0.  0.
         23    2    1    2    0    0  0.41398508482E+02 -0.15154520398E+03  0.15388244451E+03  0.23555602196E+03  0.84421841954E+02 0.  0.
          5    1    3    3  502    0 -0.73802320845E+00  0.15681345415E+03  0.74931057808E+03  0.76555523570E+03  0.41800000000E+01 0.  1.
         -5    1    3    3    0  502 -0.40660485273E+02 -0.52682501630E+01  0.29780412843E+03  0.30064231377E+03  0.41800000000E+01 0.  1.
        -11    1    4    4    0    0 -0.17771422060E+01 -0.35246617432E+02 -0.31530340128E+01  0.35431961536E+02  0.00000000000E+00 0.  1.
         11    1    4    4    0    0  0.43175650688E+02 -0.11629858655E+03  0.15703547852E+03  0.20012406042E+03  0.00000000000E+00 0. -1.
</event>
<event>
 8    1  0.6635152E-009  0.1236870E+03  0.7561462E-02  0.1237136E+00
         -2   -1    0    0    0  501 -0.00000000000E+00  0.00000000000E+00  0.20734580854E+02  0.20734580854E+02  0.00000000000E+00 0.  1.
          2   -1    0    0  501    0  0.00000000000E+00 -0.00000000000E+00 -0.11890051094E+04  0.11890051094E+04  0.00000000000E+00 0. -1.
         25    2    1    2    0    0  0.10985250348E+03 -0.55809364593E+01 -0.72231093896E+03  0.74127041596E+03  0.12510003063E+03 0.  0.
         23    2    1    2    0    0 -0.10985250348E+03  0.55809364593E+01 -0.44595958955E+03  0.46846927426E+03  0.92112898348E+02 0.  0.
          5    1    3    3  502    0  0.78695074007E+02  0.54679188568E+01 -0.16469902767E+03  0.18266377562E+03  0.41800000000E+01 0. -1.
         -5    1    3    3    0  502  0.31157429469E+02 -0.11048855316E+02 -0.55761191129E+03  0.55860664033E+03  0.41800000000E+01 0. -1.
        -11    1    4    4    0    0 -0.26457326137E+02  0.37387694798E+02 -0.84087878750E+02  0.95752812916E+02  0.00000000000E+00 0.  1.
         11    1    4    4    0    0 -0.83395177338E+02 -0.31806758338E+02 -0.36187171080E+03  0.37271646135E+03  0.00000000000E+00 0. -1.
</event>
<event>
 8    1  0.6635152E-009  0.8437176E+02  0.7561462E-02  0.1317084E+00
         -1   -1    0    0    0  501 -0.00000000000E+00  0.00000000000E+00  0.69357889040E+02  0.69357889040E+02  0.00000000000E+00 0.  1.
          1   -1    0    0  501    0  0.00000000000E+00 -0.00000000000E+00 -0.23007296515E+03  0.23007296515E+03  0.00000000000E+00 0. -1.
         25    2    1    2    0    0  0.53952691489E+02 -0.99966000991E+01 -0.47847030044E+02  0.14473258981E+03  0.12508940538E+03 0.  0.
         23    2    1    2    0    0 -0.53952691489E+02  0.99966000991E+01 -0.11286804606E+03  0.15469826437E+03  0.90451822787E+02 0.  0.
          5    1    3    3  502    0  0.22386405400E+02 -0.50258053212E+02 -0.69739840690E+02  0.88927728178E+02  0.41800000000E+01 0.  1.
         -5    1    3    3    0  502  0.31566286089E+02  0.40261453113E+02  0.21892810646E+02  0.55804861636E+02  0.41800000000E+01 0.  1.
        -11    1    4    4    0    0 -0.32047676599E+02  0.20395664587E+02  0.12743477647E+01  0.38008692052E+02  0.00000000000E+00 0.  1.
         11    1    4    4    0    0 -0.21905014890E+02 -0.10399064487E+02 -0.11414239383E+03  0.11668957232E+03  0.00000000000E+00 0. -1.
</event>
<event>
 8    1  0.6635152E-009  0.1035585E+03  0.7561462E-02  0.1272986E+00
          1   -1    0    0  501    0  0.00000000000E+00  0.00000000000E+00  0.51381954653E+02  0.51381954653E+02  0.00000000000E+00 0. -1.
         -1   -1    0    0    0  501 -0.00000000000E+00 -0.00000000000E+00 -0.25298029236E+03  0.25298029236E+03  0.00000000000E+00 0.  1.
         25    2    1    2    0    0  0.13558782799E+01 -0.38459510737E+02 -0.13647116025E+03  0.18906253277E+03  0.12505715232E+03 0.  0.
         23    2    1    2    0    0 -0.13558782799E+01  0.38459510737E+02 -0.65127177457E+02  0.11529971424E+03  0.87014380930E+02 0.  0.
          5    1    3    3  502    0  0.53605928073E+02 -0.42061984643E+02 -0.39759938263E+02  0.79000830168E+02  0.41800000000E+01 0. -1.
         -5    1    3    3    0  502 -0.52250049793E+02  0.36024739051E+01 -0.96711221982E+02  0.11006170260E+03  0.41800000000E+01 0. -1.
        -11    1    4    4    0    0  0.29185665744E+02 -0.84051466503E+01 -0.47993476001E+02  0.56796331869E+02  0.00000000000E+00 0.  1.
         11    1    4    4    0    0 -0.30541544024E+02  0.46864657388E+02 -0.17133701456E+02  0.58503382372E+02  0.00000000000E+00 0. -1.
</event>
<event>
 8    1  0.6635152E-009  0.1688177E+03  0.7561462E-02  0.1179086E+00
         -1   -1    0    0    0  501 -0.00000000000E+00  0.00000000000E+00  0.22953109316E+02  0.22953109316E+02  0.00000000000E+00 0.  1.
          1   -1    0    0  501    0  0.00000000000E+00 -0.00000000000E+00 -0.15160392379E+04  0.15160392379E+04  0.00000000000E+00 0. -1.
         25    2    1    2    0    0 -0.73382968013E+02  0.12008559080E+03 -0.10489063915E+04  0.10656720332E+04  0.12508659018E+03 0.  0.
         23    2    1    2    0    0  0.73382968013E+02 -0.12008559080E+03 -0.44417973713E+03  0.47332031409E+03  0.83251857275E+02 0.  0.
          5    1    3    3  502    0 -0.95681380925E+02  0.12926073385E+03 -0.83378871227E+03  0.84916685821E+03  0.41800000000E+01 0.  1.
         -5    1    3    3    0  502  0.22298412912E+02 -0.91751430487E+01 -0.21511767922E+03  0.21650517495E+03  0.41800000000E+01 0.  1.
        -11    1    4    4    0    0 -0.24421836792E+01 -0.46708745704E+02 -0.22819759806E+03  0.23294165567E+03  0.00000000000E+00 0. -1.
         11    1    4    4    0    0  0.75825151692E+02 -0.73376845098E+02 -0.21598213907E+03  0.24037865842E+03  0.00000000000E+00 0.  1.
</event>
<event>
 8    1  0.6635152E-009  0.1862779E+03  0.7561462E-02  0.1161862E+00
         -1   -1    0    0    0  501 -0.00000000000E+00  0.00000000000E+00  0.61284103805E+02  0.61284103805E+02  0.00000000000E+00 0.  1.
          1   -1    0    0  501    0  0.00000000000E+00 -0.00000000000E+00 -0.64245925630E+03  0.64245925630E+03  0.00000000000E+00 0. -1.
         25    2    1    2    0    0 -0.58283133992E+02  0.14475145344E+03 -0.20671487887E+03  0.28762746217E+03  0.12509439983E+03 0.  0.
         23    2    1    2    0    0  0.58283133992E+02 -0.14475145344E+03 -0.37446027363E+03  0.41611589794E+03  0.92639284378E+02 0.  0.
          5    1    3    3  502    0 -0.90722734174E+02  0.93970357196E+02 -0.17779787103E+03  0.22065946132E+03  0.41800000000E+01 0. -1.
         -5    1    3    3    0  502  0.32439600182E+02  0.50781096242E+02 -0.28917007842E+02  0.66968000852E+02  0.41800000000E+01 0. -1.
        -11    1    4    4    0    0  0.53848749898E+02 -0.15830219075E+03 -0.34433797066E+03  0.38278964132E+03  0.00000000000E+00 0. -1.
         11    1    4    4    0    0  0.44343840943E+01  0.13550737315E+02 -0.30122302965E+02  0.33326256615E+02  0.00000000000E+00 0.  1.
</event>
<event>
 8    1  0.6635152E-009  0.1146477E+03  0.7561462E-02  0.1252197E+00
          4   -1    0    0  501    0  0.00000000000E+00  0.00000000000E+00  0.16868285787E+02  0.16868285787E+02  0.00000000000E+00 0. -1.
         -4   -1    0    0    0  501 -0.00000000000E+00 -0.00000000000E+00 -0.10020484609E+04  0.10020484609E+04  0.00000000000E+00 0.  1.
         25    2    1    2    0    0  0.59026793950E+02 -0.20742241513E+02 -0.68576206711E+03  0.69988053327E+03  0.12509494464E+03 0.  0.
         23    2    1    2    0    0 -0.59026793950E+02  0.20742241513E+02 -0.29941810802E+03  0.31903621344E+03  0.90655937953E+02 0.  0.
          5    1    3    3  502    0 -0.61625760446E+01  0.43151193933E+02 -0.31476831989E+03  0.31779957597E+03  0.41800000000E+01 0.  1.
         -5    1    3    3    0  502  0.65189369994E+02 -0.63893435446E+02 -0.37099374723E+03  0.38208095730E+03  0.41800000000E+01 0.  1.
        -11    1    4    4    0    0 -0.55536585314E+02 -0.15549000979E+02 -0.93056803629E+02  0.10947900457E+03  0.00000000000E+00 0. -1.
         11    1    4    4    0    0 -0.34902086353E+01  0.36291242492E+02 -0.20636130439E+03  0.20955720887E+03  0.00000000000E+00 0.  1.
</event>
<event>
 8    1  0.6635152E-009  0.1118802E+03  0.7561462E-02  0.1257127E+00
          1   -1    0    0  501    0  0.00000000000E+00  0.00000000000E+00  0.99441238523E+03  0.99441238523E+03  0.00000000000E+00 0. -1.
         -1   -1    0    0    0  501 -0.00000000000E+00 -0.00000000000E+00 -0.24721407421E+02  0.24721407421E+02  0.00000000000E+00 0.  1.
         25    2    1    2    0    0  0.99042537944E+02  0.50798934303E+02  0.47773891844E+03  0.50623355679E+03  0.12509190137E+03 0.  0.
         23    2    1    2    0    0 -0.99042537944E+02 -0.50798934303E+02  0.49195205937E+03  0.51290023586E+03  0.93058407315E+02 0.  0.
          5    1    3    3  502    0  0.71172260256E+02  0.42377224536E+02  0.11226907032E+03  0.13958200579E+03  0.41800000000E+01 0. -1.
         -5    1    3    3    0  502  0.27870277688E+02  0.84217097663E+01  0.36546984811E+03  0.36665155100E+03  0.41800000000E+01 0. -1.
        -11    1    4    4    0    0 -0.76902438442E+02 -0.37221564139E+02  0.47323854257E+03  0.48088891446E+03  0.00000000000E+00 0. -1.
         11    1    4    4    0    0 -0.22140099501E+02 -0.13577370164E+02  0.18713516802E+02  0.32011321397E+02  0.00000000000E+00 0.  1.
</event>
<event>
 8    1  0.6635152E-009  0.1182027E+03  0.7561462E-02  0.1246092E+00
          1   -1    0    0  501    0  0.00000000000E+00  0.00000000000E+00  0.10130966572E+04  0.10130966572E+04  0.00000000000E+00 0. -1.
         -1   -1    0    0    0  501 -0.00000000000E+00 -0.00000000000E+00 -0.16725513694E+02  0.16725513694E+02  0.00000000000E+00 0.  1.
         25    2    1    2    0    0  0.54154934452E+02 -0.24795600918E+02  0.72040764871E+03  0.73360920703E+03  0.12509080532E+03 0.  0.
         23    2    1    2    0    0 -0.54154934452E+02  0.24795600918E+02  0.27596349484E+03  0.29621296390E+03  0.89658746083E+02 0.  0.
          5    1    3    3  502    0  0.87383495224E+02  0.39808184611E+00  0.34704415579E+03  0.35790103684E+03  0.41800000000E+01 0.  1.
         -5    1    3    3    0  502 -0.33228560773E+02 -0.25193682764E+02  0.37336349292E+03  0.37570817019E+03  0.41800000000E+01 0.  1.
        -11    1    4    4    0    0 -0.75107937635E+02  0.74070122772E+00  0.17842971226E+03  0.19359471364E+03  0.00000000000E+00 0. -1.
         11    1    4    4    0    0  0.20953003184E+02  0.24054899690E+02  0.97533782583E+02  0.10261825026E+03  0.00000000000E+00 0.  1.
</event>
<event>
 8    1  0.6635152E-009  0.7517832E+02  0.7561462E-02  0.1343320E+00
          1   -1    0    0  501    0  0.00000000000E+00  0.00000000000E+00  0.24526397563E+03  0.24526397563E+03  0.00000000000E+00 0. -1.
         -1   -1    0    0    0  501 -0.00000000000E+00 -0.00000000000E+00 -0.53829637463E+02  0.53829637463E+02  0.00000000000E+00 0.  1.
         25    2    1    2    0    0  0.32581133732E+02 -0.16456088281E+02  0.11177251065E+03  0.17167709206E+03  0.12509035409E+03 0.  0.
         23    2    1    2    0    0 -0.32581133732E+02  0.16456088281E+02  0.79661827521E+02  0.12741652103E+03  0.92502053769E+02 0.  0.
          5    1    3    3  502    0 -0.23697088189E+02 -0.17817834184E+02 -0.14569098386E+02  0.33298021434E+02  0.41800000000E+01 0. -1.
         -5    1    3    3    0  502  0.56278221921E+02  0.13617459026E+01  0.12634160903E+03  0.13837907063E+03  0.41800000000E+01 0. -1.
        -11    1    4    4    0    0 -0.45817988168E+02  0.20398865154E+02  0.94599430424E+02  0.10707219049E+03  0.00000000000E+00 0. -1.
         11    1    4    4    0    0  0.13236854436E+02 -0.39427768726E+01 -0.14937602903E+02  0.20344330545E+02  0.00000000000E+00 0.  1.
</event>
<event>
 8    1  0.6635152E-009  0.1379180E+03  0.7561462E-02  0.1216158E+00
          1   -1    0    0  501    0  0.00000000000E+00  0.00000000000E+00  0.97313812631E+03  0.97313812631E+03  0.00000000000E+00 0. -1.
         -1   -1    0    0    0  501 -0.00000000000E+00 -0.00000000000E+00 -0.23316275254E+02  0.23316275254E+02  0.00000000000E+00 0.  1.
         25    2    1    2    0    0 -0.95848024471E+02 -0.27846006881E+02  0.41660444034E+03  0.44627936177E+03  0.12507503802E+03 0.  0.
         23    2    1    2    0    0  0.95848024471E+02  0.27846006881E+02  0.53321741072E+03  0.55017503980E+03  0.91703453736E+02 0.  0.
          5    1    3    3  502    0 -0.20768086749E+02 -0.60512724791E+02  0.27751851615E+03  0.28482819821E+03  0.41800000000E+01 0. -1.
         -5    1    3    3    0  502 -0.75079937722E+02  0.32666717910E+02  0.13908592419E+03  0.16145116356E+03  0.41800000000E+01 0. -1.
        -11    1    4    4    0    0  0.65311712839E+02 -0.23987422162E+02  0.36379429214E+03  0.37038804415E+03  0.00000000000E+00 0.  1.
         11    1    4    4    0    0  0.30536311632E+02  0.51833429043E+02  0.16942311858E+03  0.17978699565E+03  0.00000000000E+00 0. -1.
</event>
<event>
 8    1  0.6635152E-009  0.1001710E+03  0.7561462E-02  0.1279937E+00
         -1   -1    0    0    0  501 -0.00000000000E+00  0.00000000000E+00  0.29218622813E+02  0.29218622813E+02  0.00000000000E+00 0.  1.
          1   -1    0    0  501    0  0.00000000000E+00 -0.00000000000E+00 -0.46338995373E+03  0.46338995373E+03  0.00000000000E+00 0. -1.
         25    2    1    2    0    0  0.25727119495E+02  0.12314182173E+02 -0.31453275917E+03  0.33969270064E+03  0.12508697180E+03 0.  0.
         23    2    1    2    0    0 -0.25727119495E+02 -0.12314182173E+02 -0.11963857175E+03  0.15291587591E+03  0.90864478728E+02 0.  0.
          5    1    3    3  502    0 -0.47747970861E+02  0.27831719840E+01 -0.76106659804E+02  0.89985058950E+02  0.41800000000E+01 0.  1.
         -5    1    3    3    0  502  0.73475090355E+02  0.95310101888E+01 -0.23842609937E+03  0.24970764169E+03  0.41800000000E+01 0.  1.
        -11    1    4    4    0    0  0.56535393390E+01 -0.37475673520E+02 -0.14906848996E+02  0.40725947010E+02  0.00000000000E+00 0.  1.
         11    1    4    4    0    0 -0.31380658834E+02  0.25161491347E+02 -0.10473172275E+03  0.11218992890E+03  0.00000000000E+00 0. -1.
</event>
<event>
 8    1  0.6635152E-009  0.1064697E+03  0.7561462E-02  0.1267251E+00
          2   -1    0    0  501    0  0.00000000000E+00  0.00000000000E+00  0.10316807849E+04  0.10316807849E+04  0.00000000000E+00 0. -1.
         -2   -1    0    0    0  501 -0.00000000000E+00 -0.00000000000E+00 -0.14654341588E+02  0.14654341588E+02  0.00000000000E+00 0.  1.
         25    2    1    2    0    0  0.10711075538E+02  0.53264890588E+02  0.64649945508E+03  0.66072121909E+03  0.12505642019E+03 0.  0.
         23    2    1    2    0    0 -0.10711075538E+02 -0.53264890588E+02  0.37052698827E+03  0.38561390743E+03  0.91956298648E+02 0.  0.
          5    1    3    3  502    0  0.46833584183E+02  0.34334955697E+01  0.97856617164E+02  0.10862119232E+03  0.41800000000E+01 0. -1.
         -5    1    3    3    0  502 -0.36122508645E+02  0.49831395018E+02  0.54864283791E+03  0.55210002677E+03  0.41800000000E+01 0. -1.
        -11    1    4    4    0    0  0.18512906733E+02 -0.68634080380E+02  0.28988435797E+03  0.29847329144E+03  0.00000000000E+00 0.  1.
         11    1    4    4    0    0 -0.29223982271E+02  0.15369189792E+02  0.80642630302E+02  0.87140615999E+02  0.00000000000E+00 0. -1.
</event>
<event>
 8    1  0.6635152E-009  0.1271321E+03  0.7561462E-02  0.1231774E+00
         -1   -1    0    0    0  501 -0.00000000000E+00  0.00000000000E+00  0.94988747649E+02  0.94988747649E+02  0.00000000000E+00 0.  1.
          1   -1    0    0  501    0  0.00000000000E+00 -0.00000000000E+00 -0.21708886563E+03  0.21708886563E+03  0.00000000000E+00 0. -1.
         25    2    1    2    0    0 -0.30045398044E+02  0.78814573126E+02 -0.12182365989E+03  0.19391179327E+03  0.12508523726E+03 0.  0.
         23    2    1    2    0    0  0.30045398044E+02 -0.78814573126E+02 -0.27645808945E+00  0.11816582001E+03  0.82756399802E+02 0.  0.
          5    1    3    3  502    0 -0.42287322829E+02 -0.18536527353E+02 -0.66889116260E+02  0.81384561143E+02  0.41800000000E+01 0. -1.
         -5    1    3    3    0  502  0.12241924785E+02  0.97351100479E+02 -0.54934543633E+02  0.11252723213E+03  0.41800000000E+01 0. -1.
        -11    1    4    4    0    0  0.17001485060E+02  0.10136904506E+02  0.17618447227E+02  0.26499377538E+02  0.00000000000E+00 0.  1.
         11    1    4    4    0    0  0.13043912984E+02 -0.88951477631E+02 -0.17894905316E+02  0.91666442469E+02  0.00000000000E+00 0. -1.
</event>
<event>
 8    1  0.6635152E-009  0.1406478E+03  0.7561462E-02  0.1212460E+00
         -2   -1    0    0    0  501 -0.00000000000E+00  0.00000000000E+00  0.20837873016E+02  0.20837873016E+02  0.00000000000E+00 0.  1.
          2   -1    0    0  501    0  0.00000000000E+00 -0.00000000000E+00 -0.17915612823E+04  0.17915612823E+04  0.00000000000E+00 0. -1.
         25    2    1    2    0    0  0.72168194875E+02  0.76380294798E+02 -0.14844261289E+04  0.14933888987E+04  0.12508905961E+03 0.  0.
         23    2    1    2    0    0 -0.72168194875E+02 -0.76380294798E+02 -0.28629728045E+03  0.31901025667E+03  0.93590668796E+02 0.  0.
          5    1    3    3  502    0  0.56676171652E+02 -0.23555808696E+02 -0.62633251483E+03  0.62934645156E+03  0.41800000000E+01 0.  1.
         -5    1    3    3    0  502  0.15492023223E+02  0.99936103493E+02 -0.85809361403E+03  0.86404244711E+03  0.41800000000E+01 0.  1.
        -11    1    4    4    0    0 -0.51702325655E+02 -0.14963774318E+02 -0.48140801422E+02  0.72212061191E+02  0.00000000000E+00 0.  1.
         11    1    4    4    0    0 -0.20465869220E+02 -0.61416520480E+02 -0.23815647903E+03  0.24679819548E+03  0.00000000000E+00 0. -1.
</event>
<event>
 8    1  0.6635152E-009  0.1395208E+03  0.7561462E-02  0.1213975E+00
         -2   -1    0    0    0  501 -0.00000000000E+00  0.00000000000E+00  0.29288323299E+02  0.29288323299E+02  0.00000000000E+00 0. -1.
          2   -1    0    0  501    0  0.00000000000E+00 -0.00000000000E+00 -0.82960861374E+03  0.82960861374E+03  0.00000000000E+00 0.  1.
         25    2    1    2    0    0 -0.98811836224E+01 -0.11375704142E+03 -0.44590274644E+03  0.47698335569E+03  0.12508221319E+03 0.  0.
         23    2    1    2    0    0  0.98811836224E+01  0.11375704142E+03 -0.35441754401E+03  0.38191358136E+03  0.84899268928E+02 0.  0.
          5    1    3    3  502    0  0.25563095466E+02  0.13020627686E+02 -0.34774035853E+02  0.45273773475E+02  0.41800000000E+01 0. -1.
         -5    1    3    3    0  502 -0.35444279089E+02 -0.12677766910E+03 -0.41112871059E+03  0.43170958221E+03  0.41800000000E+01 0. -1.
        -11    1    4    4    0    0 -0.78868990315E+01  0.78189418430E+02 -0.31942194593E+03  0.32894705937E+03  0.00000000000E+00 0.  1.
         11    1    4    4    0    0  0.17768082654E+02  0.35567622987E+02 -0.34995598077E+02  0.52966521982E+02  0.00000000000E+00 0. -1.
</event>
<event>
 8    1  0.6635152E-009  0.1521954E+03  0.7561462E-02  0.1197801E+00
          1   -1    0    0  501    0  0.00000000000E+00  0.00000000000E+00  0.51195654540E+03  0.51195654540E+03  0.00000000000E+00 0. -1.
         -1   -1    0    0    0  501 -0.00000000000E+00 -0.00000000000E+00 -0.48410321230E+02  0.48410321230E+02  0.00000000000E+00 0.  1.
         25    2    1    2    0    0 -0.86471837651E+02 -0.67959891355E+02  0.22957599129E+03  0.28363933731E+03  0.12510080877E+03 0.  0.
         23    2    1    2    0    0  0.86471837651E+02  0.67959891355E+02  0.23397023287E+03  0.27672752931E+03  0.98692097293E+02 0.  0.
          5    1    3    3  502    0  0.80447567555E+01 -0.67469413084E+02  0.66864483370E+02  0.95421021529E+02  0.41800000000E+01 0.  1.
         -5    1    3    3    0  502 -0.94516594406E+02 -0.49047827026E+00  0.16271150792E+03  0.18821831579E+03  0.41800000000E+01 0.  1.
        -11    1    4    4    0    0  0.10476046367E+03  0.50032514181E+02  0.15465941863E+03  0.19338444352E+03  0.00000000000E+00 0.  1.
         11    1    4    4    0    0 -0.18288626017E+02  0.17927377174E+02  0.79310814243E+02  0.83343085795E+02  0.00000000000E+00 0. -1.
</event>
<event>
 8    1  0.6635152E-009  0.1197156E+03  0.7561462E-02  0.1243567E+00
          1   -1    0    0  501    0  0.00000000000E+00  0.00000000000E+00  0.98585970304E+02  0.98585970304E+02  0.00000000000E+00 0. -1.
         -1   -1    0    0    0  501 -0.00000000000E+00 -0.00000000000E+00 -0.16714608730E+03  0.16714608730E+03  0.00000000000E+00 0.  1.
         25    2    1    2    0    0  0.36256795197E+02  0.45903678169E+02 -0.61616882866E+02  0.15121363016E+03  0.12508884373E+03 0.  0.
         23    2    1    2    0    0 -0.36256795197E+02 -0.45903678169E+02 -0.69432341332E+01  0.11451842744E+03  0.98206714926E+02 0.  0.
          5    1    3    3  502    0 -0.30279248587E+02 -0.24144162260E+02 -0.30996435279E+02  0.49779763622E+02  0.41800000000E+01 0.  1.
         -5    1    3    3    0  502  0.66536043784E+02  0.70047840429E+02 -0.30620447587E+02  0.10143386654E+03  0.41800000000E+01 0.  1.
        -11    1    4    4    0    0  0.22730652856E+02  0.77736839972E+01 -0.22893389772E+02  0.33184635562E+02  0.00000000000E+00 0.  1.
         11    1    4    4    0    0 -0.58987448053E+02 -0.53677362166E+02  0.15950155639E+02  0.81333791881E+02  0.00000000000E+00 0. -1.
</event>
<event>
 8    1  0.6635152E-009  0.1259796E+03  0.7561462E-02  0.1233546E+00
          2   -1    0    0  501    0  0.00000000000E+00  0.00000000000E+00  0.13338054334E+03  0.13338054334E+03  0.00000000000E+00 0. -1.
         -2   -1    0    0    0  501 -0.00000000000E+00 -0.00000000000E+00 -0.19886649438E+03  0.19886649438E+03  0.00000000000E+00 0.  1.
         25    2    1    2    0    0 -0.96166342029E+02  0.39315269573E+02 -0.96913823070E+02  0.18929551319E+03  0.12508735528E+03 0.  0.
         23    2    1    2    0    0  0.96166342029E+02 -0.39315269573E+02  0.31427872032E+02  0.14295152452E+03  0.93025649488E+02 0.  0.
          5    1    3    3  502    0 -0.11576437613E+03  0.34226971217E+02 -0.11118623334E+03  0.16417285776E+03  0.41800000000E+01 0. -1.
         -5    1    3    3    0  502  0.19598034106E+02  0.50882983556E+01  0.14272410269E+02  0.25122655430E+02  0.41800000000E+01 0. -1.
        -11    1    4    4    0    0  0.34337200616E+02  0.46170071782E+01  0.53695315055E+02  0.63902636568E+02  0.00000000000E+00 0. -1.
         11    1    4    4    0    0  0.61829141412E+02 -0.43932276751E+02 -0.22267443024E+02  0.79048887956E+02  0.00000000000E+00 0.  1.
</event>
<event>
 8    1  0.6635152E-009  0.9507483E+02  0.7561462E-02  0.1291008E+00
          3   -1    0    0  501    0  0.00000000000E+00  0.00000000000E+00  0.14693093557E+03  0.14693093557E+03  0.00000000000E+00 0. -1.
         -3   -1    0    0    0  501 -0.00000000000E+00 -0.00000000000E+00 -0.83736260155E+02  0.83736260155E+02  0.00000000000E+00 0.  1.
         25    2    1    2    0    0  0.80239690305E+01  0.14236773168E+02  0.41338812518E+02  0.13274617193E+03  0.12508228873E+03 0.  0.
         23    2    1    2    0    0 -0.80239690305E+01 -0.14236773168E+02  0.21855862894E+02  0.97921023790E+02  0.94041365196E+02 0.  0.
          5    1    3    3  502    0 -0.17081337643E+02 -0.35659045730E+02  0.61485819771E+02  0.73221022056E+02  0.41800000000E+01 0. -1.
         -5    1    3    3    0  502  0.25105306673E+02  0.49895818898E+02 -0.20147007253E+02  0.59525149877E+02  0.41800000000E+01 0. -1.
        -11    1    4    4    0    0 -0.36341810167E+02  0.26349790474E+02  0.17717621706E+02  0.48259224436E+02  0.00000000000E+00 0.  1.
         11    1    4    4    0    0  0.28317841137E+02 -0.40586563642E+02  0.41382411886E+01  0.49661799354E+02  0.00000000000E+00 0. -1.
</event>
<event>
 8    1  0.6635152E-009  0.8560804E+02  0.7561462E-02  0.1313850E+00
         -1   -1    0    0    0  501 -0.00000000000E+00  0.00000000000E+00  0.18619589144E+02  0.18619589144E+02  0.00000000000E+00 0.  1.
          1   -1    0    0  501    0  0.00000000000E+00 -0.00000000000E+00 -0.71201942791E+03  0.71201942791E+03  0.00000000000E+00 0. -1.
         25    2    1    2    0    0 -0.30543348581E+02 -0.30623808567E+02 -0.38614276298E+03  0.40819596936E+03  0.12508797784E+03 0.  0.
         23    2    1    2    0    0  0.30543348581E+02  0.30623808567E+02 -0.30725707578E+03  0.32244304770E+03  0.87703446890E+02 0.  0.
          5    1    3    3  502    0  0.18401419617E+02 -0.14412826757E+02 -0.33366553834E+03  0.33450935068E+03  0.41800000000E+01 0. -1.
         -5    1    3    3    0  502 -0.48944768198E+02 -0.16210981810E+02 -0.52477224647E+02  0.73686618675E+02  0.41800000000E+01 0. -1.
        -11    1    4    4    0    0  0.25191288652E+02  0.60424345141E+02 -0.23836223008E+03  0.24718870371E+03  0.00000000000E+00 0.  1.
         11    1    4    4    0    0  0.53520599286E+01 -0.29800536575E+02 -0.68894845698E+02  0.75254343990E+02  0.00000000000E+00 0. -1.
</event>
<event>
 8    1  0.6635152E-009  0.1199478E+03  0.7561462E-02  0.1243183E+00
          1   -1    0    0  501    0  0.00000000000E+00  0.00000000000E+00  0.63406243351E+03  0.63406243351E+03  0.00000000000E+00 0. -1.
         -1   -1    0    0    0  501 -0.00000000000E+00 -0.00000000000E+00 -0.30453969318E+02  0.30453969318E+02  0.00000000000E+00 0.  1.
         25    2    1    2    0    0  0.30702701768E+02  0.66922486878E+02  0.40098513847E+03  0.42644878220E+03  0.12509279524E+03 0.  0.
         23    2    1    2    0    0 -0.30702701768E+02 -0.66922486878E+02  0.20262332573E+03  0.23806762064E+03  0.10098863658E+03 0.  0.
          5    1    3    3  502    0 -0.29477418196E+02 -0.16886410899E+02  0.50034092420E+02  0.60621381219E+02  0.41800000000E+01 0. -1.
         -5    1    3    3    0  502  0.60180119964E+02  0.83808897778E+02  0.35095104604E+03  0.36582740098E+03  0.41800000000E+01 0. -1.
        -11    1    4    4    0    0  0.20243033824E+02 -0.26880147004E+01  0.11980394701E+03  0.12153185410E+03  0.00000000000E+00 0. -1.
         11    1    4    4    0    0 -0.50945735592E+02 -0.64234472178E+02  0.82819378724E+02  0.11653576654E+03  0.00000000000E+00 0.  1.
</event>
<event>
 8    1  0.6635152E-009  0.2162287E+03  0.7561462E-02  0.1136726E+00
          2   -1    0    0  501    0  0.00000000000E+00  0.00000000000E+00  0.58093135978E+02  0.58093135978E+02  0.00000000000E+00 0. -1.
         -2   -1    0    0    0  501 -0.00000000000E+00 -0.00000000000E+00 -0.94150072311E+03  0.94150072311E+03  0.00000000000E+00 0.  1.
         25    2    1    2    0    0 -0.14705852405E+03  0.14746002394E+03 -0.48914805858E+03  0.54615360850E+03  0.12508905911E+03 0.  0.
         23    2    1    2    0    0  0.14705852405E+03 -0.14746002394E+03 -0.39425952856E+03  0.45344025059E+03  0.82442809525E+02 0.  0.
          5    1    3    3  502    0 -0.60406389368E+02  0.55255742654E+02 -0.68370523247E+02  0.10674328935E+03  0.41800000000E+01 0.  1.
         -5    1    3    3    0  502 -0.86652134684E+02  0.92204281284E+02 -0.42077753533E+03  0.43941031915E+03  0.41800000000E+01 0.  1.
        -11    1    4    4    0    0  0.13479277777E+03 -0.15801870396E+03 -0.36214741576E+03  0.41748024442E+03  0.00000000000E+00 0. -1.
         11    1    4    4    0    0  0.12265746286E+02  0.10558680018E+02 -0.32112112799E+02  0.35960006175E+02  0.00000000000E+00 0.  1.
</event>
<event>
 8    1  0.6635152E-009  0.1368376E+03  0.7561462E-02  0.1217649E+00
          2   -1    0    0  501    0  0.00000000000E+00  0.00000000000E+00  0.28745476525E+03  0.28745476525E+03  0.00000000000E+00 0. -1.
         -2   -1    0    0    0  501 -0.00000000000E+00 -0.00000000000E+00 -0.29799443469E+03  0.29799443469E+03  0.00000000000E+00 0.  1.
         25    2    1    2    0    0  0.30810867448E+02  0.87049286985E+02 -0.26082843211E+03  0.30365420164E+03  0.12509002862E+03 0.  0.
         23    2    1    2    0    0 -0.30810867448E+02 -0.87049286985E+02  0.25028876267E+03  0.28179499829E+03  0.90758296730E+02 0.  0.
          5    1    3    3  502    0 -0.24242951052E+02 -0.14625966374E+02 -0.10941599858E+03  0.11309718260E+03  0.41800000000E+01 0.  1.
         -5    1    3    3    0  502  0.55053818501E+02  0.10167525336E+03 -0.15141243353E+03  0.19055701904E+03  0.41800000000E+01 0.  1.
        -11    1    4    4    0    0 -0.59809095666E+02 -0.33738438155E+02  0.12680891098E+03  0.14420787093E+03  0.00000000000E+00 0.  1.
         11    1    4    4    0    0  0.28998228218E+02 -0.53310848830E+02  0.12347985168E+03  0.13758712736E+03  0.00000000000E+00 0. -1.
</event>
<event>
 8    1  0.6635152E-009  0.1094644E+03  0.7561462E-02  0.1261565E+00
          1   -1    0    0  501    0  0.00000000000E+00  0.00000000000E+00  0.51791564024E+02  0.51791564024E+02  0.00000000000E+00 0. -1.
         -1   -1    0    0    0  501 -0.00000000000E+00 -0.00000000000E+00 -0.23315152029E+03  0.23315152029E+03  0.00000000000E+00 0.  1.
         25    2    1    2    0    0  0.16460686772E+02  0.13500090464E+02 -0.11643634105E+03  0.17221973317E+03  0.12509599643E+03 0.  0.
         23    2    1    2    0    0 -0.16460686772E+02 -0.13500090464E+02 -0.64923615215E+02  0.11272335115E+03  0.89656407636E+02 0.  0.
          5    1    3    3  502    0 -0.30014537817E+02 -0.43602634955E+02 -0.46330928678E+02  0.70470487494E+02  0.41800000000E+01 0. -1.
         -5    1    3    3    0  502  0.46475224589E+02  0.57102725420E+02 -0.70105412375E+02  0.10174924567E+03  0.41800000000E+01 0. -1.
        -11    1    4    4    0    0 -0.48460427333E+02  0.13402784834E+02 -0.37527038786E+02  0.62740149017E+02  0.00000000000E+00 0.  1.
         11    1    4    4    0    0  0.31999740562E+02 -0.26902875298E+02 -0.27396576429E+02  0.49983202132E+02  0.00000000000E+00 0. -1.
</event>
<event>
 7    1  0.6635152E-009  0.1199580E+03  0.7561462E-02  0.1243166E+00
          2   -1    0    0  501    0  0.00000000000E+00  0.00000000000E+00  0.16648048508E+03  0.16648048508E+03  0.00000000000E+00 0. -1.
         -2   -1    0    0    0  501 -0.00000000000E+00 -0.00000000000E+00 -0.12480446574E+03  0.12480446574E+03  0.00000000000E+00 0.  1.
         23    2    1    2    0    0 -0.74233335090E+02 -0.38840312183E+02  0.59337618276E+02  0.13953882640E+03  0.94503826604E+02 0.  0.
          5    1    1    2  502    0 -0.16018310950E+02  0.49999824018E+02  0.15430625577E+02  0.54883014615E+02  0.41800000000E+01 0. -1.
         -5    1    1    2    0  502  0.90251646040E+02 -0.11159511835E+02 -0.33092224506E+02  0.96863109800E+02  0.41800000000E+01 0. -1.
        -11    1    3    3    0    0 -0.21753794485E+02 -0.37928899642E+02  0.73188275084E+02  0.85254633964E+02  0.00000000000E+00 0. -1.
         11    1    3    3    0    0 -0.52479540605E+02 -0.91141254131E+00 -0.13850656809E+02  0.54284192440E+02  0.00000000000E+00 0.  1.
</event>
<event>
 8    1  0.6635152E-009  0.1300001E+03  0.7561462E-02  0.1227456E+00
          2   -1    0    0  501    0  0.00000000000E+00  0.00000000000E+00  0.92955331806E+03  0.92955331806E+03  0.00000000000E+00 0. -1.
         -2   -1    0    0    0  501 -0.00000000000E+00 -0.00000000000E+00 -0.26967976295E+02  0.26967976295E+02  0.00000000000E+00 0.  1.
         25    2    1    2    0    0  0.10780635497E+03  0.27439580156E+02  0.56459967851E+03  0.58889334963E+03  0.12508972593E+03 0.  0.
         23    2    1    2    0    0 -0.10780635497E+03 -0.27439580156E+02  0.33798566325E+03  0.36762794472E+03  0.92416754132E+02 0.  0.
          5    1    3    3  502    0  0.81806254069E+02  0.33259783419E+02  0.55216068718E+03  0.55919350252E+03  0.41800000000E+01 0.  1.
         -5    1    3    3    0  502  0.26000100905E+02 -0.58202032629E+01  0.12438991337E+02  0.29699847113E+02  0.41800000000E+01 0.  1.
        -11    1    4    4    0    0 -0.71665200985E+02 -0.61891781894E+02  0.22073454047E+03  0.24018790780E+03  0.00000000000E+00 0.  1.
         11    1    4    4    0    0 -0.36141153989E+02  0.34452201737E+02  0.11725112278E+03  0.12744003692E+03  0.00000000000E+00 0. -1.
</event>
<event>
 8    1  0.6635152E-009  0.1184188E+03  0.7561462E-02  0.1245729E+00
         -1   -1    0    0    0  501 -0.00000000000E+00  0.00000000000E+00  0.37672172844E+03  0.37672172844E+03  0.00000000000E+00 0.  1.
          1   -1    0    0  501    0  0.00000000000E+00 -0.00000000000E+00 -0.49218567272E+02  0.49218567272E+02  0.00000000000E+00 0. -1.
         25    2    1    2    0    0  0.71959533041E+02  0.38545070969E+02  0.18684571681E+03  0.23921297178E+03  0.12509047560E+03 0.  0.
         23    2    1    2    0    0 -0.71959533041E+02 -0.38545070969E+02  0.14065744436E+03  0.18672732394E+03  0.91753364833E+02 0.  0.
          5    1    3    3  502    0  0.37993936170E+00 -0.40471753018E+02  0.70106080120E+02  0.81058263096E+02  0.41800000000E+01 0.  1.
         -5    1    3    3    0  502  0.71579593679E+02  0.79016823988E+02  0.11673963668E+03  0.15815470868E+03  0.41800000000E+01 0.  1.
        -11    1    4    4    0    0 -0.56684042323E+02 -0.10693785424E+02  0.14367178845E+03  0.15481931564E+03  0.00000000000E+00 0.  1.
         11    1    4    4    0    0 -0.15275490718E+02 -0.27851285545E+02 -0.30143440804E+01  0.31908008296E+02  0.00000000000E+00 0. -1.
</event>
<event>
 8    1  0.6635152E-009  0.1044115E+03  0.7561462E-02  0.1271284E+00
         -2   -1    0    0    0  501 -0.00000000000E+00  0.00000000000E+00  0.22833801871E+03  0.22833801871E+03  0.00000000000E+00 0. -1.
          2   -1    0    0  501    0  0.00000000000E+00 -0.00000000000E+00 -0.88202182363E+02  0.88202182363E+02  0.00000000000E+00 0.  1.
         25    2    1    2    0    0 -0.57302702732E+02  0.67960327588E+02  0.99399021958E+02  0.18285894336E+03  0.12512002931E+03 0.  0.
         23    2    1    2    0    0  0.57302702732E+02 -0.67960327588E+02  0.40736814385E+02  0.13368125771E+03  0.91153632679E+02 0.  0.
          5    1    3    3  502    0  0.10866635559E+02 -0.10166051544E+02 -0.19605447261E+02  0.24965542947E+02  0.41800000000E+01 0. -1.
         -5    1    3    3    0  502 -0.68169338291E+02  0.78126379132E+02  0.11900446922E+03  0.15789340041E+03  0.41800000000E+01 0. -1.
        -11    1    4    4    0    0  0.72235011724E+01 -0.15332756103E+02 -0.28607233720E+02  0.33251258623E+02  0.00000000000E+00 0.  1.
         11    1    4    4    0    0  0.50079201560E+02 -0.52627571485E+02  0.69344048104E+02  0.10042999909E+03  0.00000000000E+00 0. -1.
</event>
<event>
 8    1  0.6635152E-009  0.1768324E+03  0.7561462E-02  0.1170904E+00
         -1   -1    0    0    0  501 -0.00000000000E+00  0.00000000000E+00  0.64820242248E+02  0.64820242248E+02  0.00000000000E+00 0.  1.
          1   -1    0    0  501    0  0.00000000000E+00 -0.00000000000E+00 -0.56019533752E+03  0.56019533752E+03  0.00000000000E+00 0. -1.
         25    2    1    2    0    0 -0.23404450600E+02 -0.15317785922E+03 -0.21917178634E+03  0.29613383145E+03  0.12509096425E+03 0.  0.
         23    2    1    2    0    0  0.23404450600E+02  0.15317785922E+03 -0.27620330893E+03  0.32888174832E+03  0.88677571283E+02 0.  0.
          5    1    3    3  502    0 -0.21782040904E+02  0.14191178192E+02 -0.99062403454E+01  0.28132771676E+02  0.41800000000E+01 0. -1.
         -5    1    3    3    0  502 -0.16224096957E+01 -0.16736903742E+03 -0.20926554600E+03  0.26800105977E+03  0.41800000000E+01 0. -1.
        -11    1    4    4    0    0 -0.75536016485E+01  0.81214466619E+02 -0.67210357033E+02  0.10568859247E+03  0.00000000000E+00 0.  1.
         11    1    4    4    0    0  0.30958052248E+02  0.71963392604E+02 -0.20899295190E+03  0.22319315585E+03  0.00000000000E+00 0. -1.
</event>
<event>
 8    1  0.6635152E-009  0.1257647E+03  0.7561462E-02  0.1233879E+00
         -1   -1    0    0    0  501 -0.00000000000E+00  0.00000000000E+00  0.56784199191E+02  0.56784199191E+02  0.00000000000E+00 0.  1.
          1   -1    0    0  501    0  0.00000000000E+00 -0.00000000000E+00 -0.47801265216E+03  0.47801265216E+03  0.00000000000E+00 0. -1.
         25    2    1    2    0    0 -0.70272973654E+02 -0.70842933327E+02 -0.10724922551E+03  0.19263118984E+03  0.12508943560E+03 0.  0.
         23    2    1    2    0    0  0.70272973654E+02  0.70842933327E+02 -0.31397922745E+03  0.34216566150E+03  0.92397903722E+02 0.  0.
          5    1    3    3  502    0 -0.68451450408E+02 -0.27839009292E+02  0.31327224938E+01  0.74080347269E+02  0.41800000000E+01 0.  1.
         -5    1    3    3    0  502 -0.18215232462E+01 -0.43003924035E+02 -0.11038194801E+03  0.11855084258E+03  0.41800000000E+01 0.  1.
        -11    1    4    4    0    0  0.47868786211E+02 -0.11251819880E+02 -0.89857615907E+02  0.10243249133E+03  0.00000000000E+00 0.  1.
         11    1    4    4    0    0  0.22404187443E+02  0.82094753207E+02 -0.22412161154E+03  0.23973317017E+03  0.00000000000E+00 0. -1.
</event>
<event>
 8    1  0.6635152E-009  0.1528784E+03  0.7561462E-02  0.1196980E+00
          1   -1    0    0  501    0  0.00000000000E+00  0.00000000000E+00  0.21355734718E+03  0.21355734718E+03  0.00000000000E+00 0. -1.
         -1   -1    0    0    0  501 -0.00000000000E+00 -0.00000000000E+00 -0.17426405379E+03  0.17426405379E+03  0.00000000000E+00 0.  1.
         25    2    1    2    0    0 -0.28948653177E+02 -0.14492443617E+03  0.78941664898E+02  0.20909920245E+03  0.12509825454E+03 0.  0.
         23    2    1    2    0    0  0.28948653177E+02  0.14492443617E+03 -0.39648371503E+02  0.17872219852E+03  0.92349954847E+02 0.  0.
          5    1    3    3  502    0 -0.12876198323E+02 -0.12668135203E+03  0.10635813212E+01  0.12740708395E+03  0.41800000000E+01 0. -1.
         -5    1    3    3    0  502 -0.16072454854E+02 -0.18243084139E+02  0.77878083577E+02  0.81692118504E+02  0.41800000000E+01 0. -1.
        -11    1    4    4    0    0  0.81923692750E+01  0.12379370417E+03 -0.64706539353E+02  0.13992473813E+03  0.00000000000E+00 0.  1.
         11    1    4    4    0    0  0.20756283902E+02  0.21130731997E+02  0.25058167850E+02  0.38797460383E+02  0.00000000000E+00 0. -1.
</event>
<event>
 8    1  0.6635152E-009  0.1323590E+03  0.7561462E-02  0.1223997E+00
         -1   -1    0    0    0  501 -0.00000000000E+00  0.00000000000E+00  0.75077195059E+02  0.75077195059E+02  0.00000000000E+00 0.  1.
          1   -1    0    0  501    0  0.00000000000E+00 -0.00000000000E+00 -0.35456210836E+03  0.35456210836E+03  0.00000000000E+00 0. -1.
         25    2    1    2    0    0 -0.94028104665E+02  0.37448069197E+02 -0.23654739626E+03  0.28608720486E+03  0.12509027041E+03 0.  0.
         23    2    1    2    0    0  0.94028104665E+02 -0.37448069197E+02 -0.42937517041E+02  0.14355209856E+03  0.92303479237E+02 0.  0.
          5    1    3    3  502    0 -0.10868433881E+03  0.49182856941E+02 -0.12479655978E+03  0.17269305908E+03  0.41800000000E+01 0. -1.
         -5    1    3    3    0  502  0.14656234148E+02 -0.11734787745E+02 -0.11175083648E+03  0.11339414578E+03  0.41800000000E+01 0. -1.
        -11    1    4    4    0    0  0.33228686350E+02  0.22974595915E+02 -0.41366820054E+02  0.57820337731E+02  0.00000000000E+00 0. -1.
         11    1    4    4    0    0  0.60799418315E+02 -0.60422665111E+02 -0.15706969872E+01  0.85731760833E+02  0.00000000000E+00 0.  1.
</event>
<event>
 8    1  0.6635152E-009  0.1155480E+03  0.7561462E-02  0.1250628E+00
         -1   -1    0    0    0  501 -0.00000000000E+00  0.00000000000E+00  0.28426069598E+03  0.28426069598E+03  0.00000000000E+00 0.  1.
          1   -1    0    0  501    0  0.00000000000E+00 -0.00000000000E+00 -0.66807484505E+02  0.66807484505E+02  0.00000000000E+00 0. -1.
         25    2    1    2    0    0  0.55122642988E+02  0.68001045625E+01  0.36739631284E+02  0.14171042567E+03  0.12508915638E+03 0.  0.
         23    2    1    2    0    0 -0.55122642988E+02 -0.68001045625E+01  0.18071358019E+03  0.20935775482E+03  0.89936223211E+02 0.  0.
          5    1    3    3  502    0 -0.68651867514E+01 -0.49151807273E+02  0.29267409472E+02  0.57767504746E+02  0.41800000000E+01 0. -1.
         -5    1    3    3    0  502  0.61987829739E+02  0.55951911836E+02  0.74722218127E+01  0.83942920920E+02  0.41800000000E+01 0. -1.
        -11    1    4    4    0    0  0.74706438227E+01 -0.30008337515E+02  0.99683472468E+02  0.10437004131E+03  0.00000000000E+00 0.  1.
         11    1    4    4    0    0 -0.62593286810E+02  0.23208232952E+02  0.81030107719E+02  0.10498771351E+03  0.00000000000E+00 0. -1.
</event>
<event>
 8    1  0.6635152E-009  0.1091744E+03  0.7561462E-02  0.1262106E+00
          2   -1    0    0  501    0  0.00000000000E+00  0.00000000000E+00  0.49359426728E+03  0.49359426728E+03  0.00000000000E+00 0. -1.
         -2   -1    0    0    0  501 -0.00000000000E+00 -0.00000000000E+00 -0.25634448776E+02  0.25634448776E+02  0.00000000000E+00 0.  1.
         25    2    1    2    0    0  0.43873979211E+01  0.29871658715E+02  0.25325768302E+03  0.28407507909E+03  0.12509049243E+03 0.  0.
         23    2    1    2    0    0 -0.43873979211E+01 -0.29871658715E+02  0.21470213548E+03  0.23515363696E+03  0.91042082259E+02 0.  0.
          5    1    3    3  502    0 -0.21667216888E+02 -0.43610598832E+02  0.12088901573E+03  0.13039547209E+03  0.41800000000E+01 0. -1.
         -5    1    3    3    0  502  0.26054614809E+02  0.73482257547E+02  0.13236866730E+03  0.15367960700E+03  0.41800000000E+01 0. -1.
        -11    1    4    4    0    0 -0.44052777923E+02 -0.44341821002E+01  0.68659142953E+02  0.81696922370E+02  0.00000000000E+00 0.  1.
         11    1    4    4    0    0  0.39665380002E+02 -0.25437476615E+02  0.14604299253E+03  0.15345671459E+03  0.00000000000E+00 0. -1.
</event>
<event>
 8    1  0.6635152E-009  0.3778000E+03  0.7561462E-02  0.1051750E+00
          2   -1    0    0  501    0  0.00000000000E+00  0.00000000000E+00  0.10824733876E+04  0.10824733876E+04  0.00000000000E+00 0. -1.
         -2   -1    0    0    0  501 -0.00000000000E+00 -0.00000000000E+00 -0.18049814500E+03  0.18049814500E+03  0.00000000000E+00 0.  1.
         25    2    1    2    0    0 -0.29784746474E+03  0.22455540603E+03  0.15476857824E+03  0.42277461011E+03  0.12508723163E+03 0.  0.
         23    2    1    2    0    0  0.29784746474E+03 -0.22455540603E+03  0.74720666435E+03  0.84019692247E+03  0.92058821683E+02 0.  0.
          5    1    3    3  502    0  0.32092987947E+01  0.57376233283E+01  0.28799048879E+02  0.29834167267E+02  0.41800000000E+01 0. -1.
         -5    1    3    3    0  502 -0.30105676353E+03  0.21881778270E+03  0.12596952937E+03  0.39294044285E+03  0.41800000000E+01 0. -1.
        -11    1    4    4    0    0  0.12809083357E+03 -0.12413927601E+03  0.26741464651E+03  0.32144737464E+03  0.00000000000E+00 0.  1.
         11    1    4    4    0    0  0.16975663117E+03 -0.10041613002E+03  0.47979201784E+03  0.51874954784E+03  0.00000000000E+00 0. -1.
</event>
<event>
 8    1  0.6635152E-009  0.1598192E+03  0.7561462E-02  0.1188901E+00
         -1   -1    0    0    0  501 -0.00000000000E+00  0.00000000000E+00  0.41252437746E+02  0.41252437746E+02  0.00000000000E+00 0.  1.
          1   -1    0    0  501    0  0.00000000000E+00 -0.00000000000E+00 -0.67586226942E+03  0.67586226942E+03  0.00000000000E+00 0. -1.
         25    2    1    2    0    0 -0.10979700166E+03 -0.49952381373E+02 -0.24778627624E+03  0.30264784244E+03  0.12508819232E+03 0.  0.
         23    2    1    2    0    0  0.10979700166E+03  0.49952381373E+02 -0.38682355543E+03  0.41446686473E+03  0.87176240712E+02 0.  0.
          5    1    3    3  502    0 -0.13767794312E+03 -0.38335002256E+02 -0.19710544083E+03  0.24350116144E+03  0.41800000000E+01 0. -1.
         -5    1    3    3    0  502  0.27880941457E+02 -0.11617379117E+02 -0.50680835419E+02  0.59146680995E+02  0.41800000000E+01 0. -1.
        -11    1    4    4    0    0  0.32738921136E+02 -0.23036389924E+02 -0.14398638268E+03  0.14944761830E+03  0.00000000000E+00 0. -1.
         11    1    4    4    0    0  0.77058080528E+02  0.72988771297E+02 -0.24283717275E+03  0.26501924643E+03  0.00000000000E+00 0.  1.
</event>
<event>
 8    1  0.6635152E-009  0.8009179E+02  0.7561462E-02  0.1328791E+00
         -1   -1    0    0    0  501 -0.00000000000E+00  0.00000000000E+00  0.12464724669E+03  0.12464724669E+03  0.00000000000E+00 0.  1.
          1   -1    0    0  501    0  0.00000000000E+00 -0.00000000000E+00 -0.14286668440E+03  0.14286668440E+03  0.00000000000E+00 0. -1.
         25    2    1    2    0    0  0.16077539441E+02  0.54564704269E+01 -0.85873987709E+02  0.15267570234E+03  0.12508904019E+03 0.  0.
         23    2    1    2    0    0 -0.16077539441E+02 -0.54564704269E+01  0.67654549993E+02  0.11483822875E+03  0.91227300206E+02 0.  0.
          5    1    3    3  502    0  0.26026681436E+02 -0.56293307581E+02 -0.31459269561E+02  0.69666940986E+02  0.41800000000E+01 0.  1.
         -5    1    3    3    0  502 -0.99491419950E+01  0.61749778008E+02 -0.54414718148E+02  0.83008761355E+02  0.41800000000E+01 0.  1.
        -11    1    4    4    0    0 -0.98697719778E+01 -0.18457935415E+02 -0.18228051858E+02  0.27755533740E+02  0.00000000000E+00 0. -1.
         11    1    4    4    0    0 -0.62077674634E+01  0.13001464988E+02  0.85882601851E+02  0.87082695006E+02  0.00000000000E+00 0.  1.
</event>
<event>
 8    1  0.6635152E-009  0.1101848E+03  0.7561462E-02  0.1260228E+00
          2   -1    0    0  501    0  0.00000000000E+00  0.00000000000E+00  0.53316278989E+02  0.53316278989E+02  0.00000000000E+00 0. -1.
         -2   -1    0    0    0  501 -0.00000000000E+00 -0.00000000000E+00 -0.33971330575E+03  0.33971330575E+03  0.00000000000E+00 0.  1.
         25    2    1    2    0    0 -0.76047509976E+02 -0.25724477678E+02 -0.14071735816E+03  0.20467816684E+03  0.12508718787E+03 0.  0.
         23    2    1    2    0    0  0.76047509976E+02  0.25724477678E+02 -0.14567966861E+03  0.18835141790E+03  0.88366952278E+02 0.  0.
          5    1    3    3  502    0 -0.49992056083E+02 -0.65032695892E+02 -0.13356324045E+03  0.15679626528E+03  0.41800000000E+01 0. -1.
         -5    1    3    3    0  502 -0.26055453893E+02  0.39308218214E+02 -0.71541177045E+01  0.47881901559E+02  0.41800000000E+01 0. -1.
        -11    1    4    4    0    0  0.54311756705E+02  0.37663011563E+02 -0.34726206597E+02  0.74660423124E+02  0.00000000000E+00 0. -1.
         11    1    4    4    0    0  0.21735753271E+02 -0.11938533886E+02 -0.11095346201E+03  0.11369099478E+03  0.00000000000E+00 0.  1.
</event>
<event>
 8    1  0.6635152E-009  0.9576740E+02  0.7561462E-02  0.1289457E+00
         -1   -1    0    0    0  501 -0.00000000000E+00  0.00000000000E+00  0.78706528986E+02  0.78706528986E+02  0.00000000000E+00 0.  1.
          1   -1    0    0  501    0  0.00000000000E+00 -0.00000000000E+00 -0.22969624939E+03  0.22969624939E+03  0.00000000000E+00 0. -1.
         25    2    1    2    0    0 -0.63746100576E+01  0.43814311082E+02 -0.83138735919E+01  0.13295508315E+03  0.12509038385E+03 0.  0.
         23    2    1    2    0    0  0.63746100576E+01 -0.43814311082E+02 -0.14267584681E+03  0.17544769522E+03  0.92006342102E+02 0.  0.
          5    1    3    3  502    0  0.29688584317E+02  0.67469777832E+02  0.25373154644E+02  0.78069535263E+02  0.41800000000E+01 0. -1.
         -5    1    3    3    0  502 -0.36063194375E+02 -0.23655466750E+02 -0.33687028236E+02  0.54885547889E+02  0.41800000000E+01 0. -1.
        -11    1    4    4    0    0  0.36503736423E+01 -0.58914867250E+02 -0.14789543963E+03  0.15923990667E+03  0.00000000000E+00 0. -1.
         11    1    4    4    0    0  0.27242364153E+01  0.15100556168E+02  0.52195928239E+01  0.16207788556E+02  0.00000000000E+00 0.  1.
</event>
<event>
 8    1  0.6635152E-009  0.1232469E+03  0.7561462E-02  0.1237835E+00
         -4   -1    0    0    0  501 -0.00000000000E+00  0.00000000000E+00  0.18293002533E+03  0.18293002533E+03  0.00000000000E+00 0.  1.
          4   -1    0    0  501    0  0.00000000000E+00 -0.00000000000E+00 -0.11145025696E+03  0.11145025696E+03  0.00000000000E+00 0. -1.
         25    2    1    2    0    0 -0.65684817117E+02 -0.14921472015E+02  0.10469543305E+03  0.17648384175E+03  0.12509303406E+03 0.  0.
         23    2    1    2    0    0  0.65684817117E+02  0.14921472015E+02 -0.33215664680E+02  0.11789644053E+03  0.90879837055E+02 0.  0.
          5    1    3    3  502    0  0.27079995145E+02  0.23771586605E+02  0.84193729814E+01  0.37239397259E+02  0.41800000000E+01 0. -1.
         -5    1    3    3    0  502 -0.92764812262E+02 -0.38693058620E+02  0.96276060068E+02  0.13924444449E+03  0.41800000000E+01 0. -1.
        -11    1    4    4    0    0  0.28009930251E+02 -0.36416180216E+02 -0.28454285759E+02  0.54040177204E+02  0.00000000000E+00 0.  1.
         11    1    4    4    0    0  0.37674886866E+02  0.51337652231E+02 -0.47613789209E+01  0.63856263328E+02  0.00000000000E+00 0. -1.
</event>
<event>
 8    1  0.6635152E-009  0.1548943E+03  0.7561462E-02  0.1194585E+00
         -1   -1    0    0    0  501 -0.00000000000E+00  0.00000000000E+00  0.41407940944E+02  0.41407940944E+02  0.00000000000E+00 0.  1.
          1   -1    0    0  501    0  0.00000000000E+00 -0.00000000000E+00 -0.73141735205E+03  0.73141735205E+03  0.00000000000E+00 0. -1.
         25    2    1    2    0    0  0.52034768823E+02  0.11405228398E+03 -0.48035028086E+03  0.51195583526E+03  0.12508734662E+03 0.  0.
         23    2    1    2    0    0 -0.52034768823E+02 -0.11405228398E+03 -0.20965913025E+03  0.26086945774E+03  0.91544428759E+02 0.  0.
          5    1    3    3  502    0  0.54345842397E+02  0.67081359662E+01 -0.27245240267E+03  0.27793210285E+03  0.41800000000E+01 0. -1.
         -5    1    3    3    0  502 -0.23110735734E+01  0.10734414801E+03 -0.20789787819E+03  0.23402373241E+03  0.41800000000E+01 0. -1.
        -11    1    4    4    0    0 -0.67630410199E+02 -0.11312240849E+03 -0.15224715542E+03  0.20136967999E+03  0.00000000000E+00 0.  1.
         11    1    4    4    0    0  0.15595641376E+02 -0.92987549006E+00 -0.57411974826E+02  0.59499777746E+02  0.00000000000E+00 0. -1.
</event>
<event>
 8    1  0.6635152E-009  0.1110395E+03  0.7561462E-02  0.1258657E+00
         -1   -1    0    0    0  501 -0.00000000000E+00  0.00000000000E+00  0.38296370165E+03  0.38296370165E+03  0.00000000000E+00 0.  1.
          1   -1    0    0  501    0  0.00000000000E+00 -0.00000000000E+00 -0.41888142917E+02  0.41888142917E+02  0.00000000000E+00 0. -1.
         25    2    1    2    0    0 -0.42917222517E+02 -0.44996933447E+02  0.19524242862E+03  0.24006888020E+03  0.12508736665E+03 0.  0.
         23    2    1    2    0    0  0.42917222517E+02  0.44996933447E+02  0.14583313011E+03  0.18478296437E+03  0.94925392159E+02 0.  0.
          5    1    3    3  502    0 -0.69222248767E+02 -0.58926508742E+02  0.80641849024E+02  0.12159207775E+03  0.41800000000E+01 0.  1.
         -5    1    3    3    0  502  0.26305026249E+02  0.13929575295E+02  0.11460057960E+03  0.11847680245E+03  0.41800000000E+01 0.  1.
        -11    1    4    4    0    0  0.57749353519E+02  0.45390025722E+01  0.39672969063E+02  0.70210646276E+02  0.00000000000E+00 0. -1.
         11    1    4    4    0    0 -0.14832131001E+02  0.40457930874E+02  0.10616016105E+03  0.11457231810E+03  0.00000000000E+00 0.  1.
</event>
<event>
 8    1  0.6635152E-009  0.1087847E+03  0.7561462E-02  0.1262837E+00
          1   -1    0    0  501    0  0.00000000000E+00  0.00000000000E+00  0.51134829447E+03  0.51134829447E+03  0.00000000000E+00 0. -1.
         -1   -1    0    0    0  501 -0.00000000000E+00 -0.00000000000E+00 -0.29029650991E+02  0.29029650991E+02  0.00000000000E+00 0.  1.
         25    2    1    2    0    0  0.68310746888E+01  0.35625995074E+02  0.36376004032E+03  0.38637188703E+03  0.12508394401E+03 0.  0.
         23    2    1    2    0    0 -0.68310746888E+01 -0.35625995074E+02  0.11855860315E+03  0.15400605842E+03  0.91355615829E+02 0.  0.
          5    1    3    3  502    0  0.54682313107E+02  0.55121543697E+02  0.23667823966E+03  0.24912366703E+03  0.41800000000E+01 0.  1.
         -5    1    3    3    0  502 -0.47851238418E+02 -0.19495548623E+02  0.12708180066E+03  0.13724822000E+03  0.41800000000E+01 0.  1.
        -11    1    4    4    0    0 -0.10152722060E+02 -0.61275287716E+02  0.46917990273E+02  0.77839812829E+02  0.00000000000E+00 0.  1.
         11    1    4    4    0    0  0.33216473713E+01  0.25649292642E+02  0.71640612881E+02  0.76166245596E+02  0.00000000000E+00 0. -1.
</event>
<event>
 8    1  0.6635152E-009  0.8349391E+02  0.7561462E-02  0.1319419E+00
          1   -1    0    0  501    0  0.00000000000E+00  0.00000000000E+00  0.25512968782E+03  0.25512968782E+03  0.00000000000E+00 0. -1.
         -1   -1    0    0    0  501 -0.00000000000E+00 -0.00000000000E+00 -0.64129993141E+02  0.64129993141E+02  0.00000000000E+00 0.  1.
         25    2    1    2    0    0  0.38398318675E+02 -0.47265756700E+02  0.15623762002E+03  0.20920336030E+03  0.12508944568E+03 0.  0.
         23    2    1    2    0    0 -0.38398318675E+02  0.47265756700E+02  0.34762074659E+02  0.11005632065E+03  0.84826347601E+02 0.  0.
          5    1    3    3  502    0  0.17437422227E+02 -0.35035103853E+02 -0.10438408518E+02  0.40717993176E+02  0.41800000000E+01 0. -1.
         -5    1    3    3    0  502  0.20960896448E+02 -0.12230652847E+02  0.16667602853E+03  0.16848536713E+03  0.41800000000E+01 0. -1.
        -11    1    4    4    0    0 -0.75290678773E+01  0.66308529731E+02  0.31025270069E+02  0.73593989979E+02  0.00000000000E+00 0.  1.
         11    1    4    4    0    0 -0.30869250798E+02 -0.19042773031E+02  0.37368045901E+01  0.36462330673E+02  0.00000000000E+00 0. -1.
</event>
<event>
 8    1  0.6635152E-009  0.1547992E+03  0.7561462E-02  0.1194697E+00
          1   -1    0    0  501    0  0.00000000000E+00  0.00000000000E+00  0.12553216666E+03  0.12553216666E+03  0.00000000000E+00 0. -1.
         -1   -1    0    0    0  501 -0.00000000000E+00 -0.00000000000E+00 -0.29723645910E+03  0.29723645910E+03  0.00000000000E+00 0.  1.
         25    2    1    2    0    0  0.85834203764E+01  0.13758194144E+03 -0.19303339341E+01  0.18615459042E+03  0.12508932660E+03 0.  0.
         23    2    1    2    0    0 -0.85834203764E+01 -0.13758194144E+03 -0.16977395850E+03  0.23661403535E+03  0.90335701822E+02 0.  0.
          5    1    3    3  502    0 -0.24110576398E+02  0.32177866083E+02  0.49849691333E+02  0.64180986950E+02  0.41800000000E+01 0.  1.
         -5    1    3    3    0  502  0.32693996774E+02  0.10540407535E+03 -0.51780025267E+02  0.12197360347E+03  0.41800000000E+01 0.  1.
        -11    1    4    4    0    0 -0.34937540786E+02 -0.24621253037E+02 -0.77060442374E+02  0.88120086451E+02  0.00000000000E+00 0.  1.
         11    1    4    4    0    0  0.26354120410E+02 -0.11296068840E+03 -0.92713516125E+02  0.14849394889E+03  0.00000000000E+00 0. -1.
</event>
<event>
 8    1  0.6635152E-009  0.1503403E+03  0.7561462E-02  0.1200055E+00
          3   -1    0    0  501    0  0.00000000000E+00  0.00000000000E+00  0.37534959609E+02  0.37534959609E+02  0.00000000000E+00 0. -1.
         -3   -1    0    0    0  501 -0.00000000000E+00 -0.00000000000E+00 -0.78119806770E+03  0.78119806770E+03  0.00000000000E+00 0.  1.
         25    2    1    2    0    0  0.11951160541E+03 -0.52737527027E+02 -0.34587135465E+03  0.39030922553E+03  0.12510006787E+03 0.  0.
         23    2    1    2    0    0 -0.11951160541E+03  0.52737527027E+02 -0.39779175344E+03  0.42842380178E+03  0.90798701753E+02 0.  0.
          5    1    3    3  502    0  0.12385088492E+02 -0.58124382394E+02 -0.58296477612E+02  0.83353379941E+02  0.41800000000E+01 0.  1.
         -5    1    3    3    0  502  0.10712651692E+03  0.53868553670E+01 -0.28757487704E+03  0.30695584559E+03  0.41800000000E+01 0.  1.
        -11    1    4    4    0    0 -0.80084620366E+02  0.20075091809E+02 -0.34555031664E+03  0.35527676122E+03  0.00000000000E+00 0.  1.
         11    1    4    4    0    0 -0.39426985045E+02  0.32662435218E+02 -0.52241436804E+02  0.73147040565E+02  0.00000000000E+00 0. -1.
</event>
<event>
 8    1  0.6635152E-009  0.1104175E+03  0.7561462E-02  0.1259799E+00
          2   -1    0    0  501    0  0.00000000000E+00  0.00000000000E+00  0.92250074630E+03  0.92250074630E+03  0.00000000000E+00 0. -1.
         -2   -1    0    0    0  501 -0.00000000000E+00 -0.00000000000E+00 -0.16746167496E+02  0.16746167496E+02  0.00000000000E+00 0.  1.
         25    2    1    2    0    0 -0.79158117357E+01  0.46238069861E+02  0.64745317568E+03  0.66109276891E+03  0.12508962876E+03 0.  0.
         23    2    1    2    0    0  0.79158117357E+01 -0.46238069861E+02  0.25830140312E+03  0.27815414489E+03  0.91921130773E+02 0.  0.
          5    1    3    3  502    0 -0.56149910094E+02  0.94049188139E+01  0.47101833999E+03  0.47446497649E+03  0.41800000000E+01 0. -1.
         -5    1    3    3    0  502  0.48234098358E+02  0.36833151047E+02  0.17643483569E+03  0.18662779242E+03  0.41800000000E+01 0. -1.
        -11    1    4    4    0    0 -0.16014498559E+02  0.23921903099E+02  0.63316422507E+02  0.69553511565E+02  0.00000000000E+00 0.  1.
         11    1    4    4    0    0  0.23930310294E+02 -0.70159972960E+02  0.19498498062E+03  0.20860063332E+03  0.00000000000E+00 0. -1.
</event>
<event>
 8    1  0.6635152E-009  0.8571140E+02  0.7561462E-02  0.1313583E+00
         -2   -1    0    0    0  501 -0.00000000000E+00  0.00000000000E+00  0.14202924819E+02  0.14202924819E+02  0.00000000000E+00 0.  1.
          2   -1    0    0  501    0  0.00000000000E+00 -0.00000000000E+00 -0.92640022176E+03  0.92640022176E+03  0.00000000000E+00 0. -1.
         25    2    1    2    0    0 -0.23507718236E+02 -0.30631763081E+02 -0.53757759905E+03  0.55328015729E+03  0.12505334749E+03 0.  0.
         23    2    1    2    0    0  0.23507718236E+02  0.30631763081E+02 -0.37461969789E+03  0.38732298929E+03  0.90489017351E+02 0.  0.
          5    1    3    3  502    0  0.14627549454E+02 -0.31250247415E+02 -0.49398899170E+03  0.49521019728E+03  0.41800000000E+01 0. -1.
         -5    1    3    3    0  502 -0.38135267691E+02  0.61848433444E+00 -0.43588607356E+02  0.58069960013E+02  0.41800000000E+01 0. -1.
        -11    1    4    4    0    0 -0.14362080806E+02  0.52594352635E+02 -0.19973513887E+03  0.20704241351E+03  0.00000000000E+00 0.  1.
         11    1    4    4    0    0  0.37869799043E+02 -0.21962589554E+02 -0.17488455902E+03  0.18028057578E+03  0.00000000000E+00 0. -1.
</event>
<event>
 8    1  0.6635152E-009  0.8134889E+02  0.7561462E-02  0.1325266E+00
          3   -1    0    0  501    0  0.00000000000E+00  0.00000000000E+00  0.79730310882E+02  0.79730310882E+02  0.00000000000E+00 0. -1.
         -3   -1    0    0    0  501 -0.00000000000E+00 -0.00000000000E+00 -0.16450034635E+03  0.16450034635E+03  0.00000000000E+00 0.  1.
         25    2    1    2    0    0 -0.25722619905E+02  0.40237850829E+01 -0.19054752361E+02  0.12918362221E+03  0.12508989023E+03 0.  0.
         23    2    1    2    0    0  0.25722619905E+02 -0.40237850829E+01 -0.65715283108E+02  0.11504703502E+03  0.90771569406E+02 0.  0.
          5    1    3    3  502    0 -0.44458766832E+02 -0.10670604362E+02 -0.63635986049E+02  0.78469451802E+02  0.41800000000E+01 0. -1.
         -5    1    3    3    0  502  0.18736146928E+02  0.14694389444E+02  0.44581233689E+02  0.50714170407E+02  0.41800000000E+01 0. -1.
        -11    1    4    4    0    0  0.17089618992E+02 -0.46356613569E+02 -0.46192248078E+02  0.67636635645E+02  0.00000000000E+00 0. -1.
         11    1    4    4    0    0  0.86330009129E+01  0.42332828486E+02 -0.19523035030E+02  0.47410399378E+02  0.00000000000E+00 0.  1.
</event>
<event>
 8    1  0.6635152E-009  0.1670195E+03  0.7561462E-02  0.1180992E+00
          2   -1    0    0  501    0  0.00000000000E+00  0.00000000000E+00  0.21844800280E+02  0.21844800280E+02  0.00000000000E+00 0. -1.
         -2   -1    0    0    0  501 -0.00000000000E+00 -0.00000000000E+00 -0.12935037515E+04  0.12935037515E+04  0.00000000000E+00 0.  1.
         25    2    1    2    0    0 -0.50767875133E+01 -0.12658328862E+03 -0.60655441428E+03  0.63214273375E+03  0.12508827130E+03 0.  0.
         23    2    1    2    0    0  0.50767875133E+01  0.12658328862E+03 -0.66510453697E+03  0.68320581806E+03  0.91416858436E+02 0.  0.
          5    1    3    3  502    0 -0.91869497686E+01  0.24564270424E+02 -0.10221220848E+03  0.10560592498E+03  0.41800000000E+01 0. -1.
         -5    1    3    3    0  502  0.41101622553E+01 -0.15114755905E+03 -0.50434220580E+03  0.52653680877E+03  0.41800000000E+01 0. -1.
        -11    1    4    4    0    0 -0.20984845956E+02  0.12839276430E+03 -0.55567501610E+03  0.57070113826E+03  0.00000000000E+00 0.  1.
         11    1    4    4    0    0  0.26061633470E+02 -0.18094756784E+01 -0.10942952086E+03  0.11250467980E+03  0.00000000000E+00 0. -1.
</event>
<event>
 8    1  0.6635152E-009  0.1305340E+03  0.7561462E-02  0.1226665E+00
         -1   -1    0    0    0  501 -0.00000000000E+00  0.00000000000E+00  0.43754666772E+02  0.43754666772E+02  0.00000000000E+00 0.  1.
          1   -1    0    0  501    0  0.00000000000E+00 -0.00000000000E+00 -0.45782569274E+03  0.45782569274E+03  0.00000000000E+00 0. -1.
         25    2    1    2    0    0 -0.77368234461E+02 -0.18524924104E+02 -0.14689724082E+03  0.20870005258E+03  0.12509155075E+03 0.  0.
         23    2    1    2    0    0  0.77368234461E+02  0.18524924104E+02 -0.26717378515E+03  0.29288030693E+03  0.89822192139E+02 0.  0.
          5    1    3    3  502    0 -0.10357511182E+03 -0.35947618315E+02 -0.83769173511E+02  0.13803905926E+03  0.41800000000E+01 0. -1.
         -5    1    3    3    0  502  0.26206877362E+02  0.17422694211E+02 -0.63128067304E+02  0.70660993314E+02  0.41800000000E+01 0. -1.
        -11    1    4    4    0    0  0.94753221799E+02  0.29267025025E+02 -0.22977038486E+03  0.25025818978E+03  0.00000000000E+00 0.  1.
         11    1    4    4    0    0 -0.17384987339E+02 -0.10742100920E+02 -0.37403400289E+02  0.42622117147E+02  0.00000000000E+00 0. -1.
</event>
<event>
 8    1  0.6635152E-009  0.7609193E+02  0.7561462E-02  0.1340523E+00
          2   -1    0    0  501    0  0.00000000000E+00  0.00000000000E+00  0.67474433844E+03  0.67474433844E+03  0.00000000000E+00 0. -1.
         -2   -1    0    0    0  501 -0.00000000000E+00 -0.00000000000E+00 -0.18205749764E+02  0.18205749764E+02  0.00000000000E+00 0.  1.
         25    2    1    2    0    0 -0.20678837236E+02 -0.30685353394E+01  0.41709659230E+03  0.43595165105E+03  0.12508894647E+03 0.  0.
         23    2    1    2    0    0  0.20678837236E+02  0.30685353394E+01  0.23944199637E+03  0.25699843715E+03  0.90987344455E+02 0.  0.
          5    1    3    3  502    0 -0.38587904413E+02  0.58745049339E+01  0.41329082727E+03  0.41515095626E+03  0.41800000000E+01 0. -1.
         -5    1    3    3    0  502  0.17909067177E+02 -0.89430402733E+01  0.38057650267E+01  0.20800694794E+02  0.41800000000E+01 0. -1.
        -11    1    4    4    0    0  0.23477789628E+02 -0.41575718888E+02  0.10596358938E+03  0.11622404777E+03  0.00000000000E+00 0.  1.
         11    1    4    4    0    0 -0.27989523920E+01  0.44644254227E+02  0.13347840699E+03  0.14077438937E+03  0.00000000000E+00 0. -1.
</event>
<event>
 8    1  0.6635152E-009  0.7776874E+02  0.7561462E-02  0.1335505E+00
         -1   -1    0    0    0  501 -0.00000000000E+00  0.00000000000E+00  0.63612511164E+02  0.63612511164E+02  0.00000000000E+00 0.  1.
          1   -1    0    0  501    0  0.00000000000E+00 -0.00000000000E+00 -0.31369100363E+03  0.31369100363E+03  0.00000000000E+00 0. -1.
         25    2    1    2    0    0 -0.31570649269E+02 -0.18321239221E+02 -0.26054966527E+02  0.13288681665E+03  0.12509065136E+03 0.  0.
         23    2    1    2    0    0  0.31570649269E+02  0.18321239221E+02 -0.22402352593E+03  0.24441669814E+03  0.90667571131E+02 0.  0.
          5    1    3    3  502    0 -0.37788872870E+02  0.26000044921E+02  0.34445979435E+02  0.57515207971E+02  0.41800000000E+01 0. -1.
         -5    1    3    3    0  502  0.62182236008E+01 -0.44321284142E+02 -0.60500945963E+02  0.75371608681E+02  0.41800000000E+01 0. -1.
        -11    1    4    4    0    0  0.19571092400E+01 -0.17750134216E+02 -0.25017827552E+01  0.18032095226E+02  0.00000000000E+00 0.  1.
         11    1    4    4    0    0  0.29613540029E+02  0.36071373437E+02 -0.22152174318E+03  0.22638460291E+03  0.00000000000E+00 0. -1.
</event>
<event>
 8    1  0.6635152E-009  0.2307252E+03  0.7561462E-02  0.1126130E+00
         -2   -1    0    0    0  501 -0.00000000000E+00  0.00000000000E+00  0.23232727416E+03  0.23232727416E+03  0.00000000000E+00 0.  1.
          2   -1    0    0  501    0  0.00000000000E+00 -0.00000000000E+00 -0.25629070203E+03  0.25629070203E+03  0.00000000000E+00 0. -1.
         25    2    1    2    0    0 -0.20260553557E+03  0.71468550408E+02  0.71569487895E+01  0.24870777411E+03  0.12509028038E+03 0.  0.
         23    2    1    2    0    0  0.20260553557E+03 -0.71468550408E+02 -0.31120376663E+02  0.23991020207E+03  0.10213554950E+03 0.  0.
          5    1    3    3  502    0 -0.16850425840E+03  0.25293111387E+02  0.49234982349E+02  0.17741190059E+03  0.41800000000E+01 0.  1.
         -5    1    3    3    0  502 -0.34101277170E+02  0.46175439022E+02 -0.42078033559E+02  0.71295873525E+02  0.41800000000E+01 0.  1.
        -11    1    4    4    0    0  0.53100450979E+02 -0.64829006827E+02  0.10810338873E+02  0.84494505424E+02  0.00000000000E+00 0.  1.
         11    1    4    4    0    0  0.14950508459E+03 -0.66395435816E+01 -0.41930715536E+02  0.15541569665E+03  0.00000000000E+00 0. -1.
</event>
<event>
 8    1  0.6635152E-009  0.1737647E+03  0.7561462E-02  0.1173978E+00
         -1   -1    0    0    0  501 -0.00000000000E+00  0.00000000000E+00  0.33788541544E+03  0.33788541544E+03  0.00000000000E+00 0.  1.
          1   -1    0    0  501    0  0.00000000000E+00 -0.00000000000E+00 -0.12975102399E+03  0.12975102399E+03  0.00000000000E+00 0. -1.
         25    2    1    2    0    0 -0.62854217649E+02  0.15301326408E+03  0.30301687779E+02  0.20959201406E+03  0.12508760297E+03 0.  0.
         23    2    1    2    0    0  0.62854217649E+02 -0.15301326408E+03  0.17783270367E+03  0.25804442537E+03  0.87170770948E+02 0.  0.
          5    1    3    3  502    0 -0.47591661251E+02  0.54047889045E+02  0.71190524612E+02  0.10134941404E+03  0.41800000000E+01 0.  1.
         -5    1    3    3    0  502 -0.15262556398E+02  0.98965375031E+02 -0.40888836833E+02  0.10824260003E+03  0.41800000000E+01 0.  1.
        -11    1    4    4    0    0  0.73680856360E+02 -0.12447034434E+03  0.10400374279E+03  0.17815306264E+03  0.00000000000E+00 0. -1.
         11    1    4    4    0    0 -0.10826638711E+02 -0.28542919737E+02  0.73828960888E+02  0.79891362729E+02  0.00000000000E+00 0.  1.
</event>
<event>
 8    1  0.6635152E-009  0.1409019E+03  0.7561462E-02  0.1212120E+00
         -1   -1    0    0    0  501 -0.00000000000E+00  0.00000000000E+00  0.13605122213E+03  0.13605122213E+03  0.00000000000E+00 0.  1.
          1   -1    0    0  501    0  0.00000000000E+00 -0.00000000000E+00 -0.18086975554E+03  0.18086975554E+03  0.00000000000E+00 0. -1.
         25    2    1    2    0    0  0.10360703353E+03  0.43654960942E+02 -0.18212102862E+02  0.16917228144E+03  0.12508959632E+03 0.  0.
         23    2    1    2    0    0 -0.10360703353E+03 -0.43654960942E+02 -0.26606430552E+02  0.14774869623E+03  0.92095613791E+02 0.  0.
          5    1    3    3  502    0  0.13008288120E+03  0.28149804808E+02 -0.29185007617E+02  0.13632022800E+03  0.41800000000E+01 0.  1.
         -5    1    3    3    0  502 -0.26475847672E+02  0.15505156134E+02  0.10972904754E+02  0.32852053444E+02  0.41800000000E+01 0.  1.
        -11    1    4    4    0    0 -0.67227137225E+02 -0.97149996991E+01  0.28360570069E+02  0.73608363202E+02  0.00000000000E+00 0.  1.
         11    1    4    4    0    0 -0.36379896303E+02 -0.33939961243E+02 -0.54967000621E+02  0.74140333027E+02  0.00000000000E+00 0. -1.
</event>
<event>
 8    1  0.6635152E-009  0.9662668E+02  0.7561462E-02  0.1287554E+00
          1   -1    0    0  501    0  0.00000000000E+00  0.00000000000E+00  0.35077764165E+03  0.35077764165E+03  0.00000000000E+00 0. -1.
         -1   -1    0    0    0  501 -0.00000000000E+00 -0.00000000000E+00 -0.38049697653E+02  0.38049697653E+02  0.00000000000E+00 0.  1.
         25    2    1    2    0    0 -0.29697706669E+02  0.27126824311E+02  0.20619384889E+03  0.24449684953E+03  0.12507992536E+03 0.  0.
         23    2    1    2    0    0  0.29697706669E+02 -0.27126824311E+02  0.10653409510E+03  0.14433048978E+03  0.88678963018E+02 0.  0.
          5    1    3    3  502    0 -0.77561006478E+01 -0.46794060599E+02  0.43887775633E+02  0.64756856429E+02  0.41800000000E+01 0.  1.
         -5    1    3    3    0  502 -0.21941606021E+02  0.73920884910E+02  0.16230607326E+03  0.17973999310E+03  0.41800000000E+01 0.  1.
        -11    1    4    4    0    0  0.11823861953E+01 -0.37910564008E+02  0.49261447946E+01  0.38247559440E+02  0.00000000000E+00 0.  1.
         11    1    4    4    0    0  0.28515320473E+02  0.10783739697E+02  0.10160795031E+03  0.10608293034E+03  0.00000000000E+00 0. -1.
</event>
<event>
 8    1  0.6635152E-009  0.1064565E+03  0.7561462E-02  0.1267276E+00
          1   -1    0    0  501    0  0.00000000000E+00  0.00000000000E+00  0.53565737250E+03  0.53565737250E+03  0.00000000000E+00 0. -1.
         -1   -1    0    0    0  501 -0.00000000000E+00 -0.00000000000E+00 -0.39288288783E+02  0.39288288783E+02  0.00000000000E+00 0.  1.
         25    2    1    2    0    0  0.13779855457E+02  0.69024973016E+02  0.14013712508E+03  0.20059921797E+03  0.12508917263E+03 0.  0.
         23    2    1    2    0    0 -0.13779855457E+02 -0.69024973016E+02  0.35623195864E+03  0.37434644331E+03  0.90992966463E+02 0.  0.
          5    1    3    3  502    0 -0.27954259231E+01  0.91263943061E+02  0.14570622801E+03  0.17200203194E+03  0.41800000000E+01 0. -1.
         -5    1    3    3    0  502  0.16575281380E+02 -0.22238970045E+02 -0.55691029374E+01  0.28597186034E+02  0.41800000000E+01 0. -1.
        -11    1    4    4    0    0 -0.21584299519E+02  0.23033944911E+01  0.16897124266E+02  0.27508188243E+02  0.00000000000E+00 0.  1.
         11    1    4    4    0    0  0.78044440623E+01 -0.71328367507E+02  0.33933483437E+03  0.34683825507E+03  0.00000000000E+00 0. -1.
</event>
<event>
 8    1  0.6635152E-009  0.9356457E+02  0.7561462E-02  0.1294442E+00
          2   -1    0    0  501    0  0.00000000000E+00  0.00000000000E+00  0.30425506410E+03  0.30425506410E+03  0.00000000000E+00 0. -1.
         -2   -1    0    0    0  501 -0.00000000000E+00 -0.00000000000E+00 -0.50349621148E+02  0.50349621148E+02  0.00000000000E+00 0.  1.
         25    2    1    2    0    0 -0.23880339240E+02 -0.23432280488E+02  0.72065522915E+02  0.14819103359E+03  0.12509116864E+03 0.  0.
         23    2    1    2    0    0  0.23880339240E+02  0.23432280488E+02  0.18183992004E+03  0.20641365166E+03  0.91768713085E+02 0.  0.
          5    1    3    3  502    0 -0.68174861797E+02 -0.18422059811E+02  0.96809527603E+01  0.71402922315E+02  0.41800000000E+01 0.  1.
         -5    1    3    3    0  502  0.44294522557E+02 -0.50102206771E+01  0.62384570154E+02  0.76788111274E+02  0.41800000000E+01 0.  1.
        -11    1    4    4    0    0  0.24142109210E+02  0.44455652994E+02  0.17798955770E+03  0.18503899365E+03  0.00000000000E+00 0. -1.
         11    1    4    4    0    0 -0.26176996998E+00 -0.21023372506E+02  0.38503623392E+01  0.21374658013E+02  0.00000000000E+00 0.  1.
</event>
<event>
 8    1  0.6635152E-009  0.9061441E+02  0.7561462E-02  0.1301371E+00
          2   -1    0    0  501    0  0.00000000000E+00  0.00000000000E+00  0.31096471164E+02  0.31096471164E+02  0.00000000000E+00 0. -1.
         -2   -1    0    0    0  501 -0.00000000000E+00 -0.00000000000E+00 -0.58922068405E+03  0.58922068405E+03  0.00000000000E+00 0.  1.
         25    2    1    2    0    0  0.29582180605E+02 -0.42694299006E+02 -0.44568379583E+03  0.46580983397E+03  0.12508735742E+03 0.  0.
         23    2    1    2    0    0 -0.29582180605E+02  0.42694299006E+02 -0.11244041706E+03  0.15450732124E+03  0.92367507013E+02 0.  0.
          5    1    3    3  502    0  0.45598916474E+02 -0.32459399488E+02 -0.44255268509E+03  0.44609777547E+03  0.41800000000E+01 0. -1.
         -5    1    3    3    0  502 -0.16016735869E+02 -0.10234899517E+02 -0.31311107371E+01  0.19712058504E+02  0.41800000000E+01 0. -1.
        -11    1    4    4    0    0 -0.19222100767E+02  0.72017970709E+02 -0.84759245551E+02  0.11287252531E+03  0.00000000000E+00 0.  1.
         11    1    4    4    0    0 -0.10360079838E+02 -0.29323671703E+02 -0.27681171512E+02  0.41634795936E+02  0.00000000000E+00 0. -1.
</event>
<event>
 8    1  0.6635152E-009  0.1104277E+03  0.7561462E-02  0.1259780E+00
          2   -1    0    0  501    0  0.00000000000E+00  0.00000000000E+00  0.62350161284E+02  0.62350161284E+02  0.00000000000E+00 0. -1.
         -2   -1    0    0    0  501 -0.00000000000E+00 -0.00000000000E+00 -0.22674453310E+03  0.22674453310E+03  0.00000000000E+00 0.  1.
         25    2    1    2    0    0  0.74905763443E+01  0.33827739635E+02 -0.57717657618E+02  0.14205196821E+03  0.12508800490E+03 0.  0.
         23    2    1    2    0    0 -0.74905763443E+01 -0.33827739635E+02 -0.10667671419E+03  0.14704272617E+03  0.95085315714E+02 0.  0.
          5    1    3    3  502    0  0.56299869859E+02  0.43928530957E+02 -0.57907154104E+02  0.92033157474E+02  0.41800000000E+01 0. -1.
         -5    1    3    3    0  502 -0.48809293515E+02 -0.10100791322E+02  0.18949648582E+00  0.50018810738E+02  0.41800000000E+01 0. -1.
        -11    1    4    4    0    0  0.26587027490E+02  0.21589108030E+02 -0.50898865897E+02  0.61348628068E+02  0.00000000000E+00 0.  1.
         11    1    4    4    0    0 -0.34077603834E+02 -0.55416847665E+02 -0.55777848297E+02  0.85694098098E+02  0.00000000000E+00 0. -1.
</event>
<event>
 8    1  0.6635152E-009  0.1367850E+03  0.7561462E-02  0.1217722E+00
         -1   -1    0    0    0  501 -0.00000000000E+00  0.00000000000E+00  0.35136313119E+03  0.35136313119E+03  0.00000000000E+00 0. -1.
          1   -1    0    0  501    0  0.00000000000E+00 -0.00000000000E+00 -0.10472983573E+03  0.10472983573E+03  0.00000000000E+00 0.  1.
         25    2    1    2    0    0  0.33589540813E+02  0.12877198581E+03  0.28825388464E+02  0.18490315423E+03  0.12509113414E+03 0.  0.
         23    2    1    2    0    0 -0.33589540813E+02 -0.12877198581E+03  0.21780790699E+03  0.27118981270E+03  0.91614128711E+02 0.  0.
          5    1    3    3  502    0  0.34849544434E+02  0.12352189174E+03  0.67884809546E+02  0.14525139674E+03  0.41800000000E+01 0. -1.
         -5    1    3    3    0  502 -0.12600036205E+01  0.52500940673E+01 -0.39059421082E+02  0.39651757490E+02  0.41800000000E+01 0. -1.
        -11    1    4    4    0    0 -0.20975058927E+02 -0.20512298049E+02  0.19821546290E+01  0.29404700393E+02  0.00000000000E+00 0.  1.
         11    1    4    4    0    0 -0.12614481886E+02 -0.10825968776E+03  0.21582575237E+03  0.24178511230E+03  0.00000000000E+00 0. -1.
</event>
<event>
 8    1  0.6635152E-009  0.1380501E+03  0.7561462E-02  0.1215977E+00
         -4   -1    0    0    0  501 -0.00000000000E+00  0.00000000000E+00  0.38263605196E+02  0.38263605196E+02  0.00000000000E+00 0.  1.
          4   -1    0    0  501    0  0.00000000000E+00 -0.00000000000E+00 -0.64209007241E+03  0.64209007241E+03  0.00000000000E+00 0. -1.
         25    2    1    2    0    0 -0.10002871654E+02  0.96232525045E+02 -0.45020321639E+03  0.47716925161E+03  0.12508717884E+03 0.  0.
         23    2    1    2    0    0  0.10002871654E+02 -0.96232525045E+02 -0.15362325082E+03  0.20318442600E+03  0.91230759386E+02 0.  0.
          5    1    3    3  502    0  0.50868943989E+02  0.34506619555E+02 -0.27282825245E+03  0.27969820162E+03  0.41800000000E+01 0. -1.
         -5    1    3    3    0  502 -0.60871815643E+02  0.61725905489E+02 -0.17737496395E+03  0.19747104999E+03  0.41800000000E+01 0. -1.
        -11    1    4    4    0    0 -0.30186997967E+02 -0.87576631485E+01 -0.16097014817E+02  0.35313813106E+02  0.00000000000E+00 0.  1.
         11    1    4    4    0    0  0.40189869620E+02 -0.87474861896E+02 -0.13752623601E+03  0.16787061290E+03  0.00000000000E+00 0. -1.
</event>
<event>
 8    1  0.6635152E-009  0.8409603E+02  0.7561462E-02  0.1317814E+00
          1   -1    0    0  501    0  0.00000000000E+00  0.00000000000E+00  0.14981909604E+04  0.14981909604E+04  0.00000000000E+00 0. -1.
         -1   -1    0    0    0  501 -0.00000000000E+00 -0.00000000000E+00 -0.13487243123E+02  0.13487243123E+02  0.00000000000E+00 0.  1.
         25    2    1    2    0    0 -0.20980875491E+02  0.78902250387E+01  0.12936866572E+04  0.12999182454E+04  0.12513922229E+03 0.  0.
         23    2    1    2    0    0  0.20980875491E+02 -0.78902250387E+01  0.19101706002E+03  0.21175995805E+03  0.88613259887E+02 0.  0.
          5    1    3    3  502    0 -0.52227150936E+02  0.14994248733E+02  0.25637020415E+03  0.26209856307E+03  0.41800000000E+01 0. -1.
         -5    1    3    3    0  502  0.31246275445E+02 -0.71040236943E+01  0.10373164531E+04  0.10378196824E+04  0.41800000000E+01 0. -1.
        -11    1    4    4    0    0 -0.22330560481E+02 -0.26140495769E+02  0.36019953088E+02  0.49793739274E+02  0.00000000000E+00 0.  1.
         11    1    4    4    0    0  0.43311435972E+02  0.18250270731E+02  0.15499710693E+03  0.16196621878E+03  0.00000000000E+00 0. -1.
</event>
<event>
 8    1  0.6635152E-009  0.9682691E+02  0.7561462E-02  0.1287114E+00
          1   -1    0    0  501    0  0.00000000000E+00  0.00000000000E+00  0.32759069385E+03  0.32759069385E+03  0.00000000000E+00 0. -1.
         -1   -1    0    0    0  501 -0.00000000000E+00 -0.00000000000E+00 -0.40756687667E+02  0.40756687667E+02  0.00000000000E+00 0.  1.
         25    2    1    2    0    0  0.17461055247E+02 -0.21407986507E+02  0.11735167753E+03  0.17372914283E+03  0.12508880251E+03 0.  0.
         23    2    1    2    0    0 -0.17461055247E+02  0.21407986507E+02  0.16948232865E+03  0.19461823869E+03  0.91590440373E+02 0.  0.
          5    1    3    3  502    0  0.48467351911E+02  0.15973362006E+02  0.11387731830E+03  0.12485891446E+03  0.41800000000E+01 0.  1.
         -5    1    3    3    0  502 -0.31006296664E+02 -0.37381348513E+02  0.34743592291E+01  0.48870228376E+02  0.41800000000E+01 0.  1.
        -11    1    4    4    0    0  0.16005615046E+02  0.48229697726E+02  0.11115579505E+03  0.12222067840E+03  0.00000000000E+00 0.  1.
         11    1    4    4    0    0 -0.33466670293E+02 -0.26821711219E+02  0.58326533599E+02  0.72397560283E+02  0.00000000000E+00 0. -1.
</event>
<event>
 8    1  0.6635152E-009  0.9308386E+02  0.7561462E-02  0.1295551E+00
         -1   -1    0    0    0  501 -0.00000000000E+00  0.00000000000E+00  0.31767656141E+02  0.31767656141E+02  0.00000000000E+00 0.  1.
          1   -1    0    0  501    0  0.00000000000E+00 -0.00000000000E+00 -0.10393553292E+04  0.10393553292E+04  0.00000000000E+00 0. -1.
         25    2    1    2    0    0  0.25783567328E+00  0.54101081150E+02 -0.92713400278E+03  0.93709723093E+03  0.12508704026E+03 0.  0.
         23    2    1    2    0    0 -0.25783567328E+00 -0.54101081150E+02 -0.80453670260E+02  0.13402575439E+03  0.92537107810E+02 0.  0.
          5    1    3    3  502    0 -0.11223545817E+02 -0.10000601116E+02 -0.12114616545E+02  0.19753894234E+02  0.41800000000E+01 0. -1.
         -5    1    3    3    0  502  0.11481381490E+02  0.64101682266E+02 -0.91501938624E+03  0.91734333669E+03  0.41800000000E+01 0. -1.
        -11    1    4    4    0    0 -0.92653999296E+01  0.24499982970E+02 -0.31590228827E+02  0.41037048611E+02  0.00000000000E+00 0. -1.
         11    1    4    4    0    0  0.90075642563E+01 -0.78601064120E+02 -0.48863441433E+02  0.92988705784E+02  0.00000000000E+00 0.  1.
</event>
<event>
 8    1  0.6635152E-009  0.1149727E+03  0.7561462E-02  0.1251629E+00
          1   -1    0    0  501    0  0.00000000000E+00  0.00000000000E+00  0.64914626460E+02  0.64914626460E+02  0.00000000000E+00 0. -1.
         -1   -1    0    0    0  501 -0.00000000000E+00 -0.00000000000E+00 -0.21173572530E+03  0.21173572530E+03  0.00000000000E+00 0.  1.
         25    2    1    2    0    0 -0.27888694914E+02  0.31140061120E+02 -0.10329572064E+03  0.16752909977E+03  0.12509400727E+03 0.  0.
         23    2    1    2    0    0  0.27888694914E+02 -0.31140061120E+02 -0.43525378197E+02  0.10912125199E+03  0.90914830355E+02 0.  0.
          5    1    3    3  502    0  0.39426712633E+02  0.46982404203E+02 -0.37660821261E+02  0.72094533994E+02  0.41800000000E+01 0.  1.
         -5    1    3    3    0  502 -0.67315407547E+02 -0.15842343083E+02 -0.65634899384E+02  0.95434565775E+02  0.41800000000E+01 0.  1.
        -11    1    4    4    0    0  0.60009040798E+02 -0.29897553323E+02 -0.36038476110E+02  0.76116492514E+02  0.00000000000E+00 0. -1.
         11    1    4    4    0    0 -0.32120345884E+02 -0.12425077963E+01 -0.74869020865E+01  0.33004759478E+02  0.00000000000E+00 0.  1.
</event>
<event>
 8    1  0.6635152E-009  0.1135591E+03  0.7561462E-02  0.1254117E+00
         -4   -1    0    0    0  501 -0.00000000000E+00  0.00000000000E+00  0.31776287396E+02  0.31776287396E+02  0.00000000000E+00 0.  1.
          4   -1    0    0  501    0  0.00000000000E+00 -0.00000000000E+00 -0.41529439509E+03  0.41529439509E+03  0.00000000000E+00 0. -1.
         25    2    1    2    0    0 -0.47190472639E-01  0.39755061300E+02 -0.19959443622E+03  0.23888591411E+03  0.12509226141E+03 0.  0.
         23    2    1    2    0    0  0.47190472639E-01 -0.39755061300E+02 -0.18392367147E+03  0.20818476837E+03  0.89064660376E+02 0.  0.
          5    1    3    3  502    0  0.25707199873E+02  0.78667269956E+02 -0.10931152143E+03  0.13717099039E+03  0.41800000000E+01 0.  1.
         -5    1    3    3    0  502 -0.25754390346E+02 -0.38912208656E+02 -0.90282914793E+02  0.10171492372E+03  0.41800000000E+01 0.  1.
        -11    1    4    4    0    0 -0.23640901114E+02 -0.61100753658E+02 -0.11852576196E+03  0.13542728880E+03  0.00000000000E+00 0. -1.
         11    1    4    4    0    0  0.23688091586E+02  0.21345692358E+02 -0.65397909509E+02  0.72757479570E+02  0.00000000000E+00 0.  1.
</event>
<event>
 8    1  0.6635152E-009  0.1259054E+03  0.7561462E-02  0.1233661E+00
          2   -1    0    0  501    0  0.00000000000E+00  0.00000000000E+00  0.47789121417E+03  0.47789121417E+03  0.00000000000E+00 0.  1.
         -2   -1    0    0    0  501 -0.00000000000E+00 -0.00000000000E+00 -0.41166022434E+02  0.41166022434E+02  0.00000000000E+00 0. -1.
         25    2    1    2    0    0  0.79845261692E+02  0.33901317041E+02  0.26198613087E+03  0.30299879762E+03  0.12508786305E+03 0.  0.
         23    2    1    2    0    0 -0.79845261692E+02 -0.33901317041E+02  0.17473906087E+03  0.21605843898E+03  0.92859811268E+02 0.  0.
          5    1    3    3  502    0 -0.22945662973E+02 -0.23838483755E+02  0.44930588971E+02  0.55955401726E+02  0.41800000000E+01 0.  1.
         -5    1    3    3    0  502  0.10279092466E+03  0.57739800796E+02  0.21705554190E+03  0.24704339590E+03  0.41800000000E+01 0.  1.
        -11    1    4    4    0    0 -0.55389325037E+02 -0.47091905227E+02  0.17364512083E+03  0.18825050559E+03  0.00000000000E+00 0.  1.
         11    1    4    4    0    0 -0.24455936656E+02  0.13190588186E+02  0.10939400327E+01  0.27807933386E+02  0.00000000000E+00 0. -1.
</event>
<event>
 8    1  0.6635152E-009  0.1419640E+03  0.7561462E-02  0.1210710E+00
          1   -1    0    0  501    0  0.00000000000E+00  0.00000000000E+00  0.74988469854E+03  0.74988469854E+03  0.00000000000E+00 0. -1.
         -1   -1    0    0    0  501 -0.00000000000E+00 -0.00000000000E+00 -0.29141438454E+02  0.29141438454E+02  0.00000000000E+00 0.  1.
         25    2    1    2    0    0 -0.86046308754E+02 -0.42765086157E+02  0.47181506451E+03  0.49748181635E+03  0.12508350271E+03 0.  0.
         23    2    1    2    0    0  0.86046308754E+02  0.42765086157E+02  0.24892819557E+03  0.28154432065E+03  0.89828381337E+02 0.  0.
          5    1    3    3  502    0  0.58121356933E+01 -0.58906169060E+02  0.12579492719E+03  0.13908829491E+03  0.41800000000E+01 0. -1.
         -5    1    3    3    0  502 -0.91858444447E+02  0.16141082903E+02  0.34602013732E+03  0.35839352143E+03  0.41800000000E+01 0. -1.
        -11    1    4    4    0    0  0.86109790575E+02 -0.23227078467E+01  0.17236524506E+03  0.19269164152E+03  0.00000000000E+00 0. -1.
         11    1    4    4    0    0 -0.63481821424E-01  0.45087794004E+02  0.76562950511E+02  0.88852679133E+02  0.00000000000E+00 0.  1.
</event>
<event>
 7    1  0.6635152E-009  0.1345908E+03  0.7561462E-02  0.1220798E+00
          2   -1    0    0  501    0  0.00000000000E+00  0.00000000000E+00  0.63529192903E+03  0.63529192903E+03  0.00000000000E+00 0. -1.
         -2   -1    0    0    0  501 -0.00000000000E+00 -0.00000000000E+00 -0.33098925766E+02  0.33098925766E+02  0.00000000000E+00 0.  1.
         25    2    1    2    0    0 -0.30300735416E+02  0.55016170801E+02  0.31124825974E+03  0.34128116147E+03  0.12510970533E+03 0.  0.
          5    1    3    3  502    0 -0.65162571213E+02  0.12026195619E+02  0.24980919129E+03  0.25848190366E+03  0.41800000000E+01 0. -1.
         -5    1    3    3    0  502  0.34861835797E+02  0.42989975183E+02  0.61439068446E+02  0.82799257804E+02  0.41800000000E+01 0. -1.
        -11    1    1    2    0    0 -0.44751122033E+02  0.12355672194E+02  0.11948205076E+03  0.12818457791E+03  0.00000000000E+00 0. -1.
         11    1    1    2    0    0  0.75051857449E+02 -0.67371842996E+02  0.17146269276E+03  0.19892511542E+03  0.00000000000E+00 0.  1.
</event>
<event>
 8    1  0.6635152E-009  0.9973741E+02  0.7561462E-02  0.1280849E+00
         -1   -1    0    0    0  501 -0.00000000000E+00  0.00000000000E+00  0.16642258323E+03  0.16642258323E+03  0.00000000000E+00 0.  1.
          1   -1    0    0  501    0  0.00000000000E+00 -0.00000000000E+00 -0.81812747951E+02  0.81812747951E+02  0.00000000000E+00 0. -1.
         25    2    1    2    0    0  0.24461349702E+02  0.12648170622E+02  0.18658616986E+02  0.12944352772E+03  0.12509655883E+03 0.  0.
         23    2    1    2    0    0 -0.24461349702E+02 -0.12648170622E+02  0.65951218293E+02  0.11879180346E+03  0.94887277994E+02 0.  0.
          5    1    3    3  502    0  0.64675575350E+02 -0.17161083253E+02  0.36254693370E+02  0.76218816684E+02  0.41800000000E+01 0.  1.
         -5    1    3    3    0  502 -0.40214225648E+02  0.29809253875E+02 -0.17596076385E+02  0.53224711039E+02  0.41800000000E+01 0.  1.
        -11    1    4    4    0    0 -0.19720277808E+02  0.31843488054E+02 -0.19140763284E+01  0.37504143457E+02  0.00000000000E+00 0.  1.
         11    1    4    4    0    0 -0.47410718947E+01 -0.44491658676E+02  0.67865294621E+02  0.81287660001E+02  0.00000000000E+00 0. -1.
</event>
<event>
 8    1  0.6635152E-009  0.1129884E+03  0.7561462E-02  0.1255134E+00
         -2   -1    0    0    0  501 -0.00000000000E+00  0.00000000000E+00  0.30221795992E+02  0.30221795992E+02  0.00000000000E+00 0.  1.
          2   -1    0    0  501    0  0.00000000000E+00 -0.00000000000E+00 -0.48343362228E+03  0.48343362228E+03  0.00000000000E+00 0. -1.
         25    2    1    2    0    0  0.41865070489E+02  0.98115107981E+01 -0.34189141054E+03  0.36658801208E+03  0.12509230243E+03 0.  0.
         23    2    1    2    0    0 -0.41865070489E+02 -0.98115107981E+01 -0.11132041574E+03  0.14706740619E+03  0.85951364912E+02 0.  0.
          5    1    3    3  502    0 -0.40991189666E+02  0.23198389680E+02 -0.14492903136E+03  0.15244782532E+03  0.41800000000E+01 0.  1.
         -5    1    3    3    0  502  0.82856260154E+02 -0.13386878882E+02 -0.19696237918E+03  0.21414018676E+03  0.41800000000E+01 0.  1.
        -11    1    4    4    0    0  0.19996746360E+02 -0.23949141597E+02 -0.25271344183E+02  0.40150617492E+02  0.00000000000E+00 0.  1.
         11    1    4    4    0    0 -0.61861816849E+02  0.14137630798E+02 -0.86049071562E+02  0.10691678870E+03  0.00000000000E+00 0. -1.
</event>
<event>
 8    1  0.6635152E-009  0.8321946E+02  0.7561462E-02  0.1320156E+00
         -2   -1    0    0    0  501 -0.00000000000E+00  0.00000000000E+00  0.88729991472E+02  0.88729991472E+02  0.00000000000E+00 0.  1.
          2   -1    0    0  501    0  0.00000000000E+00 -0.00000000000E+00 -0.19209974024E+03  0.19209974024E+03  0.00000000000E+00 0. -1.
         25    2    1    2    0    0  0.33844257765E+02 -0.56619656966E+02 -0.25381364860E+02  0.14367515567E+03  0.12508843806E+03 0.  0.
         23    2    1    2    0    0 -0.33844257765E+02  0.56619656966E+02 -0.77988383908E+02  0.13715457604E+03  0.91531253493E+02 0.  0.
          5    1    3    3  502    0 -0.26018676228E+01  0.95225561681E+01 -0.59674218646E+02  0.60629477667E+02  0.41800000000E+01 0.  1.
         -5    1    3    3    0  502  0.36446125388E+02 -0.66142213134E+02  0.34292853787E+02  0.83045678003E+02  0.41800000000E+01 0.  1.
        -11    1    4    4    0    0 -0.24905901992E+02  0.63883330442E+02 -0.11315349077E+02  0.69494035622E+02  0.00000000000E+00 0.  1.
         11    1    4    4    0    0 -0.89383557731E+01 -0.72636734754E+01 -0.66673034831E+02  0.67660540420E+02  0.00000000000E+00 0. -1.
</event>
<event>
 8    1  0.6635152E-009  0.1506537E+03  0.7561462E-02  0.1199672E+00
         -1   -1    0    0    0  501 -0.00000000000E+00  0.00000000000E+00  0.12316918170E+03  0.12316918170E+03  0.00000000000E+00 0.  1.
          1   -1    0    0  501    0  0.00000000000E+00 -0.00000000000E+00 -0.21633800205E+03  0.21633800205E+03  0.00000000000E+00 0. -1.
         25    2    1    2    0    0  0.47178428076E+02  0.10409953422E+03 -0.13448516393E+02  0.16997363570E+03  0.12509059573E+03 0.  0.
         23    2    1    2    0    0 -0.47178428076E+02 -0.10409953422E+03 -0.79720303963E+02  0.16953354805E+03  0.96559722198E+02 0.  0.
          5    1    3    3  502    0 -0.19858182115E+02 -0.79734981285E+01  0.25578820536E+02  0.33610601442E+02  0.41800000000E+01 0.  1.
         -5    1    3    3    0  502  0.67036610191E+02  0.11207303235E+03 -0.39027336928E+02  0.13636303426E+03  0.41800000000E+01 0.  1.
        -11    1    4    4    0    0 -0.65202741794E+02 -0.28557672620E+02 -0.29530570292E+02  0.77064860895E+02  0.00000000000E+00 0.  1.
         11    1    4    4    0    0  0.18024313718E+02 -0.75541861597E+02 -0.50189733671E+02  0.92468687157E+02  0.00000000000E+00 0. -1.
</event>
<event>
 8    1  0.6635152E-009  0.9853707E+02  0.7561462E-02  0.1283403E+00
         -3   -1    0    0    0  501 -0.00000000000E+00  0.00000000000E+00  0.48694139640E+03  0.48694139640E+03  0.00000000000E+00 0.  1.
          3   -1    0    0  501    0  0.00000000000E+00 -0.00000000000E+00 -0.28805951845E+02  0.28805951845E+02  0.00000000000E+00 0. -1.
         25    2    1    2    0    0  0.28049665761E+02  0.24697444088E+02  0.19409530363E+03  0.23391901858E+03  0.12509345654E+03 0.  0.
         23    2    1    2    0    0 -0.28049665761E+02 -0.24697444088E+02  0.26404014093E+03  0.28182832967E+03  0.91177101771E+02 0.  0.
          5    1    3    3  502    0  0.58575795290E+02 -0.85178877361E+01  0.17494115976E+03  0.18473104770E+03  0.41800000000E+01 0.  1.
         -5    1    3    3    0  502 -0.30526129529E+02  0.33215331824E+02  0.19154143870E+02  0.49187970883E+02  0.41800000000E+01 0.  1.
        -11    1    4    4    0    0 -0.58514456862E+02 -0.18200094485E+02  0.12337579627E+03  0.13775620569E+03  0.00000000000E+00 0. -1.
         11    1    4    4    0    0  0.30464791101E+02 -0.64973496033E+01  0.14066434465E+03  0.14407212397E+03  0.00000000000E+00 0.  1.
</event>
<event>
 8    1  0.6635152E-009  0.1111807E+03  0.7561462E-02  0.1258399E+00
         -1   -1    0    0    0  501 -0.00000000000E+00  0.00000000000E+00  0.75265528590E+02  0.75265528590E+02  0.00000000000E+00 0.  1.
          1   -1    0    0  501    0  0.00000000000E+00 -0.00000000000E+00 -0.26148797557E+03  0.26148797557E+03  0.00000000000E+00 0. -1.
         25    2    1    2    0    0 -0.12545492024E+02 -0.61241003914E+02 -0.17783112189E+03  0.22622872913E+03  0.12509068727E+03 0.  0.
         23    2    1    2    0    0  0.12545492024E+02  0.61241003914E+02 -0.83913250899E+01  0.11052477503E+03  0.90760462913E+02 0.  0.
          5    1    3    3  502    0  0.29476585033E+02 -0.82937248267E+02 -0.14043859557E+03  0.16579483629E+03  0.41800000000E+01 0. -1.
         -5    1    3    3    0  502 -0.42022077057E+02  0.21696244353E+02 -0.37392526324E+02  0.60433892843E+02  0.41800000000E+01 0. -1.
        -11    1    4    4    0    0  0.31784447659E+02  0.59488365045E+02  0.25013500395E+02  0.71936026376E+02  0.00000000000E+00 0.  1.
         11    1    4    4    0    0 -0.19238955635E+02  0.17526388682E+01 -0.33404825485E+02  0.38588748653E+02  0.00000000000E+00 0. -1.
</event>
<event>
 8    1  0.6635152E-009  0.1617487E+03  0.7561462E-02  0.1186737E+00
         -1   -1    0    0    0  501 -0.00000000000E+00  0.00000000000E+00  0.92216694829E+02  0.92216694829E+02  0.00000000000E+00 0.  1.
          1   -1    0    0  501    0  0.00000000000E+00 -0.00000000000E+00 -0.31308377491E+03  0.31308377491E+03  0.00000000000E+00 0. -1.
         25    2    1    2    0    0  0.70726778496E+02  0.95171490678E+02 -0.56211052167E+02  0.18129389674E+03  0.12509158555E+03 0.  0.
         23    2    1    2    0    0 -0.70726778496E+02 -0.95171490678E+02 -0.16465602791E+03  0.22400657300E+03  0.94907572844E+02 0.  0.
          5    1    3    3  502    0  0.20841645826E+02  0.11562875060E+03 -0.30749788708E+02  0.12152120832E+03  0.41800000000E+01 0. -1.
         -5    1    3    3    0  502  0.49885132670E+02 -0.20457259917E+02 -0.25461263459E+02  0.59772688427E+02  0.41800000000E+01 0. -1.
        -11    1    4    4    0    0 -0.48970509475E+02 -0.11336602656E+03 -0.13223650734E+03  0.18093219904E+03  0.00000000000E+00 0. -1.
         11    1    4    4    0    0 -0.21756269021E+02  0.18194535880E+02 -0.32419520574E+02  0.43074373957E+02  0.00000000000E+00 0.  1.
</event>
<event>
 8    1  0.6635152E-009  0.5605751E+02  0.7561462E-02  0.1415163E+00
          1   -1    0    0  501    0  0.00000000000E+00  0.00000000000E+00  0.34215080587E+03  0.34215080587E+03  0.00000000000E+00 0. -1.
         -1   -1    0    0    0  501 -0.00000000000E+00 -0.00000000000E+00 -0.29694679759E+02  0.29694679759E+02  0.00000000000E+00 0.  1.
         25    2    1    2    0    0  0.20344123900E+02 -0.16229329453E+02  0.21056809601E+03  0.24630066858E+03  0.12509125380E+03 0.  0.
         23    2    1    2    0    0 -0.20344123900E+02  0.16229329453E+02  0.10188803010E+03  0.12554481704E+03  0.68578829797E+02 0.  0.
          5    1    3    3  502    0  0.22913958856E+02  0.72192892618E+01 -0.85772727459E+01  0.25849751559E+02  0.41800000000E+01 0. -1.
         -5    1    3    3    0  502 -0.25698349561E+01 -0.23448618715E+02  0.21914536875E+03  0.22045091702E+03  0.41800000000E+01 0. -1.
        -11    1    4    4    0    0  0.12329226280E+02  0.26744489505E+02  0.17056187671E+02  0.34032206473E+02  0.00000000000E+00 0.  1.
         11    1    4    4    0    0 -0.32673350180E+02 -0.10515160052E+02  0.84831842431E+02  0.91512610569E+02  0.00000000000E+00 0. -1.
</event>
<event>
 8    1  0.6635152E-009  0.1383057E+03  0.7561462E-02  0.1215627E+00
         -3   -1    0    0    0  501 -0.00000000000E+00  0.00000000000E+00  0.23743803452E+03  0.23743803452E+03  0.00000000000E+00 0.  1.
          3   -1    0    0  501    0  0.00000000000E+00 -0.00000000000E+00 -0.84090470660E+02  0.84090470660E+02  0.00000000000E+00 0. -1.
         25    2    1    2    0    0 -0.88669960603E+02 -0.10797739912E+02  0.79488471472E+02  0.17304091276E+03  0.12508312153E+03 0.  0.
         23    2    1    2    0    0  0.88669960603E+02  0.10797739912E+02  0.73859092384E+02  0.14848759242E+03  0.92814042435E+02 0.  0.
          5    1    3    3  502    0 -0.89245660543E+02 -0.55822064678E+02  0.38979825907E+02  0.11232893687E+03  0.41800000000E+01 0.  1.
         -5    1    3    3    0  502  0.57569993960E+00  0.45024324766E+02  0.40508645564E+02  0.60711975890E+02  0.41800000000E+01 0.  1.
        -11    1    4    4    0    0  0.21557844200E+01  0.35895312961E+02  0.78405286124E+01  0.36804820172E+02  0.00000000000E+00 0. -1.
         11    1    4    4    0    0  0.86514176183E+02 -0.25097573048E+02  0.66018563771E+02  0.11168277224E+03  0.00000000000E+00 0.  1.
</event>
<event>
 8    1  0.6635152E-009  0.1772585E+03  0.7561462E-02  0.1170483E+00
         -1   -1    0    0    0  501 -0.00000000000E+00  0.00000000000E+00  0.58146267803E+02  0.58146267803E+02  0.00000000000E+00 0.  1.
          1   -1    0    0  501    0  0.00000000000E+00 -0.00000000000E+00 -0.73700643769E+03  0.73700643769E+03  0.00000000000E+00 0. -1.
         25    2    1    2    0    0  0.14671939488E+03 -0.19305161818E+02 -0.54559236699E+03  0.57898080010E+03  0.12509382823E+03 0.  0.
         23    2    1    2    0    0 -0.14671939488E+03  0.19305161818E+02 -0.13326780290E+03  0.21617190539E+03  0.84087545353E+02 0.  0.
          5    1    3    3  502    0  0.12577047700E+03 -0.60679225900E+02 -0.32888791949E+03  0.35733026366E+03  0.41800000000E+01 0. -1.
         -5    1    3    3    0  502  0.20948917882E+02  0.41374064081E+02 -0.21670444749E+03  0.22165053644E+03  0.41800000000E+01 0. -1.
        -11    1    4    4    0    0 -0.33795144329E+02 -0.29848949441E+02 -0.50947302479E+02  0.68034544114E+02  0.00000000000E+00 0. -1.
         11    1    4    4    0    0 -0.11292425056E+03  0.49154111259E+02 -0.82320500421E+02  0.14813736128E+03  0.00000000000E+00 0.  1.
</event>
<event>
 8    1  0.6635152E-009  0.2564784E+03  0.7561462E-02  0.1109278E+00
         -2   -1    0    0    0  501 -0.00000000000E+00  0.00000000000E+00  0.72419680646E+02  0.72419680646E+02  0.00000000000E+00 0.  1.
          2   -1    0    0  501    0  0.00000000000E+00 -0.00000000000E+00 -0.95658497376E+03  0.95658497376E+03  0.00000000000E+00 0. -1.
         25    2    1    2    0    0  0.20544474694E+02 -0.23806098604E+03 -0.48787352086E+03  0.55746420991E+03  0.12510261573E+03 0.  0.
         23    2    1    2    0    0 -0.20544474694E+02  0.23806098604E+03 -0.39629177225E+03  0.47154044450E+03  0.90598639763E+02 0.  0.
          5    1    3    3  502    0  0.50158303012E+02 -0.45971072177E+02 -0.18910260020E+03  0.20101358322E+03  0.41800000000E+01 0. -1.
         -5    1    3    3    0  502 -0.29613828318E+02 -0.19208991386E+03 -0.29877092066E+03  0.35645062669E+03  0.41800000000E+01 0. -1.
        -11    1    4    4    0    0 -0.49054042457E+02  0.14740928864E+03 -0.28978180345E+03  0.32879977352E+03  0.00000000000E+00 0.  1.
         11    1    4    4    0    0  0.28509567763E+02  0.90651697400E+02 -0.10650996880E+03  0.14274067097E+03  0.00000000000E+00 0. -1.
</event>
<event>
 8    1  0.6635152E-009  0.8465459E+02  0.7561462E-02  0.1316338E+00
         -2   -1    0    0    0  501 -0.00000000000E+00  0.00000000000E+00  0.10124011219E+02  0.10124011219E+02  0.00000000000E+00 0. -1.
          2   -1    0    0  501    0  0.00000000000E+00 -0.00000000000E+00 -0.11834560771E+04  0.11834560771E+04  0.00000000000E+00 0.  1.
         25    2    1    2    0    0  0.26305744703E+01  0.10745637205E+02 -0.76200436289E+03  0.77228304195E+03  0.12509220274E+03 0.  0.
         23    2    1    2    0    0 -0.26305744703E+01 -0.10745637205E+02 -0.41132770302E+03  0.42129704640E+03  0.90434138395E+02 0.  0.
          5    1    3    3  502    0 -0.25932678668E+02 -0.22258862474E+02 -0.62095201585E+02  0.71001741116E+02  0.41800000000E+01 0. -1.
         -5    1    3    3    0  502  0.28563253139E+02  0.33004499679E+02 -0.69990916130E+03  0.70128130084E+03  0.41800000000E+01 0. -1.
        -11    1    4    4    0    0 -0.41394861227E+02  0.15517707292E+02 -0.19110809670E+03  0.19615462880E+03  0.00000000000E+00 0. -1.
         11    1    4    4    0    0  0.38764286756E+02 -0.26263344497E+02 -0.22021960633E+03  0.22514241760E+03  0.00000000000E+00 0.  1.
</event>
<event>
 8    1  0.6635152E-009  0.2680301E+03  0.7561462E-02  0.1102412E+00
         -2   -1    0    0    0  501 -0.00000000000E+00  0.00000000000E+00  0.24084257276E+03  0.24084257276E+03  0.00000000000E+00 0.  1.
          2   -1    0    0  501    0  0.00000000000E+00 -0.00000000000E+00 -0.35370947563E+03  0.35370947563E+03  0.00000000000E+00 0. -1.
         25    2    1    2    0    0  0.22530558679E+03 -0.99141048062E+02 -0.16622564432E+03  0.32227806348E+03  0.12506250645E+03 0.  0.
         23    2    1    2    0    0 -0.22530558679E+03  0.99141048062E+02  0.53358741448E+02  0.27227398491E+03  0.10341379367E+03 0.  0.
          5    1    3    3  502    0  0.15211571199E+03 -0.12646714316E+03 -0.11895476298E+03  0.23086973853E+03  0.41800000000E+01 0.  1.
         -5    1    3    3    0  502  0.73189874799E+02  0.27326095101E+02 -0.47270881336E+02  0.91408324943E+02  0.41800000000E+01 0.  1.
        -11    1    4    4    0    0 -0.12501001195E+03  0.93790783595E+01 -0.52472745571E+01  0.12547112850E+03  0.00000000000E+00 0.  1.
         11    1    4    4    0    0 -0.10029557484E+03  0.89761969703E+02  0.58606016005E+02  0.14680285641E+03  0.00000000000E+00 0. -1.
</event>
<event>
 8    1  0.6635152E-009  0.6022903E+02  0.7561462E-02  0.1396873E+00
          1   -1    0    0  501    0  0.00000000000E+00  0.00000000000E+00  0.36877948760E+03  0.36877948760E+03  0.00000000000E+00 0. -1.
         -1   -1    0    0    0  501 -0.00000000000E+00 -0.00000000000E+00 -0.32585374156E+02  0.32585374156E+02  0.00000000000E+00 0.  1.
         25    2    1    2    0    0 -0.37409021212E+01  0.25468228979E+01  0.16379611960E+03  0.20616336591E+03  0.12511468335E+03 0.  0.
         23    2    1    2    0    0  0.37409021212E+01 -0.25468228979E+01  0.17239799384E+03  0.19520149585E+03  0.91444382254E+02 0.  0.
          5    1    3    3  502    0 -0.13341065329E+02 -0.26618109952E+02  0.17159527014E+03  0.17420940542E+03  0.41800000000E+01 0.  1.
         -5    1    3    3    0  502  0.96001632079E+01  0.29164932850E+02 -0.77991505389E+01  0.31953960489E+02  0.41800000000E+01 0.  1.
        -11    1    4    4    0    0 -0.13360129268E+02 -0.26673061763E+02  0.12090034661E+02  0.32188728088E+02  0.00000000000E+00 0.  1.
         11    1    4    4    0    0  0.17101031389E+02  0.24126238865E+02  0.16030795918E+03  0.16301276776E+03  0.00000000000E+00 0. -1.
</event>
<event>
 8    1  0.6635152E-009  0.8876913E+02  0.7561462E-02  0.1305860E+00
          1   -1    0    0  501    0  0.00000000000E+00  0.00000000000E+00  0.20135811606E+03  0.20135811606E+03  0.00000000000E+00 0. -1.
         -1   -1    0    0    0  501 -0.00000000000E+00 -0.00000000000E+00 -0.64012433472E+02  0.64012433472E+02  0.00000000000E+00 0.  1.
         25    2    1    2    0    0 -0.11053740440E+02  0.17470581668E+02  0.47631820932E+02  0.13543929863E+03  0.12509039470E+03 0.  0.
         23    2    1    2    0    0  0.11053740440E+02 -0.17470581668E+02  0.89713861658E+02  0.12993125090E+03  0.91685040145E+02 0.  0.
          5    1    3    3  502    0  0.38790224776E+02  0.12240767384E+02 -0.24378553445E+02  0.47605715964E+02  0.41800000000E+01 0.  1.
         -5    1    3    3    0  502 -0.49843965216E+02  0.52298142835E+01  0.72010374377E+02  0.87833582666E+02  0.41800000000E+01 0.  1.
        -11    1    4    4    0    0  0.23749089581E+01  0.34038664789E+02  0.11753223946E+02  0.36088906416E+02  0.00000000000E+00 0.  1.
         11    1    4    4    0    0  0.86788314821E+01 -0.51509246457E+02  0.77960637712E+02  0.93842344487E+02  0.00000000000E+00 0. -1.
</event>
<event>
 8    1  0.6635152E-009  0.2188655E+03  0.7561462E-02  0.1134732E+00
         -3   -1    0    0    0  501 -0.00000000000E+00  0.00000000000E+00  0.60809822640E+03  0.60809822640E+03  0.00000000000E+00 0.  1.
          3   -1    0    0  501    0  0.00000000000E+00 -0.00000000000E+00 -0.11455661541E+03  0.11455661541E+03  0.00000000000E+00 0. -1.
         25    2    1    2    0    0 -0.18395622419E+03 -0.11343017580E+03  0.10917382459E+03  0.27253031587E+03  0.12509017503E+03 0.  0.
         23    2    1    2    0    0  0.18395622419E+03  0.11343017580E+03  0.38436778640E+03  0.45012452594E+03  0.90372542465E+02 0.  0.
          5    1    3    3  502    0 -0.20790740312E+02  0.13661865967E+01  0.64683168801E+02  0.68084550925E+02  0.41800000000E+01 0. -1.
         -5    1    3    3    0  502 -0.16316548388E+03 -0.11479636240E+03  0.44490655790E+02  0.20444576494E+03  0.41800000000E+01 0. -1.
        -11    1    4    4    0    0  0.16402114737E+03  0.93758916085E+02  0.25273309678E+03  0.31554348248E+03  0.00000000000E+00 0. -1.
         11    1    4    4    0    0  0.19935076818E+02  0.19671259720E+02  0.13163468962E+03  0.13458104346E+03  0.00000000000E+00 0.  1.
</event>
<event>
 8    1  0.6635152E-009  0.1501441E+03  0.7561462E-02  0.1200296E+00
          2   -1    0    0  501    0  0.00000000000E+00  0.00000000000E+00  0.25670252433E+02  0.25670252433E+02  0.00000000000E+00 0.  1.
         -2   -1    0    0    0  501 -0.00000000000E+00 -0.00000000000E+00 -0.12475693510E+04  0.12475693510E+04  0.00000000000E+00 0. -1.
         25    2    1    2    0    0  0.69659313153E+02 -0.11474048474E+03 -0.46512148304E+03  0.50000093730E+03  0.12508055232E+03 0.  0.
         23    2    1    2    0    0 -0.69659313153E+02  0.11474048474E+03 -0.75677761555E+03  0.77323866616E+03  0.84663313755E+02 0.  0.
          5    1    3    3  502    0  0.17149293156E+01 -0.48178454721E+02 -0.35652721913E+02  0.60105685768E+02  0.41800000000E+01 0.  1.
         -5    1    3    3    0  502  0.67944383838E+02 -0.66562030016E+02 -0.42946876113E+03  0.43989525153E+03  0.41800000000E+01 0.  1.
        -11    1    4    4    0    0  0.15584864071E+01  0.75232791430E+02 -0.30253586620E+03  0.31175367219E+03  0.00000000000E+00 0.  1.
         11    1    4    4    0    0 -0.71217799560E+02  0.39507693307E+02 -0.45424174935E+03  0.46148499397E+03  0.00000000000E+00 0. -1.
</event>
<event>
 8    1  0.6635152E-009  0.1082000E+03  0.7561462E-02  0.1263940E+00
          1   -1    0    0  501    0  0.00000000000E+00  0.00000000000E+00  0.65974298412E+03  0.65974298412E+03  0.00000000000E+00 0. -1.
         -1   -1    0    0    0  501 -0.00000000000E+00 -0.00000000000E+00 -0.31325557060E+02  0.31325557060E+02  0.00000000000E+00 0.  1.
         25    2    1    2    0    0  0.53953103013E+02  0.24765192439E+01  0.15813444945E+03  0.20873822588E+03  0.12509225544E+03 0.  0.
         23    2    1    2    0    0 -0.53953103013E+02 -0.24765192439E+01  0.47028297762E+03  0.48233031530E+03  0.92516936546E+02 0.  0.
          5    1    3    3  502    0  0.59138501350E+02 -0.38442757811E+02  0.35080117501E+02  0.78887863540E+02  0.41800000000E+01 0. -1.
         -5    1    3    3    0  502 -0.51853983369E+01  0.40919277054E+02  0.12305433194E+03  0.12985036234E+03  0.41800000000E+01 0. -1.
        -11    1    4    4    0    0 -0.65011169103E+01  0.40043567054E+02  0.23958839934E+03  0.24299866848E+03  0.00000000000E+00 0. -1.
         11    1    4    4    0    0 -0.47451986102E+02 -0.42520086298E+02  0.23069457828E+03  0.23933164682E+03  0.00000000000E+00 0.  1.
</event>
<event>
 8    1  0.6635152E-009  0.1681445E+03  0.7561462E-02  0.1179797E+00
         -2   -1    0    0    0  501 -0.00000000000E+00  0.00000000000E+00  0.23063768136E+02  0.23063768136E+02  0.00000000000E+00 0.  1.
          2   -1    0    0  501    0  0.00000000000E+00 -0.00000000000E+00 -0.25150285227E+04  0.25150285227E+04  0.00000000000E+00 0. -1.
         25    2    1    2    0    0  0.67157675479E+02  0.11021048269E+03 -0.21856042818E+04  0.21929820307E+04  0.12509039277E+03 0.  0.
         23    2    1    2    0    0 -0.67157675479E+02 -0.11021048269E+03 -0.30636047276E+03  0.34511026016E+03  0.92670645446E+02 0.  0.
          5    1    3    3  502    0 -0.37172733408E+02  0.32847170837E+02 -0.60381998747E+03  0.60586863131E+03  0.41800000000E+01 0. -1.
         -5    1    3    3    0  502  0.10433040889E+03  0.77363311849E+02 -0.15817842944E+04  0.15871133994E+04  0.41800000000E+01 0. -1.
        -11    1    4    4    0    0 -0.36709422827E+01 -0.89791163955E+02 -0.20431806449E+03  0.22320797570E+03  0.00000000000E+00 0.  1.
         11    1    4    4    0    0 -0.63486733196E+02 -0.20419318732E+02 -0.10204240827E+03  0.12190228445E+03  0.00000000000E+00 0. -1.
</event>
<event>
 8    1  0.6635152E-009  0.2899312E+03  0.7561462E-02  0.1090385E+00
          1   -1    0    0  501    0  0.00000000000E+00  0.00000000000E+00  0.34141525301E+03  0.34141525301E+03  0.00000000000E+00 0. -1.
         -1   -1    0    0    0  501 -0.00000000000E+00 -0.00000000000E+00 -0.26525289521E+03  0.26525289521E+03  0.00000000000E+00 0.  1.
         25    2    1    2    0    0 -0.14847160878E+03 -0.22571075007E+03 -0.37598565247E+02  0.30007716971E+03  0.12507395556E+03 0.  0.
         23    2    1    2    0    0  0.14847160878E+03  0.22571075007E+03  0.11376092305E+03  0.30659097851E+03  0.89818256396E+02 0.  0.
          5    1    3    3  502    0 -0.53288446996E+02 -0.18406841941E+03 -0.74517940446E+01  0.19181721310E+03  0.41800000000E+01 0. -1.
         -5    1    3    3    0  502 -0.95183161784E+02 -0.41642330657E+02 -0.30146771202E+02  0.10825995660E+03  0.41800000000E+01 0. -1.
        -11    1    4    4    0    0  0.11900284572E+03  0.10105689153E+03  0.71436904332E+02  0.17168984803E+03  0.00000000000E+00 0.  1.
         11    1    4    4    0    0  0.29468763054E+02  0.12465385854E+03  0.42324018718E+02  0.13490113048E+03  0.00000000000E+00 0. -1.
</event>
<event>
 8    1  0.6635152E-009  0.1053003E+03  0.7561462E-02  0.1269529E+00
          1   -1    0    0  501    0  0.00000000000E+00  0.00000000000E+00  0.15653667232E+03  0.15653667232E+03  0.00000000000E+00 0. -1.
         -1   -1    0    0    0  501 -0.00000000000E+00 -0.00000000000E+00 -0.93633551512E+02  0.93633551512E+02  0.00000000000E+00 0.  1.
         25    2    1    2    0    0  0.41506676387E+02  0.25271368627E+02  0.53823073212E+02  0.14458922244E+03  0.12509066224E+03 0.  0.
         23    2    1    2    0    0 -0.41506676387E+02 -0.25271368627E+02  0.90800475939E+01  0.10558100139E+03  0.93292305860E+02 0.  0.
          5    1    3    3  502    0 -0.42937320243E+01  0.62464358782E+02 -0.26553837137E+01  0.62807290304E+02  0.41800000000E+01 0.  1.
         -5    1    3    3    0  502  0.45800408412E+02 -0.37192990155E+02  0.56478456926E+02  0.81781932137E+02  0.41800000000E+01 0.  1.
        -11    1    4    4    0    0 -0.56320669434E+02  0.34064189645E+01 -0.22199338365E+02  0.60633589037E+02  0.00000000000E+00 0.  1.
         11    1    4    4    0    0  0.14813993046E+02 -0.28677787591E+02  0.31279385959E+02  0.44947412351E+02  0.00000000000E+00 0. -1.
</event>
<event>
 8    1  0.6635152E-009  0.1011104E+03  0.7561462E-02  0.1277978E+00
          4   -1    0    0  501    0  0.00000000000E+00  0.00000000000E+00  0.55734078770E+02  0.55734078770E+02  0.00000000000E+00 0. -1.
         -4   -1    0    0    0  501 -0.00000000000E+00 -0.00000000000E+00 -0.36967530285E+03  0.36967530285E+03  0.00000000000E+00 0.  1.
         25    2    1    2    0    0  0.80468459111E+02  0.47123589743E+00 -0.24353862577E+03  0.28536627544E+03  0.12508978354E+03 0.  0.
         23    2    1    2    0    0 -0.80468459111E+02 -0.47123589743E+00 -0.70402598313E+02  0.14004310618E+03  0.90444185903E+02 0.  0.
          5    1    3    3  502    0  0.20558469962E+02  0.71184645650E+01 -0.21905410535E+03  0.22017151654E+03  0.41800000000E+01 0. -1.
         -5    1    3    3    0  502  0.59909989149E+02 -0.66472286676E+01 -0.24484520422E+02  0.65194758908E+02  0.41800000000E+01 0. -1.
        -11    1    4    4    0    0 -0.93867191955E+02  0.19231981102E+02 -0.47305357279E+02  0.10685839064E+03  0.00000000000E+00 0. -1.
         11    1    4    4    0    0  0.13398732844E+02 -0.19703217000E+02 -0.23097241034E+02  0.33184715538E+02  0.00000000000E+00 0.  1.
</event>
<event>
 8    1  0.6635152E-009  0.4357467E+02  0.7561462E-02  0.1483441E+00
         -2   -1    0    0    0  501 -0.00000000000E+00  0.00000000000E+00  0.14917788771E+03  0.14917788771E+03  0.00000000000E+00 0.  1.
          2   -1    0    0  501    0  0.00000000000E+00 -0.00000000000E+00 -0.11344836643E+03  0.11344836643E+03  0.00000000000E+00 0. -1.
         25    2    1    2    0    0  0.12277257416E+02 -0.16120286783E+01  0.89703831945E+02  0.15442282324E+03  0.12508517572E+03 0.  0.
         23    2    1    2    0    0 -0.12277257416E+02  0.16120286783E+01 -0.53974310664E+02  0.10820343090E+03  0.92959273670E+02 0.  0.
          5    1    3    3  502    0  0.41985831844E+01 -0.10914228788E+02  0.12042325971E+03  0.12106189479E+03  0.41800000000E+01 0.  1.
         -5    1    3    3    0  502  0.80786742316E+01  0.93022001092E+01 -0.30719427769E+02  0.33360928445E+02  0.41800000000E+01 0.  1.
        -11    1    4    4    0    0 -0.23856048233E+02  0.25656185856E+02  0.12003413184E+02  0.37032861597E+02  0.00000000000E+00 0.  1.
         11    1    4    4    0    0  0.11578790817E+02 -0.24044157178E+02 -0.65977723847E+02  0.71170569305E+02  0.00000000000E+00 0. -1.
</event>
<event>
 8    1  0.6635152E-009  0.1836340E+03  0.7561462E-02  0.1164332E+00
         -2   -1    0    0    0  501 -0.00000000000E+00  0.00000000000E+00  0.22663755284E+02  0.22663755284E+02  0.00000000000E+00 0.  1.
          2   -1    0    0  501    0  0.00000000000E+00 -0.00000000000E+00 -0.15636474058E+04  0.15636474058E+04  0.00000000000E+00 0. -1.
         25    2    1    2    0    0 -0.13835350080E+03 -0.51819697910E+02 -0.97697560053E+03  0.99596925599E+03  0.12508582087E+03 0.  0.
         23    2    1    2    0    0  0.13835350080E+03  0.51819697910E+02 -0.56400805003E+03  0.59034190514E+03  0.92582461538E+02 0.  0.
          5    1    3    3  502    0 -0.65864659956E+02  0.39430543133E+02 -0.40295775499E+03  0.41022596928E+03  0.41800000000E+01 0.  1.
         -5    1    3    3    0  502 -0.72488840839E+02 -0.91250241043E+02 -0.57401784553E+03  0.58574328671E+03  0.41800000000E+01 0.  1.
        -11    1    4    4    0    0  0.75135431416E+02  0.75265680205E+02 -0.32138239362E+03  0.33852163683E+03  0.00000000000E+00 0.  1.
         11    1    4    4    0    0  0.63218069379E+02 -0.23445982295E+02 -0.24262565641E+03  0.25182026831E+03  0.00000000000E+00 0. -1.
</event>
<event>
 8    1  0.6635152E-009  0.2088748E+03  0.7561462E-02  0.1142460E+00
         -2   -1    0    0    0  501 -0.00000000000E+00  0.00000000000E+00  0.15217195205E+03  0.15217195205E+03  0.00000000000E+00 0.  1.
          2   -1    0    0  501    0  0.00000000000E+00 -0.00000000000E+00 -0.38139974590E+03  0.38139974590E+03  0.00000000000E+00 0. -1.
         25    2    1    2    0    0  0.10925524676E+03  0.16606311097E+03 -0.20801919960E+03  0.31374096688E+03  0.12509093144E+03 0.  0.
         23    2    1    2    0    0 -0.10925524676E+03 -0.16606311097E+03 -0.21208594247E+02  0.21983073107E+03  0.91444409805E+02 0.  0.
          5    1    3    3  502    0  0.12072760414E+03  0.12190474107E+03 -0.10550952376E+03  0.20145881043E+03  0.41800000000E+01 0.  1.
         -5    1    3    3    0  502 -0.11472357380E+02  0.44158369899E+02 -0.10250967584E+03  0.11228215645E+03  0.41800000000E+01 0.  1.
        -11    1    4    4    0    0 -0.51911486963E+02 -0.57009881720E+02 -0.51788778700E+02  0.92881681141E+02  0.00000000000E+00 0. -1.
         11    1    4    4    0    0 -0.57343759801E+02 -0.10905322925E+03  0.30580184453E+02  0.12694904993E+03  0.00000000000E+00 0.  1.
</event>
<event>
 8    1  0.6635152E-009  0.8522722E+02  0.7561462E-02  0.1314839E+00
          3   -1    0    0  501    0  0.00000000000E+00  0.00000000000E+00  0.81291803973E+02  0.81291803973E+02  0.00000000000E+00 0. -1.
         -3   -1    0    0    0  501 -0.00000000000E+00 -0.00000000000E+00 -0.18905490597E+03  0.18905490597E+03  0.00000000000E+00 0.  1.
         25    2    1    2    0    0 -0.26228586634E+01 -0.39411832903E+02 -0.85098967330E+02  0.15636703271E+03  0.12509453512E+03 0.  0.
         23    2    1    2    0    0  0.26228586634E+01  0.39411832903E+02 -0.22664134667E+02  0.11397967724E+03  0.10448699375E+03 0.  0.
          5    1    3    3  502    0  0.51871370315E+02 -0.44970962539E+02 -0.20926777715E+02  0.71891786426E+02  0.41800000000E+01 0. -1.
         -5    1    3    3    0  502 -0.54494228978E+02  0.55591296359E+01 -0.64172189615E+02  0.84475246281E+02  0.41800000000E+01 0. -1.
        -11    1    4    4    0    0  0.13874111358E+02  0.21828302984E+02  0.40165611568E+02  0.47772817896E+02  0.00000000000E+00 0. -1.
         11    1    4    4    0    0 -0.11251252694E+02  0.17583529919E+02 -0.62829746235E+02  0.66206859339E+02  0.00000000000E+00 0.  1.
</event>
<event>
 8    1  0.6635152E-009  0.1790886E+03  0.7561462E-02  0.1168688E+00
         -1   -1    0    0    0  501 -0.00000000000E+00  0.00000000000E+00  0.14600887986E+03  0.14600887986E+03  0.00000000000E+00 0.  1.
          1   -1    0    0  501    0  0.00000000000E+00 -0.00000000000E+00 -0.37359964788E+03  0.37359964788E+03  0.00000000000E+00 0. -1.
         25    2    1    2    0    0  0.13598688527E+03 -0.60875375772E+02  0.40783353475E+02  0.19877083127E+03  0.12509323365E+03 0.  0.
         23    2    1    2    0    0 -0.13598688527E+03  0.60875375772E+02 -0.26837412150E+03  0.32083769646E+03  0.93348347809E+02 0.  0.
          5    1    3    3  502    0  0.32429180433E+02 -0.79034154652E+02 -0.10546088653E+01  0.85537324864E+02  0.41800000000E+01 0.  1.
         -5    1    3    3    0  502  0.10355770484E+03  0.18158778879E+02  0.41837962341E+02  0.11323350641E+03  0.41800000000E+01 0.  1.
        -11    1    4    4    0    0 -0.77840947326E+02  0.74453812171E+02 -0.12196478582E+03  0.16272059552E+03  0.00000000000E+00 0.  1.
         11    1    4    4    0    0 -0.58145937943E+02 -0.13578436398E+02 -0.14640933569E+03  0.15811710094E+03  0.00000000000E+00 0. -1.
</event>
<event>
 8    1  0.6635152E-009  0.1214106E+03  0.7561462E-02  0.1240788E+00
          1   -1    0    0  501    0  0.00000000000E+00  0.00000000000E+00  0.83573199004E+03  0.83573199004E+03  0.00000000000E+00 0. -1.
         -1   -1    0    0    0  501 -0.00000000000E+00 -0.00000000000E+00 -0.22761123487E+02  0.22761123487E+02  0.00000000000E+00 0.  1.
         25    2    1    2    0    0 -0.77147074079E+02 -0.20304623873E+02  0.39448974681E+03  0.42146611266E+03  0.12509026738E+03 0.  0.
         23    2    1    2    0    0  0.77147074079E+02  0.20304623873E+02  0.41848111973E+03  0.43702700086E+03  0.97479244538E+02 0.  0.
          5    1    3    3  502    0 -0.69774452508E+02  0.36588532719E+02  0.14139549287E+03  0.16191773452E+03  0.41800000000E+01 0. -1.
         -5    1    3    3    0  502 -0.73726215707E+01 -0.56893156592E+02  0.25309425395E+03  0.25954837814E+03  0.41800000000E+01 0. -1.
        -11    1    4    4    0    0  0.44849445745E+02 -0.24551582328E+02  0.86543905733E+02  0.10051915538E+03  0.00000000000E+00 0.  1.
         11    1    4    4    0    0  0.32297628334E+02  0.44856206201E+02  0.33193721400E+03  0.33650784548E+03  0.00000000000E+00 0. -1.
</event>
<event>
 8    1  0.6635152E-009  0.1469174E+03  0.7561462E-02  0.1204313E+00
          1   -1    0    0  501    0  0.00000000000E+00  0.00000000000E+00  0.21713469923E+03  0.21713469923E+03  0.00000000000E+00 0. -1.
         -1   -1    0    0    0  501 -0.00000000000E+00 -0.00000000000E+00 -0.13422869238E+03  0.13422869238E+03  0.00000000000E+00 0.  1.
         25    2    1    2    0    0  0.11951936516E+03 -0.47961856877E+02  0.98746510469E+01  0.17980437762E+03  0.12508751782E+03 0.  0.
         23    2    1    2    0    0 -0.11951936516E+03  0.47961856877E+02  0.73031355802E+02  0.17155901399E+03  0.86681589654E+02 0.  0.
          5    1    3    3  502    0  0.12716456090E+03 -0.13791210162E+02 -0.24787908620E+02  0.13035695547E+03  0.41800000000E+01 0. -1.
         -5    1    3    3    0  502 -0.76451957343E+01 -0.34170646715E+02  0.34662559667E+02  0.49447422151E+02  0.41800000000E+01 0. -1.
        -11    1    4    4    0    0 -0.28230701466E+02  0.21682065913E+02 -0.18086970803E+02  0.39927722203E+02  0.00000000000E+00 0.  1.
         11    1    4    4    0    0 -0.91288663699E+02  0.26279790964E+02  0.91118326605E+02  0.13163129178E+03  0.00000000000E+00 0. -1.
</event>
<event>
 8    1  0.6635152E-009  0.9231064E+02  0.7561462E-02  0.1297351E+00
          3   -1    0    0  501    0  0.00000000000E+00  0.00000000000E+00  0.33558912887E+03  0.33558912887E+03  0.00000000000E+00 0. -1.
         -3   -1    0    0    0  501 -0.00000000000E+00 -0.00000000000E+00 -0.50079828932E+02  0.50079828932E+02  0.00000000000E+00 0.  1.
         25    2    1    2    0    0  0.66695390213E+02 -0.12859975454E+02  0.13661811262E+03  0.19729148230E+03  0.12508303741E+03 0.  0.
         23    2    1    2    0    0 -0.66695390213E+02  0.12859975454E+02  0.14889118732E+03  0.18837747550E+03  0.93294338359E+02 0.  0.
          5    1    3    3  502    0  0.62269039339E+02 -0.18716805830E+02  0.49397129490E+01  0.65342369445E+02  0.41800000000E+01 0.  1.
         -5    1    3    3    0  502  0.44263508744E+01  0.58568303752E+01  0.13167839967E+03  0.13194911286E+03  0.41800000000E+01 0.  1.
        -11    1    4    4    0    0 -0.80846972408E+02 -0.12664540697E+02  0.84237484663E+02  0.11744180415E+03  0.00000000000E+00 0. -1.
         11    1    4    4    0    0  0.14151582195E+02  0.25524516151E+02  0.64653702653E+02  0.70935671351E+02  0.00000000000E+00 0.  1.
</event>
<event>
 8    1  0.6635152E-009  0.1830577E+03  0.7561462E-02  0.1164876E+00
          1   -1    0    0  501    0  0.00000000000E+00  0.00000000000E+00  0.27451379075E+03  0.27451379075E+03  0.00000000000E+00 0.  1.
         -1   -1    0    0    0  501 -0.00000000000E+00 -0.00000000000E+00 -0.14444709981E+03  0.14444709981E+03  0.00000000000E+00 0. -1.
         25    2    1    2    0    0 -0.57029556439E+02 -0.13709083225E+03 -0.10719068776E+02  0.19444812540E+03  0.12509559722E+03 0.  0.
         23    2    1    2    0    0  0.57029556439E+02  0.13709083225E+03  0.14078575972E+03  0.22451276515E+03  0.92407169556E+02 0.  0.
          5    1    3    3  502    0  0.18818557383E+02 -0.11274718550E+03 -0.60761919018E+01  0.11454456971E+03  0.41800000000E+01 0.  1.
         -5    1    3    3    0  502 -0.75848113822E+02 -0.24343646742E+02 -0.46428768738E+01  0.79903555695E+02  0.41800000000E+01 0.  1.
        -11    1    4    4    0    0  0.50457941706E+02  0.19352418679E+02  0.64137099624E+02  0.83869467258E+02  0.00000000000E+00 0.  1.
         11    1    4    4    0    0  0.65716147325E+01  0.11773841357E+03  0.76648660091E+02  0.14064329790E+03  0.00000000000E+00 0. -1.
</event>
<event>
 7    1  0.6635152E-009  0.1116908E+03  0.7561462E-02  0.1257471E+00
          1   -1    0    0  501    0  0.00000000000E+00  0.00000000000E+00  0.13301764318E+03  0.13301764318E+03  0.00000000000E+00 0. -1.
         -1   -1    0    0    0  501 -0.00000000000E+00 -0.00000000000E+00 -0.14035232478E+03  0.14035232478E+03  0.00000000000E+00 0.  1.
         25    2    1    2    0    0  0.76225856385E+02  0.68080620776E+02 -0.13206059363E+02  0.16207311088E+03  0.12509173098E+03 0.  0.
          5    1    3    3  502    0  0.68759619625E+02  0.74897563977E+02 -0.57203580411E+02  0.11673582309E+03  0.41800000000E+01 0.  1.
         -5    1    3    3    0  502  0.74662367592E+01 -0.68169432014E+01  0.43997521047E+02  0.45337287791E+02  0.41800000000E+01 0.  1.
        -11    1    1    2    0    0 -0.27678638340E+02 -0.53091391582E+02 -0.18673233301E+01  0.59902335321E+02  0.00000000000E+00 0. -1.
         11    1    1    2    0    0 -0.48547218045E+02 -0.14989229194E+02  0.77387010917E+01  0.51394521754E+02  0.00000000000E+00 0.  1.
</event>
<event>
 8    1  0.6635152E-009  0.1054190E+03  0.7561462E-02  0.1269296E+00
          3   -1    0    0  501    0  0.00000000000E+00  0.00000000000E+00  0.34972183565E+03  0.34972183565E+03  0.00000000000E+00 0. -1.
         -3   -1    0    0    0  501 -0.00000000000E+00 -0.00000000000E+00 -0.35603497130E+02  0.35603497130E+02  0.00000000000E+00 0.  1.
         25    2    1    2    0    0  0.61203056144E+01  0.25729620921E+02  0.17995270620E+03  0.22075146163E+03  0.12509500313E+03 0.  0.
         23    2    1    2    0    0 -0.61203056144E+01 -0.25729620921E+02  0.13416563232E+03  0.16457387115E+03  0.91567847183E+02 0.  0.
          5    1    3    3  502    0  0.50013134015E+02  0.49419763822E+02  0.67026933106E+02  0.97230184571E+02  0.41800000000E+01 0. -1.
         -5    1    3    3    0  502 -0.43892828400E+02 -0.23690142902E+02  0.11292577310E+03  0.12352127706E+03  0.41800000000E+01 0. -1.
        -11    1    4    4    0    0  0.11343698759E+02 -0.55058866378E+02  0.56326929281E+02  0.79579402049E+02  0.00000000000E+00 0.  1.
         11    1    4    4    0    0 -0.17464004373E+02  0.29329245457E+02  0.77838703036E+02  0.84994469103E+02  0.00000000000E+00 0. -1.
</event>
<event>
 8    1  0.6635152E-009  0.5960191E+02  0.7561462E-02  0.1399510E+00
          2   -1    0    0  501    0  0.00000000000E+00  0.00000000000E+00  0.25956612664E+03  0.25956612664E+03  0.00000000000E+00 0.  1.
         -2   -1    0    0    0  501 -0.00000000000E+00 -0.00000000000E+00 -0.51750486941E+02  0.51750486941E+02  0.00000000000E+00 0. -1.
         25    2    1    2    0    0  0.97609672681E+01 -0.25673139509E+02  0.77550672686E+02  0.14971721178E+03  0.12508697013E+03 0.  0.
         23    2    1    2    0    0 -0.97609672681E+01  0.25673139509E+02  0.13026496701E+03  0.16159940179E+03  0.91602502453E+02 0.  0.
          5    1    3    3  502    0 -0.97885922794E+01 -0.44576296541E+02 -0.18784805749E+02  0.49529830195E+02  0.41800000000E+01 0. -1.
         -5    1    3    3    0  502  0.19549559548E+02  0.18903157032E+02  0.96335478435E+02  0.10018738159E+03  0.41800000000E+01 0. -1.
        -11    1    4    4    0    0 -0.21501877535E+02  0.26458655806E+02  0.14136787694E+03  0.14542100204E+03  0.00000000000E+00 0.  1.
         11    1    4    4    0    0  0.11740910267E+02 -0.78551629680E+00 -0.11102909927E+02  0.16178399754E+02  0.00000000000E+00 0. -1.
</event>
<event>
 8    1  0.6635152E-009  0.1111257E+03  0.7561462E-02  0.1258499E+00
         -1   -1    0    0    0  501 -0.00000000000E+00  0.00000000000E+00  0.58794954189E+02  0.58794954189E+02  0.00000000000E+00 0.  1.
          1   -1    0    0  501    0  0.00000000000E+00 -0.00000000000E+00 -0.37147619494E+03  0.37147619494E+03  0.00000000000E+00 0. -1.
         25    2    1    2    0    0  0.91503356722E+02  0.24347989545E+02 -0.19805271520E+03  0.25266233703E+03  0.12509072576E+03 0.  0.
         23    2    1    2    0    0 -0.91503356722E+02 -0.24347989545E+02 -0.11462852555E+03  0.17760881209E+03  0.97157101525E+02 0.  0.
          5    1    3    3  502    0 -0.43384345963E-01  0.41269777751E+01 -0.14448369839E+03  0.14460306127E+03  0.41800000000E+01 0.  1.
         -5    1    3    3    0  502  0.91546741068E+02  0.20221011770E+02 -0.53569016805E+02  0.10805927576E+03  0.41800000000E+01 0.  1.
        -11    1    4    4    0    0 -0.51591121236E+02 -0.52563987444E+02 -0.29287623246E+02  0.79261475142E+02  0.00000000000E+00 0.  1.
         11    1    4    4    0    0 -0.39912235486E+02  0.28215997899E+02 -0.85340902305E+02  0.98347336950E+02  0.00000000000E+00 0. -1.
</event>
<event>
 8    1  0.6635152E-009  0.7109813E+02  0.7561462E-02  0.1356398E+00
         -2   -1    0    0    0  501 -0.00000000000E+00  0.00000000000E+00  0.31111393824E+02  0.31111393824E+02  0.00000000000E+00 0.  1.
          2   -1    0    0  501    0  0.00000000000E+00 -0.00000000000E+00 -0.41843886972E+03  0.41843886972E+03  0.00000000000E+00 0. -1.
         25    2    1    2    0    0  0.10590848086E+02  0.24012644123E+02 -0.17324924784E+03  0.21528314368E+03  0.12507100758E+03 0.  0.
         23    2    1    2    0    0 -0.10590848086E+02 -0.24012644123E+02 -0.21407822806E+03  0.23426711986E+03  0.91448469529E+02 0.  0.
          5    1    3    3  502    0 -0.18129632629E+02  0.72436704292E+00  0.14676789085E+02  0.23708412531E+02  0.41800000000E+01 0. -1.
         -5    1    3    3    0  502  0.28720480715E+02  0.23288277080E+02 -0.18792603693E+03  0.19157473115E+03  0.41800000000E+01 0. -1.
        -11    1    4    4    0    0  0.35898993553E+02 -0.54658780294E+01 -0.44388629022E+02  0.57349489511E+02  0.00000000000E+00 0.  1.
         11    1    4    4    0    0 -0.46489841639E+02 -0.18546766093E+02 -0.16968959904E+03  0.17691763035E+03  0.00000000000E+00 0. -1.
</event>
<event>
 8    1  0.6635152E-009  0.1224531E+03  0.7561462E-02  0.1239104E+00
         -2   -1    0    0    0  501 -0.00000000000E+00  0.00000000000E+00  0.19585578434E+02  0.19585578434E+02  0.00000000000E+00 0.  1.
          2   -1    0    0  501    0  0.00000000000E+00 -0.00000000000E+00 -0.12846807184E+04  0.12846807184E+04  0.00000000000E+00 0. -1.
         25    2    1    2    0    0 -0.12060266876E+02  0.87063013832E+02 -0.97384136787E+03  0.98576868271E+03  0.12508983822E+03 0.  0.
         23    2    1    2    0    0  0.12060266876E+02 -0.87063013832E+02 -0.29125377206E+03  0.31849761409E+03  0.94268510247E+02 0.  0.
          5    1    3    3  502    0  0.37099528921E+02  0.26432248310E+02 -0.12109198284E+03  0.12944411731E+03  0.41800000000E+01 0.  1.
         -5    1    3    3    0  502 -0.49159795797E+02  0.60630765522E+02 -0.85274938502E+03  0.85632456540E+03  0.41800000000E+01 0.  1.
        -11    1    4    4    0    0 -0.32210030112E+02 -0.62634130793E+02 -0.22091802347E+03  0.23187344280E+03  0.00000000000E+00 0.  1.
         11    1    4    4    0    0  0.44270296988E+02 -0.24428883039E+02 -0.70335748592E+02  0.86624171291E+02  0.00000000000E+00 0. -1.
</event>
<event>
 8    1  0.6635152E-009  0.9935923E+02  0.7561462E-02  0.1281649E+00
          2   -1    0    0  501    0  0.00000000000E+00  0.00000000000E+00  0.10579656358E+04  0.10579656358E+04  0.00000000000E+00 0. -1.
         -2   -1    0    0    0  501 -0.00000000000E+00 -0.00000000000E+00 -0.13045119846E+02  0.13045119846E+02  0.00000000000E+00 0.  1.
         25    2    1    2    0    0  0.96196144448E+01  0.13267835393E+02  0.83159140071E+03  0.84110668848E+03  0.12509049218E+03 0.  0.
         23    2    1    2    0    0 -0.96196144448E+01 -0.13267835393E+02  0.21332911524E+03  0.22990406717E+03  0.84130828181E+02 0.  0.
          5    1    3    3  502    0 -0.12175770015E+02 -0.49299556793E+02  0.52180965789E+03  0.52429141433E+03  0.41800000000E+01 0.  1.
         -5    1    3    3    0  502  0.21795384460E+02  0.62567392186E+02  0.30978174282E+03  0.31681527415E+03  0.41800000000E+01 0.  1.
        -11    1    4    4    0    0 -0.10838310596E+01 -0.46782273928E+02  0.15681005407E+03  0.16364335887E+03  0.00000000000E+00 0. -1.
         11    1    4    4    0    0 -0.85357833852E+01  0.33514438535E+02  0.56519061172E+02  0.66260708297E+02  0.00000000000E+00 0.  1.
</event>
<event>
 8    1  0.6635152E-009  0.1505866E+03  0.7561462E-02  0.1199754E+00
          2   -1    0    0  501    0  0.00000000000E+00  0.00000000000E+00  0.60341123878E+03  0.60341123878E+03  0.00000000000E+00 0.  1.
         -2   -1    0    0    0  501 -0.00000000000E+00 -0.00000000000E+00 -0.48189877542E+02  0.48189877542E+02  0.00000000000E+00 0. -1.
         25    2    1    2    0    0  0.47392255908E+02  0.11563448129E+03  0.36416815274E+03  0.40482587358E+03  0.12509270671E+03 0.  0.
         23    2    1    2    0    0 -0.47392255908E+02 -0.11563448129E+03  0.19105320850E+03  0.24677524274E+03  0.93698093726E+02 0.  0.
          5    1    3    3  502    0  0.84249606049E+02  0.44032988612E+02  0.21865298554E+03  0.23846069004E+03  0.41800000000E+01 0.  1.
         -5    1    3    3    0  502 -0.36857350141E+02  0.71601492677E+02  0.14551516719E+03  0.16636518355E+03  0.41800000000E+01 0.  1.
        -11    1    4    4    0    0 -0.41162512558E+02 -0.10765518065E+03  0.20155933175E+03  0.23218560372E+03  0.00000000000E+00 0.  1.
         11    1    4    4    0    0 -0.62297433504E+01 -0.79793006419E+01 -0.10506123249E+02  0.14589639018E+02  0.00000000000E+00 0. -1.
</event>
<event>
 8    1  0.6635152E-009  0.9587671E+02  0.7561462E-02  0.1289214E+00
          4   -1    0    0  501    0  0.00000000000E+00  0.00000000000E+00  0.14189533467E+03  0.14189533467E+03  0.00000000000E+00 0.  1.
         -4   -1    0    0    0  501 -0.00000000000E+00 -0.00000000000E+00 -0.11906160941E+03  0.11906160941E+03  0.00000000000E+00 0. -1.
         25    2    1    2    0    0  0.74954330471E+02 -0.15915248334E+02 -0.40109560393E+00  0.14668556694E+03  0.12508016584E+03 0.  0.
         23    2    1    2    0    0 -0.74954330471E+02  0.15915248334E+02  0.23234820864E+02  0.11427137714E+03  0.81526952277E+02 0.  0.
          5    1    3    3  502    0  0.10863865266E+02 -0.13903198700E+02 -0.57767233448E+02  0.60546248131E+02  0.41800000000E+01 0.  1.
         -5    1    3    3    0  502  0.64090465205E+02 -0.20120496343E+01  0.57366137844E+02  0.86139318810E+02  0.41800000000E+01 0.  1.
        -11    1    4    4    0    0  0.84871983252E+01 -0.17523169110E+02  0.13843073702E+02  0.23889844716E+02  0.00000000000E+00 0. -1.
         11    1    4    4    0    0 -0.83441528796E+02  0.33438417444E+02  0.93917471625E+01  0.90381532426E+02  0.00000000000E+00 0.  1.
</event>
<event>
 8    1  0.6635152E-009  0.1026384E+03  0.7561462E-02  0.1274844E+00
         -1   -1    0    0    0  501 -0.00000000000E+00  0.00000000000E+00  0.35773177675E+02  0.35773177675E+02  0.00000000000E+00 0.  1.
          1   -1    0    0  501    0  0.00000000000E+00 -0.00000000000E+00 -0.35333824431E+03  0.35333824431E+03  0.00000000000E+00 0. -1.
         25    2    1    2    0    0 -0.83079839475E+01  0.46687314204E+01 -0.12931399020E+03  0.18016770318E+03  0.12508986194E+03 0.  0.
         23    2    1    2    0    0  0.83079839475E+01 -0.46687314204E+01 -0.18825107643E+03  0.20894371880E+03  0.90156476178E+02 0.  0.
          5    1    3    3  502    0  0.17200568598E+02 -0.51745612452E+02 -0.94045893942E+02  0.10879140837E+03  0.41800000000E+01 0.  1.
         -5    1    3    3    0  502 -0.25508552545E+02  0.56414343873E+02 -0.35268096257E+02  0.71376294813E+02  0.41800000000E+01 0.  1.
        -11    1    4    4    0    0  0.26411026831E+02  0.35632092748E+02 -0.11679143109E+03  0.12492968721E+03  0.00000000000E+00 0. -1.
         11    1    4    4    0    0 -0.18103042883E+02 -0.40300824168E+02 -0.71459645347E+02  0.84014031586E+02  0.00000000000E+00 0.  1.
</event>
<event>
 8    1  0.6635152E-009  0.1466756E+03  0.7561462E-02  0.1204619E+00
          2   -1    0    0  501    0  0.00000000000E+00  0.00000000000E+00  0.12672622465E+04  0.12672622465E+04  0.00000000000E+00 0. -1.
         -2   -1    0    0    0  501 -0.00000000000E+00 -0.00000000000E+00 -0.24105769661E+02  0.24105769661E+02  0.00000000000E+00 0.  1.
         25    2    1    2    0    0 -0.73261231877E+02  0.71463376375E+02  0.99785184270E+03  0.10108561011E+04  0.12509010672E+03 0.  0.
         23    2    1    2    0    0  0.73261231877E+02 -0.71463376375E+02  0.24530463416E+03  0.28051191513E+03  0.89656838721E+02 0.  0.
          5    1    3    3  502    0  0.33688467163E+02  0.26125182211E+02  0.35555689247E+03  0.35812792986E+03  0.41800000000E+01 0.  1.
         -5    1    3    3    0  502 -0.10694969904E+03  0.45338194164E+02  0.64229495023E+03  0.65272817119E+03  0.41800000000E+01 0.  1.
        -11    1    4    4    0    0 -0.92770419350E+01 -0.47404976769E+02  0.11089161488E+03  0.12095555209E+03  0.00000000000E+00 0. -1.
         11    1    4    4    0    0  0.82538273812E+02 -0.24058399606E+02  0.13441301928E+03  0.15955636304E+03  0.00000000000E+00 0.  1.
</event>
<event>
 8    1  0.6635152E-009  0.9745824E+02  0.7561462E-02  0.1285734E+00
          1   -1    0    0  501    0  0.00000000000E+00  0.00000000000E+00  0.31336744511E+03  0.31336744511E+03  0.00000000000E+00 0.  1.
         -1   -1    0    0    0  501 -0.00000000000E+00 -0.00000000000E+00 -0.75187914419E+02  0.75187914419E+02  0.00000000000E+00 0. -1.
         25    2    1    2    0    0  0.46111292867E+02 -0.62467813448E+02  0.22375047525E+03  0.26784430068E+03  0.12509122745E+03 0.  0.
         23    2    1    2    0    0 -0.46111292867E+02  0.62467813448E+02  0.14429055439E+02  0.12071105885E+03  0.91293389908E+02 0.  0.
          5    1    3    3  502    0  0.55796082134E+01 -0.43398844349E+02  0.46817078570E+01  0.44203874345E+02  0.41800000000E+01 0. -1.
         -5    1    3    3    0  502  0.40531684654E+02 -0.19068969098E+02  0.21906876739E+03  0.22364042633E+03  0.41800000000E+01 0. -1.
        -11    1    4    4    0    0 -0.80446608514E+01 -0.16473655507E+02  0.26520818091E+02  0.32240528628E+02  0.00000000000E+00 0.  1.
         11    1    4    4    0    0 -0.38066632016E+02  0.78941468955E+02 -0.12091762652E+02  0.88470530222E+02  0.00000000000E+00 0. -1.
</event>
<event>
 8    1  0.6635152E-009  0.1330376E+03  0.7561462E-02  0.1223017E+00
         -2   -1    0    0    0  501 -0.00000000000E+00  0.00000000000E+00  0.29665476033E+03  0.29665476033E+03  0.00000000000E+00 0.  1.
          2   -1    0    0  501    0  0.00000000000E+00 -0.00000000000E+00 -0.10988229452E+03  0.10988229452E+03  0.00000000000E+00 0. -1.
         25    2    1    2    0    0  0.77730228208E+02 -0.83048510407E+02  0.19026487846E+03  0.25453380804E+03  0.12509073508E+03 0.  0.
         23    2    1    2    0    0 -0.77730228208E+02  0.83048510407E+02 -0.34924126470E+01  0.15200324681E+03  0.10076580092E+03 0.  0.
          5    1    3    3  502    0  0.36642148606E+02 -0.99855842998E+02  0.17945766940E+03  0.20865369381E+03  0.41800000000E+01 0. -1.
         -5    1    3    3    0  502  0.41088079602E+02  0.16807332590E+02  0.10807209061E+02  0.45880114231E+02  0.41800000000E+01 0. -1.
        -11    1    4    4    0    0 -0.45296187349E+02  0.60314343631E+02 -0.50318248658E+02  0.90672436738E+02  0.00000000000E+00 0. -1.
         11    1    4    4    0    0 -0.32434040859E+02  0.22734166776E+02  0.46825836011E+02  0.61330810068E+02  0.00000000000E+00 0.  1.
</event>
<event>
 8    1  0.6635152E-009  0.1089153E+03  0.7561462E-02  0.1262592E+00
          1   -1    0    0  501    0  0.00000000000E+00  0.00000000000E+00  0.90792876859E+02  0.90792876859E+02  0.00000000000E+00 0. -1.
         -1   -1    0    0    0  501 -0.00000000000E+00 -0.00000000000E+00 -0.14431494109E+03  0.14431494109E+03  0.00000000000E+00 0.  1.
         25    2    1    2    0    0  0.28094516205E+02  0.35470077312E+02 -0.37585521122E+02  0.13823108775E+03  0.12509090294E+03 0.  0.
         23    2    1    2    0    0 -0.28094516205E+02 -0.35470077312E+02 -0.15936543106E+02  0.96876730193E+02  0.84164714824E+02 0.  0.
          5    1    3    3  502    0 -0.43098712007E+02 -0.51152028706E+01  0.80502125182E+01  0.44338951258E+02  0.41800000000E+01 0. -1.
         -5    1    3    3    0  502  0.71193228211E+02  0.40585280183E+02 -0.45635733640E+02  0.93892136494E+02  0.41800000000E+01 0. -1.
        -11    1    4    4    0    0  0.25934749110E+02 -0.27080567683E+02  0.59817699026E+01  0.37970382255E+02  0.00000000000E+00 0. -1.
         11    1    4    4    0    0 -0.54029265314E+02 -0.83895096285E+01 -0.21918313009E+02  0.58906347938E+02  0.00000000000E+00 0.  1.
</event>
<event>
 8    1  0.6635152E-009  0.1775783E+03  0.7561462E-02  0.1170168E+00
          2   -1    0    0  501    0  0.00000000000E+00  0.00000000000E+00  0.17162852525E+03  0.17162852525E+03  0.00000000000E+00 0. -1.
         -2   -1    0    0    0  501 -0.00000000000E+00 -0.00000000000E+00 -0.19183893308E+03  0.19183893308E+03  0.00000000000E+00 0.  1.
         25    2    1    2    0    0 -0.14355917022E+03 -0.16163217815E+02 -0.16784048194E+01  0.19110776737E+03  0.12509547050E+03 0.  0.
         23    2    1    2    0    0  0.14355917022E+03  0.16163217815E+02 -0.18532003015E+02  0.17235969097E+03  0.92162589860E+02 0.  0.
          5    1    3    3  502    0 -0.15967772381E+03 -0.35208647182E+02 -0.11498097157E+02  0.16397043317E+03  0.41800000000E+01 0.  1.
         -5    1    3    3    0  502  0.16118553586E+02  0.19045429368E+02  0.98196923380E+01  0.27137334193E+02  0.41800000000E+01 0.  1.
        -11    1    4    4    0    0  0.10738393251E+03 -0.26250339467E+02 -0.31855416983E+02  0.11504415184E+03  0.00000000000E+00 0.  1.
         11    1    4    4    0    0  0.36175237715E+02  0.42413557282E+02  0.13323413968E+02  0.57315539122E+02  0.00000000000E+00 0. -1.
</event>
<event>
 8    1  0.6635152E-009  0.1440928E+03  0.7561462E-02  0.1207925E+00
         -1   -1    0    0    0  501 -0.00000000000E+00  0.00000000000E+00  0.79319618852E+02  0.79319618852E+02  0.00000000000E+00 0.  1.
          1   -1    0    0  501    0  0.00000000000E+00 -0.00000000000E+00 -0.37558734297E+03  0.37558734297E+03  0.00000000000E+00 0. -1.
         25    2    1    2    0    0 -0.46088825817E+02  0.90752783946E+02 -0.42732371684E+02  0.16683576076E+03  0.12509143783E+03 0.  0.
         23    2    1    2    0    0  0.46088825817E+02 -0.90752783946E+02 -0.25353535243E+03  0.28807120106E+03  0.91348750889E+02 0.  0.
          5    1    3    3  502    0 -0.70925509147E+02  0.14621102881E+02 -0.47166447183E+02  0.86523699858E+02  0.41800000000E+01 0. -1.
         -5    1    3    3    0  502  0.24836683330E+02  0.76131681065E+02  0.44340754987E+01  0.80312060901E+02  0.41800000000E+01 0. -1.
        -11    1    4    4    0    0  0.64631100935E+02 -0.96412981706E+02 -0.20147794995E+03  0.23252098092E+03  0.00000000000E+00 0.  1.
         11    1    4    4    0    0 -0.18542275117E+02  0.56601977606E+01 -0.52057402476E+02  0.55550220141E+02  0.00000000000E+00 0. -1.
</event>
<event>
 8    1  0.6635152E-009  0.8384905E+02  0.7561462E-02  0.1318470E+00
         -1   -1    0    0    0  501 -0.00000000000E+00  0.00000000000E+00  0.11142427304E+03  0.11142427304E+03  0.00000000000E+00 0.  1.
          1   -1    0    0  501    0  0.00000000000E+00 -0.00000000000E+00 -0.92847222069E+02  0.92847222069E+02  0.00000000000E+00 0. -1.
         25    2    1    2    0    0  0.31409369497E+02  0.24600278446E+02 -0.58630450953E+01  0.13142871452E+03  0.12508960592E+03 0.  0.
         23    2    1    2    0    0 -0.31409369497E+02 -0.24600278446E+02  0.24440096070E+02  0.72842780597E+02  0.55830369848E+02 0.  0.
          5    1    3    3  502    0 -0.34322676409E+02  0.25817933699E+01  0.36288414206E+02  0.50189970895E+02  0.41800000000E+01 0.  1.
         -5    1    3    3    0  502  0.65732045906E+02  0.22018485076E+02 -0.42151459301E+02  0.81238743622E+02  0.41800000000E+01 0.  1.
        -11    1    4    4    0    0 -0.44752887615E+02 -0.15232070880E+02  0.51013413105E+01  0.47548508035E+02  0.00000000000E+00 0.  1.
         11    1    4    4    0    0  0.13343518118E+02 -0.93682075657E+01  0.19338754760E+02  0.25294272562E+02  0.00000000000E+00 0. -1.
</event>
<event>
 8    1  0.6635152E-009  0.7128530E+02  0.7561462E-02  0.1355776E+00
         -1   -1    0    0    0  501 -0.00000000000E+00  0.00000000000E+00  0.47612314254E+02  0.47612314254E+02  0.00000000000E+00 0.  1.
          1   -1    0    0  501    0  0.00000000000E+00 -0.00000000000E+00 -0.31704315685E+03  0.31704315685E+03  0.00000000000E+00 0. -1.
         25    2    1    2    0    0 -0.33796866131E+02 -0.25998390700E+02 -0.19068472046E+03  0.23200221416E+03  0.12508485232E+03 0.  0.
         23    2    1    2    0    0  0.33796866131E+02  0.25998390700E+02 -0.78746122136E+02  0.13265325694E+03  0.97866185916E+02 0.  0.
          5    1    3    3  502    0 -0.30278949728E+02 -0.63361457296E+01  0.80381800401E+01  0.32234240765E+02  0.41800000000E+01 0.  1.
         -5    1    3    3    0  502 -0.35179164034E+01 -0.19662244970E+02 -0.19872290050E+03  0.19976797340E+03  0.41800000000E+01 0.  1.
        -11    1    4    4    0    0 -0.25222659978E+02 -0.26146129799E+01  0.54377643506E+01  0.25934302738E+02  0.00000000000E+00 0.  1.
         11    1    4    4    0    0  0.59019526109E+02  0.28613003680E+02 -0.84183886487E+02  0.10671895420E+03  0.00000000000E+00 0. -1.
</event>
<event>
 8    1  0.6635152E-009  0.9338171E+02  0.7561462E-02  0.1294863E+00
          2   -1    0    0  501    0  0.00000000000E+00  0.00000000000E+00  0.13408888345E+03  0.13408888345E+03  0.00000000000E+00 0. -1.
         -2   -1    0    0    0  501 -0.00000000000E+00 -0.00000000000E+00 -0.12538557171E+03  0.12538557171E+03  0.00000000000E+00 0.  1.
         25    2    1    2    0    0 -0.39049794968E+02 -0.52121762267E+02 -0.14787290717E+02  0.14180276219E+03  0.12509114601E+03 0.  0.
         23    2    1    2    0    0  0.39049794968E+02  0.52121762267E+02  0.23490602454E+02  0.11767169296E+03  0.95148590802E+02 0.  0.
          5    1    3    3  502    0 -0.22140850614E+02 -0.59230205155E+02  0.45912106526E+02  0.78254893740E+02  0.41800000000E+01 0. -1.
         -5    1    3    3    0  502 -0.16908944355E+02  0.71084428882E+01 -0.60699397242E+02  0.63547868454E+02  0.41800000000E+01 0. -1.
        -11    1    4    4    0    0  0.51295580158E+02  0.26468738102E+00  0.36335997473E+02  0.62861843081E+02  0.00000000000E+00 0. -1.
         11    1    4    4    0    0 -0.12245785190E+02  0.51857074886E+02 -0.12845395018E+02  0.54809849879E+02  0.00000000000E+00 0.  1.
</event>
<event>
 8    1  0.6635152E-009  0.9192328E+02  0.7561462E-02  0.1298260E+00
         -2   -1    0    0    0  501 -0.00000000000E+00  0.00000000000E+00  0.48757912515E+02  0.48757912515E+02  0.00000000000E+00 0. -1.
          2   -1    0    0  501    0  0.00000000000E+00 -0.00000000000E+00 -0.28000563190E+03  0.28000563190E+03  0.00000000000E+00 0.  1.
         25    2    1    2    0    0 -0.35763254840E+02  0.18714107628E+02 -0.10884127892E+03  0.17065604524E+03  0.12509130090E+03 0.  0.
         23    2    1    2    0    0  0.35763254840E+02 -0.18714107628E+02 -0.12240644047E+03  0.15810749918E+03  0.91571919312E+02 0.  0.
          5    1    3    3  502    0 -0.16916416863E+02 -0.48574816486E+02 -0.15309871968E+02  0.53828826253E+02  0.41800000000E+01 0.  1.
         -5    1    3    3    0  502 -0.18846837977E+02  0.67288924114E+02 -0.93531406952E+02  0.11682721899E+03  0.41800000000E+01 0.  1.
        -11    1    4    4    0    0  0.91544263896E+01  0.16038930267E+02  0.83147959532E+01  0.20253064913E+02  0.00000000000E+00 0. -1.
         11    1    4    4    0    0  0.26608828451E+02 -0.34753037895E+02 -0.13072123642E+03  0.13785443426E+03  0.00000000000E+00 0.  1.
</event>
<event>
 8    1  0.6635152E-009  0.2652683E+03  0.7561462E-02  0.1104019E+00
          1   -1    0    0  501    0  0.00000000000E+00  0.00000000000E+00  0.59338192279E+03  0.59338192279E+03  0.00000000000E+00 0. -1.
         -1   -1    0    0    0  501 -0.00000000000E+00 -0.00000000000E+00 -0.22576257800E+03  0.22576257800E+03  0.00000000000E+00 0.  1.
         25    2    1    2    0    0  0.10759369584E+03  0.21858513672E+03  0.46649600095E+03  0.54094514247E+03  0.12508901980E+03 0.  0.
         23    2    1    2    0    0 -0.10759369584E+03 -0.21858513672E+03 -0.98876656164E+02  0.27819935833E+03  0.90897879303E+02 0.  0.
          5    1    3    3  502    0  0.48101716784E+02  0.20411425477E+03  0.32621041962E+03  0.38782356094E+03  0.41800000000E+01 0. -1.
         -5    1    3    3    0  502  0.59491979057E+02  0.14470881947E+02  0.14028558134E+03  0.15312158152E+03  0.41800000000E+01 0. -1.
        -11    1    4    4    0    0 -0.95329837825E+01 -0.11997251916E+03 -0.36352316108E+02  0.12572101662E+03  0.00000000000E+00 0. -1.
         11    1    4    4    0    0 -0.98060712059E+02 -0.98612617557E+02 -0.62524340056E+02  0.15247834171E+03  0.00000000000E+00 0.  1.
</event>
<event>
 8    1  0.6635152E-009  0.1155150E+03  0.7561462E-02  0.1250685E+00
         -1   -1    0    0    0  501 -0.00000000000E+00  0.00000000000E+00  0.49730394547E+03  0.49730394547E+03  0.00000000000E+00 0.  1.
          1   -1    0    0  501    0  0.00000000000E+00 -0.00000000000E+00 -0.46202460276E+02  0.46202460276E+02  0.00000000000E+00 0. -1.
         25    2    1    2    0    0  0.44899171633E+02  0.96470127221E+02  0.23997528747E+03  0.29078823326E+03  0.12508891615E+03 0.  0.
         23    2    1    2    0    0 -0.44899171633E+02 -0.96470127221E+02  0.21112619772E+03  0.25271817249E+03  0.89273637106E+02 0.  0.
          5    1    3    3  502    0  0.13329146403E+02  0.68146104315E+02  0.23818089934E+03  0.24813135813E+03  0.41800000000E+01 0.  1.
         -5    1    3    3    0  502  0.31570025229E+02  0.28324022906E+02  0.17943881298E+01  0.42656875124E+02  0.41800000000E+01 0.  1.
        -11    1    4    4    0    0 -0.56484265741E+02 -0.69953260580E+02  0.86456952972E+02  0.12473466102E+03  0.00000000000E+00 0. -1.
         11    1    4    4    0    0  0.11585094109E+02 -0.26516866640E+02  0.12466924475E+03  0.12798351147E+03  0.00000000000E+00 0.  1.
</event>
<event>
 8    1  0.6635152E-009  0.1396402E+03  0.7561462E-02  0.1213814E+00
          1   -1    0    0  501    0  0.00000000000E+00  0.00000000000E+00  0.43722382675E+02  0.43722382675E+02  0.00000000000E+00 0.  1.
         -1   -1    0    0    0  501 -0.00000000000E+00 -0.00000000000E+00 -0.51917217299E+03  0.51917217299E+03  0.00000000000E+00 0. -1.
         25    2    1    2    0    0  0.52352694200E+02  0.78466641559E+02 -0.32430583207E+03  0.36016564176E+03  0.12508876192E+03 0.  0.
         23    2    1    2    0    0 -0.52352694200E+02 -0.78466641559E+02 -0.15114395824E+03  0.20272891391E+03  0.96730026325E+02 0.  0.
          5    1    3    3  502    0  0.90864461744E+02  0.32968949603E+02 -0.20836813651E+03  0.22973474870E+03  0.41800000000E+01 0.  1.
         -5    1    3    3    0  502 -0.38511767543E+02  0.45497691956E+02 -0.11593769556E+03  0.13043089306E+03  0.41800000000E+01 0.  1.
        -11    1    4    4    0    0 -0.49088323044E+02 -0.51195578347E+01 -0.10497750852E+03  0.11600064925E+03  0.00000000000E+00 0. -1.
         11    1    4    4    0    0 -0.32643711562E+01 -0.73347083725E+02 -0.46166449722E+02  0.86728264654E+02  0.00000000000E+00 0.  1.
</event>
<event>
 8    1  0.6635152E-009  0.1051068E+03  0.7561462E-02  0.1269909E+00
         -2   -1    0    0    0  501 -0.00000000000E+00  0.00000000000E+00  0.53953653855E+02  0.53953653855E+02  0.00000000000E+00 0. -1.
          2   -1    0    0  501    0  0.00000000000E+00 -0.00000000000E+00 -0.24554341063E+03  0.24554341063E+03  0.00000000000E+00 0.  1.
         25    2    1    2    0    0  0.27438319120E+02  0.11479590154E+02 -0.74975957454E+02  0.14883883208E+03  0.12508781473E+03 0.  0.
         23    2    1    2    0    0 -0.27438319120E+02 -0.11479590154E+02 -0.11661379932E+03  0.15065823241E+03  0.90633782073E+02 0.  0.
          5    1    3    3  502    0  0.73164109787E+02 -0.72054732588E+01 -0.65110028756E+02  0.98293916650E+02  0.41800000000E+01 0.  1.
         -5    1    3    3    0  502 -0.45725790667E+02  0.18685063412E+02 -0.98659286982E+01  0.50544915431E+02  0.41800000000E+01 0.  1.
        -11    1    4    4    0    0 -0.54345914593E+02  0.63646838444E+01 -0.10082974699E+03  0.11471976949E+03  0.00000000000E+00 0.  1.
         11    1    4    4    0    0  0.26907595473E+02 -0.17844273998E+02 -0.15784052328E+02  0.35938462913E+02  0.00000000000E+00 0. -1.
</event>
<event>
 8    1  0.6635152E-009  0.1217164E+03  0.7561462E-02  0.1240292E+00
         -3   -1    0    0    0  501 -0.00000000000E+00  0.00000000000E+00  0.10737198404E+04  0.10737198404E+04  0.00000000000E+00 0.  1.
          3   -1    0    0  501    0  0.00000000000E+00 -0.00000000000E+00 -0.20350972648E+02  0.20350972648E+02  0.00000000000E+00 0. -1.
         25    2    1    2    0    0  0.48656056082E+02 -0.48358591399E+02  0.84432703215E+03  0.85629526790E+03  0.12508990145E+03 0.  0.
         23    2    1    2    0    0 -0.48656056082E+02  0.48358591399E+02  0.20904183555E+03  0.23777554510E+03  0.90181792409E+02 0.  0.
          5    1    3    3  502    0  0.52140784162E+02  0.24310054854E+02  0.20936915846E+03  0.21716942017E+03  0.41800000000E+01 0.  1.
         -5    1    3    3    0  502 -0.34847280804E+01 -0.72668646253E+02  0.63495787369E+03  0.63912584773E+03  0.41800000000E+01 0.  1.
        -11    1    4    4    0    0 -0.14614528060E+02 -0.26713532198E+02  0.47574957381E+02  0.56485164448E+02  0.00000000000E+00 0. -1.
         11    1    4    4    0    0 -0.34041528021E+02  0.75072123597E+02  0.16146687817E+03  0.18129038065E+03  0.00000000000E+00 0.  1.
</event>
<event>
 8    1  0.6635152E-009  0.3120328E+03  0.7561462E-02  0.1079376E+00
         -4   -1    0    0    0  501 -0.00000000000E+00  0.00000000000E+00  0.35956483184E+03  0.35956483184E+03  0.00000000000E+00 0.  1.
          4   -1    0    0  501    0  0.00000000000E+00 -0.00000000000E+00 -0.32091430504E+03  0.32091430504E+03  0.00000000000E+00 0. -1.
         25    2    1    2    0    0  0.95479761244E+02 -0.28523077382E+03  0.13368963990E+03  0.35212699338E+03  0.12509004961E+03 0.  0.
         23    2    1    2    0    0 -0.95479761244E+02  0.28523077382E+03 -0.95039113097E+02  0.32835214350E+03  0.91157654533E+02 0.  0.
          5    1    3    3  502    0 -0.54128272112E+01  0.80052638792E+01  0.18508034264E+02  0.21293254343E+02  0.41800000000E+01 0. -1.
         -5    1    3    3    0  502  0.10089258846E+03 -0.29323603770E+03  0.11518160564E+03  0.33083373904E+03  0.41800000000E+01 0. -1.
        -11    1    4    4    0    0 -0.85209623125E+02  0.19785042295E+03 -0.10529252985E+03  0.23977486644E+03  0.00000000000E+00 0. -1.
         11    1    4    4    0    0 -0.10270138119E+02  0.87380350869E+02  0.10253416758E+02  0.88577277054E+02  0.00000000000E+00 0.  1.
</event>
<event>
 8    1  0.6635152E-009  0.1418295E+03  0.7561462E-02  0.1210888E+00
         -3   -1    0    0    0  501 -0.00000000000E+00  0.00000000000E+00  0.17790534206E+02  0.17790534206E+02  0.00000000000E+00 0.  1.
          3   -1    0    0  501    0  0.00000000000E+00 -0.00000000000E+00 -0.14919980236E+04  0.14919980236E+04  0.00000000000E+00 0. -1.
         25    2    1    2    0    0  0.49836064617E+02  0.11108158384E+03 -0.81600720357E+03  0.83446802615E+03  0.12508548591E+03 0.  0.
         23    2    1    2    0    0 -0.49836064617E+02 -0.11108158384E+03 -0.65820028583E+03  0.67532053166E+03  0.89484370756E+02 0.  0.
          5    1    3    3  502    0  0.60947442867E+02  0.99623260608E+02 -0.80748523999E+03  0.81589783064E+03  0.41800000000E+01 0. -1.
         -5    1    3    3    0  502 -0.11111378250E+02  0.11458323234E+02 -0.85219635785E+01  0.18570195507E+02  0.41800000000E+01 0. -1.
        -11    1    4    4    0    0  0.25517550329E+02 -0.33902147155E+02 -0.15606916181E+03  0.16173461047E+03  0.00000000000E+00 0. -1.
         11    1    4    4    0    0 -0.75353614946E+02 -0.77179436687E+02 -0.50213112402E+03  0.51358592119E+03  0.00000000000E+00 0.  1.
</event>
<event>
 8    1  0.6635152E-009  0.2710738E+03  0.7561462E-02  0.1100667E+00
          2   -1    0    0  501    0  0.00000000000E+00  0.00000000000E+00  0.11681622668E+04  0.11681622668E+04  0.00000000000E+00 0. -1.
         -2   -1    0    0    0  501 -0.00000000000E+00 -0.00000000000E+00 -0.89390984538E+02  0.89390984538E+02  0.00000000000E+00 0.  1.
         25    2    1    2    0    0 -0.14504433314E+03  0.22133811132E+03  0.83641933940E+03  0.88615668198E+03  0.12509170876E+03 0.  0.
         23    2    1    2    0    0  0.14504433314E+03 -0.22133811132E+03  0.24235194288E+03  0.37139656938E+03  0.95773323150E+02 0.  0.
          5    1    3    3  502    0 -0.15562934021E+02  0.38472457129E+02  0.36461413485E+02  0.55400739582E+02  0.41800000000E+01 0.  1.
         -5    1    3    3    0  502 -0.12948139912E+03  0.18286565419E+03  0.79995792592E+03  0.83075594240E+03  0.41800000000E+01 0.  1.
        -11    1    4    4    0    0  0.81231611216E+02 -0.18696848844E+03  0.14561240871E+03  0.25051699323E+03  0.00000000000E+00 0.  1.
         11    1    4    4    0    0  0.63812721922E+02 -0.34369622885E+02  0.96739534175E+02  0.12087957614E+03  0.00000000000E+00 0. -1.
</event>
<event>
 8    1  0.6635152E-009  0.9914792E+02  0.7561462E-02  0.1282098E+00
         -4   -1    0    0    0  501 -0.00000000000E+00  0.00000000000E+00  0.38696903046E+03  0.38696903046E+03  0.00000000000E+00 0.  1.
          4   -1    0    0  501    0  0.00000000000E+00 -0.00000000000E+00 -0.46666500069E+02  0.46666500069E+02  0.00000000000E+00 0. -1.
         25    2    1    2    0    0 -0.38215762755E+02 -0.47566982420E+02  0.10636945263E+03  0.17517241704E+03  0.12509137820E+03 0.  0.
         23    2    1    2    0    0  0.38215762755E+02  0.47566982420E+02  0.23393307776E+03  0.25846311349E+03  0.91408062145E+02 0.  0.
          5    1    3    3  502    0 -0.31163141146E+02  0.82931526805E+01  0.11368297280E+03  0.11824216022E+03  0.41800000000E+01 0.  1.
         -5    1    3    3    0  502 -0.70526216094E+01 -0.55860135100E+02 -0.73135201686E+01  0.56930256826E+02  0.41800000000E+01 0.  1.
        -11    1    4    4    0    0 -0.24814773861E+02  0.38264583306E+02  0.11090349599E+03  0.11991470619E+03  0.00000000000E+00 0.  1.
         11    1    4    4    0    0  0.63030536616E+02  0.93023991136E+01  0.12302958177E+03  0.13854840730E+03  0.00000000000E+00 0. -1.
</event>
<event>
 8    1  0.6635152E-009  0.1600327E+03  0.7561462E-02  0.1188660E+00
         -2   -1    0    0    0  501 -0.00000000000E+00  0.00000000000E+00  0.17632700758E+02  0.17632700758E+02  0.00000000000E+00 0. -1.
          2   -1    0    0  501    0  0.00000000000E+00 -0.00000000000E+00 -0.26140135705E+04  0.26140135705E+04  0.00000000000E+00 0.  1.
         25    2    1    2    0    0  0.17689493131E+00  0.14614271665E+03 -0.20508473745E+04  0.20598495030E+04  0.12508915321E+03 0.  0.
         23    2    1    2    0    0 -0.17689493131E+00 -0.14614271665E+03 -0.54553349519E+03  0.57179676829E+03  0.89370156821E+02 0.  0.
          5    1    3    3  502    0  0.32071382804E+02  0.51550870771E+02 -0.29765357739E+03  0.30381110974E+03  0.41800000000E+01 0. -1.
         -5    1    3    3    0  502 -0.31894487872E+02  0.94591845880E+02 -0.17531937972E+04  0.17560383932E+04  0.41800000000E+01 0. -1.
        -11    1    4    4    0    0 -0.31781525758E+02 -0.73359009530E+02 -0.37879972900E+03  0.38714447478E+03  0.00000000000E+00 0.  1.
         11    1    4    4    0    0  0.31604630827E+02 -0.72783707120E+02 -0.16673376619E+03  0.18465229351E+03  0.00000000000E+00 0. -1.
</event>
<event>
 8    1  0.6635152E-009  0.8480489E+02  0.7561462E-02  0.1315944E+00
          2   -1    0    0  501    0  0.00000000000E+00  0.00000000000E+00  0.10847296128E+03  0.10847296128E+03  0.00000000000E+00 0. -1.
         -2   -1    0    0    0  501 -0.00000000000E+00 -0.00000000000E+00 -0.12075082390E+03  0.12075082390E+03  0.00000000000E+00 0.  1.
         25    2    1    2    0    0  0.27617441358E+02 -0.24807397676E+02 -0.11067811350E+02  0.13095047876E+03  0.12508957348E+03 0.  0.
         23    2    1    2    0    0 -0.27617441358E+02  0.24807397676E+02 -0.12100512688E+01  0.98273306418E+02  0.90983781432E+02 0.  0.
          5    1    3    3  502    0 -0.23510812839E+02 -0.23383646921E+02 -0.54358490505E+02  0.63811214952E+02  0.41800000000E+01 0.  1.
         -5    1    3    3    0  502  0.51128254197E+02 -0.14237507556E+01  0.43290679155E+02  0.67139263811E+02  0.41800000000E+01 0.  1.
        -11    1    4    4    0    0 -0.12760790213E+02 -0.27594406132E+02  0.23536461262E+02  0.38448069202E+02  0.00000000000E+00 0. -1.
         11    1    4    4    0    0 -0.14856651144E+02  0.52401803808E+02 -0.24746512531E+02  0.59825237216E+02  0.00000000000E+00 0.  1.
</event>
<event>
 8    1  0.6635152E-009  0.1233599E+03  0.7561462E-02  0.1237655E+00
         -1   -1    0    0    0  501 -0.00000000000E+00  0.00000000000E+00  0.18098813606E+03  0.18098813606E+03  0.00000000000E+00 0.  1.
          1   -1    0    0  501    0  0.00000000000E+00 -0.00000000000E+00 -0.92326297449E+02  0.92326297449E+02  0.00000000000E+00 0. -1.
         25    2    1    2    0    0  0.37153511045E+02 -0.52061854218E+02  0.73261580909E+02  0.15844600777E+03  0.12508820125E+03 0.  0.
         23    2    1    2    0    0 -0.37153511045E+02  0.52061854218E+02  0.15400257704E+02  0.11486842574E+03  0.94163513359E+02 0.  0.
          5    1    3    3  502    0 -0.40001672595E+02 -0.35996725003E+02  0.51910331262E+01  0.54224692219E+02  0.41800000000E+01 0. -1.
         -5    1    3    3    0  502  0.77155183640E+02 -0.16065129214E+02  0.68070547783E+02  0.10422131555E+03  0.41800000000E+01 0. -1.
        -11    1    4    4    0    0 -0.43643922764E+02  0.76752712598E+02  0.12515969548E+02  0.89176344280E+02  0.00000000000E+00 0.  1.
         11    1    4    4    0    0  0.64904117192E+01 -0.24690858380E+02  0.28842881563E+01  0.25692081465E+02  0.00000000000E+00 0. -1.
</event>
<event>
 8    1  0.6635152E-009  0.3383817E+03  0.7561462E-02  0.1067487E+00
         -1   -1    0    0    0  501 -0.00000000000E+00  0.00000000000E+00  0.10532806706E+03  0.10532806706E+03  0.00000000000E+00 0.  1.
          1   -1    0    0  501    0  0.00000000000E+00 -0.00000000000E+00 -0.11760605905E+04  0.11760605905E+04  0.00000000000E+00 0. -1.
         25    2    1    2    0    0 -0.26092521304E+03 -0.19809919978E+03 -0.69682519029E+03  0.78008858175E+03  0.12509032658E+03 0.  0.
         23    2    1    2    0    0  0.26092521304E+03  0.19809919978E+03 -0.37390733315E+03  0.50130007581E+03  0.64574085159E+02 0.  0.
          5    1    3    3  502    0  0.10250274803E+02 -0.30786201578E+01 -0.65305532157E+01  0.13216147734E+02  0.41800000000E+01 0. -1.
         -5    1    3    3    0  502 -0.27117548784E+03 -0.19502057962E+03 -0.69029463708E+03  0.76687243402E+03  0.41800000000E+01 0. -1.
        -11    1    4    4    0    0  0.83480194611E+02  0.93091425205E+02 -0.11113422382E+03  0.16728948575E+03  0.00000000000E+00 0.  1.
         11    1    4    4    0    0  0.17744501843E+03  0.10500777458E+03 -0.26277310933E+03  0.33401059006E+03  0.00000000000E+00 0. -1.
</event>
<event>
 8    1  0.6635152E-009  0.8738735E+02  0.7561462E-02  0.1309305E+00
          1   -1    0    0  501    0  0.00000000000E+00  0.00000000000E+00  0.14521951895E+02  0.14521951895E+02  0.00000000000E+00 0. -1.
         -1   -1    0    0    0  501 -0.00000000000E+00 -0.00000000000E+00 -0.11989273970E+04  0.11989273970E+04  0.00000000000E+00 0.  1.
         25    2    1    2    0    0 -0.35861443383E+02  0.59412671444E+01 -0.94291567611E+03  0.95187130471E+03  0.12509063399E+03 0.  0.
         23    2    1    2    0    0  0.35861443383E+02 -0.59412671444E+01 -0.24148976903E+03  0.26157804421E+03  0.93725252155E+02 0.  0.
          5    1    3    3  502    0  0.11635384543E+02 -0.25261014836E+02 -0.75458410825E+03  0.75510803854E+03  0.41800000000E+01 0. -1.
         -5    1    3    3    0  502 -0.47496827926E+02  0.31202281981E+02 -0.18833156785E+03  0.19676326617E+03  0.41800000000E+01 0. -1.
        -11    1    4    4    0    0  0.60978916151E+02  0.70580180530E+01 -0.21204114867E+03  0.22074802958E+03  0.00000000000E+00 0.  1.
         11    1    4    4    0    0 -0.25117472768E+02 -0.12999285197E+02 -0.29448620359E+02  0.40830014633E+02  0.00000000000E+00 0. -1.
</event>
<event>
 8    1  0.6635152E-009  0.1140571E+03  0.7561462E-02  0.1253236E+00
         -2   -1    0    0    0  501 -0.00000000000E+00  0.00000000000E+00  0.69724687624E+02  0.69724687624E+02  0.00000000000E+00 0.  1.
          2   -1    0    0  501    0  0.00000000000E+00 -0.00000000000E+00 -0.21295859334E+03  0.21295859334E+03  0.00000000000E+00 0. -1.
         25    2    1    2    0    0 -0.11359272464E+02  0.10267566031E+02 -0.11972284311E+03  0.17382625439E+03  0.12509017376E+03 0.  0.
         23    2    1    2    0    0  0.11359272464E+02 -0.10267566031E+02 -0.23511062612E+02  0.10885702657E+03  0.10517901970E+03 0.  0.
          5    1    3    3  502    0  0.47245227873E+01 -0.54998255254E+02 -0.74035029238E+02  0.92443426758E+02  0.41800000000E+01 0.  1.
         -5    1    3    3    0  502 -0.16083795251E+02  0.65265821285E+02 -0.45687813867E+02  0.81382827634E+02  0.41800000000E+01 0.  1.
        -11    1    4    4    0    0 -0.40713755670E+02 -0.29088196806E+02 -0.18153618247E+02  0.53228629041E+02  0.00000000000E+00 0. -1.
         11    1    4    4    0    0  0.52073028134E+02  0.18820630775E+02 -0.53574443648E+01  0.55628397531E+02  0.00000000000E+00 0.  1.
</event>
<event>
 7    1  0.6635152E-009  0.1923782E+03  0.7561462E-02  0.1156334E+00
          2   -1    0    0  501    0  0.00000000000E+00  0.00000000000E+00  0.49000829882E+03  0.49000829882E+03  0.00000000000E+00 0. -1.
         -2   -1    0    0    0  501 -0.00000000000E+00 -0.00000000000E+00 -0.90583059054E+02  0.90583059054E+02  0.00000000000E+00 0.  1.
         23    2    1    2    0    0  0.17622412687E+03 -0.15182418937E+02  0.14704695108E+03  0.24795113937E+03  0.92582465706E+02 0.  0.
          5    1    1    2  502    0 -0.16586435778E+03  0.48122968236E+02  0.16626464939E+03  0.23976699375E+03  0.41800000000E+01 0. -1.
         -5    1    1    2    0  502 -0.10359769090E+02 -0.32940549300E+02  0.86113639295E+02  0.92873224755E+02  0.41800000000E+01 0. -1.
        -11    1    3    3    0    0  0.11257013983E+03 -0.14989906945E+02  0.34565939892E+02  0.11870778362E+03  0.00000000000E+00 0.  1.
         11    1    3    3    0    0  0.63653987041E+02 -0.19251199184E+00  0.11248101119E+03  0.12924335575E+03  0.00000000000E+00 0. -1.
</event>
<event>
 8    1  0.6635152E-009  0.1941775E+03  0.7561462E-02  0.1154747E+00
          4   -1    0    0  501    0  0.00000000000E+00  0.00000000000E+00  0.10978173531E+04  0.10978173531E+04  0.00000000000E+00 0. -1.
         -4   -1    0    0    0  501 -0.00000000000E+00 -0.00000000000E+00 -0.40799219184E+02  0.40799219184E+02  0.00000000000E+00 0.  1.
         25    2    1    2    0    0  0.81371092483E+02 -0.14506505789E+03  0.35401950441E+03  0.41066197622E+03  0.12509325921E+03 0.  0.
         23    2    1    2    0    0 -0.81371092483E+02  0.14506505789E+03  0.70299862952E+03  0.72795459608E+03  0.89697798909E+02 0.  0.
          5    1    3    3  502    0 -0.28039316477E+02 -0.26785747359E+01  0.46200560247E+02  0.54271006977E+02  0.41800000000E+01 0. -1.
         -5    1    3    3    0  502  0.10941040896E+03 -0.14238648315E+03  0.30781894416E+03  0.35639096925E+03  0.41800000000E+01 0. -1.
        -11    1    4    4    0    0 -0.60298074055E+00  0.69987873049E+02  0.17330851962E+03  0.18690775514E+03  0.00000000000E+00 0. -1.
         11    1    4    4    0    0 -0.80768111743E+02  0.75077184841E+02  0.52969010990E+03  0.54104684094E+03  0.00000000000E+00 0.  1.
</event>
<event>
 8    1  0.6635152E-009  0.1745908E+03  0.7561462E-02  0.1173143E+00
         -2   -1    0    0    0  501 -0.00000000000E+00  0.00000000000E+00  0.17571408676E+03  0.17571408676E+03  0.00000000000E+00 0.  1.
          2   -1    0    0  501    0  0.00000000000E+00 -0.00000000000E+00 -0.20811789041E+03  0.20811789041E+03  0.00000000000E+00 0. -1.
         25    2    1    2    0    0  0.25369954068E+02 -0.14239649109E+03 -0.78765690616E+02  0.20681246329E+03  0.12508783198E+03 0.  0.
         23    2    1    2    0    0 -0.25369954068E+02  0.14239649109E+03  0.46361886968E+02  0.17701951388E+03  0.90918031698E+02 0.  0.
          5    1    3    3  502    0  0.88029513632E+01  0.16738853874E+02 -0.36428406169E+02  0.41257512743E+02  0.41800000000E+01 0.  1.
         -5    1    3    3    0  502  0.16567002705E+02 -0.15913534496E+03 -0.42337284447E+02  0.16555495054E+03  0.41800000000E+01 0.  1.
        -11    1    4    4    0    0 -0.44620732071E+02  0.25707550549E+02  0.50413245149E+01  0.51742659756E+02  0.00000000000E+00 0. -1.
         11    1    4    4    0    0  0.19250778003E+02  0.11668894054E+03  0.41320562453E+02  0.12527685412E+03  0.00000000000E+00 0.  1.
</event>
<event>
 8    1  0.6635152E-009  0.2820854E+03  0.7561462E-02  0.1094555E+00
          1   -1    0    0  501    0  0.00000000000E+00  0.00000000000E+00  0.91265243318E+03  0.91265243318E+03  0.00000000000E+00 0. -1.
         -1   -1    0    0    0  501 -0.00000000000E+00 -0.00000000000E+00 -0.91944812322E+02  0.91944812322E+02  0.00000000000E+00 0.  1.
         25    2    1    2    0    0 -0.26766047252E+03  0.15269217018E+02  0.43255461138E+03  0.52404794476E+03  0.12508988389E+03 0.  0.
         23    2    1    2    0    0  0.26766047252E+03 -0.15269217018E+02  0.38815300948E+03  0.48054930074E+03  0.91594727664E+02 0.  0.
          5    1    3    3  502    0 -0.39327365244E+02  0.51119468167E+02  0.98202802723E+02  0.11756319384E+03  0.41800000000E+01 0.  1.
         -5    1    3    3    0  502 -0.22833310727E+03 -0.35850251150E+02  0.33435180865E+03  0.40648475092E+03  0.41800000000E+01 0.  1.
        -11    1    4    4    0    0  0.18413778439E+03 -0.16134165008E+02  0.18791731621E+03  0.26359050182E+03  0.00000000000E+00 0. -1.
         11    1    4    4    0    0  0.83522688126E+02  0.86494799004E+00  0.20023569327E+03  0.21695879891E+03  0.00000000000E+00 0.  1.
</event>
<event>
 8    1  0.6635152E-009  0.1152756E+03  0.7561462E-02  0.1251101E+00
         -2   -1    0    0    0  501 -0.00000000000E+00  0.00000000000E+00  0.46654290131E+02  0.46654290131E+02  0.00000000000E+00 0.  1.
          2   -1    0    0  501    0  0.00000000000E+00 -0.00000000000E+00 -0.30861024398E+03  0.30861024398E+03  0.00000000000E+00 0. -1.
         25    2    1    2    0    0 -0.49631557054E+02  0.22783681898E+02 -0.16585966850E+03  0.21480066037E+03  0.12508999338E+03 0.  0.
         23    2    1    2    0    0  0.49631557054E+02 -0.22783681898E+02 -0.96096285343E+02  0.14046387374E+03  0.86678810285E+02 0.  0.
          5    1    3    3  502    0 -0.44933905415E+02 -0.43568814164E+02 -0.11487742594E+03  0.13088771071E+03  0.41800000000E+01 0.  1.
         -5    1    3    3    0  502 -0.46976516392E+01  0.66352496062E+02 -0.50982242563E+02  0.83912949664E+02  0.41800000000E+01 0.  1.
        -11    1    4    4    0    0  0.56378258638E+02 -0.48634593476E+02 -0.79930426647E+02  0.10923692065E+03  0.00000000000E+00 0. -1.
         11    1    4    4    0    0 -0.67467015838E+01  0.25850911578E+02 -0.16165858696E+02  0.31226953086E+02  0.00000000000E+00 0.  1.
</event>
<event>
 8    1  0.6635152E-009  0.1360305E+03  0.7561462E-02  0.1218772E+00
         -2   -1    0    0    0  501 -0.00000000000E+00  0.00000000000E+00  0.58645249277E+03  0.58645249277E+03  0.00000000000E+00 0.  1.
          2   -1    0    0  501    0  0.00000000000E+00 -0.00000000000E+00 -0.42644272325E+02  0.42644272325E+02  0.00000000000E+00 0. -1.
         25    2    1    2    0    0  0.82622552429E+02 -0.39113553355E+02  0.15486848065E+03  0.21906165011E+03  0.12508958398E+03 0.  0.
         23    2    1    2    0    0 -0.82622552429E+02  0.39113553355E+02  0.38893973979E+03  0.41003511499E+03  0.92186322789E+02 0.  0.
          5    1    3    3  502    0  0.84189368476E+02 -0.74822469999E+02  0.87516808786E+02  0.14269868956E+03  0.41800000000E+01 0. -1.
         -5    1    3    3    0  502 -0.15668160470E+01  0.35708916644E+02  0.67351671867E+02  0.76362960548E+02  0.41800000000E+01 0. -1.
        -11    1    4    4    0    0 -0.63017888128E+02  0.65235905816E+02  0.21994771844E+03  0.23791590211E+03  0.00000000000E+00 0.  1.
         11    1    4    4    0    0 -0.19604664301E+02 -0.26122352461E+02  0.16899202135E+03  0.17211921287E+03  0.00000000000E+00 0. -1.
</event>
<event>
 8    1  0.6635152E-009  0.5781612E+02  0.7561462E-02  0.1407232E+00
          1   -1    0    0  501    0  0.00000000000E+00  0.00000000000E+00  0.36108453876E+03  0.36108453876E+03  0.00000000000E+00 0. -1.
         -1   -1    0    0    0  501 -0.00000000000E+00 -0.00000000000E+00 -0.36667682499E+02  0.36667682499E+02  0.00000000000E+00 0.  1.
         25    2    1    2    0    0  0.28908875486E+02 -0.19941220532E+02  0.15430203852E+03  0.20171480444E+03  0.12508544231E+03 0.  0.
         23    2    1    2    0    0 -0.28908875486E+02  0.19941220532E+02  0.17011481774E+03  0.19603741683E+03  0.90874871239E+02 0.  0.
          5    1    3    3  502    0 -0.54715694092E+01 -0.24568449881E+01 -0.20966051965E+02  0.22204096336E+02  0.41800000000E+01 0. -1.
         -5    1    3    3    0  502  0.34380444895E+02 -0.17484375544E+02  0.17526809049E+03  0.17951070810E+03  0.41800000000E+01 0. -1.
        -11    1    4    4    0    0  0.15795080575E+02  0.19137086567E+02  0.54428892482E+01  0.25403497712E+02  0.00000000000E+00 0.  1.
         11    1    4    4    0    0 -0.44703956061E+02  0.80413396566E+00  0.16467192849E+03  0.17063391911E+03  0.00000000000E+00 0. -1.
</event>
<event>
 8    1  0.6635152E-009  0.1200811E+03  0.7561462E-02  0.1242963E+00
         -2   -1    0    0    0  501 -0.00000000000E+00  0.00000000000E+00  0.23044052414E+03  0.23044052414E+03  0.00000000000E+00 0.  1.
          2   -1    0    0  501    0  0.00000000000E+00 -0.00000000000E+00 -0.83737887494E+02  0.83737887494E+02  0.00000000000E+00 0. -1.
         25    2    1    2    0    0  0.49262394351E+02 -0.53109346858E+02  0.13481362581E+03  0.19766024876E+03  0.12508986375E+03 0.  0.
         23    2    1    2    0    0 -0.49262394351E+02  0.53109346858E+02  0.11889010830E+02  0.11651816287E+03  0.90486172865E+02 0.  0.
          5    1    3    3  502    0 -0.33448832638E+02  0.96459956131E+00  0.74594787421E+02  0.81863359127E+02  0.41800000000E+01 0. -1.
         -5    1    3    3    0  502  0.82711226989E+02 -0.54073946419E+02  0.60218838394E+02  0.11579688963E+03  0.41800000000E+01 0. -1.
        -11    1    4    4    0    0 -0.70711957473E+02  0.32634424885E+02  0.28013725715E+02  0.82764457623E+02  0.00000000000E+00 0.  1.
         11    1    4    4    0    0  0.21449563122E+02  0.20474921973E+02 -0.16124714885E+02  0.33753705249E+02  0.00000000000E+00 0. -1.
</event>
<event>
 8    1  0.6635152E-009  0.1608785E+03  0.7561462E-02  0.1187708E+00
         -2   -1    0    0    0  501 -0.00000000000E+00  0.00000000000E+00  0.81596792023E+02  0.81596792023E+02  0.00000000000E+00 0.  1.
          2   -1    0    0  501    0  0.00000000000E+00 -0.00000000000E+00 -0.42559657887E+03  0.42559657887E+03  0.00000000000E+00 0. -1.
         25    2    1    2    0    0  0.83868277838E+02 -0.90982826211E+02 -0.62777767412E+02  0.18681073615E+03  0.12508173475E+03 0.  0.
         23    2    1    2    0    0 -0.83868277838E+02  0.90982826211E+02 -0.28122201944E+03  0.32038263474E+03  0.90815448768E+02 0.  0.
          5    1    3    3  502    0  0.54189530186E+02  0.21920688290E+02 -0.27859524232E+02  0.64889500286E+02  0.41800000000E+01 0. -1.
         -5    1    3    3    0  502  0.29678747653E+02 -0.11290351450E+03 -0.34918243181E+02  0.12192123587E+03  0.41800000000E+01 0. -1.
        -11    1    4    4    0    0 -0.50169860769E+02  0.92059018839E+00 -0.14655807431E+03  0.15491007572E+03  0.00000000000E+00 0.  1.
         11    1    4    4    0    0 -0.33698417070E+02  0.90062236022E+02 -0.13466394513E+03  0.16547255902E+03  0.00000000000E+00 0. -1.
</event>
<event>
 8    1  0.6635152E-009  0.1004259E+03  0.7561462E-02  0.1279403E+00
          1   -1    0    0  501    0  0.00000000000E+00  0.00000000000E+00  0.27047427398E+03  0.27047427398E+03  0.00000000000E+00 0. -1.
         -1   -1    0    0    0  501 -0.00000000000E+00 -0.00000000000E+00 -0.62143947477E+02  0.62143947477E+02  0.00000000000E+00 0.  1.
         25    2    1    2    0    0  0.61027372476E+00 -0.66905462855E+02  0.87601961741E+02  0.16672654100E+03  0.12508765878E+03 0.  0.
         23    2    1    2    0    0 -0.61027372476E+00  0.66905462855E+02  0.12072836476E+03  0.16589168046E+03  0.92021726742E+02 0.  0.
          5    1    3    3  502    0 -0.26369075676E+02 -0.12892234044E+01  0.91722521784E+02  0.95537865014E+02  0.41800000000E+01 0. -1.
         -5    1    3    3    0  502  0.26979349401E+02 -0.65616239451E+02 -0.41205600430E+01  0.71188675987E+02  0.41800000000E+01 0. -1.
        -11    1    4    4    0    0  0.37784548282E+02  0.21073224372E+02  0.87201092786E+02  0.97343635937E+02  0.00000000000E+00 0. -1.
         11    1    4    4    0    0 -0.38394822006E+02  0.45832238483E+02  0.33527271975E+02  0.68548044519E+02  0.00000000000E+00 0.  1.
</event>
<event>
 8    1  0.6635152E-009  0.2052072E+03  0.7561462E-02  0.1145419E+00
         -2   -1    0    0    0  501 -0.00000000000E+00  0.00000000000E+00  0.10987497759E+03  0.10987497759E+03  0.00000000000E+00 0.  1.
          2   -1    0    0  501    0  0.00000000000E+00 -0.00000000000E+00 -0.42156262141E+03  0.42156262141E+03  0.00000000000E+00 0. -1.
         25    2    1    2    0    0 -0.25326328026E+02 -0.18169351104E+03 -0.12317190472E+03  0.25391373591E+03  0.12508761860E+03 0.  0.
         23    2    1    2    0    0  0.25326328026E+02  0.18169351104E+03 -0.18851573911E+03  0.27752386309E+03  0.88472345121E+02 0.  0.
          5    1    3    3  502    0 -0.62558958584E+02 -0.11391863321E+03 -0.31280870590E+02  0.13374245234E+03  0.41800000000E+01 0.  1.
         -5    1    3    3    0  502  0.37232630557E+02 -0.67774877824E+02 -0.91891034129E+02  0.12017128357E+03  0.41800000000E+01 0.  1.
        -11    1    4    4    0    0  0.50352701843E+02  0.16583822890E+03 -0.15220179167E+03  0.23065796785E+03  0.00000000000E+00 0. -1.
         11    1    4    4    0    0 -0.25026373816E+02  0.15855282138E+02 -0.36313947440E+02  0.46865895241E+02  0.00000000000E+00 0.  1.
</event>
<event>
 8    1  0.6635152E-009  0.7163774E+02  0.7561462E-02  0.1354611E+00
         -3   -1    0    0    0  501 -0.00000000000E+00  0.00000000000E+00  0.14263434393E+03  0.14263434393E+03  0.00000000000E+00 0.  1.
          3   -1    0    0  501    0  0.00000000000E+00 -0.00000000000E+00 -0.21226630202E+03  0.21226630202E+03  0.00000000000E+00 0. -1.
         25    2    1    2    0    0 -0.35245091964E+02 -0.58769447763E+02 -0.15577904066E+03  0.21120838228E+03  0.12508319925E+03 0.  0.
         23    2    1    2    0    0  0.35245091964E+02  0.58769447763E+02  0.86147082572E+02  0.14369226368E+03  0.92358444702E+02 0.  0.
          5    1    3    3  502    0 -0.22759464443E+02 -0.29189367049E+02  0.12923263744E+02  0.39427091146E+02  0.41800000000E+01 0. -1.
         -5    1    3    3    0  502 -0.12485627522E+02 -0.29580080715E+02 -0.16870230441E+03  0.17178129113E+03  0.41800000000E+01 0. -1.
        -11    1    4    4    0    0 -0.16756892897E+01  0.20151137285E+02  0.87939697914E+02  0.90234509683E+02  0.00000000000E+00 0.  1.
         11    1    4    4    0    0  0.36920781254E+02  0.38618310479E+02 -0.17926153417E+01  0.53457753997E+02  0.00000000000E+00 0. -1.
</event>
<event>
 8    1  0.6635152E-009  0.1386008E+03  0.7561462E-02  0.1215224E+00
         -1   -1    0    0    0  501 -0.00000000000E+00  0.00000000000E+00  0.11744805350E+03  0.11744805350E+03  0.00000000000E+00 0.  1.
          1   -1    0    0  501    0  0.00000000000E+00 -0.00000000000E+00 -0.51022341283E+03  0.51022341283E+03  0.00000000000E+00 0. -1.
         25    2    1    2    0    0 -0.39212380296E+02 -0.93147679489E+02  0.46873831894E+02  0.16755116657E+03  0.12514845720E+03 0.  0.
         23    2    1    2    0    0  0.39212380296E+02  0.93147679489E+02 -0.43964919123E+03  0.46012029976E+03  0.90582437241E+02 0.  0.
          5    1    3    3  502    0  0.26756007304E+02 -0.68364895288E+02  0.61019995570E+02  0.95553938140E+02  0.41800000000E+01 0.  1.
         -5    1    3    3    0  502 -0.65968387600E+02 -0.24782784201E+02 -0.14146163676E+02  0.71997228433E+02  0.41800000000E+01 0.  1.
        -11    1    4    4    0    0 -0.23719816559E+02  0.41587127917E+01 -0.12021588973E+03  0.12260417910E+03  0.00000000000E+00 0. -1.
         11    1    4    4    0    0  0.62932196854E+02  0.88988966698E+02 -0.31943330150E+03  0.33751612066E+03  0.00000000000E+00 0.  1.
</event>
<event>
 8    1  0.6635152E-009  0.1805518E+03  0.7561462E-02  0.1167270E+00
          1   -1    0    0  501    0  0.00000000000E+00  0.00000000000E+00  0.29325819277E+03  0.29325819277E+03  0.00000000000E+00 0. -1.
         -1   -1    0    0    0  501 -0.00000000000E+00 -0.00000000000E+00 -0.14346934145E+03  0.14346934145E+03  0.00000000000E+00 0.  1.
         25    2    1    2    0    0  0.13161871094E+03 -0.79563136500E+02  0.16421770676E+03  0.25742775612E+03  0.12509123329E+03 0.  0.
         23    2    1    2    0    0 -0.13161871094E+03  0.79563136500E+02 -0.14428855439E+02  0.17929977810E+03  0.91029889585E+02 0.  0.
          5    1    3    3  502    0  0.98337901976E+02 -0.26285075560E+01  0.37342980355E+02  0.10530537782E+03  0.41800000000E+01 0.  1.
         -5    1    3    3    0  502  0.33280808968E+02 -0.76934628944E+02  0.12687472641E+03  0.15212237829E+03  0.41800000000E+01 0.  1.
        -11    1    4    4    0    0 -0.41648100825E+02  0.78353331412E+02 -0.78372665573E+01  0.89079916888E+02  0.00000000000E+00 0.  1.
         11    1    4    4    0    0 -0.89970610119E+02  0.12098050881E+01 -0.65915888819E+01  0.90219861214E+02  0.00000000000E+00 0. -1.
</event>
<event>
 8    1  0.6635152E-009  0.8229592E+02  0.7561462E-02  0.1322659E+00
         -2   -1    0    0    0  501 -0.00000000000E+00  0.00000000000E+00  0.33468900473E+02  0.33468900473E+02  0.00000000000E+00 0.  1.
          2   -1    0    0  501    0  0.00000000000E+00 -0.00000000000E+00 -0.40038382200E+03  0.40038382200E+03  0.00000000000E+00 0. -1.
         25    2    1    2    0    0  0.16935933635E+02  0.37013610970E+02 -0.21994249493E+03  0.25627743074E+03  0.12508631894E+03 0.  0.
         23    2    1    2    0    0 -0.16935933635E+02 -0.37013610970E+02 -0.14697242660E+03  0.17757529174E+03  0.90968438531E+02 0.  0.
          5    1    3    3  502    0  0.10307637239E+02 -0.33263147889E+02 -0.15932331424E+03  0.16313820906E+03  0.41800000000E+01 0. -1.
         -5    1    3    3    0  502  0.66282963958E+01  0.70276758858E+02 -0.60619180685E+02  0.93139221683E+02  0.41800000000E+01 0. -1.
        -11    1    4    4    0    0  0.89297097939E+01 -0.30986290054E+02 -0.14752760403E+03  0.15101087325E+03  0.00000000000E+00 0. -1.
         11    1    4    4    0    0 -0.25865643429E+02 -0.60273209157E+01  0.55517743218E+00  0.26564418484E+02  0.00000000000E+00 0.  1.
</event>
<event>
 8    1  0.6635152E-009  0.9534447E+02  0.7561462E-02  0.1290402E+00
         -4   -1    0    0    0  501 -0.00000000000E+00  0.00000000000E+00  0.28873515429E+02  0.28873515429E+02  0.00000000000E+00 0.  1.
          4   -1    0    0  501    0  0.00000000000E+00 -0.00000000000E+00 -0.56790792421E+03  0.56790792421E+03  0.00000000000E+00 0. -1.
         25    2    1    2    0    0 -0.34900537023E+02  0.49156010634E+01 -0.43873115213E+03  0.45757533097E+03  0.12509176249E+03 0.  0.
         23    2    1    2    0    0  0.34900537023E+02 -0.49156010634E+01 -0.10030325665E+03  0.13920610867E+03  0.89863155841E+02 0.  0.
          5    1    3    3  502    0 -0.39549149626E+02 -0.35509270348E+02 -0.77690996659E+02  0.94225298506E+02  0.41800000000E+01 0.  1.
         -5    1    3    3    0  502  0.46486126034E+01  0.40424871412E+02 -0.36104015548E+03  0.36335003247E+03  0.41800000000E+01 0.  1.
        -11    1    4    4    0    0  0.20609709321E+02 -0.47377460772E+02 -0.56151267189E+02  0.76304316487E+02  0.00000000000E+00 0.  1.
         11    1    4    4    0    0  0.14290827702E+02  0.42461859709E+02 -0.44151989460E+02  0.62901792181E+02  0.00000000000E+00 0. -1.
</event>
<event>
 8    1  0.6635152E-009  0.1258808E+03  0.7561462E-02  0.1233699E+00
          1   -1    0    0  501    0  0.00000000000E+00  0.00000000000E+00  0.14174848481E+04  0.14174848481E+04  0.00000000000E+00 0. -1.
         -1   -1    0    0    0  501 -0.00000000000E+00 -0.00000000000E+00 -0.26236282660E+02  0.26236282660E+02  0.00000000000E+00 0.  1.
         25    2    1    2    0    0  0.79618372853E+02  0.37850900495E+02  0.12246265088E+04  0.12341508986E+04  0.12508628400E+03 0.  0.
         23    2    1    2    0    0 -0.79618372853E+02 -0.37850900495E+02  0.16662205664E+03  0.20957023219E+03  0.91569626480E+02 0.  0.
          5    1    3    3  502    0  0.31881284378E+02 -0.28395286311E+02  0.83182645673E+03  0.83293183100E+03  0.41800000000E+01 0.  1.
         -5    1    3    3    0  502  0.47737088475E+02  0.66246186806E+02  0.39280005207E+03  0.40121906758E+03  0.41800000000E+01 0.  1.
        -11    1    4    4    0    0  0.63833546480E+01 -0.40559631804E+02  0.52871696387E+02  0.66942118487E+02  0.00000000000E+00 0.  1.
         11    1    4    4    0    0 -0.86001727501E+02  0.27087313097E+01  0.11375036026E+03  0.14262811370E+03  0.00000000000E+00 0. -1.
</event>
<event>
 8    1  0.6635152E-009  0.1530709E+03  0.7561462E-02  0.1196750E+00
          3   -1    0    0  501    0  0.00000000000E+00  0.00000000000E+00  0.49046010993E+02  0.49046010993E+02  0.00000000000E+00 0. -1.
         -3   -1    0    0    0  501 -0.00000000000E+00 -0.00000000000E+00 -0.68591184422E+03  0.68591184422E+03  0.00000000000E+00 0.  1.
         25    2    1    2    0    0 -0.11250798681E+03  0.52118277163E+02 -0.48549504332E+03  0.51645657137E+03  0.12509033185E+03 0.  0.
         23    2    1    2    0    0  0.11250798681E+03 -0.52118277163E+02 -0.15137078991E+03  0.21850128384E+03  0.97238537066E+02 0.  0.
          5    1    3    3  502    0 -0.11788610176E+03  0.70081517051E+02 -0.29904802350E+03  0.32902240771E+03  0.41800000000E+01 0.  1.
         -5    1    3    3    0  502  0.53781149539E+01 -0.17963239889E+02 -0.18644701982E+03  0.18743416366E+03  0.41800000000E+01 0.  1.
        -11    1    4    4    0    0  0.12533685623E+03 -0.38740358135E+02 -0.15091077999E+03  0.19996051209E+03  0.00000000000E+00 0.  1.
         11    1    4    4    0    0 -0.12828869419E+02 -0.13377919027E+02 -0.46000992511E+00  0.18540771753E+02  0.00000000000E+00 0. -1.
</event>
<event>
 8    1  0.6635152E-009  0.8590752E+02  0.7561462E-02  0.1313076E+00
         -4   -1    0    0    0  501 -0.00000000000E+00  0.00000000000E+00  0.40659270132E+02  0.40659270132E+02  0.00000000000E+00 0. -1.
          4   -1    0    0  501    0  0.00000000000E+00 -0.00000000000E+00 -0.42161336539E+03  0.42161336539E+03  0.00000000000E+00 0.  1.
         25    2    1    2    0    0 -0.56217508245E+02 -0.20562043342E+02 -0.28253984506E+03  0.31473798416E+03  0.12509208116E+03 0.  0.
         23    2    1    2    0    0  0.56217508245E+02  0.20562043342E+02 -0.98414250195E+02  0.14753465135E+03  0.92184070474E+02 0.  0.
          5    1    3    3  502    0 -0.71899492694E+02 -0.12111883109E+01 -0.69123779322E+02  0.99832726571E+02  0.41800000000E+01 0.  1.
         -5    1    3    3    0  502  0.15681984449E+02 -0.19350855031E+02 -0.21341606574E+03  0.21490525759E+03  0.41800000000E+01 0.  1.
        -11    1    4    4    0    0  0.16904941533E+02 -0.14179541008E+02  0.12125459350E+02  0.25176639884E+02  0.00000000000E+00 0. -1.
         11    1    4    4    0    0  0.39312566713E+02  0.34741584350E+02 -0.11053970954E+03  0.12235801147E+03  0.00000000000E+00 0.  1.
</event>
<event>
 8    1  0.6635152E-009  0.1554707E+03  0.7561462E-02  0.1193907E+00
         -2   -1    0    0    0  501 -0.00000000000E+00  0.00000000000E+00  0.35423939234E+02  0.35423939234E+02  0.00000000000E+00 0. -1.
          2   -1    0    0  501    0  0.00000000000E+00 -0.00000000000E+00 -0.80242469537E+03  0.80242469537E+03  0.00000000000E+00 0.  1.
         25    2    1    2    0    0  0.19612082522E+02 -0.12548212208E+03 -0.36035426684E+03  0.40203604019E+03  0.12508950091E+03 0.  0.
         23    2    1    2    0    0 -0.19612082522E+02  0.12548212208E+03 -0.40664648930E+03  0.43581259442E+03  0.91874117407E+02 0.  0.
          5    1    3    3  502    0  0.38243148239E+02 -0.49205775441E+01 -0.18084507493E+03  0.18495719504E+03  0.41800000000E+01 0.  1.
         -5    1    3    3    0  502 -0.18631065718E+02 -0.12056154454E+03 -0.17950919190E+03  0.21707884514E+03  0.41800000000E+01 0.  1.
        -11    1    4    4    0    0 -0.50017683140E+02  0.93020905005E+02 -0.33711895926E+03  0.35327588382E+03  0.00000000000E+00 0.  1.
         11    1    4    4    0    0  0.30405600618E+02  0.32461217078E+02 -0.69527530043E+02  0.82536710602E+02  0.00000000000E+00 0. -1.
</event>
<event>
 8    1  0.6635152E-009  0.1061469E+03  0.7561462E-02  0.1267876E+00
          2   -1    0    0  501    0  0.00000000000E+00  0.00000000000E+00  0.33166235380E+03  0.33166235380E+03  0.00000000000E+00 0. -1.
         -2   -1    0    0    0  501 -0.00000000000E+00 -0.00000000000E+00 -0.37249374547E+02  0.37249374547E+02  0.00000000000E+00 0.  1.
         25    2    1    2    0    0 -0.62221649354E+01  0.25565147399E+01  0.12442863219E+03  0.17656671178E+03  0.12509223835E+03 0.  0.
         23    2    1    2    0    0  0.62221649354E+01 -0.25565147399E+01  0.16998434706E+03  0.19234501657E+03  0.89758988675E+02 0.  0.
          5    1    3    3  502    0  0.22334796102E+01  0.63008719536E+02  0.52624527206E+02  0.82230775458E+02  0.41800000000E+01 0.  1.
         -5    1    3    3    0  502 -0.84556445456E+01 -0.60452204796E+02  0.71804104987E+02  0.94335936325E+02  0.41800000000E+01 0.  1.
        -11    1    4    4    0    0  0.41470074171E+00 -0.45041483602E+02  0.10757243241E+03  0.11662219101E+03  0.00000000000E+00 0. -1.
         11    1    4    4    0    0  0.58074641936E+01  0.42484968862E+02  0.62411914652E+02  0.75722825555E+02  0.00000000000E+00 0.  1.
</event>
<event>
 8    1  0.6635152E-009  0.7670891E+02  0.7561462E-02  0.1338659E+00
         -1   -1    0    0    0  501 -0.00000000000E+00  0.00000000000E+00  0.64486400921E+02  0.64486400921E+02  0.00000000000E+00 0.  1.
          1   -1    0    0  501    0  0.00000000000E+00 -0.00000000000E+00 -0.26373319690E+03  0.26373319690E+03  0.00000000000E+00 0. -1.
         25    2    1    2    0    0 -0.31559463511E+02 -0.29733367589E+02 -0.18889619566E+03  0.23067255020E+03  0.12509188541E+03 0.  0.
         23    2    1    2    0    0  0.31559463511E+02  0.29733367589E+02 -0.10350600323E+02  0.97547047628E+02  0.86765308093E+02 0.  0.
          5    1    3    3  502    0 -0.55899168611E+02 -0.37708248911E+02 -0.19292338292E+03  0.20441020808E+03  0.41800000000E+01 0.  1.
         -5    1    3    3    0  502  0.24339705101E+02  0.79748813221E+01  0.40271872618E+01  0.26262342122E+02  0.41800000000E+01 0.  1.
        -11    1    4    4    0    0  0.25426943769E+02 -0.38962808475E+01 -0.43109108734E+02  0.50200654675E+02  0.00000000000E+00 0. -1.
         11    1    4    4    0    0  0.61325197414E+01  0.33629648437E+02  0.32758508411E+02  0.47346392953E+02  0.00000000000E+00 0.  1.
</event>
<event>
 8    1  0.6635152E-009  0.8881074E+02  0.7561462E-02  0.1305757E+00
          2   -1    0    0  501    0  0.00000000000E+00  0.00000000000E+00  0.89630100752E+03  0.89630100752E+03  0.00000000000E+00 0. -1.
         -2   -1    0    0    0  501 -0.00000000000E+00 -0.00000000000E+00 -0.18399433328E+02  0.18399433328E+02  0.00000000000E+00 0.  1.
         25    2    1    2    0    0  0.20399276483E+02 -0.32738507329E+02  0.70563584051E+03  0.71767486764E+03  0.12508931161E+03 0.  0.
         23    2    1    2    0    0 -0.20399276483E+02  0.32738507329E+02  0.17226573368E+03  0.19702557321E+03  0.87496589394E+02 0.  0.
          5    1    3    3  502    0 -0.24474517135E+02 -0.36811292859E+02  0.89790649207E+02  0.10016938832E+03  0.41800000000E+01 0. -1.
         -5    1    3    3    0  502  0.44873793618E+02  0.40727855298E+01  0.61584519130E+03  0.61750547932E+03  0.41800000000E+01 0. -1.
        -11    1    4    4    0    0 -0.50224897573E+02  0.28764028819E+02  0.14611402427E+03  0.15715984786E+03  0.00000000000E+00 0. -1.
         11    1    4    4    0    0  0.29825621090E+02  0.39744785102E+01  0.26151709407E+02  0.39865725351E+02  0.00000000000E+00 0.  1.
</event>
<event>
 8    1  0.6635152E-009  0.1150416E+03  0.7561462E-02  0.1251508E+00
         -1   -1    0    0    0  501 -0.00000000000E+00  0.00000000000E+00  0.10754460478E+03  0.10754460478E+03  0.00000000000E+00 0.  1.
          1   -1    0    0  501    0  0.00000000000E+00 -0.00000000000E+00 -0.13354498977E+03  0.13354498977E+03  0.00000000000E+00 0. -1.
         25    2    1    2    0    0 -0.21880377365E+02 -0.45822383797E+02 -0.24994012478E+02  0.13729528216E+03  0.12508737776E+03 0.  0.
         23    2    1    2    0    0  0.21880377365E+02  0.45822383797E+02 -0.10063725132E+01  0.10379431239E+03  0.90519637249E+02 0.  0.
          5    1    3    3  502    0  0.47049098019E+02 -0.41426361194E+02 -0.26244181561E+02  0.68088108301E+02  0.41800000000E+01 0.  1.
         -5    1    3    3    0  502 -0.68929475384E+02 -0.43960226036E+01  0.12501690828E+01  0.69207173864E+02  0.41800000000E+01 0.  1.
        -11    1    4    4    0    0  0.38442585298E+02 -0.10091551654E+02 -0.17147524839E+02  0.43286364912E+02  0.00000000000E+00 0. -1.
         11    1    4    4    0    0 -0.16562207933E+02  0.55913935451E+02  0.16141152325E+02  0.60507947475E+02  0.00000000000E+00 0.  1.
</event>
<event>
 8    1  0.6635152E-009  0.4483784E+02  0.7561462E-02  0.1475357E+00
          4   -1    0    0  501    0  0.00000000000E+00  0.00000000000E+00  0.76569648778E+02  0.76569648778E+02  0.00000000000E+00 0. -1.
         -4   -1    0    0    0  501 -0.00000000000E+00 -0.00000000000E+00 -0.19102408082E+03  0.19102408082E+03  0.00000000000E+00 0.  1.
         25    2    1    2    0    0  0.13420212672E+02  0.11223775604E+02 -0.74693121822E+01  0.12653385143E+03  0.12509576207E+03 0.  0.
         23    2    1    2    0    0 -0.13420212672E+02 -0.11223775604E+02 -0.10698511986E+03  0.14105987817E+03  0.90255183283E+02 0.  0.
          5    1    3    3  502    0  0.22389091993E+02 -0.11619553433E+02  0.54255234157E+02  0.59978231848E+02  0.41800000000E+01 0. -1.
         -5    1    3    3    0  502 -0.89688793212E+01  0.22843329037E+02 -0.61724546339E+02  0.66555619586E+02  0.41800000000E+01 0. -1.
        -11    1    4    4    0    0  0.11629591936E+02 -0.76230107267E+01  0.12637236589E+02  0.18789823036E+02  0.00000000000E+00 0. -1.
         11    1    4    4    0    0 -0.25049804607E+02 -0.36007648774E+01 -0.11962235645E+03  0.12227005513E+03  0.00000000000E+00 0.  1.
</event>
<event>
 8    1  0.6635152E-009  0.9575672E+02  0.7561462E-02  0.1289481E+00
         -1   -1    0    0    0  501 -0.00000000000E+00  0.00000000000E+00  0.65361946631E+03  0.65361946631E+03  0.00000000000E+00 0.  1.
          1   -1    0    0  501    0  0.00000000000E+00 -0.00000000000E+00 -0.28343638278E+02  0.28343638278E+02  0.00000000000E+00 0. -1.
         25    2    1    2    0    0  0.68138828249E+02  0.11192794458E+02  0.46346562785E+03  0.48498870733E+03  0.12508189105E+03 0.  0.
         23    2    1    2    0    0 -0.68138828249E+02 -0.11192794458E+02  0.16181020018E+03  0.19697439726E+03  0.88590031787E+02 0.  0.
          5    1    3    3  502    0  0.88814343498E+02 -0.90361591623E+01  0.19003948071E+03  0.21000503901E+03  0.41800000000E+01 0.  1.
         -5    1    3    3    0  502 -0.20675515249E+02  0.20228953620E+02  0.27342614715E+03  0.27498366831E+03  0.41800000000E+01 0.  1.
        -11    1    4    4    0    0 -0.33033382295E+02 -0.17291721334E+02  0.67733157215E+01  0.37895722429E+02  0.00000000000E+00 0. -1.
         11    1    4    4    0    0 -0.35105445954E+02  0.60989268763E+01  0.15503688445E+03  0.15907867483E+03  0.00000000000E+00 0.  1.
</event>
<event>
 8    1  0.6635152E-009  0.1215814E+03  0.7561462E-02  0.1240511E+00
          1   -1    0    0  501    0  0.00000000000E+00  0.00000000000E+00  0.44069000978E+03  0.44069000978E+03  0.00000000000E+00 0. -1.
         -1   -1    0    0    0  501 -0.00000000000E+00 -0.00000000000E+00 -0.40363813742E+02  0.40363813742E+02  0.00000000000E+00 0.  1.
         25    2    1    2    0    0  0.11940566940E+02 -0.70227064444E+02  0.16265873101E+03  0.21720897250E+03  0.12508979671E+03 0.  0.
         23    2    1    2    0    0 -0.11940566940E+02  0.70227064444E+02  0.23766746502E+03  0.26384485102E+03  0.89743321527E+02 0.  0.
          5    1    3    3  502    0  0.26836692645E+02 -0.10247002969E+03  0.13685000161E+03  0.17310606690E+03  0.41800000000E+01 0.  1.
         -5    1    3    3    0  502 -0.14896125705E+02  0.32242965250E+02  0.25808729405E+02  0.44102905603E+02  0.41800000000E+01 0.  1.
        -11    1    4    4    0    0  0.23665259473E+02  0.59766059651E+02  0.20346211367E+03  0.21337492376E+03  0.00000000000E+00 0.  1.
         11    1    4    4    0    0 -0.35605826413E+02  0.10461004794E+02  0.34205351353E+02  0.50469927254E+02  0.00000000000E+00 0. -1.
</event>
<event>
 8    1  0.6635152E-009  0.1262250E+03  0.7561462E-02  0.1233167E+00
         -2   -1    0    0    0  501 -0.00000000000E+00  0.00000000000E+00  0.33290776981E+02  0.33290776981E+02  0.00000000000E+00 0. -1.
          2   -1    0    0  501    0  0.00000000000E+00 -0.00000000000E+00 -0.63515116439E+03  0.63515116439E+03  0.00000000000E+00 0.  1.
         25    2    1    2    0    0 -0.35719429790E+02  0.88999405398E+02 -0.38731204845E+03  0.41815660184E+03  0.12509016333E+03 0.  0.
         23    2    1    2    0    0  0.35719429790E+02 -0.88999405398E+02 -0.21454833896E+03  0.25028533954E+03  0.86110333931E+02 0.  0.
          5    1    3    3  502    0 -0.20586685717E+02 -0.27302241570E+02 -0.47694789933E+02  0.58834423684E+02  0.41800000000E+01 0.  1.
         -5    1    3    3    0  502 -0.15132744072E+02  0.11630164697E+03 -0.33961725852E+03  0.35932217815E+03  0.41800000000E+01 0.  1.
        -11    1    4    4    0    0  0.35338929152E+01 -0.49799682484E+02 -0.18493011028E+03  0.19155062637E+03  0.00000000000E+00 0.  1.
         11    1    4    4    0    0  0.32185536874E+02 -0.39199722914E+02 -0.29618228683E+02  0.58734713166E+02  0.00000000000E+00 0. -1.
</event>
<event>
 8    1  0.6635152E-009  0.1940803E+03  0.7561462E-02  0.1154832E+00
          1   -1    0    0  501    0  0.00000000000E+00  0.00000000000E+00  0.16290745255E+03  0.16290745255E+03  0.00000000000E+00 0. -1.
         -1   -1    0    0    0  501 -0.00000000000E+00 -0.00000000000E+00 -0.44817643701E+03  0.44817643701E+03  0.00000000000E+00 0.  1.
         25    2    1    2    0    0 -0.13248417470E+03  0.10352922939E+03  0.57906433232E+02  0.21742293058E+03  0.12509683389E+03 0.  0.
         23    2    1    2    0    0  0.13248417470E+03 -0.10352922939E+03 -0.34317541769E+03  0.39366095897E+03  0.94494578817E+02 0.  0.
          5    1    3    3  502    0 -0.83392710064E+02 -0.11636722122E+02  0.23893314163E+02  0.87624883768E+02  0.41800000000E+01 0.  1.
         -5    1    3    3    0  502 -0.49091464638E+02  0.11516595151E+03  0.34013119069E+02  0.12979804681E+03  0.41800000000E+01 0.  1.
        -11    1    4    4    0    0  0.46238242497E+02 -0.32855164165E+01 -0.16738434303E+03  0.17368444945E+03  0.00000000000E+00 0.  1.
         11    1    4    4    0    0  0.86245932205E+02 -0.10024371297E+03 -0.17579107466E+03  0.21997650953E+03  0.00000000000E+00 0. -1.
</event>
<event>
 8    1  0.6635152E-009  0.1728845E+03  0.7561462E-02  0.1174873E+00
         -2   -1    0    0    0  501 -0.00000000000E+00  0.00000000000E+00  0.33242370684E+03  0.33242370684E+03  0.00000000000E+00 0.  1.
          2   -1    0    0  501    0  0.00000000000E+00 -0.00000000000E+00 -0.94132466703E+02  0.94132466703E+02  0.00000000000E+00 0. -1.
         25    2    1    2    0    0 -0.48500179511E+02  0.13184205431E+03  0.13553970282E+03  0.23184818736E+03  0.12509187122E+03 0.  0.
         23    2    1    2    0    0  0.48500179511E+02 -0.13184205431E+03  0.10275153732E+03  0.19470798618E+03  0.87285318153E+02 0.  0.
          5    1    3    3  502    0 -0.28984520386E+02  0.15484019619E+03  0.11128239898E+03  0.19291664910E+03  0.41800000000E+01 0.  1.
         -5    1    3    3    0  502 -0.19515659125E+02 -0.22998141884E+02  0.24257303847E+02  0.38931538258E+02  0.41800000000E+01 0.  1.
        -11    1    4    4    0    0 -0.14317239041E+02 -0.62711883534E+02  0.71579574752E+02  0.96236163638E+02  0.00000000000E+00 0. -1.
         11    1    4    4    0    0  0.62817418552E+02 -0.69130170777E+02  0.31171962565E+02  0.98471822545E+02  0.00000000000E+00 0.  1.
</event>
<event>
 8    1  0.6635152E-009  0.2406735E+03  0.7561462E-02  0.1119345E+00
         -1   -1    0    0    0  501 -0.00000000000E+00  0.00000000000E+00  0.38376935233E+03  0.38376935233E+03  0.00000000000E+00 0.  1.
          1   -1    0    0  501    0  0.00000000000E+00 -0.00000000000E+00 -0.17531295558E+03  0.17531295558E+03  0.00000000000E+00 0. -1.
         25    2    1    2    0    0  0.75983265138E+02 -0.22028488341E+03  0.72548776975E+02  0.27424416531E+03  0.12509057010E+03 0.  0.
         23    2    1    2    0    0 -0.75983265138E+02  0.22028488341E+03  0.13590761977E+03  0.28483814259E+03  0.91449439153E+02 0.  0.
          5    1    3    3  502    0  0.87505354657E+02 -0.12997056064E+03  0.91018294814E+02  0.18124937550E+03  0.41800000000E+01 0. -1.
         -5    1    3    3    0  502 -0.11522089519E+02 -0.90314322768E+02 -0.18469517839E+02  0.92994789817E+02  0.41800000000E+01 0. -1.
        -11    1    4    4    0    0 -0.49028845619E+02  0.16187246566E+03  0.14114780711E+03  0.22029350035E+03  0.00000000000E+00 0.  1.
         11    1    4    4    0    0 -0.26954419519E+02  0.58412417747E+02 -0.52401873411E+01  0.64544642241E+02  0.00000000000E+00 0. -1.
</event>
<event>
 8    1  0.6635152E-009  0.1176099E+03  0.7561462E-02  0.1247093E+00
         -1   -1    0    0    0  501 -0.00000000000E+00  0.00000000000E+00  0.52941233517E+02  0.52941233517E+02  0.00000000000E+00 0.  1.
          1   -1    0    0  501    0  0.00000000000E+00 -0.00000000000E+00 -0.40958827472E+03  0.40958827472E+03  0.00000000000E+00 0. -1.
         25    2    1    2    0    0 -0.78541974736E+02  0.61256499811E+02 -0.19792757523E+03  0.25443438275E+03  0.12506130306E+03 0.  0.
         23    2    1    2    0    0  0.78541974736E+02 -0.61256499811E+02 -0.15871946597E+03  0.20809512549E+03  0.90501446446E+02 0.  0.
          5    1    3    3  502    0 -0.90230234084E+02  0.52501973475E+02 -0.21031381483E+03  0.23483467689E+03  0.41800000000E+01 0. -1.
         -5    1    3    3    0  502  0.11688259348E+02  0.87545263355E+01  0.12386239606E+02  0.19599705853E+02  0.41800000000E+01 0. -1.
        -11    1    4    4    0    0  0.38099282648E+02 -0.64572868725E+02 -0.14833944114E+03  0.16621010953E+03  0.00000000000E+00 0. -1.
         11    1    4    4    0    0  0.40442692088E+02  0.33163689144E+01 -0.10380024836E+02  0.41885015956E+02  0.00000000000E+00 0.  1.
</event>
<event>
 8    1  0.6635152E-009  0.7984637E+02  0.7561462E-02  0.1329488E+00
          2   -1    0    0  501    0  0.00000000000E+00  0.00000000000E+00  0.15904147709E+03  0.15904147709E+03  0.00000000000E+00 0. -1.
         -2   -1    0    0    0  501 -0.00000000000E+00 -0.00000000000E+00 -0.13324568056E+03  0.13324568056E+03  0.00000000000E+00 0.  1.
         25    2    1    2    0    0 -0.56700008519E+02  0.15061534501E+02  0.94158233552E+02  0.16718109565E+03  0.12506800154E+03 0.  0.
         23    2    1    2    0    0  0.56700008519E+02 -0.15061534501E+02 -0.68362437030E+02  0.12510606200E+03  0.86812229357E+02 0.  0.
          5    1    3    3  502    0 -0.52339053426E+02  0.22419818700E+02  0.12364824672E+03  0.13619245978E+03  0.41800000000E+01 0. -1.
         -5    1    3    3    0  502 -0.43609550928E+01 -0.73582841990E+01 -0.29490013172E+02  0.30988635862E+02  0.41800000000E+01 0. -1.
        -11    1    4    4    0    0  0.55449859662E+01  0.26559686556E+02 -0.49607929271E+02  0.56542996612E+02  0.00000000000E+00 0.  1.
         11    1    4    4    0    0  0.51155022552E+02 -0.41621221057E+02 -0.18754507759E+02  0.68563065392E+02  0.00000000000E+00 0. -1.
</event>
<event>
 8    1  0.6635152E-009  0.1492953E+03  0.7561462E-02  0.1201342E+00
         -1   -1    0    0    0  501 -0.00000000000E+00  0.00000000000E+00  0.36702182322E+03  0.36702182322E+03  0.00000000000E+00 0.  1.
          1   -1    0    0  501    0  0.00000000000E+00 -0.00000000000E+00 -0.10289429220E+03  0.10289429220E+03  0.00000000000E+00 0. -1.
         25    2    1    2    0    0 -0.12431937644E+03 -0.60596215605E+02  0.23735432027E+03  0.30184732897E+03  0.12509007936E+03 0.  0.
         23    2    1    2    0    0  0.12431937644E+03  0.60596215605E+02  0.26773210749E+02  0.16806878644E+03  0.91668443095E+02 0.  0.
          5    1    3    3  502    0 -0.38172918391E+02 -0.49156216525E+00 -0.39807894945E+01  0.38610004103E+02  0.41800000000E+01 0. -1.
         -5    1    3    3    0  502 -0.86146458046E+02 -0.60104653440E+02  0.24133510977E+03  0.26323732487E+03  0.41800000000E+01 0. -1.
        -11    1    4    4    0    0  0.12205503278E+01  0.27586661404E+02  0.29744502484E+02  0.40586316149E+02  0.00000000000E+00 0.  1.
         11    1    4    4    0    0  0.12309882611E+03  0.33009554202E+02 -0.29712917346E+01  0.12748247030E+03  0.00000000000E+00 0. -1.
</event>
<event>
 7    1  0.6635152E-009  0.1329964E+03  0.7561462E-02  0.1223076E+00
         -1   -1    0    0    0  501 -0.00000000000E+00  0.00000000000E+00  0.16234423433E+03  0.16234423433E+03  0.00000000000E+00 0. -1.
          1   -1    0    0  501    0  0.00000000000E+00 -0.00000000000E+00 -0.25749930580E+03  0.25749930580E+03  0.00000000000E+00 0.  1.
         23    2    1    2    0    0  0.11012904216E+03 -0.35076951487E+02 -0.17772532856E+03  0.23044610639E+03  0.90334473421E+02 0.  0.
          5    1    1    2  502    0 -0.10007817346E+03  0.54164105018E+02  0.10719863237E+03  0.15639184844E+03  0.41800000000E+01 0. -1.
         -5    1    1    2    0  502 -0.10050868699E+02 -0.19087153531E+02 -0.24628375281E+02  0.33005585292E+02  0.41800000000E+01 0. -1.
        -11    1    3    3    0    0  0.37414251178E+02 -0.43004583021E+02 -0.27348154083E+02  0.63222953773E+02  0.00000000000E+00 0. -1.
         11    1    3    3    0    0  0.72714790981E+02  0.79276315341E+01 -0.15037717448E+03  0.16722315262E+03  0.00000000000E+00 0.  1.
</event>
<event>
 8    1  0.6635152E-009  0.9412035E+02  0.7561462E-02  0.1293170E+00
          2   -1    0    0  501    0  0.00000000000E+00  0.00000000000E+00  0.58119754959E+03  0.58119754959E+03  0.00000000000E+00 0.  1.
         -2   -1    0    0    0  501 -0.00000000000E+00 -0.00000000000E+00 -0.33533409455E+02  0.33533409455E+02  0.00000000000E+00 0. -1.
         25    2    1    2    0    0 -0.34980740387E+02  0.32172584688E+02  0.13427996325E+03  0.18956801337E+03  0.12508475430E+03 0.  0.
         23    2    1    2    0    0  0.34980740387E+02 -0.32172584688E+02  0.41338417688E+03  0.42516294567E+03  0.87283018255E+02 0.  0.
          5    1    3    3  502    0 -0.15929568344E+02  0.62470971711E+02  0.16896318048E+02  0.66778225626E+02  0.41800000000E+01 0. -1.
         -5    1    3    3    0  502 -0.19051172043E+02 -0.30298387024E+02  0.11738364521E+03  0.12278978775E+03  0.41800000000E+01 0. -1.
        -11    1    4    4    0    0  0.57420774728E+02 -0.30702756344E+02  0.37552604256E+03  0.38112939176E+03  0.00000000000E+00 0.  1.
         11    1    4    4    0    0 -0.22440034341E+02 -0.14698283433E+01  0.37858134314E+02  0.44033553915E+02  0.00000000000E+00 0. -1.
</event>
<event>
 8    1  0.6635152E-009  0.1854711E+03  0.7561462E-02  0.1162611E+00
          1   -1    0    0  501    0  0.00000000000E+00  0.00000000000E+00  0.71602943048E+02  0.71602943048E+02  0.00000000000E+00 0. -1.
         -1   -1    0    0    0  501 -0.00000000000E+00 -0.00000000000E+00 -0.62044631322E+03  0.62044631322E+03  0.00000000000E+00 0.  1.
         25    2    1    2    0    0 -0.16845443999E+03  0.23190584439E+02 -0.18443579042E+03  0.28031566381E+03  0.12508240895E+03 0.  0.
         23    2    1    2    0    0  0.16845443999E+03 -0.23190584439E+02 -0.36440757975E+03  0.41173359246E+03  0.88413604263E+02 0.  0.
          5    1    3    3  502    0  0.12041887091E+02 -0.92640153447E+01 -0.51272683281E+02  0.53639439556E+02  0.41800000000E+01 0.  1.
         -5    1    3    3    0  502 -0.18049632708E+03  0.32454599784E+02 -0.13316310714E+03  0.22667622425E+03  0.41800000000E+01 0.  1.
        -11    1    4    4    0    0  0.13581939140E+03 -0.28235855665E+02 -0.19603911769E+03  0.24015725325E+03  0.00000000000E+00 0. -1.
         11    1    4    4    0    0  0.32635048594E+02  0.50452712260E+01 -0.16836846206E+03  0.17157633921E+03  0.00000000000E+00 0.  1.
</event>
<event>
 8    1  0.6635152E-009  0.1793977E+03  0.7561462E-02  0.1168387E+00
          1   -1    0    0  501    0  0.00000000000E+00  0.00000000000E+00  0.66979857003E+02  0.66979857003E+02  0.00000000000E+00 0. -1.
         -1   -1    0    0    0  501 -0.00000000000E+00 -0.00000000000E+00 -0.63171724775E+03  0.63171724775E+03  0.00000000000E+00 0.  1.
         25    2    1    2    0    0 -0.13556762570E+03 -0.61018196764E+02 -0.14116603342E+03  0.24015786390E+03  0.12508456790E+03 0.  0.
         23    2    1    2    0    0  0.13556762570E+03  0.61018196764E+02 -0.42357135732E+03  0.45853924085E+03  0.93507963192E+02 0.  0.
          5    1    3    3  502    0 -0.16320838683E+01  0.31222857757E+02 -0.25253302154E+02  0.40407081235E+02  0.41800000000E+01 0. -1.
         -5    1    3    3    0  502 -0.13393554183E+03 -0.92241054521E+02 -0.11591273126E+03  0.19975078266E+03  0.41800000000E+01 0. -1.
        -11    1    4    4    0    0  0.98309589513E+00  0.25312888025E+02 -0.14401444379E+03  0.14622540408E+03  0.00000000000E+00 0.  1.
         11    1    4    4    0    0  0.13458452981E+03  0.35705308739E+02 -0.27955691354E+03  0.31231383678E+03  0.00000000000E+00 0. -1.
</event>
<event>
 8    1  0.6635152E-009  0.1167878E+03  0.7561462E-02  0.1248492E+00
         -2   -1    0    0    0  501 -0.00000000000E+00  0.00000000000E+00  0.89233233113E+02  0.89233233113E+02  0.00000000000E+00 0.  1.
          2   -1    0    0  501    0  0.00000000000E+00 -0.00000000000E+00 -0.20938996966E+03  0.20938996966E+03  0.00000000000E+00 0. -1.
         25    2    1    2    0    0 -0.65015206898E+02  0.49054129746E+02 -0.87402228817E+02  0.17297126960E+03  0.12508647301E+03 0.  0.
         23    2    1    2    0    0  0.65015206898E+02 -0.49054129746E+02 -0.32754507734E+02  0.12565193318E+03  0.89901422469E+02 0.  0.
          5    1    3    3  502    0 -0.27230327784E+02  0.74817305650E+02 -0.97503582808E+02  0.12595054996E+03  0.41800000000E+01 0.  1.
         -5    1    3    3    0  502 -0.37784879114E+02 -0.25763175903E+02  0.10101353991E+02  0.47020719632E+02  0.41800000000E+01 0.  1.
        -11    1    4    4    0    0  0.73786063000E+02 -0.18407467940E+02  0.50340199796E+01  0.76213905071E+02  0.00000000000E+00 0. -1.
         11    1    4    4    0    0 -0.87708561016E+01 -0.30646661807E+02 -0.37788527714E+02  0.49438028110E+02  0.00000000000E+00 0.  1.
</event>
<event>
 8    1  0.6635152E-009  0.3283426E+03  0.7561462E-02  0.1071873E+00
          2   -1    0    0  501    0  0.00000000000E+00  0.00000000000E+00  0.12613530813E+04  0.12613530813E+04  0.00000000000E+00 0. -1.
         -2   -1    0    0    0  501 -0.00000000000E+00 -0.00000000000E+00 -0.11516210671E+03  0.11516210671E+03  0.00000000000E+00 0.  1.
         25    2    1    2    0    0 -0.29113046467E+03 -0.11678788290E+03  0.92075183785E+03  0.98072870343E+03  0.12509390784E+03 0.  0.
         23    2    1    2    0    0  0.29113046467E+03  0.11678788290E+03  0.22543913678E+03  0.39578648463E+03  0.86184569230E+02 0.  0.
          5    1    3    3  502    0 -0.16547013895E+03 -0.13098659794E+03  0.56435472058E+03  0.60253761606E+03  0.41800000000E+01 0. -1.
         -5    1    3    3    0  502 -0.12566032572E+03  0.14198715047E+02  0.35639711727E+03  0.37819108737E+03  0.41800000000E+01 0. -1.
        -11    1    4    4    0    0  0.14287835548E+03  0.88738624883E+02  0.15709605060E+03  0.23014764202E+03  0.00000000000E+00 0. -1.
         11    1    4    4    0    0  0.14825210919E+03  0.28049258015E+02  0.68343086180E+02  0.16563884261E+03  0.00000000000E+00 0.  1.
</event>
<event>
 8    1  0.6635152E-009  0.1474264E+03  0.7561462E-02  0.1203672E+00
          2   -1    0    0  501    0  0.00000000000E+00  0.00000000000E+00  0.27578716714E+03  0.27578716714E+03  0.00000000000E+00 0. -1.
         -2   -1    0    0    0  501 -0.00000000000E+00 -0.00000000000E+00 -0.83151416733E+02  0.83151416733E+02  0.00000000000E+00 0.  1.
         25    2    1    2    0    0  0.50127849338E+02  0.91620062834E+02  0.99961316460E+02  0.19117356694E+03  0.12509208895E+03 0.  0.
         23    2    1    2    0    0 -0.50127849338E+02 -0.91620062834E+02  0.92674433947E+02  0.16776501693E+03  0.93002758052E+02 0.  0.
          5    1    3    3  502    0 -0.28121062855E+02  0.70980011910E+02  0.73156658543E+02  0.10582214020E+03  0.41800000000E+01 0. -1.
         -5    1    3    3    0  502  0.78248912193E+02  0.20640050924E+02  0.26804657916E+02  0.85351426746E+02  0.41800000000E+01 0. -1.
        -11    1    4    4    0    0 -0.16499227900E+02 -0.10108485058E+03  0.82095428232E+02  0.13126321219E+03  0.00000000000E+00 0. -1.
         11    1    4    4    0    0 -0.33628621438E+02  0.94647877513E+01  0.10579005715E+02  0.36501804735E+02  0.00000000000E+00 0.  1.
</event>
<event>
 8    1  0.6635152E-009  0.1395027E+03  0.7561462E-02  0.1214000E+00
          1   -1    0    0  501    0  0.00000000000E+00  0.00000000000E+00  0.20250399527E+04  0.20250399527E+04  0.00000000000E+00 0. -1.
         -1   -1    0    0    0  501 -0.00000000000E+00 -0.00000000000E+00 -0.10483748119E+02  0.10483748119E+02  0.00000000000E+00 0.  1.
         25    2    1    2    0    0 -0.63706255253E+02 -0.61007392362E+02  0.13689930831E+04  0.13775232377E+04  0.12509124633E+03 0.  0.
         23    2    1    2    0    0  0.63706255253E+02  0.61007392362E+02  0.64556312143E+03  0.65800046308E+03  0.91828518364E+02 0.  0.
          5    1    3    3  502    0 -0.96989592650E+02 -0.20716202521E+02  0.80454589150E+03  0.81064647415E+03  0.41800000000E+01 0.  1.
         -5    1    3    3    0  502  0.33283337397E+02 -0.40291189840E+02  0.56444719163E+03  0.56687676356E+03  0.41800000000E+01 0.  1.
        -11    1    4    4    0    0  0.63173731539E+02  0.83560444607E+02  0.52700471511E+03  0.53731484068E+03  0.00000000000E+00 0.  1.
         11    1    4    4    0    0  0.53252371329E+00 -0.22553052246E+02  0.11855840632E+03  0.12068562241E+03  0.00000000000E+00 0. -1.
</event>
<event>
 8    1  0.6635152E-009  0.1483472E+03  0.7561462E-02  0.1202519E+00
         -2   -1    0    0    0  501 -0.00000000000E+00  0.00000000000E+00  0.16810442256E+03  0.16810442256E+03  0.00000000000E+00 0.  1.
          2   -1    0    0  501    0  0.00000000000E+00 -0.00000000000E+00 -0.16348457256E+03  0.16348457256E+03  0.00000000000E+00 0. -1.
         25    2    1    2    0    0  0.63065150316E+02 -0.98147317836E+02 -0.42053750854E+02  0.17614356206E+03  0.12509167563E+03 0.  0.
         23    2    1    2    0    0 -0.63065150316E+02  0.98147317836E+02  0.46673600854E+02  0.15544543306E+03  0.91513651761E+02 0.  0.
          5    1    3    3  502    0  0.75683068616E+02 -0.12093943028E+03 -0.25483054003E+02  0.14498665839E+03  0.41800000000E+01 0.  1.
         -5    1    3    3    0  502 -0.12617918300E+02  0.22792112442E+02 -0.16570696851E+02  0.31156903664E+02  0.41800000000E+01 0.  1.
        -11    1    4    4    0    0 -0.52701182397E+02  0.34261936063E+02  0.62685400950E+02  0.88773613090E+02  0.00000000000E+00 0.  1.
         11    1    4    4    0    0 -0.10363967919E+02  0.63885381773E+02 -0.16011800096E+02  0.66671819966E+02  0.00000000000E+00 0. -1.
</event>
<event>
 8    1  0.6635152E-009  0.1187489E+03  0.7561462E-02  0.1245175E+00
          1   -1    0    0  501    0  0.00000000000E+00  0.00000000000E+00  0.87972932189E+03  0.87972932189E+03  0.00000000000E+00 0. -1.
         -1   -1    0    0    0  501 -0.00000000000E+00 -0.00000000000E+00 -0.29563641886E+02  0.29563641886E+02  0.00000000000E+00 0.  1.
         25    2    1    2    0    0 -0.90716775068E+02 -0.51333299303E+02  0.61484377683E+03  0.63602695926E+03  0.12503112456E+03 0.  0.
         23    2    1    2    0    0  0.90716775068E+02  0.51333299303E+02  0.23532190318E+03  0.27326600451E+03  0.91832838419E+02 0.  0.
          5    1    3    3  502    0 -0.92466569623E+02 -0.56227049399E+02  0.61884445140E+03  0.62824953244E+03  0.41800000000E+01 0.  1.
         -5    1    3    3    0  502  0.17497945554E+01  0.48937500957E+01 -0.40006745713E+01  0.77774268245E+01  0.41800000000E+01 0.  1.
        -11    1    4    4    0    0  0.75736251259E+02  0.73839536241E+01  0.76923169627E+02  0.10820201732E+03  0.00000000000E+00 0.  1.
         11    1    4    4    0    0  0.14980523809E+02  0.43949345679E+02  0.15839873355E+03  0.16506398720E+03  0.00000000000E+00 0. -1.
</event>
<event>
 8    1  0.6635152E-009  0.6636620E+02  0.7561462E-02  0.1372905E+00
          2   -1    0    0  501    0  0.00000000000E+00  0.00000000000E+00  0.70577740461E+02  0.70577740461E+02  0.00000000000E+00 0. -1.
         -2   -1    0    0    0  501 -0.00000000000E+00 -0.00000000000E+00 -0.20702148935E+03  0.20702148935E+03  0.00000000000E+00 0.  1.
         25    2    1    2    0    0  0.23084594074E+02 -0.15959677776E+01 -0.13054488932E+03  0.18227807345E+03  0.12509149586E+03 0.  0.
         23    2    1    2    0    0 -0.23084594074E+02  0.15959677776E+01 -0.58988595655E+01  0.95321156359E+02  0.92281529619E+02 0.  0.
          5    1    3    3  502    0 -0.99515402434E+01 -0.44970686968E+01  0.22643982522E+02  0.25484880313E+02  0.41800000000E+01 0.  1.
         -5    1    3    3    0  502  0.33036134317E+02  0.29011009192E+01 -0.15318887184E+03  0.15679319314E+03  0.41800000000E+01 0.  1.
        -11    1    4    4    0    0 -0.24154791141E+02 -0.39609848870E+02 -0.21646978962E+02  0.51195563877E+02  0.00000000000E+00 0.  1.
         11    1    4    4    0    0  0.10701970672E+01  0.41205816647E+02  0.15748119397E+02  0.44125592482E+02  0.00000000000E+00 0. -1.
</event>
<event>
 8    1  0.6635152E-009  0.7975879E+02  0.7561462E-02  0.1329737E+00
          2   -1    0    0  501    0  0.00000000000E+00  0.00000000000E+00  0.23656853407E+03  0.23656853407E+03  0.00000000000E+00 0. -1.
         -2   -1    0    0    0  501 -0.00000000000E+00 -0.00000000000E+00 -0.82309134360E+02  0.82309134360E+02  0.00000000000E+00 0.  1.
         25    2    1    2    0    0  0.62943624462E+02  0.47801372199E+02  0.12938062906E+03  0.19655540348E+03  0.12509120039E+03 0.  0.
         23    2    1    2    0    0 -0.62943624462E+02 -0.47801372199E+02  0.24878770648E+02  0.12232226495E+03  0.89982844087E+02 0.  0.
          5    1    3    3  502    0  0.43095027917E+02  0.25253280351E+02  0.15113572377E+03  0.15923061578E+03  0.41800000000E+01 0.  1.
         -5    1    3    3    0  502  0.19848596545E+02  0.22548091849E+02 -0.21755094714E+02  0.37324787700E+02  0.41800000000E+01 0.  1.
        -11    1    4    4    0    0 -0.16021429286E+02 -0.13323719193E+02 -0.33767745931E+02  0.39679571000E+02  0.00000000000E+00 0.  1.
         11    1    4    4    0    0 -0.46922195175E+02 -0.34477653007E+02  0.58646516579E+02  0.82642693953E+02  0.00000000000E+00 0. -1.
</event>
<event>
 8    1  0.6635152E-009  0.1459010E+03  0.7561462E-02  0.1205602E+00
         -1   -1    0    0    0  501 -0.00000000000E+00  0.00000000000E+00  0.33894742881E+02  0.33894742881E+02  0.00000000000E+00 0.  1.
          1   -1    0    0  501    0  0.00000000000E+00 -0.00000000000E+00 -0.76833969163E+03  0.76833969163E+03  0.00000000000E+00 0. -1.
         25    2    1    2    0    0 -0.41751825695E+02 -0.89118486557E+02 -0.56390456318E+03  0.58593649314E+03  0.12509155856E+03 0.  0.
         23    2    1    2    0    0  0.41751825695E+02  0.89118486557E+02 -0.17054038557E+03  0.21629794137E+03  0.89529083190E+02 0.  0.
          5    1    3    3  502    0 -0.84680354375E+02 -0.41051427934E+02 -0.31431960896E+03  0.32813148451E+03  0.41800000000E+01 0.  1.
         -5    1    3    3    0  502  0.42928528680E+02 -0.48067058623E+02 -0.24958495422E+03  0.25780500863E+03  0.41800000000E+01 0.  1.
        -11    1    4    4    0    0  0.28384652419E+02 -0.12149174289E+02 -0.37909613997E+02  0.48892021458E+02  0.00000000000E+00 0. -1.
         11    1    4    4    0    0  0.13367173276E+02  0.10126766085E+03 -0.13263077157E+03  0.16740591992E+03  0.00000000000E+00 0.  1.
</event>
<event>
 8    1  0.6635152E-009  0.1815244E+03  0.7561462E-02  0.1166336E+00
          1   -1    0    0  501    0  0.00000000000E+00  0.00000000000E+00  0.72625691205E+03  0.72625691205E+03  0.00000000000E+00 0.  1.
         -1   -1    0    0    0  501 -0.00000000000E+00 -0.00000000000E+00 -0.63073553788E+02  0.63073553788E+02  0.00000000000E+00 0. -1.
         25    2    1    2    0    0 -0.13553101231E+03 -0.48602988526E+02  0.14129791199E+03  0.23736745173E+03  0.12508917386E+03 0.  0.
         23    2    1    2    0    0  0.13553101231E+03  0.48602988526E+02  0.52188544628E+03  0.55196301411E+03  0.10755391260E+03 0.  0.
          5    1    3    3  502    0 -0.39376988909E+02  0.40180695485E+02  0.63994852577E+02  0.85310310640E+02  0.41800000000E+01 0. -1.
         -5    1    3    3    0  502 -0.96154023401E+02 -0.88783684011E+02  0.77303059412E+02  0.15205714109E+03  0.41800000000E+01 0. -1.
        -11    1    4    4    0    0  0.48551811744E+02 -0.31150227324E+02  0.23002846275E+03  0.23715123606E+03  0.00000000000E+00 0.  1.
         11    1    4    4    0    0  0.86979200566E+02  0.79753215850E+02  0.29185698352E+03  0.31481177805E+03  0.00000000000E+00 0. -1.
</event>
<event>
 8    1  0.6635152E-009  0.2045806E+03  0.7561462E-02  0.1145931E+00
          2   -1    0    0  501    0  0.00000000000E+00  0.00000000000E+00  0.11501743201E+04  0.11501743201E+04  0.00000000000E+00 0. -1.
         -2   -1    0    0    0  501 -0.00000000000E+00 -0.00000000000E+00 -0.43617715373E+02  0.43617715373E+02  0.00000000000E+00 0.  1.
         25    2    1    2    0    0 -0.11243229096E-01  0.17452637547E+03  0.80923921553E+03  0.83724286340E+03  0.12509216007E+03 0.  0.
         23    2    1    2    0    0  0.11243229096E-01 -0.17452637547E+03  0.29731738923E+03  0.35654917211E+03  0.90940784720E+02 0.  0.
          5    1    3    3  502    0  0.46546991345E+02  0.15821176048E+03  0.63882671115E+03  0.65978376976E+03  0.41800000000E+01 0.  1.
         -5    1    3    3    0  502 -0.46558234574E+02  0.16314614989E+02  0.17041250438E+03  0.17745909364E+03  0.41800000000E+01 0.  1.
        -11    1    4    4    0    0 -0.32738950071E+02 -0.15061040062E+03  0.25482988016E+03  0.29781470657E+03  0.00000000000E+00 0. -1.
         11    1    4    4    0    0  0.32750193300E+02 -0.23915974850E+02  0.42487509072E+02  0.58734465532E+02  0.00000000000E+00 0.  1.
</event>
<event>
 8    1  0.6635152E-009  0.1077012E+03  0.7561462E-02  0.1264887E+00
          1   -1    0    0  501    0  0.00000000000E+00  0.00000000000E+00  0.42893822419E+02  0.42893822419E+02  0.00000000000E+00 0. -1.
         -1   -1    0    0    0  501 -0.00000000000E+00 -0.00000000000E+00 -0.39533315574E+03  0.39533315574E+03  0.00000000000E+00 0.  1.
         25    2    1    2    0    0  0.10107148299E+02 -0.14199323227E+02 -0.30905747036E+03  0.33386810958E+03  0.12509044481E+03 0.  0.
         23    2    1    2    0    0 -0.10107148299E+02  0.14199323227E+02 -0.43381862954E+02  0.10435886857E+03  0.93300654818E+02 0.  0.
          5    1    3    3  502    0 -0.53828915352E+02  0.13848422518E+02 -0.15361780497E+03  0.16341735935E+03  0.41800000000E+01 0. -1.
         -5    1    3    3    0  502  0.63936063651E+02 -0.28047745745E+02 -0.15543966540E+03  0.17045075023E+03  0.41800000000E+01 0. -1.
        -11    1    4    4    0    0 -0.31596550188E+02  0.43264906013E+02 -0.87214068530E+01  0.54279434536E+02  0.00000000000E+00 0. -1.
         11    1    4    4    0    0  0.21489401889E+02 -0.29065582786E+02 -0.34660456101E+02  0.50079434036E+02  0.00000000000E+00 0.  1.
</event>
<event>
 8    1  0.6635152E-009  0.1283360E+03  0.7561462E-02  0.1229946E+00
         -2   -1    0    0    0  501 -0.00000000000E+00  0.00000000000E+00  0.15259249251E+03  0.15259249251E+03  0.00000000000E+00 0. -1.
          2   -1    0    0  501    0  0.00000000000E+00 -0.00000000000E+00 -0.14182406229E+03  0.14182406229E+03  0.00000000000E+00 0.  1.
         25    2    1    2    0    0 -0.90494966483E+02 -0.27073608994E+02  0.40879978258E+02  0.16199586933E+03  0.12509664182E+03 0.  0.
         23    2    1    2    0    0  0.90494966483E+02  0.27073608994E+02 -0.30111548040E+02  0.13242068547E+03  0.87785040599E+02 0.  0.
          5    1    3    3  502    0 -0.36209156602E+01  0.43504582529E+02  0.38416994168E+01  0.44022616752E+02  0.41800000000E+01 0.  1.
         -5    1    3    3    0  502 -0.86874050822E+02 -0.70578191523E+02  0.37038278841E+02  0.11797325258E+03  0.41800000000E+01 0.  1.
        -11    1    4    4    0    0  0.25401604816E+02  0.25062952644E+02 -0.52565845982E+02  0.63533938067E+02  0.00000000000E+00 0.  1.
         11    1    4    4    0    0  0.65093361667E+02  0.20106563499E+01  0.22454297943E+02  0.68886747405E+02  0.00000000000E+00 0. -1.
</event>
<event>
 8    1  0.6635152E-009  0.8691721E+02  0.7561462E-02  0.1310494E+00
          2   -1    0    0  501    0  0.00000000000E+00  0.00000000000E+00  0.26557835147E+03  0.26557835147E+03  0.00000000000E+00 0. -1.
         -2   -1    0    0    0  501 -0.00000000000E+00 -0.00000000000E+00 -0.68481029372E+02  0.68481029372E+02  0.00000000000E+00 0.  1.
         25    2    1    2    0    0 -0.71587772495E+02 -0.15431040199E+02  0.69123931155E+02  0.16058700231E+03  0.12508853377E+03 0.  0.
         23    2    1    2    0    0  0.71587772495E+02  0.15431040199E+02  0.12797339095E+03  0.17347237853E+03  0.91392292623E+02 0.  0.
          5    1    3    3  502    0 -0.45588040911E+02 -0.12873057818E+02  0.10543269916E+03  0.11566119291E+03  0.41800000000E+01 0. -1.
         -5    1    3    3    0  502 -0.25999731584E+02 -0.25579823814E+01 -0.36308768010E+02  0.44925809405E+02  0.41800000000E+01 0. -1.
        -11    1    4    4    0    0  0.14930941860E+02 -0.25759954097E+02  0.26380907352E+01  0.29890931445E+02  0.00000000000E+00 0.  1.
         11    1    4    4    0    0  0.56656830635E+02  0.41190994296E+02  0.12533530021E+03  0.14358144709E+03  0.00000000000E+00 0. -1.
</event>
<event>
 8    1  0.6635152E-009  0.1205506E+03  0.7561462E-02  0.1242191E+00
          2   -1    0    0  501    0  0.00000000000E+00  0.00000000000E+00  0.37478914338E+03  0.37478914338E+03  0.00000000000E+00 0. -1.
         -2   -1    0    0    0  501 -0.00000000000E+00 -0.00000000000E+00 -0.40877231570E+02  0.40877231570E+02  0.00000000000E+00 0.  1.
         25    2    1    2    0    0 -0.52744311547E+02 -0.32037157108E+01  0.14257308678E+03  0.19689321463E+03  0.12509047405E+03 0.  0.
         23    2    1    2    0    0  0.52744311547E+02  0.32037157108E+01  0.19133882503E+03  0.21877316032E+03  0.91972406280E+02 0.  0.
          5    1    3    3  502    0 -0.40240955699E+02 -0.62770162811E+02  0.82342114381E+02  0.11116260188E+03  0.41800000000E+01 0.  1.
         -5    1    3    3    0  502 -0.12503355848E+02  0.59566447100E+02  0.60230972401E+02  0.85730612759E+02  0.41800000000E+01 0.  1.
        -11    1    4    4    0    0 -0.25801007377E+02  0.71402601703E+01  0.59774070910E+02  0.65495151348E+02  0.00000000000E+00 0.  1.
         11    1    4    4    0    0  0.78545318924E+02 -0.39365444595E+01  0.13156475412E+03  0.15327800897E+03  0.00000000000E+00 0. -1.
</event>
<event>
 8    1  0.6635152E-009  0.1593261E+03  0.7561462E-02  0.1189460E+00
          1   -1    0    0  501    0  0.00000000000E+00  0.00000000000E+00  0.15480592144E+03  0.15480592144E+03  0.00000000000E+00 0. -1.
         -1   -1    0    0    0  501 -0.00000000000E+00 -0.00000000000E+00 -0.29479018548E+03  0.29479018548E+03  0.00000000000E+00 0.  1.
         25    2    1    2    0    0 -0.10723770073E+03 -0.10176639598E+03  0.42222137880E+02  0.19820563337E+03  0.12508573206E+03 0.  0.
         23    2    1    2    0    0  0.10723770073E+03  0.10176639598E+03 -0.18220640191E+03  0.25139047355E+03  0.90231222337E+02 0.  0.
          5    1    3    3  502    0 -0.93339951638E+02 -0.11312510389E+03  0.71806812002E+02  0.16335031788E+03  0.41800000000E+01 0.  1.
         -5    1    3    3    0  502 -0.13897749090E+02  0.11358707909E+02 -0.29584674122E+02  0.34855315492E+02  0.41800000000E+01 0.  1.
        -11    1    4    4    0    0  0.54833628154E+02  0.24303989928E+02 -0.13258044512E+03  0.14551627102E+03  0.00000000000E+00 0.  1.
         11    1    4    4    0    0  0.52404072574E+02  0.77462406051E+02 -0.49625956793E+02  0.10587420253E+03  0.00000000000E+00 0. -1.
</event>
<event>
 8    1  0.6635152E-009  0.1117437E+03  0.7561462E-02  0.1257375E+00
          1   -1    0    0  501    0  0.00000000000E+00  0.00000000000E+00  0.17233171579E+03  0.17233171579E+03  0.00000000000E+00 0. -1.
         -1   -1    0    0    0  501 -0.00000000000E+00 -0.00000000000E+00 -0.95816410317E+02  0.95816410317E+02  0.00000000000E+00 0.  1.
         25    2    1    2    0    0  0.26943198126E+02  0.25939516525E+02 -0.20348601602E+02  0.13214597360E+03  0.12509875422E+03 0.  0.
         23    2    1    2    0    0 -0.26943198126E+02 -0.25939516525E+02  0.96863907080E+02  0.13600215251E+03  0.87836066341E+02 0.  0.
          5    1    3    3  502    0  0.75042663893E+02  0.26642795978E+02 -0.25170907187E+02  0.83619895660E+02  0.41800000000E+01 0. -1.
         -5    1    3    3    0  502 -0.48099465766E+02 -0.70327945294E+00  0.48223055852E+01  0.48526077939E+02  0.41800000000E+01 0. -1.
        -11    1    4    4    0    0  0.19545898675E+02  0.21487777446E+02  0.30247135677E+02  0.41936332115E+02  0.00000000000E+00 0.  1.
         11    1    4    4    0    0 -0.46489096801E+02 -0.47427293971E+02  0.66616771403E+02  0.94065820397E+02  0.00000000000E+00 0. -1.
</event>
<event>
 8    1  0.6635152E-009  0.9995103E+02  0.7561462E-02  0.1280399E+00
          3   -1    0    0  501    0  0.00000000000E+00  0.00000000000E+00  0.49297451959E+02  0.49297451959E+02  0.00000000000E+00 0. -1.
         -3   -1    0    0    0  501 -0.00000000000E+00 -0.00000000000E+00 -0.42328478707E+03  0.42328478707E+03  0.00000000000E+00 0.  1.
         25    2    1    2    0    0  0.57308522569E+02  0.28859845290E+02 -0.87413461081E+02  0.16555321023E+03  0.12509834055E+03 0.  0.
         23    2    1    2    0    0 -0.57308522569E+02 -0.28859845290E+02 -0.28657387403E+03  0.30702902880E+03  0.89582821014E+02 0.  0.
          5    1    3    3  502    0 -0.66107113498E+01 -0.18469447044E+02  0.22291222262E+02  0.29986546460E+02  0.41800000000E+01 0. -1.
         -5    1    3    3    0  502  0.63919233919E+02  0.47329292334E+02 -0.10970468334E+03  0.13556666377E+03  0.41800000000E+01 0. -1.
        -11    1    4    4    0    0 -0.30033036563E+02 -0.54844297280E+02 -0.23490711900E+03  0.24308688731E+03  0.00000000000E+00 0.  1.
         11    1    4    4    0    0 -0.27275486006E+02  0.25984451990E+02 -0.51666755031E+02  0.63942141484E+02  0.00000000000E+00 0. -1.
</event>
<event>
 8    1  0.6635152E-009  0.1044337E+03  0.7561462E-02  0.1271239E+00
         -1   -1    0    0    0  501 -0.00000000000E+00  0.00000000000E+00  0.94535238408E+02  0.94535238408E+02  0.00000000000E+00 0. -1.
          1   -1    0    0  501    0  0.00000000000E+00 -0.00000000000E+00 -0.17476357239E+03  0.17476357239E+03  0.00000000000E+00 0.  1.
         25    2    1    2    0    0 -0.31675617030E+01 -0.40878789458E+02 -0.10327556814E+03  0.16731699222E+03  0.12509206224E+03 0.  0.
         23    2    1    2    0    0  0.31675617030E+01  0.40878789458E+02  0.23047234160E+02  0.10198181858E+03  0.90487609333E+02 0.  0.
          5    1    3    3  502    0  0.42309868127E+02  0.26018649505E+02 -0.48411122674E+02  0.69485280899E+02  0.41800000000E+01 0.  1.
         -5    1    3    3    0  502 -0.45477429830E+02 -0.66897438962E+02 -0.54864445465E+02  0.97831711320E+02  0.41800000000E+01 0.  1.
        -11    1    4    4    0    0 -0.30374298770E+02  0.88324648965E+01 -0.21034704485E+02  0.37987751377E+02  0.00000000000E+00 0.  1.
         11    1    4    4    0    0  0.33541860473E+02  0.32046324561E+02  0.44081938646E+02  0.63994067199E+02  0.00000000000E+00 0. -1.
</event>
<event>
 8    1  0.6635152E-009  0.8831907E+02  0.7561462E-02  0.1306974E+00
          2   -1    0    0  501    0  0.00000000000E+00  0.00000000000E+00  0.19582990642E+03  0.19582990642E+03  0.00000000000E+00 0. -1.
         -2   -1    0    0    0  501 -0.00000000000E+00 -0.00000000000E+00 -0.81928200637E+02  0.81928200637E+02  0.00000000000E+00 0.  1.
         25    2    1    2    0    0 -0.48733066301E+02 -0.13678706441E+02  0.10823551330E+03  0.17298234147E+03  0.12508375339E+03 0.  0.
         23    2    1    2    0    0  0.48733066301E+02  0.13678706441E+02  0.56661924857E+01  0.10477576559E+03  0.91563292624E+02 0.  0.
          5    1    3    3  502    0 -0.34303435981E+02 -0.50034893625E+02  0.11773735187E+03  0.13251329263E+03  0.41800000000E+01 0.  1.
         -5    1    3    3    0  502 -0.14429630320E+02  0.36356187184E+02 -0.95018385673E+01  0.40469048838E+02  0.41800000000E+01 0.  1.
        -11    1    4    4    0    0  0.98606177718E+00 -0.18748454548E+02  0.35235279001E+02  0.39924951497E+02  0.00000000000E+00 0. -1.
         11    1    4    4    0    0  0.47747004524E+02  0.32427160989E+02 -0.29569086515E+02  0.64850814090E+02  0.00000000000E+00 0.  1.
</event>
<event>
 8    1  0.6635152E-009  0.1080426E+03  0.7561462E-02  0.1264238E+00
         -2   -1    0    0    0  501 -0.00000000000E+00  0.00000000000E+00  0.57091755475E+02  0.57091755475E+02  0.00000000000E+00 0.  1.
          2   -1    0    0  501    0  0.00000000000E+00 -0.00000000000E+00 -0.25743250483E+03  0.25743250483E+03  0.00000000000E+00 0. -1.
         25    2    1    2    0    0  0.16995849682E+02  0.45558543525E+02 -0.86688988915E+02  0.15977280913E+03  0.12509168614E+03 0.  0.
         23    2    1    2    0    0 -0.16995849682E+02 -0.45558543525E+02 -0.11365176044E+03  0.15475145118E+03  0.93095913959E+02 0.  0.
          5    1    3    3  502    0 -0.11689658156E+02  0.76567158356E+02 -0.87997939732E+02  0.11730425245E+03  0.41800000000E+01 0. -1.
         -5    1    3    3    0  502  0.28685507838E+02 -0.31008614831E+02  0.13089508171E+01  0.42468556673E+02  0.41800000000E+01 0. -1.
        -11    1    4    4    0    0 -0.29741900942E+02  0.15608512473E+02 -0.12461945704E+02  0.35826057891E+02  0.00000000000E+00 0.  1.
         11    1    4    4    0    0  0.12746051260E+02 -0.61167055998E+02 -0.10118981473E+03  0.11892539329E+03  0.00000000000E+00 0. -1.
</event>
<event>
 8    1  0.6635152E-009  0.8309539E+02  0.7561462E-02  0.1320490E+00
          1   -1    0    0  501    0  0.00000000000E+00  0.00000000000E+00  0.10703227254E+04  0.10703227254E+04  0.00000000000E+00 0. -1.
         -1   -1    0    0    0  501 -0.00000000000E+00 -0.00000000000E+00 -0.19586242137E+02  0.19586242137E+02  0.00000000000E+00 0.  1.
         25    2    1    2    0    0 -0.75999035046E+02  0.18031782876E+02  0.88985838996E+03  0.90199545494E+03  0.12508736157E+03 0.  0.
         23    2    1    2    0    0  0.75999035046E+02 -0.18031782876E+02  0.16087809331E+03  0.18791351260E+03  0.57695136631E+02 0.  0.
          5    1    3    3  502    0 -0.48099951664E+02  0.29386118288E+02  0.13281342959E+03  0.14433997637E+03  0.41800000000E+01 0. -1.
         -5    1    3    3    0  502 -0.27899083382E+02 -0.11354335413E+02  0.75704496037E+03  0.75765547857E+03  0.41800000000E+01 0. -1.
        -11    1    4    4    0    0  0.59778557330E+02 -0.19731331739E+02  0.64362424778E+02  0.90029567876E+02  0.00000000000E+00 0.  1.
         11    1    4    4    0    0  0.16220477716E+02  0.16995488630E+01  0.96515668527E+02  0.97883944725E+02  0.00000000000E+00 0. -1.
</event>
<event>
 8    1  0.6635152E-009  0.9745529E+02  0.7561462E-02  0.1285740E+00
          1   -1    0    0  501    0  0.00000000000E+00  0.00000000000E+00  0.11148808995E+03  0.11148808995E+03  0.00000000000E+00 0. -1.
         -1   -1    0    0    0  501 -0.00000000000E+00 -0.00000000000E+00 -0.11673041496E+03  0.11673041496E+03  0.00000000000E+00 0.  1.
         25    2    1    2    0    0 -0.31694235885E+02  0.12708688173E+02  0.36637909054E+01  0.12971277840E+03  0.12508375663E+03 0.  0.
         23    2    1    2    0    0  0.31694235885E+02 -0.12708688173E+02 -0.89061159148E+01  0.98505726516E+02  0.91967515528E+02 0.  0.
          5    1    3    3  502    0 -0.20618327971E+02  0.64508293660E+02 -0.21146077809E+02  0.71070840757E+02  0.41800000000E+01 0.  1.
         -5    1    3    3    0  502 -0.11075907914E+02 -0.51799605487E+02  0.24809868714E+02  0.58641937641E+02  0.41800000000E+01 0.  1.
        -11    1    4    4    0    0 -0.20549738113E+02 -0.26513385533E+01 -0.33894824718E+02  0.39726319680E+02  0.00000000000E+00 0.  1.
         11    1    4    4    0    0  0.52243973997E+02 -0.10057349620E+02  0.24988708803E+02  0.58779406837E+02  0.00000000000E+00 0. -1.
</event>
<event>
 8    1  0.6635152E-009  0.1026682E+03  0.7561462E-02  0.1274783E+00
         -2   -1    0    0    0  501 -0.00000000000E+00  0.00000000000E+00  0.28176482898E+02  0.28176482898E+02  0.00000000000E+00 0. -1.
          2   -1    0    0  501    0  0.00000000000E+00 -0.00000000000E+00 -0.56427019698E+03  0.56427019698E+03  0.00000000000E+00 0.  1.
         25    2    1    2    0    0 -0.29846009043E+02 -0.50342616237E+02 -0.35217161551E+03  0.37828324749E+03  0.12509278673E+03 0.  0.
         23    2    1    2    0    0  0.29846009043E+02  0.50342616237E+02 -0.18392209857E+03  0.21416343239E+03  0.92808804354E+02 0.  0.
          5    1    3    3  502    0 -0.67890624598E+02  0.24386312358E+01 -0.22926386568E+03  0.23915366679E+03  0.41800000000E+01 0. -1.
         -5    1    3    3    0  502  0.38044615555E+02 -0.52781247473E+02 -0.12290774983E+03  0.13912958070E+03  0.41800000000E+01 0. -1.
        -11    1    4    4    0    0  0.38617547627E+02  0.26946669215E+02 -0.18321237452E+03  0.18916715398E+03  0.00000000000E+00 0.  1.
         11    1    4    4    0    0 -0.87715385833E+01  0.23395947022E+02 -0.70972404712E+00  0.24996278411E+02  0.00000000000E+00 0. -1.
</event>
<event>
 8    1  0.6635152E-009  0.1274134E+03  0.7561462E-02  0.1231345E+00
          2   -1    0    0  501    0  0.00000000000E+00  0.00000000000E+00  0.10146685948E+04  0.10146685948E+04  0.00000000000E+00 0. -1.
         -2   -1    0    0    0  501 -0.00000000000E+00 -0.00000000000E+00 -0.22798992522E+02  0.22798992522E+02  0.00000000000E+00 0.  1.
         25    2    1    2    0    0  0.50352843821E+02 -0.85749904037E+02  0.40538311229E+03  0.43574244804E+03  0.12509020096E+03 0.  0.
         23    2    1    2    0    0 -0.50352843821E+02  0.85749904037E+02  0.58648648996E+03  0.60172513925E+03  0.90654759250E+02 0.  0.
          5    1    3    3  502    0 -0.19122644204E+02 -0.14221968801E+02  0.72022396264E+01  0.25244495907E+02  0.41800000000E+01 0.  1.
         -5    1    3    3    0  502  0.69475488025E+02 -0.71527935236E+02  0.39818087266E+03  0.41049795214E+03  0.41800000000E+01 0.  1.
        -11    1    4    4    0    0 -0.71740259668E+02  0.44658362355E+02  0.44161750062E+03  0.44962990452E+03  0.00000000000E+00 0.  1.
         11    1    4    4    0    0  0.21387415847E+02  0.41091541683E+02  0.14486898934E+03  0.15209523473E+03  0.00000000000E+00 0. -1.
</event>
<event>
 8    1  0.6635152E-009  0.9711951E+02  0.7561462E-02  0.1286473E+00
          1   -1    0    0  501    0  0.00000000000E+00  0.00000000000E+00  0.14595502076E+03  0.14595502076E+03  0.00000000000E+00 0. -1.
         -1   -1    0    0    0  501 -0.00000000000E+00 -0.00000000000E+00 -0.94699356919E+02  0.94699356919E+02  0.00000000000E+00 0.  1.
         25    2    1    2    0    0  0.16516494317E+02  0.72398023905E+01 -0.13766672306E+02  0.12713108439E+03  0.12509029550E+03 0.  0.
         23    2    1    2    0    0 -0.16516494317E+02 -0.72398023905E+01  0.65022336145E+02  0.11352329329E+03  0.91293069826E+02 0.  0.
          5    1    3    3  502    0  0.64690453560E+02 -0.23057429173E+02 -0.18003670626E+01  0.68827418544E+02  0.41800000000E+01 0. -1.
         -5    1    3    3    0  502 -0.48173959243E+02  0.30297231564E+02 -0.11966305244E+02  0.58303665843E+02  0.41800000000E+01 0. -1.
        -11    1    4    4    0    0 -0.12213178700E+01 -0.35881807655E+02  0.71870351165E+02  0.80338926521E+02  0.00000000000E+00 0. -1.
         11    1    4    4    0    0 -0.15295176447E+02  0.28642005264E+02 -0.68480150194E+01  0.33184366768E+02  0.00000000000E+00 0.  1.
</event>
<event>
 8    1  0.6635152E-009  0.3097362E+03  0.7561462E-02  0.1080472E+00
          1   -1    0    0  501    0  0.00000000000E+00  0.00000000000E+00  0.36602898945E+03  0.36602898945E+03  0.00000000000E+00 0. -1.
         -1   -1    0    0    0  501 -0.00000000000E+00 -0.00000000000E+00 -0.27246781493E+03  0.27246781493E+03  0.00000000000E+00 0.  1.
         25    2    1    2    0    0  0.13324915920E+03 -0.25997189960E+03  0.90795009144E+02  0.33050236961E+03  0.12508939053E+03 0.  0.
         23    2    1    2    0    0 -0.13324915920E+03  0.25997189960E+03  0.27661653743E+01  0.30799443477E+03  0.97530473049E+02 0.  0.
          5    1    3    3  502    0 -0.11806204191E+02 -0.76750497881E+02 -0.49526731233E+01  0.77923210621E+02  0.41800000000E+01 0. -1.
         -5    1    3    3    0  502  0.14505536339E+03 -0.18322140171E+03  0.95747682267E+02  0.25257915899E+03  0.41800000000E+01 0. -1.
        -11    1    4    4    0    0  0.15907502263E+02  0.27564598207E+02  0.69436892395E+00  0.31832967986E+02  0.00000000000E+00 0.  1.
         11    1    4    4    0    0 -0.14915666146E+03  0.23240730139E+03  0.20717964504E+01  0.27616146679E+03  0.00000000000E+00 0. -1.
</event>
<event>
 8    1  0.6635152E-009  0.1027932E+03  0.7561462E-02  0.1274530E+00
          2   -1    0    0  501    0  0.00000000000E+00  0.00000000000E+00  0.57962378177E+03  0.57962378177E+03  0.00000000000E+00 0. -1.
         -2   -1    0    0    0  501 -0.00000000000E+00 -0.00000000000E+00 -0.20687807577E+02  0.20687807577E+02  0.00000000000E+00 0.  1.
         25    2    1    2    0    0 -0.16177719409E+02  0.27660528480E+01  0.29305695780E+03  0.31905967903E+03  0.12508928257E+03 0.  0.
         23    2    1    2    0    0  0.16177719409E+02 -0.27660528480E+01  0.26587901640E+03  0.28125191032E+03  0.90230904056E+02 0.  0.
          5    1    3    3  502    0 -0.65257910439E+02 -0.24706648512E+01  0.98207353822E+02  0.11801210025E+03  0.41800000000E+01 0. -1.
         -5    1    3    3    0  502  0.49080191030E+02  0.52367176992E+01  0.19484960398E+03  0.20104757878E+03  0.41800000000E+01 0. -1.
        -11    1    4    4    0    0  0.32480610871E+02  0.36042655682E+02  0.16379066121E+03  0.17082577034E+03  0.00000000000E+00 0.  1.
         11    1    4    4    0    0 -0.16302891463E+02 -0.38808708530E+02  0.10208835519E+03  0.11042613999E+03  0.00000000000E+00 0. -1.
</event>
<event>
 8    1  0.6635152E-009  0.6866851E+02  0.7561462E-02  0.1364680E+00
         -1   -1    0    0    0  501 -0.00000000000E+00  0.00000000000E+00  0.36451581531E+02  0.36451581531E+02  0.00000000000E+00 0.  1.
          1   -1    0    0  501    0  0.00000000000E+00 -0.00000000000E+00 -0.32121435089E+03  0.32121435089E+03  0.00000000000E+00 0. -1.
         25    2    1    2    0    0  0.10802752865E+02  0.60380510281E+01 -0.20904968665E+03  0.24392078495E+03  0.12506966185E+03 0.  0.
         23    2    1    2    0    0 -0.10802752865E+02 -0.60380510281E+01 -0.75713082716E+02  0.11374514747E+03  0.83978152810E+02 0.  0.
          5    1    3    3  502    0  0.68085469664E+01 -0.42750645780E+02 -0.18713374468E+02  0.47345927073E+02  0.41800000000E+01 0.  1.
         -5    1    3    3    0  502  0.39942058984E+01  0.48788696809E+02 -0.19033631218E+03  0.19657485788E+03  0.41800000000E+01 0.  1.
        -11    1    4    4    0    0  0.11581269154E+02  0.11468788640E+02  0.12836869831E+02  0.20747147639E+02  0.00000000000E+00 0.  1.
         11    1    4    4    0    0 -0.22384022019E+02 -0.17506839668E+02 -0.88549952547E+02  0.92997999833E+02  0.00000000000E+00 0. -1.
</event>
<event>
 8    1  0.6635152E-009  0.1245480E+03  0.7561462E-02  0.1235777E+00
          2   -1    0    0  501    0  0.00000000000E+00  0.00000000000E+00  0.10748473969E+03  0.10748473969E+03  0.00000000000E+00 0. -1.
         -2   -1    0    0    0  501 -0.00000000000E+00 -0.00000000000E+00 -0.19915872702E+03  0.19915872702E+03  0.00000000000E+00 0.  1.
         25    2    1    2    0    0 -0.63971357220E+02  0.17844714960E+02 -0.12586737695E+03  0.18947596307E+03  0.12509106924E+03 0.  0.
         23    2    1    2    0    0  0.63971357220E+02 -0.17844714960E+02  0.34193389624E+02  0.11716750365E+03  0.90267755152E+02 0.  0.
          5    1    3    3  502    0 -0.74276602008E+02  0.58671443937E+02 -0.10765168645E+03  0.14340749609E+03  0.41800000000E+01 0.  1.
         -5    1    3    3    0  502  0.10305244788E+02 -0.40826728977E+02 -0.18215690497E+02  0.46068466975E+02  0.41800000000E+01 0.  1.
        -11    1    4    4    0    0 -0.14796627688E+02  0.19813236404E+02  0.64010522569E+01  0.25543648872E+02  0.00000000000E+00 0. -1.
         11    1    4    4    0    0  0.78767984908E+02 -0.37657951364E+02  0.27792337367E+02  0.91623854774E+02  0.00000000000E+00 0.  1.
</event>
<event>
 8    1  0.6635152E-009  0.1315433E+03  0.7561462E-02  0.1225184E+00
          2   -1    0    0  501    0  0.00000000000E+00  0.00000000000E+00  0.97864098651E+03  0.97864098651E+03  0.00000000000E+00 0. -1.
         -2   -1    0    0    0  501 -0.00000000000E+00 -0.00000000000E+00 -0.28200395084E+02  0.28200395084E+02  0.00000000000E+00 0.  1.
         25    2    1    2    0    0 -0.81115244231E+02 -0.96777134306E+02  0.52183667757E+03  0.55127666894E+03  0.12508777354E+03 0.  0.
         23    2    1    2    0    0  0.81115244231E+02  0.96777134306E+02  0.42860391385E+03  0.45556471265E+03  0.88839157310E+02 0.  0.
          5    1    3    3  502    0 -0.38197105450E+02 -0.32983447305E+02  0.42283089079E+03  0.42585251116E+03  0.41800000000E+01 0. -1.
         -5    1    3    3    0  502 -0.42918138781E+02 -0.63793687001E+02  0.99005786786E+02  0.12542415778E+03  0.41800000000E+01 0. -1.
        -11    1    4    4    0    0  0.60661497247E+02  0.34258691334E+02  0.32833643867E+03  0.33564608167E+03  0.00000000000E+00 0. -1.
         11    1    4    4    0    0  0.20453746984E+02  0.62518442972E+02  0.10026747518E+03  0.11991863098E+03  0.00000000000E+00 0.  1.
</event>
<event>
 8    1  0.6635152E-009  0.3408733E+02  0.7561462E-02  0.1556858E+00
         -4   -1    0    0    0  501 -0.00000000000E+00  0.00000000000E+00  0.87975205116E+02  0.87975205116E+02  0.00000000000E+00 0. -1.
          4   -1    0    0  501    0  0.00000000000E+00 -0.00000000000E+00 -0.13732897334E+03  0.13732897334E+03  0.00000000000E+00 0.  1.
         25    2    1    2    0    0 -0.58524679159E+01  0.27623894202E+01 -0.11593652958E+02  0.12579165642E+03  0.12508895179E+03 0.  0.
         23    2    1    2    0    0  0.58524679159E+01 -0.27623894202E+01 -0.37760115267E+02  0.99512522037E+02  0.91842438781E+02 0.  0.
          5    1    3    3  502    0  0.28953757308E+01  0.13986438053E+01 -0.68170366826E+02  0.68374050036E+02  0.41800000000E+01 0.  1.
         -5    1    3    3    0  502 -0.87478436467E+01  0.13637456149E+01  0.56576713868E+02  0.57417606383E+02  0.41800000000E+01 0.  1.
        -11    1    4    4    0    0 -0.17191297441E+02  0.15930885899E+02 -0.58692832735E+02  0.63199544679E+02  0.00000000000E+00 0.  1.
         11    1    4    4    0    0  0.23043765357E+02 -0.18693275319E+02  0.20932717468E+02  0.36312977358E+02  0.00000000000E+00 0. -1.
</event>
<event>
 8    1  0.6635152E-009  0.1612008E+03  0.7561462E-02  0.1187348E+00
         -4   -1    0    0    0  501 -0.00000000000E+00  0.00000000000E+00  0.23099987852E+02  0.23099987852E+02  0.00000000000E+00 0.  1.
          4   -1    0    0  501    0  0.00000000000E+00 -0.00000000000E+00 -0.11435021379E+04  0.11435021379E+04  0.00000000000E+00 0. -1.
         25    2    1    2    0    0  0.68596873613E+02  0.10266963667E+03 -0.60090562161E+03  0.62608504235E+03  0.12509328044E+03 0.  0.
         23    2    1    2    0    0 -0.68596873613E+02 -0.10266963667E+03 -0.51949652848E+03  0.54051708345E+03  0.83877822019E+02 0.  0.
          5    1    3    3  502    0  0.13329661203E+02  0.11716538625E+03 -0.42574227265E+03  0.44179108493E+03  0.41800000000E+01 0.  1.
         -5    1    3    3    0  502  0.55267212410E+02 -0.14495749578E+02 -0.17516334896E+03  0.18429395742E+03  0.41800000000E+01 0.  1.
        -11    1    4    4    0    0 -0.53919807162E+02 -0.11963354847E+02 -0.15253242703E+03  0.16222394632E+03  0.00000000000E+00 0.  1.
         11    1    4    4    0    0 -0.14677066451E+02 -0.90706281820E+02 -0.36696410145E+03  0.37829313713E+03  0.00000000000E+00 0. -1.
</event>
<event>
 8    1  0.6635152E-009  0.1838275E+03  0.7561462E-02  0.1164149E+00
          1   -1    0    0  501    0  0.00000000000E+00  0.00000000000E+00  0.43516741873E+03  0.43516741873E+03  0.00000000000E+00 0. -1.
         -1   -1    0    0    0  501 -0.00000000000E+00 -0.00000000000E+00 -0.10256348308E+03  0.10256348308E+03  0.00000000000E+00 0.  1.
         25    2    1    2    0    0 -0.16491976033E+03  0.68610168140E+02  0.19187865599E+03  0.29046614694E+03  0.12508909374E+03 0.  0.
         23    2    1    2    0    0  0.16491976033E+03 -0.68610168140E+02  0.14072527966E+03  0.24726475487E+03  0.97110103213E+02 0.  0.
          5    1    3    3  502    0 -0.30324608767E+02  0.14463997921E+02  0.12709238943E+03  0.13152466302E+03  0.41800000000E+01 0. -1.
         -5    1    3    3    0  502 -0.13459515156E+03  0.54146170219E+02  0.64786266558E+02  0.15894148391E+03  0.41800000000E+01 0. -1.
        -11    1    4    4    0    0  0.91041456619E+02 -0.69884145126E+02  0.38347506746E+02  0.12100773462E+03  0.00000000000E+00 0.  1.
         11    1    4    4    0    0  0.73878303712E+02  0.12739769865E+01  0.10237777291E+03  0.12625702025E+03  0.00000000000E+00 0. -1.
</event>
<event>
 8    1  0.6635152E-009  0.1115838E+03  0.7561462E-02  0.1257665E+00
          2   -1    0    0  501    0  0.00000000000E+00  0.00000000000E+00  0.99930275579E+02  0.99930275579E+02  0.00000000000E+00 0. -1.
         -2   -1    0    0    0  501 -0.00000000000E+00 -0.00000000000E+00 -0.18154902187E+03  0.18154902187E+03  0.00000000000E+00 0.  1.
         25    2    1    2    0    0  0.71263724227E+02 -0.33607320848E+02 -0.35377125837E+02  0.15200141197E+03  0.12507964584E+03 0.  0.
         23    2    1    2    0    0 -0.71263724227E+02  0.33607320848E+02 -0.46241620458E+02  0.12947788548E+03  0.91751103327E+02 0.  0.
          5    1    3    3  502    0  0.19417442613E+02 -0.52700809501E+02  0.31993599087E+02  0.64772487849E+02  0.41800000000E+01 0. -1.
         -5    1    3    3    0  502  0.51846281614E+02  0.19093488653E+02 -0.67370724924E+02  0.87228924119E+02  0.41800000000E+01 0. -1.
        -11    1    4    4    0    0 -0.41877211708E+01 -0.23179041456E+02  0.95085923964E+01  0.25401147627E+02  0.00000000000E+00 0. -1.
         11    1    4    4    0    0 -0.67076003056E+02  0.56786362304E+02 -0.55750212855E+02  0.10407673786E+03  0.00000000000E+00 0.  1.
</event>
<event>
 8    1  0.6635152E-009  0.1495329E+03  0.7561462E-02  0.1201048E+00
          2   -1    0    0  501    0  0.00000000000E+00  0.00000000000E+00  0.19553501414E+03  0.19553501414E+03  0.00000000000E+00 0. -1.
         -2   -1    0    0    0  501 -0.00000000000E+00 -0.00000000000E+00 -0.16172930019E+03  0.16172930019E+03  0.00000000000E+00 0.  1.
         25    2    1    2    0    0  0.15089053208E+02 -0.12728981396E+03 -0.34016303850E+02  0.18229534977E+03  0.12507641407E+03 0.  0.
         23    2    1    2    0    0 -0.15089053208E+02  0.12728981396E+03  0.67822017802E+02  0.17496896456E+03  0.97897580136E+02 0.  0.
          5    1    3    3  502    0  0.28947807779E+02 -0.22399106742E+02 -0.62586346216E+02  0.72623816278E+02  0.41800000000E+01 0.  1.
         -5    1    3    3    0  502 -0.13858754572E+02 -0.10489070722E+03  0.28570042366E+02  0.10967153350E+03  0.41800000000E+01 0.  1.
        -11    1    4    4    0    0 -0.43070262944E+02  0.11989908771E+03  0.71009223471E+02  0.14585317481E+03  0.00000000000E+00 0. -1.
         11    1    4    4    0    0  0.27981209737E+02  0.73907262448E+01 -0.31872056690E+01  0.29115789749E+02  0.00000000000E+00 0.  1.
</event>
<event>
 7    1  0.6635152E-009  0.1132253E+03  0.7561462E-02  0.1254711E+00
         -1   -1    0    0    0  501 -0.00000000000E+00  0.00000000000E+00  0.30140006501E+03  0.30140006501E+03  0.00000000000E+00 0.  1.
          1   -1    0    0  501    0  0.00000000000E+00 -0.00000000000E+00 -0.51313037680E+02  0.51313037680E+02  0.00000000000E+00 0. -1.
         23    2    1    2    0    0 -0.31372911445E+02  0.32128964161E+02  0.56843014385E+02  0.11812262849E+03  0.93302181997E+02 0.  0.
          5    1    1    2  502    0  0.76405669559E+02 -0.38220549166E+02  0.14371947130E+03  0.16724651132E+03  0.41800000000E+01 0.  1.
         -5    1    1    2    0  502 -0.45032758114E+02  0.60915850044E+01  0.49524541646E+02  0.67343962881E+02  0.41800000000E+01 0.  1.
        -11    1    3    3    0    0 -0.60507001282E+02  0.20045017621E+02  0.58529695478E+02  0.86536842953E+02  0.00000000000E+00 0.  1.
         11    1    3    3    0    0  0.29134089837E+02  0.12083946541E+02 -0.16866810933E+01  0.31585785533E+02  0.00000000000E+00 0. -1.
</event>
<event>
 8    1  0.6635152E-009  0.1683889E+03  0.7561462E-02  0.1179538E+00
         -1   -1    0    0    0  501 -0.00000000000E+00  0.00000000000E+00  0.31272757714E+02  0.31272757714E+02  0.00000000000E+00 0.  1.
          1   -1    0    0  501    0  0.00000000000E+00 -0.00000000000E+00 -0.11584456457E+04  0.11584456457E+04  0.00000000000E+00 0. -1.
         25    2    1    2    0    0 -0.81549240376E+02 -0.13347047945E+03 -0.60810037046E+03  0.64023283697E+03  0.12508947790E+03 0.  0.
         23    2    1    2    0    0  0.81549240376E+02  0.13347047945E+03 -0.51907251749E+03  0.54948556642E+03  0.89629581033E+02 0.  0.
          5    1    3    3  502    0 -0.83769539130E+02 -0.12722299165E+03 -0.34664265715E+03  0.37865766788E+03  0.41800000000E+01 0. -1.
         -5    1    3    3    0  502  0.22202987543E+01 -0.62474878001E+01 -0.26145771332E+03  0.26157516909E+03  0.41800000000E+01 0. -1.
        -11    1    4    4    0    0  0.12652453716E+02  0.98470502432E+02 -0.23548587848E+03  0.25555845397E+03  0.00000000000E+00 0. -1.
         11    1    4    4    0    0  0.68896786659E+02  0.34999977014E+02 -0.28358663901E+03  0.29392711244E+03  0.00000000000E+00 0.  1.
</event>
<event>
 8    1  0.6635152E-009  0.2164221E+03  0.7561462E-02  0.1136579E+00
         -2   -1    0    0    0  501 -0.00000000000E+00  0.00000000000E+00  0.53289086142E+02  0.53289086142E+02  0.00000000000E+00 0. -1.
          2   -1    0    0  501    0  0.00000000000E+00 -0.00000000000E+00 -0.11336433630E+04  0.11336433630E+04  0.00000000000E+00 0.  1.
         25    2    1    2    0    0  0.34498310555E+01  0.20675433902E+03 -0.37619183088E+03  0.44713458861E+03  0.12509911541E+03 0.  0.
         23    2    1    2    0    0 -0.34498310555E+01 -0.20675433902E+03 -0.70416244602E+03  0.73979786057E+03  0.93256989459E+02 0.  0.
          5    1    3    3  502    0  0.10684591122E+02  0.13388906885E+03 -0.11835503302E+03  0.17906934268E+03  0.41800000000E+01 0. -1.
         -5    1    3    3    0  502 -0.72347600664E+01  0.72865270166E+02 -0.25783679786E+03  0.26806524594E+03  0.41800000000E+01 0. -1.
        -11    1    4    4    0    0  0.15267065359E+02 -0.20581581149E+03 -0.61558567449E+03  0.64926031311E+03  0.00000000000E+00 0. -1.
         11    1    4    4    0    0 -0.18716896415E+02 -0.93852752820E+00 -0.88576771529E+02  0.90537547459E+02  0.00000000000E+00 0.  1.
</event>
<event>
 8    1  0.6635152E-009  0.1231340E+03  0.7561462E-02  0.1238015E+00
         -2   -1    0    0    0  501 -0.00000000000E+00  0.00000000000E+00  0.41730547475E+02  0.41730547475E+02  0.00000000000E+00 0. -1.
          2   -1    0    0  501    0  0.00000000000E+00 -0.00000000000E+00 -0.54540532801E+03  0.54540532801E+03  0.00000000000E+00 0.  1.
         25    2    1    2    0    0  0.87677983617E+02 -0.54954753632E+02 -0.24344525126E+03  0.29261232395E+03  0.12509567540E+03 0.  0.
         23    2    1    2    0    0 -0.87677983617E+02  0.54954753632E+02 -0.26022952927E+03  0.29452355154E+03  0.91199017256E+02 0.  0.
          5    1    3    3  502    0  0.24327191022E+02 -0.52671063824E+02 -0.21926119890E+02  0.62163335824E+02  0.41800000000E+01 0.  1.
         -5    1    3    3    0  502  0.63350792595E+02 -0.22836898080E+01 -0.22151913137E+03  0.23044898812E+03  0.41800000000E+01 0.  1.
        -11    1    4    4    0    0  0.11176813637E+01  0.33107730836E+02 -0.23133699802E+02  0.40404691797E+02  0.00000000000E+00 0. -1.
         11    1    4    4    0    0 -0.88795664980E+02  0.21847022796E+02 -0.23709582947E+03  0.25411885974E+03  0.00000000000E+00 0.  1.
</event>
<event>
 8    1  0.6635152E-009  0.1316987E+03  0.7561462E-02  0.1224957E+00
         -2   -1    0    0    0  501 -0.00000000000E+00  0.00000000000E+00  0.43333363074E+02  0.43333363074E+02  0.00000000000E+00 0. -1.
          2   -1    0    0  501    0  0.00000000000E+00 -0.00000000000E+00 -0.43050814298E+03  0.43050814298E+03  0.00000000000E+00 0.  1.
         25    2    1    2    0    0  0.70639850302E+02 -0.39317943666E+02 -0.20455665814E+03  0.25303117720E+03  0.12508181764E+03 0.  0.
         23    2    1    2    0    0 -0.70639850302E+02  0.39317943666E+02 -0.18261812177E+03  0.22081032885E+03  0.94190943211E+02 0.  0.
          5    1    3    3  502    0 -0.21926742849E+02  0.24070327457E+02 -0.73269513078E+02  0.80287338121E+02  0.41800000000E+01 0.  1.
         -5    1    3    3    0  502  0.92566593151E+02 -0.63388271123E+02 -0.13128714506E+03  0.17274383908E+03  0.41800000000E+01 0.  1.
        -11    1    4    4    0    0 -0.80991300694E+02  0.56143025139E+02 -0.17237861991E+03  0.19855986166E+03  0.00000000000E+00 0.  1.
         11    1    4    4    0    0  0.10351450392E+02 -0.16825081473E+02 -0.10239501857E+02  0.22250467188E+02  0.00000000000E+00 0. -1.
</event>
<event>
 8    1  0.6635152E-009  0.1246925E+03  0.7561462E-02  0.1235551E+00
         -1   -1    0    0    0  501 -0.00000000000E+00  0.00000000000E+00  0.23919912602E+03  0.23919912602E+03  0.00000000000E+00 0.  1.
          1   -1    0    0  501    0  0.00000000000E+00 -0.00000000000E+00 -0.11571017720E+03  0.11571017720E+03  0.00000000000E+00 0. -1.
         25    2    1    2    0    0 -0.59583062946E+02  0.10136913634E+03  0.87979883800E+02  0.19290837904E+03  0.12508932632E+03 0.  0.
         23    2    1    2    0    0  0.59583062946E+02 -0.10136913634E+03  0.35509065027E+02  0.16200092417E+03  0.10562936401E+03 0.  0.
          5    1    3    3  502    0 -0.53345688183E+02  0.92392083700E+02  0.11892700712E+03  0.15982229194E+03  0.41800000000E+01 0.  1.
         -5    1    3    3    0  502 -0.62373747621E+01  0.89770526431E+01 -0.30947123320E+02  0.33086087104E+02  0.41800000000E+01 0.  1.
        -11    1    4    4    0    0  0.32413553187E+02 -0.76073055704E+01  0.53231604038E+02  0.62786250061E+02  0.00000000000E+00 0.  1.
         11    1    4    4    0    0  0.27169509758E+02 -0.93761830773E+02 -0.17722539012E+02  0.99214674113E+02  0.00000000000E+00 0. -1.
</event>
<event>
 8    1  0.6635152E-009  0.1937541E+03  0.7561462E-02  0.1155118E+00
          2   -1    0    0  501    0  0.00000000000E+00  0.00000000000E+00  0.80855267095E+03  0.80855267095E+03  0.00000000000E+00 0. -1.
         -2   -1    0    0    0  501 -0.00000000000E+00 -0.00000000000E+00 -0.59375446712E+02  0.59375446712E+02  0.00000000000E+00 0.  1.
         25    2    1    2    0    0  0.49801051292E+02  0.16527765497E+03  0.55971617465E+03  0.59893745781E+03  0.12508810601E+03 0.  0.
         23    2    1    2    0    0 -0.49801051292E+02 -0.16527765497E+03  0.18946104959E+03  0.26899065985E+03  0.81631108237E+02 0.  0.
          5    1    3    3  502    0  0.72702708089E+02  0.77365505128E+02  0.18495828311E+03  0.21330293959E+03  0.41800000000E+01 0.  1.
         -5    1    3    3    0  502 -0.22901656797E+02  0.87912149842E+02  0.37475789154E+03  0.38563451822E+03  0.41800000000E+01 0.  1.
        -11    1    4    4    0    0  0.17085941607E+02 -0.80697925083E+02  0.71395043161E+02  0.10909324773E+03  0.00000000000E+00 0. -1.
         11    1    4    4    0    0 -0.66886992899E+02 -0.84579729887E+02  0.11806600643E+03  0.15989741211E+03  0.00000000000E+00 0.  1.
</event>
<event>
 8    1  0.6635152E-009  0.8766625E+02  0.7561462E-02  0.1308604E+00
          2   -1    0    0  501    0  0.00000000000E+00  0.00000000000E+00  0.44152079694E+03  0.44152079694E+03  0.00000000000E+00 0. -1.
         -2   -1    0    0    0  501 -0.00000000000E+00 -0.00000000000E+00 -0.37721316695E+02  0.37721316695E+02  0.00000000000E+00 0.  1.
         25    2    1    2    0    0 -0.27977817284E+02 -0.95151057471E+01  0.34397562926E+03  0.36720437684E+03  0.12508607176E+03 0.  0.
         23    2    1    2    0    0  0.27977817284E+02  0.95151057471E+01  0.59823850979E+02  0.11203773679E+03  0.90001476775E+02 0.  0.
          5    1    3    3  502    0  0.16946953665E+02 -0.58981085483E+02  0.17065887703E+03  0.18140532625E+03  0.41800000000E+01 0.  1.
         -5    1    3    3    0  502 -0.44924770949E+02  0.49465979736E+02  0.17331675223E+03  0.18579905059E+03  0.41800000000E+01 0.  1.
        -11    1    4    4    0    0  0.18438251442E+02  0.23544585997E+02 -0.16291330942E+02  0.34054722284E+02  0.00000000000E+00 0.  1.
         11    1    4    4    0    0  0.95395658418E+01 -0.14029480250E+02  0.76115181921E+02  0.77983014506E+02  0.00000000000E+00 0. -1.
</event>
<event>
 8    1  0.6635152E-009  0.7780337E+02  0.7561462E-02  0.1335403E+00
         -2   -1    0    0    0  501 -0.00000000000E+00  0.00000000000E+00  0.16362897068E+03  0.16362897068E+03  0.00000000000E+00 0.  1.
          2   -1    0    0  501    0  0.00000000000E+00 -0.00000000000E+00 -0.88361152531E+02  0.88361152531E+02  0.00000000000E+00 0. -1.
         25    2    1    2    0    0  0.19808389835E+01  0.77837283578E+01  0.10159282284E+03  0.16134704534E+03  0.12508899727E+03 0.  0.
         23    2    1    2    0    0 -0.19808389835E+01 -0.77837283578E+01 -0.26325004685E+02  0.90643077874E+02  0.86363485019E+02 0.  0.
          5    1    3    3  502    0 -0.20178907705E+02 -0.54511486698E+02  0.38398606369E+02  0.69789797745E+02  0.41800000000E+01 0. -1.
         -5    1    3    3    0  502  0.22159746689E+02  0.62295215055E+02  0.63194216467E+02  0.91557247594E+02  0.41800000000E+01 0. -1.
        -11    1    4    4    0    0  0.56435769147E+01  0.10137897110E+02  0.29403140703E+02  0.31609675756E+02  0.00000000000E+00 0.  1.
         11    1    4    4    0    0 -0.76244158982E+01 -0.17921625468E+02 -0.55728145388E+02  0.59033402118E+02  0.00000000000E+00 0. -1.
</event>
<event>
 8    1  0.6635152E-009  0.1378029E+03  0.7561462E-02  0.1216316E+00
         -2   -1    0    0    0  501 -0.00000000000E+00  0.00000000000E+00  0.22375601687E+02  0.22375601687E+02  0.00000000000E+00 0. -1.
          2   -1    0    0  501    0  0.00000000000E+00 -0.00000000000E+00 -0.15319928996E+04  0.15319928996E+04  0.00000000000E+00 0.  1.
         25    2    1    2    0    0  0.76845638140E+02 -0.10224603413E+03 -0.10992101467E+04  0.11136748016E+04  0.12509641692E+03 0.  0.
         23    2    1    2    0    0 -0.76845638140E+02  0.10224603413E+03 -0.41040715123E+03  0.44069369970E+03  0.97043307740E+02 0.  0.
          5    1    3    3  502    0  0.73245139755E+01 -0.16263817313E+02 -0.14576605460E+02  0.23411751009E+02  0.41800000000E+01 0.  1.
         -5    1    3    3    0  502  0.69521124165E+02 -0.85982216814E+02 -0.10846335413E+04  0.10902630506E+04  0.41800000000E+01 0.  1.
        -11    1    4    4    0    0 -0.14325788864E+02  0.78437335524E+02 -0.13073692139E+03  0.15313323103E+03  0.00000000000E+00 0. -1.
         11    1    4    4    0    0 -0.62519849276E+02  0.23808698603E+02 -0.27967022984E+03  0.28756046867E+03  0.00000000000E+00 0.  1.
</event>
<event>
 8    1  0.6635152E-009  0.1283426E+03  0.7561462E-02  0.1229936E+00
         -1   -1    0    0    0  501 -0.00000000000E+00  0.00000000000E+00  0.26399146311E+02  0.26399146311E+02  0.00000000000E+00 0.  1.
          1   -1    0    0  501    0  0.00000000000E+00 -0.00000000000E+00 -0.69551049840E+03  0.69551049840E+03  0.00000000000E+00 0. -1.
         25    2    1    2    0    0 -0.43134217099E+02  0.64453669624E+02 -0.30895450210E+03  0.34221995266E+03  0.12508707134E+03 0.  0.
         23    2    1    2    0    0  0.43134217099E+02 -0.64453669624E+02 -0.36015684999E+03  0.37968969205E+03  0.91850255547E+02 0.  0.
          5    1    3    3  502    0 -0.75248894559E+02  0.13924799854E+02 -0.23380574263E+03  0.24604652785E+03  0.41800000000E+01 0.  1.
         -5    1    3    3    0  502  0.32114677459E+02  0.50528869770E+02 -0.75148759476E+02  0.96173424808E+02  0.41800000000E+01 0.  1.
        -11    1    4    4    0    0  0.70110104582E+02 -0.29971712884E+02 -0.23879244990E+03  0.25067023052E+03  0.00000000000E+00 0.  1.
         11    1    4    4    0    0 -0.26975887483E+02 -0.34481956740E+02 -0.12136440009E+03  0.12901946154E+03  0.00000000000E+00 0. -1.
</event>
<event>
 8    1  0.6635152E-009  0.1732232E+03  0.7561462E-02  0.1174528E+00
          2   -1    0    0  501    0  0.00000000000E+00  0.00000000000E+00  0.55935223479E+03  0.55935223479E+03  0.00000000000E+00 0.  1.
         -2   -1    0    0    0  501 -0.00000000000E+00 -0.00000000000E+00 -0.72583799373E+02  0.72583799373E+02  0.00000000000E+00 0. -1.
         25    2    1    2    0    0 -0.13004349886E+03  0.10860774535E+03  0.23818288677E+03  0.31793892551E+03  0.12508844416E+03 0.  0.
         23    2    1    2    0    0  0.13004349886E+03 -0.10860774535E+03  0.24858554865E+03  0.31399710865E+03  0.89958075236E+02 0.  0.
          5    1    3    3  502    0 -0.93502914462E+02  0.87603923380E+02  0.24356663162E+03  0.27524428939E+03  0.41800000000E+01 0.  1.
         -5    1    3    3    0  502 -0.36540584393E+02  0.21003821967E+02 -0.53837448497E+01  0.42694636122E+02  0.41800000000E+01 0.  1.
        -11    1    4    4    0    0  0.38219016787E+02 -0.68445039258E+01  0.12114627313E+02  0.40673144372E+02  0.00000000000E+00 0.  1.
         11    1    4    4    0    0  0.91824482068E+02 -0.10176324142E+03  0.23647092134E+03  0.27332396428E+03  0.00000000000E+00 0. -1.
</event>
<event>
 8    1  0.6635152E-009  0.1053274E+03  0.7561462E-02  0.1269476E+00
         -1   -1    0    0    0  501 -0.00000000000E+00  0.00000000000E+00  0.53136330576E+02  0.53136330576E+02  0.00000000000E+00 0.  1.
          1   -1    0    0  501    0  0.00000000000E+00 -0.00000000000E+00 -0.31000630910E+03  0.31000630910E+03  0.00000000000E+00 0. -1.
         25    2    1    2    0    0  0.32205513569E+02  0.57367733346E+02 -0.11365202551E+03  0.18136757067E+03  0.12509660608E+03 0.  0.
         23    2    1    2    0    0 -0.32205513569E+02 -0.57367733346E+02 -0.14321795301E+03  0.18177506901E+03  0.90567884564E+02 0.  0.
          5    1    3    3  502    0 -0.39087041376E+02 -0.12634333849E+02 -0.31054283538E+02  0.51664921576E+02  0.41800000000E+01 0. -1.
         -5    1    3    3    0  502  0.71292554946E+02  0.70002067195E+02 -0.82597741972E+02  0.12970264909E+03  0.41800000000E+01 0. -1.
        -11    1    4    4    0    0 -0.14940970578E+02 -0.77592349144E+01  0.10152005016E+02  0.19659642269E+02  0.00000000000E+00 0.  1.
         11    1    4    4    0    0 -0.17264542991E+02 -0.49608498431E+02 -0.15336995803E+03  0.16211542674E+03  0.00000000000E+00 0. -1.
</event>
<event>
 8    1  0.6635152E-009  0.1840376E+03  0.7561462E-02  0.1163952E+00
         -2   -1    0    0    0  501 -0.00000000000E+00  0.00000000000E+00  0.98140423967E+02  0.98140423967E+02  0.00000000000E+00 0.  1.
          2   -1    0    0  501    0  0.00000000000E+00 -0.00000000000E+00 -0.50602164881E+03  0.50602164881E+03  0.00000000000E+00 0. -1.
         25    2    1    2    0    0 -0.51595904437E+02  0.14430323897E+03 -0.37423171657E+03  0.42329915040E+03  0.12508889204E+03 0.  0.
         23    2    1    2    0    0  0.51595904437E+02 -0.14430323897E+03 -0.33649508277E+02  0.18086292238E+03  0.89964132579E+02 0.  0.
          5    1    3    3  502    0 -0.90347856852E+02  0.10884442749E+03 -0.23363999522E+03  0.27315739858E+03  0.41800000000E+01 0. -1.
         -5    1    3    3    0  502  0.38751952415E+02  0.35458811487E+02 -0.14059172135E+03  0.15014175182E+03  0.41800000000E+01 0. -1.
        -11    1    4    4    0    0 -0.11851817706E+02 -0.88736276454E+02 -0.35995955704E+02  0.96489901901E+02  0.00000000000E+00 0.  1.
         11    1    4    4    0    0  0.63447722143E+02 -0.55566962521E+02  0.23464474266E+01  0.84373020477E+02  0.00000000000E+00 0. -1.
</event>
<event>
 8    1  0.6635152E-009  0.1027015E+03  0.7561462E-02  0.1274716E+00
         -1   -1    0    0    0  501 -0.00000000000E+00  0.00000000000E+00  0.71305592564E+02  0.71305592564E+02  0.00000000000E+00 0.  1.
          1   -1    0    0  501    0  0.00000000000E+00 -0.00000000000E+00 -0.18755210055E+03  0.18755210055E+03  0.00000000000E+00 0. -1.
         25    2    1    2    0    0 -0.16383234661E+02 -0.21593344789E+02 -0.10005538344E+03  0.16245938335E+03  0.12508912250E+03 0.  0.
         23    2    1    2    0    0  0.16383234661E+02  0.21593344789E+02 -0.16191124550E+02  0.96398309760E+02  0.91081275207E+02 0.  0.
          5    1    3    3  502    0 -0.47006970045E+02 -0.59866565071E+02 -0.44563082053E+02  0.88300631528E+02  0.41800000000E+01 0. -1.
         -5    1    3    3    0  502  0.30623735384E+02  0.38273220282E+02 -0.55492301383E+02  0.74158751826E+02  0.41800000000E+01 0. -1.
        -11    1    4    4    0    0  0.14214243875E+02  0.49748250028E+02  0.15442446645E+02  0.53994465163E+02  0.00000000000E+00 0.  1.
         11    1    4    4    0    0  0.21689907857E+01 -0.28154905240E+02 -0.31633571195E+02  0.42403844597E+02  0.00000000000E+00 0. -1.
</event>
<event>
 8    1  0.6635152E-009  0.3621710E+03  0.7561462E-02  0.1057728E+00
          1   -1    0    0  501    0  0.00000000000E+00  0.00000000000E+00  0.56306204725E+03  0.56306204725E+03  0.00000000000E+00 0. -1.
         -1   -1    0    0    0  501 -0.00000000000E+00 -0.00000000000E+00 -0.23924774693E+03  0.23924774693E+03  0.00000000000E+00 0.  1.
         25    2    1    2    0    0 -0.51448384086E+02 -0.34265749632E+03  0.22160939892E+03  0.42990589707E+03  0.12508900285E+03 0.  0.
         23    2    1    2    0    0  0.51448384086E+02  0.34265749632E+03  0.10220490141E+03  0.37240389711E+03  0.90430772952E+02 0.  0.
          5    1    3    3  502    0  0.30278528137E+02 -0.22694718060E+02  0.25180418085E+02  0.45643897170E+02  0.41800000000E+01 0.  1.
         -5    1    3    3    0  502 -0.81726912223E+02 -0.31996277826E+03  0.19642898083E+03  0.38426199990E+03  0.41800000000E+01 0.  1.
        -11    1    4    4    0    0  0.84836375946E+01  0.27947340582E+03  0.63371542785E+02  0.28669375491E+03  0.00000000000E+00 0.  1.
         11    1    4    4    0    0  0.42964746491E+02  0.63184090501E+02  0.38833358626E+02  0.85710142199E+02  0.00000000000E+00 0. -1.
</event>
<event>
 8    1  0.6635152E-009  0.6637352E+02  0.7561462E-02  0.1372878E+00
         -2   -1    0    0    0  501 -0.00000000000E+00  0.00000000000E+00  0.15852099061E+03  0.15852099061E+03  0.00000000000E+00 0.  1.
          2   -1    0    0  501    0  0.00000000000E+00 -0.00000000000E+00 -0.95432372364E+02  0.95432372364E+02  0.00000000000E+00 0. -1.
         25    2    1    2    0    0  0.14529054715E+02  0.42771351827E+02  0.67784852242E+02  0.14929682560E+03  0.12511704109E+03 0.  0.
         23    2    1    2    0    0 -0.14529054715E+02 -0.42771351827E+02 -0.46962339978E+01  0.10465653738E+03  0.94289205287E+02 0.  0.
          5    1    3    3  502    0  0.19106021440E+02  0.26360647459E+02  0.10399991013E+03  0.10905676273E+03  0.41800000000E+01 0. -1.
         -5    1    3    3    0  502 -0.45769667246E+01  0.16410704368E+02 -0.36215057886E+02  0.40240062872E+02  0.41800000000E+01 0. -1.
        -11    1    4    4    0    0 -0.34667655528E+02 -0.50121790763E+02 -0.32879164337E+02  0.69246513967E+02  0.00000000000E+00 0.  1.
         11    1    4    4    0    0  0.20138600813E+02  0.73504389364E+01  0.28182930339E+02  0.35410023408E+02  0.00000000000E+00 0. -1.
</event>
<event>
 8    1  0.6635152E-009  0.1398832E+03  0.7561462E-02  0.1213486E+00
         -1   -1    0    0    0  501 -0.00000000000E+00  0.00000000000E+00  0.18436085488E+02  0.18436085488E+02  0.00000000000E+00 0.  1.
          1   -1    0    0  501    0  0.00000000000E+00 -0.00000000000E+00 -0.16928824442E+04  0.16928824442E+04  0.00000000000E+00 0. -1.
         25    2    1    2    0    0  0.75745218075E+02  0.67636491798E+02 -0.13444024290E+04  0.13540223435E+04  0.12508630004E+03 0.  0.
         23    2    1    2    0    0 -0.75745218075E+02 -0.67636491798E+02 -0.33004392974E+03  0.35729618624E+03  0.91758029930E+02 0.  0.
          5    1    3    3  502    0  0.12173423960E+02 -0.32917707252E+02 -0.50312312809E+03  0.50436308560E+03  0.41800000000E+01 0.  1.
         -5    1    3    3    0  502  0.63571794115E+02  0.10055419905E+03 -0.84127930091E+03  0.84965925787E+03  0.41800000000E+01 0.  1.
        -11    1    4    4    0    0 -0.37219865074E+02  0.10150860620E+02 -0.17877634747E+03  0.18289160927E+03  0.00000000000E+00 0. -1.
         11    1    4    4    0    0 -0.38525353000E+02 -0.77787352418E+02 -0.15126758227E+03  0.17440457696E+03  0.00000000000E+00 0.  1.
</event>
<event>
 8    1  0.6635152E-009  0.1275119E+03  0.7561462E-02  0.1231195E+00
         -4   -1    0    0    0  501 -0.00000000000E+00  0.00000000000E+00  0.12084373162E+03  0.12084373162E+03  0.00000000000E+00 0. -1.
          4   -1    0    0  501    0  0.00000000000E+00 -0.00000000000E+00 -0.14513833534E+03  0.14513833534E+03  0.00000000000E+00 0.  1.
         25    2    1    2    0    0  0.75967320661E+02  0.93495044952E+01 -0.29321027012E+02  0.14955002873E+03  0.12508813463E+03 0.  0.
         23    2    1    2    0    0 -0.75967320661E+02 -0.93495044952E+01  0.50264232938E+01  0.11643203823E+03  0.87593992676E+02 0.  0.
          5    1    3    3  502    0 -0.11885738563E+02 -0.39970476190E+02 -0.24615035190E+02  0.48603313729E+02  0.41800000000E+01 0.  1.
         -5    1    3    3    0  502  0.87853059225E+02  0.49319980685E+02 -0.47059918211E+01  0.10094671500E+03  0.41800000000E+01 0.  1.
        -11    1    4    4    0    0 -0.23045295547E+02  0.35891930802E+02 -0.12854636933E+02  0.44548378581E+02  0.00000000000E+00 0.  1.
         11    1    4    4    0    0 -0.52922025114E+02 -0.45241435297E+02  0.17881060227E+02  0.71883659651E+02  0.00000000000E+00 0. -1.
</event>
<event>
 8    1  0.6635152E-009  0.9592142E+02  0.7561462E-02  0.1289114E+00
          1   -1    0    0  501    0  0.00000000000E+00  0.00000000000E+00  0.26157777610E+03  0.26157777610E+03  0.00000000000E+00 0. -1.
         -1   -1    0    0    0  501 -0.00000000000E+00 -0.00000000000E+00 -0.50291521476E+02  0.50291521476E+02  0.00000000000E+00 0.  1.
         25    2    1    2    0    0 -0.24638205682E+02  0.23600778420E+02  0.14151856098E+03  0.19193339629E+03  0.12508751972E+03 0.  0.
         23    2    1    2    0    0  0.24638205682E+02 -0.23600778420E+02  0.69767693644E+02  0.11993590128E+03  0.91395029509E+02 0.  0.
          5    1    3    3  502    0  0.15939197795E+02  0.61740718593E+02  0.38093911673E+02  0.74394844346E+02  0.41800000000E+01 0. -1.
         -5    1    3    3    0  502 -0.40577403477E+02 -0.38139940173E+02  0.10342464931E+03  0.11753855195E+03  0.41800000000E+01 0. -1.
        -11    1    4    4    0    0 -0.21196294236E+02 -0.13597035198E+02 -0.10242772039E+02  0.27185963925E+02  0.00000000000E+00 0.  1.
         11    1    4    4    0    0  0.45834499918E+02 -0.10003743222E+02  0.80010465683E+02  0.92749937358E+02  0.00000000000E+00 0. -1.
</event>
<event>
 8    1  0.6635152E-009  0.1526523E+03  0.7561462E-02  0.1197251E+00
         -1   -1    0    0    0  501 -0.00000000000E+00  0.00000000000E+00  0.27328743773E+03  0.27328743773E+03  0.00000000000E+00 0.  1.
          1   -1    0    0  501    0  0.00000000000E+00 -0.00000000000E+00 -0.99254343828E+02  0.99254343828E+02  0.00000000000E+00 0. -1.
         25    2    1    2    0    0  0.12069611458E+02 -0.12035756979E+03  0.11758830077E+03  0.21000577135E+03  0.12507515899E+03 0.  0.
         23    2    1    2    0    0 -0.12069611458E+02  0.12035756979E+03  0.56444793135E+02  0.16253601021E+03  0.92737909277E+02 0.  0.
          5    1    3    3  502    0 -0.45354444854E+02 -0.23130890205E+02  0.64075513343E+01  0.51483908785E+02  0.41800000000E+01 0.  1.
         -5    1    3    3    0  502  0.57424056312E+02 -0.97226679582E+02  0.11118074943E+03  0.15852186256E+03  0.41800000000E+01 0.  1.
        -11    1    4    4    0    0 -0.42580736121E+02  0.59740219896E+02  0.59716348535E+02  0.94594160729E+02  0.00000000000E+00 0.  1.
         11    1    4    4    0    0  0.30511124663E+02  0.60617349891E+02 -0.32715554003E+01  0.67941849480E+02  0.00000000000E+00 0. -1.
</event>
<event>
 8    1  0.6635152E-009  0.1670164E+03  0.7561462E-02  0.1180996E+00
         -1   -1    0    0    0  501 -0.00000000000E+00  0.00000000000E+00  0.47416309431E+02  0.47416309431E+02  0.00000000000E+00 0.  1.
          1   -1    0    0  501    0  0.00000000000E+00 -0.00000000000E+00 -0.75094395124E+03  0.75094395124E+03  0.00000000000E+00 0. -1.
         25    2    1    2    0    0  0.87306612069E+02  0.10026380274E+03 -0.52678602214E+03  0.55751901894E+03  0.12509463899E+03 0.  0.
         23    2    1    2    0    0 -0.87306612069E+02 -0.10026380274E+03 -0.17674161967E+03  0.24084124173E+03  0.95350033796E+02 0.  0.
          5    1    3    3  502    0  0.15642657772E+02 -0.27852830743E+02 -0.59009904726E+02  0.67231794401E+02  0.41800000000E+01 0. -1.
         -5    1    3    3    0  502  0.71663954297E+02  0.12811663349E+03 -0.46777611741E+03  0.49028722453E+03  0.41800000000E+01 0. -1.
        -11    1    4    4    0    0 -0.10061702086E+02 -0.72008110076E+02 -0.12205517477E+03  0.14206995267E+03  0.00000000000E+00 0. -1.
         11    1    4    4    0    0 -0.77244909983E+02 -0.28255692668E+02 -0.54686444905E+02  0.98771289061E+02  0.00000000000E+00 0.  1.
</event>
<event>
 8    1  0.6635152E-009  0.1011215E+03  0.7561462E-02  0.1277955E+00
          4   -1    0    0  501    0  0.00000000000E+00  0.00000000000E+00  0.16021604845E+03  0.16021604845E+03  0.00000000000E+00 0. -1.
         -4   -1    0    0    0  501 -0.00000000000E+00 -0.00000000000E+00 -0.97702382672E+02  0.97702382672E+02  0.00000000000E+00 0.  1.
         25    2    1    2    0    0 -0.49595452571E+02 -0.12222313828E+02  0.71292819815E+02  0.15277168409E+03  0.12508967756E+03 0.  0.
         23    2    1    2    0    0  0.49595452571E+02  0.12222313828E+02 -0.87791540336E+01  0.10514674704E+03  0.91485905996E+02 0.  0.
          5    1    3    3  502    0 -0.22721929895E+02 -0.51752281898E+02 -0.10790457915E+02  0.57693077244E+02  0.41800000000E+01 0.  1.
         -5    1    3    3    0  502 -0.26873522675E+02  0.39529968070E+02  0.82083277730E+02  0.95078606844E+02  0.41800000000E+01 0.  1.
        -11    1    4    4    0    0  0.10242693554E+02  0.45135874092E+02 -0.23315774179E+02  0.51824562004E+02  0.00000000000E+00 0.  1.
         11    1    4    4    0    0  0.39352759017E+02 -0.32913560264E+02  0.14536620146E+02  0.53322185033E+02  0.00000000000E+00 0. -1.
</event>
<event>
 7    1  0.6635152E-009  0.1809388E+03  0.7561462E-02  0.1166898E+00
          2   -1    0    0  501    0  0.00000000000E+00  0.00000000000E+00  0.85442474461E+03  0.85442474461E+03  0.00000000000E+00 0. -1.
         -2   -1    0    0    0  501 -0.00000000000E+00 -0.00000000000E+00 -0.52768643263E+02  0.52768643263E+02  0.00000000000E+00 0.  1.
         25    2    1    2    0    0  0.11289849226E+03  0.57298965727E+02  0.62182823014E+03  0.64679867378E+03  0.12509570564E+03 0.  0.
          5    1    3    3  502    0  0.61590062643E+02 -0.34579655509E+02  0.20484511517E+03  0.21672120800E+03  0.41800000000E+01 0. -1.
         -5    1    3    3    0  502  0.51308429615E+02  0.91878621236E+02  0.41698311498E+03  0.43007746577E+03  0.41800000000E+01 0. -1.
        -11    1    1    2    0    0 -0.37717835436E+02 -0.94626128366E+02  0.11950834834E+03  0.15703179488E+03  0.00000000000E+00 0.  1.
         11    1    1    2    0    0 -0.75180656822E+02  0.37327162639E+02  0.60319522864E+02  0.10336291922E+03  0.00000000000E+00 0. -1.
</event>
<event>
 8    1  0.6635152E-009  0.1989412E+03  0.7561462E-02  0.1150635E+00
         -2   -1    0    0    0  501 -0.00000000000E+00  0.00000000000E+00  0.43506224382E+03  0.43506224382E+03  0.00000000000E+00 0.  1.
          2   -1    0    0  501    0  0.00000000000E+00 -0.00000000000E+00 -0.11385725961E+03  0.11385725961E+03  0.00000000000E+00 0. -1.
         25    2    1    2    0    0  0.18638613248E+03  0.57113142247E+02  0.21559086010E+03  0.31643328629E+03  0.12509558073E+03 0.  0.
         23    2    1    2    0    0 -0.18638613248E+03 -0.57113142247E+02  0.10561412410E+03  0.23248621714E+03  0.69955675613E+02 0.  0.
          5    1    3    3  502    0  0.22557685385E+02  0.18187638150E+02  0.11839502169E+03  0.12196103030E+03  0.41800000000E+01 0.  1.
         -5    1    3    3    0  502  0.16382844709E+03  0.38925504097E+02  0.97195838413E+02  0.19447225599E+03  0.41800000000E+01 0.  1.
        -11    1    4    4    0    0 -0.94164187056E+02 -0.52538674562E+02  0.86396506265E+02  0.13817222132E+03  0.00000000000E+00 0. -1.
         11    1    4    4    0    0 -0.92221945424E+02 -0.45744676854E+01  0.19217617839E+02  0.94313995821E+02  0.00000000000E+00 0.  1.
</event>
<event>
 8    1  0.6635152E-009  0.1219602E+03  0.7561462E-02  0.1239898E+00
         -1   -1    0    0    0  501 -0.00000000000E+00  0.00000000000E+00  0.60305304316E+03  0.60305304316E+03  0.00000000000E+00 0.  1.
          1   -1    0    0  501    0  0.00000000000E+00 -0.00000000000E+00 -0.33893508774E+02  0.33893508774E+02  0.00000000000E+00 0. -1.
         25    2    1    2    0    0 -0.13605580913E+02 -0.79533657569E+02  0.41449876016E+03  0.44041606240E+03  0.12508545608E+03 0.  0.
         23    2    1    2    0    0  0.13605580913E+02  0.79533657569E+02  0.15466077423E+03  0.19653048954E+03  0.90518305971E+02 0.  0.
          5    1    3    3  502    0 -0.28691775988E+02 -0.10156104604E+03  0.38962822828E+03  0.40368984723E+03  0.41800000000E+01 0.  1.
         -5    1    3    3    0  502  0.15086195074E+02  0.22027388468E+02  0.24870531880E+02  0.36726215168E+02  0.41800000000E+01 0.  1.
        -11    1    4    4    0    0 -0.31914142047E+02  0.27343150081E+02  0.99444394554E+02  0.10795993668E+03  0.00000000000E+00 0. -1.
         11    1    4    4    0    0  0.45519722961E+02  0.52190507488E+02  0.55216379673E+02  0.88570552863E+02  0.00000000000E+00 0.  1.
</event>
<event>
 8    1  0.6635152E-009  0.2018581E+03  0.7561462E-02  0.1148181E+00
         -2   -1    0    0    0  501 -0.00000000000E+00  0.00000000000E+00  0.72708667813E+02  0.72708667813E+02  0.00000000000E+00 0.  1.
          2   -1    0    0  501    0  0.00000000000E+00 -0.00000000000E+00 -0.71147179564E+03  0.71147179564E+03  0.00000000000E+00 0. -1.
         25    2    1    2    0    0  0.78851967283E+02  0.17397016963E+03 -0.43631440932E+03  0.49243701626E+03  0.12506277839E+03 0.  0.
         23    2    1    2    0    0 -0.78851967283E+02 -0.17397016963E+03 -0.20244871850E+03  0.29174344719E+03  0.87438565216E+02 0.  0.
          5    1    3    3  502    0  0.97747381958E+02  0.11873541411E+03 -0.38499229356E+03  0.41459520951E+03  0.41800000000E+01 0.  1.
         -5    1    3    3    0  502 -0.18895414675E+02  0.55234755518E+02 -0.51322115760E+02  0.77841806755E+02  0.41800000000E+01 0.  1.
        -11    1    4    4    0    0 -0.29145702969E+02 -0.51674336310E+02 -0.12831820361E+02  0.60698967441E+02  0.00000000000E+00 0.  1.
         11    1    4    4    0    0 -0.49706264314E+02 -0.12229583332E+03 -0.18961689814E+03  0.23104447975E+03  0.00000000000E+00 0. -1.
</event>
<event>
 8    1  0.6635152E-009  0.2082425E+03  0.7561462E-02  0.1142965E+00
          1   -1    0    0  501    0  0.00000000000E+00  0.00000000000E+00  0.59823431617E+02  0.59823431617E+02  0.00000000000E+00 0. -1.
         -1   -1    0    0    0  501 -0.00000000000E+00 -0.00000000000E+00 -0.11099873963E+04  0.11099873963E+04  0.00000000000E+00 0.  1.
         25    2    1    2    0    0  0.17974619974E+03  0.83361035686E+02 -0.25476890299E+03  0.34613975530E+03  0.12509107752E+03 0.  0.
         23    2    1    2    0    0 -0.17974619974E+03 -0.83361035686E+02 -0.79539506166E+03  0.82367107259E+03  0.80764925025E+02 0.  0.
          5    1    3    3  502    0  0.34011015919E+02  0.36259256896E+02 -0.12330390649E+01  0.49904666113E+02  0.41800000000E+01 0. -1.
         -5    1    3    3    0  502  0.14573518382E+03  0.47101778790E+02 -0.25353586393E+03  0.29623508919E+03  0.41800000000E+01 0. -1.
        -11    1    4    4    0    0 -0.80225394168E+01  0.13883343267E+02 -0.45471239763E+02  0.48215578442E+02  0.00000000000E+00 0.  1.
         11    1    4    4    0    0 -0.17172366032E+03 -0.97244378953E+02 -0.74992382190E+03  0.77545549415E+03  0.00000000000E+00 0. -1.
</event>
<event>
 8    1  0.6635152E-009  0.1359198E+03  0.7561462E-02  0.1218927E+00
          1   -1    0    0  501    0  0.00000000000E+00  0.00000000000E+00  0.63608782690E+03  0.63608782690E+03  0.00000000000E+00 0. -1.
         -1   -1    0    0    0  501 -0.00000000000E+00 -0.00000000000E+00 -0.32846148133E+02  0.32846148133E+02  0.00000000000E+00 0.  1.
         25    2    1    2    0    0  0.93922587337E+02 -0.13002468161E+02  0.35185441041E+03  0.38527748650E+03  0.12508676544E+03 0.  0.
         23    2    1    2    0    0 -0.93922587337E+02  0.13002468161E+02  0.25138726836E+03  0.28365648853E+03  0.90966632365E+02 0.  0.
          5    1    3    3  502    0  0.36343523536E+02  0.50794535952E+02  0.21225602054E+03  0.22129398375E+03  0.41800000000E+01 0.  1.
         -5    1    3    3    0  502  0.57579063802E+02 -0.63797004114E+02  0.13959838986E+03  0.16398350275E+03  0.41800000000E+01 0.  1.
        -11    1    4    4    0    0 -0.70256701617E+02  0.44978727622E+02  0.21134162809E+03  0.22720997739E+03  0.00000000000E+00 0. -1.
         11    1    4    4    0    0 -0.23665885720E+02 -0.31976259461E+02  0.40045640269E+02  0.56446511146E+02  0.00000000000E+00 0.  1.
</event>
<event>
 8    1  0.6635152E-009  0.1145067E+03  0.7561462E-02  0.1252445E+00
          1   -1    0    0  501    0  0.00000000000E+00  0.00000000000E+00  0.17788574598E+03  0.17788574598E+03  0.00000000000E+00 0. -1.
         -1   -1    0    0    0  501 -0.00000000000E+00 -0.00000000000E+00 -0.86140191571E+02  0.86140191571E+02  0.00000000000E+00 0.  1.
         25    2    1    2    0    0  0.42966593160E+02 -0.10024293486E+02  0.95325833735E+02  0.16334548609E+03  0.12509244046E+03 0.  0.
         23    2    1    2    0    0 -0.42966593160E+02  0.10024293486E+02 -0.35802793244E+01  0.10068045146E+03  0.90427431233E+02 0.  0.
          5    1    3    3  502    0 -0.33773337265E+02  0.30496483100E+02  0.30399669443E+02  0.54884297333E+02  0.41800000000E+01 0.  1.
         -5    1    3    3    0  502  0.76739930425E+02 -0.40520776586E+02  0.64926164292E+02  0.10846118876E+03  0.41800000000E+01 0.  1.
        -11    1    4    4    0    0  0.23443124907E+02  0.17989149324E+02 -0.14489441360E+02  0.32910993752E+02  0.00000000000E+00 0.  1.
         11    1    4    4    0    0 -0.66409718067E+02 -0.79648558380E+01  0.10909162036E+02  0.67769457712E+02  0.00000000000E+00 0. -1.
</event>
<event>
 8    1  0.6635152E-009  0.1155417E+03  0.7561462E-02  0.1250638E+00
         -4   -1    0    0    0  501 -0.00000000000E+00  0.00000000000E+00  0.14580130240E+03  0.14580130240E+03  0.00000000000E+00 0.  1.
          4   -1    0    0  501    0  0.00000000000E+00 -0.00000000000E+00 -0.11890462684E+03  0.11890462684E+03  0.00000000000E+00 0. -1.
         25    2    1    2    0    0 -0.13862188729E+02  0.55737972479E+02  0.63515267851E+02  0.15159243210E+03  0.12508874596E+03 0.  0.
         23    2    1    2    0    0  0.13862188729E+02 -0.55737972479E+02 -0.36618592294E+02  0.11311349715E+03  0.90304263926E+02 0.  0.
          5    1    3    3  502    0 -0.45629336708E+02  0.83017278640E+02  0.51116566289E+02  0.10772316682E+03  0.41800000000E+01 0.  1.
         -5    1    3    3    0  502  0.31767147979E+02 -0.27279306161E+02  0.12398701562E+02  0.43869265275E+02  0.41800000000E+01 0.  1.
        -11    1    4    4    0    0 -0.24949083485E+02  0.15339316502E+01  0.12809173416E+02  0.28087090213E+02  0.00000000000E+00 0.  1.
         11    1    4    4    0    0  0.38811272213E+02 -0.57271904129E+02 -0.49427765709E+02  0.85026406936E+02  0.00000000000E+00 0. -1.
</event>
<event>
 8    1  0.6635152E-009  0.2065794E+03  0.7561462E-02  0.1144304E+00
         -1   -1    0    0    0  501 -0.00000000000E+00  0.00000000000E+00  0.33146146587E+02  0.33146146587E+02  0.00000000000E+00 0.  1.
          1   -1    0    0  501    0  0.00000000000E+00 -0.00000000000E+00 -0.14174982357E+04  0.14174982357E+04  0.00000000000E+00 0. -1.
         25    2    1    2    0    0 -0.15115052723E+03  0.10985701141E+03 -0.75356121904E+03  0.78639503776E+03  0.12509036625E+03 0.  0.
         23    2    1    2    0    0  0.15115052723E+03 -0.10985701141E+03 -0.63079087011E+03  0.66424934456E+03  0.91733445948E+02 0.  0.
          5    1    3    3  502    0 -0.13844752746E+03  0.13686449976E+03 -0.65344750538E+03  0.68184362126E+03  0.41800000000E+01 0. -1.
         -5    1    3    3    0  502 -0.12702999774E+02 -0.27007488354E+02 -0.10011371366E+03  0.10455141650E+03  0.41800000000E+01 0. -1.
        -11    1    4    4    0    0  0.96151755900E+02 -0.55742495593E+02 -0.50165282985E+03  0.51381703716E+03  0.00000000000E+00 0. -1.
         11    1    4    4    0    0  0.54998771333E+02 -0.54114515815E+02 -0.12913804026E+03  0.15043230740E+03  0.00000000000E+00 0.  1.
</event>
<event>
 8    1  0.6635152E-009  0.2049174E+03  0.7561462E-02  0.1145655E+00
         -1   -1    0    0    0  501 -0.00000000000E+00  0.00000000000E+00  0.32208581850E+02  0.32208581850E+02  0.00000000000E+00 0.  1.
          1   -1    0    0  501    0  0.00000000000E+00 -0.00000000000E+00 -0.14978467816E+04  0.14978467816E+04  0.00000000000E+00 0. -1.
         25    2    1    2    0    0 -0.16648566960E+03  0.79297411689E+02 -0.59774377656E+03  0.63792632592E+03  0.12508723841E+03 0.  0.
         23    2    1    2    0    0  0.16648566960E+03 -0.79297411689E+02 -0.86789442321E+03  0.89212903755E+03  0.92994258469E+02 0.  0.
          5    1    3    3  502    0 -0.16731061321E+03  0.26012222938E+02 -0.45500604120E+03  0.48550741185E+03  0.41800000000E+01 0.  1.
         -5    1    3    3    0  502  0.82494361150E+00  0.53285188751E+02 -0.14273773535E+03  0.15241891407E+03  0.41800000000E+01 0.  1.
        -11    1    4    4    0    0  0.14129775540E+02 -0.17754887363E+02 -0.26714967136E+02  0.35051049217E+02  0.00000000000E+00 0.  1.
         11    1    4    4    0    0  0.15235589406E+03 -0.61542524326E+02 -0.84117945608E+03  0.85707798833E+03  0.00000000000E+00 0. -1.
</event>
<event>
 8    1  0.6635152E-009  0.9115424E+02  0.7561462E-02  0.1300080E+00
          3   -1    0    0  501    0  0.00000000000E+00  0.00000000000E+00  0.42365714986E+02  0.42365714986E+02  0.00000000000E+00 0. -1.
         -3   -1    0    0    0  501 -0.00000000000E+00 -0.00000000000E+00 -0.32905269165E+03  0.32905269165E+03  0.00000000000E+00 0.  1.
         25    2    1    2    0    0  0.44257524652E+02 -0.19886171191E+02 -0.16884519413E+03  0.21566774375E+03  0.12509871230E+03 0.  0.
         23    2    1    2    0    0 -0.44257524652E+02  0.19886171191E+02 -0.11784178253E+03  0.15575066289E+03  0.89539907229E+02 0.  0.
          5    1    3    3  502    0  0.67781272946E+02 -0.48082920146E+02 -0.65448112415E+02  0.10586404484E+03  0.41800000000E+01 0. -1.
         -5    1    3    3    0  502 -0.23523748294E+02  0.28196748955E+02 -0.10339708171E+03  0.10980369890E+03  0.41800000000E+01 0. -1.
        -11    1    4    4    0    0 -0.39671027084E+02 -0.20567496557E+01 -0.42305593673E+01  0.39948945438E+02  0.00000000000E+00 0. -1.
         11    1    4    4    0    0 -0.45864975682E+01  0.21942920847E+02 -0.11361122317E+03  0.11580171745E+03  0.00000000000E+00 0.  1.
</event>
<event>
 8    1  0.6635152E-009  0.1299238E+03  0.7561462E-02  0.1227569E+00
          1   -1    0    0  501    0  0.00000000000E+00  0.00000000000E+00  0.11950161542E+04  0.11950161542E+04  0.00000000000E+00 0. -1.
         -1   -1    0    0    0  501 -0.00000000000E+00 -0.00000000000E+00 -0.27112664326E+02  0.27112664326E+02  0.00000000000E+00 0.  1.
         25    2    1    2    0    0  0.67652593575E+01  0.80654414412E+02  0.10193874793E+04  0.10302178133E+04  0.12508799590E+03 0.  0.
         23    2    1    2    0    0 -0.67652593575E+01 -0.80654414412E+02  0.14851601056E+03  0.19191100515E+03  0.90674832266E+02 0.  0.
          5    1    3    3  502    0 -0.53618010008E+02  0.90538831097E+01  0.32818057207E+03  0.33268126500E+03  0.41800000000E+01 0.  1.
         -5    1    3    3    0  502  0.60383269366E+02  0.71600531302E+02  0.69120690720E+03  0.69753654833E+03  0.41800000000E+01 0.  1.
        -11    1    4    4    0    0  0.13567344357E+02  0.11127369062E+02  0.60997466130E+02  0.63471111929E+02  0.00000000000E+00 0. -1.
         11    1    4    4    0    0 -0.20332603715E+02 -0.91781783474E+02  0.87518544432E+02  0.12843989322E+03  0.00000000000E+00 0.  1.
</event>
<event>
 8    1  0.6635152E-009  0.8592613E+02  0.7561462E-02  0.1313028E+00
          1   -1    0    0  501    0  0.00000000000E+00  0.00000000000E+00  0.72622867099E+02  0.72622867099E+02  0.00000000000E+00 0. -1.
         -1   -1    0    0    0  501 -0.00000000000E+00 -0.00000000000E+00 -0.30670394325E+03  0.30670394325E+03  0.00000000000E+00 0.  1.
         25    2    1    2    0    0  0.17119614009E+02  0.51094526717E+01  0.11402045897E+01  0.12636984297E+03  0.12509536144E+03 0.  0.
         23    2    1    2    0    0 -0.17119614009E+02 -0.51094526717E+01 -0.23522128074E+03  0.25295696738E+03  0.91318063620E+02 0.  0.
          5    1    3    3  502    0 -0.46775956625E+01 -0.34659201379E+02  0.48972802106E+02  0.60323692589E+02  0.41800000000E+01 0. -1.
         -5    1    3    3    0  502  0.21797209671E+02  0.39768654051E+02 -0.47832597517E+02  0.66046150377E+02  0.41800000000E+01 0. -1.
        -11    1    4    4    0    0 -0.54008712686E+02 -0.44581602074E+01 -0.11362702866E+03  0.12588851370E+03  0.00000000000E+00 0.  1.
         11    1    4    4    0    0  0.36889098677E+02 -0.65129246427E+00 -0.12159425208E+03  0.12706845368E+03  0.00000000000E+00 0. -1.
</event>
<event>
 8    1  0.6635152E-009  0.1103668E+03  0.7561462E-02  0.1259892E+00
          2   -1    0    0  501    0  0.00000000000E+00  0.00000000000E+00  0.53532556936E+02  0.53532556936E+02  0.00000000000E+00 0. -1.
         -2   -1    0    0    0  501 -0.00000000000E+00 -0.00000000000E+00 -0.26463167610E+03  0.26463167610E+03  0.00000000000E+00 0.  1.
         25    2    1    2    0    0 -0.28289174789E+02 -0.42661729524E+02 -0.13348974638E+03  0.18997104783E+03  0.12509670677E+03 0.  0.
         23    2    1    2    0    0  0.28289174789E+02  0.42661729524E+02 -0.77609372777E+02  0.12819318521E+03  0.88260848708E+02 0.  0.
          5    1    3    3  502    0 -0.28348922602E+01  0.42276883539E+02 -0.65646586497E+02  0.78245244038E+02  0.41800000000E+01 0.  1.
         -5    1    3    3    0  502 -0.25454282529E+02 -0.84938613064E+02 -0.67843159888E+02  0.11172580379E+03  0.41800000000E+01 0.  1.
        -11    1    4    4    0    0 -0.18064157024E+02  0.38889842132E+02 -0.68482292767E+02  0.80799492651E+02  0.00000000000E+00 0.  1.
         11    1    4    4    0    0  0.46353331813E+02  0.37718873929E+01 -0.91270800098E+01  0.47393692557E+02  0.00000000000E+00 0. -1.
</event>
<event>
 8    1  0.6635152E-009  0.3354394E+03  0.7561462E-02  0.1068755E+00
          2   -1    0    0  501    0  0.00000000000E+00  0.00000000000E+00  0.16004767059E+04  0.16004767059E+04  0.00000000000E+00 0. -1.
         -2   -1    0    0    0  501 -0.00000000000E+00 -0.00000000000E+00 -0.11531252589E+03  0.11531252589E+03  0.00000000000E+00 0.  1.
         25    2    1    2    0    0  0.31880205991E+03 -0.65094435470E+02  0.23343781236E+03  0.41953604152E+03  0.12508092965E+03 0.  0.
         23    2    1    2    0    0 -0.31880205991E+03  0.65094435470E+02  0.12517263677E+04  0.12962531903E+04  0.87071205801E+02 0.  0.
          5    1    3    3  502    0  0.11129515188E+03  0.23539985883E+02  0.12528590644E+03  0.16927720615E+03  0.41800000000E+01 0. -1.
         -5    1    3    3    0  502  0.20750690803E+03 -0.88634421353E+02  0.10815190591E+03  0.25025883537E+03  0.41800000000E+01 0. -1.
        -11    1    4    4    0    0 -0.15329845660E+03 -0.59240008951E+00  0.69657736755E+03  0.71324665910E+03  0.00000000000E+00 0. -1.
         11    1    4    4    0    0 -0.16550360332E+03  0.65686835559E+02  0.55514900015E+03  0.58300653122E+03  0.00000000000E+00 0.  1.
</event>
<event>
 8    1  0.6635152E-009  0.2075058E+03  0.7561462E-02  0.1143556E+00
          2   -1    0    0  501    0  0.00000000000E+00  0.00000000000E+00  0.16701471532E+03  0.16701471532E+03  0.00000000000E+00 0. -1.
         -2   -1    0    0    0  501 -0.00000000000E+00 -0.00000000000E+00 -0.25872103082E+03  0.25872103082E+03  0.00000000000E+00 0.  1.
         25    2    1    2    0    0 -0.11371231930E+03 -0.13621243797E+03 -0.46278224589E+02  0.22197558267E+03  0.12508863022E+03 0.  0.
         23    2    1    2    0    0  0.11371231930E+03  0.13621243797E+03 -0.45428090911E+02  0.20376016347E+03  0.89275825143E+02 0.  0.
          5    1    3    3  502    0 -0.37720354622E+02 -0.13533332166E+03 -0.36676954409E+02  0.14526047118E+03  0.41800000000E+01 0.  1.
         -5    1    3    3    0  502 -0.75991964677E+02 -0.87911631765E+00 -0.96012701799E+01  0.76715111485E+02  0.41800000000E+01 0.  1.
        -11    1    4    4    0    0  0.27155090780E+02  0.10152999773E+03 -0.29520133884E+02  0.10916582661E+03  0.00000000000E+00 0. -1.
         11    1    4    4    0    0  0.86557228519E+02  0.34682440245E+02 -0.15907957027E+02  0.94594336866E+02  0.00000000000E+00 0.  1.
</event>
<event>
 8    1  0.6635152E-009  0.1077787E+03  0.7561462E-02  0.1264740E+00
         -1   -1    0    0    0  501 -0.00000000000E+00  0.00000000000E+00  0.14702463331E+03  0.14702463331E+03  0.00000000000E+00 0.  1.
          1   -1    0    0  501    0  0.00000000000E+00 -0.00000000000E+00 -0.13834292276E+03  0.13834292276E+03  0.00000000000E+00 0. -1.
         25    2    1    2    0    0  0.52827752378E+02  0.19853391343E+02 -0.67276795836E+02  0.15284175288E+03  0.12509798398E+03 0.  0.
         23    2    1    2    0    0 -0.52827752378E+02 -0.19853391343E+02  0.75958506392E+02  0.13252580319E+03  0.92781815287E+02 0.  0.
          5    1    3    3  502    0  0.27850687378E+02  0.62287600509E+02 -0.76478334287E+02  0.10257589376E+03  0.41800000000E+01 0.  1.
         -5    1    3    3    0  502  0.24977065000E+02 -0.42434209166E+02  0.92015384507E+01  0.50265859123E+02  0.41800000000E+01 0.  1.
        -11    1    4    4    0    0 -0.73469891864E+02 -0.22810860569E+02  0.30951429927E+02  0.82922562580E+02  0.00000000000E+00 0. -1.
         11    1    4    4    0    0  0.20642139485E+02  0.29574692264E+01  0.45007076466E+02  0.49603240607E+02  0.00000000000E+00 0.  1.
</event>
<event>
 8    1  0.6635152E-009  0.1679713E+03  0.7561462E-02  0.1179980E+00
         -4   -1    0    0    0  501 -0.00000000000E+00  0.00000000000E+00  0.18789208965E+03  0.18789208965E+03  0.00000000000E+00 0.  1.
          4   -1    0    0  501    0  0.00000000000E+00 -0.00000000000E+00 -0.18947401022E+03  0.18947401022E+03  0.00000000000E+00 0. -1.
         25    2    1    2    0    0  0.76036733541E+02 -0.12329401333E+03 -0.52392765052E+02  0.19843288135E+03  0.12509039932E+03 0.  0.
         23    2    1    2    0    0 -0.76036733541E+02  0.12329401333E+03  0.50810844477E+02  0.17893321852E+03  0.91936696701E+02 0.  0.
          5    1    3    3  502    0  0.77428311071E+02 -0.52901956422E+02  0.21483212342E+02  0.96295177247E+02  0.41800000000E+01 0.  1.
         -5    1    3    3    0  502 -0.13915775296E+01 -0.70392056913E+02 -0.73875977394E+02  0.10213770411E+03  0.41800000000E+01 0.  1.
        -11    1    4    4    0    0 -0.43715865907E+01 -0.15086940012E+02  0.54992100427E+01  0.16642350776E+02  0.00000000000E+00 0.  1.
         11    1    4    4    0    0 -0.71665146951E+02  0.13838095335E+03  0.45311634435E+02  0.16229086774E+03  0.00000000000E+00 0. -1.
</event>
<event>
 8    1  0.6635152E-009  0.7792885E+02  0.7561462E-02  0.1335034E+00
          4   -1    0    0  501    0  0.00000000000E+00  0.00000000000E+00  0.13953865472E+03  0.13953865472E+03  0.00000000000E+00 0. -1.
         -4   -1    0    0    0  501 -0.00000000000E+00 -0.00000000000E+00 -0.91380008167E+02  0.91380008167E+02  0.00000000000E+00 0.  1.
         25    2    1    2    0    0 -0.22932828267E+01  0.25912234264E+02  0.37171271379E+02  0.13306465848E+03  0.12509115433E+03 0.  0.
         23    2    1    2    0    0  0.22932828267E+01 -0.25912234264E+02  0.10987375176E+02  0.97854004406E+02  0.93690878608E+02 0.  0.
          5    1    3    3  502    0  0.34799127240E+02  0.51143670144E+02 -0.15343266884E+02  0.63871296301E+02  0.41800000000E+01 0. -1.
         -5    1    3    3    0  502 -0.37092410067E+02 -0.25231435880E+02  0.52514538263E+02  0.69193362183E+02  0.41800000000E+01 0. -1.
        -11    1    4    4    0    0 -0.40516819412E+01  0.10805350378E+02 -0.36046572184E+02  0.37848739603E+02  0.00000000000E+00 0.  1.
         11    1    4    4    0    0  0.63449647679E+01 -0.36717584641E+02  0.47033947360E+02  0.60005264803E+02  0.00000000000E+00 0. -1.
</event>
<event>
 8    1  0.6635152E-009  0.1363762E+03  0.7561462E-02  0.1218290E+00
          1   -1    0    0  501    0  0.00000000000E+00  0.00000000000E+00  0.13070604596E+04  0.13070604596E+04  0.00000000000E+00 0. -1.
         -1   -1    0    0    0  501 -0.00000000000E+00 -0.00000000000E+00 -0.56355270007E+02  0.56355270007E+02  0.00000000000E+00 0.  1.
         25    2    1    2    0    0 -0.20577075709E+02 -0.12174656857E+03  0.11827285980E+04  0.11957175664E+04  0.12509164334E+03 0.  0.
         23    2    1    2    0    0  0.20577075709E+02  0.12174656857E+03  0.67976591671E+02  0.16769816322E+03  0.90863710726E+02 0.  0.
          5    1    3    3  502    0 -0.29533140449E+02 -0.12744990954E+03  0.65947311752E+03  0.67233767628E+03  0.41800000000E+01 0. -1.
         -5    1    3    3    0  502  0.89560647400E+01  0.57033409673E+01  0.52325548044E+03  0.52337989014E+03  0.41800000000E+01 0. -1.
        -11    1    4    4    0    0  0.31479675453E+02  0.11002398585E+03  0.86325727154E+02  0.14334705647E+03  0.00000000000E+00 0. -1.
         11    1    4    4    0    0 -0.10902599744E+02  0.11722582718E+02 -0.18349135483E+02  0.24351106746E+02  0.00000000000E+00 0.  1.
</event>
<event>
 8    1  0.6635152E-009  0.1185207E+03  0.7561462E-02  0.1245558E+00
         -1   -1    0    0    0  501 -0.00000000000E+00  0.00000000000E+00  0.17781563402E+03  0.17781563402E+03  0.00000000000E+00 0.  1.
          1   -1    0    0  501    0  0.00000000000E+00 -0.00000000000E+00 -0.13948001876E+03  0.13948001876E+03  0.00000000000E+00 0. -1.
         25    2    1    2    0    0  0.32132119859E+02  0.97216358725E+02 -0.30888534208E+02  0.16457575898E+03  0.12509030885E+03 0.  0.
         23    2    1    2    0    0 -0.32132119859E+02 -0.97216358725E+02  0.69224149466E+02  0.15271989380E+03  0.89710030448E+02 0.  0.
          5    1    3    3  502    0  0.32909181819E+01  0.35943044279E+02 -0.75213465295E+02  0.83530056484E+02  0.41800000000E+01 0. -1.
         -5    1    3    3    0  502  0.28841201677E+02  0.61273314446E+02  0.44324931087E+02  0.81045702497E+02  0.41800000000E+01 0. -1.
        -11    1    4    4    0    0  0.46011793814E+01 -0.95992306024E+02  0.64319596041E+02  0.11564040861E+03  0.00000000000E+00 0.  1.
         11    1    4    4    0    0 -0.36733299241E+02 -0.12240527010E+01  0.49045534254E+01  0.37079485196E+02  0.00000000000E+00 0. -1.
</event>
<event>
 8    1  0.6635152E-009  0.1139547E+03  0.7561462E-02  0.1253417E+00
         -1   -1    0    0    0  501 -0.00000000000E+00  0.00000000000E+00  0.12277945540E+03  0.12277945540E+03  0.00000000000E+00 0.  1.
          1   -1    0    0  501    0  0.00000000000E+00 -0.00000000000E+00 -0.17938654176E+03  0.17938654176E+03  0.00000000000E+00 0. -1.
         25    2    1    2    0    0 -0.44231467451E+02 -0.53221426326E+02 -0.10482107115E+03  0.17726807803E+03  0.12509025381E+03 0.  0.
         23    2    1    2    0    0  0.44231467451E+02  0.53221426326E+02  0.48213984784E+02  0.12489791913E+03  0.92119264767E+02 0.  0.
          5    1    3    3  502    0 -0.64174373314E+01 -0.85078591527E+02 -0.92961950843E+02  0.12624954235E+03  0.41800000000E+01 0. -1.
         -5    1    3    3    0  502 -0.37814030120E+02  0.31857165200E+02 -0.11859120305E+02  0.51018535680E+02  0.41800000000E+01 0. -1.
        -11    1    4    4    0    0  0.43743303956E+02  0.66489574055E+02  0.65518019475E+02  0.10308710382E+03  0.00000000000E+00 0.  1.
         11    1    4    4    0    0  0.48816349524E+00 -0.13268147728E+02 -0.17304034691E+02  0.21810815306E+02  0.00000000000E+00 0. -1.
</event>
<event>
 8    1  0.6635152E-009  0.1628256E+03  0.7561462E-02  0.1185543E+00
          2   -1    0    0  501    0  0.00000000000E+00  0.00000000000E+00  0.30996052762E+03  0.30996052762E+03  0.00000000000E+00 0. -1.
         -2   -1    0    0    0  501 -0.00000000000E+00 -0.00000000000E+00 -0.10484606151E+03  0.10484606151E+03  0.00000000000E+00 0.  1.
         25    2    1    2    0    0  0.26935801035E+02 -0.13633248735E+03  0.61187698935E+02  0.19673188453E+03  0.12508962949E+03 0.  0.
         23    2    1    2    0    0 -0.26935801035E+02  0.13633248735E+03  0.14392676718E+03  0.21807470461E+03  0.86773140988E+02 0.  0.
          5    1    3    3  502    0  0.56089594318E+02 -0.18607518785E+02  0.44804489424E+02  0.74277836658E+02  0.41800000000E+01 0. -1.
         -5    1    3    3    0  502 -0.29153793283E+02 -0.11772496856E+03  0.16383209511E+02  0.12245404787E+03  0.41800000000E+01 0. -1.
        -11    1    4    4    0    0 -0.38054384762E+02  0.11236523356E+03  0.14972237235E+03  0.19102583777E+03  0.00000000000E+00 0. -1.
         11    1    4    4    0    0  0.11118583728E+02  0.23967253784E+02 -0.57956051727E+01  0.27048866841E+02  0.00000000000E+00 0.  1.
</event>
<event>
 8    1  0.6635152E-009  0.2489182E+03  0.7561462E-02  0.1113990E+00
         -2   -1    0    0    0  501 -0.00000000000E+00  0.00000000000E+00  0.28762432366E+02  0.28762432366E+02  0.00000000000E+00 0. -1.
          2   -1    0    0  501    0  0.00000000000E+00 -0.00000000000E+00 -0.28456479368E+04  0.28456479368E+04  0.00000000000E+00 0.  1.
         25    2    1    2    0    0  0.73954450498E+02 -0.21890365981E+03 -0.20854990180E+04  0.21019854832E+04  0.12509494164E+03 0.  0.
         23    2    1    2    0    0 -0.73954450498E+02  0.21890365981E+03 -0.73138648651E+03  0.77242488605E+03  0.91246583061E+02 0.  0.
          5    1    3    3  502    0  0.96619248193E+02 -0.18390732811E+03 -0.19221176938E+04  0.19333160853E+04  0.41800000000E+01 0.  1.
         -5    1    3    3    0  502 -0.22664797695E+02 -0.34996331700E+02 -0.16338132422E+03  0.16866939791E+03  0.41800000000E+01 0.  1.
        -11    1    4    4    0    0  0.14654604597E+02  0.93243521749E+02 -0.26074140862E+03  0.27729982682E+03  0.00000000000E+00 0. -1.
         11    1    4    4    0    0 -0.88609055094E+02  0.12566013806E+03 -0.47064507788E+03  0.49512505923E+03  0.00000000000E+00 0.  1.
</event>
<event>
 8    1  0.6635152E-009  0.9512914E+02  0.7561462E-02  0.1290886E+00
         -2   -1    0    0    0  501 -0.00000000000E+00  0.00000000000E+00  0.23434789812E+02  0.23434789812E+02  0.00000000000E+00 0.  1.
          2   -1    0    0  501    0  0.00000000000E+00 -0.00000000000E+00 -0.10477690741E+04  0.10477690741E+04  0.00000000000E+00 0. -1.
         25    2    1    2    0    0  0.79583162290E+01  0.49785368122E+02 -0.89031912230E+03  0.90047601874E+03  0.12508798150E+03 0.  0.
         23    2    1    2    0    0 -0.79583162290E+01 -0.49785368122E+02 -0.13401516195E+03  0.17072784513E+03  0.92983954504E+02 0.  0.
          5    1    3    3  502    0 -0.24991526170E+02 -0.35059321752E+02 -0.32379867714E+03  0.32667535588E+03  0.41800000000E+01 0. -1.
         -5    1    3    3    0  502  0.32949842399E+02  0.84844689874E+02 -0.56652044516E+03  0.57380066286E+03  0.41800000000E+01 0. -1.
        -11    1    4    4    0    0 -0.13416748308E+02 -0.12942938580E+02  0.10564860727E+02  0.21427670812E+02  0.00000000000E+00 0.  1.
         11    1    4    4    0    0  0.54584320786E+01 -0.36842429541E+02 -0.14458002267E+03  0.14930017432E+03  0.00000000000E+00 0. -1.
</event>
<event>
 8    1  0.6635152E-009  0.1042928E+03  0.7561462E-02  0.1271519E+00
          2   -1    0    0  501    0  0.00000000000E+00  0.00000000000E+00  0.11352871908E+03  0.11352871908E+03  0.00000000000E+00 0. -1.
         -2   -1    0    0    0  501 -0.00000000000E+00 -0.00000000000E+00 -0.14116446005E+03  0.14116446005E+03  0.00000000000E+00 0.  1.
         25    2    1    2    0    0  0.14147877313E+02  0.54566864098E+02  0.17977640237E+02  0.13837841680E+03  0.12509070947E+03 0.  0.
         23    2    1    2    0    0 -0.14147877313E+02 -0.54566864098E+02 -0.45613381209E+02  0.11631476234E+03  0.90944149359E+02 0.  0.
          5    1    3    3  502    0  0.54712840803E+02 -0.83358836853E+01  0.28976903854E+02  0.62610823845E+02  0.41800000000E+01 0.  1.
         -5    1    3    3    0  502 -0.40564963490E+02  0.62902747783E+02 -0.10999263617E+02  0.75767592952E+02  0.41800000000E+01 0.  1.
        -11    1    4    4    0    0 -0.12373795037E+02 -0.65695041696E+02  0.25024113208E+01  0.66897020633E+02  0.00000000000E+00 0. -1.
         11    1    4    4    0    0 -0.17740822768E+01  0.11128177598E+02 -0.48115792530E+02  0.49417741707E+02  0.00000000000E+00 0.  1.
</event>
<event>
 8    1  0.6635152E-009  0.1794745E+03  0.7561462E-02  0.1168313E+00
         -4   -1    0    0    0  501 -0.00000000000E+00  0.00000000000E+00  0.14662008234E+03  0.14662008234E+03  0.00000000000E+00 0.  1.
          4   -1    0    0  501    0  0.00000000000E+00 -0.00000000000E+00 -0.28752822662E+03  0.28752822662E+03  0.00000000000E+00 0. -1.
         25    2    1    2    0    0  0.14941069151E+03  0.35203529177E+02 -0.16081285152E+03  0.25509065672E+03  0.12509047418E+03 0.  0.
         23    2    1    2    0    0 -0.14941069151E+03 -0.35203529177E+02  0.19904707246E+02  0.17905765224E+03  0.90014455785E+02 0.  0.
          5    1    3    3  502    0  0.11416840004E+02 -0.38118060661E+02 -0.20135928308E+02  0.44791280324E+02  0.41800000000E+01 0. -1.
         -5    1    3    3    0  502  0.13799385151E+03  0.73321589838E+02 -0.14067692321E+03  0.21029937640E+03  0.41800000000E+01 0. -1.
        -11    1    4    4    0    0 -0.37039724028E+02 -0.33944756472E+02 -0.27286801066E+02  0.57173045751E+02  0.00000000000E+00 0. -1.
         11    1    4    4    0    0 -0.11237096748E+03 -0.12587727055E+01  0.47191508313E+02  0.12188460649E+03  0.00000000000E+00 0.  1.
</event>
<event>
 8    1  0.6635152E-009  0.1378671E+03  0.7561462E-02  0.1216228E+00
         -1   -1    0    0    0  501 -0.00000000000E+00  0.00000000000E+00  0.27702317556E+02  0.27702317556E+02  0.00000000000E+00 0.  1.
          1   -1    0    0  501    0  0.00000000000E+00 -0.00000000000E+00 -0.78627227100E+03  0.78627227100E+03  0.00000000000E+00 0. -1.
         25    2    1    2    0    0  0.90996690160E+02 -0.30240735651E+02 -0.47056256367E+03  0.49625741572E+03  0.12508955436E+03 0.  0.
         23    2    1    2    0    0 -0.90996690160E+02  0.30240735651E+02 -0.28800738977E+03  0.31771717284E+03  0.93813888319E+02 0.  0.
          5    1    3    3  502    0 -0.28983942547E+02  0.17512922775E+01 -0.52695136528E+02  0.60310743354E+02  0.41800000000E+01 0. -1.
         -5    1    3    3    0  502  0.11998063271E+03 -0.31992027928E+02 -0.41786742715E+03  0.43594667236E+03  0.41800000000E+01 0. -1.
        -11    1    4    4    0    0 -0.14571002218E+02  0.42340422764E+02 -0.48448805345E+02  0.65972056545E+02  0.00000000000E+00 0.  1.
         11    1    4    4    0    0 -0.76425687942E+02 -0.12099687113E+02 -0.23955858443E+03  0.25174511630E+03  0.00000000000E+00 0. -1.
</event>
<event>
 8    1  0.6635152E-009  0.1195096E+03  0.7561462E-02  0.1243908E+00
         -2   -1    0    0    0  501 -0.00000000000E+00  0.00000000000E+00  0.67423195684E+02  0.67423195684E+02  0.00000000000E+00 0.  1.
          2   -1    0    0  501    0  0.00000000000E+00 -0.00000000000E+00 -0.29005080690E+03  0.29005080690E+03  0.00000000000E+00 0. -1.
         25    2    1    2    0    0 -0.65821737893E+02 -0.19115237350E+02 -0.19282325857E+03  0.23984679698E+03  0.12509110080E+03 0.  0.
         23    2    1    2    0    0  0.65821737893E+02  0.19115237350E+02 -0.29804352646E+02  0.11762720560E+03  0.90829326661E+02 0.  0.
          5    1    3    3  502    0 -0.20864996903E+02  0.44474152662E+02 -0.13211657438E+03  0.14101616920E+03  0.41800000000E+01 0. -1.
         -5    1    3    3    0  502 -0.44956740990E+02 -0.63589390013E+02 -0.60706684190E+02  0.98830627783E+02  0.41800000000E+01 0. -1.
        -11    1    4    4    0    0  0.65263697915E+02  0.49141828785E+02 -0.11618237117E+02  0.82518198209E+02  0.00000000000E+00 0.  1.
         11    1    4    4    0    0  0.55803997820E+00 -0.30026591435E+02 -0.18186115529E+02  0.35109007389E+02  0.00000000000E+00 0. -1.
</event>
<event>
 8    1  0.6635152E-009  0.1138183E+03  0.7561462E-02  0.1253658E+00
         -2   -1    0    0    0  501 -0.00000000000E+00  0.00000000000E+00  0.25945472949E+02  0.25945472949E+02  0.00000000000E+00 0.  1.
          2   -1    0    0  501    0  0.00000000000E+00 -0.00000000000E+00 -0.11346438952E+04  0.11346438952E+04  0.00000000000E+00 0. -1.
         25    2    1    2    0    0  0.10112174917E+03 -0.17241702048E+02 -0.85886538271E+03  0.87396799272E+03  0.12508965685E+03 0.  0.
         23    2    1    2    0    0 -0.10112174917E+03  0.17241702048E+02 -0.24983303951E+03  0.28662137539E+03  0.95981147915E+02 0.  0.
          5    1    3    3  502    0  0.78958772820E+02  0.29327054550E+00 -0.20871878647E+03  0.22319403674E+03  0.41800000000E+01 0.  1.
         -5    1    3    3    0  502  0.22162976348E+02 -0.17534972593E+02 -0.65014659624E+03  0.65077395598E+03  0.41800000000E+01 0.  1.
        -11    1    4    4    0    0 -0.71730989737E+02 -0.18152541357E+02 -0.21919570338E+03  0.23134737091E+03  0.00000000000E+00 0. -1.
         11    1    4    4    0    0 -0.29390759431E+02  0.35394243404E+02 -0.30637336128E+02  0.55274004479E+02  0.00000000000E+00 0.  1.
</event>
<event>
 8    1  0.6635152E-009  0.1148004E+03  0.7561462E-02  0.1251930E+00
          2   -1    0    0  501    0  0.00000000000E+00  0.00000000000E+00  0.42954353231E+03  0.42954353231E+03  0.00000000000E+00 0.  1.
         -2   -1    0    0    0  501 -0.00000000000E+00 -0.00000000000E+00 -0.35151051190E+02  0.35151051190E+02  0.00000000000E+00 0. -1.
         25    2    1    2    0    0  0.58328291997E+02  0.16136361497E+01  0.23735703989E+03  0.27457755628E+03  0.12509866729E+03 0.  0.
         23    2    1    2    0    0 -0.58328291997E+02 -0.16136361497E+01  0.15703544123E+03  0.19011702722E+03  0.89886376991E+02 0.  0.
          5    1    3    3  502    0 -0.29761989800E+02  0.29603674844E+02  0.48543010170E+02  0.64312128230E+02  0.41800000000E+01 0.  1.
         -5    1    3    3    0  502  0.88090281797E+02 -0.27990038695E+02  0.18881402972E+03  0.21026542805E+03  0.41800000000E+01 0.  1.
        -11    1    4    4    0    0  0.12046774502E+01  0.28257977960E+02  0.12401500200E+02  0.30883033746E+02  0.00000000000E+00 0. -1.
         11    1    4    4    0    0 -0.59532969447E+02 -0.29871614109E+02  0.14463394103E+03  0.15923399347E+03  0.00000000000E+00 0.  1.
</event>
<event>
 8    1  0.6635152E-009  0.8263417E+02  0.7561462E-02  0.1321738E+00
          1   -1    0    0  501    0  0.00000000000E+00  0.00000000000E+00  0.63690210764E+02  0.63690210764E+02  0.00000000000E+00 0. -1.
         -1   -1    0    0    0  501 -0.00000000000E+00 -0.00000000000E+00 -0.31100997712E+03  0.31100997712E+03  0.00000000000E+00 0.  1.
         25    2    1    2    0    0  0.58279789739E+02  0.11529455756E+02 -0.22398580422E+03  0.26333847732E+03  0.12509216963E+03 0.  0.
         23    2    1    2    0    0 -0.58279789739E+02 -0.11529455756E+02 -0.23333962135E+02  0.11136171056E+03  0.91255106975E+02 0.  0.
          5    1    3    3  502    0  0.48845020118E+02 -0.31680390330E+02 -0.32582810074E+02  0.66847550697E+02  0.41800000000E+01 0.  1.
         -5    1    3    3    0  502  0.94347696210E+01  0.43209846086E+02 -0.19140299415E+03  0.19649092662E+03  0.41800000000E+01 0.  1.
        -11    1    4    4    0    0 -0.20431490134E+02 -0.13641619784E+02 -0.56108137434E+02  0.61250817674E+02  0.00000000000E+00 0.  1.
         11    1    4    4    0    0 -0.37848299605E+02  0.21121640281E+01  0.32774175298E+02  0.50110892891E+02  0.00000000000E+00 0. -1.
</event>
<event>
 8    1  0.6635152E-009  0.1257491E+03  0.7561462E-02  0.1233903E+00
          1   -1    0    0  501    0  0.00000000000E+00  0.00000000000E+00  0.82715154016E+02  0.82715154016E+02  0.00000000000E+00 0. -1.
         -1   -1    0    0    0  501 -0.00000000000E+00 -0.00000000000E+00 -0.19707283139E+03  0.19707283139E+03  0.00000000000E+00 0.  1.
         25    2    1    2    0    0 -0.53880018018E+02 -0.40031758210E+02 -0.56182638576E+02  0.15267432985E+03  0.12508942446E+03 0.  0.
         23    2    1    2    0    0  0.53880018018E+02  0.40031758210E+02 -0.58175038797E+02  0.12711365555E+03  0.90928258981E+02 0.  0.
          5    1    3    3  502    0  0.31229499746E+02  0.18875766579E+02 -0.25220485900E+02  0.44554702640E+02  0.41800000000E+01 0. -1.
         -5    1    3    3    0  502 -0.85109517764E+02 -0.58907524789E+02 -0.30962152676E+02  0.10811962721E+03  0.41800000000E+01 0. -1.
        -11    1    4    4    0    0  0.78040510695E+02  0.22161600090E+02 -0.52214715842E+02  0.96477118419E+02  0.00000000000E+00 0.  1.
         11    1    4    4    0    0 -0.24160492677E+02  0.17870158120E+02 -0.59603229552E+01  0.30636537131E+02  0.00000000000E+00 0. -1.
</event>
<event>
 8    1  0.6635152E-009  0.1119437E+03  0.7561462E-02  0.1257012E+00
          1   -1    0    0  501    0  0.00000000000E+00  0.00000000000E+00  0.24269645078E+02  0.24269645078E+02  0.00000000000E+00 0. -1.
         -1   -1    0    0    0  501 -0.00000000000E+00 -0.00000000000E+00 -0.59432604075E+03  0.59432604075E+03  0.00000000000E+00 0.  1.
         25    2    1    2    0    0 -0.31551868068E+02 -0.27567766801E+02 -0.23715905380E+03  0.27138073742E+03  0.12509031016E+03 0.  0.
         23    2    1    2    0    0  0.31551868068E+02  0.27567766801E+02 -0.33289734187E+03  0.34721494841E+03  0.89342476065E+02 0.  0.
          5    1    3    3  502    0 -0.79133523734E+02 -0.26412937597E+02 -0.16313321315E+03  0.18327486321E+03  0.41800000000E+01 0. -1.
         -5    1    3    3    0  502  0.47581655666E+02 -0.11548292039E+01 -0.74025840648E+02  0.88105874209E+02  0.41800000000E+01 0. -1.
        -11    1    4    4    0    0  0.60316192927E+00  0.52704547063E+02 -0.24634677398E+03  0.25192234148E+03  0.00000000000E+00 0.  1.
         11    1    4    4    0    0  0.30948706138E+02 -0.25136780262E+02 -0.86550567891E+02  0.95292606931E+02  0.00000000000E+00 0. -1.
</event>
<event>
 8    1  0.6635152E-009  0.8788435E+02  0.7561462E-02  0.1308057E+00
         -1   -1    0    0    0  501 -0.00000000000E+00  0.00000000000E+00  0.89192620498E+02  0.89192620498E+02  0.00000000000E+00 0.  1.
          1   -1    0    0  501    0  0.00000000000E+00 -0.00000000000E+00 -0.16462064388E+03  0.16462064388E+03  0.00000000000E+00 0. -1.
         25    2    1    2    0    0 -0.47352034428E+02 -0.22187621866E+02 -0.50887113122E+02  0.14481337737E+03  0.12508761032E+03 0.  0.
         23    2    1    2    0    0  0.47352034428E+02  0.22187621866E+02 -0.24540910256E+02  0.10899988700E+03  0.92434914192E+02 0.  0.
          5    1    3    3  502    0 -0.56607196318E+02 -0.50071528881E+02 -0.75015829890E+02  0.10656631651E+03  0.41800000000E+01 0.  1.
         -5    1    3    3    0  502  0.92551618906E+01  0.27883907015E+02  0.24128716769E+02  0.38247060867E+02  0.41800000000E+01 0.  1.
        -11    1    4    4    0    0  0.46064103645E+02  0.34795798946E+02 -0.52671015004E+02  0.78146561603E+02  0.00000000000E+00 0. -1.
         11    1    4    4    0    0  0.12879307827E+01 -0.12608177080E+02  0.28130104748E+02  0.30853325398E+02  0.00000000000E+00 0.  1.
</event>
<event>
 8    1  0.6635152E-009  0.1368850E+03  0.7561462E-02  0.1217583E+00
         -1   -1    0    0    0  501 -0.00000000000E+00  0.00000000000E+00  0.12316321254E+03  0.12316321254E+03  0.00000000000E+00 0.  1.
          1   -1    0    0  501    0  0.00000000000E+00 -0.00000000000E+00 -0.18414877767E+03  0.18414877767E+03  0.00000000000E+00 0. -1.
         25    2    1    2    0    0  0.20898227900E+02  0.10524885396E+03 -0.49012577876E+02  0.17194705570E+03  0.12509796156E+03 0.  0.
         23    2    1    2    0    0 -0.20898227900E+02 -0.10524885396E+03 -0.11972987258E+02  0.13536493451E+03  0.81647142527E+02 0.  0.
          5    1    3    3  502    0  0.22337002559E+02  0.12448258358E+03 -0.68771648567E+02  0.14402037129E+03  0.41800000000E+01 0.  1.
         -5    1    3    3    0  502 -0.14387746592E+01 -0.19233729626E+02  0.19759070690E+02  0.27926684414E+02  0.41800000000E+01 0.  1.
        -11    1    4    4    0    0 -0.45576588331E+02 -0.54362828262E+02 -0.28490539165E+02  0.76447716268E+02  0.00000000000E+00 0. -1.
         11    1    4    4    0    0  0.24678360431E+02 -0.50886025696E+02  0.16517551908E+02  0.58917218245E+02  0.00000000000E+00 0.  1.
</event>
<event>
 8    1  0.6635152E-009  0.1645228E+03  0.7561462E-02  0.1183683E+00
         -1   -1    0    0    0  501 -0.00000000000E+00  0.00000000000E+00  0.29452392580E+02  0.29452392580E+02  0.00000000000E+00 0.  1.
          1   -1    0    0  501    0  0.00000000000E+00 -0.00000000000E+00 -0.10422244055E+04  0.10422244055E+04  0.00000000000E+00 0. -1.
         25    2    1    2    0    0 -0.12153253102E+03 -0.63762450098E+02 -0.53834720234E+03  0.56947446777E+03  0.12509057932E+03 0.  0.
         23    2    1    2    0    0  0.12153253102E+03  0.63762450098E+02 -0.47442481056E+03  0.50220233029E+03  0.91063019581E+02 0.  0.
          5    1    3    3  502    0  0.13111816396E+02 -0.27379673808E+02 -0.32221777958E+02  0.44466635153E+02  0.41800000000E+01 0. -1.
         -5    1    3    3    0  502 -0.13464434742E+03 -0.36382776290E+02 -0.50612542438E+03  0.52500783261E+03  0.41800000000E+01 0. -1.
        -11    1    4    4    0    0  0.11823784147E+03  0.26131615341E+02 -0.29577873093E+03  0.31960617351E+03  0.00000000000E+00 0.  1.
         11    1    4    4    0    0  0.32946895544E+01  0.37630834756E+02 -0.17864607963E+03  0.18259615678E+03  0.00000000000E+00 0. -1.
</event>
<event>
 8    1  0.6635152E-009  0.1052001E+03  0.7561462E-02  0.1269726E+00
          2   -1    0    0  501    0  0.00000000000E+00  0.00000000000E+00  0.24652963251E+03  0.24652963251E+03  0.00000000000E+00 0. -1.
         -2   -1    0    0    0  501 -0.00000000000E+00 -0.00000000000E+00 -0.81838031681E+02  0.81838031681E+02  0.00000000000E+00 0.  1.
         25    2    1    2    0    0 -0.10655655899E+02 -0.81518009628E+02  0.13109699112E+03  0.19897984932E+03  0.12509128849E+03 0.  0.
         23    2    1    2    0    0  0.10655655899E+02  0.81518009628E+02  0.33594609706E+02  0.12938781487E+03  0.94095057998E+02 0.  0.
          5    1    3    3  502    0  0.22452367206E+02 -0.21412826063E+02 -0.17057636892E+02  0.35651834308E+02  0.41800000000E+01 0.  1.
         -5    1    3    3    0  502 -0.33108023105E+02 -0.60105183565E+02  0.14815462801E+03  0.16332801501E+03  0.41800000000E+01 0.  1.
        -11    1    4    4    0    0  0.10078694372E+02 -0.12651227928E+02  0.31249554728E+02  0.35187615990E+02  0.00000000000E+00 0. -1.
         11    1    4    4    0    0  0.57696152703E+00  0.94169237556E+02  0.23450549777E+01  0.94200198882E+02  0.00000000000E+00 0.  1.
</event>
<event>
 8    1  0.6635152E-009  0.2219152E+03  0.7561462E-02  0.1132463E+00
          1   -1    0    0  501    0  0.00000000000E+00  0.00000000000E+00  0.14690724178E+03  0.14690724178E+03  0.00000000000E+00 0. -1.
         -1   -1    0    0    0  501 -0.00000000000E+00 -0.00000000000E+00 -0.49808445422E+03  0.49808445422E+03  0.00000000000E+00 0.  1.
         25    2    1    2    0    0  0.83310454609E+02  0.20212935124E+03 -0.31871244154E+03  0.40622566606E+03  0.12507903460E+03 0.  0.
         23    2    1    2    0    0 -0.83310454609E+02 -0.20212935124E+03 -0.32464770898E+02  0.23876602994E+03  0.90323580667E+02 0.  0.
          5    1    3    3  502    0  0.22551840880E+01  0.10615834762E+02  0.11245813384E+02  0.16177840450E+02  0.41800000000E+01 0.  1.
         -5    1    3    3    0  502  0.81055270521E+02  0.19151351648E+03 -0.32995825493E+03  0.39004782561E+03  0.41800000000E+01 0.  1.
        -11    1    4    4    0    0  0.67124553182E+01 -0.18723856649E+02  0.19603857054E+02  0.27927604186E+02  0.00000000000E+00 0.  1.
         11    1    4    4    0    0 -0.90022909927E+02 -0.18340549459E+03 -0.52068627952E+02  0.21083842576E+03  0.00000000000E+00 0. -1.
</event>
<event>
 8    1  0.6635152E-009  0.1230248E+03  0.7561462E-02  0.1238189E+00
          2   -1    0    0  501    0  0.00000000000E+00  0.00000000000E+00  0.78852276944E+03  0.78852276944E+03  0.00000000000E+00 0. -1.
         -2   -1    0    0    0  501 -0.00000000000E+00 -0.00000000000E+00 -0.21901185161E+02  0.21901185161E+02  0.00000000000E+00 0.  1.
         25    2    1    2    0    0 -0.65277495613E+02  0.36531796031E+02  0.45851219725E+03  0.48111974651E+03  0.12508817649E+03 0.  0.
         23    2    1    2    0    0  0.65277495613E+02 -0.36531796031E+02  0.30810938703E+03  0.32930420809E+03  0.88961472214E+02 0.  0.
          5    1    3    3  502    0  0.25547008828E+02  0.28743514735E+02  0.25717641279E+03  0.26006925807E+03  0.41800000000E+01 0.  1.
         -5    1    3    3    0  502 -0.90824504441E+02  0.77882812961E+01  0.20133578446E+03  0.22105048844E+03  0.41800000000E+01 0.  1.
        -11    1    4    4    0    0  0.52437098711E+02  0.21503502282E+02  0.15781668335E+03  0.16768469064E+03  0.00000000000E+00 0. -1.
         11    1    4    4    0    0  0.12840396903E+02 -0.58035298313E+02  0.15029270368E+03  0.16161951746E+03  0.00000000000E+00 0.  1.
</event>
<event>
 8    1  0.6635152E-009  0.1492165E+03  0.7561462E-02  0.1201439E+00
          2   -1    0    0  501    0  0.00000000000E+00  0.00000000000E+00  0.35424065472E+03  0.35424065472E+03  0.00000000000E+00 0. -1.
         -2   -1    0    0    0  501 -0.00000000000E+00 -0.00000000000E+00 -0.88000748959E+02  0.88000748959E+02  0.00000000000E+00 0.  1.
         25    2    1    2    0    0  0.11063259798E+03 -0.67427492740E+02  0.80960806035E+02  0.19745419009E+03  0.12508983394E+03 0.  0.
         23    2    1    2    0    0 -0.11063259798E+03  0.67427492740E+02  0.18527909973E+03  0.24478721359E+03  0.93842403153E+02 0.  0.
          5    1    3    3  502    0  0.78310309647E+02 -0.54324109626E+01 -0.13602035169E+02  0.79777838067E+02  0.41800000000E+01 0. -1.
         -5    1    3    3    0  502  0.32322288337E+02 -0.61995081777E+02  0.94562841204E+02  0.11767635202E+03  0.41800000000E+01 0. -1.
        -11    1    4    4    0    0 -0.82814033222E+02  0.83543576165E+02  0.10265021320E+03  0.15612417970E+03  0.00000000000E+00 0.  1.
         11    1    4    4    0    0 -0.27818564762E+02 -0.16116083425E+02  0.82628886531E+02  0.88663033896E+02  0.00000000000E+00 0. -1.
</event>
<event>
 8    1  0.6635152E-009  0.1812626E+03  0.7561462E-02  0.1166587E+00
          2   -1    0    0  501    0  0.00000000000E+00  0.00000000000E+00  0.13078780244E+04  0.13078780244E+04  0.00000000000E+00 0. -1.
         -2   -1    0    0    0  501 -0.00000000000E+00 -0.00000000000E+00 -0.34603277776E+02  0.34603277776E+02  0.00000000000E+00 0.  1.
         25    2    1    2    0    0 -0.53727385263E+02 -0.14240086878E+03  0.97527331343E+03  0.99497273526E+03  0.12509224063E+03 0.  0.
         23    2    1    2    0    0  0.53727385263E+02  0.14240086878E+03  0.29800143318E+03  0.34750856690E+03  0.93769454162E+02 0.  0.
          5    1    3    3  502    0 -0.62518940868E+02 -0.92348678856E+01  0.33234419117E+03  0.33832533833E+03  0.41800000000E+01 0.  1.
         -5    1    3    3    0  502  0.87915556049E+01 -0.13316600090E+03  0.64292912226E+03  0.65664739693E+03  0.41800000000E+01 0.  1.
        -11    1    4    4    0    0  0.69195294926E+02  0.11606010498E+03  0.17683001982E+03  0.22254615862E+03  0.00000000000E+00 0.  1.
         11    1    4    4    0    0 -0.15467909663E+02  0.26340763805E+02  0.12117141336E+03  0.12496240828E+03  0.00000000000E+00 0. -1.
</event>
<event>
 8    1  0.6635152E-009  0.7707395E+02  0.7561462E-02  0.1337566E+00
          1   -1    0    0  501    0  0.00000000000E+00  0.00000000000E+00  0.62323464828E+02  0.62323464828E+02  0.00000000000E+00 0. -1.
         -1   -1    0    0    0  501 -0.00000000000E+00 -0.00000000000E+00 -0.21528227136E+03  0.21528227136E+03  0.00000000000E+00 0.  1.
         25    2    1    2    0    0 -0.29522826563E+02  0.16275576436E+02 -0.11988536130E+03  0.17651358577E+03  0.12509218374E+03 0.  0.
         23    2    1    2    0    0  0.29522826563E+02 -0.16275576436E+02 -0.33073445240E+02  0.10109215042E+03  0.89382763548E+02 0.  0.
          5    1    3    3  502    0  0.29398607939E+02 -0.30317952687E+01 -0.10951449019E+03  0.11350932073E+03  0.41800000000E+01 0.  1.
         -5    1    3    3    0  502 -0.58921434502E+02  0.19307371705E+02 -0.10370871104E+02  0.63004265041E+02  0.41800000000E+01 0.  1.
        -11    1    4    4    0    0 -0.88993699586E+01 -0.21603350336E+02  0.23081142331E+02  0.32842695728E+02  0.00000000000E+00 0. -1.
         11    1    4    4    0    0  0.38422196521E+02  0.53277738999E+01 -0.56154587571E+02  0.68249454690E+02  0.00000000000E+00 0.  1.
</event>
<event>
 8    1  0.6635152E-009  0.1642150E+03  0.7561462E-02  0.1184019E+00
          2   -1    0    0  501    0  0.00000000000E+00  0.00000000000E+00  0.85499097123E+03  0.85499097123E+03  0.00000000000E+00 0. -1.
         -2   -1    0    0    0  501 -0.00000000000E+00 -0.00000000000E+00 -0.37320962190E+02  0.37320962190E+02  0.00000000000E+00 0.  1.
         25    2    1    2    0    0  0.74914600729E+02 -0.11328819240E+03  0.52538552933E+03  0.55688746371E+03  0.12508909175E+03 0.  0.
         23    2    1    2    0    0 -0.74914600729E+02  0.11328819240E+03  0.29228447971E+03  0.33542446970E+03  0.92913647319E+02 0.  0.
          5    1    3    3  502    0  0.25591477071E+02 -0.12893594682E+03  0.34645043111E+03  0.37057357663E+03  0.41800000000E+01 0.  1.
         -5    1    3    3    0  502  0.49323123658E+02  0.15647754418E+02  0.17893509822E+03  0.18631388708E+03  0.41800000000E+01 0.  1.
        -11    1    4    4    0    0 -0.28610545907E+02  0.87366968231E+02  0.99495297126E+02  0.13546536319E+03  0.00000000000E+00 0.  1.
         11    1    4    4    0    0 -0.46304054823E+02  0.25921224167E+02  0.19278918258E+03  0.19995910651E+03  0.00000000000E+00 0. -1.
</event>
<event>
 8    1  0.6635152E-009  0.2401804E+03  0.7561462E-02  0.1119673E+00
         -1   -1    0    0    0  501 -0.00000000000E+00  0.00000000000E+00  0.97938916501E+02  0.97938916501E+02  0.00000000000E+00 0.  1.
          1   -1    0    0  501    0  0.00000000000E+00 -0.00000000000E+00 -0.62231436074E+03  0.62231436074E+03  0.00000000000E+00 0. -1.
         25    2    1    2    0    0 -0.35579342768E+01 -0.21908278636E+03 -0.31903935387E+03  0.40674768470E+03  0.12509054128E+03 0.  0.
         23    2    1    2    0    0  0.35579342768E+01  0.21908278636E+03 -0.20533609037E+03  0.31350559254E+03  0.90071751238E+02 0.  0.
          5    1    3    3  502    0  0.58653221910E+02 -0.13665613845E+03 -0.18063219772E+03  0.23400975166E+03  0.41800000000E+01 0.  1.
         -5    1    3    3    0  502 -0.62211156187E+02 -0.82426647910E+02 -0.13840715615E+03  0.17273793305E+03  0.41800000000E+01 0.  1.
        -11    1    4    4    0    0  0.30332875951E+02  0.63560887261E+02 -0.10522871932E+03  0.12662208781E+03  0.00000000000E+00 0. -1.
         11    1    4    4    0    0 -0.26774941674E+02  0.15552189910E+03 -0.10010737105E+03  0.18688350473E+03  0.00000000000E+00 0.  1.
</event>
<event>
 8    1  0.6635152E-009  0.1634178E+03  0.7561462E-02  0.1184891E+00
          1   -1    0    0  501    0  0.00000000000E+00  0.00000000000E+00  0.14863331937E+03  0.14863331937E+03  0.00000000000E+00 0. -1.
         -1   -1    0    0    0  501 -0.00000000000E+00 -0.00000000000E+00 -0.19994741785E+03  0.19994741785E+03  0.00000000000E+00 0.  1.
         25    2    1    2    0    0  0.37405356655E+02 -0.12730859957E+03 -0.28446383240E+02  0.18456285104E+03  0.12509040344E+03 0.  0.
         23    2    1    2    0    0 -0.37405356655E+02  0.12730859957E+03 -0.22867715248E+02  0.16401788618E+03  0.93660527205E+02 0.  0.
          5    1    3    3  502    0  0.20144024788E+02  0.21755635213E+02 -0.15948027949E+02  0.33924937637E+02  0.41800000000E+01 0. -1.
         -5    1    3    3    0  502  0.17261331867E+02 -0.14906423478E+03 -0.12498355291E+02  0.15063791340E+03  0.41800000000E+01 0. -1.
        -11    1    4    4    0    0 -0.55043536084E+02  0.89830244014E+02  0.16778424983E+02  0.10668073467E+03  0.00000000000E+00 0. -1.
         11    1    4    4    0    0  0.17638179429E+02  0.37478355556E+02 -0.39646140231E+02  0.57337151516E+02  0.00000000000E+00 0.  1.
</event>
<event>
 8    1  0.6635152E-009  0.1088266E+03  0.7561462E-02  0.1262758E+00
          2   -1    0    0  501    0  0.00000000000E+00  0.00000000000E+00  0.58012024593E+03  0.58012024593E+03  0.00000000000E+00 0.  1.
         -2   -1    0    0    0  501 -0.00000000000E+00 -0.00000000000E+00 -0.25785341088E+02  0.25785341088E+02  0.00000000000E+00 0. -1.
         25    2    1    2    0    0 -0.58643202967E+02 -0.91012218306E+01  0.35423804536E+03  0.38033425961E+03  0.12509076209E+03 0.  0.
         23    2    1    2    0    0  0.58643202967E+02  0.91012218306E+01  0.20009685949E+03  0.22557132741E+03  0.85567593638E+02 0.  0.
          5    1    3    3  502    0 -0.23718221031E+02 -0.60404290151E+02  0.25542439167E+03  0.26357223780E+03  0.41800000000E+01 0.  1.
         -5    1    3    3    0  502 -0.34924981936E+02  0.51303068321E+02  0.98813653685E+02  0.11676202181E+03  0.41800000000E+01 0.  1.
        -11    1    4    4    0    0  0.73957891360E+02  0.32564678694E+01  0.10154361125E+03  0.12566415266E+03  0.00000000000E+00 0.  1.
         11    1    4    4    0    0 -0.15314688393E+02  0.58447539612E+01  0.98553248236E+02  0.99907174754E+02  0.00000000000E+00 0. -1.
</event>
<event>
 8    1  0.6635152E-009  0.1557287E+03  0.7561462E-02  0.1193605E+00
          2   -1    0    0  501    0  0.00000000000E+00  0.00000000000E+00  0.30422973883E+03  0.30422973883E+03  0.00000000000E+00 0. -1.
         -2   -1    0    0    0  501 -0.00000000000E+00 -0.00000000000E+00 -0.14408611637E+03  0.14408611637E+03  0.00000000000E+00 0.  1.
         25    2    1    2    0    0 -0.69423206510E+02  0.13868736138E+03  0.17821840971E+03  0.26732485089E+03  0.12508800317E+03 0.  0.
         23    2    1    2    0    0  0.69423206510E+02 -0.13868736138E+03 -0.18074787255E+02  0.18099100431E+03  0.91527481665E+02 0.  0.
          5    1    3    3  502    0 -0.43376264475E+02  0.10236782746E+03  0.34082218457E+02  0.11636039891E+03  0.41800000000E+01 0.  1.
         -5    1    3    3    0  502 -0.26046942035E+02  0.36319533912E+02  0.14413619125E+03  0.15096445198E+03  0.41800000000E+01 0.  1.
        -11    1    4    4    0    0  0.36774031058E+02 -0.64272745163E+02  0.37045036900E+02  0.82798851984E+02  0.00000000000E+00 0. -1.
         11    1    4    4    0    0  0.32649175452E+02 -0.74414616213E+02 -0.55119824155E+02  0.98192152327E+02  0.00000000000E+00 0.  1.
</event>
<event>
 8    1  0.6635152E-009  0.1487474E+03  0.7561462E-02  0.1202021E+00
          2   -1    0    0  501    0  0.00000000000E+00  0.00000000000E+00  0.60398596774E+03  0.60398596774E+03  0.00000000000E+00 0. -1.
         -2   -1    0    0    0  501 -0.00000000000E+00 -0.00000000000E+00 -0.11283004897E+03  0.11283004897E+03  0.00000000000E+00 0.  1.
         25    2    1    2    0    0  0.12339548555E+03 -0.44329842130E+02  0.52253068625E+03  0.55306068616E+03  0.12508486619E+03 0.  0.
         23    2    1    2    0    0 -0.12339548555E+03  0.44329842130E+02 -0.31374767471E+02  0.16375533055E+03  0.92950801475E+02 0.  0.
          5    1    3    3  502    0  0.12726341496E+03 -0.52274183098E+02  0.52519232656E+03  0.54293003166E+03  0.41800000000E+01 0. -1.
         -5    1    3    3    0  502 -0.38679294157E+01  0.79443409684E+01 -0.26616403104E+01  0.10130654497E+02  0.41800000000E+01 0. -1.
        -11    1    4    4    0    0 -0.31964652793E+01  0.28684975646E+02  0.16712891653E+02  0.33352150838E+02  0.00000000000E+00 0. -1.
         11    1    4    4    0    0 -0.12019902027E+03  0.15644866484E+02 -0.48087659124E+02  0.13040317972E+03  0.00000000000E+00 0.  1.
</event>
<event>
 8    1  0.6635152E-009  0.1009310E+03  0.7561462E-02  0.1278350E+00
         -1   -1    0    0    0  501 -0.00000000000E+00  0.00000000000E+00  0.27157675128E+03  0.27157675128E+03  0.00000000000E+00 0.  1.
          1   -1    0    0  501    0  0.00000000000E+00 -0.00000000000E+00 -0.46054479033E+02  0.46054479033E+02  0.00000000000E+00 0. -1.
         25    2    1    2    0    0 -0.22754384510E+02  0.40870414305E+00  0.15652699293E+03  0.20165915649E+03  0.12509111409E+03 0.  0.
         23    2    1    2    0    0  0.22754384510E+02 -0.40870414305E+00  0.68995279315E+02  0.11597207383E+03  0.90394935069E+02 0.  0.
          5    1    3    3  502    0 -0.30809523918E+02  0.55044062167E+02  0.11902752531E+03  0.13477425469E+03  0.41800000000E+01 0. -1.
         -5    1    3    3    0  502  0.80551394076E+01 -0.54635358024E+02  0.37499467620E+02  0.66884901802E+02  0.41800000000E+01 0. -1.
        -11    1    4    4    0    0 -0.29990741258E+02 -0.46298174753E+01  0.17387787064E+01  0.30395774746E+02  0.00000000000E+00 0. -1.
         11    1    4    4    0    0  0.52745125768E+02  0.42211133322E+01  0.67256500609E+02  0.85576299080E+02  0.00000000000E+00 0.  1.
</event>
<event>
 8    1  0.6635152E-009  0.1355360E+03  0.7561462E-02  0.1219465E+00
          3   -1    0    0  501    0  0.00000000000E+00  0.00000000000E+00  0.38429107338E+03  0.38429107338E+03  0.00000000000E+00 0. -1.
         -3   -1    0    0    0  501 -0.00000000000E+00 -0.00000000000E+00 -0.64427707186E+02  0.64427707186E+02  0.00000000000E+00 0.  1.
         25    2    1    2    0    0  0.50597772726E+02 -0.87887684268E+02  0.24512785013E+03  0.29329064280E+03  0.12508940239E+03 0.  0.
         23    2    1    2    0    0 -0.50597772726E+02  0.87887684268E+02  0.74735516068E+02  0.15542813778E+03  0.91039161901E+02 0.  0.
          5    1    3    3  502    0 -0.32184330605E+02  0.27599780994E+01  0.24434691000E+02  0.40718240874E+02  0.41800000000E+01 0. -1.
         -5    1    3    3    0  502  0.82782103332E+02 -0.90647662368E+02  0.22069315913E+03  0.25257240192E+03  0.41800000000E+01 0. -1.
        -11    1    4    4    0    0 -0.29672378345E+01  0.60805835214E+02 -0.22684488876E+01  0.60920439565E+02  0.00000000000E+00 0.  1.
         11    1    4    4    0    0 -0.47630534892E+02  0.27081849054E+02  0.77003964955E+02  0.94507698211E+02  0.00000000000E+00 0. -1.
</event>
<event>
 8    1  0.6635152E-009  0.1144650E+03  0.7561462E-02  0.1252518E+00
          2   -1    0    0  501    0  0.00000000000E+00  0.00000000000E+00  0.13392143490E+03  0.13392143490E+03  0.00000000000E+00 0. -1.
         -2   -1    0    0    0  501 -0.00000000000E+00 -0.00000000000E+00 -0.12497913768E+03  0.12497913768E+03  0.00000000000E+00 0.  1.
         25    2    1    2    0    0  0.13006925034E+02 -0.54209605355E+02  0.49120570225E+02  0.14549447002E+03  0.12509176223E+03 0.  0.
         23    2    1    2    0    0 -0.13006925034E+02  0.54209605355E+02 -0.40178273007E+02  0.11340610255E+03  0.90215237417E+02 0.  0.
          5    1    3    3  502    0  0.55998121268E+02  0.11889503205E+02  0.27384118317E+02  0.63596479526E+02  0.41800000000E+01 0.  1.
         -5    1    3    3    0  502 -0.42991196235E+02 -0.66099108560E+02  0.21736451908E+02  0.81897990499E+02  0.41800000000E+01 0.  1.
        -11    1    4    4    0    0 -0.21477836057E+02 -0.12816498346E+02 -0.38395522776E+02  0.45823315472E+02  0.00000000000E+00 0.  1.
         11    1    4    4    0    0  0.84709110233E+01  0.67026103701E+02 -0.17827502304E+01  0.67582787078E+02  0.00000000000E+00 0. -1.
</event>
<event>
 8    1  0.6635152E-009  0.8306333E+02  0.7561462E-02  0.1320576E+00
         -1   -1    0    0    0  501 -0.00000000000E+00  0.00000000000E+00  0.15118315638E+03  0.15118315638E+03  0.00000000000E+00 0.  1.
          1   -1    0    0  501    0  0.00000000000E+00 -0.00000000000E+00 -0.97504617811E+02  0.97504617811E+02  0.00000000000E+00 0. -1.
         25    2    1    2    0    0 -0.24775919367E+02 -0.26082448029E+02 -0.11423773378E+02  0.13065555424E+03  0.12508489509E+03 0.  0.
         23    2    1    2    0    0  0.24775919367E+02  0.26082448029E+02  0.65102311949E+02  0.11803221995E+03  0.91646896567E+02 0.  0.
          5    1    3    3  502    0  0.35490571991E+02  0.30758309437E+02 -0.60001222126E+01  0.47530286831E+02  0.41800000000E+01 0. -1.
         -5    1    3    3    0  502 -0.60266491358E+02 -0.56840757466E+02 -0.54236511651E+01  0.83125267409E+02  0.41800000000E+01 0. -1.
        -11    1    4    4    0    0  0.15245670728E+02  0.14635821059E+02  0.88118280254E+02  0.90617156483E+02  0.00000000000E+00 0.  1.
         11    1    4    4    0    0  0.95302486390E+01  0.11446626970E+02 -0.23015968305E+02  0.27415063471E+02  0.00000000000E+00 0. -1.
</event>
<event>
 8    1  0.6635152E-009  0.9467047E+02  0.7561462E-02  0.1291920E+00
         -2   -1    0    0    0  501 -0.00000000000E+00  0.00000000000E+00  0.50434602801E+03  0.50434602801E+03  0.00000000000E+00 0. -1.
          2   -1    0    0  501    0  0.00000000000E+00 -0.00000000000E+00 -0.24233465413E+02  0.24233465413E+02  0.00000000000E+00 0.  1.
         25    2    1    2    0    0  0.24413114382E+01 -0.17656164915E+02  0.25047014855E+03  0.28053463327E+03  0.12508670989E+03 0.  0.
         23    2    1    2    0    0 -0.24413114382E+01  0.17656164915E+02  0.22964241404E+03  0.24804486014E+03  0.92048433747E+02 0.  0.
          5    1    3    3  502    0  0.38855870815E+02 -0.48244991652E+02  0.20649540244E+03  0.21562741371E+03  0.41800000000E+01 0.  1.
         -5    1    3    3    0  502 -0.36414559376E+02  0.30588826738E+02  0.43974746111E+02  0.64907219562E+02  0.41800000000E+01 0.  1.
        -11    1    4    4    0    0 -0.39951321908E+02  0.74590412459E+01  0.18236681437E+03  0.18684057483E+03  0.00000000000E+00 0. -1.
         11    1    4    4    0    0  0.37510010470E+02  0.10197123669E+02  0.47275599672E+02  0.61204285315E+02  0.00000000000E+00 0.  1.
</event>
<event>
 8    1  0.6635152E-009  0.1208704E+03  0.7561462E-02  0.1241668E+00
         -1   -1    0    0    0  501 -0.00000000000E+00  0.00000000000E+00  0.10380025223E+03  0.10380025223E+03  0.00000000000E+00 0.  1.
          1   -1    0    0  501    0  0.00000000000E+00 -0.00000000000E+00 -0.21877097568E+03  0.21877097568E+03  0.00000000000E+00 0. -1.
         25    2    1    2    0    0 -0.83287550534E+02 -0.37446931029E+02 -0.11616021997E+03  0.19359702475E+03  0.12509005785E+03 0.  0.
         23    2    1    2    0    0  0.83287550534E+02  0.37446931029E+02  0.11894965174E+01  0.12897420316E+03  0.91070530150E+02 0.  0.
          5    1    3    3  502    0 -0.97727949961E+02 -0.24536215583E+01 -0.12054576651E+03  0.15525954620E+03  0.41800000000E+01 0.  1.
         -5    1    3    3    0  502  0.14440399427E+02 -0.34993309470E+02  0.43855465426E+01  0.38337478553E+02  0.41800000000E+01 0.  1.
        -11    1    4    4    0    0  0.68296189088E+02  0.51282790995E+02  0.32686469410E+02  0.91447795920E+02  0.00000000000E+00 0.  1.
         11    1    4    4    0    0  0.14991361447E+02 -0.13835859966E+02 -0.31496972893E+02  0.37526407241E+02  0.00000000000E+00 0. -1.
</event>
<event>
 8    1  0.6635152E-009  0.1658532E+03  0.7561462E-02  0.1182243E+00
          1   -1    0    0  501    0  0.00000000000E+00  0.00000000000E+00  0.13617846623E+04  0.13617846623E+04  0.00000000000E+00 0. -1.
         -1   -1    0    0    0  501 -0.00000000000E+00 -0.00000000000E+00 -0.27488144471E+02  0.27488144471E+02  0.00000000000E+00 0.  1.
         25    2    1    2    0    0  0.14136743529E+03 -0.59349707196E+02  0.86483219262E+03  0.88718058941E+03  0.12509011686E+03 0.  0.
         23    2    1    2    0    0 -0.14136743529E+03  0.59349707196E+02  0.46946432525E+03  0.50209221739E+03  0.90513549173E+02 0.  0.
          5    1    3    3  502    0  0.25025022973E+02  0.20702207107E+02  0.40032425838E+03  0.40166132176E+03  0.41800000000E+01 0. -1.
         -5    1    3    3    0  502  0.11634241232E+03 -0.80051914304E+02  0.46450793424E+03  0.48551926765E+03  0.41800000000E+01 0. -1.
        -11    1    4    4    0    0 -0.51316523693E+02  0.29086585291E+01  0.28158133198E+03  0.28623398194E+03  0.00000000000E+00 0. -1.
         11    1    4    4    0    0 -0.90050911598E+02  0.56441048667E+02  0.18788299327E+03  0.21585823546E+03  0.00000000000E+00 0.  1.
</event>
<event>
 8    1  0.6635152E-009  0.1278421E+03  0.7561462E-02  0.1230693E+00
         -1   -1    0    0    0  501 -0.00000000000E+00  0.00000000000E+00  0.45028399622E+02  0.45028399622E+02  0.00000000000E+00 0.  1.
          1   -1    0    0  501    0  0.00000000000E+00 -0.00000000000E+00 -0.48455534028E+03  0.48455534028E+03  0.00000000000E+00 0. -1.
         25    2    1    2    0    0 -0.42295061053E+02 -0.87922253785E+02 -0.20851537002E+03  0.26200318676E+03  0.12509122847E+03 0.  0.
         23    2    1    2    0    0  0.42295061053E+02  0.87922253785E+02 -0.23101157064E+03  0.26758055314E+03  0.93347799917E+02 0.  0.
          5    1    3    3  502    0 -0.52820970146E+02 -0.11599897652E+02 -0.19150628898E+02  0.57522443445E+02  0.41800000000E+01 0.  1.
         -5    1    3    3    0  502  0.10525909092E+02 -0.76322356133E+02 -0.18936474112E+03  0.20448074331E+03  0.41800000000E+01 0.  1.
        -11    1    4    4    0    0  0.52768569692E+02  0.97000509412E+02 -0.22809232926E+03  0.25341612309E+03  0.00000000000E+00 0. -1.
         11    1    4    4    0    0 -0.10473508639E+02 -0.90782556274E+01 -0.29192413780E+01  0.14164430051E+02  0.00000000000E+00 0.  1.
</event>
<event>
 8    1  0.6635152E-009  0.7868500E+02  0.7561462E-02  0.1332825E+00
          2   -1    0    0  501    0  0.00000000000E+00  0.00000000000E+00  0.16682173108E+03  0.16682173108E+03  0.00000000000E+00 0. -1.
         -2   -1    0    0    0  501 -0.00000000000E+00 -0.00000000000E+00 -0.10823644010E+03  0.10823644010E+03  0.00000000000E+00 0.  1.
         25    2    1    2    0    0  0.55627691415E+02  0.54879579330E+02  0.32106288899E+02  0.15094767528E+03  0.12509268006E+03 0.  0.
         23    2    1    2    0    0 -0.55627691415E+02 -0.54879579330E+02  0.26479002083E+02  0.12411049591E+03  0.92714989962E+02 0.  0.
          5    1    3    3  502    0  0.35153996492E+02  0.27778673326E+02  0.80176017897E+02  0.91940874517E+02  0.41800000000E+01 0.  1.
         -5    1    3    3    0  502  0.20473694923E+02  0.27100906004E+02 -0.48069728998E+02  0.59006800760E+02  0.41800000000E+01 0.  1.
        -11    1    4    4    0    0 -0.33538728505E+02 -0.32359164091E+02  0.61378837438E+02  0.77067006531E+02  0.00000000000E+00 0. -1.
         11    1    4    4    0    0 -0.22088962910E+02 -0.22520415239E+02 -0.34899835355E+02  0.47043489377E+02  0.00000000000E+00 0.  1.
</event>
<event>
 8    1  0.6635152E-009  0.1293199E+03  0.7561462E-02  0.1228468E+00
         -2   -1    0    0    0  501 -0.00000000000E+00  0.00000000000E+00  0.39581483843E+02  0.39581483843E+02  0.00000000000E+00 0.  1.
          2   -1    0    0  501    0  0.00000000000E+00 -0.00000000000E+00 -0.55008326823E+03  0.55008326823E+03  0.00000000000E+00 0. -1.
         25    2    1    2    0    0  0.68073231674E+02  0.43629635179E+02 -0.40272882713E+03  0.42938963647E+03  0.12508973487E+03 0.  0.
         23    2    1    2    0    0 -0.68073231674E+02 -0.43629635179E+02 -0.10777295726E+03  0.16027511560E+03  0.86807790144E+02 0.  0.
          5    1    3    3  502    0  0.46000763093E+01 -0.37126821071E+02 -0.54010300438E+02  0.65834235002E+02  0.41800000000E+01 0.  1.
         -5    1    3    3    0  502  0.63473155364E+02  0.80756456250E+02 -0.34871852670E+03  0.36355540147E+03  0.41800000000E+01 0.  1.
        -11    1    4    4    0    0 -0.33235816868E+02 -0.67995156324E+02 -0.75475529684E+02  0.10688552936E+03  0.00000000000E+00 0.  1.
         11    1    4    4    0    0 -0.34837414806E+02  0.24365521145E+02 -0.32297427574E+02  0.53389586240E+02  0.00000000000E+00 0. -1.
</event>
<event>
 8    1  0.6635152E-009  0.9005693E+02  0.7561462E-02  0.1302714E+00
          1   -1    0    0  501    0  0.00000000000E+00  0.00000000000E+00  0.16312299335E+03  0.16312299335E+03  0.00000000000E+00 0. -1.
         -1   -1    0    0    0  501 -0.00000000000E+00 -0.00000000000E+00 -0.76665922654E+02  0.76665922654E+02  0.00000000000E+00 0.  1.
         25    2    1    2    0    0  0.93839571536E+01  0.66720400035E+01  0.24785687424E+02  0.12804319081E+03  0.12509258028E+03 0.  0.
         23    2    1    2    0    0 -0.93839571536E+01 -0.66720400035E+01  0.61671383274E+02  0.11174572520E+03  0.92472551688E+02 0.  0.
          5    1    3    3  502    0  0.10107309321E+02 -0.39853393106E+02 -0.33603158828E+02  0.53264390797E+02  0.41800000000E+01 0. -1.
         -5    1    3    3    0  502 -0.72335216762E+00  0.46525433109E+02  0.58388846252E+02  0.74778800010E+02  0.41800000000E+01 0. -1.
        -11    1    4    4    0    0  0.12150926479E+02 -0.45811592595E+02  0.23099864318E+02  0.52725238377E+02  0.00000000000E+00 0. -1.
         11    1    4    4    0    0 -0.21534883633E+02  0.39139552591E+02  0.38571518956E+02  0.59020486822E+02  0.00000000000E+00 0.  1.
</event>
<event>
 8    1  0.6635152E-009  0.3103117E+03  0.7561462E-02  0.1080197E+00
         -1   -1    0    0    0  501 -0.00000000000E+00  0.00000000000E+00  0.10983488513E+03  0.10983488513E+03  0.00000000000E+00 0.  1.
          1   -1    0    0  501    0  0.00000000000E+00 -0.00000000000E+00 -0.12666759088E+04  0.12666759088E+04  0.00000000000E+00 0. -1.
         25    2    1    2    0    0 -0.26349156995E+03  0.14566284374E+03 -0.23335729281E+03  0.40093446114E+03  0.12508934624E+03 0.  0.
         23    2    1    2    0    0  0.26349156995E+03 -0.14566284374E+03 -0.92348373087E+03  0.97557633280E+03  0.91002793625E+02 0.  0.
          5    1    3    3  502    0 -0.20008226630E+03  0.15324598211E+03 -0.22210626514E+03  0.33595521984E+03  0.41800000000E+01 0.  1.
         -5    1    3    3    0  502 -0.63409303648E+02 -0.75831383741E+01 -0.11251027671E+02  0.64979241304E+02  0.41800000000E+01 0.  1.
        -11    1    4    4    0    0  0.10757996512E+03 -0.85614379616E+02 -0.54093583022E+03  0.55813514789E+03  0.00000000000E+00 0. -1.
         11    1    4    4    0    0  0.15591160484E+03 -0.60048464120E+02 -0.38254790065E+03  0.41744118491E+03  0.00000000000E+00 0.  1.
</event>
<event>
 8    1  0.6635152E-009  0.9790790E+02  0.7561462E-02  0.1284758E+00
         -2   -1    0    0    0  501 -0.00000000000E+00  0.00000000000E+00  0.60337083299E+02  0.60337083299E+02  0.00000000000E+00 0.  1.
          2   -1    0    0  501    0  0.00000000000E+00 -0.00000000000E+00 -0.21364575450E+03  0.21364575450E+03  0.00000000000E+00 0. -1.
         25    2    1    2    0    0  0.34930196347E+01  0.16943189616E+02 -0.86646024384E+02  0.15314606158E+03  0.12508760840E+03 0.  0.
         23    2    1    2    0    0 -0.34930196347E+01 -0.16943189616E+02 -0.66662646815E+02  0.12083677622E+03  0.99289199546E+02 0.  0.
          5    1    3    3  502    0  0.47436715820E+02  0.46030033076E+02 -0.22331780672E+02  0.69894111202E+02  0.41800000000E+01 0. -1.
         -5    1    3    3    0  502 -0.43943696186E+02 -0.29086843460E+02 -0.64314243712E+02  0.83251950375E+02  0.41800000000E+01 0. -1.
        -11    1    4    4    0    0 -0.10688023266E+02 -0.45774701312E+02  0.91439927342E+00  0.47014819446E+02  0.00000000000E+00 0.  1.
         11    1    4    4    0    0  0.71950036311E+01  0.28831511696E+02 -0.67577046089E+02  0.73821956774E+02  0.00000000000E+00 0. -1.
</event>
<event>
 8    1  0.6635152E-009  0.1056659E+03  0.7561462E-02  0.1268813E+00
          3   -1    0    0  501    0  0.00000000000E+00  0.00000000000E+00  0.27697625483E+03  0.27697625483E+03  0.00000000000E+00 0. -1.
         -3   -1    0    0    0  501 -0.00000000000E+00 -0.00000000000E+00 -0.67094947326E+02  0.67094947326E+02  0.00000000000E+00 0.  1.
         25    2    1    2    0    0 -0.36680067594E+02 -0.69222371708E+02  0.15756161590E+03  0.21589227216E+03  0.12508655510E+03 0.  0.
         23    2    1    2    0    0  0.36680067594E+02  0.69222371708E+02  0.52319691599E+02  0.12817893000E+03  0.86921365972E+02 0.  0.
          5    1    3    3  502    0 -0.36642770456E+02 -0.97440537488E+02  0.15565126993E+03  0.18730227228E+03  0.41800000000E+01 0.  1.
         -5    1    3    3    0  502 -0.37297138268E-01  0.28218165779E+02  0.19103459757E+01  0.28589999873E+02  0.41800000000E+01 0.  1.
        -11    1    4    4    0    0  0.26196463239E+02  0.42638663432E+02 -0.17278955206E+02  0.52942162767E+02  0.00000000000E+00 0.  1.
         11    1    4    4    0    0  0.10483604355E+02  0.26583708276E+02  0.69598646805E+02  0.75236767229E+02  0.00000000000E+00 0. -1.
</event>
<event>
 8    1  0.6635152E-009  0.2307896E+03  0.7561462E-02  0.1126085E+00
         -2   -1    0    0    0  501 -0.00000000000E+00  0.00000000000E+00  0.43553412845E+02  0.43553412845E+02  0.00000000000E+00 0.  1.
          2   -1    0    0  501    0  0.00000000000E+00 -0.00000000000E+00 -0.14361855900E+04  0.14361855900E+04  0.00000000000E+00 0. -1.
         25    2    1    2    0    0  0.12790830952E+03  0.16242593672E+03 -0.45730898738E+03  0.51722540421E+03  0.12509151953E+03 0.  0.
         23    2    1    2    0    0 -0.12790830952E+03 -0.16242593672E+03 -0.93532318980E+03  0.96251359866E+03  0.94128835461E+02 0.  0.
          5    1    3    3  502    0 -0.12628955919E+02  0.74589591185E+02 -0.13682771671E+03  0.15640458465E+03  0.41800000000E+01 0.  1.
         -5    1    3    3    0  502  0.14053726544E+03  0.87836345535E+02 -0.32048127067E+03  0.36082081955E+03  0.41800000000E+01 0.  1.
        -11    1    4    4    0    0 -0.96761084665E+02 -0.62082635080E+02 -0.36787360699E+03  0.38541918972E+03  0.00000000000E+00 0.  1.
         11    1    4    4    0    0 -0.31147224858E+02 -0.10034330164E+03 -0.56744958282E+03  0.57709440895E+03  0.00000000000E+00 0. -1.
</event>
<event>
 8    1  0.6635152E-009  0.7797550E+02  0.7561462E-02  0.1334897E+00
         -2   -1    0    0    0  501 -0.00000000000E+00  0.00000000000E+00  0.47436126725E+02  0.47436126725E+02  0.00000000000E+00 0.  1.
          2   -1    0    0  501    0  0.00000000000E+00 -0.00000000000E+00 -0.26370687584E+03  0.26370687584E+03  0.00000000000E+00 0. -1.
         25    2    1    2    0    0  0.22135839662E+02 -0.11641339940E+02 -0.10591270917E+03  0.16579200822E+03  0.12507586431E+03 0.  0.
         23    2    1    2    0    0 -0.22135839662E+02  0.11641339940E+02 -0.11035803995E+03  0.14535099435E+03  0.91227728151E+02 0.  0.
          5    1    3    3  502    0 -0.24356835484E+02  0.35121774463E+02 -0.24298413584E+01  0.43013614185E+02  0.41800000000E+01 0. -1.
         -5    1    3    3    0  502  0.46492675147E+02 -0.46763114403E+02 -0.10348286781E+03  0.12277839403E+03  0.41800000000E+01 0. -1.
        -11    1    4    4    0    0 -0.29282024823E+02 -0.41727730525E+01 -0.12128773701E+03  0.12484215699E+03  0.00000000000E+00 0. -1.
         11    1    4    4    0    0  0.71461851606E+01  0.15814112993E+02  0.10929697060E+02  0.20508837361E+02  0.00000000000E+00 0.  1.
</event>
<event>
 8    1  0.6635152E-009  0.7984147E+02  0.7561462E-02  0.1329502E+00
          1   -1    0    0  501    0  0.00000000000E+00  0.00000000000E+00  0.85848366990E+03  0.85848366990E+03  0.00000000000E+00 0. -1.
         -1   -1    0    0    0  501 -0.00000000000E+00 -0.00000000000E+00 -0.14918094237E+02  0.14918094237E+02  0.00000000000E+00 0.  1.
         25    2    1    2    0    0 -0.19539826140E+01 -0.29586858534E+02  0.42549590633E+03  0.44449664945E+03  0.12510517505E+03 0.  0.
         23    2    1    2    0    0  0.19539826140E+01  0.29586858534E+02  0.41806966933E+03  0.42890511468E+03  0.91094175119E+02 0.  0.
          5    1    3    3  502    0  0.27400132420E+02 -0.35548628002E+01  0.14260189353E+02  0.31372435458E+02  0.41800000000E+01 0.  1.
         -5    1    3    3    0  502 -0.29354115034E+02 -0.26031995734E+02  0.41123571698E+03  0.41312421400E+03  0.41800000000E+01 0.  1.
        -11    1    4    4    0    0  0.44538453353E+02  0.18864458960E+02  0.27590385228E+03  0.28011154447E+03  0.00000000000E+00 0.  1.
         11    1    4    4    0    0 -0.42584470739E+02  0.10722399574E+02  0.14216581705E+03  0.14879357021E+03  0.00000000000E+00 0. -1.
</event>
<event>
 8    1  0.6635152E-009  0.1282237E+03  0.7561462E-02  0.1230116E+00
          1   -1    0    0  501    0  0.00000000000E+00  0.00000000000E+00  0.72456404233E+02  0.72456404233E+02  0.00000000000E+00 0. -1.
         -1   -1    0    0    0  501 -0.00000000000E+00 -0.00000000000E+00 -0.29540322372E+03  0.29540322372E+03  0.00000000000E+00 0.  1.
         25    2    1    2    0    0 -0.62828163550E+02 -0.58442604774E+02 -0.15680641889E+03  0.21817069379E+03  0.12508909799E+03 0.  0.
         23    2    1    2    0    0  0.62828163550E+02  0.58442604774E+02 -0.66140400600E+02  0.14968893416E+03  0.10329234353E+03 0.  0.
          5    1    3    3  502    0 -0.11741651600E+02  0.23583132769E+02 -0.10522335444E+03  0.10855163404E+03  0.41800000000E+01 0.  1.
         -5    1    3    3    0  502 -0.51086511950E+02 -0.82025737543E+02 -0.51583064449E+02  0.10961905975E+03  0.41800000000E+01 0.  1.
        -11    1    4    4    0    0  0.16905932753E+02  0.80392533006E+02 -0.30847591932E+02  0.87751603138E+02  0.00000000000E+00 0. -1.
         11    1    4    4    0    0  0.45922230797E+02 -0.21949928232E+02 -0.35292808668E+02  0.61937331025E+02  0.00000000000E+00 0.  1.
</event>
<event>
 8    1  0.6635152E-009  0.1063283E+03  0.7561462E-02  0.1267524E+00
         -2   -1    0    0    0  501 -0.00000000000E+00  0.00000000000E+00  0.10019853763E+03  0.10019853763E+03  0.00000000000E+00 0.  1.
          2   -1    0    0  501    0  0.00000000000E+00 -0.00000000000E+00 -0.16457037959E+03  0.16457037959E+03  0.00000000000E+00 0. -1.
         25    2    1    2    0    0 -0.27837262173E+02 -0.18304191866E+02  0.25706591220E+02  0.13197603645E+03  0.12508752440E+03 0.  0.
         23    2    1    2    0    0  0.27837262173E+02  0.18304191866E+02 -0.90078433185E+02  0.13279288076E+03  0.91705334911E+02 0.  0.
          5    1    3    3  502    0  0.35818756553E+02  0.30342633881E+02 -0.18085059229E+01  0.47163564809E+02  0.41800000000E+01 0. -1.
         -5    1    3    3    0  502 -0.63656018727E+02 -0.48646825747E+02  0.27515097143E+02  0.84812471643E+02  0.41800000000E+01 0. -1.
        -11    1    4    4    0    0  0.15078142077E+02  0.49421755260E+02 -0.20643803178E+02  0.55641952438E+02  0.00000000000E+00 0.  1.
         11    1    4    4    0    0  0.12759120096E+02 -0.31117563394E+02 -0.69434630007E+02  0.77150928325E+02  0.00000000000E+00 0. -1.
</event>
<event>
 8    1  0.6635152E-009  0.1698616E+03  0.7561462E-02  0.1177992E+00
          1   -1    0    0  501    0  0.00000000000E+00  0.00000000000E+00  0.83518538819E+03  0.83518538819E+03  0.00000000000E+00 0. -1.
         -1   -1    0    0    0  501 -0.00000000000E+00 -0.00000000000E+00 -0.44110960949E+02  0.44110960949E+02  0.00000000000E+00 0.  1.
         25    2    1    2    0    0 -0.98867524425E+02 -0.12206301924E+03  0.43700674703E+03  0.48093250900E+03  0.12508802187E+03 0.  0.
         23    2    1    2    0    0  0.98867524425E+02  0.12206301924E+03  0.35406768022E+03  0.39836384014E+03  0.93035793683E+02 0.  0.
          5    1    3    3  502    0 -0.85592247174E+02 -0.94628727544E+02  0.43110273010E+03  0.44960834640E+03  0.41800000000E+01 0. -1.
         -5    1    3    3    0  502 -0.13275277251E+02 -0.27434291692E+02  0.59040169260E+01  0.31324162600E+02  0.41800000000E+01 0. -1.
        -11    1    4    4    0    0  0.78723220375E+02  0.25642629557E+02  0.13855863937E+03  0.16141061434E+03  0.00000000000E+00 0.  1.
         11    1    4    4    0    0  0.20144304050E+02  0.96420389679E+02  0.21550904085E+03  0.23695322580E+03  0.00000000000E+00 0. -1.
</event>
<event>
 8    1  0.6635152E-009  0.9616154E+02  0.7561462E-02  0.1288581E+00
          4   -1    0    0  501    0  0.00000000000E+00  0.00000000000E+00  0.28922195981E+03  0.28922195981E+03  0.00000000000E+00 0.  1.
         -4   -1    0    0    0  501 -0.00000000000E+00 -0.00000000000E+00 -0.83762682974E+02  0.83762682974E+02  0.00000000000E+00 0. -1.
         25    2    1    2    0    0 -0.34721600022E+02 -0.16282600902E+02  0.23398143875E+03  0.26807716063E+03  0.12508931917E+03 0.  0.
         23    2    1    2    0    0  0.34721600022E+02  0.16282600902E+02 -0.28522161915E+02  0.10490748216E+03  0.93388187112E+02 0.  0.
          5    1    3    3  502    0 -0.27001465391E+02 -0.68952805344E+02  0.10569770831E+03  0.12912415127E+03  0.41800000000E+01 0. -1.
         -5    1    3    3    0  502 -0.77201346304E+01  0.52670204442E+02  0.12828373044E+03  0.13895300936E+03  0.41800000000E+01 0. -1.
        -11    1    4    4    0    0  0.48352361604E+02  0.86022293606E+01  0.20672284757E+02  0.53285012712E+02  0.00000000000E+00 0.  1.
         11    1    4    4    0    0 -0.13630761582E+02  0.76803715418E+01 -0.49194446672E+02  0.51622469446E+02  0.00000000000E+00 0. -1.
</event>
<event>
 8    1  0.6635152E-009  0.2848167E+03  0.7561462E-02  0.1093087E+00
          2   -1    0    0  501    0  0.00000000000E+00  0.00000000000E+00  0.98993731979E+03  0.98993731979E+03  0.00000000000E+00 0. -1.
         -2   -1    0    0    0  501 -0.00000000000E+00 -0.00000000000E+00 -0.13892728671E+03  0.13892728671E+03  0.00000000000E+00 0.  1.
         25    2    1    2    0    0  0.26270706800E+03  0.36513906239E+02  0.78875024791E+03  0.84150111097E+03  0.12509555253E+03 0.  0.
         23    2    1    2    0    0 -0.26270706800E+03 -0.36513906239E+02  0.62259785165E+02  0.28736349553E+03  0.91395999848E+02 0.  0.
          5    1    3    3  502    0  0.25390931456E+02 -0.33201547518E+02  0.73211035830E+02  0.84405985126E+02  0.41800000000E+01 0. -1.
         -5    1    3    3    0  502  0.23731613655E+03  0.69715453757E+02  0.71553921208E+03  0.75709512585E+03  0.41800000000E+01 0. -1.
        -11    1    4    4    0    0 -0.21324507010E+03 -0.65299717647E+02  0.44237250910E+02  0.22736412957E+03  0.00000000000E+00 0. -1.
         11    1    4    4    0    0 -0.49461997900E+02  0.28785811408E+02  0.18022534255E+02  0.59999365960E+02  0.00000000000E+00 0.  1.
</event>
<event>
 8    1  0.6635152E-009  0.8524577E+02  0.7561462E-02  0.1314791E+00
          2   -1    0    0  501    0  0.00000000000E+00  0.00000000000E+00  0.10292026757E+03  0.10292026757E+03  0.00000000000E+00 0.  1.
         -2   -1    0    0    0  501 -0.00000000000E+00 -0.00000000000E+00 -0.12733837860E+03  0.12733837860E+03  0.00000000000E+00 0. -1.
         25    2    1    2    0    0 -0.10495223425E+02  0.13004383054E+02  0.18871078843E+02  0.12760040163E+03  0.12508589524E+03 0.  0.
         23    2    1    2    0    0  0.10495223425E+02 -0.13004383054E+02 -0.43289189875E+02  0.10265824454E+03  0.91572362194E+02 0.  0.
          5    1    3    3  502    0 -0.17858726792E+02  0.67064720747E+02 -0.57032434155E+00  0.69529911271E+02  0.41800000000E+01 0.  1.
         -5    1    3    3    0  502  0.73635033664E+01 -0.54060337693E+02  0.19441403184E+02  0.58070490363E+02  0.41800000000E+01 0.  1.
        -11    1    4    4    0    0  0.92379060401E+01 -0.28878839929E+02 -0.67318379179E+02  0.73831500587E+02  0.00000000000E+00 0. -1.
         11    1    4    4    0    0  0.12573173850E+01  0.15874456874E+02  0.24029189304E+02  0.28826743949E+02  0.00000000000E+00 0.  1.
</event>
<event>
 8    1  0.6635152E-009  0.1563050E+03  0.7561462E-02  0.1192933E+00
          1   -1    0    0  501    0  0.00000000000E+00  0.00000000000E+00  0.91349239903E+03  0.91349239903E+03  0.00000000000E+00 0. -1.
         -1   -1    0    0    0  501 -0.00000000000E+00 -0.00000000000E+00 -0.64913329009E+02  0.64913329009E+02  0.00000000000E+00 0.  1.
         25    2    1    2    0    0  0.75397615751E+02 -0.85404031275E+02  0.65169000451E+02  0.18130999018E+03  0.12509062674E+03 0.  0.
         23    2    1    2    0    0 -0.75397615751E+02  0.85404031275E+02  0.78341006957E+03  0.79709573786E+03  0.93014134377E+02 0.  0.
          5    1    3    3  502    0 -0.21708018236E+02  0.16952767934E+02  0.13914889546E+02  0.31140503327E+02  0.41800000000E+01 0. -1.
         -5    1    3    3    0  502  0.97105633987E+02 -0.10235679921E+03  0.51254110905E+02  0.15016948685E+03  0.41800000000E+01 0. -1.
        -11    1    4    4    0    0 -0.87898663291E+02  0.93794050759E+02  0.74159047080E+03  0.75264860682E+03  0.00000000000E+00 0. -1.
         11    1    4    4    0    0  0.12501047540E+02 -0.83900194845E+01  0.41819598772E+02  0.44447131043E+02  0.00000000000E+00 0.  1.
</event>
<event>
 8    1  0.6635152E-009  0.1368672E+03  0.7561462E-02  0.1217608E+00
         -3   -1    0    0    0  501 -0.00000000000E+00  0.00000000000E+00  0.28878354410E+03  0.28878354410E+03  0.00000000000E+00 0.  1.
          3   -1    0    0  501    0  0.00000000000E+00 -0.00000000000E+00 -0.80276243429E+02  0.80276243429E+02  0.00000000000E+00 0. -1.
         25    2    1    2    0    0 -0.13907760886E+02  0.10922746824E+03  0.10152960021E+03  0.19513924130E+03  0.12508796164E+03 0.  0.
         23    2    1    2    0    0  0.13907760886E+02 -0.10922746824E+03  0.10697770046E+03  0.17392054623E+03  0.81731648534E+02 0.  0.
          5    1    3    3  502    0 -0.53275222874E+00  0.12662092995E+03  0.45149117402E+02  0.13449557215E+03  0.41800000000E+01 0.  1.
         -5    1    3    3    0  502 -0.13375008657E+02 -0.17393461706E+02  0.56380482809E+02  0.60643669154E+02  0.41800000000E+01 0.  1.
        -11    1    4    4    0    0  0.35418037315E+02 -0.86218263722E+02  0.43084747443E+02  0.10268554829E+03  0.00000000000E+00 0. -1.
         11    1    4    4    0    0 -0.21510276429E+02 -0.23009204521E+02  0.63892953021E+02  0.71234997933E+02  0.00000000000E+00 0.  1.
</event>
<event>
 8    1  0.6635152E-009  0.1413577E+03  0.7561462E-02  0.1211514E+00
         -3   -1    0    0    0  501 -0.00000000000E+00  0.00000000000E+00  0.71194395455E+02  0.71194395455E+02  0.00000000000E+00 0.  1.
          3   -1    0    0  501    0  0.00000000000E+00 -0.00000000000E+00 -0.33199073206E+03  0.33199073206E+03  0.00000000000E+00 0. -1.
         25    2    1    2    0    0  0.13372676837E+02  0.94088694204E+02 -0.71562263742E+02  0.17266015973E+03  0.12513537591E+03 0.  0.
         23    2    1    2    0    0 -0.13372676837E+02 -0.94088694204E+02 -0.18923407286E+03  0.23052496778E+03  0.91108262948E+02 0.  0.
          5    1    3    3  502    0  0.56361536106E+02  0.97380954395E+02 -0.61078484346E+02  0.12809264882E+03  0.41800000000E+01 0. -1.
         -5    1    3    3    0  502 -0.42988859269E+02 -0.32922601903E+01 -0.10483779396E+02  0.44567510912E+02  0.41800000000E+01 0. -1.
        -11    1    4    4    0    0 -0.39919646222E+02 -0.13792966273E+02 -0.35971606809E+02  0.55477748417E+02  0.00000000000E+00 0.  1.
         11    1    4    4    0    0  0.26546969385E+02 -0.80295727931E+02 -0.15326246605E+03  0.17504721937E+03  0.00000000000E+00 0. -1.
</event>
<event>
 8    1  0.6635152E-009  0.9060702E+02  0.7561462E-02  0.1301388E+00
          1   -1    0    0  501    0  0.00000000000E+00  0.00000000000E+00  0.71703461675E+03  0.71703461675E+03  0.00000000000E+00 0. -1.
         -1   -1    0    0    0  501 -0.00000000000E+00 -0.00000000000E+00 -0.21402190096E+02  0.21402190096E+02  0.00000000000E+00 0.  1.
         25    2    1    2    0    0 -0.25720918060E+02 -0.53707143371E+02  0.42780499974E+03  0.44967855206E+03  0.12509060518E+03 0.  0.
         23    2    1    2    0    0  0.25720918060E+02  0.53707143371E+02  0.26782742691E+03  0.28875825478E+03  0.90020976584E+02 0.  0.
          5    1    3    3  502    0 -0.40155057647E+02 -0.37275119461E+02  0.42343648606E+03  0.42698687722E+03  0.41800000000E+01 0.  1.
         -5    1    3    3    0  502  0.14434139586E+02 -0.16432023910E+02  0.43685136742E+01  0.22691674841E+02  0.41800000000E+01 0.  1.
        -11    1    4    4    0    0 -0.31036786368E+02  0.27561701015E+02  0.70934125584E+02  0.82186249721E+02  0.00000000000E+00 0.  1.
         11    1    4    4    0    0  0.56757704429E+02  0.26145442356E+02  0.19689330133E+03  0.20657200506E+03  0.00000000000E+00 0. -1.
</event>
<event>
 8    1  0.6635152E-009  0.1053555E+03  0.7561462E-02  0.1269421E+00
         -3   -1    0    0    0  501 -0.00000000000E+00  0.00000000000E+00  0.37862954584E+02  0.37862954584E+02  0.00000000000E+00 0.  1.
          3   -1    0    0  501    0  0.00000000000E+00 -0.00000000000E+00 -0.48714394150E+03  0.48714394150E+03  0.00000000000E+00 0. -1.
         25    2    1    2    0    0  0.47286046831E+02 -0.55929854005E+02 -0.31111485560E+03  0.34322731573E+03  0.12509363730E+03 0.  0.
         23    2    1    2    0    0 -0.47286046831E+02  0.55929854005E+02 -0.13816613131E+03  0.18177958035E+03  0.92681266700E+02 0.  0.
          5    1    3    3  502    0  0.40875998693E+02 -0.68355905282E+02 -0.84689313782E+02  0.11633197894E+03  0.41800000000E+01 0. -1.
         -5    1    3    3    0  502  0.64100481379E+01  0.12426051277E+02 -0.22642554182E+03  0.22689533679E+03  0.41800000000E+01 0. -1.
        -11    1    4    4    0    0 -0.71136091238E+02  0.21192448266E+02 -0.72508022942E+02  0.10376356167E+03  0.00000000000E+00 0.  1.
         11    1    4    4    0    0  0.23850044407E+02  0.34737405739E+02 -0.65658108369E+02  0.78016018678E+02  0.00000000000E+00 0. -1.
</event>
<event>
 8    1  0.6635152E-009  0.1882407E+03  0.7561462E-02  0.1160058E+00
         -3   -1    0    0    0  501 -0.00000000000E+00  0.00000000000E+00  0.66216979009E+02  0.66216979009E+02  0.00000000000E+00 0.  1.
          3   -1    0    0  501    0  0.00000000000E+00 -0.00000000000E+00 -0.59919183326E+03  0.59919183326E+03  0.00000000000E+00 0. -1.
         25    2    1    2    0    0 -0.33403547193E+02  0.16189414675E+03 -0.32165978974E+03  0.38267311224E+03  0.12509268076E+03 0.  0.
         23    2    1    2    0    0  0.33403547193E+02 -0.16189414675E+03 -0.21131506452E+03  0.28273570003E+03  0.89218315732E+02 0.  0.
          5    1    3    3  502    0 -0.68901864804E+02  0.10773229733E+03 -0.27321604326E+03  0.30169221660E+03  0.41800000000E+01 0.  1.
         -5    1    3    3    0  502  0.35498317611E+02  0.54161849421E+02 -0.48443746478E+02  0.80980895641E+02  0.41800000000E+01 0.  1.
        -11    1    4    4    0    0  0.49427431153E+02 -0.48953374749E+02 -0.52284804559E+02  0.87024161228E+02  0.00000000000E+00 0.  1.
         11    1    4    4    0    0 -0.16023883960E+02 -0.11294077201E+03 -0.15903025996E+03  0.19571153880E+03  0.00000000000E+00 0. -1.
</event>
<event>
 8    1  0.6635152E-009  0.1425430E+03  0.7561462E-02  0.1209948E+00
          3   -1    0    0  501    0  0.00000000000E+00  0.00000000000E+00  0.24790992817E+02  0.24790992817E+02  0.00000000000E+00 0. -1.
         -3   -1    0    0    0  501 -0.00000000000E+00 -0.00000000000E+00 -0.85676468871E+03  0.85676468871E+03  0.00000000000E+00 0.  1.
         25    2    1    2    0    0  0.36567311085E+02 -0.89533111445E+02 -0.45295902657E+03  0.47976343665E+03  0.12509088341E+03 0.  0.
         23    2    1    2    0    0 -0.36567311085E+02  0.89533111445E+02 -0.37901466932E+03  0.40179224487E+03  0.91823429442E+02 0.  0.
          5    1    3    3  502    0 -0.38815448441E+02  0.10441479906E+01 -0.89341374493E+02  0.97504271081E+02  0.41800000000E+01 0.  1.
         -5    1    3    3    0  502  0.75382759526E+02 -0.90577259436E+02 -0.36361765208E+03  0.38225916557E+03  0.41800000000E+01 0.  1.
        -11    1    4    4    0    0  0.26134221694E+02  0.41862903604E+02 -0.94943712593E+02  0.10700377938E+03  0.00000000000E+00 0. -1.
         11    1    4    4    0    0 -0.62701532778E+02  0.47670207841E+02 -0.28407095673E+03  0.29478846549E+03  0.00000000000E+00 0.  1.
</event>
<event>
 8    1  0.6635152E-009  0.9039646E+02  0.7561462E-02  0.1301894E+00
         -1   -1    0    0    0  501 -0.00000000000E+00  0.00000000000E+00  0.88222614782E+02  0.88222614782E+02  0.00000000000E+00 0.  1.
          1   -1    0    0  501    0  0.00000000000E+00 -0.00000000000E+00 -0.17091054206E+03  0.17091054206E+03  0.00000000000E+00 0. -1.
         25    2    1    2    0    0  0.40231562065E+02 -0.22966611126E+02 -0.84818842058E+01  0.13366031296E+03  0.12508834113E+03 0.  0.
         23    2    1    2    0    0 -0.40231562065E+02  0.22966611126E+02 -0.74206043077E+02  0.12547284389E+03  0.89949174046E+02 0.  0.
          5    1    3    3  502    0 -0.26944475766E+02 -0.53064684289E+02 -0.34693500660E+01  0.59760976254E+02  0.41800000000E+01 0.  1.
         -5    1    3    3    0  502  0.67176037831E+02  0.30098073163E+02 -0.50125341398E+01  0.73899336704E+02  0.41800000000E+01 0.  1.
        -11    1    4    4    0    0 -0.27900198926E+02  0.10340541131E+02  0.15843569001E+02  0.33710036631E+02  0.00000000000E+00 0.  1.
         11    1    4    4    0    0 -0.12331363139E+02  0.12626069995E+02 -0.90049612078E+02  0.91762807258E+02  0.00000000000E+00 0. -1.
</event>
<event>
 8    1  0.6635152E-009  0.1311850E+03  0.7561462E-02  0.1225708E+00
          2   -1    0    0  501    0  0.00000000000E+00  0.00000000000E+00  0.94647395809E+02  0.94647395809E+02  0.00000000000E+00 0. -1.
         -2   -1    0    0    0  501 -0.00000000000E+00 -0.00000000000E+00 -0.22424226981E+03  0.22424226981E+03  0.00000000000E+00 0.  1.
         25    2    1    2    0    0  0.59725516949E+02 -0.47975129774E+00  0.10564959140E+01  0.13862332565E+03  0.12509173712E+03 0.  0.
         23    2    1    2    0    0 -0.59725516949E+02  0.47975129774E+00 -0.13065136991E+03  0.18026633996E+03  0.10889814198E+03 0.  0.
          5    1    3    3  502    0  0.95884029536E+02  0.18181546288E+02 -0.63531545154E+00  0.97684142885E+02  0.41800000000E+01 0.  1.
         -5    1    3    3    0  502 -0.36158512588E+02 -0.18661297586E+02  0.16918113656E+01  0.40939182770E+02  0.41800000000E+01 0.  1.
        -11    1    4    4    0    0 -0.91480399935E+02  0.54477498514E+01 -0.90026127768E+02  0.12846417879E+03  0.00000000000E+00 0.  1.
         11    1    4    4    0    0  0.31754882987E+02 -0.49679985537E+01 -0.40625242146E+02  0.51802161177E+02  0.00000000000E+00 0. -1.
</event>
<event>
 8    1  0.6635152E-009  0.9437224E+02  0.7561462E-02  0.1292596E+00
         -2   -1    0    0    0  501 -0.00000000000E+00  0.00000000000E+00  0.25419866443E+02  0.25419866443E+02  0.00000000000E+00 0.  1.
          2   -1    0    0  501    0  0.00000000000E+00 -0.00000000000E+00 -0.50827239101E+03  0.50827239101E+03  0.00000000000E+00 0. -1.
         25    2    1    2    0    0  0.29595971645E+02  0.13103388047E+02 -0.28796402674E+03  0.31562575174E+03  0.12509482065E+03 0.  0.
         23    2    1    2    0    0 -0.29595971645E+02 -0.13103388047E+02 -0.19488849784E+03  0.21806650572E+03  0.92324720475E+02 0.  0.
          5    1    3    3  502    0  0.12338673116E+02 -0.42954767104E+02 -0.37919256380E+02  0.58759656872E+02  0.41800000000E+01 0.  1.
         -5    1    3    3    0  502  0.17257298529E+02  0.56058155151E+02 -0.25004477036E+03  0.25686609487E+03  0.41800000000E+01 0.  1.
        -11    1    4    4    0    0 -0.30337640497E+02 -0.44385942705E+02 -0.64464855209E+02  0.83941657702E+02  0.00000000000E+00 0.  1.
         11    1    4    4    0    0  0.74166885225E+00  0.31282554658E+02 -0.13042364263E+03  0.13412484801E+03  0.00000000000E+00 0. -1.
</event>
<event>
 8    1  0.6635152E-009  0.8757850E+02  0.7561462E-02  0.1308824E+00
         -2   -1    0    0    0  501 -0.00000000000E+00  0.00000000000E+00  0.29763037491E+02  0.29763037491E+02  0.00000000000E+00 0. -1.
          2   -1    0    0  501    0  0.00000000000E+00 -0.00000000000E+00 -0.43543310237E+03  0.43543310237E+03  0.00000000000E+00 0.  1.
         25    2    1    2    0    0 -0.12717890137E+02 -0.22896184234E+02 -0.18469036334E+03  0.22459950847E+03  0.12509368054E+03 0.  0.
         23    2    1    2    0    0  0.12717890137E+02  0.22896184234E+02 -0.22097970154E+03  0.24059663139E+03  0.91480766082E+02 0.  0.
          5    1    3    3  502    0 -0.45031681585E+02 -0.40135495191E+02 -0.17686499013E+03  0.18691550887E+03  0.41800000000E+01 0. -1.
         -5    1    3    3    0  502  0.32313791448E+02  0.17239310957E+02 -0.78253732062E+01  0.37683999600E+02  0.41800000000E+01 0. -1.
        -11    1    4    4    0    0 -0.23637986715E+02  0.32535689168E+02 -0.43773408011E+02  0.59442718095E+02  0.00000000000E+00 0. -1.
         11    1    4    4    0    0  0.36355876851E+02 -0.96395049346E+01 -0.17720629353E+03  0.18115391330E+03  0.00000000000E+00 0.  1.
</event>
<event>
 8    1  0.6635152E-009  0.1211762E+03  0.7561462E-02  0.1241169E+00
         -1   -1    0    0    0  501 -0.00000000000E+00  0.00000000000E+00  0.14367327769E+02  0.14367327769E+02  0.00000000000E+00 0.  1.
          1   -1    0    0  501    0  0.00000000000E+00 -0.00000000000E+00 -0.14166378321E+04  0.14166378321E+04  0.00000000000E+00 0. -1.
         25    2    1    2    0    0  0.43868071231E+02 -0.47485635961E+02 -0.11026385075E+04  0.11115910643E+04  0.12507486886E+03 0.  0.
         23    2    1    2    0    0 -0.43868071231E+02  0.47485635961E+02 -0.29963199681E+03  0.31941409550E+03  0.89815018762E+02 0.  0.
          5    1    3    3  502    0  0.62998047742E+02  0.17767238214E+02 -0.36790265512E+03  0.37370344502E+03  0.41800000000E+01 0. -1.
         -5    1    3    3    0  502 -0.19129976511E+02 -0.65252874174E+02 -0.73473585238E+03  0.73788761933E+03  0.41800000000E+01 0. -1.
        -11    1    4    4    0    0  0.23358759602E+02  0.32051563413E+02 -0.81522773872E+02  0.90658132714E+02  0.00000000000E+00 0. -1.
         11    1    4    4    0    0 -0.67226830833E+02  0.15434072547E+02 -0.21810922293E+03  0.22875596278E+03  0.00000000000E+00 0.  1.
</event>
<event>
 8    1  0.6635152E-009  0.9302926E+02  0.7561462E-02  0.1295677E+00
         -1   -1    0    0    0  501 -0.00000000000E+00  0.00000000000E+00  0.62586151426E+02  0.62586151426E+02  0.00000000000E+00 0.  1.
          1   -1    0    0  501    0  0.00000000000E+00 -0.00000000000E+00 -0.21042431689E+03  0.21042431689E+03  0.00000000000E+00 0. -1.
         25    2    1    2    0    0 -0.11156270474E+02 -0.36046709653E+02 -0.72266764285E+02  0.14931095068E+03  0.12508975627E+03 0.  0.
         23    2    1    2    0    0  0.11156270474E+02  0.36046709653E+02 -0.75571401181E+02  0.12369951764E+03  0.90369830922E+02 0.  0.
          5    1    3    3  502    0  0.39492407999E+02 -0.39205068858E+02 -0.80274901858E+02  0.97766149469E+02  0.41800000000E+01 0.  1.
         -5    1    3    3    0  502 -0.50648678473E+02  0.31583592050E+01  0.80081375727E+01  0.51544801206E+02  0.41800000000E+01 0.  1.
        -11    1    4    4    0    0  0.39514127258E+02  0.98375108299E+01 -0.21909619292E+01  0.40779200415E+02  0.00000000000E+00 0.  1.
         11    1    4    4    0    0 -0.28357856784E+02  0.26209198823E+02 -0.73380439251E+02  0.82920317227E+02  0.00000000000E+00 0. -1.
</event>
<event>
 8    1  0.6635152E-009  0.1160771E+03  0.7561462E-02  0.1249713E+00
          1   -1    0    0  501    0  0.00000000000E+00  0.00000000000E+00  0.38678439825E+03  0.38678439825E+03  0.00000000000E+00 0. -1.
         -1   -1    0    0    0  501 -0.00000000000E+00 -0.00000000000E+00 -0.45617124684E+02  0.45617124684E+02  0.00000000000E+00 0.  1.
         25    2    1    2    0    0 -0.14018008155E+02 -0.73120909128E+02  0.22005757446E+03  0.26384887373E+03  0.12509084774E+03 0.  0.
         23    2    1    2    0    0  0.14018008155E+02  0.73120909128E+02  0.12110969910E+03  0.16855264920E+03  0.90549789793E+02 0.  0.
          5    1    3    3  502    0  0.43668027685E+02 -0.74232536388E+02  0.14976880302E+03  0.17281647160E+03  0.41800000000E+01 0. -1.
         -5    1    3    3    0  502 -0.57686035840E+02  0.11116272595E+01  0.70288771448E+02  0.91032402131E+02  0.41800000000E+01 0. -1.
        -11    1    4    4    0    0 -0.17449981000E+02  0.29868430011E+02 -0.16650702268E+01  0.34632317379E+02  0.00000000000E+00 0.  1.
         11    1    4    4    0    0  0.31467989155E+02  0.43252479118E+02  0.12277476933E+03  0.13392033182E+03  0.00000000000E+00 0. -1.
</event>
<event>
 8    1  0.6635152E-009  0.1090255E+03  0.7561462E-02  0.1262385E+00
         -1   -1    0    0    0  501 -0.00000000000E+00  0.00000000000E+00  0.41355288901E+03  0.41355288901E+03  0.00000000000E+00 0.  1.
          1   -1    0    0  501    0  0.00000000000E+00 -0.00000000000E+00 -0.42367641372E+02  0.42367641372E+02  0.00000000000E+00 0. -1.
         25    2    1    2    0    0  0.61440676534E+02  0.25170335556E+02  0.26775309881E+03  0.30289687565E+03  0.12508514233E+03 0.  0.
         23    2    1    2    0    0 -0.61440676534E+02 -0.25170335556E+02  0.10343214883E+03  0.15302365473E+03  0.91156606840E+02 0.  0.
          5    1    3    3  502    0  0.30142695089E+02  0.70725786479E+02  0.99893948005E+02  0.12612292491E+03  0.41800000000E+01 0.  1.
         -5    1    3    3    0  502  0.31297981445E+02 -0.45555450924E+02  0.16785915080E+03  0.17677395074E+03  0.41800000000E+01 0.  1.
        -11    1    4    4    0    0 -0.26444495601E+02  0.16531904608E+02  0.92339952139E+02  0.97464260007E+02  0.00000000000E+00 0.  1.
         11    1    4    4    0    0 -0.34996180932E+02 -0.41702240164E+02  0.11092196688E+02  0.55559394722E+02  0.00000000000E+00 0. -1.
</event>
<event>
 8    1  0.6635152E-009  0.2737702E+03  0.7561462E-02  0.1099141E+00
          1   -1    0    0  501    0  0.00000000000E+00  0.00000000000E+00  0.14025807223E+04  0.14025807223E+04  0.00000000000E+00 0. -1.
         -1   -1    0    0    0  501 -0.00000000000E+00 -0.00000000000E+00 -0.12202319713E+03  0.12202319713E+03  0.00000000000E+00 0.  1.
         25    2    1    2    0    0 -0.26502925775E+03 -0.13281714232E+02  0.11968788663E+04  0.12323075712E+04  0.12508404379E+03 0.  0.
         23    2    1    2    0    0  0.26502925775E+03  0.13281714232E+02  0.83678658845E+02  0.29229634822E+03  0.89543988291E+02 0.  0.
          5    1    3    3  502    0 -0.51287251981E+02  0.24291684466E+02  0.47796167040E+03  0.48133699101E+03  0.41800000000E+01 0.  1.
         -5    1    3    3    0  502 -0.21374200577E+03 -0.37573398699E+02  0.71891719594E+03  0.75097058021E+03  0.41800000000E+01 0.  1.
        -11    1    4    4    0    0  0.69600451615E+02  0.33243823941E+02 -0.38608460867E+01  0.77228756482E+02  0.00000000000E+00 0.  1.
         11    1    4    4    0    0  0.19542880614E+03 -0.19962109709E+02  0.87539504932E+02  0.21506759174E+03  0.00000000000E+00 0. -1.
</event>
<event>
 8    1  0.6635152E-009  0.1109578E+03  0.7561462E-02  0.1258806E+00
         -1   -1    0    0    0  501 -0.00000000000E+00  0.00000000000E+00  0.20981517925E+02  0.20981517925E+02  0.00000000000E+00 0.  1.
          1   -1    0    0  501    0  0.00000000000E+00 -0.00000000000E+00 -0.97216277572E+03  0.97216277572E+03  0.00000000000E+00 0. -1.
         25    2    1    2    0    0 -0.54196037575E+02  0.74891663318E+02 -0.54368189046E+03  0.56549407729E+03  0.12509029425E+03 0.  0.
         23    2    1    2    0    0  0.54196037575E+02 -0.74891663318E+02 -0.40749936734E+03  0.42765021635E+03  0.91010996286E+02 0.  0.
          5    1    3    3  502    0 -0.61472895383E+01  0.87177045118E+01 -0.39963827301E+03  0.39980246272E+03  0.41800000000E+01 0.  1.
         -5    1    3    3    0  502 -0.48048748037E+02  0.66173958807E+02 -0.14404361744E+03  0.16569161457E+03  0.41800000000E+01 0.  1.
        -11    1    4    4    0    0  0.25966222019E+02  0.17929383375E+02 -0.12640023678E+03  0.13027942022E+03  0.00000000000E+00 0. -1.
         11    1    4    4    0    0  0.28229815556E+02 -0.92821046693E+02 -0.28109913056E+03  0.29737079614E+03  0.00000000000E+00 0.  1.
</event>
<event>
 8    1  0.6635152E-009  0.1121671E+03  0.7561462E-02  0.1256609E+00
         -2   -1    0    0    0  501 -0.00000000000E+00  0.00000000000E+00  0.89438207236E+02  0.89438207236E+02  0.00000000000E+00 0.  1.
          2   -1    0    0  501    0  0.00000000000E+00 -0.00000000000E+00 -0.22013711991E+03  0.22013711991E+03  0.00000000000E+00 0. -1.
         25    2    1    2    0    0  0.26994041462E+02 -0.64170255257E+02 -0.15833796670E+02  0.14403101707E+03  0.12509086628E+03 0.  0.
         23    2    1    2    0    0 -0.26994041462E+02  0.64170255257E+02 -0.11486511600E+03  0.16554431008E+03  0.96769952932E+02 0.  0.
          5    1    3    3  502    0  0.53222279427E+02 -0.58646632803E+02  0.34786295282E+02  0.86600215392E+02  0.41800000000E+01 0.  1.
         -5    1    3    3    0  502 -0.26228237965E+02 -0.55236224543E+01 -0.50620091952E+02  0.57430801674E+02  0.41800000000E+01 0.  1.
        -11    1    4    4    0    0 -0.26406718832E+02 -0.20374656161E+02 -0.21990849567E+02  0.39950455289E+02  0.00000000000E+00 0.  1.
         11    1    4    4    0    0 -0.58732263064E+00  0.84544911418E+02 -0.92874266435E+02  0.12559385479E+03  0.00000000000E+00 0. -1.
</event>
<event>
 8    1  0.6635152E-009  0.2189731E+03  0.7561462E-02  0.1134651E+00
          2   -1    0    0  501    0  0.00000000000E+00  0.00000000000E+00  0.21364006524E+04  0.21364006524E+04  0.00000000000E+00 0. -1.
         -2   -1    0    0    0  501 -0.00000000000E+00 -0.00000000000E+00 -0.23417268134E+02  0.23417268134E+02  0.00000000000E+00 0.  1.
         25    2    1    2    0    0  0.19298235341E+03 -0.23392662834E+02  0.10095474382E+04  0.10356760598E+04  0.12509782411E+03 0.  0.
         23    2    1    2    0    0 -0.19298235341E+03  0.23392662834E+02  0.11034359461E+04  0.11241418607E+04  0.91294197158E+02 0.  0.
          5    1    3    3  502    0  0.67598733058E+02  0.44056717858E+02  0.50445264352E+03  0.51088210485E+03  0.41800000000E+01 0.  1.
         -5    1    3    3    0  502  0.12538362036E+03 -0.67449380692E+02  0.50509479463E+03  0.52479395497E+03  0.41800000000E+01 0.  1.
        -11    1    4    4    0    0 -0.12960512781E+03 -0.28618568422E+02  0.67013056468E+03  0.68314821623E+03  0.00000000000E+00 0. -1.
         11    1    4    4    0    0 -0.63377225604E+02  0.52011231256E+02  0.43330538146E+03  0.44099364452E+03  0.00000000000E+00 0.  1.
</event>
<event>
 8    1  0.6635152E-009  0.5208936E+02  0.7561462E-02  0.1434387E+00
         -1   -1    0    0    0  501 -0.00000000000E+00  0.00000000000E+00  0.19459007131E+03  0.19459007131E+03  0.00000000000E+00 0.  1.
          1   -1    0    0  501    0  0.00000000000E+00 -0.00000000000E+00 -0.69025201060E+02  0.69025201060E+02  0.00000000000E+00 0. -1.
         25    2    1    2    0    0  0.19743381596E+02 -0.31203136051E+02  0.79807440532E+02  0.15288250419E+03  0.12506156767E+03 0.  0.
         23    2    1    2    0    0 -0.19743381596E+02  0.31203136051E+02  0.45757429713E+02  0.11073276817E+03  0.93832652937E+02 0.  0.
          5    1    3    3  502    0 -0.10691621991E+02 -0.34129555736E+02 -0.24862672162E+02  0.43757996098E+02  0.41800000000E+01 0.  1.
         -5    1    3    3    0  502  0.30435003587E+02  0.29264196842E+01  0.10467011269E+03  0.10912450809E+03  0.41800000000E+01 0.  1.
        -11    1    4    4    0    0 -0.80567786275E+01  0.17732226972E+02  0.74446736672E+02  0.76952323917E+02  0.00000000000E+00 0.  1.
         11    1    4    4    0    0 -0.11686602969E+02  0.13470909080E+02 -0.28689306958E+02  0.33780444256E+02  0.00000000000E+00 0. -1.
</event>
<event>
 7    1  0.6635152E-009  0.1367754E+03  0.7561462E-02  0.1217735E+00
         -1   -1    0    0    0  501 -0.00000000000E+00  0.00000000000E+00  0.35442759530E+03  0.35442759530E+03  0.00000000000E+00 0.  1.
          1   -1    0    0  501    0  0.00000000000E+00 -0.00000000000E+00 -0.95897290512E+02  0.95897290512E+02  0.00000000000E+00 0. -1.
         25    2    1    2    0    0  0.62171470786E+02  0.39739706725E+02  0.25308040925E+03  0.29178884729E+03  0.12508597759E+03 0.  0.
          5    1    3    3  502    0  0.57778565309E+02  0.74778246821E+02  0.11349626601E+03  0.14774648424E+03  0.41800000000E+01 0.  1.
         -5    1    3    3    0  502  0.43929054767E+01 -0.35038540096E+02  0.13958414324E+03  0.14404236305E+03  0.41800000000E+01 0.  1.
        -11    1    1    2    0    0  0.37201677532E+02 -0.19438378366E+02  0.33047948518E+02  0.53422675579E+02  0.00000000000E+00 0.  1.
         11    1    1    2    0    0 -0.99373148318E+02 -0.20301328359E+02 -0.27598052982E+02  0.10511336294E+03  0.00000000000E+00 0. -1.
</event>
<event>
 8    1  0.6635152E-009  0.1163919E+03  0.7561462E-02  0.1249171E+00
         -2   -1    0    0    0  501 -0.00000000000E+00  0.00000000000E+00  0.78513850472E+02  0.78513850472E+02  0.00000000000E+00 0.  1.
          2   -1    0    0  501    0  0.00000000000E+00 -0.00000000000E+00 -0.21559074377E+03  0.21559074377E+03  0.00000000000E+00 0. -1.
         25    2    1    2    0    0 -0.60149876328E+01  0.48414047891E+02 -0.13687040986E+03  0.19173311568E+03  0.12509188001E+03 0.  0.
         23    2    1    2    0    0  0.60149876328E+01 -0.48414047891E+02 -0.20648343904E+00  0.10237147856E+03  0.89998760425E+02 0.  0.
          5    1    3    3  502    0  0.56324348933E+02  0.37234866324E+02 -0.91143050833E+02  0.11350504688E+03  0.41800000000E+01 0.  1.
         -5    1    3    3    0  502 -0.62339336566E+02  0.11179181567E+02 -0.45727359024E+02  0.78228068794E+02  0.41800000000E+01 0.  1.
        -11    1    4    4    0    0  0.45564674718E+02 -0.10250863806E+02 -0.60836282462E+01  0.47098092569E+02  0.00000000000E+00 0.  1.
         11    1    4    4    0    0 -0.39549687086E+02 -0.38163184085E+02  0.58771448072E+01  0.55273385993E+02  0.00000000000E+00 0. -1.
</event>
<event>
 8    1  0.6635152E-009  0.6449125E+02  0.7561462E-02  0.1379895E+00
          1   -1    0    0  501    0  0.00000000000E+00  0.00000000000E+00  0.15830399684E+03  0.15830399684E+03  0.00000000000E+00 0. -1.
         -1   -1    0    0    0  501 -0.00000000000E+00 -0.00000000000E+00 -0.84896860194E+02  0.84896860194E+02  0.00000000000E+00 0.  1.
         25    2    1    2    0    0 -0.39732004626E+02  0.13020209199E+02  0.53851252793E+02  0.14245122203E+03  0.12507691710E+03 0.  0.
         23    2    1    2    0    0  0.39732004626E+02 -0.13020209199E+02  0.19555883855E+02  0.10074963501E+03  0.89553885018E+02 0.  0.
          5    1    3    3  502    0 -0.19353259290E+02  0.39387044544E+01 -0.40583263087E+02  0.45326986230E+02  0.41800000000E+01 0. -1.
         -5    1    3    3    0  502 -0.20378745337E+02  0.90815047449E+01  0.94434515880E+02  0.97124235798E+02  0.41800000000E+01 0. -1.
        -11    1    4    4    0    0  0.36019676303E+02 -0.42883109741E+02 -0.11861051262E+02  0.57245634935E+02  0.00000000000E+00 0.  1.
         11    1    4    4    0    0  0.37123283230E+01  0.29862900541E+02  0.31416935117E+02  0.43504000075E+02  0.00000000000E+00 0. -1.
</event>
<event>
 8    1  0.6635152E-009  0.8742800E+02  0.7561462E-02  0.1309202E+00
          2   -1    0    0  501    0  0.00000000000E+00  0.00000000000E+00  0.17982423713E+03  0.17982423713E+03  0.00000000000E+00 0. -1.
         -2   -1    0    0    0  501 -0.00000000000E+00 -0.00000000000E+00 -0.10118990799E+03  0.10118990799E+03  0.00000000000E+00 0.  1.
         25    2    1    2    0    0  0.76401905021E+02 -0.58610964680E+01  0.18538329792E+02  0.14786080369E+03  0.12509014371E+03 0.  0.
         23    2    1    2    0    0 -0.76401905021E+02  0.58610964680E+01  0.60095999351E+02  0.13315334144E+03  0.90811230888E+02 0.  0.
          5    1    3    3  502    0  0.14718468189E+02  0.61473460377E+01  0.66616407948E+02  0.68626826948E+02  0.41800000000E+01 0.  1.
         -5    1    3    3    0  502  0.61683436832E+02 -0.12008442506E+02 -0.48078078156E+02  0.79233976740E+02  0.41800000000E+01 0.  1.
        -11    1    4    4    0    0 -0.57242418068E+02 -0.22209926406E+02 -0.30138484260E+01  0.61474047692E+02  0.00000000000E+00 0.  1.
         11    1    4    4    0    0 -0.19159486953E+02  0.28071022874E+02  0.63109847777E+02  0.71679293746E+02  0.00000000000E+00 0. -1.
</event>
<event>
 8    1  0.6635152E-009  0.1332105E+03  0.7561462E-02  0.1222768E+00
          2   -1    0    0  501    0  0.00000000000E+00  0.00000000000E+00  0.29811400885E+03  0.29811400885E+03  0.00000000000E+00 0.  1.
         -2   -1    0    0    0  501 -0.00000000000E+00 -0.00000000000E+00 -0.92838152282E+02  0.92838152282E+02  0.00000000000E+00 0. -1.
         25    2    1    2    0    0 -0.11813231140E+03 -0.25561714963E+02  0.67421862141E+02  0.18657988900E+03  0.12513074449E+03 0.  0.
         23    2    1    2    0    0  0.11813231140E+03  0.25561714963E+02  0.13785399443E+03  0.20437227213E+03  0.90308679358E+02 0.  0.
          5    1    3    3  502    0 -0.67328589355E+01  0.19782882813E+02 -0.26438885842E+02  0.33958517730E+02  0.41800000000E+01 0. -1.
         -5    1    3    3    0  502 -0.11139945247E+03 -0.45344597776E+02  0.93860747983E+02  0.15262137127E+03  0.41800000000E+01 0. -1.
        -11    1    4    4    0    0  0.96340214921E+02  0.32845754996E+02  0.14769904687E+03  0.17937471694E+03  0.00000000000E+00 0.  1.
         11    1    4    4    0    0  0.21792096482E+02 -0.72840400331E+01 -0.98450524338E+01  0.24997555194E+02  0.00000000000E+00 0. -1.
</event>
<event>
 8    1  0.6635152E-009  0.1221820E+03  0.7561462E-02  0.1239540E+00
         -1   -1    0    0    0  501 -0.00000000000E+00  0.00000000000E+00  0.13571819233E+03  0.13571819233E+03  0.00000000000E+00 0.  1.
          1   -1    0    0  501    0  0.00000000000E+00 -0.00000000000E+00 -0.12874741787E+03  0.12874741787E+03  0.00000000000E+00 0. -1.
         25    2    1    2    0    0 -0.17124761725E+02 -0.57774214985E+02  0.49133336681E+02  0.14729984981E+03  0.12510812763E+03 0.  0.
         23    2    1    2    0    0  0.17124761725E+02  0.57774214985E+02 -0.42162562217E+02  0.11716576039E+03  0.91208641991E+02 0.  0.
          5    1    3    3  502    0 -0.57361264820E+02  0.10855251025E+02  0.13701632878E+02  0.60111216258E+02  0.41800000000E+01 0. -1.
         -5    1    3    3    0  502  0.40236503095E+02 -0.68629466010E+02  0.35431703803E+02  0.87188633551E+02  0.41800000000E+01 0. -1.
        -11    1    4    4    0    0  0.48336390648E+02  0.57287511980E+02 -0.42061462057E+02  0.85950173240E+02  0.00000000000E+00 0.  1.
         11    1    4    4    0    0 -0.31211628923E+02  0.48670300476E+00 -0.10110016024E+00  0.31215587149E+02  0.00000000000E+00 0. -1.
</event>
<event>
 8    1  0.6635152E-009  0.8922850E+02  0.7561462E-02  0.1304731E+00
         -2   -1    0    0    0  501 -0.00000000000E+00  0.00000000000E+00  0.65674752102E+02  0.65674752102E+02  0.00000000000E+00 0.  1.
          2   -1    0    0  501    0  0.00000000000E+00 -0.00000000000E+00 -0.19824774428E+03  0.19824774428E+03  0.00000000000E+00 0. -1.
         25    2    1    2    0    0  0.99892176484E+01  0.34914560987E+02 -0.69554191805E+02  0.14765549357E+03  0.12508216557E+03 0.  0.
         23    2    1    2    0    0 -0.99892176484E+01 -0.34914560987E+02 -0.63018800373E+02  0.11626700281E+03  0.90707418137E+02 0.  0.
          5    1    3    3  502    0 -0.17103293156E+02 -0.24648430416E+02  0.20268773240E+02  0.36446719021E+02  0.41800000000E+01 0.  1.
         -5    1    3    3    0  502  0.27092510805E+02  0.59562991402E+02 -0.89822965045E+02  0.11120877455E+03  0.41800000000E+01 0.  1.
        -11    1    4    4    0    0 -0.32343698607E+02 -0.47101257344E+02 -0.69522436484E+02  0.89988957421E+02  0.00000000000E+00 0. -1.
         11    1    4    4    0    0  0.22354480959E+02  0.12186696357E+02  0.65036361117E+01  0.26278045394E+02  0.00000000000E+00 0.  1.
</event>
<event>
 8    1  0.6635152E-009  0.9615370E+02  0.7561462E-02  0.1288599E+00
         -1   -1    0    0    0  501 -0.00000000000E+00  0.00000000000E+00  0.48811113567E+02  0.48811113567E+02  0.00000000000E+00 0.  1.
          1   -1    0    0  501    0  0.00000000000E+00 -0.00000000000E+00 -0.23441361044E+03  0.23441361044E+03  0.00000000000E+00 0. -1.
         25    2    1    2    0    0  0.56115382514E+00 -0.10980465150E+02 -0.10211692552E+03  0.16184948195E+03  0.12508598172E+03 0.  0.
         23    2    1    2    0    0 -0.56115382514E+00  0.10980465150E+02 -0.83485571351E+02  0.12137524205E+03  0.87414090692E+02 0.  0.
          5    1    3    3  502    0 -0.46341723385E+02  0.34559773365E+02 -0.33328943947E+02  0.66859735012E+02  0.41800000000E+01 0.  1.
         -5    1    3    3    0  502  0.46902877210E+02 -0.45540238515E+02 -0.68787981574E+02  0.94989746940E+02  0.41800000000E+01 0.  1.
        -11    1    4    4    0    0  0.29445024459E+02  0.22124277006E+02 -0.57100231202E+01  0.37270597828E+02  0.00000000000E+00 0.  1.
         11    1    4    4    0    0 -0.30006178284E+02 -0.11143811856E+02 -0.77775548231E+02  0.84104644227E+02  0.00000000000E+00 0. -1.
</event>
<event>
 8    1  0.6635152E-009  0.9829122E+02  0.7561462E-02  0.1283931E+00
          2   -1    0    0  501    0  0.00000000000E+00  0.00000000000E+00  0.37019573295E+03  0.37019573295E+03  0.00000000000E+00 0.  1.
         -2   -1    0    0    0  501 -0.00000000000E+00 -0.00000000000E+00 -0.49065289266E+02  0.49065289266E+02  0.00000000000E+00 0. -1.
         25    2    1    2    0    0 -0.78979497267E+02  0.40451480082E+02  0.19991234137E+03  0.25196510199E+03  0.12508950859E+03 0.  0.
         23    2    1    2    0    0  0.78979497267E+02 -0.40451480082E+02  0.12121810231E+03  0.16729592022E+03  0.73620740050E+02 0.  0.
          5    1    3    3  502    0 -0.10362780653E+02  0.32751204648E+02 -0.56615692977E+01  0.35065002434E+02  0.41800000000E+01 0.  1.
         -5    1    3    3    0  502 -0.68616716614E+02  0.77002754335E+01  0.20557391067E+03  0.21690009956E+03  0.41800000000E+01 0.  1.
        -11    1    4    4    0    0  0.44148812513E+02 -0.73569456682E+01  0.10883638451E+03  0.11768007856E+03  0.00000000000E+00 0.  1.
         11    1    4    4    0    0  0.34830684754E+02 -0.33094534414E+02  0.12381717802E+02  0.49615841666E+02  0.00000000000E+00 0. -1.
</event>
<event>
 8    1  0.6635152E-009  0.8546309E+02  0.7561462E-02  0.1314226E+00
         -1   -1    0    0    0  501 -0.00000000000E+00  0.00000000000E+00  0.13676802980E+03  0.13676802980E+03  0.00000000000E+00 0.  1.
          1   -1    0    0  501    0  0.00000000000E+00 -0.00000000000E+00 -0.95919652993E+02  0.95919652993E+02  0.00000000000E+00 0. -1.
         25    2    1    2    0    0 -0.19896592582E+02 -0.30735654907E+02  0.35802074737E+02  0.13516367456E+03  0.12508747134E+03 0.  0.
         23    2    1    2    0    0  0.19896592582E+02  0.30735654907E+02  0.50463020660E+01  0.97524008228E+02  0.90249166962E+02 0.  0.
          5    1    3    3  502    0 -0.42337158751E+02 -0.29098260224E+02  0.74270203723E+02  0.90402872301E+02  0.41800000000E+01 0.  1.
         -5    1    3    3    0  502  0.22440566169E+02 -0.16373946827E+01 -0.38468128986E+02  0.44760802261E+02  0.41800000000E+01 0.  1.
        -11    1    4    4    0    0 -0.17948462630E+02  0.50648358068E+02 -0.37477867331E+01  0.53865103649E+02  0.00000000000E+00 0.  1.
         11    1    4    4    0    0  0.37845055212E+02 -0.19912703161E+02  0.87940887990E+01  0.43658904578E+02  0.00000000000E+00 0. -1.
</event>
<event>
 7    1  0.6635152E-009  0.8640590E+02  0.7561462E-02  0.1311796E+00
          1   -1    0    0  501    0  0.00000000000E+00  0.00000000000E+00  0.44649144363E+02  0.44649144363E+02  0.00000000000E+00 0. -1.
         -1   -1    0    0    0  501 -0.00000000000E+00 -0.00000000000E+00 -0.28736771304E+03  0.28736771304E+03  0.00000000000E+00 0.  1.
         23    2    1    2    0    0  0.29003509285E+02 -0.41372506421E+01 -0.86198177061E+02  0.12946650056E+03  0.92049598829E+02 0.  0.
          5    1    1    2  502    0 -0.49440336345E+02 -0.13079301254E+02 -0.84169125315E+01  0.51997421049E+02  0.41800000000E+01 0.  1.
         -5    1    1    2    0  502  0.20436827060E+02  0.17216551896E+02 -0.14810347909E+03  0.15055293580E+03  0.41800000000E+01 0.  1.
        -11    1    3    3    0    0 -0.12431357128E+02  0.35193010012E+02 -0.47741088399E+02  0.60599489398E+02  0.00000000000E+00 0.  1.
         11    1    3    3    0    0  0.41434866414E+02 -0.39330260654E+02 -0.38457088663E+02  0.68867011161E+02  0.00000000000E+00 0. -1.
</event>
<event>
 8    1  0.6635152E-009  0.1419614E+03  0.7561462E-02  0.1210714E+00
          2   -1    0    0  501    0  0.00000000000E+00  0.00000000000E+00  0.94740628823E+03  0.94740628823E+03  0.00000000000E+00 0. -1.
         -2   -1    0    0    0  501 -0.00000000000E+00 -0.00000000000E+00 -0.29623493187E+02  0.29623493187E+02  0.00000000000E+00 0.  1.
         25    2    1    2    0    0 -0.83221393209E+02 -0.64330590908E+02  0.27754478121E+03  0.32209141223E+03  0.12509015564E+03 0.  0.
         23    2    1    2    0    0  0.83221393209E+02  0.64330590908E+02  0.64023801383E+03  0.65493836919E+03  0.89304691188E+02 0.  0.
          5    1    3    3  502    0 -0.67975360342E+02  0.11004871398E+02  0.20508016940E+03  0.21637260707E+03  0.41800000000E+01 0. -1.
         -5    1    3    3    0  502 -0.15246032867E+02 -0.75335462306E+02  0.72464611809E+02  0.10571880516E+03  0.41800000000E+01 0. -1.
        -11    1    4    4    0    0  0.96797341494E+02  0.73531645406E+02  0.56804142384E+03  0.58090247666E+03  0.00000000000E+00 0. -1.
         11    1    4    4    0    0 -0.13575948285E+02 -0.92010544981E+01  0.72196589989E+02  0.74035892523E+02  0.00000000000E+00 0.  1.
</event>
<event>
 8    1  0.6635152E-009  0.9379459E+02  0.7561462E-02  0.1293914E+00
         -2   -1    0    0    0  501 -0.00000000000E+00  0.00000000000E+00  0.45269361426E+02  0.45269361426E+02  0.00000000000E+00 0.  1.
          2   -1    0    0  501    0  0.00000000000E+00 -0.00000000000E+00 -0.30519781114E+03  0.30519781114E+03  0.00000000000E+00 0. -1.
         25    2    1    2    0    0 -0.36098237556E+02 -0.18475092292E+02 -0.15022143122E+03  0.19964379583E+03  0.12508698983E+03 0.  0.
         23    2    1    2    0    0  0.36098237556E+02  0.18475092292E+02 -0.10970701850E+03  0.15082337674E+03  0.95224205294E+02 0.  0.
          5    1    3    3  502    0  0.23007374692E+02 -0.19245009489E+02 -0.13514637233E+03  0.13849810120E+03  0.41800000000E+01 0. -1.
         -5    1    3    3    0  502 -0.59105612248E+02  0.76991719778E+00 -0.15075058886E+02  0.61145694633E+02  0.41800000000E+01 0. -1.
        -11    1    4    4    0    0  0.27019351791E+02 -0.34769039376E+02 -0.25800475559E+02  0.51035242818E+02  0.00000000000E+00 0. -1.
         11    1    4    4    0    0  0.90788857644E+01  0.53244131668E+02 -0.83906542942E+02  0.99788133925E+02  0.00000000000E+00 0.  1.
</event>
<event>
 8    1  0.6635152E-009  0.1947694E+03  0.7561462E-02  0.1154229E+00
         -1   -1    0    0    0  501 -0.00000000000E+00  0.00000000000E+00  0.17277350124E+03  0.17277350124E+03  0.00000000000E+00 0.  1.
          1   -1    0    0  501    0  0.00000000000E+00 -0.00000000000E+00 -0.31788789924E+03  0.31788789924E+03  0.00000000000E+00 0. -1.
         25    2    1    2    0    0  0.12087539494E+03  0.14775997835E+03  0.13946860779E+02  0.22866215740E+03  0.12509194618E+03 0.  0.
         23    2    1    2    0    0 -0.12087539494E+03 -0.14775997835E+03 -0.15906125878E+03  0.26199924308E+03  0.83061706114E+02 0.  0.
          5    1    3    3  502    0  0.11092442468E+03  0.14259821660E+03  0.52592360102E+02  0.18820708836E+03  0.41800000000E+01 0. -1.
         -5    1    3    3    0  502  0.99509702572E+01  0.51617617571E+01 -0.38645499323E+02  0.40455069045E+02  0.41800000000E+01 0. -1.
        -11    1    4    4    0    0 -0.84541706388E+02 -0.13311190368E+03 -0.15737967432E+03  0.22278788322E+03  0.00000000000E+00 0. -1.
         11    1    4    4    0    0 -0.36333688554E+02 -0.14648074671E+02 -0.16815844615E+01  0.39211359856E+02  0.00000000000E+00 0.  1.
</event>
<event>
 8    1  0.6635152E-009  0.1151102E+03  0.7561462E-02  0.1251389E+00
         -2   -1    0    0    0  501 -0.00000000000E+00  0.00000000000E+00  0.51420417769E+03  0.51420417769E+03  0.00000000000E+00 0.  1.
          2   -1    0    0  501    0  0.00000000000E+00 -0.00000000000E+00 -0.37786383876E+02  0.37786383876E+02  0.00000000000E+00 0. -1.
         25    2    1    2    0    0  0.69501367678E+02  0.90449043093E+01  0.15292878962E+03  0.20963580486E+03  0.12509078935E+03 0.  0.
         23    2    1    2    0    0 -0.69501367678E+02 -0.90449043093E+01  0.32348900420E+03  0.34235475671E+03  0.87460809523E+02 0.  0.
          5    1    3    3  502    0 -0.23122425538E+02  0.99024056891E+01 -0.54843867841E+01  0.26081700473E+02  0.41800000000E+01 0.  1.
         -5    1    3    3    0  502  0.92623793216E+02 -0.85750137975E+00  0.15841317640E+03  0.18355410438E+03  0.41800000000E+01 0.  1.
        -11    1    4    4    0    0  0.14357244900E+02  0.18785417587E+02  0.63174416279E+02  0.67453904759E+02  0.00000000000E+00 0.  1.
         11    1    4    4    0    0 -0.83858612579E+02 -0.27830321896E+02  0.26031458792E+03  0.27490085196E+03  0.00000000000E+00 0. -1.
</event>
<event>
 8    1  0.6635152E-009  0.1539107E+03  0.7561462E-02  0.1195748E+00
         -1   -1    0    0    0  501 -0.00000000000E+00  0.00000000000E+00  0.23269793914E+03  0.23269793914E+03  0.00000000000E+00 0.  1.
          1   -1    0    0  501    0  0.00000000000E+00 -0.00000000000E+00 -0.11581196231E+03  0.11581196231E+03  0.00000000000E+00 0. -1.
         25    2    1    2    0    0 -0.14414866620E+02  0.10891519501E+03  0.62965520348E+01  0.16660455681E+03  0.12508846349E+03 0.  0.
         23    2    1    2    0    0  0.14414866620E+02 -0.10891519501E+03  0.11058942480E+03  0.18190534464E+03  0.93750869046E+02 0.  0.
          5    1    3    3  502    0  0.33387884145E+02  0.11187447906E+03  0.14876731590E+02  0.11776858416E+03  0.41800000000E+01 0.  1.
         -5    1    3    3    0  502 -0.47802750765E+02 -0.29592840510E+01 -0.85801795552E+01  0.48835972643E+02  0.41800000000E+01 0.  1.
        -11    1    4    4    0    0 -0.38421054514E+02 -0.34380862725E+02  0.52817926799E+02  0.73810260419E+02  0.00000000000E+00 0.  1.
         11    1    4    4    0    0  0.52835921134E+02 -0.74534332287E+02  0.57771498001E+02  0.10809508422E+03  0.00000000000E+00 0. -1.
</event>
<event>
 8    1  0.6635152E-009  0.1463526E+03  0.7561462E-02  0.1205028E+00
         -1   -1    0    0    0  501 -0.00000000000E+00  0.00000000000E+00  0.78253973887E+02  0.78253973887E+02  0.00000000000E+00 0.  1.
          1   -1    0    0  501    0  0.00000000000E+00 -0.00000000000E+00 -0.38467801595E+03  0.38467801595E+03  0.00000000000E+00 0. -1.
         25    2    1    2    0    0  0.12827516116E+03 -0.29828631039E+02 -0.19296101260E+03  0.26500110264E+03  0.12508943928E+03 0.  0.
         23    2    1    2    0    0 -0.12827516116E+03  0.29828631039E+02 -0.11346302947E+03  0.19793088720E+03  0.94649420754E+02 0.  0.
          5    1    3    3  502    0  0.12809675908E+03 -0.22118571843E+02 -0.20932193247E+03  0.24643691833E+03  0.41800000000E+01 0.  1.
         -5    1    3    3    0  502  0.17840208535E+00 -0.77100591965E+01  0.16360919869E+02  0.18564184310E+02  0.41800000000E+01 0.  1.
        -11    1    4    4    0    0 -0.40253007620E+02 -0.27570795045E+02 -0.87242494137E+01  0.49563755807E+02  0.00000000000E+00 0.  1.
         11    1    4    4    0    0 -0.88022153542E+02  0.57399426084E+02 -0.10473878006E+03  0.14836713139E+03  0.00000000000E+00 0. -1.
</event>
<event>
 8    1  0.6635152E-009  0.1605406E+03  0.7561462E-02  0.1188088E+00
          2   -1    0    0  501    0  0.00000000000E+00  0.00000000000E+00  0.83690196636E+03  0.83690196636E+03  0.00000000000E+00 0. -1.
         -2   -1    0    0    0  501 -0.00000000000E+00 -0.00000000000E+00 -0.39022185661E+02  0.39022185661E+02  0.00000000000E+00 0.  1.
         25    2    1    2    0    0  0.82598372533E+01  0.14119657789E+03  0.48221796772E+03  0.51786691930E+03  0.12508908503E+03 0.  0.
         23    2    1    2    0    0 -0.82598372533E+01 -0.14119657789E+03  0.31566181298E+03  0.35805723272E+03  0.92508935851E+02 0.  0.
          5    1    3    3  502    0 -0.41720416894E+01  0.15771047163E+03  0.34946250274E+03  0.38344688291E+03  0.41800000000E+01 0. -1.
         -5    1    3    3    0  502  0.12431878943E+02 -0.16513893742E+02  0.13275546498E+03  0.13442003639E+03  0.41800000000E+01 0. -1.
        -11    1    4    4    0    0  0.17096280665E+01 -0.89839794847E+02  0.92944126728E+02  0.12927769436E+03  0.00000000000E+00 0.  1.
         11    1    4    4    0    0 -0.99694653198E+01 -0.51356783040E+02  0.22271768625E+03  0.22877953836E+03  0.00000000000E+00 0. -1.
</event>
<event>
 8    1  0.6635152E-009  0.9451334E+02  0.7561462E-02  0.1292276E+00
         -1   -1    0    0    0  501 -0.00000000000E+00  0.00000000000E+00  0.49301692904E+02  0.49301692904E+02  0.00000000000E+00 0.  1.
          1   -1    0    0  501    0  0.00000000000E+00 -0.00000000000E+00 -0.29857261489E+03  0.29857261489E+03  0.00000000000E+00 0. -1.
         25    2    1    2    0    0 -0.37528247437E+02  0.36249541693E+02 -0.14686760112E+03  0.19985015639E+03  0.12509034385E+03 0.  0.
         23    2    1    2    0    0  0.37528247437E+02 -0.36249541693E+02 -0.10240332087E+03  0.14802415141E+03  0.93286176064E+02 0.  0.
          5    1    3    3  502    0  0.95962112926E+01 -0.11652171034E+02  0.16743869750E+02  0.22927929152E+02  0.41800000000E+01 0. -1.
         -5    1    3    3    0  502 -0.47124458729E+02  0.47901712727E+02 -0.16361147087E+03  0.17692222724E+03  0.41800000000E+01 0. -1.
        -11    1    4    4    0    0 -0.30830110316E+02 -0.66124332309E+01 -0.39301219816E+02  0.50386564224E+02  0.00000000000E+00 0.  1.
         11    1    4    4    0    0  0.68358357752E+02 -0.29637108462E+02 -0.63102101058E+02  0.97637587181E+02  0.00000000000E+00 0. -1.
</event>
<event>
 8    1  0.6635152E-009  0.1707213E+03  0.7561462E-02  0.1177098E+00
          1   -1    0    0  501    0  0.00000000000E+00  0.00000000000E+00  0.31505549878E+03  0.31505549878E+03  0.00000000000E+00 0. -1.
         -1   -1    0    0    0  501 -0.00000000000E+00 -0.00000000000E+00 -0.11315379820E+03  0.11315379820E+03  0.00000000000E+00 0.  1.
         25    2    1    2    0    0  0.39150178020E+02  0.14506099143E+03  0.14391806232E+03  0.24276601807E+03  0.12508998039E+03 0.  0.
         23    2    1    2    0    0 -0.39150178020E+02 -0.14506099143E+03  0.57983638255E+02  0.18544327891E+03  0.91933017546E+02 0.  0.
          5    1    3    3  502    0  0.63777388019E+02  0.13933080440E+03  0.15201834900E+03  0.21588811711E+03  0.41800000000E+01 0. -1.
         -5    1    3    3    0  502 -0.24627209998E+02  0.57301870299E+01 -0.81002866805E+01  0.26877900960E+02  0.41800000000E+01 0. -1.
        -11    1    4    4    0    0  0.12433772336E+02 -0.72127836298E+02 -0.90619969814E+01  0.73750547475E+02  0.00000000000E+00 0.  1.
         11    1    4    4    0    0 -0.51583950356E+02 -0.72933155130E+02  0.67045635237E+02  0.11169273144E+03  0.00000000000E+00 0. -1.
</event>
<event>
 8    1  0.6635152E-009  0.5974662E+02  0.7561462E-02  0.1398898E+00
         -1   -1    0    0    0  501 -0.00000000000E+00  0.00000000000E+00  0.43550128077E+03  0.43550128077E+03  0.00000000000E+00 0.  1.
          1   -1    0    0  501    0  0.00000000000E+00 -0.00000000000E+00 -0.30803199675E+02  0.30803199675E+02  0.00000000000E+00 0. -1.
         25    2    1    2    0    0  0.20353918086E+02  0.30878771137E+01  0.30500051425E+03  0.33029661748E+03  0.12508686925E+03 0.  0.
         23    2    1    2    0    0 -0.20353918086E+02 -0.30878771137E+01  0.99697566843E+02  0.13600786296E+03  0.90192665926E+02 0.  0.
          5    1    3    3  502    0  0.11666055263E+02  0.20407492473E+02  0.30912849895E+03  0.31004913136E+03  0.41800000000E+01 0. -1.
         -5    1    3    3    0  502  0.86878628235E+01 -0.17319615360E+02 -0.41279846961E+01  0.20247486123E+02  0.41800000000E+01 0. -1.
        -11    1    4    4    0    0  0.26823513308E+02  0.66231431604E+01  0.78800056711E+02  0.83503388130E+02  0.00000000000E+00 0.  1.
         11    1    4    4    0    0 -0.47177431394E+02 -0.97110202741E+01  0.20897510132E+02  0.52504474833E+02  0.00000000000E+00 0. -1.
</event>
<event>
 8    1  0.6635152E-009  0.3104261E+03  0.7561462E-02  0.1080142E+00
         -2   -1    0    0    0  501 -0.00000000000E+00  0.00000000000E+00  0.50382660382E+03  0.50382660382E+03  0.00000000000E+00 0. -1.
          2   -1    0    0  501    0  0.00000000000E+00 -0.00000000000E+00 -0.21825273361E+03  0.21825273361E+03  0.00000000000E+00 0.  1.
         25    2    1    2    0    0  0.23429822351E+03  0.18425646420E+03  0.41275787197E+02  0.32587975551E+03  0.12509125590E+03 0.  0.
         23    2    1    2    0    0 -0.23429822351E+03 -0.18425646420E+03  0.24429808301E+03  0.39619958192E+03  0.91904587556E+02 0.  0.
          5    1    3    3  502    0  0.54538781764E+01  0.48437826550E+02 -0.19862919345E+02  0.52801285903E+02  0.41800000000E+01 0. -1.
         -5    1    3    3    0  502  0.22884434533E+03  0.13581863765E+03  0.61138706542E+02  0.27307846961E+03  0.41800000000E+01 0. -1.
        -11    1    4    4    0    0 -0.16553860759E+03 -0.87957059443E+02  0.11056441905E+03  0.21763263926E+03  0.00000000000E+00 0.  1.
         11    1    4    4    0    0 -0.68759615919E+02 -0.96299404759E+02  0.13373366396E+03  0.17856694267E+03  0.00000000000E+00 0. -1.
</event>
<event>
 8    1  0.6635152E-009  0.1459372E+03  0.7561462E-02  0.1205556E+00
          1   -1    0    0  501    0  0.00000000000E+00  0.00000000000E+00  0.71460476993E+02  0.71460476993E+02  0.00000000000E+00 0. -1.
         -1   -1    0    0    0  501 -0.00000000000E+00 -0.00000000000E+00 -0.43091979886E+03  0.43091979886E+03  0.00000000000E+00 0.  1.
         25    2    1    2    0    0 -0.19247537718E+01 -0.11056834161E+03 -0.31318403124E+03  0.35491024728E+03  0.12509189964E+03 0.  0.
         23    2    1    2    0    0  0.19247537718E+01  0.11056834161E+03 -0.46275290620E+02  0.14747002857E+03  0.85889137616E+02 0.  0.
          5    1    3    3  502    0 -0.57752952150E+02 -0.72013443158E+02 -0.12979575558E+03  0.15932906215E+03  0.41800000000E+01 0.  1.
         -5    1    3    3    0  502  0.55828198378E+02 -0.38554898451E+02 -0.18338827566E+03  0.19558118514E+03  0.41800000000E+01 0.  1.
        -11    1    4    4    0    0 -0.34317527709E+02  0.62380825949E+02  0.43426417157E+00  0.71198656866E+02  0.00000000000E+00 0. -1.
         11    1    4    4    0    0  0.36242281481E+02  0.48187515660E+02 -0.46709554792E+02  0.76271371702E+02  0.00000000000E+00 0.  1.
</event>
<event>
 8    1  0.6635152E-009  0.1700775E+03  0.7561462E-02  0.1177767E+00
          1   -1    0    0  501    0  0.00000000000E+00  0.00000000000E+00  0.32876917201E+03  0.32876917201E+03  0.00000000000E+00 0. -1.
         -1   -1    0    0    0  501 -0.00000000000E+00 -0.00000000000E+00 -0.11197031434E+03  0.11197031434E+03  0.00000000000E+00 0.  1.
         25    2    1    2    0    0  0.13951072173E+03 -0.47791975036E+02  0.17945914894E+03  0.26381872050E+03  0.12508963502E+03 0.  0.
         23    2    1    2    0    0 -0.13951072173E+03  0.47791975036E+02  0.37339708733E+02  0.17692076586E+03  0.90329337352E+02 0.  0.
          5    1    3    3  502    0  0.21694097344E+02 -0.68807632682E+02  0.52711625069E+02  0.89448935110E+02  0.41800000000E+01 0. -1.
         -5    1    3    3    0  502  0.11781662439E+03  0.21015657646E+02  0.12674752387E+03  0.17436978539E+03  0.41800000000E+01 0. -1.
        -11    1    4    4    0    0 -0.10907005062E+03  0.43376765947E+02 -0.12824126695E+02  0.11807742372E+03  0.00000000000E+00 0.  1.
         11    1    4    4    0    0 -0.30440671113E+02  0.44152090894E+01  0.50163835429E+02  0.58843342138E+02  0.00000000000E+00 0. -1.
</event>
<event>
 8    1  0.6635152E-009  0.1019266E+03  0.7561462E-02  0.1276296E+00
          1   -1    0    0  501    0  0.00000000000E+00  0.00000000000E+00  0.43090393905E+03  0.43090393905E+03  0.00000000000E+00 0. -1.
         -1   -1    0    0    0  501 -0.00000000000E+00 -0.00000000000E+00 -0.28188835611E+02  0.28188835611E+02  0.00000000000E+00 0.  1.
         25    2    1    2    0    0  0.67318721499E+01 -0.10838136862E+02  0.20467266592E+03  0.24021269298E+03  0.12509378233E+03 0.  0.
         23    2    1    2    0    0 -0.67318721499E+01  0.10838136862E+02  0.19804243752E+03  0.21888008169E+03  0.92330383876E+02 0.  0.
          5    1    3    3  502    0 -0.10758779579E+02  0.48276460854E+02  0.38174779603E+02  0.62619120150E+02  0.41800000000E+01 0. -1.
         -5    1    3    3    0  502  0.17490651729E+02 -0.59114597716E+02  0.16649788632E+03  0.17759357282E+03  0.41800000000E+01 0. -1.
        -11    1    4    4    0    0  0.33158953100E+02  0.33009656631E+02  0.86095702728E+02  0.97987874912E+02  0.00000000000E+00 0.  1.
         11    1    4    4    0    0 -0.39890825250E+02 -0.22171519769E+02  0.11194673479E+03  0.12089220677E+03  0.00000000000E+00 0. -1.
</event>
<event>
 8    1  0.6635152E-009  0.1357176E+03  0.7561462E-02  0.1219210E+00
          4   -1    0    0  501    0  0.00000000000E+00  0.00000000000E+00  0.17995052542E+03  0.17995052542E+03  0.00000000000E+00 0. -1.
         -4   -1    0    0    0  501 -0.00000000000E+00 -0.00000000000E+00 -0.11166678702E+03  0.11166678702E+03  0.00000000000E+00 0.  1.
         25    2    1    2    0    0  0.82620110374E+02 -0.38259463585E+02  0.49951973905E+02  0.16257788707E+03  0.12508597233E+03 0.  0.
         23    2    1    2    0    0 -0.82620110374E+02  0.38259463585E+02  0.18331764494E+02  0.12903942537E+03  0.89583762585E+02 0.  0.
          5    1    3    3  502    0  0.10590833768E+03 -0.57911165667E+02  0.52538863172E+02  0.13171212413E+03  0.41800000000E+01 0. -1.
         -5    1    3    3    0  502 -0.23288227306E+02  0.19651702082E+02 -0.25868892667E+01  0.30865762940E+02  0.41800000000E+01 0. -1.
        -11    1    4    4    0    0 -0.87093083552E+02  0.54709413003E+02  0.31424572538E+02  0.10754454348E+03  0.00000000000E+00 0. -1.
         11    1    4    4    0    0  0.44729731784E+01 -0.16449949418E+02 -0.13092808044E+02  0.21494881889E+02  0.00000000000E+00 0.  1.
</event>
<event>
 7    1  0.6635152E-009  0.1871357E+03  0.7561462E-02  0.1161070E+00
         -1   -1    0    0    0  501 -0.00000000000E+00  0.00000000000E+00  0.54785334398E+02  0.54785334398E+02  0.00000000000E+00 0.  1.
          1   -1    0    0  501    0  0.00000000000E+00 -0.00000000000E+00 -0.89909985938E+03  0.89909985938E+03  0.00000000000E+00 0. -1.
         25    2    1    2    0    0 -0.54940134842E+02 -0.70752946902E+02 -0.16084922925E+03  0.22258450917E+03  0.12508793412E+03 0.  0.
          5    1    3    3  502    0  0.34832346470E+02 -0.28838939130E+01 -0.14867931765E+02  0.38211739030E+02  0.41800000000E+01 0. -1.
         -5    1    3    3    0  502 -0.89772481312E+02 -0.67869052989E+02 -0.14598129748E+03  0.18437277014E+03  0.41800000000E+01 0. -1.
        -11    1    1    2    0    0  0.12061925085E+03 -0.11532483132E+02 -0.53953352334E+03  0.55297235433E+03  0.00000000000E+00 0. -1.
         11    1    1    2    0    0 -0.65679116008E+02  0.82285430034E+02 -0.14393177239E+03  0.17832833027E+03  0.00000000000E+00 0.  1.
</event>
<event>
 8    1  0.6635152E-009  0.1138941E+03  0.7561462E-02  0.1253524E+00
         -2   -1    0    0    0  501 -0.00000000000E+00  0.00000000000E+00  0.26677166348E+03  0.26677166348E+03  0.00000000000E+00 0.  1.
          2   -1    0    0  501    0  0.00000000000E+00 -0.00000000000E+00 -0.64078993077E+02  0.64078993077E+02  0.00000000000E+00 0. -1.
         25    2    1    2    0    0  0.43761894085E+02  0.42595255411E+02  0.69429776508E+02  0.15555653886E+03  0.12509150155E+03 0.  0.
         23    2    1    2    0    0 -0.43761894085E+02 -0.42595255411E+02  0.13326289389E+03  0.17529411769E+03  0.96122680210E+02 0.  0.
          5    1    3    3  502    0 -0.28574667265E+02  0.33104719861E+02 -0.12595681089E+02  0.45700740350E+02  0.41800000000E+01 0.  1.
         -5    1    3    3    0  502  0.72336561350E+02  0.94905355501E+01  0.82025457597E+02  0.10985579851E+03  0.41800000000E+01 0.  1.
        -11    1    4    4    0    0 -0.47812056869E+01  0.28930634371E+02  0.18899393808E+02  0.34885937271E+02  0.00000000000E+00 0. -1.
         11    1    4    4    0    0 -0.38980688398E+02 -0.71525889783E+02  0.11436350008E+03  0.14040818042E+03  0.00000000000E+00 0.  1.
</event>
<event>
 8    1  0.6635152E-009  0.1086230E+03  0.7561462E-02  0.1263141E+00
         -1   -1    0    0    0  501 -0.00000000000E+00  0.00000000000E+00  0.38662600385E+03  0.38662600385E+03  0.00000000000E+00 0.  1.
          1   -1    0    0  501    0  0.00000000000E+00 -0.00000000000E+00 -0.33634403482E+02  0.33634403482E+02  0.00000000000E+00 0. -1.
         25    2    1    2    0    0 -0.29674816223E+02  0.21824591745E+02  0.21602275571E+03  0.25231518400E+03  0.12506083948E+03 0.  0.
         23    2    1    2    0    0  0.29674816223E+02 -0.21824591745E+02  0.13696884466E+03  0.16794522334E+03  0.89934565715E+02 0.  0.
          5    1    3    3  502    0  0.30625132788E+02  0.45628887726E+02  0.51493250643E+02  0.75424938947E+02  0.41800000000E+01 0.  1.
         -5    1    3    3    0  502 -0.60299949011E+02 -0.23804295981E+02  0.16452950507E+03  0.17689024505E+03  0.41800000000E+01 0.  1.
        -11    1    4    4    0    0  0.16545663887E+02 -0.57143370677E+02  0.82393046825E+02  0.10162547895E+03  0.00000000000E+00 0.  1.
         11    1    4    4    0    0  0.13129152336E+02  0.35318778932E+02  0.54575797837E+02  0.66319744389E+02  0.00000000000E+00 0. -1.
</event>
<event>
 8    1  0.6635152E-009  0.1243609E+03  0.7561462E-02  0.1236071E+00
          1   -1    0    0  501    0  0.00000000000E+00  0.00000000000E+00  0.28489420616E+02  0.28489420616E+02  0.00000000000E+00 0. -1.
         -1   -1    0    0    0  501 -0.00000000000E+00 -0.00000000000E+00 -0.61272529085E+03  0.61272529085E+03  0.00000000000E+00 0.  1.
         25    2    1    2    0    0  0.30104804074E+02  0.68446438676E+02 -0.29245287902E+03  0.32675314120E+03  0.12509082555E+03 0.  0.
         23    2    1    2    0    0 -0.30104804074E+02 -0.68446438676E+02 -0.29178299121E+03  0.31446157026E+03  0.90319161977E+02 0.  0.
          5    1    3    3  502    0 -0.41410862806E+02  0.53746563836E+02 -0.10040404312E+03  0.12125179156E+03  0.41800000000E+01 0. -1.
         -5    1    3    3    0  502  0.71515666880E+02  0.14699874839E+02 -0.19204883590E+03  0.20550134964E+03  0.41800000000E+01 0. -1.
        -11    1    4    4    0    0 -0.42279784294E+02 -0.80218122268E+02 -0.27864342193E+03  0.29302676309E+03  0.00000000000E+00 0.  1.
         11    1    4    4    0    0  0.12174980220E+02  0.11771683592E+02 -0.13139569275E+02  0.21434807176E+02  0.00000000000E+00 0. -1.
</event>
<event>
 8    1  0.6635152E-009  0.5796886E+02  0.7561462E-02  0.1406559E+00
         -2   -1    0    0    0  501 -0.00000000000E+00  0.00000000000E+00  0.69684735336E+02  0.69684735336E+02  0.00000000000E+00 0. -1.
          2   -1    0    0  501    0  0.00000000000E+00 -0.00000000000E+00 -0.19566424718E+03  0.19566424718E+03  0.00000000000E+00 0.  1.
         25    2    1    2    0    0  0.26100127051E+02  0.12150618106E+02 -0.10902870750E+03  0.16840966463E+03  0.12508278030E+03 0.  0.
         23    2    1    2    0    0 -0.26100127051E+02 -0.12150618106E+02 -0.16950804341E+02  0.96939317888E+02  0.91000260617E+02 0.  0.
          5    1    3    3  502    0 -0.84514172353E+01  0.18084085290E+02  0.23583158734E+02  0.31178492105E+02  0.41800000000E+01 0. -1.
         -5    1    3    3    0  502  0.34551544286E+02 -0.59334671833E+01 -0.13261186624E+03  0.13723117252E+03  0.41800000000E+01 0. -1.
        -11    1    4    4    0    0  0.14945324127E+02 -0.12040435739E+02 -0.43849159170E+02  0.47865264712E+02  0.00000000000E+00 0.  1.
         11    1    4    4    0    0 -0.41045451178E+02 -0.11018236698E+00  0.26898354830E+02  0.49074053175E+02  0.00000000000E+00 0. -1.
</event>
<event>
 8    1  0.6635152E-009  0.1142958E+03  0.7561462E-02  0.1252815E+00
         -3   -1    0    0    0  501 -0.00000000000E+00  0.00000000000E+00  0.57571721298E+03  0.57571721298E+03  0.00000000000E+00 0.  1.
          3   -1    0    0  501    0  0.00000000000E+00 -0.00000000000E+00 -0.32572606691E+02  0.32572606691E+02  0.00000000000E+00 0. -1.
         25    2    1    2    0    0 -0.57147490330E+02  0.26355156639E+01  0.43201707950E+03  0.45338582324E+03  0.12508863314E+03 0.  0.
         23    2    1    2    0    0  0.57147490330E+02 -0.26355156639E+01  0.11112752679E+03  0.15490399643E+03  0.91504859471E+02 0.  0.
          5    1    3    3  502    0 -0.95062600828E+02 -0.10510652287E+02  0.33231355899E+03  0.34582820269E+03  0.41800000000E+01 0.  1.
         -5    1    3    3    0  502  0.37915110497E+02  0.13146167951E+02  0.99703520506E+02  0.10755762054E+03  0.41800000000E+01 0.  1.
        -11    1    4    4    0    0  0.62842401925E+02  0.22492654784E+02  0.36760133690E+02  0.76199700969E+02  0.00000000000E+00 0. -1.
         11    1    4    4    0    0 -0.56949115942E+01 -0.25128170448E+02  0.74367393101E+02  0.78704295465E+02  0.00000000000E+00 0.  1.
</event>
<event>
 8    1  0.6635152E-009  0.9374343E+02  0.7561462E-02  0.1294032E+00
         -1   -1    0    0    0  501 -0.00000000000E+00  0.00000000000E+00  0.36011425256E+03  0.36011425256E+03  0.00000000000E+00 0.  1.
          1   -1    0    0  501    0  0.00000000000E+00 -0.00000000000E+00 -0.54457443019E+02  0.54457443019E+02  0.00000000000E+00 0. -1.
         25    2    1    2    0    0  0.39789807495E+02 -0.34436746404E+02  0.60715094946E+02  0.14867273158E+03  0.12509252607E+03 0.  0.
         23    2    1    2    0    0 -0.39789807495E+02  0.34436746404E+02  0.24494171459E+03  0.26589896400E+03  0.89088142999E+02 0.  0.
          5    1    3    3  502    0 -0.23459660852E+02  0.24497549236E+02 -0.11387648779E+02  0.36022722698E+02  0.41800000000E+01 0.  1.
         -5    1    3    3    0  502  0.63249468347E+02 -0.58934295640E+02  0.72102743725E+02  0.11265000888E+03  0.41800000000E+01 0.  1.
        -11    1    4    4    0    0  0.72728132417E+01  0.13320971787E+02 -0.41095972975E+00  0.15182588373E+02  0.00000000000E+00 0. -1.
         11    1    4    4    0    0 -0.47062620737E+02  0.21115774617E+02  0.24535267432E+03  0.25071637562E+03  0.00000000000E+00 0.  1.
</event>
<event>
 8    1  0.6635152E-009  0.1315992E+03  0.7561462E-02  0.1225102E+00
          1   -1    0    0  501    0  0.00000000000E+00  0.00000000000E+00  0.35502429918E+02  0.35502429918E+02  0.00000000000E+00 0. -1.
         -1   -1    0    0    0  501 -0.00000000000E+00 -0.00000000000E+00 -0.63355574616E+03  0.63355574616E+03  0.00000000000E+00 0.  1.
         25    2    1    2    0    0 -0.90176010580E+02 -0.49363670010E+02 -0.31603717241E+03  0.35508328071E+03  0.12504462039E+03 0.  0.
         23    2    1    2    0    0  0.90176010580E+02  0.49363670010E+02 -0.28201614383E+03  0.31397489537E+03  0.92079556598E+02 0.  0.
          5    1    3    3  502    0  0.78055768362E+00  0.35114383746E+02 -0.47595668939E+02  0.59299656980E+02  0.41800000000E+01 0.  1.
         -5    1    3    3    0  502 -0.90956568264E+02 -0.84478053757E+02 -0.26844150347E+03  0.29578362373E+03  0.41800000000E+01 0.  1.
        -11    1    4    4    0    0  0.58903806425E+02  0.39134435759E+02 -0.26974057158E+03  0.27885684218E+03  0.00000000000E+00 0.  1.
         11    1    4    4    0    0  0.31272204155E+02  0.10229234252E+02 -0.12275572248E+02  0.35118053193E+02  0.00000000000E+00 0. -1.
</event>
<event>
 8    1  0.6635152E-009  0.1401088E+03  0.7561462E-02  0.1213183E+00
          2   -1    0    0  501    0  0.00000000000E+00  0.00000000000E+00  0.16632610275E+03  0.16632610275E+03  0.00000000000E+00 0. -1.
         -2   -1    0    0    0  501 -0.00000000000E+00 -0.00000000000E+00 -0.17403503512E+03  0.17403503512E+03  0.00000000000E+00 0.  1.
         25    2    1    2    0    0 -0.10435294403E+03  0.58669787129E+02 -0.51379205813E+02  0.18060708453E+03  0.12508962924E+03 0.  0.
         23    2    1    2    0    0  0.10435294403E+03 -0.58669787129E+02  0.43670273435E+02  0.15975405334E+03  0.96346167171E+02 0.  0.
          5    1    3    3  502    0 -0.12620038621E+03  0.54793699133E+02 -0.67064759534E+02  0.15311447128E+03  0.41800000000E+01 0.  1.
         -5    1    3    3    0  502  0.21847442176E+02  0.38760879968E+01  0.15685553721E+02  0.27492613251E+02  0.41800000000E+01 0.  1.
        -11    1    4    4    0    0  0.53343980014E+02 -0.25310283245E+02 -0.28272924166E+02  0.65464103771E+02  0.00000000000E+00 0.  1.
         11    1    4    4    0    0  0.51008964015E+02 -0.33359503885E+02  0.71943197601E+02  0.94289949573E+02  0.00000000000E+00 0. -1.
</event>
<event>
 8    1  0.6635152E-009  0.1030748E+03  0.7561462E-02  0.1273960E+00
          1   -1    0    0  501    0  0.00000000000E+00  0.00000000000E+00  0.66020552682E+02  0.66020552682E+02  0.00000000000E+00 0. -1.
         -1   -1    0    0    0  501 -0.00000000000E+00 -0.00000000000E+00 -0.20150983979E+03  0.20150983979E+03  0.00000000000E+00 0.  1.
         25    2    1    2    0    0 -0.24752243365E+02  0.14579093110E+02 -0.10868137721E+03  0.16818128086E+03  0.12509227783E+03 0.  0.
         23    2    1    2    0    0  0.24752243365E+02 -0.14579093110E+02 -0.26807909905E+02  0.99349111614E+02  0.91248881842E+02 0.  0.
          5    1    3    3  502    0  0.18672301199E+02 -0.42178111664E+02 -0.77092766732E+02  0.89935615960E+02  0.41800000000E+01 0.  1.
         -5    1    3    3    0  502 -0.43424544564E+02  0.56757204774E+02 -0.31588610475E+02  0.78245664903E+02  0.41800000000E+01 0.  1.
        -11    1    4    4    0    0  0.13277827926E+02 -0.49625533239E+02 -0.34232431093E+02  0.61732111597E+02  0.00000000000E+00 0.  1.
         11    1    4    4    0    0  0.11474415439E+02  0.35046440129E+02  0.74245211879E+01  0.37617000017E+02  0.00000000000E+00 0. -1.
</event>
<event>
 8    1  0.6635152E-009  0.9492124E+02  0.7561462E-02  0.1291354E+00
          2   -1    0    0  501    0  0.00000000000E+00  0.00000000000E+00  0.31753865964E+04  0.31753865964E+04  0.00000000000E+00 0. -1.
         -2   -1    0    0    0  501 -0.00000000000E+00 -0.00000000000E+00 -0.73669491935E+01  0.73669491935E+01  0.00000000000E+00 0.  1.
         25    2    1    2    0    0  0.33280940460E+02 -0.40388507211E+02  0.26834598832E+04  0.26868835688E+04  0.12509002713E+03 0.  0.
         23    2    1    2    0    0 -0.33280940460E+02  0.40388507211E+02  0.48455976394E+03  0.49586997675E+03  0.91378424715E+02 0.  0.
          5    1    3    3  502    0  0.40575776816E+02  0.24850249049E+01  0.23743167537E+04  0.23746684165E+04  0.41800000000E+01 0. -1.
         -5    1    3    3    0  502 -0.72948363559E+01 -0.42873532116E+02  0.30914312956E+03  0.31221515233E+03  0.41800000000E+01 0. -1.
        -11    1    4    4    0    0  0.23267119707E+02  0.42768805769E+02  0.21957925141E+03  0.22491237684E+03  0.00000000000E+00 0. -1.
         11    1    4    4    0    0 -0.56548060167E+02 -0.23802985575E+01  0.26498051253E+03  0.27095759991E+03  0.00000000000E+00 0.  1.
</event>
<event>
 8    1  0.6635152E-009  0.1132798E+03  0.7561462E-02  0.1254614E+00
          1   -1    0    0  501    0  0.00000000000E+00  0.00000000000E+00  0.79687554942E+02  0.79687554942E+02  0.00000000000E+00 0. -1.
         -1   -1    0    0    0  501 -0.00000000000E+00 -0.00000000000E+00 -0.20202768937E+03  0.20202768937E+03  0.00000000000E+00 0.  1.
         25    2    1    2    0    0  0.52673301768E+02 -0.14996395423E+02 -0.83534626891E+02  0.16007580131E+03  0.12508740816E+03 0.  0.
         23    2    1    2    0    0 -0.52673301768E+02  0.14996395423E+02 -0.38805507533E+02  0.12163944300E+03  0.10144416239E+03 0.  0.
          5    1    3    3  502    0  0.80276858722E+02  0.16072578579E+01 -0.11713074023E+02  0.81250389704E+02  0.41800000000E+01 0.  1.
         -5    1    3    3    0  502 -0.27603556954E+02 -0.16603653281E+02 -0.71821552868E+02  0.78825411608E+02  0.41800000000E+01 0.  1.
        -11    1    4    4    0    0  0.14955343249E+02 -0.29254798595E+02 -0.20648210286E+02  0.38805336238E+02  0.00000000000E+00 0. -1.
         11    1    4    4    0    0 -0.67628645017E+02  0.44251194019E+02 -0.18157297246E+02  0.82834106757E+02  0.00000000000E+00 0.  1.
</event>
<event>
 8    1  0.6635152E-009  0.1644079E+03  0.7561462E-02  0.1183808E+00
         -1   -1    0    0    0  501 -0.00000000000E+00  0.00000000000E+00  0.53221698602E+02  0.53221698602E+02  0.00000000000E+00 0.  1.
          1   -1    0    0  501    0  0.00000000000E+00 -0.00000000000E+00 -0.61276906845E+03  0.61276906845E+03  0.00000000000E+00 0. -1.
         25    2    1    2    0    0 -0.56396771648E+02  0.12844055994E+03 -0.35297028679E+03  0.39989189476E+03  0.12509168975E+03 0.  0.
         23    2    1    2    0    0  0.56396771648E+02 -0.12844055994E+03 -0.20657708306E+03  0.26609887230E+03  0.91961651250E+02 0.  0.
          5    1    3    3  502    0  0.35867344034E+02  0.11062896370E+02 -0.57089993438E+02  0.68451397319E+02  0.41800000000E+01 0.  1.
         -5    1    3    3    0  502 -0.92264115682E+02  0.11737766357E+03 -0.29588029335E+03  0.33144049744E+03  0.41800000000E+01 0.  1.
        -11    1    4    4    0    0  0.23460229292E+02 -0.77984965580E+02 -0.43673295297E+02  0.92408841228E+02  0.00000000000E+00 0.  1.
         11    1    4    4    0    0  0.32936542356E+02 -0.50455594364E+02 -0.16290378776E+03  0.17369003107E+03  0.00000000000E+00 0. -1.
</event>
<event>
 8    1  0.6635152E-009  0.1258670E+03  0.7561462E-02  0.1233721E+00
          1   -1    0    0  501    0  0.00000000000E+00  0.00000000000E+00  0.14177723388E+04  0.14177723388E+04  0.00000000000E+00 0. -1.
         -1   -1    0    0    0  501 -0.00000000000E+00 -0.00000000000E+00 -0.14859864147E+02  0.14859864147E+02  0.00000000000E+00 0.  1.
         25    2    1    2    0    0  0.81206742382E+02  0.20457758610E+02  0.10231065462E+04  0.10341215338E+04  0.12508911583E+03 0.  0.
         23    2    1    2    0    0 -0.81206742382E+02 -0.20457758610E+02  0.37980592838E+03  0.39851066908E+03  0.86862853030E+02 0.  0.
          5    1    3    3  502    0  0.61356160184E+02 -0.41246366152E+02  0.73820280502E+03  0.74190747055E+03  0.41800000000E+01 0.  1.
         -5    1    3    3    0  502  0.19850582198E+02  0.61704124762E+02  0.28490374123E+03  0.29221406330E+03  0.41800000000E+01 0.  1.
        -11    1    4    4    0    0 -0.53226374438E+01  0.24134929674E+02  0.36350106455E+02  0.43956291233E+02  0.00000000000E+00 0.  1.
         11    1    4    4    0    0 -0.75884104938E+02 -0.44592688284E+02  0.34345582193E+03  0.35455437784E+03  0.00000000000E+00 0. -1.
</event>
<event>
 8    1  0.6635152E-009  0.1183224E+03  0.7561462E-02  0.1245891E+00
         -1   -1    0    0    0  501 -0.00000000000E+00  0.00000000000E+00  0.26005669293E+02  0.26005669293E+02  0.00000000000E+00 0.  1.
          1   -1    0    0  501    0  0.00000000000E+00 -0.00000000000E+00 -0.67153061130E+03  0.67153061130E+03  0.00000000000E+00 0. -1.
         25    2    1    2    0    0 -0.70682706625E+02 -0.22138488680E+02 -0.38206830823E+03  0.40879140199E+03  0.12509220796E+03 0.  0.
         23    2    1    2    0    0  0.70682706625E+02  0.22138488680E+02 -0.26345663377E+03  0.28874487859E+03  0.92076323446E+02 0.  0.
          5    1    3    3  502    0  0.34869959711E+01 -0.42150335409E+02 -0.40645471239E+02  0.58807624066E+02  0.41800000000E+01 0. -1.
         -5    1    3    3    0  502 -0.74169702597E+02  0.20011846729E+02 -0.34142283699E+03  0.34998377793E+03  0.41800000000E+01 0. -1.
        -11    1    4    4    0    0  0.26465455085E+02  0.55719507350E+02 -0.15689555229E+03  0.16858617423E+03  0.00000000000E+00 0.  1.
         11    1    4    4    0    0  0.44217251540E+02 -0.33581018669E+02 -0.10656108148E+03  0.12015870437E+03  0.00000000000E+00 0. -1.
</event>
<event>
 8    1  0.6635152E-009  0.1629207E+03  0.7561462E-02  0.1185438E+00
          2   -1    0    0  501    0  0.00000000000E+00  0.00000000000E+00  0.42475960741E+02  0.42475960741E+02  0.00000000000E+00 0. -1.
         -2   -1    0    0    0  501 -0.00000000000E+00 -0.00000000000E+00 -0.81558192703E+03  0.81558192703E+03  0.00000000000E+00 0.  1.
         25    2    1    2    0    0 -0.81822470523E+02 -0.11677121885E+03 -0.29362649186E+03  0.34956380018E+03  0.12509156422E+03 0.  0.
         23    2    1    2    0    0  0.81822470523E+02  0.11677121885E+03 -0.47947947443E+03  0.50849408759E+03  0.91297516313E+02 0.  0.
          5    1    3    3  502    0 -0.14121886546E+02  0.65078725573E+01  0.70617879059E+01  0.17581846697E+02  0.41800000000E+01 0. -1.
         -5    1    3    3    0  502 -0.67700583978E+02 -0.12327909141E+03 -0.30068827976E+03  0.33198195348E+03  0.41800000000E+01 0. -1.
        -11    1    4    4    0    0  0.64280710109E+02  0.15326564019E+02 -0.20180039520E+03  0.21234479688E+03  0.00000000000E+00 0.  1.
         11    1    4    4    0    0  0.17541760415E+02  0.10144465483E+03 -0.27767907923E+03  0.29614929072E+03  0.00000000000E+00 0. -1.
</event>
<event>
 8    1  0.6635152E-009  0.1675247E+03  0.7561462E-02  0.1180454E+00
         -2   -1    0    0    0  501 -0.00000000000E+00  0.00000000000E+00  0.15145096159E+03  0.15145096159E+03  0.00000000000E+00 0. -1.
          2   -1    0    0  501    0  0.00000000000E+00 -0.00000000000E+00 -0.19845321940E+03  0.19845321940E+03  0.00000000000E+00 0.  1.
         25    2    1    2    0    0  0.71736198604E+02 -0.10952901016E+03  0.10117287192E+02  0.18136599829E+03  0.12509428276E+03 0.  0.
         23    2    1    2    0    0 -0.71736198604E+02  0.10952901016E+03 -0.57119545001E+02  0.16853818269E+03  0.89441547101E+02 0.  0.
          5    1    3    3  502    0  0.10510019052E+03 -0.60229144094E+02  0.27497514675E+01  0.12123792055E+03  0.41800000000E+01 0. -1.
         -5    1    3    3    0  502 -0.33363991914E+02 -0.49299866065E+02  0.73675357247E+01  0.60128077744E+02  0.41800000000E+01 0. -1.
        -11    1    4    4    0    0 -0.37422479342E+02 -0.20035750813E+01  0.23825589468E+01  0.37551735783E+02  0.00000000000E+00 0.  1.
         11    1    4    4    0    0 -0.34313719263E+02  0.11153258524E+03 -0.59502103948E+02  0.13098644691E+03  0.00000000000E+00 0. -1.
</event>
<event>
 8    1  0.6635152E-009  0.1052961E+03  0.7561462E-02  0.1269537E+00
         -1   -1    0    0    0  501 -0.00000000000E+00  0.00000000000E+00  0.39570196212E+02  0.39570196212E+02  0.00000000000E+00 0.  1.
          1   -1    0    0  501    0  0.00000000000E+00 -0.00000000000E+00 -0.45793032956E+03  0.45793032956E+03  0.00000000000E+00 0. -1.
         25    2    1    2    0    0 -0.53467120028E+02  0.48249616000E+02 -0.16865585976E+03  0.22199183888E+03  0.12509524024E+03 0.  0.
         23    2    1    2    0    0  0.53467120028E+02 -0.48249616000E+02 -0.24970427359E+03  0.27550868690E+03  0.91466135467E+02 0.  0.
          5    1    3    3  502    0  0.26967164566E+02  0.39068515950E+02 -0.11578788524E+03  0.12521135600E+03  0.41800000000E+01 0.  1.
         -5    1    3    3    0  502 -0.80434284594E+02  0.91811000504E+01 -0.52867974519E+02  0.96780482878E+02  0.41800000000E+01 0.  1.
        -11    1    4    4    0    0 -0.41134292873E+01 -0.14625793474E+02  0.18147915580E+01  0.15301228828E+02  0.00000000000E+00 0.  1.
         11    1    4    4    0    0  0.57580549315E+02 -0.33623822526E+02 -0.25151906515E+03  0.26020745807E+03  0.00000000000E+00 0. -1.
</event>
<event>
 8    1  0.6635152E-009  0.1481145E+03  0.7561462E-02  0.1202809E+00
          1   -1    0    0  501    0  0.00000000000E+00  0.00000000000E+00  0.12225594372E+04  0.12225594372E+04  0.00000000000E+00 0. -1.
         -1   -1    0    0    0  501 -0.00000000000E+00 -0.00000000000E+00 -0.22127111011E+02  0.22127111011E+02  0.00000000000E+00 0.  1.
         25    2    1    2    0    0  0.10614337285E+03 -0.84965126136E+01  0.82737691373E+03  0.84352740336E+03  0.12508923425E+03 0.  0.
         23    2    1    2    0    0 -0.10614337285E+03  0.84965126136E+01  0.37305541248E+03  0.40115914487E+03  0.10207699252E+03 0.  0.
          5    1    3    3  502    0  0.33318372498E+02  0.52729237179E+02  0.21922259877E+03  0.22796163408E+03  0.41800000000E+01 0. -1.
         -5    1    3    3    0  502  0.72825000353E+02 -0.61225749793E+02  0.60815431496E+03  0.61556576928E+03  0.41800000000E+01 0. -1.
        -11    1    4    4    0    0  0.12463591621E+01 -0.25736904553E+02  0.13911608335E+03  0.14148224734E+03  0.00000000000E+00 0. -1.
         11    1    4    4    0    0 -0.10738973201E+03  0.34233417167E+02  0.23393932913E+03  0.25967689752E+03  0.00000000000E+00 0.  1.
</event>
<event>
 8    1  0.6635152E-009  0.1040508E+03  0.7561462E-02  0.1272001E+00
         -1   -1    0    0    0  501 -0.00000000000E+00  0.00000000000E+00  0.19325711098E+02  0.19325711098E+02  0.00000000000E+00 0.  1.
          1   -1    0    0  501    0  0.00000000000E+00 -0.00000000000E+00 -0.63824390651E+03  0.63824390651E+03  0.00000000000E+00 0. -1.
         25    2    1    2    0    0  0.60039847036E+01 -0.81247276472E+01 -0.41684788047E+03  0.43532956958E+03  0.12509044594E+03 0.  0.
         23    2    1    2    0    0 -0.60039847036E+01  0.81247276472E+01 -0.20207031494E+03  0.22224004802E+03  0.91957423494E+02 0.  0.
          5    1    3    3  502    0 -0.43023731202E+02 -0.42467379209E+02 -0.14916667563E+03  0.16100524607E+03  0.41800000000E+01 0. -1.
         -5    1    3    3    0  502  0.49027715906E+02  0.34342651562E+02 -0.26768120484E+03  0.27432432351E+03  0.41800000000E+01 0. -1.
        -11    1    4    4    0    0  0.21038430226E+02 -0.32489339092E+02 -0.54754721453E+02  0.67054099222E+02  0.00000000000E+00 0.  1.
         11    1    4    4    0    0 -0.27042414930E+02  0.40614066740E+02 -0.14731559348E+03  0.15518594880E+03  0.00000000000E+00 0. -1.
</event>
<event>
 8    1  0.6635152E-009  0.1000715E+03  0.7561462E-02  0.1280146E+00
          4   -1    0    0  501    0  0.00000000000E+00  0.00000000000E+00  0.55171776966E+02  0.55171776966E+02  0.00000000000E+00 0. -1.
         -4   -1    0    0    0  501 -0.00000000000E+00 -0.00000000000E+00 -0.32062104411E+03  0.32062104411E+03  0.00000000000E+00 0.  1.
         25    2    1    2    0    0  0.21736755152E+02 -0.45490820554E+02 -0.22743527166E+03  0.26443167238E+03  0.12512156201E+03 0.  0.
         23    2    1    2    0    0 -0.21736755152E+02  0.45490820554E+02 -0.38013995484E+02  0.11136114870E+03  0.91729713334E+02 0.  0.
          5    1    3    3  502    0  0.38598908508E+02  0.83542711282E+01 -0.19543836799E+03  0.19943243885E+03  0.41800000000E+01 0. -1.
         -5    1    3    3    0  502 -0.16862153356E+02 -0.53845091682E+02 -0.31996903672E+02  0.64999233523E+02  0.41800000000E+01 0. -1.
        -11    1    4    4    0    0 -0.41020189846E+02 -0.12383973099E+02 -0.22588827891E+02  0.48438351646E+02  0.00000000000E+00 0. -1.
         11    1    4    4    0    0  0.19283434694E+02  0.57874793653E+02 -0.15425167593E+02  0.62922797055E+02  0.00000000000E+00 0.  1.
</event>
<event>
 8    1  0.6635152E-009  0.1753312E+03  0.7561462E-02  0.1172400E+00
         -2   -1    0    0    0  501 -0.00000000000E+00  0.00000000000E+00  0.38378337972E+03  0.38378337972E+03  0.00000000000E+00 0.  1.
          2   -1    0    0  501    0  0.00000000000E+00 -0.00000000000E+00 -0.90467172825E+02  0.90467172825E+02  0.00000000000E+00 0. -1.
         25    2    1    2    0    0 -0.14892982214E+03  0.21605890596E+02  0.14569399150E+03  0.24396906460E+03  0.12508900387E+03 0.  0.
         23    2    1    2    0    0  0.14892982214E+03 -0.21605890596E+02  0.14762221539E+03  0.23028148795E+03  0.92684080524E+02 0.  0.
          5    1    3    3  502    0 -0.12347858966E+03  0.55212962253E+02  0.59300544556E+02  0.14774796205E+03  0.41800000000E+01 0.  1.
         -5    1    3    3    0  502 -0.25451232477E+02 -0.33607071657E+02  0.86393446946E+02  0.96221102546E+02  0.41800000000E+01 0.  1.
        -11    1    4    4    0    0  0.11884914949E+03 -0.52433652090E+02  0.12989568097E+03  0.18370437159E+03  0.00000000000E+00 0.  1.
         11    1    4    4    0    0  0.30080672649E+02  0.30827761494E+02  0.17726534428E+02  0.46577116361E+02  0.00000000000E+00 0. -1.
</event>
<event>
 8    1  0.6635152E-009  0.3253394E+03  0.7561462E-02  0.1073218E+00
          2   -1    0    0  501    0  0.00000000000E+00  0.00000000000E+00  0.38490187998E+03  0.38490187998E+03  0.00000000000E+00 0.  1.
         -2   -1    0    0    0  501 -0.00000000000E+00 -0.00000000000E+00 -0.36486641293E+03  0.36486641293E+03  0.00000000000E+00 0. -1.
         25    2    1    2    0    0 -0.80582875217E+02  0.30362402604E+03 -0.16257912510E+03  0.37518242655E+03  0.12509489322E+03 0.  0.
         23    2    1    2    0    0  0.80582875217E+02 -0.30362402604E+03  0.18261459215E+03  0.37458586636E+03  0.91023804833E+02 0.  0.
          5    1    3    3  502    0 -0.37688199005E+02  0.94598786272E+01 -0.31803470173E+02  0.50386732013E+02  0.41800000000E+01 0.  1.
         -5    1    3    3    0  502 -0.42894676211E+02  0.29416414741E+03 -0.13077565492E+03  0.32479569453E+03  0.41800000000E+01 0.  1.
        -11    1    4    4    0    0  0.41318032217E+02 -0.17485811711E+03  0.15471442903E+03  0.23710566306E+03  0.00000000000E+00 0.  1.
         11    1    4    4    0    0  0.39264842999E+02 -0.12876590892E+03  0.27900163119E+02  0.13748020330E+03  0.00000000000E+00 0. -1.
</event>
<event>
 8    1  0.6635152E-009  0.3115075E+03  0.7561462E-02  0.1079626E+00
          2   -1    0    0  501    0  0.00000000000E+00  0.00000000000E+00  0.24427094783E+04  0.24427094783E+04  0.00000000000E+00 0. -1.
         -2   -1    0    0    0  501 -0.00000000000E+00 -0.00000000000E+00 -0.64109767355E+02  0.64109767355E+02  0.00000000000E+00 0.  1.
         25    2    1    2    0    0  0.30527566073E+03  0.10371907575E+02  0.19210192287E+04  0.19491698722E+04  0.12509000006E+03 0.  0.
         23    2    1    2    0    0 -0.30527566073E+03 -0.10371907575E+02  0.45758048229E+03  0.55764937351E+03  0.91061081146E+02 0.  0.
          5    1    3    3  502    0  0.27004995146E+01  0.50777455218E+01  0.35207193331E+01  0.79337293775E+01  0.41800000000E+01 0. -1.
         -5    1    3    3    0  502  0.30257516122E+03  0.52941620534E+01  0.19174985093E+04  0.19412361428E+04  0.41800000000E+01 0. -1.
        -11    1    4    4    0    0 -0.25191195247E+03  0.18483732693E+02  0.40529203473E+03  0.47755932991E+03  0.00000000000E+00 0. -1.
         11    1    4    4    0    0 -0.53363708266E+02 -0.28855640268E+02  0.52288447560E+02  0.80090043598E+02  0.00000000000E+00 0.  1.
</event>
<event>
 8    1  0.6635152E-009  0.1306495E+03  0.7561462E-02  0.1226495E+00
          1   -1    0    0  501    0  0.00000000000E+00  0.00000000000E+00  0.38097298594E+03  0.38097298594E+03  0.00000000000E+00 0. -1.
         -1   -1    0    0    0  501 -0.00000000000E+00 -0.00000000000E+00 -0.70766002979E+02  0.70766002979E+02  0.00000000000E+00 0.  1.
         25    2    1    2    0    0 -0.11981220764E+03 -0.27494881664E+01  0.12551679348E+03  0.21392595498E+03  0.12508926406E+03 0.  0.
         23    2    1    2    0    0  0.11981220764E+03  0.27494881664E+01  0.18469018948E+03  0.23781303394E+03  0.89900212656E+02 0.  0.
          5    1    3    3  502    0 -0.17656895010E+02 -0.27870655357E+02  0.10029522850E+03  0.10566524798E+03  0.41800000000E+01 0. -1.
         -5    1    3    3    0  502 -0.10215531263E+03  0.25121167191E+02  0.25221564985E+02  0.10826070700E+03  0.41800000000E+01 0. -1.
        -11    1    4    4    0    0  0.52599097761E+02 -0.11994395803E+02  0.15265997310E+03  0.16191231579E+03  0.00000000000E+00 0.  1.
         11    1    4    4    0    0  0.67213109882E+02  0.14743883970E+02  0.32030216375E+02  0.75900718149E+02  0.00000000000E+00 0. -1.
</event>
<event>
 8    1  0.6635152E-009  0.8260491E+02  0.7561462E-02  0.1321817E+00
          2   -1    0    0  501    0  0.00000000000E+00  0.00000000000E+00  0.82714660098E+02  0.82714660098E+02  0.00000000000E+00 0. -1.
         -2   -1    0    0    0  501 -0.00000000000E+00 -0.00000000000E+00 -0.16077033875E+03  0.16077033875E+03  0.00000000000E+00 0.  1.
         25    2    1    2    0    0 -0.15243530776E+02  0.12714241157E+01 -0.77761186963E+01  0.12626427873E+03  0.12509283877E+03 0.  0.
         23    2    1    2    0    0  0.15243530776E+02 -0.12714241157E+01 -0.70279559952E+02  0.11722072011E+03  0.92560785040E+02 0.  0.
          5    1    3    3  502    0  0.50448158328E+01 -0.58077698127E+02  0.13345600472E+02  0.59950368126E+02  0.41800000000E+01 0. -1.
         -5    1    3    3    0  502 -0.20288346609E+02  0.59349122242E+02 -0.21121719168E+02  0.66313910604E+02  0.41800000000E+01 0. -1.
        -11    1    4    4    0    0 -0.11560194677E+01 -0.19413488661E+02 -0.85984598959E+02  0.88156515250E+02  0.00000000000E+00 0.  1.
         11    1    4    4    0    0  0.16399550244E+02  0.18142064545E+02  0.15705039007E+02  0.29064204864E+02  0.00000000000E+00 0. -1.
</event>
<event>
 8    1  0.6635152E-009  0.1454826E+03  0.7561462E-02  0.1206136E+00
          2   -1    0    0  501    0  0.00000000000E+00  0.00000000000E+00  0.32104332319E+03  0.32104332319E+03  0.00000000000E+00 0. -1.
         -2   -1    0    0    0  501 -0.00000000000E+00 -0.00000000000E+00 -0.70268141802E+02  0.70268141802E+02  0.00000000000E+00 0.  1.
         25    2    1    2    0    0 -0.75067718008E+02 -0.70804189469E+02  0.12217523582E+03  0.20303105157E+03  0.12508566713E+03 0.  0.
         23    2    1    2    0    0  0.75067718008E+02  0.70804189469E+02  0.12859994557E+03  0.18828041343E+03  0.90901994179E+02 0.  0.
          5    1    3    3  502    0 -0.30264350261E+00 -0.78265282339E+02  0.29723684883E+02  0.83824315420E+02  0.41800000000E+01 0.  1.
         -5    1    3    3    0  502 -0.74765074506E+02  0.74610928700E+01  0.92451550935E+02  0.11920673615E+03  0.41800000000E+01 0.  1.
        -11    1    4    4    0    0  0.39341654133E+02 -0.16760387190E+02  0.44618487644E+02  0.61801988385E+02  0.00000000000E+00 0.  1.
         11    1    4    4    0    0  0.35726063875E+02  0.87564576658E+02  0.83981457927E+02  0.12647842504E+03  0.00000000000E+00 0. -1.
</event>
<event>
 7    1  0.6635152E-009  0.1632901E+03  0.7561462E-02  0.1185032E+00
         -1   -1    0    0    0  501 -0.00000000000E+00  0.00000000000E+00  0.33533448771E+03  0.33533448771E+03  0.00000000000E+00 0.  1.
          1   -1    0    0  501    0  0.00000000000E+00 -0.00000000000E+00 -0.92651040355E+02  0.92651040355E+02  0.00000000000E+00 0. -1.
         23    2    1    2    0    0  0.11927056850E+03 -0.40105500142E+02  0.47468928724E+02  0.16430508451E+03  0.94387191656E+02 0.  0.
          5    1    1    2  502    0 -0.12695517607E+03 -0.25193406398E+01  0.11022415489E+03  0.16819869360E+03  0.41800000000E+01 0. -1.
         -5    1    1    2    0  502  0.76846075658E+01  0.42624840782E+02  0.84990363750E+02  0.95481749961E+02  0.41800000000E+01 0. -1.
        -11    1    3    3    0    0  0.48267573418E+02  0.29515724149E+02  0.72535092565E+01  0.57039898425E+02  0.00000000000E+00 0.  1.
         11    1    3    3    0    0  0.71002995086E+02 -0.69621224292E+02  0.40215419467E+02  0.10726518609E+03  0.00000000000E+00 0. -1.
</event>
<event>
 8    1  0.6635152E-009  0.1093192E+03  0.7561462E-02  0.1261836E+00
         -2   -1    0    0    0  501 -0.00000000000E+00  0.00000000000E+00  0.94250226735E+02  0.94250226735E+02  0.00000000000E+00 0.  1.
          2   -1    0    0  501    0  0.00000000000E+00 -0.00000000000E+00 -0.16045437694E+03  0.16045437694E+03  0.00000000000E+00 0. -1.
         25    2    1    2    0    0  0.12471910947E+01 -0.93043358051E+01  0.20059461192E+02  0.12703544736E+03  0.12508995464E+03 0.  0.
         23    2    1    2    0    0 -0.12471910947E+01  0.93043358051E+01 -0.86263611400E+02  0.12766915632E+03  0.93647619687E+02 0.  0.
          5    1    3    3  502    0  0.79991813269E+00 -0.66847247003E+02  0.17742909136E+02  0.69292694604E+02  0.41800000000E+01 0. -1.
         -5    1    3    3    0  502  0.44727296200E+00  0.57542911198E+02  0.23165520553E+01  0.57742752754E+02  0.41800000000E+01 0. -1.
        -11    1    4    4    0    0  0.45921257281E+02  0.89745406130E+01 -0.39268358650E+02  0.61084435338E+02  0.00000000000E+00 0.  1.
         11    1    4    4    0    0 -0.47168448376E+02  0.32979519204E+00 -0.46995252750E+02  0.66584720981E+02  0.00000000000E+00 0. -1.
</event>
<event>
 8    1  0.6635152E-009  0.1164181E+03  0.7561462E-02  0.1249126E+00
          2   -1    0    0  501    0  0.00000000000E+00  0.00000000000E+00  0.47006305814E+03  0.47006305814E+03  0.00000000000E+00 0.  1.
         -2   -1    0    0    0  501 -0.00000000000E+00 -0.00000000000E+00 -0.51841283892E+02  0.51841283892E+02  0.00000000000E+00 0. -1.
         25    2    1    2    0    0  0.69888070384E+02  0.19159956614E+01  0.76631549746E+02  0.16250323994E+03  0.12508754995E+03 0.  0.
         23    2    1    2    0    0 -0.69888070384E+02 -0.19159956614E+01  0.34159022450E+03  0.35940110210E+03  0.87162246922E+02 0.  0.
          5    1    3    3  502    0  0.10574873030E+03  0.99874269239E+01  0.57367436744E+02  0.12079336842E+03  0.41800000000E+01 0. -1.
         -5    1    3    3    0  502 -0.35860659915E+02 -0.80714312625E+01  0.19264113002E+02  0.41709871516E+02  0.41800000000E+01 0. -1.
        -11    1    4    4    0    0  0.73289633211E+01 -0.94470413493E+01  0.34067823494E+01  0.12432476004E+02  0.00000000000E+00 0. -1.
         11    1    4    4    0    0 -0.77217033705E+02  0.75310456879E+01  0.33818344216E+03  0.34696862609E+03  0.00000000000E+00 0.  1.
</event>
<event>
 8    1  0.6635152E-009  0.1081451E+03  0.7561462E-02  0.1264044E+00
          2   -1    0    0  501    0  0.00000000000E+00  0.00000000000E+00  0.44876424899E+03  0.44876424899E+03  0.00000000000E+00 0. -1.
         -2   -1    0    0    0  501 -0.00000000000E+00 -0.00000000000E+00 -0.14595293195E+03  0.14595293195E+03  0.00000000000E+00 0.  1.
         25    2    1    2    0    0  0.45836594034E+02  0.43206051826E+02  0.41452749345E+03  0.43754781399E+03  0.12508912997E+03 0.  0.
         23    2    1    2    0    0 -0.45836594034E+02 -0.43206051826E+02 -0.11171617642E+03  0.15716936694E+03  0.90851249663E+02 0.  0.
          5    1    3    3  502    0 -0.38466291845E+02 -0.83146535043E+01  0.15026120059E+03  0.15538561669E+03  0.41800000000E+01 0. -1.
         -5    1    3    3    0  502  0.84302885879E+02  0.51520705331E+02  0.26426629286E+03  0.28216219730E+03  0.41800000000E+01 0. -1.
        -11    1    4    4    0    0 -0.53591400988E+02 -0.27330920613E+02 -0.19446372269E+02  0.63223246325E+02  0.00000000000E+00 0. -1.
         11    1    4    4    0    0  0.77548069541E+01 -0.15875131214E+02 -0.92269804148E+02  0.93946120619E+02  0.00000000000E+00 0.  1.
</event>
<event>
 8    1  0.6635152E-009  0.1292879E+03  0.7561462E-02  0.1228516E+00
          1   -1    0    0  501    0  0.00000000000E+00  0.00000000000E+00  0.86935596513E+03  0.86935596513E+03  0.00000000000E+00 0. -1.
         -1   -1    0    0    0  501 -0.00000000000E+00 -0.00000000000E+00 -0.19634005123E+02  0.19634005123E+02  0.00000000000E+00 0.  1.
         25    2    1    2    0    0 -0.38818241791E+02  0.61960569880E+02  0.43943100806E+03  0.46270674569E+03  0.12510776771E+03 0.  0.
         23    2    1    2    0    0  0.38818241791E+02 -0.61960569880E+02  0.41029095195E+03  0.42628322457E+03  0.89625633521E+02 0.  0.
          5    1    3    3  502    0 -0.23120927480E+02 -0.36618062296E+02  0.16556726850E+03  0.17118835408E+03  0.41800000000E+01 0. -1.
         -5    1    3    3    0  502 -0.15697314311E+02  0.98578632176E+02  0.27386373956E+03  0.29151839160E+03  0.41800000000E+01 0. -1.
        -11    1    4    4    0    0 -0.19871465993E+01  0.21851719971E+02  0.63590171772E+02  0.67269282464E+02  0.00000000000E+00 0.  1.
         11    1    4    4    0    0  0.40805388390E+02 -0.83812289851E+02  0.34670078018E+03  0.35901394211E+03  0.00000000000E+00 0. -1.
</event>
<event>
 8    1  0.6635152E-009  0.1309062E+03  0.7561462E-02  0.1226117E+00
         -2   -1    0    0    0  501 -0.00000000000E+00  0.00000000000E+00  0.97455340692E+02  0.97455340692E+02  0.00000000000E+00 0.  1.
          2   -1    0    0  501    0  0.00000000000E+00 -0.00000000000E+00 -0.19487963221E+03  0.19487963221E+03  0.00000000000E+00 0. -1.
         25    2    1    2    0    0  0.51995749507E+02 -0.51238500361E+02 -0.80220021290E+01  0.14505469066E+03  0.12509024294E+03 0.  0.
         23    2    1    2    0    0 -0.51995749507E+02  0.51238500361E+02 -0.89402289387E+02  0.14728028224E+03  0.91486448742E+02 0.  0.
          5    1    3    3  502    0  0.43306401124E+02  0.36350454155E+02 -0.19633790796E+01  0.56728539141E+02  0.41800000000E+01 0. -1.
         -5    1    3    3    0  502  0.86893483828E+01 -0.87588954517E+02 -0.60586230493E+01  0.88326151517E+02  0.41800000000E+01 0. -1.
        -11    1    4    4    0    0 -0.50469230883E+02 -0.13499778957E+02 -0.37969955834E+02  0.64584091260E+02  0.00000000000E+00 0.  1.
         11    1    4    4    0    0 -0.15265186243E+01  0.64738279318E+02 -0.51432333553E+02  0.82696190982E+02  0.00000000000E+00 0. -1.
</event>
<event>
 8    1  0.6635152E-009  0.3060195E+03  0.7561462E-02  0.1082270E+00
          1   -1    0    0  501    0  0.00000000000E+00  0.00000000000E+00  0.57772578731E+03  0.57772578731E+03  0.00000000000E+00 0. -1.
         -1   -1    0    0    0  501 -0.00000000000E+00 -0.00000000000E+00 -0.18710400067E+03  0.18710400067E+03  0.00000000000E+00 0.  1.
         25    2    1    2    0    0  0.12207102890E+03 -0.26077104355E+03  0.33262989069E+03  0.45737903507E+03  0.12510021698E+03 0.  0.
         23    2    1    2    0    0 -0.12207102890E+03  0.26077104355E+03  0.57991895941E+02  0.30745075291E+03  0.90884719378E+02 0.  0.
          5    1    3    3  502    0  0.12164155810E+03 -0.12493302716E+03  0.22079811576E+03  0.28137912192E+03  0.41800000000E+01 0. -1.
         -5    1    3    3    0  502  0.42947080262E+00 -0.13583801640E+03  0.11183177493E+03  0.17599991315E+03  0.41800000000E+01 0. -1.
        -11    1    4    4    0    0 -0.10873931455E+03  0.12661934578E+03  0.26292239049E+02  0.16896147220E+03  0.00000000000E+00 0. -1.
         11    1    4    4    0    0 -0.13331714350E+02  0.13415169778E+03  0.31699656892E+02  0.13848928071E+03  0.00000000000E+00 0.  1.
</event>
<event>
 8    1  0.6635152E-009  0.9007768E+02  0.7561462E-02  0.1302664E+00
         -1   -1    0    0    0  501 -0.00000000000E+00  0.00000000000E+00  0.93499855040E+02  0.93499855040E+02  0.00000000000E+00 0.  1.
          1   -1    0    0  501    0  0.00000000000E+00 -0.00000000000E+00 -0.19627379024E+03  0.19627379024E+03  0.00000000000E+00 0. -1.
         25    2    1    2    0    0 -0.42638486984E+02  0.45931908220E+02 -0.26848493339E+00  0.13989937068E+03  0.12507590122E+03 0.  0.
         23    2    1    2    0    0  0.42638486984E+02 -0.45931908220E+02 -0.10250545027E+03  0.14987427460E+03  0.89594364153E+02 0.  0.
          5    1    3    3  502    0 -0.38021536178E+02  0.75471612702E+01  0.57976204569E+02  0.69866369255E+02  0.41800000000E+01 0. -1.
         -5    1    3    3    0  502 -0.46169508058E+01  0.38384746950E+02 -0.58244689503E+02  0.70033001424E+02  0.41800000000E+01 0. -1.
        -11    1    4    4    0    0 -0.17929658846E+02  0.93990590465E+01 -0.23050240274E+01  0.20374692956E+02  0.00000000000E+00 0.  1.
         11    1    4    4    0    0  0.60568145829E+02 -0.55330967267E+02 -0.10020042624E+03  0.12949958165E+03  0.00000000000E+00 0. -1.
</event>
<event>
 8    1  0.6635152E-009  0.1239902E+03  0.7561462E-02  0.1236656E+00
          2   -1    0    0  501    0  0.00000000000E+00  0.00000000000E+00  0.70105402153E+03  0.70105402153E+03  0.00000000000E+00 0. -1.
         -2   -1    0    0    0  501 -0.00000000000E+00 -0.00000000000E+00 -0.28245303499E+02  0.28245303499E+02  0.00000000000E+00 0.  1.
         25    2    1    2    0    0 -0.61225694296E+02 -0.28405533973E+02  0.21522453585E+03  0.25792365190E+03  0.12509016498E+03 0.  0.
         23    2    1    2    0    0  0.61225694296E+02  0.28405533973E+02  0.45758418218E+03  0.47137567312E+03  0.90864082193E+02 0.  0.
          5    1    3    3  502    0  0.36314569966E+02  0.46668189873E+01  0.78278776339E+02  0.86519167913E+02  0.41800000000E+01 0. -1.
         -5    1    3    3    0  502 -0.97540264262E+02 -0.33072352960E+02  0.13694575951E+03  0.17140448399E+03  0.41800000000E+01 0. -1.
        -11    1    4    4    0    0  0.13364128425E+02 -0.29820184305E+02  0.81386967058E+02  0.87702233310E+02  0.00000000000E+00 0.  1.
         11    1    4    4    0    0  0.47861565871E+02  0.58225718277E+02  0.37619721512E+03  0.38367343981E+03  0.00000000000E+00 0. -1.
</event>
<event>
 8    1  0.6635152E-009  0.1207841E+03  0.7561462E-02  0.1241809E+00
         -3   -1    0    0    0  501 -0.00000000000E+00  0.00000000000E+00  0.94841269687E+02  0.94841269687E+02  0.00000000000E+00 0.  1.
          3   -1    0    0  501    0  0.00000000000E+00 -0.00000000000E+00 -0.17982465274E+03  0.17982465274E+03  0.00000000000E+00 0. -1.
         25    2    1    2    0    0 -0.37948290427E+02 -0.49626425202E+02 -0.87693819112E+02  0.16504938533E+03  0.12509292092E+03 0.  0.
         23    2    1    2    0    0  0.37948290427E+02  0.49626425202E+02  0.27104360621E+01  0.10961653709E+03  0.90031016409E+02 0.  0.
          5    1    3    3  502    0 -0.39885236159E+02  0.35524217457E+02 -0.24499776701E+02  0.58911064731E+02  0.41800000000E+01 0.  1.
         -5    1    3    3    0  502  0.19369457321E+01 -0.85150642659E+02 -0.63194042412E+02  0.10613832060E+03  0.41800000000E+01 0.  1.
        -11    1    4    4    0    0  0.64239122872E+01 -0.22821620372E+02 -0.15770236403E+02  0.28474433475E+02  0.00000000000E+00 0. -1.
         11    1    4    4    0    0  0.31524378140E+02  0.72448045574E+02  0.18480672465E+02  0.81142103617E+02  0.00000000000E+00 0.  1.
</event>
<event>
 8    1  0.6635152E-009  0.1166649E+03  0.7561462E-02  0.1248703E+00
          2   -1    0    0  501    0  0.00000000000E+00  0.00000000000E+00  0.32912504360E+03  0.32912504360E+03  0.00000000000E+00 0.  1.
         -2   -1    0    0    0  501 -0.00000000000E+00 -0.00000000000E+00 -0.51392601651E+02  0.51392601651E+02  0.00000000000E+00 0. -1.
         25    2    1    2    0    0  0.11902197422E+02  0.55426623967E+02  0.10478331887E+03  0.17272654864E+03  0.12506455831E+03 0.  0.
         23    2    1    2    0    0 -0.11902197422E+02 -0.55426623967E+02  0.17294912308E+03  0.20779109661E+03  0.10025950183E+03 0.  0.
          5    1    3    3  502    0 -0.20773224981E+02  0.76315953145E+02  0.23576960160E+02  0.82637745800E+02  0.41800000000E+01 0.  1.
         -5    1    3    3    0  502  0.32675422403E+02 -0.20889329177E+02  0.81206358708E+02  0.90088802841E+02  0.41800000000E+01 0.  1.
        -11    1    4    4    0    0  0.27349725779E+02  0.17381280530E+02  0.45783878264E+02  0.56091709922E+02  0.00000000000E+00 0.  1.
         11    1    4    4    0    0 -0.39251923201E+02 -0.72807904498E+02  0.12716524481E+03  0.15169938668E+03  0.00000000000E+00 0. -1.
</event>
<event>
 8    1  0.6635152E-009  0.7908052E+02  0.7561462E-02  0.1331681E+00
         -3   -1    0    0    0  501 -0.00000000000E+00  0.00000000000E+00  0.42251104272E+02  0.42251104272E+02  0.00000000000E+00 0.  1.
          3   -1    0    0  501    0  0.00000000000E+00 -0.00000000000E+00 -0.31659324639E+03  0.31659324639E+03  0.00000000000E+00 0. -1.
         25    2    1    2    0    0  0.22439698721E+02  0.20245376308E+02 -0.21031311304E+03  0.24656219556E+03  0.12509154816E+03 0.  0.
         23    2    1    2    0    0 -0.22439698721E+02 -0.20245376308E+02 -0.64029029086E+02  0.11228215511E+03  0.87144422941E+02 0.  0.
          5    1    3    3  502    0 -0.28392945651E+02  0.31447696189E+02 -0.18249411054E+03  0.18739447628E+03  0.41800000000E+01 0.  1.
         -5    1    3    3    0  502  0.50832644372E+02 -0.11202319881E+02 -0.27819002497E+02  0.59167719278E+02  0.41800000000E+01 0.  1.
        -11    1    4    4    0    0  0.18404931629E+02 -0.11158611962E+02  0.12623788168E+02  0.24952277589E+02  0.00000000000E+00 0.  1.
         11    1    4    4    0    0 -0.40844630350E+02 -0.90867643462E+01 -0.76652817254E+02  0.87329877520E+02  0.00000000000E+00 0. -1.
</event>
<event>
 8    1  0.6635152E-009  0.1329222E+03  0.7561462E-02  0.1223183E+00
         -2   -1    0    0    0  501 -0.00000000000E+00  0.00000000000E+00  0.32096791507E+03  0.32096791507E+03  0.00000000000E+00 0. -1.
          2   -1    0    0  501    0  0.00000000000E+00 -0.00000000000E+00 -0.56678848638E+02  0.56678848638E+02  0.00000000000E+00 0.  1.
         25    2    1    2    0    0  0.75199015399E+02 -0.26161142755E+02  0.15632464079E+03  0.21546414086E+03  0.12509238735E+03 0.  0.
         23    2    1    2    0    0 -0.75199015399E+02  0.26161142755E+02  0.10796442564E+03  0.16218262285E+03  0.91145974359E+02 0.  0.
          5    1    3    3  502    0 -0.24361808328E+00 -0.61674868702E+02  0.45721819115E+02  0.76888269081E+02  0.41800000000E+01 0. -1.
         -5    1    3    3    0  502  0.75442633482E+02  0.35513725947E+02  0.11060282167E+03  0.13857587178E+03  0.41800000000E+01 0. -1.
        -11    1    4    4    0    0  0.94842155850E+01  0.34185427739E+02  0.25336878823E+02  0.43595312173E+02  0.00000000000E+00 0.  1.
         11    1    4    4    0    0 -0.84683230984E+02 -0.80242849845E+01  0.82627546820E+02  0.11858731067E+03  0.00000000000E+00 0. -1.
</event>
<event>
 8    1  0.6635152E-009  0.1057372E+03  0.7561462E-02  0.1268674E+00
          1   -1    0    0  501    0  0.00000000000E+00  0.00000000000E+00  0.10831552377E+03  0.10831552377E+03  0.00000000000E+00 0. -1.
         -1   -1    0    0    0  501 -0.00000000000E+00 -0.00000000000E+00 -0.11944938409E+03  0.11944938409E+03  0.00000000000E+00 0.  1.
         25    2    1    2    0    0  0.15493878447E+02  0.30994012697E+02 -0.13372024340E+02  0.13048710520E+03  0.12508950594E+03 0.  0.
         23    2    1    2    0    0 -0.15493878447E+02 -0.30994012697E+02  0.22381640226E+01  0.97277802651E+02  0.90869535148E+02 0.  0.
          5    1    3    3  502    0  0.72972977893E+01  0.77793215921E+02 -0.23559144987E+02  0.81716220611E+02  0.41800000000E+01 0. -1.
         -5    1    3    3    0  502  0.81965806581E+01 -0.46799203224E+02  0.10187120648E+02  0.48770884593E+02  0.41800000000E+01 0. -1.
        -11    1    4    4    0    0 -0.47577443686E+02 -0.16896734699E+02  0.24129144924E+02  0.55958273972E+02  0.00000000000E+00 0.  1.
         11    1    4    4    0    0  0.32083565239E+02 -0.14097277999E+02 -0.21890980901E+02  0.41319528679E+02  0.00000000000E+00 0. -1.
</event>
<event>
 8    1  0.6635152E-009  0.1144812E+03  0.7561462E-02  0.1252489E+00
          1   -1    0    0  501    0  0.00000000000E+00  0.00000000000E+00  0.35684781250E+03  0.35684781250E+03  0.00000000000E+00 0. -1.
         -1   -1    0    0    0  501 -0.00000000000E+00 -0.00000000000E+00 -0.41587245173E+02  0.41587245173E+02  0.00000000000E+00 0.  1.
         25    2    1    2    0    0  0.18806333332E+02  0.30168395050E+02  0.24339288153E+03  0.27595552594E+03  0.12509015663E+03 0.  0.
         23    2    1    2    0    0 -0.18806333332E+02 -0.30168395050E+02  0.71867685793E+02  0.12247953173E+03  0.92587586628E+02 0.  0.
          5    1    3    3  502    0  0.71417731827E+02  0.28583251443E+02  0.15193200247E+03  0.17034758717E+03  0.41800000000E+01 0.  1.
         -5    1    3    3    0  502 -0.52611398495E+02  0.15851436071E+01  0.91460879063E+02  0.10560793877E+03  0.41800000000E+01 0.  1.
        -11    1    4    4    0    0  0.36916149381E+02 -0.21526853862E+02  0.28964907559E+02  0.51625317357E+02  0.00000000000E+00 0.  1.
         11    1    4    4    0    0 -0.55722482713E+02 -0.86415411880E+01  0.42902778234E+02  0.70854214370E+02  0.00000000000E+00 0. -1.
</event>
<event>
 8    1  0.6635152E-009  0.1230541E+03  0.7561462E-02  0.1238142E+00
          1   -1    0    0  501    0  0.00000000000E+00  0.00000000000E+00  0.84680749826E+03  0.84680749826E+03  0.00000000000E+00 0. -1.
         -1   -1    0    0    0  501 -0.00000000000E+00 -0.00000000000E+00 -0.66100426461E+02  0.66100426461E+02  0.00000000000E+00 0.  1.
         25    2    1    2    0    0  0.58761099711E+02 -0.10005781214E+03  0.73889550668E+03  0.75833898701E+03  0.12508803627E+03 0.  0.
         23    2    1    2    0    0 -0.58761099711E+02  0.10005781214E+03  0.41811565116E+02  0.15456893771E+03  0.93160704798E+02 0.  0.
          5    1    3    3  502    0  0.11714171032E+02 -0.72284819049E+02  0.15074787452E+03  0.16764459711E+03  0.41800000000E+01 0.  1.
         -5    1    3    3    0  502  0.47046928679E+02 -0.27772993086E+02  0.58814763216E+03  0.59069438990E+03  0.41800000000E+01 0.  1.
        -11    1    4    4    0    0 -0.48467102667E+02  0.62874791110E+02 -0.19850676127E+02  0.81831221064E+02  0.00000000000E+00 0.  1.
         11    1    4    4    0    0 -0.10293997043E+02  0.37183021025E+02  0.61662241242E+02  0.72737716645E+02  0.00000000000E+00 0. -1.
</event>
<event>
 8    1  0.6635152E-009  0.7271706E+02  0.7561462E-02  0.1351090E+00
          1   -1    0    0  501    0  0.00000000000E+00  0.00000000000E+00  0.69111674829E+03  0.69111674829E+03  0.00000000000E+00 0. -1.
         -1   -1    0    0    0  501 -0.00000000000E+00 -0.00000000000E+00 -0.18348882896E+02  0.18348882896E+02  0.00000000000E+00 0.  1.
         25    2    1    2    0    0 -0.34559823470E+02  0.55638504005E+01  0.35461404779E+03  0.37765332550E+03  0.12508226707E+03 0.  0.
         23    2    1    2    0    0  0.34559823470E+02 -0.55638504005E+01  0.31815381760E+03  0.33181230569E+03  0.87476949670E+02 0.  0.
          5    1    3    3  502    0 -0.42324533018E+02  0.17310432661E+02  0.35087781727E+02  0.57789635754E+02  0.41800000000E+01 0. -1.
         -5    1    3    3    0  502  0.77647095477E+01 -0.11746582260E+02  0.31952626607E+03  0.31986368974E+03  0.41800000000E+01 0. -1.
        -11    1    4    4    0    0  0.88204466037E+01 -0.40491055341E+02  0.22831489623E+03  0.23204529231E+03  0.00000000000E+00 0.  1.
         11    1    4    4    0    0  0.25739376866E+02  0.34927204940E+02  0.89838921370E+02  0.99767013383E+02  0.00000000000E+00 0. -1.
</event>
<event>
 8    1  0.6635152E-009  0.2202915E+03  0.7561462E-02  0.1133666E+00
         -2   -1    0    0    0  501 -0.00000000000E+00  0.00000000000E+00  0.32079127960E+03  0.32079127960E+03  0.00000000000E+00 0.  1.
          2   -1    0    0  501    0  0.00000000000E+00 -0.00000000000E+00 -0.18759891752E+03  0.18759891752E+03  0.00000000000E+00 0. -1.
         25    2    1    2    0    0  0.12914874618E+03  0.15890537478E+03  0.15101664134E+03  0.28352061416E+03  0.12509035102E+03 0.  0.
         23    2    1    2    0    0 -0.12914874618E+03 -0.15890537478E+03 -0.17824279255E+02  0.22486958296E+03  0.91204756667E+02 0.  0.
          5    1    3    3  502    0  0.10011437738E+03  0.17539324813E+03  0.10848151808E+03  0.22928452240E+03  0.41800000000E+01 0.  1.
         -5    1    3    3    0  502  0.29034368800E+02 -0.16487873347E+02  0.42535123252E+02  0.54236091758E+02  0.41800000000E+01 0.  1.
        -11    1    4    4    0    0 -0.10619611001E+03 -0.13545840870E+03 -0.49667829780E+02  0.17914655337E+03  0.00000000000E+00 0. -1.
         11    1    4    4    0    0 -0.22952636170E+02 -0.23446966079E+02  0.31843550525E+02  0.45723029597E+02  0.00000000000E+00 0.  1.
</event>
<event>
 8    1  0.6635152E-009  0.1248952E+03  0.7561462E-02  0.1235233E+00
          2   -1    0    0  501    0  0.00000000000E+00  0.00000000000E+00  0.12985757929E+04  0.12985757929E+04  0.00000000000E+00 0. -1.
         -2   -1    0    0    0  501 -0.00000000000E+00 -0.00000000000E+00 -0.13108430980E+02  0.13108430980E+02  0.00000000000E+00 0.  1.
         25    2    1    2    0    0  0.65595563997E+02 -0.20527973405E+02  0.83555358899E+03  0.84765663449E+03  0.12509114363E+03 0.  0.
         23    2    1    2    0    0 -0.65595563997E+02  0.20527973405E+02  0.44991377293E+03  0.46402758939E+03  0.90415844491E+02 0.  0.
          5    1    3    3  502    0  0.98165887085E+02 -0.12394451400E+01  0.69969978530E+03  0.70656587772E+03  0.41800000000E+01 0.  1.
         -5    1    3    3    0  502 -0.32570323088E+02 -0.19288528265E+02  0.13585380369E+03  0.14109075677E+03  0.41800000000E+01 0.  1.
        -11    1    4    4    0    0  0.15724015634E+02  0.27655491421E+02  0.13637779635E+03  0.14003918812E+03  0.00000000000E+00 0. -1.
         11    1    4    4    0    0 -0.81319579631E+02 -0.71275180156E+01  0.31353597658E+03  0.32398840126E+03  0.00000000000E+00 0.  1.
</event>
<event>
 8    1  0.6635152E-009  0.8300470E+02  0.7561462E-02  0.1320734E+00
         -2   -1    0    0    0  501 -0.00000000000E+00  0.00000000000E+00  0.13571033804E+02  0.13571033804E+02  0.00000000000E+00 0.  1.
          2   -1    0    0  501    0  0.00000000000E+00 -0.00000000000E+00 -0.10639477552E+04  0.10639477552E+04  0.00000000000E+00 0. -1.
         25    2    1    2    0    0  0.28241345112E+02 -0.41004168517E+02 -0.66364457602E+03  0.67716341265E+03  0.12508896331E+03 0.  0.
         23    2    1    2    0    0 -0.28241345112E+02  0.41004168517E+02 -0.38673214539E+03  0.40035537637E+03  0.90795152405E+02 0.  0.
          5    1    3    3  502    0 -0.12016797415E+02  0.11295544263E+02 -0.91151976843E+01  0.19301605352E+02  0.41800000000E+01 0.  1.
         -5    1    3    3    0  502  0.40258142528E+02 -0.52299712781E+02 -0.65452937833E+03  0.65786180729E+03  0.41800000000E+01 0.  1.
        -11    1    4    4    0    0 -0.19224025900E+01 -0.18080414019E+02 -0.16619702749E+02  0.24633544655E+02  0.00000000000E+00 0.  1.
         11    1    4    4    0    0 -0.26318942522E+02  0.59084582536E+02 -0.37011244264E+03  0.37572183172E+03  0.00000000000E+00 0. -1.
</event>
<event>
 8    1  0.6635152E-009  0.1314728E+03  0.7561462E-02  0.1225287E+00
          2   -1    0    0  501    0  0.00000000000E+00  0.00000000000E+00  0.35409054153E+03  0.35409054153E+03  0.00000000000E+00 0. -1.
         -2   -1    0    0    0  501 -0.00000000000E+00 -0.00000000000E+00 -0.65302295660E+02  0.65302295660E+02  0.00000000000E+00 0.  1.
         25    2    1    2    0    0 -0.89800011322E+02  0.18124594069E+02  0.23010778232E+03  0.27747238434E+03  0.12509512238E+03 0.  0.
         23    2    1    2    0    0  0.89800011322E+02 -0.18124594069E+02  0.58680463555E+02  0.14192045285E+03  0.91134379856E+02 0.  0.
          5    1    3    3  502    0 -0.17414820262E+02 -0.43164625927E+02  0.28783635098E+02  0.54885616929E+02  0.41800000000E+01 0.  1.
         -5    1    3    3    0  502 -0.72385191060E+02  0.61289219996E+02  0.20132414722E+03  0.22258676741E+03  0.41800000000E+01 0.  1.
        -11    1    4    4    0    0  0.80618202009E+02  0.19169625443E+02  0.61819071013E+02  0.10338455676E+03  0.00000000000E+00 0. -1.
         11    1    4    4    0    0  0.91818093130E+01 -0.37294219512E+02 -0.31386074576E+01  0.38535896098E+02  0.00000000000E+00 0.  1.
</event>
<event>
 8    1  0.6635152E-009  0.1140449E+03  0.7561462E-02  0.1253258E+00
          1   -1    0    0  501    0  0.00000000000E+00  0.00000000000E+00  0.13625830592E+03  0.13625830592E+03  0.00000000000E+00 0. -1.
         -1   -1    0    0    0  501 -0.00000000000E+00 -0.00000000000E+00 -0.14009631583E+03  0.14009631583E+03  0.00000000000E+00 0.  1.
         25    2    1    2    0    0 -0.21514664650E+01 -0.49631143157E+02 -0.69163732396E+02  0.15132195674E+03  0.12508730365E+03 0.  0.
         23    2    1    2    0    0  0.21514664650E+01  0.49631143157E+02  0.65325722480E+02  0.12503266501E+03  0.94328352697E+02 0.  0.
          5    1    3    3  502    0  0.59284129420E+02 -0.18575158931E+02 -0.49679755655E+02  0.79656732624E+02  0.41800000000E+01 0.  1.
         -5    1    3    3    0  502 -0.61435595885E+02 -0.31055984226E+02 -0.19483976741E+02  0.71665224117E+02  0.41800000000E+01 0.  1.
        -11    1    4    4    0    0  0.16830925096E+02 -0.19745173874E+02 -0.35381918224E+01  0.26185315203E+02  0.00000000000E+00 0.  1.
         11    1    4    4    0    0 -0.14679458631E+02  0.69376317031E+02  0.68863914302E+02  0.98847349805E+02  0.00000000000E+00 0. -1.
</event>
<event>
 8    1  0.6635152E-009  0.1173749E+03  0.7561462E-02  0.1247492E+00
          1   -1    0    0  501    0  0.00000000000E+00  0.00000000000E+00  0.86642811629E+03  0.86642811629E+03  0.00000000000E+00 0. -1.
         -1   -1    0    0    0  501 -0.00000000000E+00 -0.00000000000E+00 -0.34187898457E+02  0.34187898457E+02  0.00000000000E+00 0.  1.
         25    2    1    2    0    0 -0.44108913869E+02 -0.38977320082E+02  0.75656841491E+03  0.76909572541E+03  0.12509052980E+03 0.  0.
         23    2    1    2    0    0  0.44108913869E+02  0.38977320082E+02  0.75671802924E+02  0.13152028933E+03  0.90036309262E+02 0.  0.
          5    1    3    3  502    0 -0.22333032395E+02  0.42487955050E+02  0.17825579152E+03  0.18465262054E+03  0.41800000000E+01 0.  1.
         -5    1    3    3    0  502 -0.21775881474E+02 -0.81465275132E+02  0.57831262338E+03  0.58444310487E+03  0.41800000000E+01 0.  1.
        -11    1    4    4    0    0  0.66918438575E+02  0.42184812782E+02  0.74168912916E+02  0.10843737130E+03  0.00000000000E+00 0.  1.
         11    1    4    4    0    0 -0.22809524706E+02 -0.32074927006E+01  0.15028900082E+01  0.23082918037E+02  0.00000000000E+00 0. -1.
</event>
<event>
 8    1  0.6635152E-009  0.6459518E+02  0.7561462E-02  0.1379501E+00
          1   -1    0    0  501    0  0.00000000000E+00  0.00000000000E+00  0.84021191562E+02  0.84021191562E+02  0.00000000000E+00 0. -1.
         -1   -1    0    0    0  501 -0.00000000000E+00 -0.00000000000E+00 -0.15076843444E+03  0.15076843444E+03  0.00000000000E+00 0.  1.
         25    2    1    2    0    0 -0.24648939298E+02  0.10978914163E+02 -0.51726600043E+02  0.13802462492E+03  0.12508816558E+03 0.  0.
         23    2    1    2    0    0  0.24648939298E+02 -0.10978914163E+02 -0.15020642832E+02  0.96765001081E+02  0.91704628882E+02 0.  0.
          5    1    3    3  502    0 -0.39827711722E+02  0.21275775319E+02 -0.86965688208E+02  0.98078583604E+02  0.41800000000E+01 0. -1.
         -5    1    3    3    0  502  0.15178772424E+02 -0.10296861155E+02  0.35239088165E+02  0.39946041314E+02  0.41800000000E+01 0. -1.
        -11    1    4    4    0    0  0.14461711750E+02 -0.35578575737E+02  0.27051078225E+02  0.46975919271E+02  0.00000000000E+00 0. -1.
         11    1    4    4    0    0  0.10187227548E+02  0.24599661574E+02 -0.42071721058E+02  0.49789081810E+02  0.00000000000E+00 0.  1.
</event>
<event>
 8    1  0.6635152E-009  0.9430042E+02  0.7561462E-02  0.1292760E+00
         -1   -1    0    0    0  501 -0.00000000000E+00  0.00000000000E+00  0.22224120555E+03  0.22224120555E+03  0.00000000000E+00 0.  1.
          1   -1    0    0  501    0  0.00000000000E+00 -0.00000000000E+00 -0.67391836192E+02  0.67391836192E+02  0.00000000000E+00 0. -1.
         25    2    1    2    0    0 -0.56281099256E+02 -0.19536227316E+01  0.93460696062E+02  0.16598487831E+03  0.12507877256E+03 0.  0.
         23    2    1    2    0    0  0.56281099256E+02  0.19536227316E+01  0.61388673300E+02  0.12364816343E+03  0.91372426560E+02 0.  0.
          5    1    3    3  502    0 -0.91293830745E+02  0.15243728368E+02  0.85247360549E+02  0.12590281834E+03  0.41800000000E+01 0. -1.
         -5    1    3    3    0  502  0.35012731489E+02 -0.17197351100E+02  0.82133355137E+01  0.40082059970E+02  0.41800000000E+01 0. -1.
        -11    1    4    4    0    0  0.25039862317E+02 -0.24824869829E+01  0.82122662699E+02  0.85891147247E+02  0.00000000000E+00 0.  1.
         11    1    4    4    0    0  0.31241236939E+02  0.44361097145E+01 -0.20733989399E+02  0.37757016186E+02  0.00000000000E+00 0. -1.
</event>
<event>
 8    1  0.6635152E-009  0.1546955E+03  0.7561462E-02  0.1194819E+00
          3   -1    0    0  501    0  0.00000000000E+00  0.00000000000E+00  0.60822527368E+02  0.60822527368E+02  0.00000000000E+00 0. -1.
         -3   -1    0    0    0  501 -0.00000000000E+00 -0.00000000000E+00 -0.55020746304E+03  0.55020746304E+03  0.00000000000E+00 0.  1.
         25    2    1    2    0    0 -0.12787525157E+03  0.68174116357E+02 -0.22525354923E+03  0.29561181829E+03  0.12508955019E+03 0.  0.
         23    2    1    2    0    0  0.12787525157E+03 -0.68174116357E+02 -0.26413138644E+03  0.31541817212E+03  0.93399378435E+02 0.  0.
          5    1    3    3  502    0 -0.50511826812E+02  0.33615727891E+02 -0.67192329716E+01  0.61188906685E+02  0.41800000000E+01 0. -1.
         -5    1    3    3    0  502 -0.77363424760E+02  0.34558388466E+02 -0.21853431626E+03  0.23442291161E+03  0.41800000000E+01 0. -1.
        -11    1    4    4    0    0  0.44719427189E+02  0.13970354623E+02 -0.12622838676E+03  0.13464250295E+03  0.00000000000E+00 0. -1.
         11    1    4    4    0    0  0.83155824383E+02 -0.82144470980E+02 -0.13790299968E+03  0.18077566916E+03  0.00000000000E+00 0.  1.
</event>
<event>
 8    1  0.6635152E-009  0.8262147E+02  0.7561462E-02  0.1321773E+00
         -1   -1    0    0    0  501 -0.00000000000E+00  0.00000000000E+00  0.40234401189E+02  0.40234401189E+02  0.00000000000E+00 0.  1.
          1   -1    0    0  501    0  0.00000000000E+00 -0.00000000000E+00 -0.28650188449E+03  0.28650188449E+03  0.00000000000E+00 0. -1.
         25    2    1    2    0    0  0.16040941328E+01  0.33381853591E+02 -0.15087822804E+03  0.19881643861E+03  0.12508723074E+03 0.  0.
         23    2    1    2    0    0 -0.16040941328E+01 -0.33381853591E+02 -0.95389255255E+02  0.12791984707E+03  0.78405714008E+02 0.  0.
          5    1    3    3  502    0 -0.45967934937E+02  0.12305534626E+02 -0.10310817943E+02  0.48869853605E+02  0.41800000000E+01 0. -1.
         -5    1    3    3    0  502  0.47572029069E+02  0.21076318965E+02 -0.14056741010E+03  0.14994658500E+03  0.41800000000E+01 0. -1.
        -11    1    4    4    0    0  0.27241486091E+02 -0.15781052531E+02 -0.55921310766E+01  0.31975179646E+02  0.00000000000E+00 0.  1.
         11    1    4    4    0    0 -0.28845580223E+02 -0.17600801060E+02 -0.89797124179E+02  0.95944667424E+02  0.00000000000E+00 0. -1.
</event>
<event>
 8    1  0.6635152E-009  0.8216270E+02  0.7561462E-02  0.1323024E+00
          2   -1    0    0  501    0  0.00000000000E+00  0.00000000000E+00  0.10617072095E+04  0.10617072095E+04  0.00000000000E+00 0. -1.
         -2   -1    0    0    0  501 -0.00000000000E+00 -0.00000000000E+00 -0.13245077691E+02  0.13245077691E+02  0.00000000000E+00 0.  1.
         25    2    1    2    0    0 -0.12048196518E+02  0.60280357661E+01  0.68316397915E+03  0.69465198038E+03  0.12508739017E+03 0.  0.
         23    2    1    2    0    0  0.12048196518E+02 -0.60280357661E+01  0.36529815262E+03  0.38030030677E+03  0.10490036592E+03 0.  0.
          5    1    3    3  502    0 -0.33599288116E+02  0.14203759770E+02  0.55470243358E+02  0.66521269168E+02  0.41800000000E+01 0.  1.
         -5    1    3    3    0  502  0.21551091598E+02 -0.81757240035E+01  0.62769373579E+03  0.62813071121E+03  0.41800000000E+01 0.  1.
        -11    1    4    4    0    0 -0.35441599174E+01  0.47907615859E+02  0.13621961368E+03  0.14444197408E+03  0.00000000000E+00 0. -1.
         11    1    4    4    0    0  0.15592356435E+02 -0.53935651625E+02  0.22907853894E+03  0.23585833269E+03  0.00000000000E+00 0.  1.
</event>
<event>
 8    1  0.6635152E-009  0.9894746E+02  0.7561462E-02  0.1282525E+00
          1   -1    0    0  501    0  0.00000000000E+00  0.00000000000E+00  0.52062636021E+02  0.52062636021E+02  0.00000000000E+00 0. -1.
         -1   -1    0    0    0  501 -0.00000000000E+00 -0.00000000000E+00 -0.34117900532E+03  0.34117900532E+03  0.00000000000E+00 0.  1.
         25    2    1    2    0    0 -0.67241509805E+02 -0.28074637065E+02 -0.19922865784E+03  0.24627053393E+03  0.12509001516E+03 0.  0.
         23    2    1    2    0    0  0.67241509805E+02  0.28074637065E+02 -0.89887711462E+02  0.14697110741E+03  0.90615119346E+02 0.  0.
          5    1    3    3  502    0  0.26912964609E+02 -0.68461503565E+01 -0.38944587333E+01  0.28351660403E+02  0.41800000000E+01 0.  1.
         -5    1    3    3    0  502 -0.94154474414E+02 -0.21228486708E+02 -0.19533419910E+03  0.21791887353E+03  0.41800000000E+01 0.  1.
        -11    1    4    4    0    0  0.19579841262E+02  0.11690980266E+02 -0.93693291456E+02  0.96428637174E+02  0.00000000000E+00 0.  1.
         11    1    4    4    0    0  0.47661668543E+02  0.16383656799E+02  0.38055799937E+01  0.50542470235E+02  0.00000000000E+00 0. -1.
</event>
<event>
 8    1  0.6635152E-009  0.1317924E+03  0.7561462E-02  0.1224820E+00
          2   -1    0    0  501    0  0.00000000000E+00  0.00000000000E+00  0.10482960222E+03  0.10482960222E+03  0.00000000000E+00 0. -1.
         -2   -1    0    0    0  501 -0.00000000000E+00 -0.00000000000E+00 -0.18758288935E+03  0.18758288935E+03  0.00000000000E+00 0.  1.
         25    2    1    2    0    0  0.87426130830E+02  0.14336357988E+02 -0.25595604255E+02  0.15540886283E+03  0.12509164711E+03 0.  0.
         23    2    1    2    0    0 -0.87426130830E+02 -0.14336357988E+02 -0.57157682877E+02  0.13700362873E+03  0.87487908086E+02 0.  0.
          5    1    3    3  502    0  0.43979964052E+02  0.64139584004E+02  0.12700244965E+02  0.78910658953E+02  0.41800000000E+01 0. -1.
         -5    1    3    3    0  502  0.43446166778E+02 -0.49803226016E+02 -0.38295849220E+02  0.76498203879E+02  0.41800000000E+01 0. -1.
        -11    1    4    4    0    0 -0.15684892515E+02 -0.40253499332E+02 -0.39875400523E+02  0.58791220675E+02  0.00000000000E+00 0.  1.
         11    1    4    4    0    0 -0.71741238315E+02  0.25917141344E+02 -0.17282282354E+02  0.78212408055E+02  0.00000000000E+00 0. -1.
</event>
<event>
 8    1  0.6635152E-009  0.1046370E+03  0.7561462E-02  0.1270837E+00
         -2   -1    0    0    0  501 -0.00000000000E+00  0.00000000000E+00  0.99335369353E+02  0.99335369353E+02  0.00000000000E+00 0.  1.
          2   -1    0    0  501    0  0.00000000000E+00 -0.00000000000E+00 -0.12133207237E+03  0.12133207237E+03  0.00000000000E+00 0. -1.
         25    2    1    2    0    0 -0.92985378497E+01  0.14574512087E+02 -0.19873600732E+02  0.12783685757E+03  0.12509365667E+03 0.  0.
         23    2    1    2    0    0  0.92985378497E+01 -0.14574512087E+02 -0.21231022894E+01  0.92830584160E+02  0.91181854464E+02 0.  0.
          5    1    3    3  502    0 -0.52276868848E+01 -0.51004645511E+02 -0.32431344760E+02  0.60811734861E+02  0.41800000000E+01 0. -1.
         -5    1    3    3    0  502 -0.40708509649E+01  0.65579157598E+02  0.12557744028E+02  0.67025122707E+02  0.41800000000E+01 0. -1.
        -11    1    4    4    0    0 -0.38779976392E+02 -0.19958777265E+02  0.51130378632E+01  0.43913352355E+02  0.00000000000E+00 0.  1.
         11    1    4    4    0    0  0.48078514241E+02  0.53842651779E+01 -0.72361401526E+01  0.48917231805E+02  0.00000000000E+00 0. -1.
</event>
<event>
 8    1  0.6635152E-009  0.1836645E+03  0.7561462E-02  0.1164303E+00
          1   -1    0    0  501    0  0.00000000000E+00  0.00000000000E+00  0.27742113651E+03  0.27742113651E+03  0.00000000000E+00 0. -1.
         -1   -1    0    0    0  501 -0.00000000000E+00 -0.00000000000E+00 -0.14430202317E+03  0.14430202317E+03  0.00000000000E+00 0.  1.
         25    2    1    2    0    0  0.23030878141E+02 -0.16077524706E+03  0.11328690339E+03  0.23422946029E+03  0.12510162338E+03 0.  0.
         23    2    1    2    0    0 -0.23030878141E+02  0.16077524706E+03  0.19832209957E+02  0.18749369940E+03  0.91550365083E+02 0.  0.
          5    1    3    3  502    0 -0.49792250375E+02 -0.40904053346E+02  0.32065087332E+02  0.72097517316E+02  0.41800000000E+01 0. -1.
         -5    1    3    3    0  502  0.72823128515E+02 -0.11987119371E+03  0.81221816057E+02  0.16213194297E+03  0.41800000000E+01 0. -1.
        -11    1    4    4    0    0 -0.17979114828E+02  0.11806061463E+03 -0.28518867013E+02  0.12277981542E+03  0.00000000000E+00 0.  1.
         11    1    4    4    0    0 -0.50517633124E+01  0.42714632424E+02  0.48351076970E+02  0.64713883980E+02  0.00000000000E+00 0. -1.
</event>
<event>
 8    1  0.6635152E-009  0.8838001E+02  0.7561462E-02  0.1306823E+00
         -1   -1    0    0    0  501 -0.00000000000E+00  0.00000000000E+00  0.14455589352E+03  0.14455589352E+03  0.00000000000E+00 0.  1.
          1   -1    0    0  501    0  0.00000000000E+00 -0.00000000000E+00 -0.94554151472E+02  0.94554151472E+02  0.00000000000E+00 0. -1.
         25    2    1    2    0    0 -0.35079695115E+02  0.18652397436E+02  0.82449790897E+01  0.13151051198E+03  0.12509411714E+03 0.  0.
         23    2    1    2    0    0  0.35079695115E+02 -0.18652397436E+02  0.41756762962E+02  0.10759953301E+03  0.90859976401E+02 0.  0.
          5    1    3    3  502    0 -0.69763689520E+02  0.22591676440E+02  0.40434350042E+02  0.83843695548E+02  0.41800000000E+01 0. -1.
         -5    1    3    3    0  502  0.34683994405E+02 -0.39392790042E+01 -0.32189370952E+02  0.47666816437E+02  0.41800000000E+01 0. -1.
        -11    1    4    4    0    0  0.38202028877E+02  0.98739567605E+01  0.61284981448E+02  0.72888538080E+02  0.00000000000E+00 0.  1.
         11    1    4    4    0    0 -0.31223337623E+01 -0.28526354196E+02 -0.19528218486E+02  0.34710994930E+02  0.00000000000E+00 0. -1.
</event>
<event>
 8    1  0.6635152E-009  0.1059274E+03  0.7561462E-02  0.1268303E+00
          4   -1    0    0  501    0  0.00000000000E+00  0.00000000000E+00  0.54758363288E+02  0.54758363288E+02  0.00000000000E+00 0. -1.
         -4   -1    0    0    0  501 -0.00000000000E+00 -0.00000000000E+00 -0.25398664746E+03  0.25398664746E+03  0.00000000000E+00 0.  1.
         25    2    1    2    0    0  0.19125126591E+02 -0.22707179177E+02 -0.67108709442E+02  0.14502743221E+03  0.12509192923E+03 0.  0.
         23    2    1    2    0    0 -0.19125126591E+02  0.22707179177E+02 -0.13211957473E+03  0.16371757853E+03  0.92013461192E+02 0.  0.
          5    1    3    3  502    0  0.92071210055E+01  0.51284183644E+02 -0.16788157534E+02  0.54901304198E+02  0.41800000000E+01 0. -1.
         -5    1    3    3    0  502  0.99180055858E+01 -0.73991362821E+02 -0.50320551907E+02  0.90126128016E+02  0.41800000000E+01 0. -1.
        -11    1    4    4    0    0  0.28273553413E+02 -0.66690853781E+01 -0.12278397672E+02  0.31537748362E+02  0.00000000000E+00 0. -1.
         11    1    4    4    0    0 -0.47398680004E+02  0.29376264555E+02 -0.11984117705E+03  0.13217983017E+03  0.00000000000E+00 0.  1.
</event>
<event>
 8    1  0.6635152E-009  0.1034483E+03  0.7561462E-02  0.1273207E+00
         -1   -1    0    0    0  501 -0.00000000000E+00  0.00000000000E+00  0.45974283558E+02  0.45974283558E+02  0.00000000000E+00 0.  1.
          1   -1    0    0  501    0  0.00000000000E+00 -0.00000000000E+00 -0.26905484088E+03  0.26905484088E+03  0.00000000000E+00 0. -1.
         25    2    1    2    0    0  0.28114354213E+01 -0.11846701177E+02 -0.15737419192E+03  0.20139442244E+03  0.12507928928E+03 0.  0.
         23    2    1    2    0    0 -0.28114354213E+01  0.11846701177E+02 -0.65706365403E+02  0.11363470200E+03  0.91909034088E+02 0.  0.
          5    1    3    3  502    0 -0.52025758822E+02 -0.36456338143E+02 -0.64034176413E+02  0.90297244259E+02  0.41800000000E+01 0. -1.
         -5    1    3    3    0  502  0.54837194243E+02  0.24609636966E+02 -0.93340015506E+02  0.11109717818E+03  0.41800000000E+01 0. -1.
        -11    1    4    4    0    0  0.32306434780E+02  0.29434436115E+02 -0.89463730126E+01  0.44610865803E+02  0.00000000000E+00 0.  1.
         11    1    4    4    0    0 -0.35117870201E+02 -0.17587734938E+02 -0.56759992390E+02  0.69023836200E+02  0.00000000000E+00 0. -1.
</event>
<event>
 8    1  0.6635152E-009  0.1237254E+03  0.7561462E-02  0.1237075E+00
          2   -1    0    0  501    0  0.00000000000E+00  0.00000000000E+00  0.26508836040E+03  0.26508836040E+03  0.00000000000E+00 0. -1.
         -2   -1    0    0    0  501 -0.00000000000E+00 -0.00000000000E+00 -0.73012115544E+02  0.73012115544E+02  0.00000000000E+00 0.  1.
         25    2    1    2    0    0 -0.75154987304E+02 -0.32301982533E+02  0.14061357150E+03  0.20520719124E+03  0.12508447008E+03 0.  0.
         23    2    1    2    0    0  0.75154987304E+02  0.32301982533E+02  0.51462673355E+02  0.13289328470E+03  0.91216929220E+02 0.  0.
          5    1    3    3  502    0 -0.18115575090E+02  0.47503763287E+02  0.42382975291E+02  0.66321720286E+02  0.41800000000E+01 0. -1.
         -5    1    3    3    0  502 -0.57039412215E+02 -0.79805745820E+02  0.98230596208E+02  0.13888547096E+03  0.41800000000E+01 0. -1.
        -11    1    4    4    0    0  0.76265184367E+01  0.29714154951E+02  0.57370575718E+02  0.65057495695E+02  0.00000000000E+00 0. -1.
         11    1    4    4    0    0  0.67528468868E+02  0.25878275825E+01 -0.59079023626E+01  0.67835789002E+02  0.00000000000E+00 0.  1.
</event>
<event>
 8    1  0.6635152E-009  0.9442629E+02  0.7561462E-02  0.1292473E+00
          2   -1    0    0  501    0  0.00000000000E+00  0.00000000000E+00  0.17345039737E+03  0.17345039737E+03  0.00000000000E+00 0. -1.
         -2   -1    0    0    0  501 -0.00000000000E+00 -0.00000000000E+00 -0.66923661094E+02  0.66923661094E+02  0.00000000000E+00 0.  1.
         25    2    1    2    0    0 -0.16547651668E+02 -0.14864784453E+02  0.72284763012E+02  0.14617367459E+03  0.12508744775E+03 0.  0.
         23    2    1    2    0    0  0.16547651668E+02  0.14864784453E+02  0.34241973265E+02  0.94200383879E+02  0.84890594281E+02 0.  0.
          5    1    3    3  502    0  0.40716586884E+01  0.49849954671E+02  0.49368732907E+01  0.50432544087E+02  0.41800000000E+01 0. -1.
         -5    1    3    3    0  502 -0.20619310357E+02 -0.64714739124E+02  0.67347889721E+02  0.95741130499E+02  0.41800000000E+01 0. -1.
        -11    1    4    4    0    0  0.35215634042E+02 -0.12602670180E+02 -0.10154502150E+02  0.38756703814E+02  0.00000000000E+00 0.  1.
         11    1    4    4    0    0 -0.18667982374E+02  0.27467454633E+02  0.44396475415E+02  0.55443680065E+02  0.00000000000E+00 0. -1.
</event>
<event>
 8    1  0.6635152E-009  0.7509441E+02  0.7561462E-02  0.1343579E+00
         -1   -1    0    0    0  501 -0.00000000000E+00  0.00000000000E+00  0.25470975392E+02  0.25470975392E+02  0.00000000000E+00 0.  1.
          1   -1    0    0  501    0  0.00000000000E+00 -0.00000000000E+00 -0.46965932512E+03  0.46965932512E+03  0.00000000000E+00 0. -1.
         25    2    1    2    0    0  0.15364681721E+02 -0.66963573492E+01 -0.23945969685E+03  0.27068408331E+03  0.12509201371E+03 0.  0.
         23    2    1    2    0    0 -0.15364681721E+02  0.66963573492E+01 -0.20472865288E+03  0.22444621721E+03  0.90450917421E+02 0.  0.
          5    1    3    3  502    0  0.22911001815E+02 -0.28081923177E+02 -0.70802823129E+01  0.37163304631E+02  0.41800000000E+01 0. -1.
         -5    1    3    3    0  502 -0.75463200941E+01  0.21385565828E+02 -0.23237941454E+03  0.23352077868E+03  0.41800000000E+01 0. -1.
        -11    1    4    4    0    0 -0.20325570888E+02 -0.39373382494E+02 -0.81031429472E+02  0.92355209075E+02  0.00000000000E+00 0. -1.
         11    1    4    4    0    0  0.49608891662E+01  0.46069739844E+02 -0.12369722341E+03  0.13209100813E+03  0.00000000000E+00 0.  1.
</event>
<event>
 8    1  0.6635152E-009  0.1316276E+03  0.7561462E-02  0.1225060E+00
         -2   -1    0    0    0  501 -0.00000000000E+00  0.00000000000E+00  0.39673125904E+02  0.39673125904E+02  0.00000000000E+00 0.  1.
          2   -1    0    0  501    0  0.00000000000E+00 -0.00000000000E+00 -0.47766358762E+03  0.47766358762E+03  0.00000000000E+00 0. -1.
         25    2    1    2    0    0  0.32276794173E+02  0.74117357141E+02 -0.28650531540E+03  0.32290701334E+03  0.12509384255E+03 0.  0.
         23    2    1    2    0    0 -0.32276794173E+02 -0.74117357141E+02 -0.15148514632E+03  0.19442970018E+03  0.91213950060E+02 0.  0.
          5    1    3    3  502    0 -0.69680812933E+01 -0.30653249401E+02 -0.10467277030E+03  0.10937109809E+03  0.41800000000E+01 0. -1.
         -5    1    3    3    0  502  0.39244875466E+02  0.10477060654E+03 -0.18183254510E+03  0.21353591525E+03  0.41800000000E+01 0. -1.
        -11    1    4    4    0    0  0.23044215818E+02  0.44757803724E+01 -0.46535064317E+02  0.52120827925E+02  0.00000000000E+00 0. -1.
         11    1    4    4    0    0 -0.55321009991E+02 -0.78593137513E+02 -0.10495008200E+03  0.14230887225E+03  0.00000000000E+00 0.  1.
</event>
<event>
 8    1  0.6635152E-009  0.1114339E+03  0.7561462E-02  0.1257937E+00
          2   -1    0    0  501    0  0.00000000000E+00  0.00000000000E+00  0.14493467361E+03  0.14493467361E+03  0.00000000000E+00 0. -1.
         -2   -1    0    0    0  501 -0.00000000000E+00 -0.00000000000E+00 -0.92049407721E+02  0.92049407721E+02  0.00000000000E+00 0.  1.
         25    2    1    2    0    0 -0.32894375543E+02 -0.26098343976E+02  0.27593092862E+02  0.13480056832E+03  0.12508657380E+03 0.  0.
         23    2    1    2    0    0  0.32894375543E+02  0.26098343976E+02  0.25292173023E+02  0.10218351301E+03  0.89658311460E+02 0.  0.
          5    1    3    3  502    0  0.42827496902E+02 -0.33101016852E+02  0.21519784150E+02  0.58399018120E+02  0.41800000000E+01 0.  1.
         -5    1    3    3    0  502 -0.75721872445E+02  0.70026728759E+01  0.60733087119E+01  0.76401550198E+02  0.41800000000E+01 0.  1.
        -11    1    4    4    0    0  0.58590575832E+02  0.30958548656E+02  0.34180303312E+02  0.74562594146E+02  0.00000000000E+00 0. -1.
         11    1    4    4    0    0 -0.25696200289E+02 -0.48602046801E+01 -0.88881302892E+01  0.27620918863E+02  0.00000000000E+00 0.  1.
</event>
<event>
 8    1  0.6635152E-009  0.2547680E+03  0.7561462E-02  0.1110328E+00
         -2   -1    0    0    0  501 -0.00000000000E+00  0.00000000000E+00  0.64167126180E+02  0.64167126180E+02  0.00000000000E+00 0.  1.
          2   -1    0    0  501    0  0.00000000000E+00 -0.00000000000E+00 -0.12941439498E+04  0.12941439498E+04  0.00000000000E+00 0. -1.
         25    2    1    2    0    0 -0.23858318620E+03 -0.27027145996E+01 -0.89274841016E+03  0.93250977570E+03  0.12508203920E+03 0.  0.
         23    2    1    2    0    0  0.23858318620E+03  0.27027145996E+01 -0.33722841345E+03  0.42580130027E+03  0.10322065234E+03 0.  0.
          5    1    3    3  502    0 -0.23526843956E+01  0.23106505358E+02 -0.17135695823E+03  0.17297434852E+03  0.41800000000E+01 0.  1.
         -5    1    3    3    0  502 -0.23623050180E+03 -0.25809219957E+02 -0.72139145193E+03  0.75953542718E+03  0.41800000000E+01 0.  1.
        -11    1    4    4    0    0  0.78252123957E+02  0.33294127406E+02 -0.59948575169E+02  0.10404674665E+03  0.00000000000E+00 0.  1.
         11    1    4    4    0    0  0.16033106224E+03 -0.30591412807E+02 -0.27727983828E+03  0.32175455362E+03  0.00000000000E+00 0. -1.
</event>
<event>
 8    1  0.6635152E-009  0.2201395E+03  0.7561462E-02  0.1133779E+00
         -1   -1    0    0    0  501 -0.00000000000E+00  0.00000000000E+00  0.54626942796E+02  0.54626942796E+02  0.00000000000E+00 0.  1.
          1   -1    0    0  501    0  0.00000000000E+00 -0.00000000000E+00 -0.11941495111E+04  0.11941495111E+04  0.00000000000E+00 0. -1.
         25    2    1    2    0    0 -0.20430454279E+03  0.66909620907E+02 -0.79754284970E+03  0.83542971777E+03  0.12510384746E+03 0.  0.
         23    2    1    2    0    0  0.20430454279E+03 -0.66909620907E+02 -0.34197971856E+03  0.41334673608E+03  0.87682111897E+02 0.  0.
          5    1    3    3  502    0 -0.16385565948E+03  0.80205914654E+02 -0.74815661720E+03  0.77008925596E+03  0.41800000000E+01 0. -1.
         -5    1    3    3    0  502 -0.40448883314E+02 -0.13296293748E+02 -0.49386232504E+02  0.65340461811E+02  0.41800000000E+01 0. -1.
        -11    1    4    4    0    0  0.14936352897E+03 -0.47137545200E+02 -0.30864364574E+03  0.34611025991E+03  0.00000000000E+00 0. -1.
         11    1    4    4    0    0  0.54941013822E+02 -0.19772075707E+02 -0.33336072814E+02  0.67236476174E+02  0.00000000000E+00 0.  1.
</event>
<event>
 8    1  0.6635152E-009  0.1112834E+03  0.7561462E-02  0.1258211E+00
         -2   -1    0    0    0  501 -0.00000000000E+00  0.00000000000E+00  0.11948679547E+02  0.11948679547E+02  0.00000000000E+00 0.  1.
          2   -1    0    0  501    0  0.00000000000E+00 -0.00000000000E+00 -0.11176244525E+04  0.11176244525E+04  0.00000000000E+00 0. -1.
         25    2    1    2    0    0 -0.19986921266E+02  0.33363103994E+02 -0.68137411824E+03  0.69385243944E+03  0.12509174627E+03 0.  0.
         23    2    1    2    0    0  0.19986921266E+02 -0.33363103994E+02 -0.42430165473E+03  0.43572069262E+03  0.91148527363E+02 0.  0.
          5    1    3    3  502    0  0.11260243328E+02  0.73014273354E+02 -0.50340996159E+03  0.50881916142E+03  0.41800000000E+01 0.  1.
         -5    1    3    3    0  502 -0.31247164594E+02 -0.39651169360E+02 -0.17796415664E+03  0.18503327802E+03  0.41800000000E+01 0.  1.
        -11    1    4    4    0    0 -0.35273896208E+02 -0.44687279303E+01 -0.12312801583E+03  0.12815898550E+03  0.00000000000E+00 0.  1.
         11    1    4    4    0    0  0.55260817474E+02 -0.28894376064E+02 -0.30117363890E+03  0.30756170711E+03  0.00000000000E+00 0. -1.
</event>
<event>
 8    1  0.6635152E-009  0.8131498E+02  0.7561462E-02  0.1325361E+00
         -1   -1    0    0    0  501 -0.00000000000E+00  0.00000000000E+00  0.19236062479E+02  0.19236062479E+02  0.00000000000E+00 0.  1.
          1   -1    0    0  501    0  0.00000000000E+00 -0.00000000000E+00 -0.64250077698E+03  0.64250077698E+03  0.00000000000E+00 0. -1.
         25    2    1    2    0    0  0.14893859901E+02  0.72587135294E+00 -0.31075408044E+03  0.33531707162E+03  0.12508831302E+03 0.  0.
         23    2    1    2    0    0 -0.14893859901E+02 -0.72587135294E+00 -0.31251063406E+03  0.32641976784E+03  0.93083910991E+02 0.  0.
          5    1    3    3  502    0 -0.31362327557E+02 -0.65322177621E+01 -0.14595420228E+02  0.35450869528E+02  0.41800000000E+01 0.  1.
         -5    1    3    3    0  502  0.46256187458E+02  0.72580891150E+01 -0.29615866021E+03  0.29986620209E+03  0.41800000000E+01 0.  1.
        -11    1    4    4    0    0 -0.27062801859E+02 -0.36550907622E+02 -0.91338082865E+02  0.10203435438E+03  0.00000000000E+00 0.  1.
         11    1    4    4    0    0  0.12168941959E+02  0.35825036269E+02 -0.22117255119E+03  0.22438541346E+03  0.00000000000E+00 0. -1.
</event>
<event>
 8    1  0.6635152E-009  0.9430541E+02  0.7561462E-02  0.1292748E+00
          2   -1    0    0  501    0  0.00000000000E+00  0.00000000000E+00  0.70395592912E+03  0.70395592912E+03  0.00000000000E+00 0. -1.
         -2   -1    0    0    0  501 -0.00000000000E+00 -0.00000000000E+00 -0.23504166451E+02  0.23504166451E+02  0.00000000000E+00 0.  1.
         25    2    1    2    0    0 -0.33006792226E+02 -0.57544224766E+02  0.36652828061E+03  0.39292819006E+03  0.12509514749E+03 0.  0.
         23    2    1    2    0    0  0.33006792226E+02  0.57544224766E+02  0.31392348206E+03  0.33453190551E+03  0.94672367005E+02 0.  0.
          5    1    3    3  502    0  0.11942209527E+02 -0.44272550378E+01  0.28643301142E+03  0.28674650719E+03  0.41800000000E+01 0.  1.
         -5    1    3    3    0  502 -0.44949001753E+02 -0.53116969728E+02  0.80095269183E+02  0.10618168287E+03  0.41800000000E+01 0.  1.
        -11    1    4    4    0    0  0.50801410788E+02  0.62259971032E+01  0.84714703891E+02  0.98975388018E+02  0.00000000000E+00 0.  1.
         11    1    4    4    0    0 -0.17794618562E+02  0.51318227662E+02  0.22920877817E+03  0.23555651749E+03  0.00000000000E+00 0. -1.
</event>
<event>
 7    1  0.6635152E-009  0.9840937E+02  0.7561462E-02  0.1283677E+00
         -2   -1    0    0    0  501 -0.00000000000E+00  0.00000000000E+00  0.29048651308E+03  0.29048651308E+03  0.00000000000E+00 0. -1.
          2   -1    0    0  501    0  0.00000000000E+00 -0.00000000000E+00 -0.56896368155E+02  0.56896368155E+02  0.00000000000E+00 0.  1.
         23    2    1    2    0    0  0.90412186424E+01  0.60060625182E+02  0.14491542416E+03  0.18239794701E+03  0.92625636746E+02 0.  0.
          5    1    1    2  502    0  0.42729535264E+01  0.24423668765E+02  0.73938604958E+02  0.78097140991E+02  0.41800000000E+01 0.  1.
         -5    1    1    2    0  502 -0.13314172169E+02 -0.84484293947E+02  0.14736115812E+02  0.86887793237E+02  0.41800000000E+01 0.  1.
        -11    1    3    3    0    0 -0.26257944422E+02  0.27483607863E+02  0.10171566943E+02  0.39348305180E+02  0.00000000000E+00 0.  1.
         11    1    3    3    0    0  0.35299163065E+02  0.32577017319E+02  0.13474385721E+03  0.14304964183E+03  0.00000000000E+00 0. -1.
</event>
<event>
 8    1  0.6635152E-009  0.8780466E+02  0.7561462E-02  0.1308257E+00
         -1   -1    0    0    0  501 -0.00000000000E+00  0.00000000000E+00  0.40833596124E+02  0.40833596124E+02  0.00000000000E+00 0.  1.
          1   -1    0    0  501    0  0.00000000000E+00 -0.00000000000E+00 -0.30659805093E+03  0.30659805093E+03  0.00000000000E+00 0. -1.
         25    2    1    2    0    0  0.23535577112E+02  0.12044107791E+01 -0.13653536900E+03  0.18666702286E+03  0.12508915396E+03 0.  0.
         23    2    1    2    0    0 -0.23535577112E+02 -0.12044107791E+01 -0.12922908580E+03  0.16076462419E+03  0.92680816676E+02 0.  0.
          5    1    3    3  502    0 -0.45736342405E+02  0.25133801134E+02 -0.71329456896E+02  0.88480985512E+02  0.41800000000E+01 0. -1.
         -5    1    3    3    0  502  0.69271919518E+02 -0.23929390354E+02 -0.65205912107E+02  0.98186037348E+02  0.41800000000E+01 0. -1.
        -11    1    4    4    0    0 -0.10046556168E+02 -0.22498750645E+02 -0.13301215796E+03  0.13527513162E+03  0.00000000000E+00 0. -1.
         11    1    4    4    0    0 -0.13489020944E+02  0.21294339866E+02  0.37830721588E+01  0.25489492567E+02  0.00000000000E+00 0.  1.
</event>
<event>
 8    1  0.6635152E-009  0.9002021E+02  0.7561462E-02  0.1302803E+00
         -1   -1    0    0    0  501 -0.00000000000E+00  0.00000000000E+00  0.10835785860E+03  0.10835785860E+03  0.00000000000E+00 0.  1.
          1   -1    0    0  501    0  0.00000000000E+00 -0.00000000000E+00 -0.11398162659E+03  0.11398162659E+03  0.00000000000E+00 0. -1.
         25    2    1    2    0    0 -0.68109771512E+01  0.12154696311E+02 -0.12726439165E+02  0.12650539941E+03  0.12509007864E+03 0.  0.
         23    2    1    2    0    0  0.68109771512E+01 -0.12154696311E+02  0.71026711674E+01  0.95834085777E+02  0.94549447416E+02 0.  0.
          5    1    3    3  502    0 -0.23148049473E+02  0.51260068931E+02  0.31919595530E+02  0.64805554083E+02  0.41800000000E+01 0.  1.
         -5    1    3    3    0  502  0.16337072322E+02 -0.39105372620E+02 -0.44646034695E+02  0.61699845330E+02  0.41800000000E+01 0.  1.
        -11    1    4    4    0    0  0.43286889088E+02 -0.10494487623E+02 -0.21493207544E+02  0.49455505335E+02  0.00000000000E+00 0. -1.
         11    1    4    4    0    0 -0.36475911937E+02 -0.16602086886E+01  0.28595878712E+02  0.46378580442E+02  0.00000000000E+00 0.  1.
</event>
<event>
 8    1  0.6635152E-009  0.9985645E+02  0.7561462E-02  0.1280598E+00
         -1   -1    0    0    0  501 -0.00000000000E+00  0.00000000000E+00  0.81576918868E+02  0.81576918868E+02  0.00000000000E+00 0.  1.
          1   -1    0    0  501    0  0.00000000000E+00 -0.00000000000E+00 -0.16868153087E+03  0.16868153087E+03  0.00000000000E+00 0. -1.
         25    2    1    2    0    0  0.19508175697E+02  0.35251490516E+02 -0.75895842539E+02  0.15176719795E+03  0.12509942828E+03 0.  0.
         23    2    1    2    0    0 -0.19508175697E+02 -0.35251490516E+02 -0.11208769465E+02  0.98491251793E+02  0.89172045306E+02 0.  0.
          5    1    3    3  502    0  0.46236437500E+02 -0.28629339721E+02 -0.59035067315E+02  0.80374491093E+02  0.41800000000E+01 0. -1.
         -5    1    3    3    0  502 -0.26728261802E+02  0.63880830237E+02 -0.16860775224E+02  0.71392706854E+02  0.41800000000E+01 0. -1.
        -11    1    4    4    0    0 -0.42299195322E+02 -0.31406459497E+02 -0.36604803940E+02  0.64152157364E+02  0.00000000000E+00 0.  1.
         11    1    4    4    0    0  0.22791019625E+02 -0.38450310198E+01  0.25396034475E+02  0.34339094428E+02  0.00000000000E+00 0. -1.
</event>
<event>
 8    1  0.6635152E-009  0.1389110E+03  0.7561462E-02  0.1214802E+00
          1   -1    0    0  501    0  0.00000000000E+00  0.00000000000E+00  0.27661803785E+03  0.27661803785E+03  0.00000000000E+00 0. -1.
         -1   -1    0    0    0  501 -0.00000000000E+00 -0.00000000000E+00 -0.96704305673E+02  0.96704305673E+02  0.00000000000E+00 0.  1.
         25    2    1    2    0    0  0.10093749733E+03  0.86368839109E+01  0.17419886123E+03  0.23718217141E+03  0.12508862878E+03 0.  0.
         23    2    1    2    0    0 -0.10093749733E+03 -0.86368839109E+01  0.57148709473E+01  0.13614017211E+03  0.90766252430E+02 0.  0.
          5    1    3    3  502    0  0.18385494069E+02  0.50075267861E+02  0.19486453697E+02  0.56945176453E+02  0.41800000000E+01 0. -1.
         -5    1    3    3    0  502  0.82552003266E+02 -0.41438383950E+02  0.15471240753E+03  0.18023699496E+03  0.41800000000E+01 0. -1.
        -11    1    4    4    0    0 -0.17680480284E+02  0.33992257292E+02  0.17016073640E+02  0.41923975253E+02  0.00000000000E+00 0. -1.
         11    1    4    4    0    0 -0.83257017051E+02 -0.42629141203E+02 -0.11301202693E+02  0.94216196857E+02  0.00000000000E+00 0.  1.
</event>
<event>
 8    1  0.6635152E-009  0.8524281E+02  0.7561462E-02  0.1314799E+00
          1   -1    0    0  501    0  0.00000000000E+00  0.00000000000E+00  0.69821084295E+03  0.69821084295E+03  0.00000000000E+00 0. -1.
         -1   -1    0    0    0  501 -0.00000000000E+00 -0.00000000000E+00 -0.23204864611E+02  0.23204864611E+02  0.00000000000E+00 0.  1.
         25    2    1    2    0    0 -0.28315875210E+02  0.11513345429E+02  0.53784990792E+03  0.55304983755E+03  0.12508898214E+03 0.  0.
         23    2    1    2    0    0  0.28315875210E+02 -0.11513345429E+02  0.13715607043E+03  0.16836587002E+03  0.92741213170E+02 0.  0.
          5    1    3    3  502    0  0.18855944680E+02 -0.38990633867E+02  0.90992806259E+02  0.10086118862E+03  0.41800000000E+01 0. -1.
         -5    1    3    3    0  502 -0.47171819890E+02  0.50503979296E+02  0.44685710166E+03  0.45218864893E+03  0.41800000000E+01 0. -1.
        -11    1    4    4    0    0  0.14776567258E+02  0.19168940662E+02 -0.28763555325E+01  0.24373523487E+02  0.00000000000E+00 0.  1.
         11    1    4    4    0    0  0.13539307952E+02 -0.30682286091E+02  0.14003242596E+03  0.14399234653E+03  0.00000000000E+00 0. -1.
</event>
<event>
 8    1  0.6635152E-009  0.1039141E+03  0.7561462E-02  0.1272274E+00
         -2   -1    0    0    0  501 -0.00000000000E+00  0.00000000000E+00  0.19798882541E+02  0.19798882541E+02  0.00000000000E+00 0.  1.
          2   -1    0    0  501    0  0.00000000000E+00 -0.00000000000E+00 -0.25041260260E+04  0.25041260260E+04  0.00000000000E+00 0. -1.
         25    2    1    2    0    0 -0.16605821875E+02  0.86570236662E+02 -0.22722575346E+04  0.22774046252E+04  0.12508942494E+03 0.  0.
         23    2    1    2    0    0  0.16605821875E+02 -0.86570236662E+02 -0.21206960889E+03  0.24652028335E+03  0.89602298481E+02 0.  0.
          5    1    3    3  502    0  0.30334979540E+02  0.17558663781E+02 -0.17722601502E+03  0.18070708469E+03  0.41800000000E+01 0.  1.
         -5    1    3    3    0  502 -0.46940801415E+02  0.69011572881E+02 -0.20950315195E+04  0.20966975405E+04  0.41800000000E+01 0.  1.
        -11    1    4    4    0    0  0.11673443321E+02 -0.30215150659E+02 -0.17704763942E+03  0.17998636402E+03  0.00000000000E+00 0. -1.
         11    1    4    4    0    0  0.49323785541E+01 -0.56355086003E+02 -0.35021969476E+02  0.66533919339E+02  0.00000000000E+00 0.  1.
</event>
<event>
 8    1  0.6635152E-009  0.1461870E+03  0.7561462E-02  0.1205238E+00
         -2   -1    0    0    0  501 -0.00000000000E+00  0.00000000000E+00  0.13728085657E+02  0.13728085657E+02  0.00000000000E+00 0.  1.
          2   -1    0    0  501    0  0.00000000000E+00 -0.00000000000E+00 -0.19802810417E+04  0.19802810417E+04  0.00000000000E+00 0. -1.
         25    2    1    2    0    0  0.70363013270E+01 -0.11116198052E+03 -0.13327699830E+04  0.13432529572E+04  0.12508470750E+03 0.  0.
         23    2    1    2    0    0 -0.70363013270E+01  0.11116198052E+03 -0.63378297306E+03  0.65075617015E+03  0.96934207592E+02 0.  0.
          5    1    3    3  502    0 -0.12657075091E-01  0.17983030566E+02 -0.40379161617E+02  0.44399759475E+02  0.41800000000E+01 0.  1.
         -5    1    3    3    0  502  0.70489584021E+01 -0.12914501108E+03 -0.12923908214E+04  0.12988531978E+04  0.41800000000E+01 0.  1.
        -11    1    4    4    0    0 -0.48092275383E+02  0.78426556079E+02 -0.33540909312E+03  0.34779714116E+03  0.00000000000E+00 0. -1.
         11    1    4    4    0    0  0.41055974056E+02  0.32735424439E+02 -0.29837387994E+03  0.30295902899E+03  0.00000000000E+00 0.  1.
</event>
<event>
 8    1  0.6635152E-009  0.1050490E+03  0.7561462E-02  0.1270023E+00
          2   -1    0    0  501    0  0.00000000000E+00  0.00000000000E+00  0.49364558546E+02  0.49364558546E+02  0.00000000000E+00 0.  1.
         -2   -1    0    0    0  501 -0.00000000000E+00 -0.00000000000E+00 -0.43112451034E+03  0.43112451034E+03  0.00000000000E+00 0. -1.
         25    2    1    2    0    0 -0.51817420554E+02  0.59406564766E+02 -0.30127906051E+03  0.33560434103E+03  0.12508803463E+03 0.  0.
         23    2    1    2    0    0  0.51817420554E+02 -0.59406564766E+02 -0.80480891285E+02  0.14488472785E+03  0.91105573336E+02 0.  0.
          5    1    3    3  502    0  0.22571051459E+02  0.53743628623E+01 -0.18881612541E+03  0.19028225812E+03  0.41800000000E+01 0.  1.
         -5    1    3    3    0  502 -0.74388472013E+02  0.54032201903E+02 -0.11246293510E+03  0.14532208291E+03  0.41800000000E+01 0.  1.
        -11    1    4    4    0    0  0.55124498263E+01 -0.45931045492E+02  0.52122652281E+01  0.46553364560E+02  0.00000000000E+00 0.  1.
         11    1    4    4    0    0  0.46304970728E+02 -0.13475519273E+02 -0.85693156513E+02  0.98331363293E+02  0.00000000000E+00 0. -1.
</event>
<event>
 8    1  0.6635152E-009  0.1076284E+03  0.7561462E-02  0.1265026E+00
         -4   -1    0    0    0  501 -0.00000000000E+00  0.00000000000E+00  0.62203977754E+02  0.62203977754E+02  0.00000000000E+00 0.  1.
          4   -1    0    0  501    0  0.00000000000E+00 -0.00000000000E+00 -0.22842641542E+03  0.22842641542E+03  0.00000000000E+00 0. -1.
         25    2    1    2    0    0  0.13714892849E+02  0.48697036701E+02 -0.12121356799E+03  0.18138275187E+03  0.12508986346E+03 0.  0.
         23    2    1    2    0    0 -0.13714892849E+02 -0.48697036701E+02 -0.45008869669E+02  0.10924764130E+03  0.85730677777E+02 0.  0.
          5    1    3    3  502    0  0.22092015253E+02  0.89496523135E+02 -0.73996331663E+02  0.11828192715E+03  0.41800000000E+01 0. -1.
         -5    1    3    3    0  502 -0.83771224046E+01 -0.40799486434E+02 -0.47217236329E+02  0.63100824714E+02  0.41800000000E+01 0. -1.
        -11    1    4    4    0    0  0.17225553313E+02 -0.47084966393E+02  0.50352220775E+01  0.50389157649E+02  0.00000000000E+00 0.  1.
         11    1    4    4    0    0 -0.30940446162E+02 -0.16120703086E+01 -0.50044091747E+02  0.58858483655E+02  0.00000000000E+00 0. -1.
</event>
<event>
 8    1  0.6635152E-009  0.9736725E+02  0.7561462E-02  0.1285932E+00
         -3   -1    0    0    0  501 -0.00000000000E+00  0.00000000000E+00  0.20039915410E+02  0.20039915410E+02  0.00000000000E+00 0.  1.
          3   -1    0    0  501    0  0.00000000000E+00 -0.00000000000E+00 -0.62661070701E+03  0.62661070701E+03  0.00000000000E+00 0. -1.
         25    2    1    2    0    0 -0.13639103996E+02  0.24643489439E+02 -0.31484708028E+03  0.33995630523E+03  0.12509308045E+03 0.  0.
         23    2    1    2    0    0  0.13639103996E+02 -0.24643489439E+02 -0.29172371132E+03  0.30669431719E+03  0.90362346807E+02 0.  0.
          5    1    3    3  502    0 -0.31424092905E+02  0.64824780287E+02 -0.25847722748E+03  0.26836109122E+03  0.41800000000E+01 0.  1.
         -5    1    3    3    0  502  0.17784988909E+02 -0.40181290848E+02 -0.56369852796E+02  0.71595214009E+02  0.41800000000E+01 0.  1.
        -11    1    4    4    0    0  0.41368415355E+02 -0.48159021959E-01 -0.23710238201E+03  0.24068420734E+03  0.00000000000E+00 0. -1.
         11    1    4    4    0    0 -0.27729311360E+02 -0.24595330417E+02 -0.54621329317E+02  0.66010109855E+02  0.00000000000E+00 0.  1.
</event>
<event>
 8    1  0.6635152E-009  0.1187716E+03  0.7561462E-02  0.1245137E+00
         -1   -1    0    0    0  501 -0.00000000000E+00  0.00000000000E+00  0.21978032059E+03  0.21978032059E+03  0.00000000000E+00 0. -1.
          1   -1    0    0  501    0  0.00000000000E+00 -0.00000000000E+00 -0.15301090937E+03  0.15301090937E+03  0.00000000000E+00 0.  1.
         25    2    1    2    0    0 -0.87392984030E+02 -0.30261279075E+01 -0.86689559466E+02  0.17552430891E+03  0.12508801778E+03 0.  0.
         23    2    1    2    0    0  0.87392984030E+02  0.30261279075E+01  0.15345897069E+03  0.19726692106E+03  0.87851530162E+02 0.  0.
          5    1    3    3  502    0 -0.16241911989E+02  0.35998325684E+02 -0.85482772602E+02  0.94257392118E+02  0.41800000000E+01 0.  1.
         -5    1    3    3    0  502 -0.71151072041E+02 -0.39024453591E+02 -0.12067868635E+01  0.81266916794E+02  0.41800000000E+01 0.  1.
        -11    1    4    4    0    0  0.73036636389E+02  0.35395603914E+02  0.13452617325E+03  0.15711298584E+03  0.00000000000E+00 0. -1.
         11    1    4    4    0    0  0.14356347640E+02 -0.32369476006E+02  0.18932797440E+02  0.40153935217E+02  0.00000000000E+00 0.  1.
</event>
<event>
 8    1  0.6635152E-009  0.7642423E+02  0.7561462E-02  0.1339517E+00
          2   -1    0    0  501    0  0.00000000000E+00  0.00000000000E+00  0.64895872158E+02  0.64895872158E+02  0.00000000000E+00 0. -1.
         -2   -1    0    0    0  501 -0.00000000000E+00 -0.00000000000E+00 -0.25586204958E+03  0.25586204958E+03  0.00000000000E+00 0.  1.
         25    2    1    2    0    0  0.32386982676E+02 -0.53677833939E+02 -0.66809596241E+02  0.15505233800E+03  0.12508988314E+03 0.  0.
         23    2    1    2    0    0 -0.32386982676E+02  0.53677833939E+02 -0.12415658118E+03  0.16570558375E+03  0.90073621721E+02 0.  0.
          5    1    3    3  502    0  0.64345922450E+01 -0.42933929893E+02  0.30801623239E+02  0.53394182339E+02  0.41800000000E+01 0. -1.
         -5    1    3    3    0  502  0.25952390432E+02 -0.10743904046E+02 -0.97611219480E+02  0.10165815566E+03  0.41800000000E+01 0. -1.
        -11    1    4    4    0    0  0.12374233922E+02  0.24377031484E+02 -0.10559812158E+03  0.10907944174E+03  0.00000000000E+00 0.  1.
         11    1    4    4    0    0 -0.44761216598E+02  0.29300802455E+02 -0.18558459608E+02  0.56626142010E+02  0.00000000000E+00 0. -1.
</event>
<event>
 8    1  0.6635152E-009  0.8618697E+02  0.7561462E-02  0.1312357E+00
         -1   -1    0    0    0  501 -0.00000000000E+00  0.00000000000E+00  0.42268879041E+02  0.42268879041E+02  0.00000000000E+00 0.  1.
          1   -1    0    0  501    0  0.00000000000E+00 -0.00000000000E+00 -0.42102362974E+03  0.42102362974E+03  0.00000000000E+00 0. -1.
         25    2    1    2    0    0  0.25152417444E+02  0.64867996953E+02 -0.26230161542E+03  0.29881446646E+03  0.12508975491E+03 0.  0.
         23    2    1    2    0    0 -0.25152417444E+02 -0.64867996953E+02 -0.11645313528E+03  0.16447804232E+03  0.93011787192E+02 0.  0.
          5    1    3    3  502    0 -0.24208082286E+02  0.26781695427E+02 -0.83511826245E+01  0.37289477190E+02  0.41800000000E+01 0.  1.
         -5    1    3    3    0  502  0.49360499730E+02  0.38086301526E+02 -0.25395043279E+03  0.26152498927E+03  0.41800000000E+01 0.  1.
        -11    1    4    4    0    0  0.28248246555E+01 -0.23108624596E+02  0.12250539983E+02  0.26307107309E+02  0.00000000000E+00 0.  1.
         11    1    4    4    0    0 -0.27977242099E+02 -0.41759372357E+02 -0.12870367527E+03  0.13817093501E+03  0.00000000000E+00 0. -1.
</event>
<event>
 8    1  0.6635152E-009  0.2771970E+03  0.7561462E-02  0.1097230E+00
         -1   -1    0    0    0  501 -0.00000000000E+00  0.00000000000E+00  0.65340614776E+02  0.65340614776E+02  0.00000000000E+00 0.  1.
          1   -1    0    0  501    0  0.00000000000E+00 -0.00000000000E+00 -0.15860195200E+04  0.15860195200E+04  0.00000000000E+00 0. -1.
         25    2    1    2    0    0  0.24970849978E+03  0.68559829031E+02 -0.36644604387E+03  0.46581178133E+03  0.12507248916E+03 0.  0.
         23    2    1    2    0    0 -0.24970849978E+03 -0.68559829031E+02 -0.11542328613E+04  0.11855483534E+04  0.78845514179E+02 0.  0.
          5    1    3    3  502    0  0.16272371128E+03 -0.18964390482E+02 -0.21809388899E+03  0.27280225647E+03  0.41800000000E+01 0. -1.
         -5    1    3    3    0  502  0.86984788492E+02  0.87524219513E+02 -0.14835215488E+03  0.19300952487E+03  0.41800000000E+01 0. -1.
        -11    1    4    4    0    0 -0.20903646186E+03 -0.81506606823E+02 -0.10310737685E+04  0.10552026750E+04  0.00000000000E+00 0. -1.
         11    1    4    4    0    0 -0.40672037911E+02  0.12946777792E+02 -0.12315909284E+03  0.13034567838E+03  0.00000000000E+00 0.  1.
</event>
<event>
 8    1  0.6635152E-009  0.1323464E+03  0.7561462E-02  0.1224015E+00
          1   -1    0    0  501    0  0.00000000000E+00  0.00000000000E+00  0.90429825835E+03  0.90429825835E+03  0.00000000000E+00 0. -1.
         -1   -1    0    0    0  501 -0.00000000000E+00 -0.00000000000E+00 -0.21073834433E+02  0.21073834433E+02  0.00000000000E+00 0.  1.
         25    2    1    2    0    0 -0.79927754009E+02 -0.83882296984E+01  0.57871041239E+03  0.59750303616E+03  0.12508128777E+03 0.  0.
         23    2    1    2    0    0  0.79927754009E+02  0.83882296984E+01  0.30451401153E+03  0.32786905663E+03  0.91162090901E+02 0.  0.
          5    1    3    3  502    0  0.27259134494E+02  0.18429137339E+02  0.78535771729E+02  0.85252761583E+02  0.41800000000E+01 0. -1.
         -5    1    3    3    0  502 -0.10718688850E+03 -0.26817367038E+02  0.50017464066E+03  0.51225027457E+03  0.41800000000E+01 0. -1.
        -11    1    4    4    0    0 -0.18573629993E+02  0.12464902784E+02  0.44815669723E+02  0.50087900588E+02  0.00000000000E+00 0.  1.
         11    1    4    4    0    0  0.98501384002E+02 -0.40766730860E+01  0.25969834181E+03  0.27778115604E+03  0.00000000000E+00 0. -1.
</event>
<event>
 8    1  0.6635152E-009  0.7798188E+02  0.7561462E-02  0.1334878E+00
         -1   -1    0    0    0  501 -0.00000000000E+00  0.00000000000E+00  0.61904675892E+02  0.61904675892E+02  0.00000000000E+00 0.  1.
          1   -1    0    0  501    0  0.00000000000E+00 -0.00000000000E+00 -0.27027814690E+03  0.27027814690E+03  0.00000000000E+00 0. -1.
         25    2    1    2    0    0  0.26415325476E+02  0.49770637060E+02 -0.59294301328E+02  0.14944307158E+03  0.12507010730E+03 0.  0.
         23    2    1    2    0    0 -0.26415325476E+02 -0.49770637060E+02 -0.14907916968E+03  0.18273975121E+03  0.89411029003E+02 0.  0.
          5    1    3    3  502    0  0.25168610816E+01 -0.35471975918E+01  0.36588494437E+02  0.37082442282E+02  0.41800000000E+01 0.  1.
         -5    1    3    3    0  502  0.23898464394E+02  0.53317834652E+02 -0.95882795765E+02  0.11236062930E+03  0.41800000000E+01 0.  1.
        -11    1    4    4    0    0 -0.39994197758E+02 -0.23994351430E+00 -0.11328735913E+03  0.12013999820E+03  0.00000000000E+00 0. -1.
         11    1    4    4    0    0  0.13578872282E+02 -0.49530693546E+02 -0.35791810549E+02  0.62599753018E+02  0.00000000000E+00 0.  1.
</event>
<event>
 8    1  0.6635152E-009  0.1428387E+03  0.7561462E-02  0.1209560E+00
         -1   -1    0    0    0  501 -0.00000000000E+00  0.00000000000E+00  0.10411666072E+03  0.10411666072E+03  0.00000000000E+00 0.  1.
          1   -1    0    0  501    0  0.00000000000E+00 -0.00000000000E+00 -0.33990110452E+03  0.33990110452E+03  0.00000000000E+00 0. -1.
         25    2    1    2    0    0  0.12782306296E+03  0.48285132029E+02 -0.20248962888E+03  0.27444564421E+03  0.12509265534E+03 0.  0.
         23    2    1    2    0    0 -0.12782306296E+03 -0.48285132029E+02 -0.33294814932E+02  0.16957212103E+03  0.94741596619E+02 0.  0.
          5    1    3    3  502    0  0.38223174815E+02  0.43503598660E+01 -0.16219051850E+03  0.16674283617E+03  0.41800000000E+01 0.  1.
         -5    1    3    3    0  502  0.89599888150E+02  0.43934772163E+02 -0.40299110381E+02  0.10770280804E+03  0.41800000000E+01 0.  1.
        -11    1    4    4    0    0 -0.10408329436E+03 -0.13453168004E+02 -0.58805246009E+02  0.12030119223E+03  0.00000000000E+00 0. -1.
         11    1    4    4    0    0 -0.23739768602E+02 -0.34831964024E+02  0.25510431077E+02  0.49270928800E+02  0.00000000000E+00 0.  1.
</event>
<event>
 8    1  0.6635152E-009  0.1162377E+03  0.7561462E-02  0.1249436E+00
          1   -1    0    0  501    0  0.00000000000E+00  0.00000000000E+00  0.22376641877E+03  0.22376641877E+03  0.00000000000E+00 0. -1.
         -1   -1    0    0    0  501 -0.00000000000E+00 -0.00000000000E+00 -0.95416427927E+02  0.95416427927E+02  0.00000000000E+00 0.  1.
         25    2    1    2    0    0  0.17838328200E+02 -0.83258729176E+02  0.18027795822E+02  0.15239112771E+03  0.12509129645E+03 0.  0.
         23    2    1    2    0    0 -0.17838328200E+02  0.83258729176E+02  0.11032219502E+03  0.16679171898E+03  0.91642069322E+02 0.  0.
          5    1    3    3  502    0  0.19703779721E+02 -0.10069405227E+03 -0.25044597723E+02  0.10569879551E+03  0.41800000000E+01 0. -1.
         -5    1    3    3    0  502 -0.18654515207E+01  0.17435323092E+02  0.43072393545E+02  0.46692332201E+02  0.41800000000E+01 0. -1.
        -11    1    4    4    0    0  0.24373909236E+02  0.57138982355E+02  0.22800074458E+02  0.66172457649E+02  0.00000000000E+00 0.  1.
         11    1    4    4    0    0 -0.42212237436E+02  0.26119746821E+02  0.87522120560E+02  0.10061926133E+03  0.00000000000E+00 0. -1.
</event>
<event>
 8    1  0.6635152E-009  0.9996939E+02  0.7561462E-02  0.1280360E+00
          2   -1    0    0  501    0  0.00000000000E+00  0.00000000000E+00  0.50862463615E+03  0.50862463615E+03  0.00000000000E+00 0. -1.
         -2   -1    0    0    0  501 -0.00000000000E+00 -0.00000000000E+00 -0.35308173437E+02  0.35308173437E+02  0.00000000000E+00 0.  1.
         25    2    1    2    0    0  0.64317083910E+02  0.28782853848E+02  0.31776991031E+03  0.34869794624E+03  0.12508957532E+03 0.  0.
         23    2    1    2    0    0 -0.64317083910E+02 -0.28782853848E+02  0.15554655240E+03  0.19523486335E+03  0.94640276545E+02 0.  0.
          5    1    3    3  502    0 -0.20646104253E+02  0.27463222878E+02  0.20247480562E+03  0.20541180478E+03  0.41800000000E+01 0. -1.
         -5    1    3    3    0  502  0.84963188162E+02  0.13196309698E+01  0.11529510469E+03  0.14328614146E+03  0.41800000000E+01 0. -1.
        -11    1    4    4    0    0 -0.30363122865E+02 -0.34347601174E+02  0.11676413470E+02  0.47307669231E+02  0.00000000000E+00 0.  1.
         11    1    4    4    0    0 -0.33953961045E+02  0.55647473262E+01  0.14387013893E+03  0.14792719412E+03  0.00000000000E+00 0. -1.
</event>
<event>
 8    1  0.6635152E-009  0.7500829E+02  0.7561462E-02  0.1343845E+00
         -1   -1    0    0    0  501 -0.00000000000E+00  0.00000000000E+00  0.96350304033E+02  0.96350304033E+02  0.00000000000E+00 0.  1.
          1   -1    0    0  501    0  0.00000000000E+00 -0.00000000000E+00 -0.12589914707E+03  0.12589914707E+03  0.00000000000E+00 0. -1.
         25    2    1    2    0    0 -0.14715153922E+02 -0.34521379943E+01 -0.12740137142E+01  0.12601498629E+03  0.12509876357E+03 0.  0.
         23    2    1    2    0    0  0.14715153922E+02  0.34521379943E+01 -0.28274829327E+02  0.96234464816E+02  0.90736724833E+02 0.  0.
          5    1    3    3  502    0  0.24955415201E+02  0.30725263312E+02  0.42067599602E+02  0.57913468984E+02  0.41800000000E+01 0.  1.
         -5    1    3    3    0  502 -0.39670569124E+02 -0.34177401307E+02 -0.43341613316E+02  0.68101517307E+02  0.41800000000E+01 0.  1.
        -11    1    4    4    0    0 -0.19136500898E+02  0.12232876141E+02 -0.50102217073E+02  0.55009827131E+02  0.00000000000E+00 0. -1.
         11    1    4    4    0    0  0.33851654821E+02 -0.87807381472E+01  0.21827387746E+02  0.41224637686E+02  0.00000000000E+00 0.  1.
</event>
<event>
 8    1  0.6635152E-009  0.1012661E+03  0.7561462E-02  0.1277656E+00
         -3   -1    0    0    0  501 -0.00000000000E+00  0.00000000000E+00  0.39613180984E+02  0.39613180984E+02  0.00000000000E+00 0.  1.
          3   -1    0    0  501    0  0.00000000000E+00 -0.00000000000E+00 -0.37635801148E+03  0.37635801148E+03  0.00000000000E+00 0. -1.
         25    2    1    2    0    0 -0.29941880462E+02  0.40378533694E+02 -0.23030836836E+03  0.26686467297E+03  0.12509143438E+03 0.  0.
         23    2    1    2    0    0  0.29941880462E+02 -0.40378533694E+02 -0.10643646214E+03  0.14910651949E+03  0.91526452429E+02 0.  0.
          5    1    3    3  502    0 -0.78366169822E+02  0.23436763294E+02 -0.12192647591E+03  0.14688116412E+03  0.41800000000E+01 0. -1.
         -5    1    3    3    0  502  0.48424289361E+02  0.16941770400E+02 -0.10838189245E+03  0.11998350885E+03  0.41800000000E+01 0. -1.
        -11    1    4    4    0    0  0.10988781177E+02  0.10293420273E+02  0.11767805470E+02  0.19109920415E+02  0.00000000000E+00 0.  1.
         11    1    4    4    0    0  0.18953099285E+02 -0.50671953967E+02 -0.11820426761E+03  0.12999659908E+03  0.00000000000E+00 0. -1.
</event>
<event>
 8    1  0.6635152E-009  0.4921982E+02  0.7561462E-02  0.1449596E+00
          2   -1    0    0  501    0  0.00000000000E+00  0.00000000000E+00  0.30558596324E+03  0.30558596324E+03  0.00000000000E+00 0. -1.
         -2   -1    0    0    0  501 -0.00000000000E+00 -0.00000000000E+00 -0.41671207217E+02  0.41671207217E+02  0.00000000000E+00 0.  1.
         25    2    1    2    0    0 -0.10382713587E+02  0.17082138900E+02  0.14312997937E+03  0.19113580821E+03  0.12508839265E+03 0.  0.
         23    2    1    2    0    0  0.10382713587E+02 -0.17082138900E+02  0.12078477665E+03  0.15612136224E+03  0.96877847147E+02 0.  0.
          5    1    3    3  502    0  0.22866525602E-01 -0.10165996838E+02 -0.21362823598E+02  0.24024792333E+02  0.41800000000E+01 0. -1.
         -5    1    3    3    0  502 -0.10405580112E+02  0.27248135738E+02  0.16449280297E+03  0.16711101588E+03  0.41800000000E+01 0. -1.
        -11    1    4    4    0    0  0.31312824084E+02 -0.56158925848E+00 -0.11166156690E+01  0.31337759415E+02  0.00000000000E+00 0.  1.
         11    1    4    4    0    0 -0.20930110497E+02 -0.16520549641E+02  0.12190139232E+03  0.12478360283E+03  0.00000000000E+00 0. -1.
</event>
<event>
 8    1  0.6635152E-009  0.1394028E+03  0.7561462E-02  0.1214135E+00
         -1   -1    0    0    0  501 -0.00000000000E+00  0.00000000000E+00  0.44663486721E+02  0.44663486721E+02  0.00000000000E+00 0.  1.
          1   -1    0    0  501    0  0.00000000000E+00 -0.00000000000E+00 -0.50690274516E+03  0.50690274516E+03  0.00000000000E+00 0. -1.
         25    2    1    2    0    0 -0.87580389415E+02  0.17810024190E+02 -0.14884602073E+03  0.21398442997E+03  0.12508667718E+03 0.  0.
         23    2    1    2    0    0  0.87580389415E+02 -0.17810024190E+02 -0.31339323770E+03  0.33758180191E+03  0.88083085619E+02 0.  0.
          5    1    3    3  502    0 -0.75578656984E+02  0.67898716859E+02 -0.10562044259E+03  0.14661350359E+03  0.41800000000E+01 0. -1.
         -5    1    3    3    0  502 -0.12001732431E+02 -0.50088692669E+02 -0.43225578139E+02  0.67370926371E+02  0.41800000000E+01 0. -1.
        -11    1    4    4    0    0  0.73150587774E+02  0.27303255304E+02 -0.19096498011E+03  0.20631068773E+03  0.00000000000E+00 0.  1.
         11    1    4    4    0    0  0.14429801641E+02 -0.45113279494E+02 -0.12242825759E+03  0.13127111418E+03  0.00000000000E+00 0. -1.
</event>
<event>
 8    1  0.6635152E-009  0.7754834E+02  0.7561462E-02  0.1336156E+00
          3   -1    0    0  501    0  0.00000000000E+00  0.00000000000E+00  0.75973623896E+02  0.75973623896E+02  0.00000000000E+00 0. -1.
         -3   -1    0    0    0  501 -0.00000000000E+00 -0.00000000000E+00 -0.22329547444E+03  0.22329547444E+03  0.00000000000E+00 0.  1.
         25    2    1    2    0    0 -0.29142500329E+02  0.18343632945E+02 -0.90805891457E+01  0.13004618749E+03  0.12507509579E+03 0.  0.
         23    2    1    2    0    0  0.29142500329E+02 -0.18343632945E+02 -0.13824126140E+03  0.16922291085E+03  0.91323452670E+02 0.  0.
          5    1    3    3  502    0 -0.70281149633E+02  0.32593562634E+01  0.24570188583E+02  0.74640672318E+02  0.41800000000E+01 0. -1.
         -5    1    3    3    0  502  0.41138649304E+02  0.15084276682E+02 -0.33650777729E+02  0.55405515171E+02  0.41800000000E+01 0. -1.
        -11    1    4    4    0    0  0.13148588295E+02  0.34251474332E+01  0.11046340986E+02  0.17511101001E+02  0.00000000000E+00 0. -1.
         11    1    4    4    0    0  0.15993912034E+02 -0.21768780379E+02 -0.14928760238E+03  0.15171180985E+03  0.00000000000E+00 0.  1.
</event>
<event>
 7    1  0.6635152E-009  0.1353946E+03  0.7561462E-02  0.1219664E+00
          2   -1    0    0  501    0  0.00000000000E+00  0.00000000000E+00  0.85980684741E+03  0.85980684741E+03  0.00000000000E+00 0. -1.
         -2   -1    0    0    0  501 -0.00000000000E+00 -0.00000000000E+00 -0.22838561045E+02  0.22838561045E+02  0.00000000000E+00 0.  1.
         23    2    1    2    0    0 -0.74409832838E+02 -0.48831940407E+02  0.35923370812E+03  0.38082245004E+03  0.89752436056E+02 0.  0.
          5    1    1    2  502    0  0.10844166959E+03  0.38144845584E+02  0.31987769494E+03  0.33993210655E+03  0.41800000000E+01 0.  1.
         -5    1    1    2    0  502 -0.34031836752E+02  0.10687094824E+02  0.15785688330E+03  0.16189085186E+03  0.41800000000E+01 0.  1.
        -11    1    3    3    0    0 -0.52165359834E+02  0.13313286799E+02  0.10297625749E+03  0.11620059371E+03  0.00000000000E+00 0.  1.
         11    1    3    3    0    0 -0.22244473004E+02 -0.62145227206E+02  0.25625745064E+03  0.26462185634E+03  0.00000000000E+00 0. -1.
</event>
<event>
 8    1  0.6635152E-009  0.1078700E+03  0.7561462E-02  0.1264566E+00
         -1   -1    0    0    0  501 -0.00000000000E+00  0.00000000000E+00  0.36715549928E+02  0.36715549928E+02  0.00000000000E+00 0.  1.
          1   -1    0    0  501    0  0.00000000000E+00 -0.00000000000E+00 -0.46436101751E+03  0.46436101751E+03  0.00000000000E+00 0. -1.
         25    2    1    2    0    0  0.70771910178E+02 -0.10749081935E+02 -0.23980359581E+03  0.27977698159E+03  0.12508072926E+03 0.  0.
         23    2    1    2    0    0 -0.70771910178E+02  0.10749081935E+02 -0.18784187177E+03  0.22129958584E+03  0.92545836598E+02 0.  0.
          5    1    3    3  502    0  0.10536350681E+03 -0.19729379043E+02 -0.19210878955E+03  0.22003176222E+03  0.41800000000E+01 0. -1.
         -5    1    3    3    0  502 -0.34591596629E+02  0.89802971077E+01 -0.47694806264E+02  0.59745219374E+02  0.41800000000E+01 0. -1.
        -11    1    4    4    0    0 -0.30441297466E+02 -0.10540564885E+01 -0.17460488187E+03  0.17724177950E+03  0.00000000000E+00 0. -1.
         11    1    4    4    0    0 -0.40330612713E+02  0.11803138423E+02 -0.13236989899E+02  0.44057806346E+02  0.00000000000E+00 0.  1.
</event>
<event>
 8    1  0.6635152E-009  0.1239849E+03  0.7561462E-02  0.1236664E+00
         -4   -1    0    0    0  501 -0.00000000000E+00  0.00000000000E+00  0.17989609298E+03  0.17989609298E+03  0.00000000000E+00 0. -1.
          4   -1    0    0  501    0  0.00000000000E+00 -0.00000000000E+00 -0.14000165552E+03  0.14000165552E+03  0.00000000000E+00 0.  1.
         25    2    1    2    0    0  0.97140319778E+02  0.17288979594E+02  0.80477814335E+02  0.17849149126E+03  0.12508950121E+03 0.  0.
         23    2    1    2    0    0 -0.97140319778E+02 -0.17288979594E+02 -0.40583376874E+02  0.14140625724E+03  0.92809312922E+02 0.  0.
          5    1    3    3  502    0  0.88719688119E+02  0.55872161191E+02  0.21057163106E+02  0.10702223121E+03  0.41800000000E+01 0. -1.
         -5    1    3    3    0  502  0.84206316598E+01 -0.38583181597E+02  0.59420651229E+02  0.71469260051E+02  0.41800000000E+01 0. -1.
        -11    1    4    4    0    0 -0.63151915626E+02 -0.25913730185E+02  0.20239583041E+02  0.71199203514E+02  0.00000000000E+00 0. -1.
         11    1    4    4    0    0 -0.33988404153E+02  0.86247505918E+01 -0.60822959915E+02  0.70207053723E+02  0.00000000000E+00 0.  1.
</event>
<event>
 8    1  0.6635152E-009  0.1072626E+03  0.7561462E-02  0.1265725E+00
          2   -1    0    0  501    0  0.00000000000E+00  0.00000000000E+00  0.19988377845E+03  0.19988377845E+03  0.00000000000E+00 0. -1.
         -2   -1    0    0    0  501 -0.00000000000E+00 -0.00000000000E+00 -0.74638574936E+02  0.74638574936E+02  0.00000000000E+00 0.  1.
         25    2    1    2    0    0 -0.41660888494E+02  0.21616563991E+02  0.10542512118E+03  0.17018926391E+03  0.12508806460E+03 0.  0.
         23    2    1    2    0    0  0.41660888494E+02 -0.21616563991E+02  0.19820082333E+02  0.10433308948E+03  0.91047528401E+02 0.  0.
          5    1    3    3  502    0 -0.20694367873E+02  0.64599685874E+02  0.10132700999E+03  0.12200824411E+03  0.41800000000E+01 0.  1.
         -5    1    3    3    0  502 -0.20966520621E+02 -0.42983121883E+02  0.40981111939E+01  0.48181019802E+02  0.41800000000E+01 0.  1.
        -11    1    4    4    0    0  0.68158910831E+02 -0.23231975607E+02  0.26880522324E+02  0.76863022948E+02  0.00000000000E+00 0. -1.
         11    1    4    4    0    0 -0.26498022337E+02  0.16154116154E+01 -0.70604399905E+01  0.27470066533E+02  0.00000000000E+00 0.  1.
</event>
<event>
 8    1  0.6635152E-009  0.1412177E+03  0.7561462E-02  0.1211700E+00
         -1   -1    0    0    0  501 -0.00000000000E+00  0.00000000000E+00  0.32917398393E+02  0.32917398393E+02  0.00000000000E+00 0.  1.
          1   -1    0    0  501    0  0.00000000000E+00 -0.00000000000E+00 -0.61425213585E+03  0.61425213585E+03  0.00000000000E+00 0. -1.
         25    2    1    2    0    0  0.75541710280E+02  0.52095384142E+02 -0.32009281732E+03  0.35570668046E+03  0.12508937518E+03 0.  0.
         23    2    1    2    0    0 -0.75541710280E+02 -0.52095384142E+02 -0.26124192013E+03  0.29146285378E+03  0.91009753640E+02 0.  0.
          5    1    3    3  502    0  0.29016841997E+02  0.90204761313E+02 -0.19684423503E+03  0.21850400763E+03  0.41800000000E+01 0. -1.
         -5    1    3    3    0  502  0.46524868283E+02 -0.38109377171E+02 -0.12324858229E+03  0.13720267284E+03  0.41800000000E+01 0. -1.
        -11    1    4    4    0    0  0.19095145375E+02  0.35992477834E+00 -0.23694835929E+02  0.30433523826E+02  0.00000000000E+00 0.  1.
         11    1    4    4    0    0 -0.94636855656E+02 -0.52455308920E+02 -0.23754708420E+03  0.26102932995E+03  0.00000000000E+00 0. -1.
</event>
<event>
 8    1  0.6635152E-009  0.1644917E+03  0.7561462E-02  0.1183717E+00
          1   -1    0    0  501    0  0.00000000000E+00  0.00000000000E+00  0.13164514073E+04  0.13164514073E+04  0.00000000000E+00 0. -1.
         -1   -1    0    0    0  501 -0.00000000000E+00 -0.00000000000E+00 -0.30477000529E+02  0.30477000529E+02  0.00000000000E+00 0.  1.
         25    2    1    2    0    0  0.11996057772E+03  0.72692556134E+02  0.98330157430E+03  0.10011015143E+04  0.12508999913E+03 0.  0.
         23    2    1    2    0    0 -0.11996057772E+03 -0.72692556134E+02  0.30267283250E+03  0.34582689361E+03  0.91162760416E+02 0.  0.
          5    1    3    3  502    0  0.51085507713E+00 -0.28281892768E+02  0.22627465032E+03  0.22807414629E+03  0.41800000000E+01 0.  1.
         -5    1    3    3    0  502  0.11944972264E+03  0.10097444890E+03  0.75702692399E+03  0.77302736796E+03  0.41800000000E+01 0.  1.
        -11    1    4    4    0    0 -0.92441341623E+02 -0.70614700594E+02  0.14567382058E+03  0.18642075953E+03  0.00000000000E+00 0. -1.
         11    1    4    4    0    0 -0.27519236097E+02 -0.20778555399E+01  0.15699901192E+03  0.15940613408E+03  0.00000000000E+00 0.  1.
</event>
<event>
 8    1  0.6635152E-009  0.1207963E+03  0.7561462E-02  0.1241789E+00
         -2   -1    0    0    0  501 -0.00000000000E+00  0.00000000000E+00  0.28168728317E+02  0.28168728317E+02  0.00000000000E+00 0.  1.
          2   -1    0    0  501    0  0.00000000000E+00 -0.00000000000E+00 -0.60593706630E+03  0.60593706630E+03  0.00000000000E+00 0. -1.
         25    2    1    2    0    0 -0.68369211354E+02 -0.26342967852E+02 -0.30653536760E+03  0.33910669416E+03  0.12514438629E+03 0.  0.
         23    2    1    2    0    0  0.68369211354E+02  0.26342967852E+02 -0.27123297038E+03  0.29499910045E+03  0.89938001029E+02 0.  0.
          5    1    3    3  502    0  0.31983620458E+02 -0.23889574254E+02 -0.12916066850E+03  0.13525388875E+03  0.41800000000E+01 0. -1.
         -5    1    3    3    0  502 -0.10035283181E+03 -0.24533935988E+01 -0.17737469910E+03  0.20385280541E+03  0.41800000000E+01 0. -1.
        -11    1    4    4    0    0  0.60341870965E+02 -0.12243334809E+02 -0.86912828710E+02  0.10651234874E+03  0.00000000000E+00 0.  1.
         11    1    4    4    0    0  0.80273403884E+01  0.38586302662E+02 -0.18432014167E+03  0.18848675171E+03  0.00000000000E+00 0. -1.
</event>
<event>
 8    1  0.6635152E-009  0.1114661E+03  0.7561462E-02  0.1257879E+00
         -1   -1    0    0    0  501 -0.00000000000E+00  0.00000000000E+00  0.25979096463E+02  0.25979096463E+02  0.00000000000E+00 0.  1.
          1   -1    0    0  501    0  0.00000000000E+00 -0.00000000000E+00 -0.57167932850E+03  0.57167932850E+03  0.00000000000E+00 0. -1.
         25    2    1    2    0    0 -0.36683853237E+02 -0.71337377229E+01 -0.20370225555E+03  0.24194604417E+03  0.12508670621E+03 0.  0.
         23    2    1    2    0    0  0.36683853237E+02  0.71337377229E+01 -0.34199797649E+03  0.35571238080E+03  0.90399594170E+02 0.  0.
          5    1    3    3  502    0 -0.79813712191E+02  0.15201004317E+02 -0.13686385325E+03  0.15921835922E+03  0.41800000000E+01 0. -1.
         -5    1    3    3    0  502  0.43129858954E+02 -0.22334742040E+02 -0.66838402297E+02  0.82727684948E+02  0.41800000000E+01 0. -1.
        -11    1    4    4    0    0  0.54814512144E+02 -0.21545998408E+02 -0.15817988035E+03  0.16878902611E+03  0.00000000000E+00 0.  1.
         11    1    4    4    0    0 -0.18130658907E+02  0.28679736131E+02 -0.18381809614E+03  0.18692335469E+03  0.00000000000E+00 0. -1.
</event>
<event>
 8    1  0.6635152E-009  0.6727431E+02  0.7561462E-02  0.1369615E+00
          3   -1    0    0  501    0  0.00000000000E+00  0.00000000000E+00  0.24271107638E+03  0.24271107638E+03  0.00000000000E+00 0. -1.
         -3   -1    0    0    0  501 -0.00000000000E+00 -0.00000000000E+00 -0.42747018778E+02  0.42747018778E+02  0.00000000000E+00 0.  1.
         25    2    1    2    0    0 -0.89975003477E+01 -0.13210965655E+02  0.15641543994E+03  0.20092152530E+03  0.12509270504E+03 0.  0.
         23    2    1    2    0    0  0.89975003477E+01  0.13210965655E+02  0.43548617665E+02  0.84536569855E+02  0.70671528328E+02 0.  0.
          5    1    3    3  502    0 -0.24357984811E+02 -0.34418975926E+02  0.16705783058E+03  0.17234781254E+03  0.41800000000E+01 0.  1.
         -5    1    3    3    0  502  0.15360484463E+02  0.21208010270E+02 -0.10642390646E+02  0.28573712766E+02  0.41800000000E+01 0.  1.
        -11    1    4    4    0    0 -0.27502657542E+02  0.24859087605E+01  0.36624059404E+02  0.45868263990E+02  0.00000000000E+00 0. -1.
         11    1    4    4    0    0  0.36500157890E+02  0.10725056895E+02  0.69245582614E+01  0.38668305865E+02  0.00000000000E+00 0.  1.
</event>
<event>
 8    1  0.6635152E-009  0.1260207E+03  0.7561462E-02  0.1233483E+00
         -2   -1    0    0    0  501 -0.00000000000E+00  0.00000000000E+00  0.52415742731E+02  0.52415742731E+02  0.00000000000E+00 0.  1.
          2   -1    0    0  501    0  0.00000000000E+00 -0.00000000000E+00 -0.33089173834E+03  0.33089173834E+03  0.00000000000E+00 0. -1.
         25    2    1    2    0    0  0.41113005978E+02  0.60740025957E+02 -0.16818284806E+03  0.22205988128E+03  0.12508193505E+03 0.  0.
         23    2    1    2    0    0 -0.41113005978E+02 -0.60740025957E+02 -0.11029314755E+03  0.16124759980E+03  0.91959665235E+02 0.  0.
          5    1    3    3  502    0  0.82844304510E+02  0.34116482550E+02 -0.13585004589E+03  0.16278765475E+03  0.41800000000E+01 0.  1.
         -5    1    3    3    0  502 -0.41731298532E+02  0.26623543407E+02 -0.32332802169E+02  0.59272226521E+02  0.41800000000E+01 0.  1.
        -11    1    4    4    0    0 -0.65506201448E+02 -0.26570575900E+02 -0.45585570487E+02  0.84113626532E+02  0.00000000000E+00 0.  1.
         11    1    4    4    0    0  0.24393195470E+02 -0.34169450057E+02 -0.64707577060E+02  0.77133973263E+02  0.00000000000E+00 0. -1.
</event>
<event>
 8    1  0.6635152E-009  0.1207389E+03  0.7561462E-02  0.1241883E+00
         -1   -1    0    0    0  501 -0.00000000000E+00  0.00000000000E+00  0.68234506147E+02  0.68234506147E+02  0.00000000000E+00 0.  1.
          1   -1    0    0  501    0  0.00000000000E+00 -0.00000000000E+00 -0.46481259614E+03  0.46481259614E+03  0.00000000000E+00 0. -1.
         25    2    1    2    0    0 -0.39837716283E+02 -0.10218153773E+03 -0.34284061942E+03  0.38106882932E+03  0.12508258099E+03 0.  0.
         23    2    1    2    0    0  0.39837716283E+02  0.10218153773E+03 -0.53737470580E+02  0.15197827297E+03  0.90452028271E+02 0.  0.
          5    1    3    3  502    0 -0.36554505501E+02 -0.40675219107E+02 -0.30224680095E+03  0.30718285500E+03  0.41800000000E+01 0.  1.
         -5    1    3    3    0  502 -0.32832107818E+01 -0.61506318624E+02 -0.40593818469E+02  0.73885974323E+02  0.41800000000E+01 0.  1.
        -11    1    4    4    0    0  0.36984405925E+01  0.84645542417E+02 -0.68734631789E+02  0.10910085206E+03  0.00000000000E+00 0. -1.
         11    1    4    4    0    0  0.36139275690E+02  0.17535995315E+02  0.14997161209E+02  0.42877420905E+02  0.00000000000E+00 0.  1.
</event>
<event>
 8    1  0.6635152E-009  0.1182494E+03  0.7561462E-02  0.1246013E+00
          3   -1    0    0  501    0  0.00000000000E+00  0.00000000000E+00  0.17740590632E+03  0.17740590632E+03  0.00000000000E+00 0. -1.
         -3   -1    0    0    0  501 -0.00000000000E+00 -0.00000000000E+00 -0.15153472589E+03  0.15153472589E+03  0.00000000000E+00 0.  1.
         25    2    1    2    0    0 -0.41794191899E+02 -0.95741251184E+02  0.75858200473E+02  0.17976368868E+03  0.12508947011E+03 0.  0.
         23    2    1    2    0    0  0.41794191899E+02  0.95741251184E+02 -0.49987020041E+02  0.14917694353E+03  0.94031466297E+02 0.  0.
          5    1    3    3  502    0 -0.37752625540E+02 -0.10766202139E+03  0.12288719666E+02  0.11482533090E+03  0.41800000000E+01 0.  1.
         -5    1    3    3    0  502 -0.40415663597E+01  0.11920770207E+02  0.63569480807E+02  0.64938357779E+02  0.41800000000E+01 0.  1.
        -11    1    4    4    0    0 -0.32358572834E+01  0.25027470530E+02 -0.59668628311E+02  0.64785725727E+02  0.00000000000E+00 0.  1.
         11    1    4    4    0    0  0.45030049183E+02  0.70713780654E+02  0.96816082697E+01  0.84391217804E+02  0.00000000000E+00 0. -1.
</event>
<event>
 8    1  0.6635152E-009  0.6880798E+02  0.7561462E-02  0.1364194E+00
         -1   -1    0    0    0  501 -0.00000000000E+00  0.00000000000E+00  0.20916749727E+02  0.20916749727E+02  0.00000000000E+00 0.  1.
          1   -1    0    0  501    0  0.00000000000E+00 -0.00000000000E+00 -0.62961053348E+03  0.62961053348E+03  0.00000000000E+00 0. -1.
         25    2    1    2    0    0  0.25807091762E+02  0.36651194610E+02 -0.33930618601E+03  0.36437758490E+03  0.12503207775E+03 0.  0.
         23    2    1    2    0    0 -0.25807091762E+02 -0.36651194610E+02 -0.26938759775E+03  0.28614969831E+03  0.85455578918E+02 0.  0.
          5    1    3    3  502    0 -0.66698502023E+00 -0.53477003231E+01 -0.30214722210E+03  0.30222418664E+03  0.41800000000E+01 0.  1.
         -5    1    3    3    0  502  0.26474076782E+02  0.41998894933E+02 -0.37158963909E+02  0.62153398265E+02  0.41800000000E+01 0.  1.
        -11    1    4    4    0    0  0.14719493014E+02  0.11032025565E+02 -0.13754853781E+02  0.22968784582E+02  0.00000000000E+00 0.  1.
         11    1    4    4    0    0 -0.40526584776E+02 -0.47683220175E+02 -0.25563274397E+03  0.26318091373E+03  0.00000000000E+00 0. -1.
</event>
<event>
 8    1  0.6635152E-009  0.1090693E+03  0.7561462E-02  0.1262303E+00
         -1   -1    0    0    0  501 -0.00000000000E+00  0.00000000000E+00  0.50226543716E+02  0.50226543716E+02  0.00000000000E+00 0.  1.
          1   -1    0    0  501    0  0.00000000000E+00 -0.00000000000E+00 -0.30380049577E+03  0.30380049577E+03  0.00000000000E+00 0. -1.
         25    2    1    2    0    0 -0.30449813850E+02  0.52477680527E+01 -0.73963799185E+02  0.14856860496E+03  0.12508899455E+03 0.  0.
         23    2    1    2    0    0  0.30449813850E+02 -0.52477680527E+01 -0.17961015286E+03  0.20545843452E+03  0.94861114640E+02 0.  0.
          5    1    3    3  502    0 -0.63530621890E+02 -0.34421131478E+02 -0.23144723088E+02  0.75987530666E+02  0.41800000000E+01 0.  1.
         -5    1    3    3    0  502  0.33080808039E+02  0.39668899531E+02 -0.50819076097E+02  0.72581074295E+02  0.41800000000E+01 0.  1.
        -11    1    4    4    0    0  0.53032431161E+02  0.22974767038E+02 -0.74388003478E+02  0.94201134477E+02  0.00000000000E+00 0.  1.
         11    1    4    4    0    0 -0.22582617311E+02 -0.28222535090E+02 -0.10522214939E+03  0.11125730004E+03  0.00000000000E+00 0. -1.
</event>
<event>
 8    1  0.6635152E-009  0.9712022E+02  0.7561462E-02  0.1286471E+00
          1   -1    0    0  501    0  0.00000000000E+00  0.00000000000E+00  0.35351275045E+03  0.35351275045E+03  0.00000000000E+00 0. -1.
         -1   -1    0    0    0  501 -0.00000000000E+00 -0.00000000000E+00 -0.40405446698E+02  0.40405446698E+02  0.00000000000E+00 0.  1.
         25    2    1    2    0    0  0.42855106407E+02 -0.15119990978E+02  0.20750008078E+03  0.24651070320E+03  0.12508424760E+03 0.  0.
         23    2    1    2    0    0 -0.42855106407E+02  0.15119990978E+02  0.10560722298E+03  0.14740749394E+03  0.92254590422E+02 0.  0.
          5    1    3    3  502    0 -0.15855903286E+02 -0.36697284355E+02  0.16724922406E+03  0.17201126619E+03  0.41800000000E+01 0. -1.
         -5    1    3    3    0  502  0.58711009694E+02  0.21577293376E+02  0.40250856718E+02  0.74499437013E+02  0.41800000000E+01 0. -1.
        -11    1    4    4    0    0  0.17295975690E+02  0.24999317919E+02  0.71181799566E+02  0.77401325964E+02  0.00000000000E+00 0. -1.
         11    1    4    4    0    0 -0.60151082098E+02 -0.98793269411E+01  0.34425423409E+02  0.70006167980E+02  0.00000000000E+00 0.  1.
</event>
<event>
 8    1  0.6635152E-009  0.1483806E+03  0.7561462E-02  0.1202477E+00
          1   -1    0    0  501    0  0.00000000000E+00  0.00000000000E+00  0.17391498639E+03  0.17391498639E+03  0.00000000000E+00 0. -1.
         -1   -1    0    0    0  501 -0.00000000000E+00 -0.00000000000E+00 -0.15960880625E+03  0.15960880625E+03  0.00000000000E+00 0.  1.
         25    2    1    2    0    0  0.11439863930E+03 -0.27732120977E+02 -0.31389958902E+02  0.17461224888E+03  0.12509192112E+03 0.  0.
         23    2    1    2    0    0 -0.11439863930E+03  0.27732120977E+02  0.45696139041E+02  0.15891154376E+03  0.96481202367E+02 0.  0.
          5    1    3    3  502    0  0.31912256820E+02  0.48252879415E+02 -0.21843736940E+02  0.61978655605E+02  0.41800000000E+01 0. -1.
         -5    1    3    3    0  502  0.82486382482E+02 -0.75985000392E+02 -0.95462219618E+01  0.11263359327E+03  0.41800000000E+01 0. -1.
        -11    1    4    4    0    0 -0.28572570632E+02  0.28978887709E+02 -0.24956155798E+02  0.47738636738E+02  0.00000000000E+00 0.  1.
         11    1    4    4    0    0 -0.85826068670E+02 -0.12467667316E+01  0.70652294839E+02  0.11117290703E+03  0.00000000000E+00 0. -1.
</event>
<event>
 8    1  0.6635152E-009  0.8747116E+02  0.7561462E-02  0.1309094E+00
          1   -1    0    0  501    0  0.00000000000E+00  0.00000000000E+00  0.31098605357E+02  0.31098605357E+02  0.00000000000E+00 0. -1.
         -1   -1    0    0    0  501 -0.00000000000E+00 -0.00000000000E+00 -0.56001436264E+03  0.56001436264E+03  0.00000000000E+00 0.  1.
         25    2    1    2    0    0  0.33369303238E+02 -0.67070734344E+01 -0.45293591342E+03  0.47112376494E+03  0.12509262565E+03 0.  0.
         23    2    1    2    0    0 -0.33369303238E+02  0.67070734344E+01 -0.75979843863E+02  0.11998920306E+03  0.86405884894E+02 0.  0.
          5    1    3    3  502    0  0.18881100546E+02 -0.44806328977E+02 -0.66307629981E+02  0.82330293743E+02  0.41800000000E+01 0.  1.
         -5    1    3    3    0  502  0.14488202692E+02  0.38099255543E+02 -0.38662828344E+03  0.38879347119E+03  0.41800000000E+01 0.  1.
        -11    1    4    4    0    0  0.24175197244E+01  0.37728308006E+02 -0.58200443472E+02  0.69401449891E+02  0.00000000000E+00 0.  1.
         11    1    4    4    0    0 -0.35786822962E+02 -0.31021234572E+02 -0.17779400390E+02  0.50587753166E+02  0.00000000000E+00 0. -1.
</event>
<event>
 8    1  0.6635152E-009  0.2500693E+03  0.7561462E-02  0.1113261E+00
         -2   -1    0    0    0  501 -0.00000000000E+00  0.00000000000E+00  0.39104654554E+03  0.39104654554E+03  0.00000000000E+00 0.  1.
          2   -1    0    0  501    0  0.00000000000E+00 -0.00000000000E+00 -0.19625587414E+03  0.19625587414E+03  0.00000000000E+00 0. -1.
         25    2    1    2    0    0 -0.21525102048E+03  0.96929091701E+02 -0.12322218448E+01  0.26716562161E+03  0.12509076850E+03 0.  0.
         23    2    1    2    0    0  0.21525102048E+03 -0.96929091701E+02  0.19602289324E+03  0.32013679807E+03  0.91292629311E+02 0.  0.
          5    1    3    3  502    0 -0.11806696360E+02 -0.12428467664E+02 -0.29558362882E+02  0.34424324302E+02  0.41800000000E+01 0. -1.
         -5    1    3    3    0  502 -0.20344432412E+03  0.10935755936E+03  0.28326141037E+02  0.23274129731E+03  0.41800000000E+01 0. -1.
        -11    1    4    4    0    0  0.15675691450E+03 -0.11005653410E+03  0.16409940083E+03  0.25221773192E+03  0.00000000000E+00 0.  1.
         11    1    4    4    0    0  0.58494105988E+02  0.13127442401E+02  0.31923492414E+02  0.67919066154E+02  0.00000000000E+00 0. -1.
</event>
<event>
 8    1  0.6635152E-009  0.1381689E+03  0.7561462E-02  0.1215814E+00
         -1   -1    0    0    0  501 -0.00000000000E+00  0.00000000000E+00  0.14108429810E+03  0.14108429810E+03  0.00000000000E+00 0.  1.
          1   -1    0    0  501    0  0.00000000000E+00 -0.00000000000E+00 -0.18911275771E+03  0.18911275771E+03  0.00000000000E+00 0. -1.
         25    2    1    2    0    0  0.23058593963E+02  0.11799224783E+03 -0.48567349864E+02  0.18016968100E+03  0.12509379352E+03 0.  0.
         23    2    1    2    0    0 -0.23058593963E+02 -0.11799224783E+03  0.53889025464E+00  0.15002737480E+03  0.89744378555E+02 0.  0.
          5    1    3    3  502    0 -0.47430543623E+01 -0.12252119970E+02 -0.44798722356E+02  0.46872261874E+02  0.41800000000E+01 0.  1.
         -5    1    3    3    0  502  0.27801648325E+02  0.13024436780E+03 -0.37686275075E+01  0.13329741913E+03  0.41800000000E+01 0.  1.
        -11    1    4    4    0    0 -0.16264239302E+02 -0.63533907439E+01 -0.29444626572E+02  0.34232690341E+02  0.00000000000E+00 0. -1.
         11    1    4    4    0    0 -0.67943546611E+01 -0.11163885709E+03  0.29983516827E+02  0.11579468446E+03  0.00000000000E+00 0.  1.
</event>
<event>
 8    1  0.6635152E-009  0.1109454E+03  0.7561462E-02  0.1258829E+00
         -2   -1    0    0    0  501 -0.00000000000E+00  0.00000000000E+00  0.75199039727E+02  0.75199039727E+02  0.00000000000E+00 0.  1.
          2   -1    0    0  501    0  0.00000000000E+00 -0.00000000000E+00 -0.26116159810E+03  0.26116159810E+03  0.00000000000E+00 0. -1.
         25    2    1    2    0    0 -0.81762445579E+02 -0.22625691937E+02 -0.12366108498E+03  0.19528655190E+03  0.12509098277E+03 0.  0.
         23    2    1    2    0    0  0.81762445579E+02  0.22625691937E+02 -0.62301473393E+02  0.14107408593E+03  0.93932979782E+02 0.  0.
          5    1    3    3  502    0 -0.23646281253E+02  0.12716410200E+02  0.21680606899E+02  0.34761686107E+02  0.41800000000E+01 0. -1.
         -5    1    3    3    0  502 -0.58116164326E+02 -0.35342102137E+02 -0.14534169187E+03  0.16052486579E+03  0.41800000000E+01 0. -1.
        -11    1    4    4    0    0 -0.13202304526E+02 -0.18793395936E+02 -0.11430827735E+02  0.25654559016E+02  0.00000000000E+00 0. -1.
         11    1    4    4    0    0  0.94964750105E+02  0.41419087873E+02 -0.50870645658E+02  0.11541952691E+03  0.00000000000E+00 0.  1.
</event>
<event>
 8    1  0.6635152E-009  0.1260608E+03  0.7561462E-02  0.1233421E+00
         -1   -1    0    0    0  501 -0.00000000000E+00  0.00000000000E+00  0.30980546915E+03  0.30980546915E+03  0.00000000000E+00 0.  1.
          1   -1    0    0  501    0  0.00000000000E+00 -0.00000000000E+00 -0.93269824928E+02  0.93269824928E+02  0.00000000000E+00 0. -1.
         25    2    1    2    0    0  0.34395420707E+02 -0.10215329591E+03  0.20119337046E+03  0.26027738284E+03  0.12508877995E+03 0.  0.
         23    2    1    2    0    0 -0.34395420707E+02  0.10215329591E+03  0.15342273767E+02  0.14279791124E+03  0.92398686460E+02 0.  0.
          5    1    3    3  502    0  0.87966038486E+01 -0.66597259779E+02  0.15004945111E+02  0.68957929400E+02  0.41800000000E+01 0. -1.
         -5    1    3    3    0  502  0.25598816859E+02 -0.35556036134E+02  0.18618842535E+03  0.19131945344E+03  0.41800000000E+01 0. -1.
        -11    1    4    4    0    0  0.25248783442E+02  0.66934877427E+02 -0.13407564062E+01  0.71551215987E+02  0.00000000000E+00 0.  1.
         11    1    4    4    0    0 -0.59644204149E+02  0.35218418487E+02  0.16683030173E+02  0.71246695257E+02  0.00000000000E+00 0. -1.
</event>
<event>
 8    1  0.6635152E-009  0.1539358E+03  0.7561462E-02  0.1195718E+00
          1   -1    0    0  501    0  0.00000000000E+00  0.00000000000E+00  0.69496319221E+03  0.69496319221E+03  0.00000000000E+00 0. -1.
         -1   -1    0    0    0  501 -0.00000000000E+00 -0.00000000000E+00 -0.39622894948E+02  0.39622894948E+02  0.00000000000E+00 0.  1.
         25    2    1    2    0    0 -0.85918744375E+02  0.90949904393E+02  0.28270569453E+03  0.33349942342E+03  0.12508173311E+03 0.  0.
         23    2    1    2    0    0  0.85918744375E+02 -0.90949904393E+02  0.37263460274E+03  0.40108666374E+03  0.79749914929E+02 0.  0.
          5    1    3    3  502    0 -0.92953615121E+02  0.10458082349E+02  0.17855155346E+03  0.20161318333E+03  0.41800000000E+01 0. -1.
         -5    1    3    3    0  502  0.70348707460E+01  0.80491822044E+02  0.10415414106E+03  0.13188624008E+03  0.41800000000E+01 0. -1.
        -11    1    4    4    0    0  0.45413477774E+02 -0.78961222787E+02  0.15836650209E+03  0.18269430110E+03  0.00000000000E+00 0.  1.
         11    1    4    4    0    0  0.40505266601E+02 -0.11988681605E+02  0.21426810064E+03  0.21839236265E+03  0.00000000000E+00 0. -1.
</event>
<event>
 7    1  0.6635152E-009  0.1896144E+03  0.7561462E-02  0.1158810E+00
          3   -1    0    0  501    0  0.00000000000E+00  0.00000000000E+00  0.78420427097E+02  0.78420427097E+02  0.00000000000E+00 0. -1.
         -3   -1    0    0    0  501 -0.00000000000E+00 -0.00000000000E+00 -0.71943318529E+03  0.71943318529E+03  0.00000000000E+00 0.  1.
         25    2    1    2    0    0 -0.76358457460E+02  0.15247343558E+03 -0.26521852101E+03  0.33921573901E+03  0.12509073156E+03 0.  0.
          5    1    3    3  502    0 -0.21773352800E+02  0.86129746522E+02 -0.22940788285E+03  0.24604442940E+03  0.41800000000E+01 0. -1.
         -5    1    3    3    0  502 -0.54585104660E+02  0.66343689053E+02 -0.35810638162E+02  0.93171309605E+02  0.41800000000E+01 0. -1.
        -11    1    1    2    0    0  0.10145829309E+03 -0.85246353902E+02 -0.36209502169E+03  0.38558206756E+03  0.00000000000E+00 0.  1.
         11    1    1    2    0    0 -0.25099835634E+02 -0.67227081673E+02 -0.13699215499E+02  0.73055805823E+02  0.00000000000E+00 0. -1.
</event>
<event>
 8    1  0.6635152E-009  0.8960546E+02  0.7561462E-02  0.1303810E+00
         -1   -1    0    0    0  501 -0.00000000000E+00  0.00000000000E+00  0.66595001383E+02  0.66595001383E+02  0.00000000000E+00 0.  1.
          1   -1    0    0  501    0  0.00000000000E+00 -0.00000000000E+00 -0.21166537629E+03  0.21166537629E+03  0.00000000000E+00 0. -1.
         25    2    1    2    0    0 -0.57913459996E+01  0.31213088596E+02 -0.39236684286E+02  0.13488899613E+03  0.12509087614E+03 0.  0.
         23    2    1    2    0    0  0.57913459996E+01 -0.31213088596E+02 -0.10583369062E+03  0.14337138155E+03  0.91360748620E+02 0.  0.
          5    1    3    3  502    0  0.10194478409E+02  0.71481452183E+02 -0.52517190367E+02  0.89381503010E+02  0.41800000000E+01 0.  1.
         -5    1    3    3    0  502 -0.15985824408E+02 -0.40268363587E+02  0.13280506081E+02  0.45507493117E+02  0.41800000000E+01 0.  1.
        -11    1    4    4    0    0  0.10259153025E+02  0.14315184868E+02  0.89875127354E+01  0.19772458718E+02  0.00000000000E+00 0.  1.
         11    1    4    4    0    0 -0.44678070252E+01 -0.45528273464E+02 -0.11482120336E+03  0.12359892283E+03  0.00000000000E+00 0. -1.
</event>
<event>
 8    1  0.6635152E-009  0.1026592E+03  0.7561462E-02  0.1274801E+00
          1   -1    0    0  501    0  0.00000000000E+00  0.00000000000E+00  0.80016130098E+02  0.80016130098E+02  0.00000000000E+00 0. -1.
         -1   -1    0    0    0  501 -0.00000000000E+00 -0.00000000000E+00 -0.29667259807E+03  0.29667259807E+03  0.00000000000E+00 0.  1.
         25    2    1    2    0    0  0.93298628293E+02 -0.14548790462E+02 -0.51165526271E+02  0.16487239834E+03  0.12509474534E+03 0.  0.
         23    2    1    2    0    0 -0.93298628293E+02  0.14548790462E+02 -0.16549094170E+03  0.21181632983E+03  0.92534342003E+02 0.  0.
          5    1    3    3  502    0  0.32667883900E+02 -0.30345449900E+02  0.35989531631E+02  0.57452204093E+02  0.41800000000E+01 0. -1.
         -5    1    3    3    0  502  0.60630744393E+02  0.15796659438E+02 -0.87155057902E+02  0.10742019425E+03  0.41800000000E+01 0. -1.
        -11    1    4    4    0    0 -0.28510028251E+02 -0.71904466153E+01  0.34235642784E+01  0.29601436211E+02  0.00000000000E+00 0. -1.
         11    1    4    4    0    0 -0.64788600042E+02  0.21739237077E+02 -0.16891450598E+03  0.18221489361E+03  0.00000000000E+00 0.  1.
</event>
<event>
 8    1  0.6635152E-009  0.1010179E+03  0.7561462E-02  0.1278170E+00
          2   -1    0    0  501    0  0.00000000000E+00  0.00000000000E+00  0.49506905268E+02  0.49506905268E+02  0.00000000000E+00 0. -1.
         -2   -1    0    0    0  501 -0.00000000000E+00 -0.00000000000E+00 -0.37195276551E+03  0.37195276551E+03  0.00000000000E+00 0.  1.
         25    2    1    2    0    0  0.51980203959E+01 -0.57595126839E+02 -0.26454347901E+03  0.29828513102E+03  0.12508616650E+03 0.  0.
         23    2    1    2    0    0 -0.51980203959E+01  0.57595126839E+02 -0.57902381237E+02  0.12317453976E+03  0.92060107759E+02 0.  0.
          5    1    3    3  502    0  0.34914998001E+02 -0.86225387339E+02 -0.15101178336E+03  0.17741450228E+03  0.41800000000E+01 0.  1.
         -5    1    3    3    0  502 -0.29716977605E+02  0.28630260500E+02 -0.11353169565E+03  0.12087062874E+03  0.41800000000E+01 0.  1.
        -11    1    4    4    0    0  0.12816087795E+02  0.40964756002E+02  0.15616599003E+02  0.45675392774E+02  0.00000000000E+00 0. -1.
         11    1    4    4    0    0 -0.18014108191E+02  0.16630370837E+02 -0.73518980239E+02  0.77499146986E+02  0.00000000000E+00 0.  1.
</event>
<event>
 8    1  0.6635152E-009  0.1232304E+03  0.7561462E-02  0.1237861E+00
         -1   -1    0    0    0  501 -0.00000000000E+00  0.00000000000E+00  0.30009971920E+02  0.30009971920E+02  0.00000000000E+00 0.  1.
          1   -1    0    0  501    0  0.00000000000E+00 -0.00000000000E+00 -0.74271926102E+03  0.74271926102E+03  0.00000000000E+00 0. -1.
         25    2    1    2    0    0 -0.43965200427E+02 -0.89600397547E+02 -0.44620074730E+03  0.47402965029E+03  0.12509129618E+03 0.  0.
         23    2    1    2    0    0  0.43965200427E+02  0.89600397547E+02 -0.26650854180E+03  0.29869958264E+03  0.90738457828E+02 0.  0.
          5    1    3    3  502    0 -0.67072926530E+02 -0.85710671574E+02 -0.20936306816E+03  0.23599886315E+03  0.41800000000E+01 0.  1.
         -5    1    3    3    0  502  0.23107726103E+02 -0.38897259727E+01 -0.23683767913E+03  0.23803078715E+03  0.41800000000E+01 0.  1.
        -11    1    4    4    0    0 -0.89392522748E+01  0.40800297811E+02 -0.29849334293E+02  0.51337679052E+02  0.00000000000E+00 0.  1.
         11    1    4    4    0    0  0.52904452702E+02  0.48800099736E+02 -0.23665920751E+03  0.24736190359E+03  0.00000000000E+00 0. -1.
</event>
<event>
 8    1  0.6635152E-009  0.7415233E+02  0.7561462E-02  0.1346516E+00
          1   -1    0    0  501    0  0.00000000000E+00  0.00000000000E+00  0.39793206886E+03  0.39793206886E+03  0.00000000000E+00 0. -1.
         -1   -1    0    0    0  501 -0.00000000000E+00 -0.00000000000E+00 -0.29859621093E+02  0.29859621093E+02  0.00000000000E+00 0.  1.
         25    2    1    2    0    0 -0.51685487777E+01  0.98810871535E+01  0.21255995657E+03  0.24688871206E+03  0.12509177121E+03 0.  0.
         23    2    1    2    0    0  0.51685487777E+01 -0.98810871535E+01  0.15551249120E+03  0.18090297790E+03  0.91746404360E+02 0.  0.
          5    1    3    3  502    0 -0.15057560951E+02  0.47853631081E+02  0.26891206953E+02  0.57072844338E+02  0.41800000000E+01 0.  1.
         -5    1    3    3    0  502  0.98890121729E+01 -0.37972543928E+02  0.18566874962E+03  0.18981586772E+03  0.41800000000E+01 0.  1.
        -11    1    4    4    0    0 -0.17039024846E+02  0.16705157280E+02  0.14156092275E+03  0.14355795170E+03  0.00000000000E+00 0. -1.
         11    1    4    4    0    0  0.22207573624E+02 -0.26586244433E+02  0.13951568453E+02  0.37345026197E+02  0.00000000000E+00 0.  1.
</event>
<event>
 8    1  0.6635152E-009  0.2416438E+03  0.7561462E-02  0.1118703E+00
         -2   -1    0    0    0  501 -0.00000000000E+00  0.00000000000E+00  0.49677864873E+03  0.49677864873E+03  0.00000000000E+00 0.  1.
          2   -1    0    0  501    0  0.00000000000E+00 -0.00000000000E+00 -0.23497098835E+03  0.23497098835E+03  0.00000000000E+00 0. -1.
         25    2    1    2    0    0 -0.54732511464E+02 -0.20957282769E+03 -0.12492561148E+03  0.27958917232E+03  0.12508908408E+03 0.  0.
         23    2    1    2    0    0  0.54732511464E+02  0.20957282769E+03  0.38673327185E+03  0.45216046476E+03  0.89275105248E+02 0.  0.
          5    1    3    3  502    0 -0.83851726342E+01  0.16303654037E+02 -0.41454654744E+01  0.19255584620E+02  0.41800000000E+01 0.  1.
         -5    1    3    3    0  502 -0.46347338830E+02 -0.22587648173E+03 -0.12078014600E+03  0.26033358770E+03  0.41800000000E+01 0.  1.
        -11    1    4    4    0    0  0.48324952320E+01  0.17028355677E+03  0.29336992515E+03  0.33924291547E+03  0.00000000000E+00 0.  1.
         11    1    4    4    0    0  0.49900016232E+02  0.39289270921E+02  0.93363346703E+02  0.11291754929E+03  0.00000000000E+00 0. -1.
</event>
<event>
 8    1  0.6635152E-009  0.1071792E+03  0.7561462E-02  0.1265885E+00
         -1   -1    0    0    0  501 -0.00000000000E+00  0.00000000000E+00  0.23377348785E+03  0.23377348785E+03  0.00000000000E+00 0.  1.
          1   -1    0    0  501    0  0.00000000000E+00 -0.00000000000E+00 -0.12772402543E+03  0.12772402543E+03  0.00000000000E+00 0. -1.
         25    2    1    2    0    0 -0.52052906685E+02  0.75570015254E+02  0.15810413527E+03  0.22150533022E+03  0.12508941373E+03 0.  0.
         23    2    1    2    0    0  0.52052906685E+02 -0.75570015254E+02 -0.52054672849E+02  0.13999218305E+03  0.92020595792E+02 0.  0.
          5    1    3    3  502    0 -0.13222955195E+02  0.16330630943E+02 -0.20296695822E+02  0.29512104506E+02  0.41800000000E+01 0.  1.
         -5    1    3    3    0  502 -0.38829951490E+02  0.59239384312E+02  0.17840083110E+03  0.19199322572E+03  0.41800000000E+01 0.  1.
        -11    1    4    4    0    0  0.36263772092E+02  0.78287139366E+01  0.54068282314E+01  0.37491115211E+02  0.00000000000E+00 0. -1.
         11    1    4    4    0    0  0.15789134593E+02 -0.83398729191E+02 -0.57461501081E+02  0.10250106784E+03  0.00000000000E+00 0.  1.
</event>
<event>
 8    1  0.6635152E-009  0.1478182E+03  0.7561462E-02  0.1203180E+00
          2   -1    0    0  501    0  0.00000000000E+00  0.00000000000E+00  0.68949482620E+03  0.68949482620E+03  0.00000000000E+00 0. -1.
         -2   -1    0    0    0  501 -0.00000000000E+00 -0.00000000000E+00 -0.38321233370E+02  0.38321233370E+02  0.00000000000E+00 0.  1.
         25    2    1    2    0    0  0.10664052907E+03  0.12125475377E+01  0.44877759020E+03  0.47793355552E+03  0.12508191440E+03 0.  0.
         23    2    1    2    0    0 -0.10664052907E+03 -0.12125475377E+01  0.20239600263E+03  0.24988250405E+03  0.10051592531E+03 0.  0.
          5    1    3    3  502    0  0.20882017574E+02 -0.46299973354E+02  0.69596743284E+02  0.86260797969E+02  0.41800000000E+01 0. -1.
         -5    1    3    3    0  502  0.85758511494E+02  0.47512520892E+02  0.37918084692E+03  0.39167275755E+03  0.41800000000E+01 0. -1.
        -11    1    4    4    0    0 -0.95144576240E+02 -0.42120569488E+02  0.14259398008E+03  0.17652103534E+03  0.00000000000E+00 0. -1.
         11    1    4    4    0    0 -0.11495952829E+02  0.40908021950E+02  0.59802022548E+02  0.73361468716E+02  0.00000000000E+00 0.  1.
</event>
<event>
 8    1  0.6635152E-009  0.8325754E+02  0.7561462E-02  0.1320053E+00
         -2   -1    0    0    0  501 -0.00000000000E+00  0.00000000000E+00  0.20137652419E+03  0.20137652419E+03  0.00000000000E+00 0. -1.
          2   -1    0    0  501    0  0.00000000000E+00 -0.00000000000E+00 -0.71160851256E+02  0.71160851256E+02  0.00000000000E+00 0.  1.
         25    2    1    2    0    0 -0.57546820503E+01  0.28176607205E+02  0.12093958469E+03  0.17635547129E+03  0.12509129287E+03 0.  0.
         23    2    1    2    0    0  0.57546820503E+01 -0.28176607205E+02  0.92760882449E+01  0.96181904154E+02  0.91311966984E+02 0.  0.
          5    1    3    3  502    0  0.27470131208E+02 -0.26884482636E+01 -0.15906924504E+02  0.32130025052E+02  0.41800000000E+01 0. -1.
         -5    1    3    3    0  502 -0.33224813258E+02  0.30865055469E+02  0.13684650919E+03  0.14422544624E+03  0.41800000000E+01 0. -1.
        -11    1    4    4    0    0  0.34749437009E+02  0.17537247301E+02 -0.72256094465E+01  0.39588986438E+02  0.00000000000E+00 0.  1.
         11    1    4    4    0    0 -0.28994754958E+02 -0.45713854506E+02  0.16501697691E+02  0.56592917716E+02  0.00000000000E+00 0. -1.
</event>
<event>
 8    1  0.6635152E-009  0.1038776E+03  0.7561462E-02  0.1272347E+00
         -2   -1    0    0    0  501 -0.00000000000E+00  0.00000000000E+00  0.85115061809E+02  0.85115061809E+02  0.00000000000E+00 0.  1.
          2   -1    0    0  501    0  0.00000000000E+00 -0.00000000000E+00 -0.22121641702E+03  0.22121641702E+03  0.00000000000E+00 0. -1.
         25    2    1    2    0    0 -0.80485844357E+02  0.26302352619E+02 -0.81359351687E+02  0.17157077956E+03  0.12508958148E+03 0.  0.
         23    2    1    2    0    0  0.80485844357E+02 -0.26302352619E+02 -0.54742003521E+02  0.13476069927E+03  0.89409027638E+02 0.  0.
          5    1    3    3  502    0 -0.19679042794E+02  0.38089040868E+02 -0.98213036827E+02  0.10724417356E+03  0.41800000000E+01 0. -1.
         -5    1    3    3    0  502 -0.60806801563E+02 -0.11786688249E+02  0.16853685141E+02  0.64326605997E+02  0.41800000000E+01 0. -1.
        -11    1    4    4    0    0  0.22255471290E+02  0.18650469400E+02  0.15614367568E+02  0.32968992792E+02  0.00000000000E+00 0.  1.
         11    1    4    4    0    0  0.58230373068E+02 -0.44952822018E+02 -0.70356371089E+02  0.10179170648E+03  0.00000000000E+00 0. -1.
</event>
<event>
 8    1  0.6635152E-009  0.1455687E+03  0.7561462E-02  0.1206026E+00
          2   -1    0    0  501    0  0.00000000000E+00  0.00000000000E+00  0.64768929222E+02  0.64768929222E+02  0.00000000000E+00 0. -1.
         -2   -1    0    0    0  501 -0.00000000000E+00 -0.00000000000E+00 -0.39562236083E+03  0.39562236083E+03  0.00000000000E+00 0.  1.
         25    2    1    2    0    0 -0.73293415311E+02  0.89424920640E+02 -0.16309211987E+03  0.23582350409E+03  0.12507975200E+03 0.  0.
         23    2    1    2    0    0  0.73293415311E+02 -0.89424920640E+02 -0.16776131174E+03  0.22456778596E+03  0.94435648009E+02 0.  0.
          5    1    3    3  502    0  0.72459257716E+01 -0.18882768783E+02  0.39495869499E+01  0.21026983480E+02  0.41800000000E+01 0.  1.
         -5    1    3    3    0  502 -0.80539341083E+02  0.10830768942E+03 -0.16704170682E+03  0.21479652061E+03  0.41800000000E+01 0.  1.
        -11    1    4    4    0    0  0.78959847113E+02 -0.45441305920E+02 -0.62877865894E+02  0.11069415413E+03  0.00000000000E+00 0.  1.
         11    1    4    4    0    0 -0.56664318017E+01 -0.43983614720E+02 -0.10488344584E+03  0.11387363182E+03  0.00000000000E+00 0. -1.
</event>
<event>
 8    1  0.6635152E-009  0.1752233E+03  0.7561462E-02  0.1172508E+00
         -2   -1    0    0    0  501 -0.00000000000E+00  0.00000000000E+00  0.12109120508E+03  0.12109120508E+03  0.00000000000E+00 0.  1.
          2   -1    0    0  501    0  0.00000000000E+00 -0.00000000000E+00 -0.26770762306E+03  0.26770762306E+03  0.00000000000E+00 0. -1.
         25    2    1    2    0    0  0.21841929703E+02 -0.14857803003E+03 -0.88254023292E+02  0.21444429793E+03  0.12508030774E+03 0.  0.
         23    2    1    2    0    0 -0.21841929703E+02  0.14857803003E+03 -0.58362394693E+02  0.17435453021E+03  0.66639569248E+02 0.  0.
          5    1    3    3  502    0 -0.15139839924E+01 -0.15993558415E+03 -0.49263181822E+02  0.16740972704E+03  0.41800000000E+01 0.  1.
         -5    1    3    3    0  502  0.23355913696E+02  0.11357554116E+02 -0.38990841470E+02  0.47034570888E+02  0.41800000000E+01 0.  1.
        -11    1    4    4    0    0 -0.39727905984E+02  0.49531831394E+02 -0.18929954856E+02  0.66257467700E+02  0.00000000000E+00 0.  1.
         11    1    4    4    0    0  0.17885976280E+02  0.99046198640E+02 -0.39432439837E+02  0.10809706251E+03  0.00000000000E+00 0. -1.
</event>
<event>
 8    1  0.6635152E-009  0.2041916E+03  0.7561462E-02  0.1146250E+00
         -2   -1    0    0    0  501 -0.00000000000E+00  0.00000000000E+00  0.16747744191E+03  0.16747744191E+03  0.00000000000E+00 0.  1.
          2   -1    0    0  501    0  0.00000000000E+00 -0.00000000000E+00 -0.36630737348E+03  0.36630737348E+03  0.00000000000E+00 0. -1.
         25    2    1    2    0    0  0.18191561819E+03  0.60403802865E+02  0.19332276287E+02  0.22970429652E+03  0.12509362650E+03 0.  0.
         23    2    1    2    0    0 -0.18191561819E+03 -0.60403802865E+02 -0.21816220785E+03  0.30408051888E+03  0.90157093370E+02 0.  0.
          5    1    3    3  502    0  0.75512932160E+02  0.64760230902E+02 -0.40494225094E+02  0.10748648797E+03  0.41800000000E+01 0.  1.
         -5    1    3    3    0  502  0.10640268603E+03 -0.43564280374E+01  0.59826501381E+02  0.12221780855E+03  0.41800000000E+01 0.  1.
        -11    1    4    4    0    0 -0.10552092157E+03 -0.10927540839E+01 -0.15858834857E+03  0.19048916847E+03  0.00000000000E+00 0. -1.
         11    1    4    4    0    0 -0.76394696614E+02 -0.59311048781E+02 -0.59573859282E+02  0.11359135041E+03  0.00000000000E+00 0.  1.
</event>
<event>
 8    1  0.6635152E-009  0.4891898E+02  0.7561462E-02  0.1451261E+00
         -1   -1    0    0    0  501 -0.00000000000E+00  0.00000000000E+00  0.16297351717E+03  0.16297351717E+03  0.00000000000E+00 0.  1.
          1   -1    0    0  501    0  0.00000000000E+00 -0.00000000000E+00 -0.86730474739E+02  0.86730474739E+02  0.00000000000E+00 0. -1.
         25    2    1    2    0    0  0.59248677119E+01  0.38072703361E+02  0.49519125308E+01  0.13098601454E+03  0.12509268471E+03 0.  0.
         23    2    1    2    0    0 -0.59248677119E+01 -0.38072703361E+02  0.71291129896E+02  0.11871797737E+03  0.86757697930E+02 0.  0.
          5    1    3    3  502    0  0.75108969491E+01  0.44672152693E+02  0.60037940972E+02  0.75326234177E+02  0.41800000000E+01 0.  1.
         -5    1    3    3    0  502 -0.15860292372E+01 -0.65994493322E+01 -0.55086028441E+02  0.55659780359E+02  0.41800000000E+01 0.  1.
        -11    1    4    4    0    0  0.79185054431E+01 -0.79352801998E+01 -0.19259765290E+02  0.22284747235E+02  0.00000000000E+00 0. -1.
         11    1    4    4    0    0 -0.13843373155E+02 -0.30137423161E+02  0.90550895186E+02  0.96433230134E+02  0.00000000000E+00 0.  1.
</event>
<event>
 8    1  0.6635152E-009  0.1034643E+03  0.7561462E-02  0.1273175E+00
         -2   -1    0    0    0  501 -0.00000000000E+00  0.00000000000E+00  0.10971230147E+03  0.10971230147E+03  0.00000000000E+00 0.  1.
          2   -1    0    0  501    0  0.00000000000E+00 -0.00000000000E+00 -0.13805996112E+03  0.13805996112E+03  0.00000000000E+00 0. -1.
         25    2    1    2    0    0  0.52401443693E+02  0.17258041066E+02  0.66952607844E+01  0.13688869589E+03  0.12509970929E+03 0.  0.
         23    2    1    2    0    0 -0.52401443693E+02 -0.17258041066E+02 -0.35042920437E+02  0.11088356670E+03  0.89573477155E+02 0.  0.
          5    1    3    3  502    0  0.79726892121E+02  0.15721950300E+01 -0.32685057500E+02  0.86282295450E+02  0.41800000000E+01 0.  1.
         -5    1    3    3    0  502 -0.27325448428E+02  0.15685846036E+02  0.39380318284E+02  0.50606400443E+02  0.41800000000E+01 0.  1.
        -11    1    4    4    0    0  0.19807098149E+02  0.36016231407E+01  0.10799241028E+02  0.22845490433E+02  0.00000000000E+00 0. -1.
         11    1    4    4    0    0 -0.72208541841E+02 -0.20859664207E+02 -0.45842161465E+02  0.88038076271E+02  0.00000000000E+00 0.  1.
</event>
<event>
 8    1  0.6635152E-009  0.2005959E+03  0.7561462E-02  0.1149237E+00
         -2   -1    0    0    0  501 -0.00000000000E+00  0.00000000000E+00  0.33564250620E+02  0.33564250620E+02  0.00000000000E+00 0.  1.
          2   -1    0    0  501    0  0.00000000000E+00 -0.00000000000E+00 -0.28141490920E+04  0.28141490920E+04  0.00000000000E+00 0. -1.
         25    2    1    2    0    0  0.17775512128E+03 -0.41812125287E+02 -0.24438978939E+04  0.24539008581E+04  0.12508944200E+03 0.  0.
         23    2    1    2    0    0 -0.17775512128E+03  0.41812125287E+02 -0.33668694741E+03  0.39381248447E+03  0.91569838968E+02 0.  0.
          5    1    3    3  502    0  0.81094240886E+02 -0.64480222112E+02 -0.75563594801E+03  0.76271694178E+03  0.41800000000E+01 0.  1.
         -5    1    3    3    0  502  0.96660880393E+02  0.22668096824E+02 -0.16882619459E+04  0.16911839163E+04  0.41800000000E+01 0.  1.
        -11    1    4    4    0    0 -0.11337336589E+03  0.63807720616E+02 -0.26362658542E+03  0.29397945820E+03  0.00000000000E+00 0.  1.
         11    1    4    4    0    0 -0.64381755387E+02 -0.21995595329E+02 -0.73060361992E+02  0.99833026274E+02  0.00000000000E+00 0. -1.
</event>
<event>
 8    1  0.6635152E-009  0.1221486E+03  0.7561462E-02  0.1239594E+00
         -2   -1    0    0    0  501 -0.00000000000E+00  0.00000000000E+00  0.10205803172E+03  0.10205803172E+03  0.00000000000E+00 0. -1.
          2   -1    0    0  501    0  0.00000000000E+00 -0.00000000000E+00 -0.18297795658E+03  0.18297795658E+03  0.00000000000E+00 0.  1.
         25    2    1    2    0    0 -0.34388358568E+02  0.53981763516E+02 -0.96363417214E+02  0.17038129023E+03  0.12508911178E+03 0.  0.
         23    2    1    2    0    0  0.34388358568E+02 -0.53981763516E+02  0.15443492352E+02  0.11465469807E+03  0.93864840788E+02 0.  0.
          5    1    3    3  502    0 -0.20967960221E+02 -0.39580595276E+02 -0.40353652277E+02  0.60433174088E+02  0.41800000000E+01 0. -1.
         -5    1    3    3    0  502 -0.13420398347E+02  0.93562358792E+02 -0.56009764937E+02  0.10994811614E+03  0.41800000000E+01 0. -1.
        -11    1    4    4    0    0 -0.26157617621E+02 -0.29402292539E+02 -0.15572045116E+02  0.42322622263E+02  0.00000000000E+00 0. -1.
         11    1    4    4    0    0  0.60545976189E+02 -0.24579470977E+02  0.31015537467E+02  0.72332075807E+02  0.00000000000E+00 0.  1.
</event>
<event>
 8    1  0.6635152E-009  0.1106691E+03  0.7561462E-02  0.1259336E+00
          2   -1    0    0  501    0  0.00000000000E+00  0.00000000000E+00  0.40463089033E+03  0.40463089033E+03  0.00000000000E+00 0. -1.
         -2   -1    0    0    0  501 -0.00000000000E+00 -0.00000000000E+00 -0.46727516049E+02  0.46727516049E+02  0.00000000000E+00 0.  1.
         25    2    1    2    0    0 -0.83349626220E+02  0.40969570710E+01  0.22065125245E+03  0.26701695523E+03  0.12508850437E+03 0.  0.
         23    2    1    2    0    0  0.83349626220E+02 -0.40969570710E+01  0.13725212182E+03  0.18434145114E+03  0.90441585654E+02 0.  0.
          5    1    3    3  502    0 -0.55553756697E+02  0.36197639757E+02  0.32262605678E+02  0.73856869228E+02  0.41800000000E+01 0. -1.
         -5    1    3    3    0  502 -0.27795869523E+02 -0.32100682686E+02  0.18838864678E+03  0.19316008601E+03  0.41800000000E+01 0. -1.
        -11    1    4    4    0    0  0.91045307978E+02 -0.21197594941E+02  0.76598009692E+02  0.12085462848E+03  0.00000000000E+00 0.  1.
         11    1    4    4    0    0 -0.76956817579E+01  0.17100637870E+02  0.60654112130E+02  0.63486822661E+02  0.00000000000E+00 0. -1.
</event>
<event>
 8    1  0.6635152E-009  0.9448285E+02  0.7561462E-02  0.1292345E+00
          1   -1    0    0  501    0  0.00000000000E+00  0.00000000000E+00  0.67634278886E+03  0.67634278886E+03  0.00000000000E+00 0. -1.
         -1   -1    0    0    0  501 -0.00000000000E+00 -0.00000000000E+00 -0.22690290364E+02  0.22690290364E+02  0.00000000000E+00 0.  1.
         25    2    1    2    0    0 -0.32631149890E+01 -0.56003394002E+02  0.34669615353E+03  0.37281762968E+03  0.12509090322E+03 0.  0.
         23    2    1    2    0    0  0.32631149890E+01  0.56003394002E+02  0.30695634496E+03  0.32621544954E+03  0.95117263142E+02 0.  0.
          5    1    3    3  502    0 -0.27329280207E+02 -0.61898818714E+02  0.79659975519E+02  0.10460180407E+03  0.41800000000E+01 0. -1.
         -5    1    3    3    0  502  0.24066165218E+02  0.58954247122E+01  0.26703617801E+03  0.26821582561E+03  0.41800000000E+01 0. -1.
        -11    1    4    4    0    0 -0.37248051929E+02  0.30811690323E+02  0.73756527646E+02  0.88186183745E+02  0.00000000000E+00 0.  1.
         11    1    4    4    0    0  0.40511166918E+02  0.25191703679E+02  0.23319981732E+03  0.23802926580E+03  0.00000000000E+00 0. -1.
</event>
<event>
 8    1  0.6635152E-009  0.1688349E+03  0.7561462E-02  0.1179068E+00
         -1   -1    0    0    0  501 -0.00000000000E+00  0.00000000000E+00  0.98780471990E+02  0.98780471990E+02  0.00000000000E+00 0.  1.
          1   -1    0    0  501    0  0.00000000000E+00 -0.00000000000E+00 -0.38491941999E+03  0.38491941999E+03  0.00000000000E+00 0. -1.
         25    2    1    2    0    0 -0.99108609871E+02 -0.12341118346E+03 -0.19015756264E+03  0.27723711730E+03  0.12509070238E+03 0.  0.
         23    2    1    2    0    0  0.99108609871E+02  0.12341118346E+03 -0.95981385355E+02  0.20646277468E+03  0.91441862631E+02 0.  0.
          5    1    3    3  502    0 -0.19986354578E+02  0.72674857181E+01  0.11245420839E+02  0.24417260449E+02  0.41800000000E+01 0.  1.
         -5    1    3    3    0  502 -0.79122255293E+02 -0.13067866918E+03 -0.20140298348E+03  0.25281985685E+03  0.41800000000E+01 0.  1.
        -11    1    4    4    0    0  0.36017728060E+02  0.76495972028E+02 -0.95886456054E+02  0.12784022421E+03  0.00000000000E+00 0. -1.
         11    1    4    4    0    0  0.63090881811E+02  0.46915211432E+02 -0.94929300387E-01  0.78622550473E+02  0.00000000000E+00 0.  1.
</event>
<event>
 8    1  0.6635152E-009  0.9095391E+02  0.7561462E-02  0.1300558E+00
         -1   -1    0    0    0  501 -0.00000000000E+00  0.00000000000E+00  0.94947784896E+01  0.94947784896E+01  0.00000000000E+00 0.  1.
          1   -1    0    0  501    0  0.00000000000E+00 -0.00000000000E+00 -0.17365097330E+04  0.17365097330E+04  0.00000000000E+00 0. -1.
         25    2    1    2    0    0 -0.25416710247E+02  0.44046892110E+02 -0.12703423613E+04  0.12774990659E+04  0.12509200770E+03 0.  0.
         23    2    1    2    0    0  0.25416710247E+02 -0.44046892110E+02 -0.45667259322E+03  0.46850544568E+03  0.91440458060E+02 0.  0.
          5    1    3    3  502    0 -0.46473227017E+02  0.18841524392E+02 -0.11833485103E+04  0.11844179723E+04  0.41800000000E+01 0.  1.
         -5    1    3    3    0  502  0.21056516770E+02  0.25205367717E+02 -0.86993851080E+02  0.93081093601E+02  0.41800000000E+01 0.  1.
        -11    1    4    4    0    0  0.85604123673E+01 -0.68359693934E+02 -0.38242064954E+03  0.38857673838E+03  0.00000000000E+00 0. -1.
         11    1    4    4    0    0  0.16856297879E+02  0.24312801824E+02 -0.74251943684E+02  0.79928707306E+02  0.00000000000E+00 0.  1.
</event>
<event>
 8    1  0.6635152E-009  0.1076543E+03  0.7561462E-02  0.1264977E+00
          2   -1    0    0  501    0  0.00000000000E+00  0.00000000000E+00  0.12320917328E+03  0.12320917328E+03  0.00000000000E+00 0. -1.
         -2   -1    0    0    0  501 -0.00000000000E+00 -0.00000000000E+00 -0.11641002775E+03  0.11641002775E+03  0.00000000000E+00 0.  1.
         25    2    1    2    0    0 -0.26268298344E+02 -0.24572757406E+02  0.40122819695E+02  0.13618666234E+03  0.12507246873E+03 0.  0.
         23    2    1    2    0    0  0.26268298344E+02  0.24572757406E+02 -0.33323674163E+02  0.10343253869E+03  0.91071284692E+02 0.  0.
          5    1    3    3  502    0 -0.57292508290E+02 -0.54105933972E+02  0.23884409857E+01  0.78949734942E+02  0.41800000000E+01 0. -1.
         -5    1    3    3    0  502  0.31024209946E+02  0.29533176566E+02  0.37734378710E+02  0.57236927394E+02  0.41800000000E+01 0. -1.
        -11    1    4    4    0    0  0.29054011237E+02  0.55319595494E+02 -0.36552878286E+02  0.72391340129E+02  0.00000000000E+00 0.  1.
         11    1    4    4    0    0 -0.27857128936E+01 -0.30746838089E+02  0.32292041225E+01  0.31041198560E+02  0.00000000000E+00 0. -1.
</event>
<event>
 8    1  0.6635152E-009  0.1060038E+03  0.7561462E-02  0.1268154E+00
         -2   -1    0    0    0  501 -0.00000000000E+00  0.00000000000E+00  0.13466268570E+02  0.13466268570E+02  0.00000000000E+00 0.  1.
          2   -1    0    0  501    0  0.00000000000E+00 -0.00000000000E+00 -0.92129606253E+03  0.92129606253E+03  0.00000000000E+00 0. -1.
         25    2    1    2    0    0  0.89682217952E+01  0.24172544721E+02 -0.56594457221E+03  0.58017686665E+03  0.12508875591E+03 0.  0.
         23    2    1    2    0    0 -0.89682217952E+01 -0.24172544721E+02 -0.34188522175E+03  0.35458546445E+03  0.90446701610E+02 0.  0.
          5    1    3    3  502    0  0.18375191839E+02  0.73623276675E+02 -0.29985779367E+03  0.30933833156E+03  0.41800000000E+01 0. -1.
         -5    1    3    3    0  502 -0.94069700437E+01 -0.49450731955E+02 -0.26608677854E+03  0.27083853509E+03  0.41800000000E+01 0. -1.
        -11    1    4    4    0    0 -0.55475945743E+01  0.30358781412E+02 -0.60195311695E+02  0.67645450434E+02  0.00000000000E+00 0. -1.
         11    1    4    4    0    0 -0.34206272209E+01 -0.54531326132E+02 -0.28168991005E+03  0.28694001402E+03  0.00000000000E+00 0.  1.
</event>
<event>
 8    1  0.6635152E-009  0.9533771E+02  0.7561462E-02  0.1290417E+00
          2   -1    0    0  501    0  0.00000000000E+00  0.00000000000E+00  0.92908965941E+03  0.92908965941E+03  0.00000000000E+00 0. -1.
         -2   -1    0    0    0  501 -0.00000000000E+00 -0.00000000000E+00 -0.18422189908E+02  0.18422189908E+02  0.00000000000E+00 0.  1.
         25    2    1    2    0    0  0.61608414344E+02  0.37887782867E+02  0.54364099451E+03  0.56251668069E+03  0.12509358231E+03 0.  0.
         23    2    1    2    0    0 -0.61608414344E+02 -0.37887782867E+02  0.36702647499E+03  0.38499516863E+03  0.91004207115E+02 0.  0.
          5    1    3    3  502    0  0.25008627181E+02  0.54428607319E+01  0.48647843417E+03  0.48716916515E+03  0.41800000000E+01 0. -1.
         -5    1    3    3    0  502  0.36599787163E+02  0.32444922135E+02  0.57162560346E+02  0.75347515540E+02  0.41800000000E+01 0. -1.
        -11    1    4    4    0    0 -0.81264167431E+02 -0.10495841183E+02  0.24161649779E+03  0.25513243540E+03  0.00000000000E+00 0. -1.
         11    1    4    4    0    0  0.19655753086E+02 -0.27391941684E+02  0.12540997721E+03  0.12986273323E+03  0.00000000000E+00 0.  1.
</event>
<event>
 8    1  0.6635152E-009  0.1884421E+03  0.7561462E-02  0.1159874E+00
          2   -1    0    0  501    0  0.00000000000E+00  0.00000000000E+00  0.37313657893E+03  0.37313657893E+03  0.00000000000E+00 0.  1.
         -2   -1    0    0    0  501 -0.00000000000E+00 -0.00000000000E+00 -0.11120136765E+03  0.11120136765E+03  0.00000000000E+00 0. -1.
         25    2    1    2    0    0 -0.11454975419E+02 -0.15878324864E+03  0.21418263419E+03  0.29472760638E+03  0.12508726818E+03 0.  0.
         23    2    1    2    0    0  0.11454975419E+02  0.15878324864E+03  0.47752577084E+02  0.18961034021E+03  0.91260265105E+02 0.  0.
          5    1    3    3  502    0 -0.56021171102E+02 -0.44403953480E+02  0.41325695354E+02  0.82676285553E+02  0.41800000000E+01 0. -1.
         -5    1    3    3    0  502  0.44566195684E+02 -0.11437929516E+03  0.17285693884E+03  0.21205132082E+03  0.41800000000E+01 0. -1.
        -11    1    4    4    0    0 -0.17479901156E+02  0.15164468729E+03  0.32255445087E+02  0.15601945989E+03  0.00000000000E+00 0. -1.
         11    1    4    4    0    0  0.28934876575E+02  0.71385613502E+01  0.15497131997E+02  0.33590880320E+02  0.00000000000E+00 0.  1.
</event>
<event>
 8    1  0.6635152E-009  0.1112815E+03  0.7561462E-02  0.1258215E+00
         -1   -1    0    0    0  501 -0.00000000000E+00  0.00000000000E+00  0.71363059249E+02  0.71363059249E+02  0.00000000000E+00 0.  1.
          1   -1    0    0  501    0  0.00000000000E+00 -0.00000000000E+00 -0.27922426995E+03  0.27922426995E+03  0.00000000000E+00 0. -1.
         25    2    1    2    0    0  0.77947740134E+01  0.89065167141E+02 -0.86374564588E+02  0.17636259151E+03  0.12509930366E+03 0.  0.
         23    2    1    2    0    0 -0.77947740134E+01 -0.89065167141E+02 -0.12148664611E+03  0.17422473769E+03  0.87188826924E+02 0.  0.
          5    1    3    3  502    0  0.22523584828E+02  0.67342793059E+02  0.14027833598E+02  0.72502525238E+02  0.41800000000E+01 0.  1.
         -5    1    3    3    0  502 -0.14728810815E+02  0.21722374082E+02 -0.10040239819E+03  0.10386006627E+03  0.41800000000E+01 0.  1.
        -11    1    4    4    0    0  0.39278868139E+02 -0.50650058675E+02 -0.60577914702E+02  0.88192639578E+02  0.00000000000E+00 0.  1.
         11    1    4    4    0    0 -0.47073642152E+02 -0.38415108466E+02 -0.60908731412E+02  0.86032098116E+02  0.00000000000E+00 0. -1.
</event>
<event>
 8    1  0.6635152E-009  0.9744028E+02  0.7561462E-02  0.1285773E+00
          2   -1    0    0  501    0  0.00000000000E+00  0.00000000000E+00  0.66917852338E+03  0.66917852338E+03  0.00000000000E+00 0. -1.
         -2   -1    0    0    0  501 -0.00000000000E+00 -0.00000000000E+00 -0.29073798973E+02  0.29073798973E+02  0.00000000000E+00 0.  1.
         25    2    1    2    0    0 -0.37109400752E+02 -0.77331940211E+02  0.36196110157E+03  0.39245520788E+03  0.12509162458E+03 0.  0.
         23    2    1    2    0    0  0.37109400752E+02  0.77331940211E+02  0.27814362284E+03  0.30579711448E+03  0.93758539326E+02 0.  0.
          5    1    3    3  502    0 -0.70558973542E+01 -0.69094730311E+02  0.69622929022E+02  0.98431154062E+02  0.41800000000E+01 0.  1.
         -5    1    3    3    0  502 -0.30053503398E+02 -0.82372098994E+01  0.29233817255E+03  0.29402405382E+03  0.41800000000E+01 0.  1.
        -11    1    4    4    0    0  0.37781974151E+02  0.34936601414E+02  0.24920451402E+03  0.25446204727E+03  0.00000000000E+00 0. -1.
         11    1    4    4    0    0 -0.67257339932E+00  0.42395338797E+02  0.28939108815E+02  0.51335067213E+02  0.00000000000E+00 0.  1.
</event>
<event>
 8    1  0.6635152E-009  0.1204201E+03  0.7561462E-02  0.1242406E+00
          2   -1    0    0  501    0  0.00000000000E+00  0.00000000000E+00  0.16175481179E+04  0.16175481179E+04  0.00000000000E+00 0. -1.
         -2   -1    0    0    0  501 -0.00000000000E+00 -0.00000000000E+00 -0.13789199333E+02  0.13789199333E+02  0.00000000000E+00 0.  1.
         25    2    1    2    0    0  0.58716770733E+02  0.65856758928E+02  0.11640913314E+04  0.11741113967E+04  0.12507666528E+03 0.  0.
         23    2    1    2    0    0 -0.58716770733E+02 -0.65856758928E+02  0.43966758718E+03  0.45722592053E+03  0.89236670296E+02 0.  0.
          5    1    3    3  502    0  0.71229891645E+02  0.17088834680E+02  0.99326106063E+03  0.99596723475E+03  0.41800000000E+01 0. -1.
         -5    1    3    3    0  502 -0.12513120912E+02  0.48767924249E+02  0.17083027072E+03  0.17814416192E+03  0.41800000000E+01 0. -1.
        -11    1    4    4    0    0 -0.51046069446E+02 -0.40328323252E+00  0.11326506899E+03  0.12423703030E+03  0.00000000000E+00 0.  1.
         11    1    4    4    0    0 -0.76707012866E+01 -0.65453475696E+02  0.32640251818E+03  0.33298889023E+03  0.00000000000E+00 0. -1.
</event>
<event>
 8    1  0.6635152E-009  0.9518114E+02  0.7561462E-02  0.1290769E+00
         -2   -1    0    0    0  501 -0.00000000000E+00  0.00000000000E+00  0.12865255158E+03  0.12865255158E+03  0.00000000000E+00 0.  1.
          2   -1    0    0  501    0  0.00000000000E+00 -0.00000000000E+00 -0.30827408280E+03  0.30827408280E+03  0.00000000000E+00 0. -1.
         25    2    1    2    0    0  0.45170301715E+00  0.55638757958E+01 -0.27733862905E+03  0.30429473667E+03  0.12508961129E+03 0.  0.
         23    2    1    2    0    0 -0.45170301715E+00 -0.55638757958E+01  0.97717097830E+02  0.13263189772E+03  0.89506582630E+02 0.  0.
          5    1    3    3  502    0 -0.42883605769E+02  0.28491302116E+02 -0.50709737027E+02  0.72385825749E+02  0.41800000000E+01 0.  1.
         -5    1    3    3    0  502  0.43335308787E+02 -0.22927426320E+02 -0.22662889202E+03  0.23190891092E+03  0.41800000000E+01 0.  1.
        -11    1    4    4    0    0 -0.22243374568E+02 -0.41724689126E+02  0.47446337418E+02  0.66984119978E+02  0.00000000000E+00 0.  1.
         11    1    4    4    0    0  0.21791671551E+02  0.36160813330E+02  0.50270760412E+02  0.65647777739E+02  0.00000000000E+00 0. -1.
</event>
<event>
 8    1  0.6635152E-009  0.1468886E+03  0.7561462E-02  0.1204349E+00
          2   -1    0    0  501    0  0.00000000000E+00  0.00000000000E+00  0.35579645143E+03  0.35579645143E+03  0.00000000000E+00 0.  1.
         -2   -1    0    0    0  501 -0.00000000000E+00 -0.00000000000E+00 -0.91462357385E+02  0.91462357385E+02  0.00000000000E+00 0. -1.
         25    2    1    2    0    0  0.88587902052E+02 -0.88066302922E+02  0.22702049194E+03  0.28772841025E+03  0.12508334904E+03 0.  0.
         23    2    1    2    0    0 -0.88587902052E+02  0.88066302922E+02  0.37313602107E+02  0.15953039856E+03  0.91946468463E+02 0.  0.
          5    1    3    3  502    0  0.88129665551E+02 -0.80521953655E+01  0.16158450558E+03  0.18427886652E+03  0.41800000000E+01 0.  1.
         -5    1    3    3    0  502  0.45823650088E+00 -0.80014107557E+02  0.65435986356E+02  0.10344954374E+03  0.41800000000E+01 0.  1.
        -11    1    4    4    0    0 -0.34291697466E+02  0.30028028113E+02 -0.30674553676E+02  0.54941161534E+02  0.00000000000E+00 0. -1.
         11    1    4    4    0    0 -0.54296204585E+02  0.58038274810E+02  0.67988155783E+02  0.10458923703E+03  0.00000000000E+00 0.  1.
</event>
<event>
 8    1  0.6635152E-009  0.1329660E+03  0.7561462E-02  0.1223120E+00
          2   -1    0    0  501    0  0.00000000000E+00  0.00000000000E+00  0.12162861226E+03  0.12162861226E+03  0.00000000000E+00 0. -1.
         -2   -1    0    0    0  501 -0.00000000000E+00 -0.00000000000E+00 -0.16430938908E+03  0.16430938908E+03  0.00000000000E+00 0.  1.
         25    2    1    2    0    0 -0.79657505754E+02 -0.27731020312E+02  0.72666660168E+01  0.15105198727E+03  0.12509824424E+03 0.  0.
         23    2    1    2    0    0  0.79657505754E+02  0.27731020312E+02 -0.49947442831E+02  0.13488601407E+03  0.92656149477E+02 0.  0.
          5    1    3    3  502    0 -0.35952511161E+02 -0.73503235965E+02  0.24153614104E+02  0.85417669310E+02  0.41800000000E+01 0.  1.
         -5    1    3    3    0  502 -0.43704994593E+02  0.45772215653E+02 -0.16886948087E+02  0.65634317959E+02  0.41800000000E+01 0.  1.
        -11    1    4    4    0    0 -0.98641755789E+01 -0.17641738976E+02  0.44967672666E+01  0.20706371720E+02  0.00000000000E+00 0. -1.
         11    1    4    4    0    0  0.89521681333E+02  0.45372759288E+02 -0.54444210097E+02  0.11417964235E+03  0.00000000000E+00 0.  1.
</event>
<event>
 8    1  0.6635152E-009  0.1248843E+03  0.7561462E-02  0.1235250E+00
         -1   -1    0    0    0  501 -0.00000000000E+00  0.00000000000E+00  0.27968102320E+02  0.27968102320E+02  0.00000000000E+00 0.  1.
          1   -1    0    0  501    0  0.00000000000E+00 -0.00000000000E+00 -0.86192223092E+03  0.86192223092E+03  0.00000000000E+00 0. -1.
         25    2    1    2    0    0  0.10794891076E+03 -0.15081519588E+02 -0.39322682452E+03  0.42679714782E+03  0.12509216724E+03 0.  0.
         23    2    1    2    0    0 -0.10794891076E+03  0.15081519588E+02 -0.44072730409E+03  0.46309318542E+03  0.91292509253E+02 0.  0.
          5    1    3    3  502    0  0.67164531493E+02 -0.52400205741E+02 -0.33780779025E+03  0.34840842614E+03  0.41800000000E+01 0.  1.
         -5    1    3    3    0  502  0.40784379267E+02  0.37318686153E+02 -0.55419034268E+02  0.78388721686E+02  0.41800000000E+01 0.  1.
        -11    1    4    4    0    0 -0.39513325937E+02  0.40469335521E+01 -0.39842421790E+02  0.56259214106E+02  0.00000000000E+00 0.  1.
         11    1    4    4    0    0 -0.68435584823E+02  0.11034586036E+02 -0.40088488230E+03  0.40683397131E+03  0.00000000000E+00 0. -1.
</event>
<event>
 8    1  0.6635152E-009  0.1032819E+03  0.7561462E-02  0.1273542E+00
         -1   -1    0    0    0  501 -0.00000000000E+00  0.00000000000E+00  0.81823155522E+03  0.81823155522E+03  0.00000000000E+00 0.  1.
          1   -1    0    0  501    0  0.00000000000E+00 -0.00000000000E+00 -0.27476987389E+02  0.27476987389E+02  0.00000000000E+00 0. -1.
         25    2    1    2    0    0  0.81613527129E+02 -0.44664287809E+02  0.54900874964E+03  0.57071289142E+03  0.12508769257E+03 0.  0.
         23    2    1    2    0    0 -0.81613527129E+02  0.44664287809E+02  0.24174581819E+03  0.27499565119E+03  0.92335806417E+02 0.  0.
          5    1    3    3  502    0  0.13255937780E+02 -0.22670413277E+02  0.43563655771E+03  0.43644741990E+03  0.41800000000E+01 0. -1.
         -5    1    3    3    0  502  0.68357589349E+02 -0.21993874532E+02  0.11337219193E+03  0.13426547152E+03  0.41800000000E+01 0. -1.
        -11    1    4    4    0    0 -0.76059709117E+01  0.32082880876E+02  0.15145463000E+02  0.36284253999E+02  0.00000000000E+00 0. -1.
         11    1    4    4    0    0 -0.74007556217E+02  0.12581406933E+02  0.22660035519E+03  0.23871139720E+03  0.00000000000E+00 0.  1.
</event>
<event>
 8    1  0.6635152E-009  0.1684527E+03  0.7561462E-02  0.1179471E+00
          1   -1    0    0  501    0  0.00000000000E+00  0.00000000000E+00  0.69588580861E+03  0.69588580861E+03  0.00000000000E+00 0. -1.
         -1   -1    0    0    0  501 -0.00000000000E+00 -0.00000000000E+00 -0.41701463469E+02  0.41701463469E+02  0.00000000000E+00 0.  1.
         25    2    1    2    0    0 -0.10383827726E+03 -0.90769720487E+02  0.36804401529E+03  0.41246524124E+03  0.12509855338E+03 0.  0.
         23    2    1    2    0    0  0.10383827726E+03  0.90769720487E+02  0.28614032985E+03  0.32512203084E+03  0.69329045781E+02 0.  0.
          5    1    3    3  502    0  0.14077919359E+02 -0.61409499248E+02  0.15129360851E+03  0.16394066850E+03  0.41800000000E+01 0. -1.
         -5    1    3    3    0  502 -0.11791619662E+03 -0.29360221239E+02  0.21675040678E+03  0.24852457274E+03  0.41800000000E+01 0. -1.
        -11    1    4    4    0    0  0.54192640969E+02  0.86856874901E+02  0.16547215116E+03  0.19458158151E+03  0.00000000000E+00 0.  1.
         11    1    4    4    0    0  0.49645636293E+02  0.39128455862E+01  0.12066817868E+03  0.13054044932E+03  0.00000000000E+00 0. -1.
</event>
<event>
 7    1  0.6635152E-009  0.1484030E+03  0.7561462E-02  0.1202449E+00
         -2   -1    0    0    0  501 -0.00000000000E+00  0.00000000000E+00  0.17107340712E+03  0.17107340712E+03  0.00000000000E+00 0.  1.
          2   -1    0    0  501    0  0.00000000000E+00 -0.00000000000E+00 -0.14260712028E+03  0.14260712028E+03  0.00000000000E+00 0. -1.
         25    2    1    2    0    0  0.25374334824E+02 -0.11939086959E+03 -0.12583467541E+02  0.17522486520E+03  0.12508946047E+03 0.  0.
          5    1    3    3  502    0 -0.29365756366E+02  0.12125138906E+02  0.10352139534E+01  0.32061046589E+02  0.41800000000E+01 0. -1.
         -5    1    3    3    0  502  0.54740091190E+02 -0.13151600850E+03 -0.13618681494E+02  0.14316381862E+03  0.41800000000E+01 0. -1.
        -11    1    1    2    0    0 -0.46016710647E+01  0.11726818294E+02  0.24520446096E+02  0.27567116654E+02  0.00000000000E+00 0.  1.
         11    1    1    2    0    0 -0.20772663759E+02  0.10766405130E+03  0.16529308283E+02  0.11088854555E+03  0.00000000000E+00 0. -1.
</event>
<event>
 8    1  0.6635152E-009  0.1548086E+03  0.7561462E-02  0.1194686E+00
         -1   -1    0    0    0  501 -0.00000000000E+00  0.00000000000E+00  0.50097393110E+02  0.50097393110E+02  0.00000000000E+00 0.  1.
          1   -1    0    0  501    0  0.00000000000E+00 -0.00000000000E+00 -0.68022850325E+03  0.68022850325E+03  0.00000000000E+00 0. -1.
         25    2    1    2    0    0 -0.60671525174E+02 -0.13429897870E+03 -0.37801405589E+03  0.42456967495E+03  0.12509009869E+03 0.  0.
         23    2    1    2    0    0  0.60671525174E+02  0.13429897870E+03 -0.25211705425E+03  0.30575622141E+03  0.90590331924E+02 0.  0.
          5    1    3    3  502    0 -0.19165827319E+02 -0.26591725311E+02 -0.41906370975E+01  0.33308897177E+02  0.41800000000E+01 0.  1.
         -5    1    3    3    0  502 -0.41505697855E+02 -0.10770725339E+03 -0.37382341879E+03  0.39126077777E+03  0.41800000000E+01 0.  1.
        -11    1    4    4    0    0  0.66081241807E+02  0.68972320042E+02 -0.20130786399E+03  0.22282003400E+03  0.00000000000E+00 0. -1.
         11    1    4    4    0    0 -0.54097166329E+01  0.65326658662E+02 -0.50809190265E+02  0.82936187406E+02  0.00000000000E+00 0.  1.
</event>
<event>
 8    1  0.6635152E-009  0.1029875E+03  0.7561462E-02  0.1274136E+00
          2   -1    0    0  501    0  0.00000000000E+00  0.00000000000E+00  0.39888246386E+03  0.39888246386E+03  0.00000000000E+00 0. -1.
         -2   -1    0    0    0  501 -0.00000000000E+00 -0.00000000000E+00 -0.38297867457E+02  0.38297867457E+02  0.00000000000E+00 0.  1.
         25    2    1    2    0    0 -0.47158172590E+02 -0.24298610533E+02  0.24860489846E+03  0.28331244975E+03  0.12508890009E+03 0.  0.
         23    2    1    2    0    0  0.47158172590E+02  0.24298610533E+02  0.11197969794E+03  0.15386788157E+03  0.91222565804E+02 0.  0.
          5    1    3    3  502    0 -0.88622696237E+02 -0.84160272463E+01  0.18812884473E+03  0.20816999405E+03  0.41800000000E+01 0.  1.
         -5    1    3    3    0  502  0.41464523647E+02 -0.15882583286E+02  0.60476053735E+02  0.75142455699E+02  0.41800000000E+01 0.  1.
        -11    1    4    4    0    0  0.21762776079E+02  0.37708952237E+02  0.58600635132E+01  0.43930898532E+02  0.00000000000E+00 0.  1.
         11    1    4    4    0    0  0.25395396511E+02 -0.13410341704E+02  0.10611963442E+03  0.10993698303E+03  0.00000000000E+00 0. -1.
</event>
<event>
 8    1  0.6635152E-009  0.1195067E+03  0.7561462E-02  0.1243913E+00
         -1   -1    0    0    0  501 -0.00000000000E+00  0.00000000000E+00  0.28495615925E+03  0.28495615925E+03  0.00000000000E+00 0.  1.
          1   -1    0    0  501    0  0.00000000000E+00 -0.00000000000E+00 -0.71556684118E+02  0.71556684118E+02  0.00000000000E+00 0. -1.
         25    2    1    2    0    0  0.47176705855E+01 -0.72361211665E+02  0.16511411561E+03  0.21945975899E+03  0.12506603564E+03 0.  0.
         23    2    1    2    0    0 -0.47176705855E+01  0.72361211665E+02  0.48285359521E+02  0.13705308438E+03  0.10580014473E+03 0.  0.
          5    1    3    3  502    0 -0.53740174808E+02 -0.19109536138E+02  0.10669566859E+03  0.12105626318E+03  0.41800000000E+01 0.  1.
         -5    1    3    3    0  502  0.58457845394E+02 -0.53251675527E+02  0.58418447024E+02  0.98403495807E+02  0.41800000000E+01 0.  1.
        -11    1    4    4    0    0 -0.29823065478E+02  0.71552298503E+02 -0.54773970742E+01  0.77711958760E+02  0.00000000000E+00 0. -1.
         11    1    4    4    0    0  0.25105394892E+02  0.80891316121E+00  0.53762756595E+02  0.59341125621E+02  0.00000000000E+00 0.  1.
</event>
<event>
 8    1  0.6635152E-009  0.6457634E+02  0.7561462E-02  0.1379572E+00
          1   -1    0    0  501    0  0.00000000000E+00  0.00000000000E+00  0.27980387988E+03  0.27980387988E+03  0.00000000000E+00 0. -1.
         -1   -1    0    0    0  501 -0.00000000000E+00 -0.00000000000E+00 -0.42762997194E+02  0.42762997194E+02  0.00000000000E+00 0.  1.
         25    2    1    2    0    0 -0.22150991423E+02 -0.83817152102E+01  0.15332144468E+03  0.19928813190E+03  0.12508946617E+03 0.  0.
         23    2    1    2    0    0  0.22150991423E+02  0.83817152102E+01  0.83719438002E+02  0.12327874517E+03  0.87337192194E+02 0.  0.
          5    1    3    3  502    0 -0.34710128927E+02 -0.14163864771E+02  0.17176694567E+03  0.17586006977E+03  0.41800000000E+01 0.  1.
         -5    1    3    3    0  502  0.12559137505E+02  0.57821495607E+01 -0.18445500989E+02  0.23428062130E+02  0.41800000000E+01 0.  1.
        -11    1    4    4    0    0 -0.17649429254E+02 -0.21062286137E+02  0.64609999035E+02  0.70210926683E+02  0.00000000000E+00 0. -1.
         11    1    4    4    0    0  0.39800420676E+02  0.29444001347E+02  0.19109438967E+02  0.53067818487E+02  0.00000000000E+00 0.  1.
</event>
<event>
 8    1  0.6635152E-009  0.1254503E+03  0.7561462E-02  0.1234367E+00
          2   -1    0    0  501    0  0.00000000000E+00  0.00000000000E+00  0.37396147868E+03  0.37396147868E+03  0.00000000000E+00 0. -1.
         -2   -1    0    0    0  501 -0.00000000000E+00 -0.00000000000E+00 -0.46479822105E+02  0.46479822105E+02  0.00000000000E+00 0.  1.
         25    2    1    2    0    0 -0.49874756781E+02 -0.37786175500E+02  0.11979446236E+03  0.18416072782E+03  0.12509665878E+03 0.  0.
         23    2    1    2    0    0  0.49874756781E+02  0.37786175500E+02  0.20768719422E+03  0.23628057296E+03  0.93697663230E+02 0.  0.
          5    1    3    3  502    0 -0.16958729200E+02 -0.81819624887E+02  0.83173160634E+02  0.11797159218E+03  0.41800000000E+01 0. -1.
         -5    1    3    3    0  502 -0.32916027582E+02  0.44033449387E+02  0.36621301725E+02  0.66189135639E+02  0.41800000000E+01 0. -1.
        -11    1    4    4    0    0  0.54987189230E+01  0.61528721917E+02  0.12612345315E+03  0.14043911480E+03  0.00000000000E+00 0. -1.
         11    1    4    4    0    0  0.44376037858E+02 -0.23742546417E+02  0.81563741068E+02  0.95841458166E+02  0.00000000000E+00 0.  1.
</event>
<event>
 8    1  0.6635152E-009  0.9786711E+02  0.7561462E-02  0.1284846E+00
          2   -1    0    0  501    0  0.00000000000E+00  0.00000000000E+00  0.88741886100E+03  0.88741886100E+03  0.00000000000E+00 0. -1.
         -2   -1    0    0    0  501 -0.00000000000E+00 -0.00000000000E+00 -0.18538446656E+02  0.18538446656E+02  0.00000000000E+00 0.  1.
         25    2    1    2    0    0  0.55228738507E+02 -0.22230424252E+02  0.60675713172E+03  0.62237115393E+03  0.12508889253E+03 0.  0.
         23    2    1    2    0    0 -0.55228738507E+02  0.22230424252E+02  0.26212328263E+03  0.28358615373E+03  0.90377463841E+02 0.  0.
          5    1    3    3  502    0  0.65597390411E+02 -0.50830764209E+02  0.23332975254E+03  0.24768332612E+03  0.41800000000E+01 0.  1.
         -5    1    3    3    0  502 -0.10368651904E+02  0.28600339957E+02  0.37342737918E+03  0.37468782781E+03  0.41800000000E+01 0.  1.
        -11    1    4    4    0    0 -0.64861752454E+02  0.88726859820E+01  0.25858261742E+03  0.26674096333E+03  0.00000000000E+00 0. -1.
         11    1    4    4    0    0  0.96330139473E+01  0.13357738270E+02  0.35406652126E+01  0.16845190398E+02  0.00000000000E+00 0.  1.
</event>
<event>
 8    1  0.6635152E-009  0.1730988E+03  0.7561462E-02  0.1174654E+00
          1   -1    0    0  501    0  0.00000000000E+00  0.00000000000E+00  0.53393947814E+03  0.53393947814E+03  0.00000000000E+00 0. -1.
         -1   -1    0    0    0  501 -0.00000000000E+00 -0.00000000000E+00 -0.72434404592E+02  0.72434404592E+02  0.00000000000E+00 0.  1.
         25    2    1    2    0    0  0.16933288772E+02 -0.14349084000E+03  0.12479861546E+03  0.22824554625E+03  0.12507988460E+03 0.  0.
         23    2    1    2    0    0 -0.16933288772E+02  0.14349084000E+03  0.33670645808E+03  0.37812833648E+03  0.93452889195E+02 0.  0.
          5    1    3    3  502    0  0.57567761504E+02 -0.91367418817E+02  0.12052904430E+03  0.16188506820E+03  0.41800000000E+01 0. -1.
         -5    1    3    3    0  502 -0.40634472731E+02 -0.52123421181E+02  0.42695711612E+01  0.66360478054E+02  0.41800000000E+01 0. -1.
        -11    1    4    4    0    0 -0.55442663652E+02  0.74145079926E+02  0.18974817805E+03  0.21112970635E+03  0.00000000000E+00 0. -1.
         11    1    4    4    0    0  0.38509374880E+02  0.69345760071E+02  0.14695828004E+03  0.16699863013E+03  0.00000000000E+00 0.  1.
</event>
<event>
 8    1  0.6635152E-009  0.1411759E+03  0.7561462E-02  0.1211755E+00
         -1   -1    0    0    0  501 -0.00000000000E+00  0.00000000000E+00  0.61577189355E+03  0.61577189355E+03  0.00000000000E+00 0.  1.
          1   -1    0    0  501    0  0.00000000000E+00 -0.00000000000E+00 -0.56528640828E+02  0.56528640828E+02  0.00000000000E+00 0. -1.
         25    2    1    2    0    0  0.21635552730E+02 -0.12316786410E+03  0.45030619724E+03  0.48379925100E+03  0.12509046370E+03 0.  0.
         23    2    1    2    0    0 -0.21635552730E+02  0.12316786410E+03  0.10893705548E+03  0.18850128338E+03  0.89593704515E+02 0.  0.
          5    1    3    3  502    0 -0.35031548866E+02 -0.73538053834E+02  0.12073590497E+03  0.14570410402E+03  0.41800000000E+01 0.  1.
         -5    1    3    3    0  502  0.56667101596E+02 -0.49629810265E+02  0.32957029227E+03  0.33809514698E+03  0.41800000000E+01 0.  1.
        -11    1    4    4    0    0 -0.60578375522E+01  0.17142500290E+02  0.73370617488E+02  0.75589749454E+02  0.00000000000E+00 0.  1.
         11    1    4    4    0    0 -0.15577715178E+02  0.10602536381E+03  0.35566437994E+02  0.11291153392E+03  0.00000000000E+00 0. -1.
</event>
<event>
 8    1  0.6635152E-009  0.1051539E+03  0.7561462E-02  0.1269817E+00
         -3   -1    0    0    0  501 -0.00000000000E+00  0.00000000000E+00  0.89125481362E+02  0.89125481362E+02  0.00000000000E+00 0.  1.
          3   -1    0    0  501    0  0.00000000000E+00 -0.00000000000E+00 -0.16949160271E+03  0.16949160271E+03  0.00000000000E+00 0. -1.
         25    2    1    2    0    0 -0.43310985786E+02  0.26709597612E+02 -0.74123610329E+02  0.15404856689E+03  0.12508959692E+03 0.  0.
         23    2    1    2    0    0  0.43310985786E+02 -0.26709597612E+02 -0.62425110194E+01  0.10456851719E+03  0.91139243732E+02 0.  0.
          5    1    3    3  502    0 -0.41130614346E+02 -0.39070615098E+02 -0.66732728283E+02  0.87686771093E+02  0.41800000000E+01 0. -1.
         -5    1    3    3    0  502 -0.21803714402E+01  0.65780212710E+02 -0.73908820466E+01  0.66361795795E+02  0.41800000000E+01 0. -1.
        -11    1    4    4    0    0  0.47812979617E+02  0.11357352078E+02 -0.31766039781E+02  0.58516252012E+02  0.00000000000E+00 0. -1.
         11    1    4    4    0    0 -0.45019938310E+01 -0.38066949690E+02  0.25523528762E+02  0.46052265173E+02  0.00000000000E+00 0.  1.
</event>
<event>
 7    1  0.6635152E-009  0.1180584E+03  0.7561462E-02  0.1246335E+00
         -2   -1    0    0    0  501 -0.00000000000E+00  0.00000000000E+00  0.87885871557E+03  0.87885871557E+03  0.00000000000E+00 0.  1.
          2   -1    0    0  501    0  0.00000000000E+00 -0.00000000000E+00 -0.16565262592E+02  0.16565262592E+02  0.00000000000E+00 0. -1.
         23    2    1    2    0    0  0.20833707163E+02 -0.48371189363E+02  0.40585546960E+03  0.41912255292E+03  0.90394893936E+02 0.  0.
          5    1    1    2  502    0 -0.70902228873E+02  0.42721502813E+02  0.23573701060E+03  0.24988329962E+03  0.41800000000E+01 0. -1.
         -5    1    1    2    0  502  0.50068521710E+02  0.56496865499E+01  0.22070097278E+03  0.22641812562E+03  0.41800000000E+01 0. -1.
        -11    1    3    3    0    0 -0.29697812961E+02 -0.42434913615E+02  0.24488997989E+03  0.25030737951E+03  0.00000000000E+00 0.  1.
         11    1    3    3    0    0  0.50531520124E+02 -0.59362757478E+01  0.16096548971E+03  0.16881517341E+03  0.00000000000E+00 0. -1.
</event>
<event>
 8    1  0.6635152E-009  0.1762719E+03  0.7561462E-02  0.1171461E+00
         -1   -1    0    0    0  501 -0.00000000000E+00  0.00000000000E+00  0.59308122773E+02  0.59308122773E+02  0.00000000000E+00 0.  1.
          1   -1    0    0  501    0  0.00000000000E+00 -0.00000000000E+00 -0.61208573726E+03  0.61208573726E+03  0.00000000000E+00 0. -1.
         25    2    1    2    0    0 -0.78884190712E+02  0.12702270032E+03 -0.21162785062E+03  0.28773313851E+03  0.12508608995E+03 0.  0.
         23    2    1    2    0    0  0.78884190712E+02 -0.12702270032E+03 -0.34114976387E+03  0.38366072153E+03  0.91950562325E+02 0.  0.
          5    1    3    3  502    0 -0.97622398093E+02  0.68050130651E+02 -0.83647782699E+02  0.14551761695E+03  0.41800000000E+01 0. -1.
         -5    1    3    3    0  502  0.18738207381E+02  0.58972569667E+02 -0.12798006792E+03  0.14221552156E+03  0.41800000000E+01 0. -1.
        -11    1    4    4    0    0  0.50134257985E+02 -0.13295748099E+03 -0.24605223156E+03  0.28413524286E+03  0.00000000000E+00 0.  1.
         11    1    4    4    0    0  0.28749932727E+02  0.59347806738E+01 -0.95097532308E+02  0.99525478670E+02  0.00000000000E+00 0. -1.
</event>
<event>
 8    1  0.6635152E-009  0.1163556E+03  0.7561462E-02  0.1249233E+00
          1   -1    0    0  501    0  0.00000000000E+00  0.00000000000E+00  0.22675526525E+03  0.22675526525E+03  0.00000000000E+00 0. -1.
         -1   -1    0    0    0  501 -0.00000000000E+00 -0.00000000000E+00 -0.76618635025E+02  0.76618635025E+02  0.00000000000E+00 0.  1.
         25    2    1    2    0    0 -0.74063528198E+02 -0.58578966045E+01  0.76867617244E+02  0.16455992329E+03  0.12510642114E+03 0.  0.
         23    2    1    2    0    0  0.74063528198E+02  0.58578966045E+01  0.73269012985E+02  0.13881397699E+03  0.91549171386E+02 0.  0.
          5    1    3    3  502    0  0.16555653494E+01 -0.33822042098E+02  0.76466032707E+02  0.83732896679E+02  0.41800000000E+01 0. -1.
         -5    1    3    3    0  502 -0.75719093547E+02  0.27964145494E+02  0.40158453686E+00  0.80827026612E+02  0.41800000000E+01 0. -1.
        -11    1    4    4    0    0  0.85603351825E+02  0.30242357039E+02  0.53628415486E+02  0.10544449227E+03  0.00000000000E+00 0.  1.
         11    1    4    4    0    0 -0.11539823627E+02 -0.24384460434E+02  0.19640597499E+02  0.33369484715E+02  0.00000000000E+00 0. -1.
</event>
<event>
 8    1  0.6635152E-009  0.1327840E+03  0.7561462E-02  0.1223382E+00
         -1   -1    0    0    0  501 -0.00000000000E+00  0.00000000000E+00  0.20455750175E+02  0.20455750175E+02  0.00000000000E+00 0.  1.
          1   -1    0    0  501    0  0.00000000000E+00 -0.00000000000E+00 -0.12415154184E+04  0.12415154184E+04  0.00000000000E+00 0. -1.
         25    2    1    2    0    0 -0.48834510593E+02  0.67204450101E+02 -0.97571303975E+03  0.98719960325E+03  0.12508346484E+03 0.  0.
         23    2    1    2    0    0  0.48834510593E+02 -0.67204450101E+02 -0.24534662845E+03  0.27477156530E+03  0.91668955859E+02 0.  0.
          5    1    3    3  502    0 -0.24665379071E+02 -0.35986378572E+02 -0.31259446886E+03  0.31565198357E+03  0.41800000000E+01 0. -1.
         -5    1    3    3    0  502 -0.24169131522E+02  0.10319082867E+03 -0.66311857089E+03  0.67154761968E+03  0.41800000000E+01 0. -1.
        -11    1    4    4    0    0  0.69892107834E+02 -0.63220966963E+02 -0.22956419816E+03  0.24815623804E+03  0.00000000000E+00 0. -1.
         11    1    4    4    0    0 -0.21057597241E+02 -0.39834831385E+01 -0.15782430294E+02  0.26615327266E+02  0.00000000000E+00 0.  1.
</event>
<event>
 7    1  0.6635152E-009  0.8619879E+02  0.7561462E-02  0.1312327E+00
          2   -1    0    0  501    0  0.00000000000E+00  0.00000000000E+00  0.26689678263E+03  0.26689678263E+03  0.00000000000E+00 0. -1.
         -2   -1    0    0    0  501 -0.00000000000E+00 -0.00000000000E+00 -0.77615416646E+02  0.77615416646E+02  0.00000000000E+00 0.  1.
         23    2    1    2    0    0 -0.62164773092E+02 -0.76321212303E+01  0.16798919891E+03  0.20344004444E+03  0.96149739699E+02 0.  0.
          5    1    1    2  502    0 -0.19719038268E+02  0.22129257760E+01 -0.35710663432E+02  0.41066548351E+02  0.41800000000E+01 0. -1.
         -5    1    1    2    0  502  0.81883811361E+02  0.54191954543E+01  0.57002830502E+02  0.10000560648E+03  0.41800000000E+01 0. -1.
        -11    1    3    3    0    0 -0.31959452980E+02  0.11761138433E+02  0.16379844885E+03  0.16730111433E+03  0.00000000000E+00 0. -1.
         11    1    3    3    0    0 -0.30205320112E+02 -0.19393259663E+02  0.41907500633E+01  0.36138930110E+02  0.00000000000E+00 0.  1.
</event>
<event>
 8    1  0.6635152E-009  0.2223323E+03  0.7561462E-02  0.1132156E+00
         -1   -1    0    0    0  501 -0.00000000000E+00  0.00000000000E+00  0.87598167941E+03  0.87598167941E+03  0.00000000000E+00 0.  1.
          1   -1    0    0  501    0  0.00000000000E+00 -0.00000000000E+00 -0.59384272022E+02  0.59384272022E+02  0.00000000000E+00 0. -1.
         25    2    1    2    0    0 -0.27178753652E+02  0.19800478416E+03  0.43272286404E+03  0.49279071659E+03  0.12509609944E+03 0.  0.
         23    2    1    2    0    0  0.27178753652E+02 -0.19800478416E+03  0.38387454335E+03  0.44257523484E+03  0.92566701697E+02 0.  0.
          5    1    3    3  502    0 -0.54849172626E+02  0.51659462559E+02  0.22380237781E+03  0.23618236285E+03  0.41800000000E+01 0. -1.
         -5    1    3    3    0  502  0.27670418974E+02  0.14634532160E+03  0.20892048623E+03  0.25660835374E+03  0.41800000000E+01 0. -1.
        -11    1    4    4    0    0  0.42931829861E+02 -0.32230118343E+02  0.89499392200E+02  0.10436505041E+03  0.00000000000E+00 0.  1.
         11    1    4    4    0    0 -0.15753076209E+02 -0.16577466582E+03  0.29437515115E+03  0.33821018443E+03  0.00000000000E+00 0. -1.
</event>
<event>
 8    1  0.6635152E-009  0.7601732E+02  0.7561462E-02  0.1340749E+00
         -1   -1    0    0    0  501 -0.00000000000E+00  0.00000000000E+00  0.14374345391E+03  0.14374345391E+03  0.00000000000E+00 0.  1.
          1   -1    0    0  501    0  0.00000000000E+00 -0.00000000000E+00 -0.11377822939E+03  0.11377822939E+03  0.00000000000E+00 0. -1.
         25    2    1    2    0    0 -0.13548333481E+01  0.31221754903E+02 -0.31079948628E+02  0.13262389784E+03  0.12508597651E+03 0.  0.
         23    2    1    2    0    0  0.13548333481E+01 -0.31221754903E+02  0.61045173147E+02  0.12489778545E+03  0.10438539215E+03 0.  0.
          5    1    3    3  502    0 -0.15225711878E+02  0.28937455081E+02  0.44642445307E+02  0.55494314410E+02  0.41800000000E+01 0. -1.
         -5    1    3    3    0  502  0.13870878530E+02  0.22842998222E+01 -0.75722393935E+02  0.77129583430E+02  0.41800000000E+01 0. -1.
        -11    1    4    4    0    0  0.49905530799E+02 -0.78446440033E+01  0.11752228878E+02  0.51867285715E+02  0.00000000000E+00 0. -1.
         11    1    4    4    0    0 -0.48550697451E+02 -0.23377110900E+02  0.49292944270E+02  0.73030499737E+02  0.00000000000E+00 0.  1.
</event>
<event>
 8    1  0.6635152E-009  0.1644159E+03  0.7561462E-02  0.1183800E+00
         -2   -1    0    0    0  501 -0.00000000000E+00  0.00000000000E+00  0.19188110285E+02  0.19188110285E+02  0.00000000000E+00 0.  1.
          2   -1    0    0  501    0  0.00000000000E+00 -0.00000000000E+00 -0.16276703230E+04  0.16276703230E+04  0.00000000000E+00 0. -1.
         25    2    1    2    0    0 -0.10202143438E+03 -0.92321487405E+02 -0.92633627763E+03  0.94481640649E+03  0.12509001797E+03 0.  0.
         23    2    1    2    0    0  0.10202143438E+03  0.92321487405E+02 -0.68214593504E+03  0.70204202675E+03  0.92780927637E+02 0.  0.
          5    1    3    3  502    0 -0.38905997523E+02 -0.10390298098E+03 -0.42056115790E+03  0.43496973002E+03  0.41800000000E+01 0.  1.
         -5    1    3    3    0  502 -0.63115436855E+02  0.11581493570E+02 -0.50577511973E+03  0.50984667647E+03  0.41800000000E+01 0.  1.
        -11    1    4    4    0    0 -0.76371922114E+01  0.21857148964E+02 -0.35452573224E+02  0.42343200326E+02  0.00000000000E+00 0.  1.
         11    1    4    4    0    0  0.10965862659E+03  0.70464338441E+02 -0.64669336181E+03  0.65969882643E+03  0.00000000000E+00 0. -1.
</event>
<event>
 8    1  0.6635152E-009  0.8674488E+02  0.7561462E-02  0.1310932E+00
          2   -1    0    0  501    0  0.00000000000E+00  0.00000000000E+00  0.29695130975E+03  0.29695130975E+03  0.00000000000E+00 0. -1.
         -2   -1    0    0    0  501 -0.00000000000E+00 -0.00000000000E+00 -0.99251400539E+02  0.99251400539E+02  0.00000000000E+00 0.  1.
         25    2    1    2    0    0  0.63419380814E+02 -0.55473719976E+01 -0.29053247776E+02  0.14333206648E+03  0.12508876399E+03 0.  0.
         23    2    1    2    0    0 -0.63419380814E+02  0.55473719976E+01  0.22675315699E+03  0.25287064381E+03  0.92053121055E+02 0.  0.
          5    1    3    3  502    0  0.59815520601E+02 -0.41574931553E+01 -0.75519451913E+02  0.96518605830E+02  0.41800000000E+01 0. -1.
         -5    1    3    3    0  502  0.36038602129E+01 -0.13898788423E+01  0.46466204137E+02  0.46813460655E+02  0.41800000000E+01 0. -1.
        -11    1    4    4    0    0  0.20306216598E+02 -0.98407099606E+01  0.80942183483E+02  0.84028680057E+02  0.00000000000E+00 0. -1.
         11    1    4    4    0    0 -0.83725597412E+02  0.15388081958E+02  0.14581097351E+03  0.16884196375E+03  0.00000000000E+00 0.  1.
</event>
<event>
 8    1  0.6635152E-009  0.1807400E+03  0.7561462E-02  0.1167089E+00
          2   -1    0    0  501    0  0.00000000000E+00  0.00000000000E+00  0.17233621529E+04  0.17233621529E+04  0.00000000000E+00 0. -1.
         -2   -1    0    0    0  501 -0.00000000000E+00 -0.00000000000E+00 -0.23512375785E+02  0.23512375785E+02  0.00000000000E+00 0.  1.
         25    2    1    2    0    0 -0.11661409794E+03 -0.10586689311E+03  0.11355809258E+04  0.11532551029E+04  0.12508655517E+03 0.  0.
         23    2    1    2    0    0  0.11661409794E+03  0.10586689311E+03  0.56426885128E+03  0.59361942582E+03  0.95802083909E+02 0.  0.
          5    1    3    3  502    0 -0.11109811977E+03 -0.49406015589E+02  0.47877717258E+03  0.49399271247E+03  0.41800000000E+01 0. -1.
         -5    1    3    3    0  502 -0.55159781774E+01 -0.56460877520E+02  0.65680375323E+03  0.65926239038E+03  0.41800000000E+01 0. -1.
        -11    1    4    4    0    0  0.71307933489E+02  0.39666752210E+01  0.25703465253E+03  0.26677212840E+03  0.00000000000E+00 0. -1.
         11    1    4    4    0    0  0.45306164455E+02  0.10190021789E+03  0.30723419875E+03  0.32684729741E+03  0.00000000000E+00 0.  1.
</event>
<event>
 8    1  0.6635152E-009  0.1329241E+03  0.7561462E-02  0.1223180E+00
         -1   -1    0    0    0  501 -0.00000000000E+00  0.00000000000E+00  0.39318837374E+02  0.39318837374E+02  0.00000000000E+00 0.  1.
          1   -1    0    0  501    0  0.00000000000E+00 -0.00000000000E+00 -0.78782889076E+03  0.78782889076E+03  0.00000000000E+00 0. -1.
         25    2    1    2    0    0  0.11810916772E+03 -0.36136643235E+02 -0.54090282375E+03  0.56875257218E+03  0.12509193073E+03 0.  0.
         23    2    1    2    0    0 -0.11810916772E+03  0.36136643235E+02 -0.20760722964E+03  0.25839515596E+03  0.91715115118E+02 0.  0.
          5    1    3    3  502    0  0.99918886482E+02  0.15928988157E+01 -0.50053649958E+03  0.51043175941E+03  0.41800000000E+01 0. -1.
         -5    1    3    3    0  502  0.18190281237E+02 -0.37729542051E+02 -0.40366324166E+02  0.58320812765E+02  0.41800000000E+01 0. -1.
        -11    1    4    4    0    0 -0.48137978308E+02  0.10936555767E+02 -0.14482197829E+02  0.51445186962E+02  0.00000000000E+00 0.  1.
         11    1    4    4    0    0 -0.69971189412E+02  0.25200087468E+02 -0.19312503181E+03  0.20694996900E+03  0.00000000000E+00 0. -1.
</event>
<event>
 8    1  0.6635152E-009  0.1578926E+03  0.7561462E-02  0.1191097E+00
          2   -1    0    0  501    0  0.00000000000E+00  0.00000000000E+00  0.15161252341E+04  0.15161252341E+04  0.00000000000E+00 0. -1.
         -2   -1    0    0    0  501 -0.00000000000E+00 -0.00000000000E+00 -0.18671140879E+02  0.18671140879E+02  0.00000000000E+00 0.  1.
         25    2    1    2    0    0 -0.79528093161E+02  0.98122939652E+02  0.84321521366E+03  0.86175196496E+03  0.12510684903E+03 0.  0.
         23    2    1    2    0    0  0.79528093161E+02 -0.98122939652E+02  0.65423887960E+03  0.67304441006E+03  0.94907520479E+02 0.  0.
          5    1    3    3  502    0  0.11184830813E+02 -0.12677275760E+02  0.28212423291E+03  0.28266122648E+03  0.41800000000E+01 0. -1.
         -5    1    3    3    0  502 -0.90712923974E+02  0.11080021541E+03  0.56109098075E+03  0.57909073848E+03  0.41800000000E+01 0. -1.
        -11    1    4    4    0    0  0.35075438958E+02 -0.10447653397E+03  0.51807706906E+03  0.52966921947E+03  0.00000000000E+00 0. -1.
         11    1    4    4    0    0  0.44452654203E+02  0.63535943216E+01  0.13616181053E+03  0.14337519058E+03  0.00000000000E+00 0.  1.
</event>
<event>
 8    1  0.6635152E-009  0.2112677E+03  0.7561462E-02  0.1140566E+00
          3   -1    0    0  501    0  0.00000000000E+00  0.00000000000E+00  0.19541207220E+03  0.19541207220E+03  0.00000000000E+00 0. -1.
         -3   -1    0    0    0  501 -0.00000000000E+00 -0.00000000000E+00 -0.27130446361E+03  0.27130446361E+03  0.00000000000E+00 0.  1.
         25    2    1    2    0    0  0.12893878556E+03 -0.15648593924E+03 -0.54767396614E+02  0.24445419835E+03  0.12508128461E+03 0.  0.
         23    2    1    2    0    0 -0.12893878556E+03  0.15648593924E+03 -0.21124994797E+02  0.22226233745E+03  0.88550672734E+02 0.  0.
          5    1    3    3  502    0  0.14100809454E+03 -0.14509814371E+03 -0.76889590990E+02  0.21648610957E+03  0.41800000000E+01 0.  1.
         -5    1    3    3    0  502 -0.12069308979E+02 -0.11387795529E+02  0.22122194376E+02  0.27968088785E+02  0.41800000000E+01 0.  1.
        -11    1    4    4    0    0 -0.44581303627E+01  0.90904955074E+01 -0.27423115151E+02  0.29232503818E+02  0.00000000000E+00 0.  1.
         11    1    4    4    0    0 -0.12448065520E+03  0.14739544373E+03  0.62981203545E+01  0.19302983363E+03  0.00000000000E+00 0. -1.
</event>
<event>
 8    1  0.6635152E-009  0.1279578E+03  0.7561462E-02  0.1230518E+00
          2   -1    0    0  501    0  0.00000000000E+00  0.00000000000E+00  0.65231550297E+02  0.65231550297E+02  0.00000000000E+00 0. -1.
         -2   -1    0    0    0  501 -0.00000000000E+00 -0.00000000000E+00 -0.30788157688E+03  0.30788157688E+03  0.00000000000E+00 0.  1.
         25    2    1    2    0    0 -0.86659324361E+02  0.24222966846E+02 -0.15087008383E+03  0.21565301666E+03  0.12509136972E+03 0.  0.
         23    2    1    2    0    0  0.86659324361E+02 -0.24222966846E+02 -0.91779942752E+02  0.15746011052E+03  0.90958990162E+02 0.  0.
          5    1    3    3  502    0 -0.11862649518E+03  0.26952539303E+02 -0.12044671499E+03  0.17124125755E+03  0.41800000000E+01 0. -1.
         -5    1    3    3    0  502  0.31967170819E+02 -0.27295724568E+01 -0.30423368833E+02  0.44411759108E+02  0.41800000000E+01 0. -1.
        -11    1    4    4    0    0  0.33215777503E+02  0.14090835264E+02 -0.83777251669E+02  0.91216596137E+02  0.00000000000E+00 0.  1.
         11    1    4    4    0    0  0.53443546859E+02 -0.38313802110E+02 -0.80026910823E+01  0.66243514381E+02  0.00000000000E+00 0. -1.
</event>
<event>
 8    1  0.6635152E-009  0.1799156E+03  0.7561462E-02  0.1167885E+00
         -2   -1    0    0    0  501 -0.00000000000E+00  0.00000000000E+00  0.11996018529E+03  0.11996018529E+03  0.00000000000E+00 0.  1.
          2   -1    0    0  501    0  0.00000000000E+00 -0.00000000000E+00 -0.29082393894E+03  0.29082393894E+03  0.00000000000E+00 0. -1.
         25    2    1    2    0    0 -0.14544680526E+03 -0.34793302038E+02 -0.11919879299E+03  0.22851865360E+03  0.12508827189E+03 0.  0.
         23    2    1    2    0    0  0.14544680526E+03  0.34793302038E+02 -0.51664960657E+02  0.18226547064E+03  0.90476994862E+02 0.  0.
          5    1    3    3  502    0  0.19248672659E+02 -0.68455359647E+01  0.35820659195E+01  0.21158363785E+02  0.41800000000E+01 0.  1.
         -5    1    3    3    0  502 -0.16469547792E+03 -0.27947766073E+02 -0.12278085891E+03  0.20736028981E+03  0.41800000000E+01 0.  1.
        -11    1    4    4    0    0  0.39977540677E+02  0.51390394234E+02 -0.36857410012E+01  0.65213197014E+02  0.00000000000E+00 0.  1.
         11    1    4    4    0    0  0.10546926459E+03 -0.16597092196E+02 -0.47979219656E+02  0.11705227362E+03  0.00000000000E+00 0. -1.
</event>
<event>
 7    1  0.6635152E-009  0.1071119E+03  0.7561462E-02  0.1266014E+00
          1   -1    0    0  501    0  0.00000000000E+00  0.00000000000E+00  0.63977968994E+02  0.63977968994E+02  0.00000000000E+00 0. -1.
         -1   -1    0    0    0  501 -0.00000000000E+00 -0.00000000000E+00 -0.26728066302E+03  0.26728066302E+03  0.00000000000E+00 0.  1.
         23    2    1    2    0    0  0.66480437751E+02  0.22551525636E+02 -0.69256181148E+02  0.13497192430E+03  0.92156290133E+02 0.  0.
          5    1    1    2  502    0 -0.46704686247E+02 -0.71341605746E+02 -0.56174356117E+02  0.10219580771E+03  0.41800000000E+01 0.  1.
         -5    1    1    2    0  502 -0.19775751504E+02  0.48790080111E+02 -0.77872156765E+02  0.94090900006E+02  0.41800000000E+01 0.  1.
        -11    1    3    3    0    0  0.10510044498E+02 -0.71168236778E+01 -0.70478856051E+02  0.71612703935E+02  0.00000000000E+00 0.  1.
         11    1    3    3    0    0  0.55970393253E+02  0.29668349313E+02  0.12226749030E+01  0.63359220369E+02  0.00000000000E+00 0. -1.
</event>
<event>
 8    1  0.6635152E-009  0.7741958E+02  0.7561462E-02  0.1336538E+00
         -1   -1    0    0    0  501 -0.00000000000E+00  0.00000000000E+00  0.31080819664E+03  0.31080819664E+03  0.00000000000E+00 0.  1.
          1   -1    0    0  501    0  0.00000000000E+00 -0.00000000000E+00 -0.43223356992E+02  0.43223356992E+02  0.00000000000E+00 0. -1.
         25    2    1    2    0    0 -0.99586368428E+01  0.15456907433E+02  0.93253989863E+02  0.15710369768E+03  0.12508866761E+03 0.  0.
         23    2    1    2    0    0  0.99586368428E+01 -0.15456907433E+02  0.17433084978E+03  0.19692785595E+03  0.89728729107E+02 0.  0.
          5    1    3    3  502    0  0.11083129211E+02  0.40585266990E+02 -0.14266886043E+02  0.44620803300E+02  0.41800000000E+01 0.  1.
         -5    1    3    3    0  502 -0.21041766054E+02 -0.25128359557E+02  0.10752087591E+03  0.11248289438E+03  0.41800000000E+01 0.  1.
        -11    1    4    4    0    0 -0.33032886317E+02 -0.15593785344E+02  0.13056472979E+03  0.13557834039E+03  0.00000000000E+00 0.  1.
         11    1    4    4    0    0  0.42991523160E+02  0.13687791045E+00  0.43766119997E+02  0.61349515554E+02  0.00000000000E+00 0. -1.
</event>
<event>
 8    1  0.6635152E-009  0.9846101E+02  0.7561462E-02  0.1283566E+00
          1   -1    0    0  501    0  0.00000000000E+00  0.00000000000E+00  0.14537523756E+03  0.14537523756E+03  0.00000000000E+00 0. -1.
         -1   -1    0    0    0  501 -0.00000000000E+00 -0.00000000000E+00 -0.13612193466E+03  0.13612193466E+03  0.00000000000E+00 0.  1.
         25    2    1    2    0    0  0.41734317201E+01  0.89142616186E+02 -0.90741234966E+01  0.15392818612E+03  0.12509085982E+03 0.  0.
         23    2    1    2    0    0 -0.41734317201E+01 -0.89142616186E+02  0.18327426395E+02  0.12756898611E+03  0.89297973692E+02 0.  0.
          5    1    3    3  502    0  0.30802194708E+02  0.62079439426E+02 -0.58969657465E+02  0.91090750901E+02  0.41800000000E+01 0. -1.
         -5    1    3    3    0  502 -0.26628762988E+02  0.27063176761E+02  0.49895533968E+02  0.62837435217E+02  0.41800000000E+01 0. -1.
        -11    1    4    4    0    0  0.32353492381E+00 -0.23393692150E+02  0.49436366607E+02  0.54692996358E+02  0.00000000000E+00 0. -1.
         11    1    4    4    0    0 -0.44969666439E+01 -0.65748924036E+02 -0.31108940213E+02  0.72875989750E+02  0.00000000000E+00 0.  1.
</event>
<event>
 8    1  0.6635152E-009  0.2823894E+03  0.7561462E-02  0.1094391E+00
          2   -1    0    0  501    0  0.00000000000E+00  0.00000000000E+00  0.87161140030E+03  0.87161140030E+03  0.00000000000E+00 0. -1.
         -2   -1    0    0    0  501 -0.00000000000E+00 -0.00000000000E+00 -0.98527329526E+02  0.98527329526E+02  0.00000000000E+00 0.  1.
         25    2    1    2    0    0 -0.18100359801E+03 -0.19929977561E+03  0.46571913321E+03  0.55229095147E+03  0.12509308926E+03 0.  0.
         23    2    1    2    0    0  0.18100359801E+03  0.19929977561E+03  0.30736493756E+03  0.41784777836E+03  0.87412001380E+02 0.  0.
          5    1    3    3  502    0 -0.21006148595E+01 -0.80457756959E+02  0.15245647999E+03  0.17244800355E+03  0.41800000000E+01 0. -1.
         -5    1    3    3    0  502 -0.17890298315E+03 -0.11884201865E+03  0.31326265322E+03  0.37984294792E+03  0.41800000000E+01 0. -1.
        -11    1    4    4    0    0  0.18761746188E+02  0.16896466435E+02  0.81311546609E+02  0.85141419474E+02  0.00000000000E+00 0. -1.
         11    1    4    4    0    0  0.16224185183E+03  0.18240330918E+03  0.22605339096E+03  0.33270635889E+03  0.00000000000E+00 0.  1.
</event>
<event>
 8    1  0.6635152E-009  0.1317548E+03  0.7561462E-02  0.1224875E+00
         -2   -1    0    0    0  501 -0.00000000000E+00  0.00000000000E+00  0.67954705820E+02  0.67954705820E+02  0.00000000000E+00 0.  1.
          2   -1    0    0  501    0  0.00000000000E+00 -0.00000000000E+00 -0.30209505106E+03  0.30209505106E+03  0.00000000000E+00 0. -1.
         25    2    1    2    0    0 -0.33768742562E+02 -0.85978081678E+02 -0.12355849435E+03  0.19861615941E+03  0.12509643780E+03 0.  0.
         23    2    1    2    0    0  0.33768742562E+02  0.85978081678E+02 -0.11058185089E+03  0.17143359747E+03  0.92890118375E+02 0.  0.
          5    1    3    3  502    0 -0.67879635863E+02 -0.47555643563E+02 -0.12136014906E+03  0.14702021078E+03  0.41800000000E+01 0. -1.
         -5    1    3    3    0  502  0.34110893302E+02 -0.38422438115E+02 -0.21983452922E+01  0.51595948625E+02  0.41800000000E+01 0. -1.
        -11    1    4    4    0    0 -0.30373008500E+02  0.39186567004E+02 -0.57523681686E+02  0.75941297287E+02  0.00000000000E+00 0. -1.
         11    1    4    4    0    0  0.64141751062E+02  0.46791514674E+02 -0.53058169202E+02  0.95492300181E+02  0.00000000000E+00 0.  1.
</event>
<event>
 7    1  0.6635152E-009  0.1041519E+03  0.7561462E-02  0.1271800E+00
         -1   -1    0    0    0  501 -0.00000000000E+00  0.00000000000E+00  0.36615304500E+02  0.36615304500E+02  0.00000000000E+00 0.  1.
          1   -1    0    0  501    0  0.00000000000E+00 -0.00000000000E+00 -0.12256856124E+04  0.12256856124E+04  0.00000000000E+00 0. -1.
         23    2    1    2    0    0 -0.50760571248E+02 -0.74724686317E+00 -0.52361496073E+02  0.11761347411E+03  0.92271388040E+02 0.  0.
          5    1    1    2  502    0  0.60059570502E+02 -0.35768690929E+02 -0.34310814958E+03  0.35018170421E+03  0.41800000000E+01 0.  1.
         -5    1    1    2    0  502 -0.92989992538E+01  0.36515937792E+02 -0.79360066223E+03  0.79450573855E+03  0.41800000000E+01 0.  1.
        -11    1    3    3    0    0  0.23845566879E+02 -0.85893186447E+01 -0.30127550748E+02  0.39370760326E+02  0.00000000000E+00 0. -1.
         11    1    3    3    0    0 -0.74606138128E+02  0.78420717815E+01 -0.22233945324E+02  0.78242713787E+02  0.00000000000E+00 0.  1.
</event>
<event>
 8    1  0.6635152E-009  0.7790246E+02  0.7561462E-02  0.1335112E+00
         -1   -1    0    0    0  501 -0.00000000000E+00  0.00000000000E+00  0.36277570511E+03  0.36277570511E+03  0.00000000000E+00 0.  1.
          1   -1    0    0  501    0  0.00000000000E+00 -0.00000000000E+00 -0.36984016671E+02  0.36984016671E+02  0.00000000000E+00 0. -1.
         25    2    1    2    0    0 -0.27687254057E+02  0.16004091836E+02  0.16508530753E+03  0.20957984324E+03  0.12509131439E+03 0.  0.
         23    2    1    2    0    0  0.27687254057E+02 -0.16004091836E+02  0.16070638090E+03  0.19017987853E+03  0.96535642873E+02 0.  0.
          5    1    3    3  502    0  0.51365452105E+00 -0.12933725489E+02  0.16828316808E+03  0.16883199387E+03  0.41800000000E+01 0. -1.
         -5    1    3    3    0  502 -0.28200908578E+02  0.28937817325E+02 -0.31978605462E+01  0.40747849369E+02  0.41800000000E+01 0. -1.
        -11    1    4    4    0    0 -0.19767501258E+02  0.29712317943E+02  0.60815435651E+02  0.70513070824E+02  0.00000000000E+00 0. -1.
         11    1    4    4    0    0  0.47454755315E+02 -0.45716409780E+02  0.99890945249E+02  0.11966680771E+03  0.00000000000E+00 0.  1.
</event>
<event>
 8    1  0.6635152E-009  0.9304880E+02  0.7561462E-02  0.1295632E+00
          2   -1    0    0  501    0  0.00000000000E+00  0.00000000000E+00  0.28787221968E+03  0.28787221968E+03  0.00000000000E+00 0. -1.
         -2   -1    0    0    0  501 -0.00000000000E+00 -0.00000000000E+00 -0.55316994406E+02  0.55316994406E+02  0.00000000000E+00 0.  1.
         25    2    1    2    0    0 -0.46555330306E+02  0.41787156860E+02  0.14845437287E+03  0.20395781310E+03  0.12508606413E+03 0.  0.
         23    2    1    2    0    0  0.46555330306E+02 -0.41787156860E+02  0.84100852406E+02  0.13923140099E+03  0.91645318424E+02 0.  0.
          5    1    3    3  502    0 -0.38715428814E+02  0.67537529150E+02  0.15709906755E+03  0.17537899446E+03  0.41800000000E+01 0.  1.
         -5    1    3    3    0  502 -0.78399014919E+01 -0.25750372289E+02 -0.86446946818E+01  0.28578818635E+02  0.41800000000E+01 0.  1.
        -11    1    4    4    0    0  0.50513743510E+02 -0.13433433682E+02  0.95136174390E+02  0.10854946845E+03  0.00000000000E+00 0.  1.
         11    1    4    4    0    0 -0.39584132039E+01 -0.28353723178E+02 -0.11035321984E+02  0.30681932541E+02  0.00000000000E+00 0. -1.
</event>
<event>
 8    1  0.6635152E-009  0.1067261E+03  0.7561462E-02  0.1266756E+00
          1   -1    0    0  501    0  0.00000000000E+00  0.00000000000E+00  0.40401299658E+02  0.40401299658E+02  0.00000000000E+00 0. -1.
         -1   -1    0    0    0  501 -0.00000000000E+00 -0.00000000000E+00 -0.31548201815E+03  0.31548201815E+03  0.00000000000E+00 0.  1.
         25    2    1    2    0    0 -0.48989879060E+01  0.25920397375E+02 -0.18782902138E+03  0.22720595396E+03  0.12508771787E+03 0.  0.
         23    2    1    2    0    0  0.48989879060E+01 -0.25920397375E+02 -0.87251697113E+02  0.12867736385E+03  0.90824766639E+02 0.  0.
          5    1    3    3  502    0  0.49183729782E+02  0.48274050464E+02 -0.96484285549E+02  0.11864279574E+03  0.41800000000E+01 0.  1.
         -5    1    3    3    0  502 -0.54082717688E+02 -0.22353653089E+02 -0.91344735831E+02  0.10856315822E+03  0.41800000000E+01 0.  1.
        -11    1    4    4    0    0 -0.30036000777E+02 -0.38303306944E+02 -0.21529916071E+02  0.53224448814E+02  0.00000000000E+00 0. -1.
         11    1    4    4    0    0  0.34934988683E+02  0.12382909569E+02 -0.65721781042E+02  0.75452915033E+02  0.00000000000E+00 0.  1.
</event>
<event>
 8    1  0.6635152E-009  0.1813098E+03  0.7561462E-02  0.1166541E+00
         -2   -1    0    0    0  501 -0.00000000000E+00  0.00000000000E+00  0.49716173745E+03  0.49716173745E+03  0.00000000000E+00 0.  1.
          2   -1    0    0  501    0  0.00000000000E+00 -0.00000000000E+00 -0.73646714340E+02  0.73646714340E+02  0.00000000000E+00 0. -1.
         25    2    1    2    0    0 -0.93952833345E+02 -0.12363980020E+03  0.26582446041E+03  0.33230338971E+03  0.12509581917E+03 0.  0.
         23    2    1    2    0    0  0.93952833345E+02  0.12363980020E+03  0.15769056270E+03  0.23850506208E+03  0.88906782568E+02 0.  0.
          5    1    3    3  502    0 -0.11301271569E+03 -0.87988100208E+02  0.25104255612E+03  0.28905642540E+03  0.41800000000E+01 0. -1.
         -5    1    3    3    0  502  0.19059882342E+02 -0.35651699991E+02  0.14781904293E+02  0.43246964306E+02  0.41800000000E+01 0. -1.
        -11    1    4    4    0    0 -0.14435592610E+02  0.37687627482E+02  0.30495636034E+02  0.50583865178E+02  0.00000000000E+00 0.  1.
         11    1    4    4    0    0  0.10838842596E+03  0.85952172717E+02  0.12719492666E+03  0.18792119690E+03  0.00000000000E+00 0. -1.
</event>
<event>
 8    1  0.6635152E-009  0.9574593E+02  0.7561462E-02  0.1289505E+00
         -2   -1    0    0    0  501 -0.00000000000E+00  0.00000000000E+00  0.54523296582E+02  0.54523296582E+02  0.00000000000E+00 0.  1.
          2   -1    0    0  501    0  0.00000000000E+00 -0.00000000000E+00 -0.29045730468E+03  0.29045730468E+03  0.00000000000E+00 0. -1.
         25    2    1    2    0    0 -0.39515416977E+02 -0.44014171485E+02 -0.12591281385E+03  0.18708337323E+03  0.12508971331E+03 0.  0.
         23    2    1    2    0    0  0.39515416977E+02  0.44014171485E+02 -0.11002119426E+03  0.15789722804E+03  0.96582379175E+02 0.  0.
          5    1    3    3  502    0 -0.69337567085E+02 -0.54028773686E+02 -0.42278948006E+02  0.97630878516E+02  0.41800000000E+01 0.  1.
         -5    1    3    3    0  502  0.29822150108E+02  0.10014602201E+02 -0.83633865842E+02  0.89452494710E+02  0.41800000000E+01 0.  1.
        -11    1    4    4    0    0  0.28131793277E+02  0.19740675386E+01  0.10231883315E+02  0.29999769529E+02  0.00000000000E+00 0.  1.
         11    1    4    4    0    0  0.11383623700E+02  0.42040103947E+02 -0.12025307757E+03  0.12789745851E+03  0.00000000000E+00 0. -1.
</event>
<event>
 8    1  0.6635152E-009  0.8395118E+02  0.7561462E-02  0.1318198E+00
          1   -1    0    0  501    0  0.00000000000E+00  0.00000000000E+00  0.12193030279E+03  0.12193030279E+03  0.00000000000E+00 0. -1.
         -1   -1    0    0    0  501 -0.00000000000E+00 -0.00000000000E+00 -0.14518202467E+03  0.14518202467E+03  0.00000000000E+00 0.  1.
         25    2    1    2    0    0  0.19914067412E+02 -0.55335101794E+02  0.35766689695E+02  0.14277538593E+03  0.12508801367E+03 0.  0.
         23    2    1    2    0    0 -0.19914067412E+02  0.55335101794E+02 -0.59018411576E+02  0.12433694153E+03  0.92292787114E+02 0.  0.
          5    1    3    3  502    0  0.43706366100E+02 -0.59442963575E+02 -0.24389175629E+02  0.77820412773E+02  0.41800000000E+01 0. -1.
         -5    1    3    3    0  502 -0.23792298688E+02  0.41078617815E+01  0.60155865324E+02  0.64954973159E+02  0.41800000000E+01 0. -1.
        -11    1    4    4    0    0  0.80875212136E+01  0.32129166656E+02 -0.76956931595E+02  0.83785802317E+02  0.00000000000E+00 0.  1.
         11    1    4    4    0    0 -0.28001588626E+02  0.23205935138E+02  0.17938520019E+02  0.40551139215E+02  0.00000000000E+00 0. -1.
</event>
<event>
 8    1  0.6635152E-009  0.1151675E+03  0.7561462E-02  0.1251289E+00
         -2   -1    0    0    0  501 -0.00000000000E+00  0.00000000000E+00  0.64911707936E+02  0.64911707936E+02  0.00000000000E+00 0. -1.
          2   -1    0    0  501    0  0.00000000000E+00 -0.00000000000E+00 -0.36730081436E+03  0.36730081436E+03  0.00000000000E+00 0.  1.
         25    2    1    2    0    0 -0.89150806979E+01  0.79385612415E+02 -0.26664687675E+03  0.30517092346E+03  0.12508869462E+03 0.  0.
         23    2    1    2    0    0  0.89150806979E+01 -0.79385612415E+02 -0.35742229676E+02  0.12704159884E+03  0.92089666797E+02 0.  0.
          5    1    3    3  502    0 -0.29036593086E+02  0.83537400866E+02 -0.26981150867E+03  0.28396715249E+03  0.41800000000E+01 0. -1.
         -5    1    3    3    0  502  0.20121512389E+02 -0.41517884513E+01  0.31646319210E+01  0.21203770970E+02  0.41800000000E+01 0. -1.
        -11    1    4    4    0    0  0.40454864024E+02 -0.79599143301E+02 -0.33691609190E+02  0.95434501975E+02  0.00000000000E+00 0.  1.
         11    1    4    4    0    0 -0.31539783326E+02  0.21353088602E+00 -0.20506204861E+01  0.31607096863E+02  0.00000000000E+00 0. -1.
</event>
<event>
 7    1  0.6635152E-009  0.1474544E+03  0.7561462E-02  0.1203636E+00
         -1   -1    0    0    0  501 -0.00000000000E+00  0.00000000000E+00  0.15848041514E+03  0.15848041514E+03  0.00000000000E+00 0.  1.
          1   -1    0    0  501    0  0.00000000000E+00 -0.00000000000E+00 -0.15976104930E+03  0.15976104930E+03  0.00000000000E+00 0. -1.
         25    2    1    2    0    0 -0.60903950455E+02 -0.32542975772E+02 -0.60178532771E+02  0.15504056304E+03  0.12509110252E+03 0.  0.
          5    1    3    3  502    0  0.35029967501E+02 -0.30544815407E+02 -0.16104266842E+02  0.49365009692E+02  0.41800000000E+01 0. -1.
         -5    1    3    3    0  502 -0.95933917956E+02 -0.19981603646E+01 -0.44074265929E+02  0.10567555335E+03  0.41800000000E+01 0. -1.
        -11    1    1    2    0    0  0.89056283591E+02 -0.21185569248E+02  0.34877661596E+02  0.97960712889E+02  0.00000000000E+00 0.  1.
         11    1    1    2    0    0 -0.28152333136E+02  0.53728545020E+02  0.24020237013E+02  0.65240188512E+02  0.00000000000E+00 0. -1.
</event>
<event>
 8    1  0.6635152E-009  0.1754070E+03  0.7561462E-02  0.1172324E+00
          1   -1    0    0  501    0  0.00000000000E+00  0.00000000000E+00  0.57143308132E+02  0.57143308132E+02  0.00000000000E+00 0. -1.
         -1   -1    0    0    0  501 -0.00000000000E+00 -0.00000000000E+00 -0.64978984344E+03  0.64978984344E+03  0.00000000000E+00 0.  1.
         25    2    1    2    0    0  0.97401674719E+02 -0.97240017098E+02 -0.16542547820E+03  0.24890986641E+03  0.12509126906E+03 0.  0.
         23    2    1    2    0    0 -0.97401674719E+02  0.97240017098E+02 -0.42722105711E+03  0.45802328516E+03  0.91240292363E+02 0.  0.
          5    1    3    3  502    0  0.10997147426E+03 -0.25437477666E+02 -0.98753663233E+02  0.15003515862E+03  0.41800000000E+01 0.  1.
         -5    1    3    3    0  502 -0.12569799538E+02 -0.71802539432E+02 -0.66671814964E+02  0.98874707786E+02  0.41800000000E+01 0.  1.
        -11    1    4    4    0    0 -0.39811602323E+02  0.99545215935E+02 -0.29038046610E+03  0.30954002777E+03  0.00000000000E+00 0.  1.
         11    1    4    4    0    0 -0.57590072396E+02 -0.23051988375E+01 -0.13684059101E+03  0.14848325740E+03  0.00000000000E+00 0. -1.
</event>
<event>
 8    1  0.6635152E-009  0.7802992E+02  0.7561462E-02  0.1334737E+00
         -1   -1    0    0    0  501 -0.00000000000E+00  0.00000000000E+00  0.59539145575E+02  0.59539145575E+02  0.00000000000E+00 0.  1.
          1   -1    0    0  501    0  0.00000000000E+00 -0.00000000000E+00 -0.20408180723E+03  0.20408180723E+03  0.00000000000E+00 0. -1.
         25    2    1    2    0    0  0.10338532425E+02  0.23083474488E+01 -0.58115125254E+02  0.13833957897E+03  0.12509299582E+03 0.  0.
         23    2    1    2    0    0 -0.10338532425E+02 -0.23083474488E+01 -0.86427536405E+02  0.12528137384E+03  0.90074912503E+02 0.  0.
          5    1    3    3  502    0 -0.25737192620E+02  0.20495865621E+02 -0.83908330700E+02  0.90225073856E+02  0.41800000000E+01 0. -1.
         -5    1    3    3    0  502  0.36075725045E+02 -0.18187518172E+02  0.25793205446E+02  0.48114505109E+02  0.41800000000E+01 0. -1.
        -11    1    4    4    0    0 -0.44588312698E+02  0.10331887065E+02 -0.73434611271E+02  0.86530385716E+02  0.00000000000E+00 0.  1.
         11    1    4    4    0    0  0.34249780273E+02 -0.12640234514E+02 -0.12992925134E+02  0.38750988128E+02  0.00000000000E+00 0. -1.
</event>
<event>
 8    1  0.6635152E-009  0.8510441E+02  0.7561462E-02  0.1315160E+00
         -1   -1    0    0    0  501 -0.00000000000E+00  0.00000000000E+00  0.12658203188E+02  0.12658203188E+02  0.00000000000E+00 0.  1.
          1   -1    0    0  501    0  0.00000000000E+00 -0.00000000000E+00 -0.11038626515E+04  0.11038626515E+04  0.00000000000E+00 0. -1.
         25    2    1    2    0    0  0.33304601997E+02 -0.11444056054E+02 -0.69083941331E+03  0.70295833400E+03  0.12510460191E+03 0.  0.
         23    2    1    2    0    0 -0.33304601997E+02  0.11444056054E+02 -0.40036503498E+03  0.41356252067E+03  0.97476327050E+02 0.  0.
          5    1    3    3  502    0  0.12030314822E+02 -0.33435912583E+02 -0.65360528411E+03  0.65458385906E+03  0.41800000000E+01 0. -1.
         -5    1    3    3    0  502  0.21274287175E+02  0.21991856528E+02 -0.37234129210E+02  0.48374474947E+02  0.41800000000E+01 0. -1.
        -11    1    4    4    0    0 -0.14298827727E+02  0.54573638474E+02 -0.22693069547E+03  0.23383814709E+03  0.00000000000E+00 0.  1.
         11    1    4    4    0    0 -0.19005774269E+02 -0.43129582420E+02 -0.17343433952E+03  0.17972437358E+03  0.00000000000E+00 0. -1.
</event>
<event>
 8    1  0.6635152E-009  0.1789770E+03  0.7561462E-02  0.1168797E+00
          1   -1    0    0  501    0  0.00000000000E+00  0.00000000000E+00  0.80089429972E+03  0.80089429972E+03  0.00000000000E+00 0. -1.
         -1   -1    0    0    0  501 -0.00000000000E+00 -0.00000000000E+00 -0.52266580399E+02  0.52266580399E+02  0.00000000000E+00 0.  1.
         25    2    1    2    0    0  0.84898706873E+02 -0.13938900337E+03  0.27016610760E+03  0.33952091856E+03  0.12509054223E+03 0.  0.
         23    2    1    2    0    0 -0.84898706873E+02  0.13938900337E+03  0.47846161171E+03  0.51363996155E+03  0.90903308684E+02 0.  0.
          5    1    3    3  502    0  0.10287567955E+03 -0.75949355557E+02  0.11977875813E+03  0.17526018758E+03  0.41800000000E+01 0. -1.
         -5    1    3    3    0  502 -0.17976972675E+02 -0.63439647813E+02  0.15038734948E+03  0.16426073099E+03  0.41800000000E+01 0. -1.
        -11    1    4    4    0    0 -0.56911653941E+02  0.10653473815E+03  0.43846825878E+03  0.45479995685E+03  0.00000000000E+00 0. -1.
         11    1    4    4    0    0 -0.27987052932E+02  0.32854265224E+02  0.39993352931E+02  0.58840004707E+02  0.00000000000E+00 0.  1.
</event>
<event>
 8    1  0.6635152E-009  0.1271512E+03  0.7561462E-02  0.1231745E+00
          2   -1    0    0  501    0  0.00000000000E+00  0.00000000000E+00  0.84501073687E+03  0.84501073687E+03  0.00000000000E+00 0. -1.
         -2   -1    0    0    0  501 -0.00000000000E+00 -0.00000000000E+00 -0.26175565465E+02  0.26175565465E+02  0.00000000000E+00 0.  1.
         25    2    1    2    0    0  0.82966024778E+02  0.57076299585E+02  0.45860033251E+03  0.48590545423E+03  0.12509508474E+03 0.  0.
         23    2    1    2    0    0 -0.82966024778E+02 -0.57076299585E+02  0.36023483889E+03  0.38528084811E+03  0.92364103010E+02 0.  0.
          5    1    3    3  502    0  0.37547819391E+01  0.70574377763E+02  0.13483514770E+03  0.15229192572E+03  0.41800000000E+01 0.  1.
         -5    1    3    3    0  502  0.79211242839E+02 -0.13498078178E+02  0.32376518481E+03  0.33361352851E+03  0.41800000000E+01 0.  1.
        -11    1    4    4    0    0 -0.61929172403E+02 -0.53220403684E+02  0.35357382916E+03  0.36288026460E+03  0.00000000000E+00 0. -1.
         11    1    4    4    0    0 -0.21036852375E+02 -0.38558959011E+01  0.66610097270E+01  0.22400583511E+02  0.00000000000E+00 0.  1.
</event>
<event>
 8    1  0.6635152E-009  0.1844692E+03  0.7561462E-02  0.1163547E+00
         -1   -1    0    0    0  501 -0.00000000000E+00  0.00000000000E+00  0.12595358168E+04  0.12595358168E+04  0.00000000000E+00 0.  1.
          1   -1    0    0  501    0  0.00000000000E+00 -0.00000000000E+00 -0.34712249659E+02  0.34712249659E+02  0.00000000000E+00 0. -1.
         25    2    1    2    0    0  0.12359219854E+03 -0.10606991305E+03  0.86195552317E+03  0.88608166277E+03  0.12509009229E+03 0.  0.
         23    2    1    2    0    0 -0.12359219854E+03  0.10606991305E+03  0.36286804398E+03  0.40816640370E+03  0.91655538672E+02 0.  0.
          5    1    3    3  502    0  0.10878602675E+03 -0.13430268729E+03  0.74398636663E+03  0.76380939872E+03  0.41800000000E+01 0. -1.
         -5    1    3    3    0  502  0.14806171785E+02  0.28232774240E+02  0.11796915653E+03  0.12227226406E+03  0.41800000000E+01 0. -1.
        -11    1    4    4    0    0 -0.66795868757E+02  0.69247767456E+02  0.30262840983E+03  0.31755455566E+03  0.00000000000E+00 0.  1.
         11    1    4    4    0    0 -0.56796329780E+02  0.36822145594E+02  0.60239634149E+02  0.90611848039E+02  0.00000000000E+00 0. -1.
</event>
<event>
 8    1  0.6635152E-009  0.1128886E+03  0.7561462E-02  0.1255312E+00
         -1   -1    0    0    0  501 -0.00000000000E+00  0.00000000000E+00  0.17904751254E+02  0.17904751254E+02  0.00000000000E+00 0.  1.
          1   -1    0    0  501    0  0.00000000000E+00 -0.00000000000E+00 -0.74611119409E+03  0.74611119409E+03  0.00000000000E+00 0. -1.
         25    2    1    2    0    0 -0.30858194936E+02 -0.11860298168E+02 -0.49277586545E+03  0.50947846471E+03  0.12508939828E+03 0.  0.
         23    2    1    2    0    0  0.30858194936E+02  0.11860298168E+02 -0.23543057738E+03  0.25453748063E+03  0.90933367988E+02 0.  0.
          5    1    3    3  502    0 -0.64821097172E+02 -0.46893263191E+02 -0.28877596024E+03  0.29968279961E+03  0.41800000000E+01 0. -1.
         -5    1    3    3    0  502  0.33962902236E+02  0.35032965023E+02 -0.20399990521E+03  0.20979566509E+03  0.41800000000E+01 0. -1.
        -11    1    4    4    0    0  0.38464626218E+01  0.49893750391E+02 -0.12649882198E+03  0.13603725066E+03  0.00000000000E+00 0.  1.
         11    1    4    4    0    0  0.27011732314E+02 -0.38033452223E+02 -0.10893175540E+03  0.11850022998E+03  0.00000000000E+00 0. -1.
</event>
<event>
 8    1  0.6635152E-009  0.4167221E+03  0.7561462E-02  0.1038138E+00
          1   -1    0    0  501    0  0.00000000000E+00  0.00000000000E+00  0.26450991752E+03  0.26450991752E+03  0.00000000000E+00 0. -1.
         -1   -1    0    0    0  501 -0.00000000000E+00 -0.00000000000E+00 -0.80301997607E+03  0.80301997607E+03  0.00000000000E+00 0.  1.
         25    2    1    2    0    0  0.87603449678E+02 -0.39945744361E+03 -0.60318326538E+02  0.43188725453E+03  0.12509071290E+03 0.  0.
         23    2    1    2    0    0 -0.87603449678E+02  0.39945744361E+03 -0.47819173201E+03  0.63564263906E+03  0.90186575386E+02 0.  0.
          5    1    3    3  502    0  0.72875936964E+00 -0.24756158796E+03 -0.67734779509E+02  0.25669581936E+03  0.41800000000E+01 0. -1.
         -5    1    3    3    0  502  0.86874690309E+02 -0.15189585565E+03  0.74164529707E+01  0.17519143516E+03  0.41800000000E+01 0. -1.
        -11    1    4    4    0    0 -0.89132297123E+02  0.34484078212E+03 -0.45079010879E+03  0.57451845365E+03  0.00000000000E+00 0.  1.
         11    1    4    4    0    0  0.15288474448E+01  0.54616661493E+02 -0.27401623220E+02  0.61124185412E+02  0.00000000000E+00 0. -1.
</event>
<event>
 8    1  0.6635152E-009  0.1158979E+03  0.7561462E-02  0.1250022E+00
         -1   -1    0    0    0  501 -0.00000000000E+00  0.00000000000E+00  0.87764853192E+02  0.87764853192E+02  0.00000000000E+00 0.  1.
          1   -1    0    0  501    0  0.00000000000E+00 -0.00000000000E+00 -0.31690867044E+03  0.31690867044E+03  0.00000000000E+00 0. -1.
         25    2    1    2    0    0 -0.19188912030E+02  0.65056698135E+02 -0.25075195802E+03  0.28831407438E+03  0.12509145741E+03 0.  0.
         23    2    1    2    0    0  0.19188912030E+02 -0.65056698135E+02  0.21608140774E+02  0.11635944925E+03  0.92043584052E+02 0.  0.
          5    1    3    3  502    0 -0.71925079209E+02  0.48252034738E+02 -0.14817797437E+03  0.17168477034E+03  0.41800000000E+01 0. -1.
         -5    1    3    3    0  502  0.52736167180E+02  0.16804663397E+02 -0.10257398365E+03  0.11662930404E+03  0.41800000000E+01 0. -1.
        -11    1    4    4    0    0 -0.12626319307E+02  0.42457188844E+01 -0.24040219665E+02  0.27484217828E+02  0.00000000000E+00 0. -1.
         11    1    4    4    0    0  0.31815231336E+02 -0.69302417019E+02  0.45648360439E+02  0.88875231423E+02  0.00000000000E+00 0.  1.
</event>
<event>
 8    1  0.6635152E-009  0.1212589E+03  0.7561462E-02  0.1241035E+00
         -2   -1    0    0    0  501 -0.00000000000E+00  0.00000000000E+00  0.47796565808E+03  0.47796565808E+03  0.00000000000E+00 0.  1.
          2   -1    0    0  501    0  0.00000000000E+00 -0.00000000000E+00 -0.43812173450E+02  0.43812173450E+02  0.00000000000E+00 0. -1.
         25    2    1    2    0    0  0.31576787385E+00 -0.88400980980E+02  0.17551357835E+03  0.23295363741E+03  0.12509015888E+03 0.  0.
         23    2    1    2    0    0 -0.31576787385E+00  0.88400980980E+02  0.25863990628E+03  0.28882419413E+03  0.93327278129E+02 0.  0.
          5    1    3    3  502    0 -0.46383040408E+02  0.67887172620E+01  0.54344685850E+02  0.71890822777E+02  0.41800000000E+01 0.  1.
         -5    1    3    3    0  502  0.46698808282E+02 -0.95189698242E+02  0.12116889250E+03  0.16106281463E+03  0.41800000000E+01 0.  1.
        -11    1    4    4    0    0 -0.65491435374E+01  0.52451455716E+02  0.24375232360E+03  0.24941780560E+03  0.00000000000E+00 0.  1.
         11    1    4    4    0    0  0.62333756635E+01  0.35949525264E+02  0.14887582683E+02  0.39406388531E+02  0.00000000000E+00 0. -1.
</event>
<event>
 8    1  0.6635152E-009  0.1197699E+03  0.7561462E-02  0.1243477E+00
         -1   -1    0    0    0  501 -0.00000000000E+00  0.00000000000E+00  0.29951536147E+02  0.29951536147E+02  0.00000000000E+00 0.  1.
          1   -1    0    0  501    0  0.00000000000E+00 -0.00000000000E+00 -0.77873378386E+03  0.77873378386E+03  0.00000000000E+00 0. -1.
         25    2    1    2    0    0 -0.56599318700E+02  0.15034773218E+00 -0.16482262349E+03  0.21451570507E+03  0.12508790919E+03 0.  0.
         23    2    1    2    0    0  0.56599318700E+02 -0.15034773218E+00 -0.58395962422E+03  0.59416961494E+03  0.93942445717E+02 0.  0.
          5    1    3    3  502    0 -0.19406887468E+02  0.57999758774E+02 -0.11206381533E+03  0.12773554871E+03  0.41800000000E+01 0. -1.
         -5    1    3    3    0  502 -0.37192431232E+02 -0.57849411042E+02 -0.52758808159E+02  0.86780156356E+02  0.41800000000E+01 0. -1.
        -11    1    4    4    0    0  0.30764663841E+02 -0.46802399608E+02 -0.27574758968E+03  0.28137814834E+03  0.00000000000E+00 0.  1.
         11    1    4    4    0    0  0.25834654858E+02  0.46652051875E+02 -0.30821203454E+03  0.31279146659E+03  0.00000000000E+00 0. -1.
</event>
<event>
 8    1  0.6635152E-009  0.1657387E+03  0.7561462E-02  0.1182366E+00
         -1   -1    0    0    0  501 -0.00000000000E+00  0.00000000000E+00  0.74220065232E+02  0.74220065232E+02  0.00000000000E+00 0.  1.
          1   -1    0    0  501    0  0.00000000000E+00 -0.00000000000E+00 -0.54012312754E+03  0.54012312754E+03  0.00000000000E+00 0. -1.
         25    2    1    2    0    0 -0.11586240926E+03  0.64725298202E+02 -0.40277801233E+03  0.44214244145E+03  0.12508536765E+03 0.  0.
         23    2    1    2    0    0  0.11586240926E+03 -0.64725298202E+02 -0.63125049971E+02  0.17220075132E+03  0.89748898123E+02 0.  0.
          5    1    3    3  502    0 -0.23017289077E+02 -0.30877019643E+02 -0.40205889026E+02  0.55831638439E+02  0.41800000000E+01 0. -1.
         -5    1    3    3    0  502 -0.92845120187E+02  0.95602317845E+02 -0.36257212331E+03  0.38631080301E+03  0.41800000000E+01 0. -1.
        -11    1    4    4    0    0  0.29575431050E+02  0.22158752857E+02 -0.22102165699E+02  0.43060680191E+02  0.00000000000E+00 0. -1.
         11    1    4    4    0    0  0.86286978214E+02 -0.86884051059E+02 -0.41022884272E+02  0.12914007113E+03  0.00000000000E+00 0.  1.
</event>
<event>
 8    1  0.6635152E-009  0.1901876E+03  0.7561462E-02  0.1158292E+00
          1   -1    0    0  501    0  0.00000000000E+00  0.00000000000E+00  0.15676719871E+03  0.15676719871E+03  0.00000000000E+00 0. -1.
         -1   -1    0    0    0  501 -0.00000000000E+00 -0.00000000000E+00 -0.23503775264E+03  0.23503775264E+03  0.00000000000E+00 0.  1.
         25    2    1    2    0    0 -0.95376981262E+02 -0.12580643083E+03 -0.39595416186E+02  0.20525409933E+03  0.12504967699E+03 0.  0.
         23    2    1    2    0    0  0.95376981262E+02  0.12580643083E+03 -0.38675137741E+02  0.18655085202E+03  0.91550136634E+02 0.  0.
          5    1    3    3  502    0 -0.12300551967E+03 -0.11365309624E+03 -0.19280363545E+02  0.16863151832E+03  0.41800000000E+01 0. -1.
         -5    1    3    3    0  502  0.27628538403E+02 -0.12153334586E+02 -0.20315052641E+02  0.36622581007E+02  0.41800000000E+01 0. -1.
        -11    1    4    4    0    0  0.25916660051E+02 -0.11614318451E+02 -0.35880056526E+01  0.28625852754E+02  0.00000000000E+00 0.  1.
         11    1    4    4    0    0  0.69460321211E+02  0.13742074928E+03 -0.35087132088E+02  0.15792499926E+03  0.00000000000E+00 0. -1.
</event>
<event>
 8    1  0.6635152E-009  0.1549825E+03  0.7561462E-02  0.1194481E+00
          2   -1    0    0  501    0  0.00000000000E+00  0.00000000000E+00  0.13976882330E+04  0.13976882330E+04  0.00000000000E+00 0. -1.
         -2   -1    0    0    0  501 -0.00000000000E+00 -0.00000000000E+00 -0.25933818931E+02  0.25933818931E+02  0.00000000000E+00 0.  1.
         25    2    1    2    0    0 -0.95252673388E+02 -0.11144781648E+03  0.91019583633E+03  0.93037381536E+03  0.12508112667E+03 0.  0.
         23    2    1    2    0    0  0.95252673388E+02  0.11144781648E+03  0.46155857774E+03  0.49324823657E+03  0.93615247753E+02 0.  0.
          5    1    3    3  502    0 -0.82891922249E+02 -0.89044984604E+02  0.36904544728E+03  0.38860274653E+03  0.41800000000E+01 0. -1.
         -5    1    3    3    0  502 -0.12360751139E+02 -0.22402831871E+02  0.54115038905E+03  0.54177106882E+03  0.41800000000E+01 0. -1.
        -11    1    4    4    0    0  0.18738362198E+02  0.75469218527E+02  0.13375789484E+03  0.15471878876E+03  0.00000000000E+00 0.  1.
         11    1    4    4    0    0  0.76514311190E+02  0.35978597948E+02  0.32780068290E+03  0.33852944782E+03  0.00000000000E+00 0. -1.
</event>
<event>
 8    1  0.6635152E-009  0.1027017E+03  0.7561462E-02  0.1274715E+00
          2   -1    0    0  501    0  0.00000000000E+00  0.00000000000E+00  0.83224747535E+02  0.83224747535E+02  0.00000000000E+00 0. -1.
         -2   -1    0    0    0  501 -0.00000000000E+00 -0.00000000000E+00 -0.21434201003E+03  0.21434201003E+03  0.00000000000E+00 0.  1.
         25    2    1    2    0    0 -0.94043405900E+01 -0.56625132405E+02 -0.12518200559E+02  0.13820023754E+03  0.12509097917E+03 0.  0.
         23    2    1    2    0    0  0.94043405900E+01  0.56625132405E+02 -0.11859906193E+03  0.15936652002E+03  0.89649891075E+02 0.  0.
          5    1    3    3  502    0 -0.58771714668E+02  0.39241981294E+01 -0.10235331898E+02  0.59931195508E+02  0.41800000000E+01 0. -1.
         -5    1    3    3    0  502  0.49367374078E+02 -0.60549330534E+02 -0.22828686611E+01  0.78269042034E+02  0.41800000000E+01 0. -1.
        -11    1    4    4    0    0  0.23005948961E+02  0.43532815421E+02 -0.11429921806E+02  0.50547233540E+02  0.00000000000E+00 0. -1.
         11    1    4    4    0    0 -0.13601608371E+02  0.13092316984E+02 -0.10716914013E+03  0.10881928648E+03  0.00000000000E+00 0.  1.
</event>
<event>
 8    1  0.6635152E-009  0.9571723E+02  0.7561462E-02  0.1289569E+00
          2   -1    0    0  501    0  0.00000000000E+00  0.00000000000E+00  0.87524567269E+02  0.87524567269E+02  0.00000000000E+00 0. -1.
         -2   -1    0    0    0  501 -0.00000000000E+00 -0.00000000000E+00 -0.14938760402E+03  0.14938760402E+03  0.00000000000E+00 0.  1.
         25    2    1    2    0    0 -0.46997871684E+02  0.19736877213E+02 -0.35527212248E+02  0.13967375121E+03  0.12509288429E+03 0.  0.
         23    2    1    2    0    0  0.46997871684E+02 -0.19736877213E+02 -0.26335824500E+02  0.97238420078E+02  0.78507263500E+02 0.  0.
          5    1    3    3  502    0 -0.65215649079E+02  0.57914524062E+02 -0.52332598829E+01  0.87475896058E+02  0.41800000000E+01 0.  1.
         -5    1    3    3    0  502  0.18217777396E+02 -0.38177646849E+02 -0.30293952365E+02  0.52197855148E+02  0.41800000000E+01 0.  1.
        -11    1    4    4    0    0  0.16785513851E+02  0.97325810129E+01 -0.46557880224E+02  0.50439199234E+02  0.00000000000E+00 0.  1.
         11    1    4    4    0    0  0.30212357833E+02 -0.29469458226E+02  0.20222055724E+02  0.46799220844E+02  0.00000000000E+00 0. -1.
</event>
<event>
 8    1  0.6635152E-009  0.1147308E+03  0.7561462E-02  0.1252052E+00
          2   -1    0    0  501    0  0.00000000000E+00  0.00000000000E+00  0.58527291300E+03  0.58527291300E+03  0.00000000000E+00 0.  1.
         -2   -1    0    0    0  501 -0.00000000000E+00 -0.00000000000E+00 -0.26433009544E+02  0.26433009544E+02  0.00000000000E+00 0. -1.
         25    2    1    2    0    0  0.56446966204E+02 -0.15480675792E+02  0.27104117169E+03  0.30419890362E+03  0.12509094650E+03 0.  0.
         23    2    1    2    0    0 -0.56446966204E+02  0.15480675792E+02  0.28779873176E+03  0.30750701892E+03  0.91140251061E+02 0.  0.
          5    1    3    3  502    0  0.60032276767E+02 -0.63584657478E+02  0.14772376820E+03  0.17171682216E+03  0.41800000000E+01 0.  1.
         -5    1    3    3    0  502 -0.35853105627E+01  0.48103981686E+02  0.12331740349E+03  0.13248208146E+03  0.41800000000E+01 0.  1.
        -11    1    4    4    0    0 -0.54557343430E+02 -0.19894514909E+02  0.24578129427E+03  0.25254849051E+03  0.00000000000E+00 0.  1.
         11    1    4    4    0    0 -0.18896227746E+01  0.35375190701E+02  0.42017437489E+02  0.54958528405E+02  0.00000000000E+00 0. -1.
</event>
<event>
 8    1  0.6635152E-009  0.9740095E+02  0.7561462E-02  0.1285858E+00
         -1   -1    0    0    0  501 -0.00000000000E+00  0.00000000000E+00  0.83826656399E+02  0.83826656399E+02  0.00000000000E+00 0.  1.
          1   -1    0    0  501    0  0.00000000000E+00 -0.00000000000E+00 -0.15258357025E+03  0.15258357025E+03  0.00000000000E+00 0. -1.
         25    2    1    2    0    0 -0.23964017282E+02  0.23283972287E+02 -0.55485194715E+02  0.14086440529E+03  0.12509099231E+03 0.  0.
         23    2    1    2    0    0  0.23964017282E+02 -0.23283972287E+02 -0.13271719135E+02  0.95545821353E+02  0.88523714108E+02 0.  0.
          5    1    3    3  502    0 -0.35967112936E+02  0.67617604769E+02 -0.12299959649E+02  0.77682270146E+02  0.41800000000E+01 0. -1.
         -5    1    3    3    0  502  0.12003095655E+02 -0.44333632482E+02 -0.43185235065E+02  0.63182135149E+02  0.41800000000E+01 0. -1.
        -11    1    4    4    0    0  0.39328858958E+01 -0.43408063422E+02  0.23159243254E+02  0.49356642001E+02  0.00000000000E+00 0.  1.
         11    1    4    4    0    0  0.20031131386E+02  0.20124091135E+02 -0.36430962389E+02  0.46189179352E+02  0.00000000000E+00 0. -1.
</event>
<event>
 8    1  0.6635152E-009  0.1171534E+03  0.7561462E-02  0.1247868E+00
         -2   -1    0    0    0  501 -0.00000000000E+00  0.00000000000E+00  0.27733476958E+03  0.27733476958E+03  0.00000000000E+00 0. -1.
          2   -1    0    0  501    0  0.00000000000E+00 -0.00000000000E+00 -0.56265762307E+02  0.56265762307E+02  0.00000000000E+00 0.  1.
         25    2    1    2    0    0  0.40261858178E+01 -0.12239094706E+02  0.11493608819E+03  0.17036239181E+03  0.12508810721E+03 0.  0.
         23    2    1    2    0    0 -0.40261858178E+01  0.12239094706E+02  0.10613291909E+03  0.16323814007E+03  0.12335513062E+03 0.  0.
          5    1    3    3  502    0  0.11940216912E+02 -0.65233476463E+02  0.38104838458E+02  0.76599127575E+02  0.41800000000E+01 0.  1.
         -5    1    3    3    0  502 -0.79140310943E+01  0.52994381757E+02  0.76831249727E+02  0.93763264239E+02  0.41800000000E+01 0.  1.
        -11    1    4    4    0    0 -0.30549430286E+01  0.63134548037E+02  0.26093706484E+02  0.68382639250E+02  0.00000000000E+00 0.  1.
         11    1    4    4    0    0 -0.97124278925E+00 -0.50895453331E+02  0.80039212604E+02  0.94855500824E+02  0.00000000000E+00 0. -1.
</event>
<event>
 8    1  0.6635152E-009  0.1357655E+03  0.7561462E-02  0.1219143E+00
         -4   -1    0    0    0  501 -0.00000000000E+00  0.00000000000E+00  0.19471273170E+03  0.19471273170E+03  0.00000000000E+00 0.  1.
          4   -1    0    0  501    0  0.00000000000E+00 -0.00000000000E+00 -0.10319383368E+03  0.10319383368E+03  0.00000000000E+00 0. -1.
         25    2    1    2    0    0  0.39945709250E+02 -0.81054641152E+02  0.56315497314E+02  0.16425800003E+03  0.12507494072E+03 0.  0.
         23    2    1    2    0    0 -0.39945709250E+02  0.81054641152E+02  0.35203400702E+02  0.13364856535E+03  0.91962737344E+02 0.  0.
          5    1    3    3  502    0 -0.23273961801E+02  0.21703447358E+02  0.21447510137E+02  0.38602914608E+02  0.41800000000E+01 0.  1.
         -5    1    3    3    0  502  0.63219671051E+02 -0.10275808851E+03  0.34867987177E+02  0.12565508542E+03  0.41800000000E+01 0.  1.
        -11    1    4    4    0    0 -0.59185669750E+02  0.34898562849E+02 -0.58397910002E+01  0.68956191539E+02  0.00000000000E+00 0. -1.
         11    1    4    4    0    0  0.19239960500E+02  0.46156078303E+02  0.41043191702E+02  0.64692373812E+02  0.00000000000E+00 0.  1.
</event>
<event>
 8    1  0.6635152E-009  0.1121033E+03  0.7561462E-02  0.1256724E+00
          2   -1    0    0  501    0  0.00000000000E+00  0.00000000000E+00  0.24016219964E+03  0.24016219964E+03  0.00000000000E+00 0. -1.
         -2   -1    0    0    0  501 -0.00000000000E+00 -0.00000000000E+00 -0.87861355768E+02  0.87861355768E+02  0.00000000000E+00 0.  1.
         25    2    1    2    0    0  0.46658066482E+02  0.10090728789E+02  0.17406147558E+03  0.21960009930E+03  0.12509199958E+03 0.  0.
         23    2    1    2    0    0 -0.46658066482E+02 -0.10090728789E+02 -0.21760631707E+02  0.10842345611E+03  0.94885840704E+02 0.  0.
          5    1    3    3  502    0 -0.31039918941E+02  0.26539771677E+02  0.11021684476E+03  0.11761403538E+03  0.41800000000E+01 0. -1.
         -5    1    3    3    0  502  0.77697985423E+02 -0.16449042888E+02  0.63844630815E+02  0.10198606392E+03  0.41800000000E+01 0. -1.
        -11    1    4    4    0    0 -0.74452395746E+02 -0.13348603811E+02 -0.50024143511E+01  0.75804805952E+02  0.00000000000E+00 0. -1.
         11    1    4    4    0    0  0.27794329264E+02  0.32578750220E+01 -0.16758217356E+02  0.32618650153E+02  0.00000000000E+00 0.  1.
</event>
<event>
 8    1  0.6635152E-009  0.8368288E+02  0.7561462E-02  0.1318913E+00
         -1   -1    0    0    0  501 -0.00000000000E+00  0.00000000000E+00  0.21897611660E+03  0.21897611660E+03  0.00000000000E+00 0.  1.
          1   -1    0    0  501    0  0.00000000000E+00 -0.00000000000E+00 -0.65270140043E+02  0.65270140043E+02  0.00000000000E+00 0. -1.
         25    2    1    2    0    0 -0.56400367203E+01  0.31834574096E+02  0.13458602828E+03  0.18656308022E+03  0.12508850376E+03 0.  0.
         23    2    1    2    0    0  0.56400367203E+01 -0.31834574096E+02  0.19119948277E+02  0.97683176419E+02  0.90173058122E+02 0.  0.
          5    1    3    3  502    0 -0.46682191277E+02 -0.23376790941E+02  0.27344543227E+02  0.59083819963E+02  0.41800000000E+01 0. -1.
         -5    1    3    3    0  502  0.41042154557E+02  0.55211365037E+02  0.10724148505E+03  0.12747926026E+03  0.41800000000E+01 0. -1.
        -11    1    4    4    0    0  0.16297919739E+02 -0.31428421281E+02 -0.30623044245E+02  0.46809600414E+02  0.00000000000E+00 0. -1.
         11    1    4    4    0    0 -0.10657883019E+02 -0.40615281533E+00  0.49742992522E+02  0.50873576006E+02  0.00000000000E+00 0.  1.
</event>
<event>
 8    1  0.6635152E-009  0.1135220E+03  0.7561462E-02  0.1254183E+00
          1   -1    0    0  501    0  0.00000000000E+00  0.00000000000E+00  0.31472852773E+03  0.31472852773E+03  0.00000000000E+00 0. -1.
         -1   -1    0    0    0  501 -0.00000000000E+00 -0.00000000000E+00 -0.63711349212E+02  0.63711349212E+02  0.00000000000E+00 0.  1.
         25    2    1    2    0    0  0.12332649182E+02 -0.63306645712E+02  0.60788894050E+02  0.15334401368E+03  0.12513700997E+03 0.  0.
         23    2    1    2    0    0 -0.12332649182E+02  0.63306645712E+02  0.19022828446E+03  0.22509586326E+03  0.10159489072E+03 0.  0.
          5    1    3    3  502    0 -0.10120740114E+02 -0.85467195762E+02  0.16442464382E+01  0.86181476422E+02  0.41800000000E+01 0. -1.
         -5    1    3    3    0  502  0.22453389296E+02  0.22160550050E+02  0.59144647611E+02  0.67162537254E+02  0.41800000000E+01 0. -1.
        -11    1    4    4    0    0 -0.47613746431E+02  0.16395849195E+02  0.41672748301E+02  0.65364445007E+02  0.00000000000E+00 0.  1.
         11    1    4    4    0    0  0.35281097249E+02  0.46910796518E+02  0.14855553616E+03  0.15973141825E+03  0.00000000000E+00 0. -1.
</event>
<event>
 8    1  0.6635152E-009  0.1313010E+03  0.7561462E-02  0.1225538E+00
          2   -1    0    0  501    0  0.00000000000E+00  0.00000000000E+00  0.14843231333E+03  0.14843231333E+03  0.00000000000E+00 0. -1.
         -2   -1    0    0    0  501 -0.00000000000E+00 -0.00000000000E+00 -0.11970515060E+03  0.11970515060E+03  0.00000000000E+00 0.  1.
         25    2    1    2    0    0  0.72672693934E+02 -0.26044750342E+02  0.13268467422E+02  0.14758922340E+03  0.12508747808E+03 0.  0.
         23    2    1    2    0    0 -0.72672693934E+02  0.26044750342E+02  0.15458695308E+02  0.12054824052E+03  0.91286677933E+02 0.  0.
          5    1    3    3  502    0  0.93143162788E+02  0.18217663009E+02  0.22862167725E+02  0.97712246586E+02  0.41800000000E+01 0. -1.
         -5    1    3    3    0  502 -0.20470468854E+02 -0.44262413352E+02 -0.95937003028E+01  0.49876976816E+02  0.41800000000E+01 0. -1.
        -11    1    4    4    0    0 -0.93026092401E+02  0.30351541350E+02  0.70395542028E+01  0.98105174446E+02  0.00000000000E+00 0.  1.
         11    1    4    4    0    0  0.20353398467E+02 -0.43067910074E+01  0.84191411050E+01  0.22443066075E+02  0.00000000000E+00 0. -1.
</event>
<event>
 8    1  0.6635152E-009  0.3166075E+03  0.7561462E-02  0.1077221E+00
         -3   -1    0    0    0  501 -0.00000000000E+00  0.00000000000E+00  0.21294469271E+04  0.21294469271E+04  0.00000000000E+00 0.  1.
          3   -1    0    0  501    0  0.00000000000E+00 -0.00000000000E+00 -0.55828324418E+02  0.55828324418E+02  0.00000000000E+00 0. -1.
         25    2    1    2    0    0  0.15459982325E+03 -0.26379214017E+03  0.68107814504E+03  0.75696946077E+03  0.12509167171E+03 0.  0.
         23    2    1    2    0    0 -0.15459982325E+03  0.26379214017E+03  0.13925404576E+04  0.14283057907E+04  0.86029687559E+02 0.  0.
          5    1    3    3  502    0  0.82702134328E+02 -0.21678234550E+03  0.39374768232E+03  0.45704369383E+03  0.41800000000E+01 0.  1.
         -5    1    3    3    0  502  0.71897688919E+02 -0.47009794668E+02  0.28733046272E+03  0.29992576694E+03  0.41800000000E+01 0.  1.
        -11    1    4    4    0    0 -0.10716233108E+03  0.23832667220E+03  0.10800976984E+04  0.11112580285E+04  0.00000000000E+00 0. -1.
         11    1    4    4    0    0 -0.47437492167E+02  0.25465467962E+02  0.31244275919E+03  0.31704776217E+03  0.00000000000E+00 0.  1.
</event>
<event>
 8    1  0.6635152E-009  0.2376878E+03  0.7561462E-02  0.1121343E+00
         -2   -1    0    0    0  501 -0.00000000000E+00  0.00000000000E+00  0.15524593031E+03  0.15524593031E+03  0.00000000000E+00 0.  1.
          2   -1    0    0  501    0  0.00000000000E+00 -0.00000000000E+00 -0.47244339492E+03  0.47244339492E+03  0.00000000000E+00 0. -1.
         25    2    1    2    0    0  0.22003447809E+03  0.52627113263E+02 -0.27800501896E+03  0.37963021913E+03  0.12509007998E+03 0.  0.
         23    2    1    2    0    0 -0.22003447809E+03 -0.52627113263E+02 -0.39192445640E+02  0.24805910610E+03  0.93874851414E+02 0.  0.
          5    1    3    3  502    0  0.99368627063E+02 -0.28660804356E+02 -0.16743129395E+03  0.19684073853E+03  0.41800000000E+01 0.  1.
         -5    1    3    3    0  502  0.12066585102E+03  0.81287917620E+02 -0.11057372501E+03  0.18278948060E+03  0.41800000000E+01 0.  1.
        -11    1    4    4    0    0 -0.85702349753E+02 -0.23501667788E+02 -0.62499896225E+02  0.10864372126E+03  0.00000000000E+00 0.  1.
         11    1    4    4    0    0 -0.13433212833E+03 -0.29125445475E+02  0.23307450585E+02  0.13941538484E+03  0.00000000000E+00 0. -1.
</event>
<event>
 8    1  0.6635152E-009  0.9005004E+02  0.7561462E-02  0.1302731E+00
         -2   -1    0    0    0  501 -0.00000000000E+00  0.00000000000E+00  0.84172048536E+02  0.84172048536E+02  0.00000000000E+00 0. -1.
          2   -1    0    0  501    0  0.00000000000E+00 -0.00000000000E+00 -0.17982453293E+03  0.17982453293E+03  0.00000000000E+00 0.  1.
         25    2    1    2    0    0 -0.39402988208E+02 -0.14149946045E+02 -0.15085471459E+02  0.13277108388E+03  0.12509105808E+03 0.  0.
         23    2    1    2    0    0  0.39402988208E+02  0.14149946045E+02 -0.80567012937E+02  0.13122549759E+03  0.94743185462E+02 0.  0.
          5    1    3    3  502    0 -0.16671179215E+02 -0.67107044661E+02 -0.25956232373E+02  0.73976226306E+02  0.41800000000E+01 0. -1.
         -5    1    3    3    0  502 -0.22731808993E+02  0.52957098616E+02  0.10870760914E+02  0.58794857571E+02  0.41800000000E+01 0. -1.
        -11    1    4    4    0    0  0.16252066486E+02  0.23083757605E+02 -0.97288997132E+02  0.10130221366E+03  0.00000000000E+00 0.  1.
         11    1    4    4    0    0  0.23150921722E+02 -0.89338115602E+01  0.16721984195E+02  0.29923283927E+02  0.00000000000E+00 0. -1.
</event>
<event>
 8    1  0.6635152E-009  0.8497755E+02  0.7561462E-02  0.1315491E+00
          1   -1    0    0  501    0  0.00000000000E+00  0.00000000000E+00  0.63617797935E+03  0.63617797935E+03  0.00000000000E+00 0. -1.
         -1   -1    0    0    0  501 -0.00000000000E+00 -0.00000000000E+00 -0.25503831362E+02  0.25503831362E+02  0.00000000000E+00 0.  1.
         25    2    1    2    0    0  0.56557731320E+02 -0.34123612010E+02  0.29510385567E+03  0.32725912065E+03  0.12509615721E+03 0.  0.
         23    2    1    2    0    0 -0.56557731320E+02  0.34123612010E+02  0.31557029232E+03  0.33442269006E+03  0.88829771838E+02 0.  0.
          5    1    3    3  502    0  0.28280866381E+02 -0.10641468726E+01 -0.33044694204E+00  0.28609813125E+02  0.41800000000E+01 0.  1.
         -5    1    3    3    0  502  0.28276864939E+02 -0.33059465137E+02  0.29543430261E+03  0.29864930753E+03  0.41800000000E+01 0.  1.
        -11    1    4    4    0    0  0.90081722301E+01  0.30693709713E+02  0.40413607528E+02  0.51541348996E+02  0.00000000000E+00 0.  1.
         11    1    4    4    0    0 -0.65565903550E+02  0.34299022973E+01  0.27515668479E+03  0.28288134106E+03  0.00000000000E+00 0. -1.
</event>
<event>
 8    1  0.6635152E-009  0.9748371E+02  0.7561462E-02  0.1285678E+00
          1   -1    0    0  501    0  0.00000000000E+00  0.00000000000E+00  0.22548863137E+03  0.22548863137E+03  0.00000000000E+00 0.  1.
         -1   -1    0    0    0  501 -0.00000000000E+00 -0.00000000000E+00 -0.63407865345E+02  0.63407865345E+02  0.00000000000E+00 0. -1.
         25    2    1    2    0    0  0.10155841676E+01  0.25833897186E+02  0.14616049233E+03  0.19411155331E+03  0.12509190204E+03 0.  0.
         23    2    1    2    0    0 -0.10155841676E+01 -0.25833897186E+02  0.15920273695E+02  0.94784943405E+02  0.89790359877E+02 0.  0.
          5    1    3    3  502    0 -0.20333673680E+02 -0.40401639192E+02  0.19292451224E+02  0.49349992999E+02  0.41800000000E+01 0. -1.
         -5    1    3    3    0  502  0.21349257847E+02  0.66235536377E+02  0.12686804111E+03  0.14476156032E+03  0.41800000000E+01 0. -1.
        -11    1    4    4    0    0 -0.62457694536E+01 -0.52390419971E+02  0.33511292923E+02  0.62504179813E+02  0.00000000000E+00 0.  1.
         11    1    4    4    0    0  0.52301852860E+01  0.26556522785E+02 -0.17591019228E+02  0.32280763592E+02  0.00000000000E+00 0. -1.
</event>
<event>
 8    1  0.6635152E-009  0.1165422E+03  0.7561462E-02  0.1248913E+00
         -2   -1    0    0    0  501 -0.00000000000E+00  0.00000000000E+00  0.55919940267E+02  0.55919940267E+02  0.00000000000E+00 0.  1.
          2   -1    0    0  501    0  0.00000000000E+00 -0.00000000000E+00 -0.35092508939E+03  0.35092508939E+03  0.00000000000E+00 0. -1.
         25    2    1    2    0    0 -0.87565708827E+02  0.13657324571E+02 -0.14283554483E+03  0.20953319597E+03  0.12509153237E+03 0.  0.
         23    2    1    2    0    0  0.87565708827E+02 -0.13657324571E+02 -0.15216960429E+03  0.19731183369E+03  0.89006153522E+02 0.  0.
          5    1    3    3  502    0 -0.47713769792E+02 -0.23036582622E+02 -0.14573373346E+03  0.15512279469E+03  0.41800000000E+01 0. -1.
         -5    1    3    3    0  502 -0.39851939036E+02  0.36693907194E+02  0.28981886245E+01  0.54410401279E+02  0.41800000000E+01 0. -1.
        -11    1    4    4    0    0  0.10419430576E+03 -0.22752029501E+02 -0.12887783630E+03  0.16728300837E+03  0.00000000000E+00 0.  1.
         11    1    4    4    0    0 -0.16628596933E+02  0.90947049298E+01 -0.23291767991E+02  0.30028825316E+02  0.00000000000E+00 0. -1.
</event>
<event>
 8    1  0.6635152E-009  0.3096149E+03  0.7561462E-02  0.1080531E+00
         -1   -1    0    0    0  501 -0.00000000000E+00  0.00000000000E+00  0.91434993902E+03  0.91434993902E+03  0.00000000000E+00 0.  1.
          1   -1    0    0  501    0  0.00000000000E+00 -0.00000000000E+00 -0.12025929091E+03  0.12025929091E+03  0.00000000000E+00 0. -1.
         25    2    1    2    0    0  0.12762773687E+03 -0.27144998908E+03  0.26248450888E+03  0.41775505488E+03  0.12508889912E+03 0.  0.
         23    2    1    2    0    0 -0.12762773687E+03  0.27144998908E+03  0.53160613922E+03  0.61685417506E+03  0.89050829517E+02 0.  0.
          5    1    3    3  502    0  0.13598910448E+03 -0.19438205613E+03  0.14870675362E+03  0.28001534110E+03  0.41800000000E+01 0. -1.
         -5    1    3    3    0  502 -0.83613676077E+01 -0.77067932952E+02  0.11377775527E+03  0.13773971378E+03  0.41800000000E+01 0. -1.
        -11    1    4    4    0    0 -0.14341474766E+02  0.84709961092E+02  0.91400229615E+02  0.12544105142E+03  0.00000000000E+00 0.  1.
         11    1    4    4    0    0 -0.11328626211E+03  0.18674002799E+03  0.44020590961E+03  0.49141312364E+03  0.00000000000E+00 0. -1.
</event>
<event>
 8    1  0.6635152E-009  0.1032555E+03  0.7561462E-02  0.1273595E+00
          2   -1    0    0  501    0  0.00000000000E+00  0.00000000000E+00  0.33852834980E+03  0.33852834980E+03  0.00000000000E+00 0. -1.
         -2   -1    0    0    0  501 -0.00000000000E+00 -0.00000000000E+00 -0.87996279517E+02  0.87996279517E+02  0.00000000000E+00 0.  1.
         25    2    1    2    0    0 -0.23715423517E+02  0.63163352868E+02  0.27988351795E+03  0.31390115803E+03  0.12508846042E+03 0.  0.
         23    2    1    2    0    0  0.23715423517E+02 -0.63163352868E+02 -0.29351447671E+02  0.11262347129E+03  0.85267275944E+02 0.  0.
          5    1    3    3  502    0 -0.58272269748E+02  0.75676129355E+02  0.24526360739E+03  0.26323799780E+03  0.41800000000E+01 0.  1.
         -5    1    3    3    0  502  0.34556846230E+02 -0.12512776488E+02  0.34619910566E+02  0.50663160229E+02  0.41800000000E+01 0.  1.
        -11    1    4    4    0    0 -0.11754353021E+01 -0.39681887037E+02 -0.56423769771E+02  0.68990402246E+02  0.00000000000E+00 0.  1.
         11    1    4    4    0    0  0.24890858819E+02 -0.23481465831E+02  0.27072322099E+02  0.43633069044E+02  0.00000000000E+00 0. -1.
</event>
<event>
 8    1  0.6635152E-009  0.1667593E+03  0.7561462E-02  0.1181270E+00
         -1   -1    0    0    0  501 -0.00000000000E+00  0.00000000000E+00  0.10831675381E+03  0.10831675381E+03  0.00000000000E+00 0.  1.
          1   -1    0    0  501    0  0.00000000000E+00 -0.00000000000E+00 -0.26972965563E+03  0.26972965563E+03  0.00000000000E+00 0. -1.
         25    2    1    2    0    0 -0.26252051501E+02 -0.12645424278E+03 -0.53925429069E+02  0.18770901056E+03  0.12508746947E+03 0.  0.
         23    2    1    2    0    0  0.26252051501E+02  0.12645424278E+03 -0.10748747276E+03  0.19033739888E+03  0.89414332686E+02 0.  0.
          5    1    3    3  502    0 -0.31064913924E+02 -0.14971370600E+03 -0.34649841821E+02  0.15683528487E+03  0.41800000000E+01 0.  1.
         -5    1    3    3    0  502  0.48128624231E+01  0.23259463222E+02 -0.19275587248E+02  0.30873725688E+02  0.41800000000E+01 0.  1.
        -11    1    4    4    0    0  0.58710720705E+02  0.91724672400E+02 -0.82557009096E+02  0.13666025027E+03  0.00000000000E+00 0.  1.
         11    1    4    4    0    0 -0.32458669204E+02  0.34729570380E+02 -0.24930463660E+02  0.53677148617E+02  0.00000000000E+00 0. -1.
</event>
<event>
 8    1  0.6635152E-009  0.1016999E+03  0.7561462E-02  0.1276761E+00
          2   -1    0    0  501    0  0.00000000000E+00  0.00000000000E+00  0.33103969221E+03  0.33103969221E+03  0.00000000000E+00 0. -1.
         -2   -1    0    0    0  501 -0.00000000000E+00 -0.00000000000E+00 -0.38318168526E+02  0.38318168526E+02  0.00000000000E+00 0.  1.
         25    2    1    2    0    0  0.14145630700E+02  0.17381253925E+02  0.13054951041E+03  0.18218703861E+03  0.12508691184E+03 0.  0.
         23    2    1    2    0    0 -0.14145630700E+02 -0.17381253925E+02  0.16217201328E+03  0.18717082213E+03  0.90724571702E+02 0.  0.
          5    1    3    3  502    0 -0.22700136966E+02  0.60163311724E+02  0.96762491284E+02  0.11625563391E+03  0.41800000000E+01 0. -1.
         -5    1    3    3    0  502  0.36845767666E+02 -0.42782057799E+02  0.33787019126E+02  0.65931404701E+02  0.41800000000E+01 0. -1.
        -11    1    4    4    0    0  0.31166436833E+02 -0.19874432356E+02  0.30580228413E+02  0.47973849294E+02  0.00000000000E+00 0.  1.
         11    1    4    4    0    0 -0.45312067533E+02  0.24931784306E+01  0.13159178487E+03  0.13919697284E+03  0.00000000000E+00 0. -1.
</event>
<event>
 8    1  0.6635152E-009  0.1259400E+03  0.7561462E-02  0.1233607E+00
          2   -1    0    0  501    0  0.00000000000E+00  0.00000000000E+00  0.44424442211E+02  0.44424442211E+02  0.00000000000E+00 0. -1.
         -2   -1    0    0    0  501 -0.00000000000E+00 -0.00000000000E+00 -0.50640272638E+03  0.50640272638E+03  0.00000000000E+00 0.  1.
         25    2    1    2    0    0  0.10210134696E+03  0.15888672375E+02 -0.22689246864E+03  0.27893570935E+03  0.12509117742E+03 0.  0.
         23    2    1    2    0    0 -0.10210134696E+03 -0.15888672375E+02 -0.23508581553E+03  0.27189145924E+03  0.89344781505E+02 0.  0.
          5    1    3    3  502    0 -0.14483877886E+02 -0.10351942579E+02 -0.11071913808E+03  0.11221918450E+03  0.41800000000E+01 0.  1.
         -5    1    3    3    0  502  0.11658522484E+03  0.26240614954E+02 -0.11617333056E+03  0.16671652485E+03  0.41800000000E+01 0.  1.
        -11    1    4    4    0    0 -0.99624625139E+02 -0.17251176734E+01 -0.23727528670E+03  0.25734724332E+03  0.00000000000E+00 0.  1.
         11    1    4    4    0    0 -0.24767218179E+01 -0.14163554702E+02  0.21894711671E+01  0.14544215921E+02  0.00000000000E+00 0. -1.
</event>
<event>
 8    1  0.6635152E-009  0.1234367E+03  0.7561462E-02  0.1237533E+00
         -3   -1    0    0    0  501 -0.00000000000E+00  0.00000000000E+00  0.22185509706E+03  0.22185509706E+03  0.00000000000E+00 0.  1.
          3   -1    0    0  501    0  0.00000000000E+00 -0.00000000000E+00 -0.85911197198E+02  0.85911197198E+02  0.00000000000E+00 0. -1.
         25    2    1    2    0    0  0.84602596324E+01 -0.59426707905E+02  0.78438428129E+01  0.13896943643E+03  0.12509144170E+03 0.  0.
         23    2    1    2    0    0 -0.84602596324E+01  0.59426707905E+02  0.12810005705E+03  0.16879685783E+03  0.92084987873E+02 0.  0.
          5    1    3    3  502    0  0.63638437721E+02 -0.11166459725E+02  0.99991279857E+01  0.65513323369E+02  0.41800000000E+01 0.  1.
         -5    1    3    3    0  502 -0.55178178089E+02 -0.48260248181E+02 -0.21552851728E+01  0.73456113060E+02  0.41800000000E+01 0.  1.
        -11    1    4    4    0    0  0.41271406810E+02  0.25877625229E+02  0.70017859407E+02  0.85296431013E+02  0.00000000000E+00 0.  1.
         11    1    4    4    0    0 -0.49731666443E+02  0.33549082676E+02  0.58082197641E+02  0.83500426816E+02  0.00000000000E+00 0. -1.
</event>
<event>
 8    1  0.6635152E-009  0.1085249E+03  0.7561462E-02  0.1263326E+00
          2   -1    0    0  501    0  0.00000000000E+00  0.00000000000E+00  0.79927362391E+03  0.79927362391E+03  0.00000000000E+00 0. -1.
         -2   -1    0    0    0  501 -0.00000000000E+00 -0.00000000000E+00 -0.15187582441E+02  0.15187582441E+02  0.00000000000E+00 0.  1.
         25    2    1    2    0    0  0.15715210565E+02  0.14267559338E+02  0.45783163100E+03  0.47508706485E+03  0.12508951093E+03 0.  0.
         23    2    1    2    0    0 -0.15715210565E+02 -0.14267559338E+02  0.32625441047E+03  0.33937414151E+03  0.91007343003E+02 0.  0.
          5    1    3    3  502    0 -0.53832587415E+02 -0.55239355967E+01  0.18399346127E+03  0.19183202945E+03  0.41800000000E+01 0.  1.
         -5    1    3    3    0  502  0.69547797980E+02  0.19791494934E+02  0.27383816973E+03  0.28325503539E+03  0.41800000000E+01 0.  1.
        -11    1    4    4    0    0 -0.13743182800E+02  0.36776950140E+02  0.18621534462E+03  0.19030915298E+03  0.00000000000E+00 0. -1.
         11    1    4    4    0    0 -0.19720277643E+01 -0.51044509478E+02  0.14003906585E+03  0.14906498853E+03  0.00000000000E+00 0.  1.
</event>
<event>
 8    1  0.6635152E-009  0.1949829E+03  0.7561462E-02  0.1154042E+00
          2   -1    0    0  501    0  0.00000000000E+00  0.00000000000E+00  0.93491832619E+03  0.93491832619E+03  0.00000000000E+00 0.  1.
         -2   -1    0    0    0  501 -0.00000000000E+00 -0.00000000000E+00 -0.65635241906E+02  0.65635241906E+02  0.00000000000E+00 0. -1.
         25    2    1    2    0    0 -0.17233826632E+03 -0.29580055216E+02  0.16969212139E+03  0.27389455470E+03  0.12508938135E+03 0.  0.
         23    2    1    2    0    0  0.17233826632E+03  0.29580055216E+02  0.69959096290E+03  0.72665901340E+03  0.89612212814E+02 0.  0.
          5    1    3    3  502    0 -0.15047855736E+03  0.25353469547E+02  0.10041112310E+03  0.18271962315E+03  0.41800000000E+01 0.  1.
         -5    1    3    3    0  502 -0.21859708967E+02 -0.54933524763E+02  0.69280998288E+02  0.91174931548E+02  0.41800000000E+01 0.  1.
        -11    1    4    4    0    0  0.80500787237E+02 -0.30978710388E+01  0.47562709536E+03  0.48240139655E+03  0.00000000000E+00 0.  1.
         11    1    4    4    0    0  0.91837479085E+02  0.32677926255E+02  0.22396386754E+03  0.24425761685E+03  0.00000000000E+00 0. -1.
</event>
<event>
 8    1  0.6635152E-009  0.1139242E+03  0.7561462E-02  0.1253471E+00
          2   -1    0    0  501    0  0.00000000000E+00  0.00000000000E+00  0.22641614435E+03  0.22641614435E+03  0.00000000000E+00 0. -1.
         -2   -1    0    0    0  501 -0.00000000000E+00 -0.00000000000E+00 -0.71156143360E+02  0.71156143360E+02  0.00000000000E+00 0.  1.
         25    2    1    2    0    0 -0.62720156167E+02  0.13891081216E+02  0.10471977860E+03  0.17533324488E+03  0.12509490239E+03 0.  0.
         23    2    1    2    0    0  0.62720156167E+02 -0.13891081216E+02  0.50540222390E+02  0.12223904283E+03  0.90891635398E+02 0.  0.
          5    1    3    3  502    0  0.68111265648E+00 -0.35817142600E+02  0.84926700375E+02  0.92267808336E+02  0.41800000000E+01 0. -1.
         -5    1    3    3    0  502 -0.63401268823E+02  0.49708223816E+02  0.19793078226E+02  0.83065436548E+02  0.41800000000E+01 0. -1.
        -11    1    4    4    0    0 -0.11477149935E+02  0.24874857483E+02  0.15606463997E+02  0.31528482740E+02  0.00000000000E+00 0.  1.
         11    1    4    4    0    0  0.74197306101E+02 -0.38765938699E+02  0.34933758394E+02  0.90710560087E+02  0.00000000000E+00 0. -1.
</event>
<event>
 8    1  0.6635152E-009  0.2190947E+03  0.7561462E-02  0.1134560E+00
          2   -1    0    0  501    0  0.00000000000E+00  0.00000000000E+00  0.15121490806E+04  0.15121490806E+04  0.00000000000E+00 0. -1.
         -2   -1    0    0    0  501 -0.00000000000E+00 -0.00000000000E+00 -0.54652329415E+02  0.54652329415E+02  0.00000000000E+00 0.  1.
         25    2    1    2    0    0  0.18555929858E+03  0.10068645681E+03  0.11764551989E+04  0.12017752786E+04  0.12508784619E+03 0.  0.
         23    2    1    2    0    0 -0.18555929858E+03 -0.10068645681E+03  0.28104155225E+03  0.36502613142E+03  0.98436307617E+02 0.  0.
          5    1    3    3  502    0  0.14525542681E+03  0.74482631323E+02  0.10949314562E+04  0.11070407254E+04  0.41800000000E+01 0.  1.
         -5    1    3    3    0  502  0.40303871767E+02  0.26203825488E+02  0.81523742700E+02  0.94734553218E+02  0.41800000000E+01 0.  1.
        -11    1    4    4    0    0 -0.12221691014E+03 -0.19648099599E+02  0.19477686927E+03  0.23078355605E+03  0.00000000000E+00 0.  1.
         11    1    4    4    0    0 -0.63342388434E+02 -0.81038357211E+02  0.86264682982E+02  0.13424257537E+03  0.00000000000E+00 0. -1.
</event>
<event>
 8    1  0.6635152E-009  0.8860113E+02  0.7561462E-02  0.1306275E+00
          1   -1    0    0  501    0  0.00000000000E+00  0.00000000000E+00  0.56575715372E+02  0.56575715372E+02  0.00000000000E+00 0.  1.
         -1   -1    0    0    0  501 -0.00000000000E+00 -0.00000000000E+00 -0.27338899325E+03  0.27338899325E+03  0.00000000000E+00 0. -1.
         25    2    1    2    0    0  0.45790869246E+02  0.33289614935E+02 -0.15416470573E+03  0.20644605025E+03  0.12509281755E+03 0.  0.
         23    2    1    2    0    0 -0.45790869246E+02 -0.33289614935E+02 -0.62648572145E+02  0.12351865837E+03  0.90149948446E+02 0.  0.
          5    1    3    3  502    0  0.42400555208E+02  0.58008898563E+02 -0.16415963369E+03  0.17924479666E+03  0.41800000000E+01 0.  1.
         -5    1    3    3    0  502  0.33903140382E+01 -0.24719283628E+02  0.99949279584E+01  0.27201253597E+02  0.41800000000E+01 0.  1.
        -11    1    4    4    0    0  0.12916989805E+02 -0.11543731547E+02 -0.58235369215E+02  0.60757424166E+02  0.00000000000E+00 0. -1.
         11    1    4    4    0    0 -0.58707859051E+02 -0.21745883388E+02 -0.44132029297E+01  0.62761234204E+02  0.00000000000E+00 0.  1.
</event>
<event>
 8    1  0.6635152E-009  0.1219528E+03  0.7561462E-02  0.1239910E+00
          2   -1    0    0  501    0  0.00000000000E+00  0.00000000000E+00  0.15510391159E+03  0.15510391159E+03  0.00000000000E+00 0. -1.
         -2   -1    0    0    0  501 -0.00000000000E+00 -0.00000000000E+00 -0.12307848371E+03  0.12307848371E+03  0.00000000000E+00 0.  1.
         25    2    1    2    0    0 -0.44863257451E+02  0.72626363720E+02  0.96976495939E+01  0.15180281823E+03  0.12515091146E+03 0.  0.
         23    2    1    2    0    0  0.44863257451E+02 -0.72626363720E+02  0.22327778294E+02  0.12637957707E+03  0.90476335247E+02 0.  0.
          5    1    3    3  502    0 -0.27912921832E+02 -0.19018453907E+02  0.41104223809E+02  0.53365367132E+02  0.41800000000E+01 0. -1.
         -5    1    3    3    0  502 -0.16950335619E+02  0.91644817628E+02 -0.31406574215E+02  0.98437451102E+02  0.41800000000E+01 0. -1.
        -11    1    4    4    0    0 -0.22590645105E+02 -0.10647141718E+02 -0.13053114681E+02  0.28179472598E+02  0.00000000000E+00 0.  1.
         11    1    4    4    0    0  0.67453902556E+02 -0.61979222002E+02  0.35380892974E+02  0.98200104469E+02  0.00000000000E+00 0. -1.
</event>
<event>
 8    1  0.6635152E-009  0.1294181E+03  0.7561462E-02  0.1228322E+00
         -2   -1    0    0    0  501 -0.00000000000E+00  0.00000000000E+00  0.75933049808E+03  0.75933049808E+03  0.00000000000E+00 0.  1.
          2   -1    0    0  501    0  0.00000000000E+00 -0.00000000000E+00 -0.31180027842E+02  0.31180027842E+02  0.00000000000E+00 0. -1.
         25    2    1    2    0    0  0.68386827801E+02  0.81670547466E+02  0.33426764043E+03  0.37246336674E+03  0.12508903863E+03 0.  0.
         23    2    1    2    0    0 -0.68386827801E+02 -0.81670547466E+02  0.39388282980E+03  0.41804715917E+03  0.90955522876E+02 0.  0.
          5    1    3    3  502    0  0.39192760622E+02  0.52011777426E+00  0.15747079304E+02  0.42447448855E+02  0.41800000000E+01 0. -1.
         -5    1    3    3    0  502  0.29194067179E+02  0.81150429692E+02  0.31852056113E+03  0.33001591789E+03  0.41800000000E+01 0. -1.
        -11    1    4    4    0    0 -0.55081890620E+02 -0.50561307669E+01  0.23134595426E+03  0.23786662163E+03  0.00000000000E+00 0.  1.
         11    1    4    4    0    0 -0.13304937182E+02 -0.76614416699E+02  0.16253687554E+03  0.18018053754E+03  0.00000000000E+00 0. -1.
</event>
<event>
 8    1  0.6635152E-009  0.1473176E+03  0.7561462E-02  0.1203808E+00
          2   -1    0    0  501    0  0.00000000000E+00  0.00000000000E+00  0.16137091349E+03  0.16137091349E+03  0.00000000000E+00 0. -1.
         -2   -1    0    0    0  501 -0.00000000000E+00 -0.00000000000E+00 -0.15139425557E+03  0.15139425557E+03  0.00000000000E+00 0.  1.
         25    2    1    2    0    0  0.72219708626E+02 -0.84544836956E+02  0.22126101584E+02  0.16881657060E+03  0.12508378938E+03 0.  0.
         23    2    1    2    0    0 -0.72219708626E+02  0.84544836956E+02 -0.12149443665E+02  0.14394859846E+03  0.90609460036E+02 0.  0.
          5    1    3    3  502    0  0.10092974731E+02  0.27545754836E+02 -0.17740664554E+02  0.34537520572E+02  0.41800000000E+01 0. -1.
         -5    1    3    3    0  502  0.62126733895E+02 -0.11209059179E+03  0.39866766138E+02  0.13427905002E+03  0.41800000000E+01 0. -1.
        -11    1    4    4    0    0 -0.12782167445E+02  0.75597732001E+02  0.14783797093E+02  0.78083042620E+02  0.00000000000E+00 0. -1.
         11    1    4    4    0    0 -0.59437541182E+02  0.89471049554E+01 -0.26933240758E+02  0.65865555843E+02  0.00000000000E+00 0.  1.
</event>
<event>
 8    1  0.6635152E-009  0.2122147E+03  0.7561462E-02  0.1139824E+00
          1   -1    0    0  501    0  0.00000000000E+00  0.00000000000E+00  0.61815898733E+02  0.61815898733E+02  0.00000000000E+00 0. -1.
         -1   -1    0    0    0  501 -0.00000000000E+00 -0.00000000000E+00 -0.88007587681E+03  0.88007587681E+03  0.00000000000E+00 0.  1.
         25    2    1    2    0    0 -0.18132438693E+03  0.64434308988E+02 -0.57145734480E+03  0.61581914109E+03  0.12505760325E+03 0.  0.
         23    2    1    2    0    0  0.18132438693E+03 -0.64434308988E+02 -0.24680263327E+03  0.32607263445E+03  0.91550585363E+02 0.  0.
          5    1    3    3  502    0 -0.19300900958E+02  0.61148247755E+02 -0.11972031622E+03  0.13587516144E+03  0.41800000000E+01 0. -1.
         -5    1    3    3    0  502 -0.16202348597E+03  0.32860612334E+01 -0.45173702858E+03  0.47994397965E+03  0.41800000000E+01 0. -1.
        -11    1    4    4    0    0  0.52055530511E+02 -0.41941323142E+02 -0.14611457220E+03  0.16068080487E+03  0.00000000000E+00 0. -1.
         11    1    4    4    0    0  0.12926885642E+03 -0.22492985846E+02 -0.10068806107E+03  0.16539182959E+03  0.00000000000E+00 0.  1.
</event>
<event>
 8    1  0.6635152E-009  0.2900080E+03  0.7561462E-02  0.1090345E+00
          2   -1    0    0  501    0  0.00000000000E+00  0.00000000000E+00  0.18006059077E+04  0.18006059077E+04  0.00000000000E+00 0.  1.
         -2   -1    0    0    0  501 -0.00000000000E+00 -0.00000000000E+00 -0.56587325121E+02  0.56587325121E+02  0.00000000000E+00 0. -1.
         25    2    1    2    0    0 -0.16851166656E+03  0.21895374744E+03  0.12224634926E+04  0.12595241392E+04  0.12508853348E+03 0.  0.
         23    2    1    2    0    0  0.16851166656E+03 -0.21895374744E+03  0.52155508992E+03  0.59766909356E+03  0.94083517649E+02 0.  0.
          5    1    3    3  502    0 -0.51412904475E+02  0.11271356838E+02  0.11303727478E+03  0.12476068340E+03  0.41800000000E+01 0. -1.
         -5    1    3    3    0  502 -0.11709876208E+03  0.20768239060E+03  0.11094262179E+04  0.11347634559E+04  0.41800000000E+01 0. -1.
        -11    1    4    4    0    0  0.15396188899E+03 -0.13878477905E+03  0.41124670514E+03  0.46053157399E+03  0.00000000000E+00 0. -1.
         11    1    4    4    0    0  0.14549777566E+02 -0.80168968393E+02  0.11030838478E+03  0.13713751957E+03  0.00000000000E+00 0.  1.
</event>
<event>
 8    1  0.6635152E-009  0.1801289E+03  0.7561462E-02  0.1167678E+00
          2   -1    0    0  501    0  0.00000000000E+00  0.00000000000E+00  0.90231566244E+03  0.90231566244E+03  0.00000000000E+00 0. -1.
         -2   -1    0    0    0  501 -0.00000000000E+00 -0.00000000000E+00 -0.43437118149E+02  0.43437118149E+02  0.00000000000E+00 0.  1.
         25    2    1    2    0    0 -0.14862637447E+03 -0.60002921031E+02  0.35445671713E+03  0.40862738035E+03  0.12508645784E+03 0.  0.
         23    2    1    2    0    0  0.14862637447E+03  0.60002921031E+02  0.50442182717E+03  0.53712540024E+03  0.91499541761E+02 0.  0.
          5    1    3    3  502    0 -0.16558142116E+03 -0.69221512995E+02  0.33882232324E+03  0.38344082206E+03  0.41800000000E+01 0. -1.
         -5    1    3    3    0  502  0.16955046696E+02  0.92185919637E+01  0.15634393888E+02  0.25186558291E+02  0.41800000000E+01 0. -1.
        -11    1    4    4    0    0  0.80836900156E+02  0.24485341563E+02  0.39285881838E+03  0.40183602073E+03  0.00000000000E+00 0. -1.
         11    1    4    4    0    0  0.67789474313E+02  0.35517579468E+02  0.11156300879E+03  0.13528937951E+03  0.00000000000E+00 0.  1.
</event>
<event>
 8    1  0.6635152E-009  0.1471977E+03  0.7561462E-02  0.1203959E+00
          1   -1    0    0  501    0  0.00000000000E+00  0.00000000000E+00  0.13667414433E+03  0.13667414433E+03  0.00000000000E+00 0. -1.
         -1   -1    0    0    0  501 -0.00000000000E+00 -0.00000000000E+00 -0.20642221334E+03  0.20642221334E+03  0.00000000000E+00 0.  1.
         25    2    1    2    0    0  0.40822573758E+02 -0.11783432420E+03 -0.74047717627E+01  0.17678843005E+03  0.12509159791E+03 0.  0.
         23    2    1    2    0    0 -0.40822573758E+02  0.11783432420E+03 -0.62343297248E+02  0.16630792762E+03  0.90665481803E+02 0.  0.
          5    1    3    3  502    0 -0.31826166090E+02 -0.82495833220E+02  0.21129642807E+02  0.91007700508E+02  0.41800000000E+01 0.  1.
         -5    1    3    3    0  502  0.72648739848E+02 -0.35338490978E+02 -0.28534414570E+02  0.85780729543E+02  0.41800000000E+01 0.  1.
        -11    1    4    4    0    0 -0.37211453275E+02  0.98176403864E+02 -0.85728084712E+02  0.13554557550E+03  0.00000000000E+00 0.  1.
         11    1    4    4    0    0 -0.36111204827E+01  0.19657920334E+02  0.23384787464E+02  0.30762352117E+02  0.00000000000E+00 0. -1.
</event>
<event>
 8    1  0.6635152E-009  0.1325058E+03  0.7561462E-02  0.1223784E+00
          2   -1    0    0  501    0  0.00000000000E+00  0.00000000000E+00  0.67685447619E+03  0.67685447619E+03  0.00000000000E+00 0. -1.
         -2   -1    0    0    0  501 -0.00000000000E+00 -0.00000000000E+00 -0.60222641786E+02  0.60222641786E+02  0.00000000000E+00 0.  1.
         25    2    1    2    0    0 -0.97981274808E+02  0.77538085428E+02  0.11163468693E+03  0.20909893033E+03  0.12509026514E+03 0.  0.
         23    2    1    2    0    0  0.97981274808E+02 -0.77538085428E+02  0.50499714747E+03  0.52797818765E+03  0.90146340861E+02 0.  0.
          5    1    3    3  502    0 -0.36858483396E+02  0.66746047900E+02  0.12404458033E+03  0.14566438486E+03  0.41800000000E+01 0. -1.
         -5    1    3    3    0  502 -0.61122791412E+02  0.10792037528E+02 -0.12409893400E+02  0.63434545464E+02  0.41800000000E+01 0. -1.
        -11    1    4    4    0    0  0.86616727230E+02 -0.59366214268E+02  0.49162790604E+03  0.50271741847E+03  0.00000000000E+00 0. -1.
         11    1    4    4    0    0  0.11364547577E+02 -0.18171871159E+02  0.13369241432E+02  0.25260769179E+02  0.00000000000E+00 0.  1.
</event>
<event>
 8    1  0.6635152E-009  0.1354544E+03  0.7561462E-02  0.1219580E+00
          3   -1    0    0  501    0  0.00000000000E+00  0.00000000000E+00  0.19914546129E+02  0.19914546129E+02  0.00000000000E+00 0. -1.
         -3   -1    0    0    0  501 -0.00000000000E+00 -0.00000000000E+00 -0.10766207898E+04  0.10766207898E+04  0.00000000000E+00 0.  1.
         25    2    1    2    0    0 -0.24212440051E+02  0.93375296376E+02 -0.63645907381E+03  0.65576909555E+03  0.12509103014E+03 0.  0.
         23    2    1    2    0    0  0.24212440051E+02 -0.93375296376E+02 -0.42024716982E+03  0.44076624033E+03  0.91444008275E+02 0.  0.
          5    1    3    3  502    0  0.57349178799E+01  0.11171961184E+03 -0.56562775323E+03  0.57659898420E+03  0.41800000000E+01 0.  1.
         -5    1    3    3    0  502 -0.29947357930E+02 -0.18344315468E+02 -0.70831320580E+02  0.79170111356E+02  0.41800000000E+01 0.  1.
        -11    1    4    4    0    0 -0.22379058092E+02 -0.65697270276E+02 -0.31302640888E+03  0.32062826796E+03  0.00000000000E+00 0.  1.
         11    1    4    4    0    0  0.46591498142E+02 -0.27678026100E+02 -0.10722076094E+03  0.12013797237E+03  0.00000000000E+00 0. -1.
</event>
<event>
 8    1  0.6635152E-009  0.6321282E+02  0.7561462E-02  0.1384823E+00
          1   -1    0    0  501    0  0.00000000000E+00  0.00000000000E+00  0.26065132333E+03  0.26065132333E+03  0.00000000000E+00 0. -1.
         -1   -1    0    0    0  501 -0.00000000000E+00 -0.00000000000E+00 -0.49328977128E+02  0.49328977128E+02  0.00000000000E+00 0.  1.
         25    2    1    2    0    0  0.10595106658E+02 -0.23654494613E+02  0.85447324945E+02  0.15368300371E+03  0.12508168887E+03 0.  0.
         23    2    1    2    0    0 -0.10595106658E+02  0.23654494613E+02  0.12587502126E+03  0.15629729675E+03  0.88952417579E+02 0.  0.
          5    1    3    3  502    0  0.43712090472E+01 -0.25382990669E+02  0.11768337075E+03  0.12054149425E+03  0.41800000000E+01 0.  1.
         -5    1    3    3    0  502  0.62238976110E+01  0.17284960553E+01 -0.32236045809E+02  0.33141509463E+02  0.41800000000E+01 0.  1.
        -11    1    4    4    0    0  0.38344578109E+02  0.14571993415E+00  0.50789521153E+02  0.63638851055E+02  0.00000000000E+00 0.  1.
         11    1    4    4    0    0 -0.48939684767E+02  0.23508774679E+02  0.75085500108E+02  0.92658445694E+02  0.00000000000E+00 0. -1.
</event>
<event>
 8    1  0.6635152E-009  0.1371890E+03  0.7561462E-02  0.1217162E+00
          3   -1    0    0  501    0  0.00000000000E+00  0.00000000000E+00  0.64708597577E+02  0.64708597577E+02  0.00000000000E+00 0. -1.
         -3   -1    0    0    0  501 -0.00000000000E+00 -0.00000000000E+00 -0.35707555207E+03  0.35707555207E+03  0.00000000000E+00 0.  1.
         25    2    1    2    0    0  0.37897030800E+02 -0.79777207215E+02 -0.24204357772E+03  0.28641062282E+03  0.12508142793E+03 0.  0.
         23    2    1    2    0    0 -0.37897030800E+02  0.79777207215E+02 -0.50323376771E+02  0.13537352683E+03  0.89403365604E+02 0.  0.
          5    1    3    3  502    0  0.73020446484E+02 -0.87615064454E+02 -0.15817780190E+03  0.19505402979E+03  0.41800000000E+01 0. -1.
         -5    1    3    3    0  502 -0.35123415684E+02  0.78378572394E+01 -0.83865775825E+02  0.91356593030E+02  0.41800000000E+01 0. -1.
        -11    1    4    4    0    0 -0.66269094096E+02  0.51153654097E+02 -0.44012394482E+02  0.94580019178E+02  0.00000000000E+00 0. -1.
         11    1    4    4    0    0  0.28372063296E+02  0.28623553118E+02 -0.63109822889E+01  0.40793507648E+02  0.00000000000E+00 0.  1.
</event>
<event>
 8    1  0.6635152E-009  0.9695131E+02  0.7561462E-02  0.1286841E+00
          1   -1    0    0  501    0  0.00000000000E+00  0.00000000000E+00  0.18602271428E+03  0.18602271428E+03  0.00000000000E+00 0. -1.
         -1   -1    0    0    0  501 -0.00000000000E+00 -0.00000000000E+00 -0.97935038244E+02  0.97935038244E+02  0.00000000000E+00 0.  1.
         25    2    1    2    0    0  0.18177538708E+02 -0.10533566039E+02  0.13062491631E+03  0.18207593470E+03  0.12508956116E+03 0.  0.
         23    2    1    2    0    0 -0.18177538708E+02  0.10533566039E+02 -0.42537240269E+02  0.10188181783E+03  0.90161572007E+02 0.  0.
          5    1    3    3  502    0 -0.44214637939E+02 -0.29773724820E+02  0.27963641956E+02  0.60339427982E+02  0.41800000000E+01 0. -1.
         -5    1    3    3    0  502  0.62392176647E+02  0.19240158781E+02  0.10266127435E+03  0.12173650672E+03  0.41800000000E+01 0. -1.
        -11    1    4    4    0    0  0.23709523706E+02 -0.12921626662E+02 -0.46436774947E+02  0.53716701476E+02  0.00000000000E+00 0.  1.
         11    1    4    4    0    0 -0.41887062414E+02  0.23455192701E+02  0.38995346782E+01  0.48165116350E+02  0.00000000000E+00 0. -1.
</event>
<event>
 8    1  0.6635152E-009  0.1039542E+03  0.7561462E-02  0.1272194E+00
          3   -1    0    0  501    0  0.00000000000E+00  0.00000000000E+00  0.64035542817E+03  0.64035542817E+03  0.00000000000E+00 0. -1.
         -3   -1    0    0    0  501 -0.00000000000E+00 -0.00000000000E+00 -0.20495815260E+02  0.20495815260E+02  0.00000000000E+00 0.  1.
         25    2    1    2    0    0  0.58863016044E+01  0.49580207904E+02  0.41702992900E+03  0.43823765170E+03  0.12508170180E+03 0.  0.
         23    2    1    2    0    0 -0.58863016044E+01 -0.49580207904E+02  0.20282968391E+03  0.22261359173E+03  0.76968077704E+02 0.  0.
          5    1    3    3  502    0  0.39013238452E+02 -0.25188498265E+02  0.93162575580E+02  0.10417884194E+03  0.41800000000E+01 0. -1.
         -5    1    3    3    0  502 -0.33126936848E+02  0.74768706169E+02  0.32386735342E+03  0.33405880976E+03  0.41800000000E+01 0. -1.
        -11    1    4    4    0    0  0.17978467261E+02  0.59650616806E+01  0.11143528760E+03  0.11303375854E+03  0.00000000000E+00 0. -1.
         11    1    4    4    0    0 -0.23864768865E+02 -0.55545269585E+02  0.91394396306E+02  0.10957983319E+03  0.00000000000E+00 0.  1.
</event>
<event>
 8    1  0.6635152E-009  0.1368217E+03  0.7561462E-02  0.1217671E+00
         -3   -1    0    0    0  501 -0.00000000000E+00  0.00000000000E+00  0.40344188873E+02  0.40344188873E+02  0.00000000000E+00 0.  1.
          3   -1    0    0  501    0  0.00000000000E+00 -0.00000000000E+00 -0.65055124460E+03  0.65055124460E+03  0.00000000000E+00 0. -1.
         25    2    1    2    0    0 -0.71803637387E+02  0.87940145897E+02 -0.44805013801E+03  0.47883723852E+03  0.12508774206E+03 0.  0.
         23    2    1    2    0    0  0.71803637387E+02 -0.87940145897E+02 -0.16215691771E+03  0.21205819496E+03  0.76056429605E+02 0.  0.
          5    1    3    3  502    0 -0.99622992107E+02  0.81865740478E+02 -0.41699734152E+03  0.43649856272E+03  0.41800000000E+01 0.  1.
         -5    1    3    3    0  502  0.27819354720E+02  0.60744054190E+01 -0.31052796498E+02  0.42338675801E+02  0.41800000000E+01 0.  1.
        -11    1    4    4    0    0  0.30497077891E+02 -0.20434424742E+02 -0.11318871858E+03  0.11899295562E+03  0.00000000000E+00 0. -1.
         11    1    4    4    0    0  0.41306559496E+02 -0.67505721155E+02 -0.48968199135E+02  0.93065239335E+02  0.00000000000E+00 0.  1.
</event>
<event>
 8    1  0.6635152E-009  0.1110731E+03  0.7561462E-02  0.1258596E+00
         -3   -1    0    0    0  501 -0.00000000000E+00  0.00000000000E+00  0.17861874116E+03  0.17861874116E+03  0.00000000000E+00 0.  1.
          3   -1    0    0  501    0  0.00000000000E+00 -0.00000000000E+00 -0.77674435418E+02  0.77674435418E+02  0.00000000000E+00 0. -1.
         25    2    1    2    0    0  0.24374563142E+02 -0.11138321100E+02  0.98082960784E+02  0.16120458881E+03  0.12509384770E+03 0.  0.
         23    2    1    2    0    0 -0.24374563142E+02  0.11138321100E+02  0.28613449543E+01  0.95088587762E+02  0.91189202773E+02 0.  0.
          5    1    3    3  502    0 -0.14823714808E+02 -0.61826041487E+02  0.49513522678E+02  0.80692398990E+02  0.41800000000E+01 0. -1.
         -5    1    3    3    0  502  0.39198277949E+02  0.50687720387E+02  0.48569438106E+02  0.80512189824E+02  0.41800000000E+01 0. -1.
        -11    1    4    4    0    0  0.32290042865E+02  0.18279998843E+02  0.72513390828E+01  0.37807236667E+02  0.00000000000E+00 0.  1.
         11    1    4    4    0    0 -0.56664606006E+02 -0.71416777428E+01 -0.43899941285E+01  0.57281351095E+02  0.00000000000E+00 0. -1.
</event>
<event>
 8    1  0.6635152E-009  0.1919788E+03  0.7561462E-02  0.1156689E+00
          2   -1    0    0  501    0  0.00000000000E+00  0.00000000000E+00  0.55646302430E+02  0.55646302430E+02  0.00000000000E+00 0.  1.
         -2   -1    0    0    0  501 -0.00000000000E+00 -0.00000000000E+00 -0.75596383194E+03  0.75596383194E+03  0.00000000000E+00 0. -1.
         25    2    1    2    0    0  0.15013075944E+03 -0.83359482064E+02 -0.41660043580E+03  0.46764415052E+03  0.12508828972E+03 0.  0.
         23    2    1    2    0    0 -0.15013075944E+03  0.83359482064E+02 -0.28371709371E+03  0.34396598385E+03  0.91264235064E+02 0.  0.
          5    1    3    3  502    0  0.15502957537E+03 -0.10644886295E+03 -0.36011375756E+03  0.40628182392E+03  0.41800000000E+01 0. -1.
         -5    1    3    3    0  502 -0.48988159296E+01  0.23089380884E+02 -0.56486678238E+02  0.61362326598E+02  0.41800000000E+01 0. -1.
        -11    1    4    4    0    0 -0.13039659165E+02  0.97368248393E+01  0.40947811226E+01  0.16781111451E+02  0.00000000000E+00 0.  1.
         11    1    4    4    0    0 -0.13709110028E+03  0.73622657225E+02 -0.28781187483E+03  0.32718487240E+03  0.00000000000E+00 0. -1.
</event>
<event>
 8    1  0.6635152E-009  0.1641159E+03  0.7561462E-02  0.1184127E+00
         -2   -1    0    0    0  501 -0.00000000000E+00  0.00000000000E+00  0.19889315453E+03  0.19889315453E+03  0.00000000000E+00 0.  1.
          2   -1    0    0  501    0  0.00000000000E+00 -0.00000000000E+00 -0.15222437679E+03  0.15222437679E+03  0.00000000000E+00 0. -1.
         25    2    1    2    0    0 -0.40722189582E+02  0.12430405644E+03 -0.11686762986E+02  0.18136930025E+03  0.12509375472E+03 0.  0.
         23    2    1    2    0    0  0.40722189582E+02 -0.12430405644E+03  0.58355540724E+02  0.16974823108E+03  0.91100481062E+02 0.  0.
          5    1    3    3  502    0  0.33633243365E+02 -0.15185704243E+01  0.46729064822E+01  0.34246307398E+02  0.41800000000E+01 0.  1.
         -5    1    3    3    0  502 -0.74355432947E+02  0.12582262686E+03 -0.16359669469E+02  0.14712299285E+03  0.41800000000E+01 0.  1.
        -11    1    4    4    0    0 -0.19805140298E+02 -0.26627886248E+02  0.42235786233E+02  0.53713588104E+02  0.00000000000E+00 0. -1.
         11    1    4    4    0    0  0.60527329879E+02 -0.97676170191E+02  0.16119754490E+02  0.11603464297E+03  0.00000000000E+00 0.  1.
</event>
<event>
 8    1  0.6635152E-009  0.1122253E+03  0.7561462E-02  0.1256504E+00
         -2   -1    0    0    0  501 -0.00000000000E+00  0.00000000000E+00  0.31843488358E+02  0.31843488358E+02  0.00000000000E+00 0.  1.
          2   -1    0    0  501    0  0.00000000000E+00 -0.00000000000E+00 -0.65838025706E+03  0.65838025706E+03  0.00000000000E+00 0. -1.
         25    2    1    2    0    0  0.34779539735E+02  0.83234194996E+02 -0.41580936156E+03  0.44348859061E+03  0.12508859757E+03 0.  0.
         23    2    1    2    0    0 -0.34779539735E+02 -0.83234194996E+02 -0.21072740714E+03  0.24673515480E+03  0.91294298261E+02 0.  0.
          5    1    3    3  502    0  0.47067571551E+02  0.73127473209E+02 -0.41792944743E+03  0.42690218910E+03  0.41800000000E+01 0.  1.
         -5    1    3    3    0  502 -0.12288031815E+02  0.10106721787E+02  0.21200858665E+01  0.16586401516E+02  0.41800000000E+01 0.  1.
        -11    1    4    4    0    0 -0.46959526879E+02 -0.93743247728E+02 -0.14418585105E+03  0.17827662018E+03  0.00000000000E+00 0.  1.
         11    1    4    4    0    0  0.12179987143E+02  0.10509052732E+02 -0.66541556086E+02  0.68458534621E+02  0.00000000000E+00 0. -1.
</event>
<event>
 8    1  0.6635152E-009  0.9654683E+02  0.7561462E-02  0.1287730E+00
          2   -1    0    0  501    0  0.00000000000E+00  0.00000000000E+00  0.22296337775E+03  0.22296337775E+03  0.00000000000E+00 0. -1.
         -2   -1    0    0    0  501 -0.00000000000E+00 -0.00000000000E+00 -0.63157344189E+02  0.63157344189E+02  0.00000000000E+00 0.  1.
         25    2    1    2    0    0 -0.37763528465E+02  0.74968057647E+01  0.12569189102E+03  0.18146225476E+03  0.12509121574E+03 0.  0.
         23    2    1    2    0    0  0.37763528465E+02 -0.74968057647E+01  0.34114142548E+02  0.10465846719E+03  0.91144576655E+02 0.  0.
          5    1    3    3  502    0 -0.48665760271E+02  0.56711277971E+02  0.48540486468E+02  0.89208612244E+02  0.41800000000E+01 0. -1.
         -5    1    3    3    0  502  0.10902231806E+02 -0.49214472206E+02  0.77151404548E+02  0.92253642511E+02  0.41800000000E+01 0. -1.
        -11    1    4    4    0    0 -0.59742299605E+01 -0.21046584361E+02  0.51284707946E+02  0.55756357539E+02  0.00000000000E+00 0. -1.
         11    1    4    4    0    0  0.43737758426E+02  0.13549778596E+02 -0.17170565398E+02  0.48902109649E+02  0.00000000000E+00 0.  1.
</event>
<event>
 8    1  0.6635152E-009  0.8951524E+02  0.7561462E-02  0.1304030E+00
          1   -1    0    0  501    0  0.00000000000E+00  0.00000000000E+00  0.27626019626E+03  0.27626019626E+03  0.00000000000E+00 0. -1.
         -1   -1    0    0    0  501 -0.00000000000E+00 -0.00000000000E+00 -0.60344662761E+02  0.60344662761E+02  0.00000000000E+00 0.  1.
         25    2    1    2    0    0  0.36758737359E+02  0.18808274740E+02  0.41091736590E+02  0.13798955486E+03  0.12509048910E+03 0.  0.
         23    2    1    2    0    0 -0.36758737359E+02 -0.18808274740E+02  0.17482379691E+03  0.19861530417E+03  0.84733246793E+02 0.  0.
          5    1    3    3  502    0 -0.33632568087E+02 -0.75656935266E+01  0.51369112497E+02  0.62005221339E+02  0.41800000000E+01 0.  1.
         -5    1    3    3    0  502  0.70391305446E+02  0.26373968267E+02 -0.10277375907E+02  0.75984333517E+02  0.41800000000E+01 0.  1.
        -11    1    4    4    0    0 -0.41221479040E+02  0.78733079314E+01  0.16432170332E+03  0.16959605388E+03  0.00000000000E+00 0. -1.
         11    1    4    4    0    0  0.44627416809E+01 -0.26681582671E+02  0.10502093595E+02  0.29019250284E+02  0.00000000000E+00 0.  1.
</event>
<event>
 8    1  0.6635152E-009  0.1014722E+03  0.7561462E-02  0.1277230E+00
          1   -1    0    0  501    0  0.00000000000E+00  0.00000000000E+00  0.47663405393E+03  0.47663405393E+03  0.00000000000E+00 0. -1.
         -1   -1    0    0    0  501 -0.00000000000E+00 -0.00000000000E+00 -0.25700492702E+02  0.25700492702E+02  0.00000000000E+00 0.  1.
         25    2    1    2    0    0  0.28674292531E+01  0.16535085848E+02  0.29225957389E+03  0.31834734548E+03  0.12509093742E+03 0.  0.
         23    2    1    2    0    0 -0.28674292531E+01 -0.16535085848E+02  0.15867398734E+03  0.18398720116E+03  0.91609086439E+02 0.  0.
          5    1    3    3  502    0 -0.54412576706E+02 -0.30536153016E+01  0.20431407229E+03  0.21149885485E+03  0.41800000000E+01 0. -1.
         -5    1    3    3    0  502  0.57280005959E+02  0.19588701150E+02  0.87945501604E+02  0.10684849062E+03  0.41800000000E+01 0. -1.
        -11    1    4    4    0    0  0.55848611745E+01  0.34968915848E+02  0.35178133246E+02  0.49915095999E+02  0.00000000000E+00 0.  1.
         11    1    4    4    0    0 -0.84522904276E+01 -0.51504001696E+02  0.12349585409E+03  0.13407210516E+03  0.00000000000E+00 0. -1.
</event>
<event>
 8    1  0.6635152E-009  0.8804722E+02  0.7561462E-02  0.1307651E+00
         -1   -1    0    0    0  501 -0.00000000000E+00  0.00000000000E+00  0.49361096516E+02  0.49361096516E+02  0.00000000000E+00 0.  1.
          1   -1    0    0  501    0  0.00000000000E+00 -0.00000000000E+00 -0.23770553695E+03  0.23770553695E+03  0.00000000000E+00 0. -1.
         25    2    1    2    0    0 -0.19495857717E+02  0.12052415191E+02 -0.12110974090E+03  0.17560933932E+03  0.12508285867E+03 0.  0.
         23    2    1    2    0    0  0.19495857717E+02 -0.12052415191E+02 -0.67234699530E+02  0.11145729415E+03  0.85888732774E+02 0.  0.
          5    1    3    3  502    0 -0.44068335574E+02  0.33835450651E+02 -0.62397488564E+01  0.56064808809E+02  0.41800000000E+01 0.  1.
         -5    1    3    3    0  502  0.24572477857E+02 -0.21783035460E+02 -0.11486999204E+03  0.11954453051E+03  0.41800000000E+01 0.  1.
        -11    1    4    4    0    0  0.52335969695E+02 -0.14606675087E+02 -0.31285137495E+02  0.62699031166E+02  0.00000000000E+00 0.  1.
         11    1    4    4    0    0 -0.32840111978E+02  0.25542598963E+01 -0.35949562035E+02  0.48758262980E+02  0.00000000000E+00 0. -1.
</event>
<event>
 8    1  0.6635152E-009  0.7934446E+02  0.7561462E-02  0.1330922E+00
          2   -1    0    0  501    0  0.00000000000E+00  0.00000000000E+00  0.25602735187E+03  0.25602735187E+03  0.00000000000E+00 0. -1.
         -2   -1    0    0    0  501 -0.00000000000E+00 -0.00000000000E+00 -0.46994188427E+02  0.46994188427E+02  0.00000000000E+00 0.  1.
         25    2    1    2    0    0  0.65885118710E+01 -0.10962619003E+02  0.10813648244E+03  0.16584326778E+03  0.12508758184E+03 0.  0.
         23    2    1    2    0    0 -0.65885118710E+01  0.10962619003E+02  0.10089668101E+03  0.13717827252E+03  0.92055150365E+02 0.  0.
          5    1    3    3  502    0 -0.38113052643E+02 -0.20279274554E+02  0.11172592096E+03  0.11984993773E+03  0.41800000000E+01 0.  1.
         -5    1    3    3    0  502  0.44701564514E+02  0.93166555508E+01 -0.35894385236E+01  0.45993330055E+02  0.41800000000E+01 0.  1.
        -11    1    4    4    0    0  0.29020822759E+02 -0.65924032727E+01  0.11067768267E+01  0.29780746959E+02  0.00000000000E+00 0.  1.
         11    1    4    4    0    0 -0.35609334630E+02  0.17555022276E+02  0.99789904179E+02  0.10739752556E+03  0.00000000000E+00 0. -1.
</event>
<event>
 8    1  0.6635152E-009  0.1787842E+03  0.7561462E-02  0.1168985E+00
          2   -1    0    0  501    0  0.00000000000E+00  0.00000000000E+00  0.14430213447E+04  0.14430213447E+04  0.00000000000E+00 0. -1.
         -2   -1    0    0    0  501 -0.00000000000E+00 -0.00000000000E+00 -0.30329337170E+02  0.30329337170E+02  0.00000000000E+00 0.  1.
         25    2    1    2    0    0  0.10182926014E+03 -0.14367184039E+03  0.82778353744E+03  0.85550226334E+03  0.12509093402E+03 0.  0.
         23    2    1    2    0    0 -0.10182926014E+03  0.14367184039E+03  0.58490847005E+03  0.61784841849E+03  0.92779059892E+02 0.  0.
          5    1    3    3  502    0  0.51407153698E+01  0.15068461355E+01  0.29088532019E+03  0.29096467043E+03  0.41800000000E+01 0. -1.
         -5    1    3    3    0  502  0.96688544772E+02 -0.14517868653E+03  0.53689821725E+03  0.56453759290E+03  0.41800000000E+01 0. -1.
        -11    1    4    4    0    0 -0.57667497058E+02  0.74203988239E+02  0.45080194358E+03  0.46049339238E+03  0.00000000000E+00 0. -1.
         11    1    4    4    0    0 -0.44161763084E+02  0.69467852155E+02  0.13410652646E+03  0.15735502611E+03  0.00000000000E+00 0.  1.
</event>
<event>
 8    1  0.6635152E-009  0.9570360E+02  0.7561462E-02  0.1289599E+00
         -2   -1    0    0    0  501 -0.00000000000E+00  0.00000000000E+00  0.28292630938E+02  0.28292630938E+02  0.00000000000E+00 0.  1.
          2   -1    0    0  501    0  0.00000000000E+00 -0.00000000000E+00 -0.43958842476E+03  0.43958842476E+03  0.00000000000E+00 0. -1.
         25    2    1    2    0    0 -0.22226051520E+02 -0.16565217301E+01 -0.21122760836E+03  0.24649804501E+03  0.12508973670E+03 0.  0.
         23    2    1    2    0    0  0.22226051520E+02  0.16565217301E+01 -0.20006818546E+03  0.22138301069E+03  0.92121751821E+02 0.  0.
          5    1    3    3  502    0  0.12950725378E+02 -0.56627450686E+02 -0.71452158864E+02  0.92180653422E+02  0.41800000000E+01 0.  1.
         -5    1    3    3    0  502 -0.35176776899E+02  0.54970928956E+02 -0.13977544950E+03  0.15431739158E+03  0.41800000000E+01 0.  1.
        -11    1    4    4    0    0  0.15755822666E+02 -0.30842736049E+02 -0.17853680712E+03  0.18186509234E+03  0.00000000000E+00 0. -1.
         11    1    4    4    0    0  0.64702288541E+01  0.32499257779E+02 -0.21531378342E+02  0.39517918353E+02  0.00000000000E+00 0.  1.
</event>
<event>
 8    1  0.6635152E-009  0.1114016E+03  0.7561462E-02  0.1257996E+00
          1   -1    0    0  501    0  0.00000000000E+00  0.00000000000E+00  0.39946502421E+02  0.39946502421E+02  0.00000000000E+00 0. -1.
         -1   -1    0    0    0  501 -0.00000000000E+00 -0.00000000000E+00 -0.46962203558E+03  0.46962203558E+03  0.00000000000E+00 0.  1.
         25    2    1    2    0    0 -0.46872682981E+02 -0.59711872626E+02 -0.29734668264E+03  0.33138851641E+03  0.12506295611E+03 0.  0.
         23    2    1    2    0    0  0.46872682981E+02  0.59711872626E+02 -0.13232885052E+03  0.17818002159E+03  0.92057803968E+02 0.  0.
          5    1    3    3  502    0 -0.34357325140E+02  0.24657781211E+02 -0.18748789065E+03  0.19224363060E+03  0.41800000000E+01 0. -1.
         -5    1    3    3    0  502 -0.12515357841E+02 -0.84369653837E+02 -0.10985879198E+03  0.13914488581E+03  0.41800000000E+01 0. -1.
        -11    1    4    4    0    0  0.32525820639E+02  0.70046913218E+02 -0.13921704709E+03  0.15920391095E+03  0.00000000000E+00 0.  1.
         11    1    4    4    0    0  0.14346862342E+02 -0.10335040592E+02  0.68881965724E+01  0.18976110643E+02  0.00000000000E+00 0. -1.
</event>
<event>
 8    1  0.6635152E-009  0.1199717E+03  0.7561462E-02  0.1243144E+00
         -2   -1    0    0    0  501 -0.00000000000E+00  0.00000000000E+00  0.32194255102E+02  0.32194255102E+02  0.00000000000E+00 0.  1.
          2   -1    0    0  501    0  0.00000000000E+00 -0.00000000000E+00 -0.55597430360E+03  0.55597430360E+03  0.00000000000E+00 0. -1.
         25    2    1    2    0    0 -0.62042407078E+01  0.52859982182E+02 -0.16407202397E+03  0.21308321842E+03  0.12510858724E+03 0.  0.
         23    2    1    2    0    0  0.62042407078E+01 -0.52859982182E+02 -0.35970802453E+03  0.37508534029E+03  0.92013473310E+02 0.  0.
          5    1    3    3  502    0  0.54022338302E+02  0.98082288168E-01 -0.82516629831E+02  0.98716205632E+02  0.41800000000E+01 0. -1.
         -5    1    3    3    0  502 -0.60226579010E+02  0.52761899894E+02 -0.81555394143E+02  0.11436701279E+03  0.41800000000E+01 0. -1.
        -11    1    4    4    0    0 -0.11047532027E+02  0.24206091637E+02 -0.72937054468E+02  0.77638886846E+02  0.00000000000E+00 0. -1.
         11    1    4    4    0    0  0.17251772735E+02 -0.77066073819E+02 -0.28677097006E+03  0.29744645344E+03  0.00000000000E+00 0.  1.
</event>
<event>
 8    1  0.6635152E-009  0.4074444E+03  0.7561462E-02  0.1041232E+00
          1   -1    0    0  501    0  0.00000000000E+00  0.00000000000E+00  0.52997808547E+03  0.52997808547E+03  0.00000000000E+00 0. -1.
         -1   -1    0    0    0  501 -0.00000000000E+00 -0.00000000000E+00 -0.35313692716E+03  0.35313692716E+03  0.00000000000E+00 0.  1.
         25    2    1    2    0    0 -0.38226175008E+03  0.10550449898E+03 -0.47698813105E+02  0.41854289085E+03  0.12509088628E+03 0.  0.
         23    2    1    2    0    0  0.38226175008E+03 -0.10550449898E+03  0.22453997141E+03  0.46457212178E+03  0.90298464476E+02 0.  0.
          5    1    3    3  502    0 -0.16593703082E+03  0.10320865629E+03 -0.51505348052E+02  0.20213213056E+03  0.41800000000E+01 0. -1.
         -5    1    3    3    0  502 -0.21632471927E+03  0.22958426902E+01  0.38065349465E+01  0.21641076029E+03  0.41800000000E+01 0. -1.
        -11    1    4    4    0    0  0.39493609909E+02 -0.35721837940E+02  0.52404139630E+02  0.74712708288E+02  0.00000000000E+00 0. -1.
         11    1    4    4    0    0  0.34276814018E+03 -0.69782661037E+02  0.17213583178E+03  0.38985941349E+03  0.00000000000E+00 0.  1.
</event>
<event>
 8    1  0.6635152E-009  0.1032340E+03  0.7561462E-02  0.1273639E+00
          1   -1    0    0  501    0  0.00000000000E+00  0.00000000000E+00  0.89835826823E+02  0.89835826823E+02  0.00000000000E+00 0. -1.
         -1   -1    0    0    0  501 -0.00000000000E+00 -0.00000000000E+00 -0.15238838366E+03  0.15238838366E+03  0.00000000000E+00 0.  1.
         25    2    1    2    0    0 -0.25658965241E+01 -0.44119254772E+02 -0.24029710581E+02  0.13482313302E+03  0.12508700068E+03 0.  0.
         23    2    1    2    0    0  0.25658965241E+01  0.44119254772E+02 -0.38522846252E+02  0.10740107746E+03  0.89988273071E+02 0.  0.
          5    1    3    3  502    0  0.10632308262E+02  0.38034887316E+02 -0.32177441632E+02  0.51113195773E+02  0.41800000000E+01 0.  1.
         -5    1    3    3    0  502 -0.13198204786E+02 -0.82154142088E+02  0.81477310510E+01  0.83709937242E+02  0.41800000000E+01 0.  1.
        -11    1    4    4    0    0  0.32484028560E+02  0.42482992600E+02 -0.51958823055E+02  0.74563637686E+02  0.00000000000E+00 0.  1.
         11    1    4    4    0    0 -0.29918132036E+02  0.16362621724E+01  0.13435976803E+02  0.32837439777E+02  0.00000000000E+00 0. -1.
</event>
<event>
 8    1  0.6635152E-009  0.9040636E+02  0.7561462E-02  0.1301871E+00
          2   -1    0    0  501    0  0.00000000000E+00  0.00000000000E+00  0.25718843307E+03  0.25718843307E+03  0.00000000000E+00 0. -1.
         -2   -1    0    0    0  501 -0.00000000000E+00 -0.00000000000E+00 -0.72577530200E+02  0.72577530200E+02  0.00000000000E+00 0.  1.
         25    2    1    2    0    0  0.65353671484E+02 -0.14527903926E+02  0.41485335566E+02  0.14781900807E+03  0.12508902314E+03 0.  0.
         23    2    1    2    0    0 -0.65353671484E+02  0.14527903926E+02  0.14312556730E+03  0.18194695520E+03  0.90208669884E+02 0.  0.
          5    1    3    3  502    0 -0.10159599114E+02  0.61091251125E+01  0.64818624119E+02  0.66026247027E+02  0.41800000000E+01 0.  1.
         -5    1    3    3    0  502  0.75513270597E+02 -0.20637029039E+02 -0.23333288553E+02  0.81792761040E+02  0.41800000000E+01 0.  1.
        -11    1    4    4    0    0 -0.51864954223E+02  0.36950535568E+02  0.14214906513E+03  0.15576158792E+03  0.00000000000E+00 0. -1.
         11    1    4    4    0    0 -0.13488717261E+02 -0.22422631642E+02  0.97650217626E+00  0.26185367280E+02  0.00000000000E+00 0.  1.
</event>
<event>
 8    1  0.6635152E-009  0.1195924E+03  0.7561462E-02  0.1243771E+00
          1   -1    0    0  501    0  0.00000000000E+00  0.00000000000E+00  0.31454422728E+03  0.31454422728E+03  0.00000000000E+00 0. -1.
         -1   -1    0    0    0  501 -0.00000000000E+00 -0.00000000000E+00 -0.62883233886E+02  0.62883233886E+02  0.00000000000E+00 0.  1.
         25    2    1    2    0    0  0.74989087268E+02 -0.24247786206E+02  0.17644176932E+03  0.23019422328E+03  0.12508542730E+03 0.  0.
         23    2    1    2    0    0 -0.74989087268E+02  0.24247786206E+02  0.75219224076E+02  0.14723323789E+03  0.99037247161E+02 0.  0.
          5    1    3    3  502    0 -0.21825616237E+02 -0.34292929382E+02  0.19040769476E+02  0.45081990106E+02  0.41800000000E+01 0.  1.
         -5    1    3    3    0  502  0.96814703505E+02  0.10045143175E+02  0.15740099985E+03  0.18511223317E+03  0.41800000000E+01 0.  1.
        -11    1    4    4    0    0 -0.50617437891E+02  0.45875154377E+02  0.88711696070E+02  0.11196615483E+03  0.00000000000E+00 0. -1.
         11    1    4    4    0    0 -0.24371649377E+02 -0.21627368171E+02 -0.13492471995E+02  0.35267083064E+02  0.00000000000E+00 0.  1.
</event>
<event>
 8    1  0.6635152E-009  0.1637831E+03  0.7561462E-02  0.1184491E+00
          1   -1    0    0  501    0  0.00000000000E+00  0.00000000000E+00  0.39036592422E+03  0.39036592422E+03  0.00000000000E+00 0. -1.
         -1   -1    0    0    0  501 -0.00000000000E+00 -0.00000000000E+00 -0.98670832008E+02  0.98670832008E+02  0.00000000000E+00 0.  1.
         25    2    1    2    0    0  0.11510114600E+03 -0.63432992001E+02  0.32171562068E+02  0.18426894266E+03  0.12509202827E+03 0.  0.
         23    2    1    2    0    0 -0.11510114600E+03  0.63432992001E+02  0.25952353014E+03  0.30476781357E+03  0.90878705992E+02 0.  0.
          5    1    3    3  502    0 -0.23345428526E+02 -0.92707676876E+01 -0.13328657468E+02  0.28741636635E+02  0.41800000000E+01 0.  1.
         -5    1    3    3    0  502  0.13844657453E+03 -0.54162224313E+02  0.45500219536E+02  0.15552730602E+03  0.41800000000E+01 0.  1.
        -11    1    4    4    0    0 -0.82591526823E+02  0.81629107473E+02  0.15409696638E+03  0.19295218718E+03  0.00000000000E+00 0.  1.
         11    1    4    4    0    0 -0.32509619180E+02 -0.18196115472E+02  0.10542656376E+03  0.11181562639E+03  0.00000000000E+00 0. -1.
</event>
<event>
 8    1  0.6635152E-009  0.1331088E+03  0.7561462E-02  0.1222914E+00
         -1   -1    0    0    0  501 -0.00000000000E+00  0.00000000000E+00  0.67031899924E+02  0.67031899924E+02  0.00000000000E+00 0.  1.
          1   -1    0    0  501    0  0.00000000000E+00 -0.00000000000E+00 -0.36620250681E+03  0.36620250681E+03  0.00000000000E+00 0. -1.
         25    2    1    2    0    0 -0.21905452203E+02 -0.10045386363E+03 -0.11302090845E+03  0.19746373722E+03  0.12508946484E+03 0.  0.
         23    2    1    2    0    0  0.21905452203E+02  0.10045386363E+03 -0.18614969844E+03  0.23577066952E+03  0.10180997408E+03 0.  0.
          5    1    3    3  502    0 -0.44237325383E+02 -0.97109291734E+02 -0.29426711916E+02  0.11077255649E+03  0.41800000000E+01 0.  1.
         -5    1    3    3    0  502  0.22331873179E+02 -0.33445718952E+01 -0.83594196537E+02  0.86691180725E+02  0.41800000000E+01 0.  1.
        -11    1    4    4    0    0  0.13856834870E+02 -0.15176229460E+02 -0.64704601983E+02  0.67889729202E+02  0.00000000000E+00 0. -1.
         11    1    4    4    0    0  0.80486173329E+01  0.11563009309E+03 -0.12144509645E+03  0.16788094032E+03  0.00000000000E+00 0.  1.
</event>
<event>
 7    1  0.6635152E-009  0.9392088E+02  0.7561462E-02  0.1293625E+00
         -2   -1    0    0    0  501 -0.00000000000E+00  0.00000000000E+00  0.76764849615E+02  0.76764849615E+02  0.00000000000E+00 0.  1.
          2   -1    0    0  501    0  0.00000000000E+00 -0.00000000000E+00 -0.26915456414E+03  0.26915456414E+03  0.00000000000E+00 0. -1.
         23    2    1    2    0    0 -0.56569785172E+02  0.59409508701E+02 -0.14648601626E+03  0.18962834535E+03  0.88153990728E+02 0.  0.
          5    1    1    2  502    0 -0.33398325538E+01 -0.27730686157E+02 -0.76700526185E+02  0.81734867426E+02  0.41800000000E+01 0.  1.
         -5    1    1    2    0  502  0.59909617726E+02 -0.31678822544E+02  0.30796827923E+02  0.74556200976E+02  0.41800000000E+01 0.  1.
        -11    1    3    3    0    0 -0.38074137025E+01  0.32034699237E+02 -0.12052054566E+03  0.12476345731E+03  0.00000000000E+00 0. -1.
         11    1    3    3    0    0 -0.52762371470E+02  0.27374809464E+02 -0.25965470598E+02  0.64864888034E+02  0.00000000000E+00 0.  1.
</event>
<event>
 8    1  0.6635152E-009  0.1132913E+03  0.7561462E-02  0.1254593E+00
         -1   -1    0    0    0  501 -0.00000000000E+00  0.00000000000E+00  0.41669039854E+02  0.41669039854E+02  0.00000000000E+00 0. -1.
          1   -1    0    0  501    0  0.00000000000E+00 -0.00000000000E+00 -0.39968780517E+03  0.39968780517E+03  0.00000000000E+00 0.  1.
         25    2    1    2    0    0 -0.18981159643E+02 -0.60138726665E+02 -0.28192868835E+03  0.31481423952E+03  0.12508904517E+03 0.  0.
         23    2    1    2    0    0  0.18981159643E+02  0.60138726665E+02 -0.76090076962E+02  0.12654260550E+03  0.79034045380E+02 0.  0.
          5    1    3    3  502    0 -0.54439031535E+02  0.12778836149E+01 -0.19524363455E+03  0.20273823116E+03  0.41800000000E+01 0.  1.
         -5    1    3    3    0  502  0.35457871892E+02 -0.61416610279E+02 -0.86685053800E+02  0.11207600836E+03  0.41800000000E+01 0.  1.
        -11    1    4    4    0    0 -0.30594065009E+02  0.15874294335E+02 -0.29632235058E+02  0.45453926001E+02  0.00000000000E+00 0.  1.
         11    1    4    4    0    0  0.49575224653E+02  0.44264432330E+02 -0.46457841904E+02  0.81088679501E+02  0.00000000000E+00 0. -1.
</event>
<event>
 8    1  0.6635152E-009  0.1211449E+03  0.7561462E-02  0.1241220E+00
          2   -1    0    0  501    0  0.00000000000E+00  0.00000000000E+00  0.34981292182E+03  0.34981292182E+03  0.00000000000E+00 0. -1.
         -2   -1    0    0    0  501 -0.00000000000E+00 -0.00000000000E+00 -0.78446632491E+02  0.78446632491E+02  0.00000000000E+00 0.  1.
         25    2    1    2    0    0  0.28757014249E+02  0.81207535033E+02  0.27834140262E+02  0.15441144550E+03  0.12508607246E+03 0.  0.
         23    2    1    2    0    0 -0.28757014249E+02 -0.81207535033E+02  0.24353214906E+03  0.27384810881E+03  0.90902417213E+02 0.  0.
          5    1    3    3  502    0  0.54595203839E+02  0.33184735221E+02 -0.33477973621E+02  0.72250329077E+02  0.41800000000E+01 0.  1.
         -5    1    3    3    0  502 -0.25838189590E+02  0.48022799812E+02  0.61312113883E+02  0.82161116423E+02  0.41800000000E+01 0.  1.
        -11    1    4    4    0    0  0.14594049832E+02 -0.78814301900E+02  0.17830209318E+03  0.19548994068E+03  0.00000000000E+00 0. -1.
         11    1    4    4    0    0 -0.43351064080E+02 -0.23932331334E+01  0.65230055879E+02  0.78358168124E+02  0.00000000000E+00 0.  1.
</event>
<event>
 8    1  0.6635152E-009  0.1152942E+03  0.7561462E-02  0.1251068E+00
         -1   -1    0    0    0  501 -0.00000000000E+00  0.00000000000E+00  0.67991098553E+03  0.67991098553E+03  0.00000000000E+00 0.  1.
          1   -1    0    0  501    0  0.00000000000E+00 -0.00000000000E+00 -0.45210098203E+02  0.45210098203E+02  0.00000000000E+00 0. -1.
         25    2    1    2    0    0 -0.41086267081E+02 -0.95087808197E+02  0.52389187457E+03  0.54848120012E+03  0.12505661934E+03 0.  0.
         23    2    1    2    0    0  0.41086267081E+02  0.95087808197E+02  0.11080901276E+03  0.17663988361E+03  0.90516509894E+02 0.  0.
          5    1    3    3  502    0 -0.41209720462E+02 -0.92741302370E+02  0.53060067020E+03  0.54023488766E+03  0.41800000000E+01 0. -1.
         -5    1    3    3    0  502  0.12345338074E+00 -0.23465058274E+01 -0.67087956357E+01  0.82463124617E+01  0.41800000000E+01 0. -1.
        -11    1    4    4    0    0  0.56953259844E+02  0.91778655858E+02  0.11704914635E+03  0.15927177446E+03  0.00000000000E+00 0.  1.
         11    1    4    4    0    0 -0.15866992763E+02  0.33091523389E+01 -0.62401335845E+01  0.17368109157E+02  0.00000000000E+00 0. -1.
</event>
<event>
 8    1  0.6635152E-009  0.1105543E+03  0.7561462E-02  0.1259547E+00
         -2   -1    0    0    0  501 -0.00000000000E+00  0.00000000000E+00  0.13341316770E+03  0.13341316770E+03  0.00000000000E+00 0.  1.
          2   -1    0    0  501    0  0.00000000000E+00 -0.00000000000E+00 -0.13403244331E+03  0.13403244331E+03  0.00000000000E+00 0. -1.
         25    2    1    2    0    0  0.52788992691E+01 -0.67180414339E+02 -0.41098596631E+02  0.14791515878E+03  0.12509486282E+03 0.  0.
         23    2    1    2    0    0 -0.52788992691E+01  0.67180414339E+02  0.40479321024E+02  0.11953045223E+03  0.90043760098E+02 0.  0.
          5    1    3    3  502    0 -0.20695092637E+02 -0.79386794275E+02  0.16169014202E+02  0.83722514205E+02  0.41800000000E+01 0.  1.
         -5    1    3    3    0  502  0.25973991906E+02  0.12206379936E+02 -0.57267610833E+02  0.64192644573E+02  0.41800000000E+01 0.  1.
        -11    1    4    4    0    0  0.26654170610E+00 -0.21302290483E+02  0.18439288519E+02  0.28175627507E+02  0.00000000000E+00 0.  1.
         11    1    4    4    0    0 -0.55454409752E+01  0.88482704822E+02  0.22040032504E+02  0.91354824728E+02  0.00000000000E+00 0. -1.
</event>
<event>
 8    1  0.6635152E-009  0.1321477E+03  0.7561462E-02  0.1224303E+00
         -3   -1    0    0    0  501 -0.00000000000E+00  0.00000000000E+00  0.57277103660E+02  0.57277103660E+02  0.00000000000E+00 0.  1.
          3   -1    0    0  501    0  0.00000000000E+00 -0.00000000000E+00 -0.54389666980E+03  0.54389666980E+03  0.00000000000E+00 0. -1.
         25    2    1    2    0    0 -0.71600562395E+02 -0.81749990200E+02 -0.11623120132E+03  0.20240400639E+03  0.12509191905E+03 0.  0.
         23    2    1    2    0    0  0.71600562395E+02  0.81749990200E+02 -0.37038836482E+03  0.39876976707E+03  0.10010037411E+03 0.  0.
          5    1    3    3  502    0 -0.53920110906E+02 -0.29822771331E+02  0.11959758265E+02  0.62906949280E+02  0.41800000000E+01 0. -1.
         -5    1    3    3    0  502 -0.17680451489E+02 -0.51927218869E+02 -0.12819095958E+03  0.13949705711E+03  0.41800000000E+01 0. -1.
        -11    1    4    4    0    0  0.79884028886E+02  0.16274924640E+02 -0.19363924903E+03  0.21010114233E+03  0.00000000000E+00 0.  1.
         11    1    4    4    0    0 -0.82834664907E+01  0.65475065560E+02 -0.17674911579E+03  0.18866862473E+03  0.00000000000E+00 0. -1.
</event>
<event>
 8    1  0.6635152E-009  0.5892013E+02  0.7561462E-02  0.1402420E+00
          2   -1    0    0  501    0  0.00000000000E+00  0.00000000000E+00  0.83413260766E+03  0.83413260766E+03  0.00000000000E+00 0. -1.
         -2   -1    0    0    0  501 -0.00000000000E+00 -0.00000000000E+00 -0.14441963261E+02  0.14441963261E+02  0.00000000000E+00 0.  1.
         25    2    1    2    0    0 -0.18793808700E+02  0.50601674716E+00  0.49142069627E+03  0.50743826591E+03  0.12508329101E+03 0.  0.
         23    2    1    2    0    0  0.18793808700E+02 -0.50601674716E+00  0.32826994813E+03  0.34113630501E+03  0.90881001603E+02 0.  0.
          5    1    3    3  502    0 -0.15133750685E+02 -0.74797186472E+01  0.15379470790E+01  0.17458931297E+02  0.41800000000E+01 0. -1.
         -5    1    3    3    0  502 -0.36600580156E+01  0.79857353944E+01  0.48988274919E+03  0.48997933462E+03  0.41800000000E+01 0. -1.
        -11    1    4    4    0    0 -0.17471007296E+02 -0.35975828690E+02  0.10987210265E+03  0.11692465645E+03  0.00000000000E+00 0.  1.
         11    1    4    4    0    0  0.36264815997E+02  0.35469811942E+02  0.21839784548E+03  0.22421164856E+03  0.00000000000E+00 0. -1.
</event>
<event>
 8    1  0.6635152E-009  0.1442956E+03  0.7561462E-02  0.1207663E+00
          1   -1    0    0  501    0  0.00000000000E+00  0.00000000000E+00  0.64670794237E+03  0.64670794237E+03  0.00000000000E+00 0. -1.
         -1   -1    0    0    0  501 -0.00000000000E+00 -0.00000000000E+00 -0.42506484059E+02  0.42506484059E+02  0.00000000000E+00 0.  1.
         25    2    1    2    0    0 -0.11833000571E+03 -0.25818690187E+02  0.25919798202E+03  0.31224904887E+03  0.12508908673E+03 0.  0.
         23    2    1    2    0    0  0.11833000571E+03  0.25818690187E+02  0.34500347629E+03  0.37696537756E+03  0.91689160846E+02 0.  0.
          5    1    3    3  502    0 -0.25977267712E+02  0.21225384674E+02  0.17616776028E+03  0.17938195995E+03  0.41800000000E+01 0. -1.
         -5    1    3    3    0  502 -0.92352737997E+02 -0.47044074861E+02  0.83030221746E+02  0.13286708892E+03  0.41800000000E+01 0. -1.
        -11    1    4    4    0    0  0.12533936029E+03  0.42992673421E+02  0.31434614993E+03  0.34113315169E+03  0.00000000000E+00 0.  1.
         11    1    4    4    0    0 -0.70093545776E+01 -0.17173983235E+02  0.30657326357E+02  0.35832225874E+02  0.00000000000E+00 0. -1.
</event>
<event>
 8    1  0.6635152E-009  0.7978101E+02  0.7561462E-02  0.1329674E+00
         -2   -1    0    0    0  501 -0.00000000000E+00  0.00000000000E+00  0.11429082351E+03  0.11429082351E+03  0.00000000000E+00 0.  1.
          2   -1    0    0  501    0  0.00000000000E+00 -0.00000000000E+00 -0.25260891882E+03  0.25260891882E+03  0.00000000000E+00 0. -1.
         25    2    1    2    0    0  0.27372160509E+01 -0.28784312040E+02 -0.21128713271E+03  0.24723776221E+03  0.12509288407E+03 0.  0.
         23    2    1    2    0    0 -0.27372160509E+01  0.28784312040E+02  0.72969037394E+02  0.11966198012E+03  0.90324305129E+02 0.  0.
          5    1    3    3  502    0 -0.36629787062E+02  0.19138202320E+02 -0.19996953227E+02  0.46101655357E+02  0.41800000000E+01 0.  1.
         -5    1    3    3    0  502  0.39367003113E+02 -0.47922514360E+02 -0.19129017948E+03  0.20113610686E+03  0.41800000000E+01 0.  1.
        -11    1    4    4    0    0 -0.17439466471E+02 -0.57232234265E+01  0.79497673640E+02  0.81589033524E+02  0.00000000000E+00 0.  1.
         11    1    4    4    0    0  0.14702250420E+02  0.34507535467E+02 -0.65286362459E+01  0.38072946598E+02  0.00000000000E+00 0. -1.
</event>
<event>
 8    1  0.6635152E-009  0.2399235E+03  0.7561462E-02  0.1119844E+00
          2   -1    0    0  501    0  0.00000000000E+00  0.00000000000E+00  0.56301448552E+03  0.56301448552E+03  0.00000000000E+00 0. -1.
         -2   -1    0    0    0  501 -0.00000000000E+00 -0.00000000000E+00 -0.11473534571E+03  0.11473534571E+03  0.00000000000E+00 0.  1.
         25    2    1    2    0    0  0.37198366654E+02 -0.21846161723E+03  0.30886466462E+03  0.40021003063E+03  0.12514587838E+03 0.  0.
         23    2    1    2    0    0 -0.37198366654E+02  0.21846161723E+03  0.13941447518E+03  0.27753980060E+03  0.92101836816E+02 0.  0.
          5    1    3    3  502    0 -0.31336281531E+02 -0.59274077494E+02  0.15293163512E+03  0.16703573338E+03  0.41800000000E+01 0. -1.
         -5    1    3    3    0  502  0.68534648185E+02 -0.15918753974E+03  0.15593302950E+03  0.23317429725E+03  0.41800000000E+01 0. -1.
        -11    1    4    4    0    0  0.43921577946E+01  0.18726052912E+03  0.10029247403E+03  0.21247206208E+03  0.00000000000E+00 0.  1.
         11    1    4    4    0    0 -0.41590524448E+02  0.31201088112E+02  0.39122001142E+02  0.65067738524E+02  0.00000000000E+00 0. -1.
</event>
<event>
 8    1  0.6635152E-009  0.1203449E+03  0.7561462E-02  0.1242529E+00
          1   -1    0    0  501    0  0.00000000000E+00  0.00000000000E+00  0.22106352712E+02  0.22106352712E+02  0.00000000000E+00 0. -1.
         -1   -1    0    0    0  501 -0.00000000000E+00 -0.00000000000E+00 -0.89506168707E+03  0.89506168707E+03  0.00000000000E+00 0.  1.
         25    2    1    2    0    0 -0.82285364713E+02 -0.22755485139E+02 -0.55748635766E+03  0.57769123621E+03  0.12508969608E+03 0.  0.
         23    2    1    2    0    0  0.82285364713E+02  0.22755485139E+02 -0.31546897669E+03  0.33947680357E+03  0.91842972273E+02 0.  0.
          5    1    3    3  502    0 -0.98943427412E+02  0.35011826837E+01 -0.25492327205E+03  0.27350577168E+03  0.41800000000E+01 0.  1.
         -5    1    3    3    0  502  0.16658062699E+02 -0.26256667823E+02 -0.30256308561E+03  0.30418546453E+03  0.41800000000E+01 0.  1.
        -11    1    4    4    0    0  0.92677977192E+02  0.30158758356E+02 -0.31106903743E+03  0.32597960705E+03  0.00000000000E+00 0.  1.
         11    1    4    4    0    0 -0.10392612479E+02 -0.74032732174E+01 -0.43999392633E+01  0.13497196524E+02  0.00000000000E+00 0. -1.
</event>
<event>
 8    1  0.6635152E-009  0.1219422E+03  0.7561462E-02  0.1239927E+00
         -2   -1    0    0    0  501 -0.00000000000E+00  0.00000000000E+00  0.14852361948E+03  0.14852361948E+03  0.00000000000E+00 0. -1.
          2   -1    0    0  501    0  0.00000000000E+00 -0.00000000000E+00 -0.21879821008E+03  0.21879821008E+03  0.00000000000E+00 0.  1.
         25    2    1    2    0    0  0.76693828599E+02  0.48597046304E+02  0.76819276754E+02  0.17259537536E+03  0.12507736030E+03 0.  0.
         23    2    1    2    0    0 -0.76693828599E+02 -0.48597046304E+02 -0.14709386735E+03  0.19472645420E+03  0.89655841406E+02 0.  0.
          5    1    3    3  502    0  0.10983678329E+02 -0.19096068485E+02 -0.25096889408E+02  0.33654528361E+02  0.41800000000E+01 0. -1.
         -5    1    3    3    0  502  0.65710150271E+02  0.67693114789E+02  0.10191616616E+03  0.13894084699E+03  0.41800000000E+01 0. -1.
        -11    1    4    4    0    0 -0.94857052078E+02 -0.26628641925E+02 -0.12142024686E+03  0.15636438612E+03  0.00000000000E+00 0.  1.
         11    1    4    4    0    0  0.18163223479E+02 -0.21968404379E+02 -0.25673620493E+02  0.38362068079E+02  0.00000000000E+00 0. -1.
</event>
<event>
 8    1  0.6635152E-009  0.8410653E+02  0.7561462E-02  0.1317786E+00
         -1   -1    0    0    0  501 -0.00000000000E+00  0.00000000000E+00  0.18574702982E+03  0.18574702982E+03  0.00000000000E+00 0. -1.
          1   -1    0    0  501    0  0.00000000000E+00 -0.00000000000E+00 -0.73243527685E+02  0.73243527685E+02  0.00000000000E+00 0.  1.
         25    2    1    2    0    0 -0.63499559304E+01 -0.18592401907E+02  0.10512079715E+03  0.16457063834E+03  0.12508842337E+03 0.  0.
         23    2    1    2    0    0  0.63499559304E+01  0.18592401907E+02  0.73827049920E+01  0.94419919172E+02  0.92057685472E+02 0.  0.
          5    1    3    3  502    0  0.42007381520E+02 -0.15375679143E+02  0.10683379787E+03  0.11589635188E+03  0.41800000000E+01 0. -1.
         -5    1    3    3    0  502 -0.48357337450E+02 -0.32167227641E+01 -0.17130007247E+01  0.48674286457E+02  0.41800000000E+01 0. -1.
        -11    1    4    4    0    0 -0.32057906939E+02  0.20450615620E+00  0.31948089099E+02  0.45259602486E+02  0.00000000000E+00 0. -1.
         11    1    4    4    0    0  0.38407862870E+02  0.18387895751E+02 -0.24565384107E+02  0.49160316686E+02  0.00000000000E+00 0.  1.
</event>
<event>
 8    1  0.6635152E-009  0.1211711E+03  0.7561462E-02  0.1241177E+00
         -1   -1    0    0    0  501 -0.00000000000E+00  0.00000000000E+00  0.55766186184E+02  0.55766186184E+02  0.00000000000E+00 0.  1.
          1   -1    0    0  501    0  0.00000000000E+00 -0.00000000000E+00 -0.38939424287E+03  0.38939424287E+03  0.00000000000E+00 0. -1.
         25    2    1    2    0    0  0.14748547109E+02  0.88825922577E+02 -0.24825889526E+03  0.29221159669E+03  0.12509026341E+03 0.  0.
         23    2    1    2    0    0 -0.14748547109E+02 -0.88825922577E+02 -0.85369161424E+02  0.15294883236E+03  0.89430908727E+02 0.  0.
          5    1    3    3  502    0 -0.96840564083E+01 -0.28837507969E+02 -0.77515837509E+02  0.83376017409E+02  0.41800000000E+01 0. -1.
         -5    1    3    3    0  502  0.24432603517E+02  0.11766343055E+03 -0.17074305775E+03  0.20883557928E+03  0.41800000000E+01 0. -1.
        -11    1    4    4    0    0 -0.18101429240E+02 -0.72715737113E+02 -0.10394044455E+03  0.12813608461E+03  0.00000000000E+00 0. -1.
         11    1    4    4    0    0  0.33528821314E+01 -0.16110185464E+02  0.18571283128E+02  0.24812747758E+02  0.00000000000E+00 0.  1.
</event>
<event>
 8    1  0.6635152E-009  0.1629855E+03  0.7561462E-02  0.1185367E+00
          1   -1    0    0  501    0  0.00000000000E+00  0.00000000000E+00  0.58675993971E+03  0.58675993971E+03  0.00000000000E+00 0. -1.
         -1   -1    0    0    0  501 -0.00000000000E+00 -0.00000000000E+00 -0.64254460050E+02  0.64254460050E+02  0.00000000000E+00 0.  1.
         25    2    1    2    0    0 -0.82623110493E+02  0.11853487772E+03  0.37680040918E+03  0.42249637802E+03  0.12509014932E+03 0.  0.
         23    2    1    2    0    0  0.82623110493E+02 -0.11853487772E+03  0.14570507047E+03  0.22851802173E+03  0.10056551631E+03 0.  0.
          5    1    3    3  502    0 -0.13656945055E+02 -0.17139906648E+02  0.83408753295E+01  0.23818714268E+02  0.41800000000E+01 0.  1.
         -5    1    3    3    0  502 -0.68966165438E+02  0.13567478437E+03  0.36845953385E+03  0.39867766375E+03  0.41800000000E+01 0.  1.
        -11    1    4    4    0    0  0.12454813388E+02 -0.56151670182E+02  0.28700543016E+01  0.57587929746E+02  0.00000000000E+00 0.  1.
         11    1    4    4    0    0  0.70168297105E+02 -0.62383207540E+02  0.14283501617E+03  0.17093009199E+03  0.00000000000E+00 0. -1.
</event>
<event>
 8    1  0.6635152E-009  0.1163085E+03  0.7561462E-02  0.1249314E+00
          2   -1    0    0  501    0  0.00000000000E+00  0.00000000000E+00  0.95757025316E+03  0.95757025316E+03  0.00000000000E+00 0. -1.
         -2   -1    0    0    0  501 -0.00000000000E+00 -0.00000000000E+00 -0.18962141884E+02  0.18962141884E+02  0.00000000000E+00 0.  1.
         25    2    1    2    0    0 -0.31198342608E+02 -0.54114715573E+02  0.70533627574E+03  0.71906151788E+03  0.12509382717E+03 0.  0.
         23    2    1    2    0    0  0.31198342608E+02  0.54114715573E+02  0.23327183554E+03  0.25747087717E+03  0.89295936699E+02 0.  0.
          5    1    3    3  502    0  0.46389931561E+02 -0.36744320210E+02  0.26203361513E+03  0.26866570060E+03  0.41800000000E+01 0.  1.
         -5    1    3    3    0  502 -0.77588274169E+02 -0.17370395364E+02  0.44330266061E+03  0.45039581728E+03  0.41800000000E+01 0.  1.
        -11    1    4    4    0    0  0.57318479556E-01  0.61635320241E+02  0.80554431286E+02  0.10142944536E+03  0.00000000000E+00 0.  1.
         11    1    4    4    0    0  0.31141024128E+02 -0.75206046677E+01  0.15271740425E+03  0.15604143181E+03  0.00000000000E+00 0. -1.
</event>
<event>
 8    1  0.6635152E-009  0.1011500E+03  0.7561462E-02  0.1277896E+00
          2   -1    0    0  501    0  0.00000000000E+00  0.00000000000E+00  0.70184669855E+03  0.70184669855E+03  0.00000000000E+00 0. -1.
         -2   -1    0    0    0  501 -0.00000000000E+00 -0.00000000000E+00 -0.19795166169E+02  0.19795166169E+02  0.00000000000E+00 0.  1.
         25    2    1    2    0    0 -0.22242866276E+02 -0.32184643680E+02  0.46217538772E+03  0.48039872431E+03  0.12508496677E+03 0.  0.
         23    2    1    2    0    0  0.22242866276E+02  0.32184643680E+02  0.21987614466E+03  0.24124314042E+03  0.91225749748E+02 0.  0.
          5    1    3    3  502    0 -0.65115783822E+01  0.40794161048E+02  0.71924131977E+02  0.83048885539E+02  0.41800000000E+01 0.  1.
         -5    1    3    3    0  502 -0.15731287894E+02 -0.72978804728E+02  0.39025125574E+03  0.39734983877E+03  0.41800000000E+01 0.  1.
        -11    1    4    4    0    0  0.12600253930E+02 -0.25009940641E+02  0.13855341081E+03  0.14135526583E+03  0.00000000000E+00 0. -1.
         11    1    4    4    0    0  0.96426123455E+01  0.57194584321E+02  0.81322733850E+02  0.99887874586E+02  0.00000000000E+00 0.  1.
</event>
<event>
 8    1  0.6635152E-009  0.1002476E+03  0.7561462E-02  0.1279776E+00
          1   -1    0    0  501    0  0.00000000000E+00  0.00000000000E+00  0.36289038688E+03  0.36289038688E+03  0.00000000000E+00 0. -1.
         -1   -1    0    0    0  501 -0.00000000000E+00 -0.00000000000E+00 -0.34857913370E+02  0.34857913370E+02  0.00000000000E+00 0.  1.
         25    2    1    2    0    0 -0.12282393995E+02 -0.23996557087E+02  0.16183539567E+03  0.20631397747E+03  0.12509224618E+03 0.  0.
         23    2    1    2    0    0  0.12282393995E+02  0.23996557087E+02  0.16619707784E+03  0.19143432278E+03  0.91098514262E+02 0.  0.
          5    1    3    3  502    0 -0.35089880266E+02 -0.68877665625E+02  0.10021346722E+03  0.12663192304E+03  0.41800000000E+01 0. -1.
         -5    1    3    3    0  502  0.22807486271E+02  0.44881108538E+02  0.61621928446E+02  0.79682054435E+02  0.41800000000E+01 0. -1.
        -11    1    4    4    0    0  0.40277163691E+02  0.16935184202E+02  0.31976833774E+02  0.54143958824E+02  0.00000000000E+00 0.  1.
         11    1    4    4    0    0 -0.27994769697E+02  0.70613728853E+01  0.13422024407E+03  0.13729036395E+03  0.00000000000E+00 0. -1.
</event>
<event>
 8    1  0.6635152E-009  0.1019509E+03  0.7561462E-02  0.1276246E+00
         -1   -1    0    0    0  501 -0.00000000000E+00  0.00000000000E+00  0.36859621507E+03  0.36859621507E+03  0.00000000000E+00 0.  1.
          1   -1    0    0  501    0  0.00000000000E+00 -0.00000000000E+00 -0.49728222098E+02  0.49728222098E+02  0.00000000000E+00 0. -1.
         25    2    1    2    0    0  0.19448119248E+02 -0.80021355919E+02  0.15768834151E+03  0.21747420116E+03  0.12509104035E+03 0.  0.
         23    2    1    2    0    0 -0.19448119248E+02  0.80021355919E+02  0.16117965147E+03  0.20085023601E+03  0.87064863833E+02 0.  0.
          5    1    3    3  502    0  0.22171247381E+02 -0.59011105762E+01 -0.16191006949E+02  0.28390287468E+02  0.41800000000E+01 0.  1.
         -5    1    3    3    0  502 -0.27231281329E+01 -0.74120245343E+02  0.17387934846E+03  0.18908391369E+03  0.41800000000E+01 0.  1.
        -11    1    4    4    0    0  0.27978896812E+01  0.83698455509E+02  0.77211183029E+02  0.11390709559E+03  0.00000000000E+00 0. -1.
         11    1    4    4    0    0 -0.22246008930E+02 -0.36770995900E+01  0.83968468439E+02  0.86943140423E+02  0.00000000000E+00 0.  1.
</event>
<event>
 8    1  0.6635152E-009  0.1326374E+03  0.7561462E-02  0.1223594E+00
         -2   -1    0    0    0  501 -0.00000000000E+00  0.00000000000E+00  0.28373412895E+03  0.28373412895E+03  0.00000000000E+00 0.  1.
          2   -1    0    0  501    0  0.00000000000E+00 -0.00000000000E+00 -0.11043665581E+03  0.11043665581E+03  0.00000000000E+00 0. -1.
         25    2    1    2    0    0  0.94222750787E+02  0.66742006072E+02  0.39529902027E+01  0.17028088838E+03  0.12509009823E+03 0.  0.
         23    2    1    2    0    0 -0.94222750787E+02 -0.66742006072E+02  0.16934448293E+03  0.22388989639E+03  0.90092783637E+02 0.  0.
          5    1    3    3  502    0  0.90214070171E+02  0.78970627788E+02 -0.38284527187E+02  0.12592901148E+03  0.41800000000E+01 0. -1.
         -5    1    3    3    0  502  0.40086806159E+01 -0.12228621715E+02  0.42237517390E+02  0.44351876901E+02  0.41800000000E+01 0. -1.
        -11    1    4    4    0    0 -0.79120807765E+02 -0.18540828510E+02  0.14842972783E+03  0.16921952797E+03  0.00000000000E+00 0.  1.
         11    1    4    4    0    0 -0.15101943022E+02 -0.48201177562E+02  0.20914755101E+02  0.54670368413E+02  0.00000000000E+00 0. -1.
</event>
<event>
 8    1  0.6635152E-009  0.1130084E+03  0.7561462E-02  0.1255098E+00
          2   -1    0    0  501    0  0.00000000000E+00  0.00000000000E+00  0.49732979709E+03  0.49732979709E+03  0.00000000000E+00 0. -1.
         -2   -1    0    0    0  501 -0.00000000000E+00 -0.00000000000E+00 -0.30325072075E+02  0.30325072075E+02  0.00000000000E+00 0.  1.
         25    2    1    2    0    0  0.47716842412E+02  0.23579883692E+02  0.21522880193E+03  0.25455928612E+03  0.12507631673E+03 0.  0.
         23    2    1    2    0    0 -0.47716842412E+02 -0.23579883692E+02  0.25177592308E+03  0.27309558304E+03  0.91417580736E+02 0.  0.
          5    1    3    3  502    0  0.43473913534E+02  0.67924928857E+02  0.86782336583E+02  0.11854291822E+03  0.41800000000E+01 0.  1.
         -5    1    3    3    0  502  0.42429288780E+01 -0.44345045165E+02  0.12844646535E+03  0.13601636790E+03  0.41800000000E+01 0.  1.
        -11    1    4    4    0    0 -0.59447830332E+02  0.14064915392E+02  0.19201701453E+03  0.20150037282E+03  0.00000000000E+00 0. -1.
         11    1    4    4    0    0  0.11730987920E+02 -0.37644799084E+02  0.59758908554E+02  0.71595210225E+02  0.00000000000E+00 0.  1.
</event>
<event>
 8    1  0.6635152E-009  0.1031604E+03  0.7561462E-02  0.1273787E+00
          1   -1    0    0  501    0  0.00000000000E+00  0.00000000000E+00  0.10752309088E+03  0.10752309088E+03  0.00000000000E+00 0. -1.
         -1   -1    0    0    0  501 -0.00000000000E+00 -0.00000000000E+00 -0.21771827786E+03  0.21771827786E+03  0.00000000000E+00 0.  1.
         25    2    1    2    0    0 -0.86346233234E+02  0.47039768989E+02 -0.12643127999E+02  0.15961262404E+03  0.12509168321E+03 0.  0.
         23    2    1    2    0    0  0.86346233234E+02 -0.47039768989E+02 -0.97552058980E+02  0.16562874470E+03  0.90818858176E+02 0.  0.
          5    1    3    3  502    0 -0.22462077414E+02  0.11213000624E+02  0.54507751849E+02  0.60156826016E+02  0.41800000000E+01 0.  1.
         -5    1    3    3    0  502 -0.63884155820E+02  0.35826768365E+02 -0.67150879848E+02  0.99455798024E+02  0.41800000000E+01 0.  1.
        -11    1    4    4    0    0  0.22587750334E+02 -0.36439802453E+02  0.62731722109E+01  0.43329185979E+02  0.00000000000E+00 0. -1.
         11    1    4    4    0    0  0.63758482900E+02 -0.10599966536E+02 -0.10382523119E+03  0.12229955872E+03  0.00000000000E+00 0.  1.
</event>
<event>
 8    1  0.6635152E-009  0.1000619E+03  0.7561462E-02  0.1280166E+00
         -2   -1    0    0    0  501 -0.00000000000E+00  0.00000000000E+00  0.16731509830E+02  0.16731509830E+02  0.00000000000E+00 0.  1.
          2   -1    0    0  501    0  0.00000000000E+00 -0.00000000000E+00 -0.11527622782E+04  0.11527622782E+04  0.00000000000E+00 0. -1.
         25    2    1    2    0    0 -0.66111192559E+02  0.47769647240E+02 -0.76265736538E+03  0.77713980479E+03  0.12508952890E+03 0.  0.
         23    2    1    2    0    0  0.66111192559E+02 -0.47769647240E+02 -0.37337340295E+03  0.39235398320E+03  0.88776805101E+02 0.  0.
          5    1    3    3  502    0 -0.70338567632E+02  0.30566695543E+02 -0.20080839141E+03  0.21499609167E+03  0.41800000000E+01 0.  1.
         -5    1    3    3    0  502  0.42273750732E+01  0.17202951697E+02 -0.56184897397E+03  0.56214371312E+03  0.41800000000E+01 0.  1.
        -11    1    4    4    0    0 -0.46816594895E+01 -0.32318988987E+02 -0.42272724764E+02  0.53417396452E+02  0.00000000000E+00 0.  1.
         11    1    4    4    0    0  0.70792852048E+02 -0.15450658253E+02 -0.33110067819E+03  0.33893658675E+03  0.00000000000E+00 0. -1.
</event>
<event>
 8    1  0.6635152E-009  0.1817628E+03  0.7561462E-02  0.1166108E+00
         -1   -1    0    0    0  501 -0.00000000000E+00  0.00000000000E+00  0.21430132378E+03  0.21430132378E+03  0.00000000000E+00 0.  1.
          1   -1    0    0  501    0  0.00000000000E+00 -0.00000000000E+00 -0.15594261034E+03  0.15594261034E+03  0.00000000000E+00 0. -1.
         25    2    1    2    0    0  0.12472372118E+02 -0.14617189595E+03  0.35258370907E+02  0.19598925535E+03  0.12508737850E+03 0.  0.
         23    2    1    2    0    0 -0.12472372118E+02  0.14617189595E+03  0.23100342530E+02  0.17425467877E+03  0.91155274196E+02 0.  0.
          5    1    3    3  502    0  0.45454792357E+01 -0.16796957024E+03  0.37811216636E+02  0.17228348271E+03  0.41800000000E+01 0.  1.
         -5    1    3    3    0  502  0.79268928821E+01  0.21797674290E+02 -0.25528457293E+01  0.23705772642E+02  0.41800000000E+01 0.  1.
        -11    1    4    4    0    0 -0.33945441537E+02  0.12013263603E+02  0.11915891360E+02  0.37928880427E+02  0.00000000000E+00 0.  1.
         11    1    4    4    0    0  0.21473069420E+02  0.13415863235E+03  0.11184451170E+02  0.13632579834E+03  0.00000000000E+00 0. -1.
</event>
<event>
 8    1  0.6635152E-009  0.1183735E+03  0.7561462E-02  0.1245805E+00
          2   -1    0    0  501    0  0.00000000000E+00  0.00000000000E+00  0.11546983667E+04  0.11546983667E+04  0.00000000000E+00 0. -1.
         -2   -1    0    0    0  501 -0.00000000000E+00 -0.00000000000E+00 -0.15059781858E+02  0.15059781858E+02  0.00000000000E+00 0.  1.
         25    2    1    2    0    0  0.62866092284E+01 -0.77218521309E+02  0.57823757309E+03  0.59666430155E+03  0.12508947325E+03 0.  0.
         23    2    1    2    0    0 -0.62866092284E+01  0.77218521309E+02  0.56140101173E+03  0.57309384699E+03  0.85224644310E+02 0.  0.
          5    1    3    3  502    0  0.40434675310E+02 -0.78744283270E+02  0.22609024725E+03  0.24283718294E+03  0.41800000000E+01 0.  1.
         -5    1    3    3    0  502 -0.34148066081E+02  0.15257619618E+01  0.35214732584E+03  0.35382711861E+03  0.41800000000E+01 0.  1.
        -11    1    4    4    0    0 -0.30926479687E+02 -0.17434093984E+01  0.11527094021E+03  0.11936027932E+03  0.00000000000E+00 0. -1.
         11    1    4    4    0    0  0.24639870459E+02  0.78961930707E+02  0.44613007151E+03  0.45373356767E+03  0.00000000000E+00 0.  1.
</event>
<event>
 8    1  0.6635152E-009  0.1466204E+03  0.7561462E-02  0.1204688E+00
         -1   -1    0    0    0  501 -0.00000000000E+00  0.00000000000E+00  0.11371075073E+03  0.11371075073E+03  0.00000000000E+00 0.  1.
          1   -1    0    0  501    0  0.00000000000E+00 -0.00000000000E+00 -0.27776990126E+03  0.27776990126E+03  0.00000000000E+00 0. -1.
         25    2    1    2    0    0 -0.54836015647E+02  0.10632749994E+03 -0.16720578967E+03  0.24066053337E+03  0.12508872998E+03 0.  0.
         23    2    1    2    0    0  0.54836015647E+02 -0.10632749994E+03  0.31466391449E+01  0.15082011862E+03  0.91783881950E+02 0.  0.
          5    1    3    3  502    0 -0.35730441155E+02 -0.19800860741E+02 -0.19531013373E+02  0.45471654848E+02  0.41800000000E+01 0. -1.
         -5    1    3    3    0  502 -0.19105574492E+02  0.12612836069E+03 -0.14767477630E+03  0.19518887853E+03  0.41800000000E+01 0. -1.
        -11    1    4    4    0    0  0.55101371154E+01 -0.47290798829E+02  0.43021896778E+02  0.64169033555E+02  0.00000000000E+00 0.  1.
         11    1    4    4    0    0  0.49325878532E+02 -0.59036701116E+02 -0.39875257633E+02  0.86651085065E+02  0.00000000000E+00 0. -1.
</event>
<event>
 8    1  0.6635152E-009  0.1831612E+03  0.7561462E-02  0.1164778E+00
         -1   -1    0    0    0  501 -0.00000000000E+00  0.00000000000E+00  0.35114677357E+02  0.35114677357E+02  0.00000000000E+00 0. -1.
          1   -1    0    0  501    0  0.00000000000E+00 -0.00000000000E+00 -0.10289196825E+04  0.10289196825E+04  0.00000000000E+00 0.  1.
         25    2    1    2    0    0 -0.13002658576E+03  0.82364682961E+02 -0.58608797275E+03  0.61873799108E+03  0.12508691296E+03 0.  0.
         23    2    1    2    0    0  0.13002658576E+03 -0.82364682961E+02 -0.40771703235E+03  0.44529636874E+03  0.91459409247E+02 0.  0.
          5    1    3    3  502    0 -0.13187663257E+03  0.30724380771E+02 -0.50195444930E+03  0.51991458468E+03  0.41800000000E+01 0.  1.
         -5    1    3    3    0  502  0.18500468056E+01  0.51640302190E+02 -0.84133523455E+02  0.98823406399E+02  0.41800000000E+01 0.  1.
        -11    1    4    4    0    0  0.94637619446E+02 -0.59839693654E+01 -0.22028771751E+03  0.23983070152E+03  0.00000000000E+00 0.  1.
         11    1    4    4    0    0  0.35388966317E+02 -0.76380713595E+02 -0.18742931484E+03  0.20546566722E+03  0.00000000000E+00 0. -1.
</event>
<event>
 8    1  0.6635152E-009  0.3705154E+03  0.7561462E-02  0.1054496E+00
          2   -1    0    0  501    0  0.00000000000E+00  0.00000000000E+00  0.67383616207E+03  0.67383616207E+03  0.00000000000E+00 0. -1.
         -2   -1    0    0    0  501 -0.00000000000E+00 -0.00000000000E+00 -0.55584594527E+03  0.55584594527E+03  0.00000000000E+00 0.  1.
         25    2    1    2    0    0  0.29792965435E+03  0.20339820594E+03 -0.42489314615E+03  0.57123947714E+03  0.12508974967E+03 0.  0.
         23    2    1    2    0    0 -0.29792965435E+03 -0.20339820594E+03  0.54288336295E+03  0.65844263020E+03  0.93227905580E+02 0.  0.
          5    1    3    3  502    0  0.24187711846E+03  0.21327489128E+03 -0.38147680613E+03  0.49953252717E+03  0.41800000000E+01 0. -1.
         -5    1    3    3    0  502  0.56052535889E+02 -0.98766853399E+01 -0.43416340026E+02  0.71706949971E+02  0.41800000000E+01 0. -1.
        -11    1    4    4    0    0 -0.26249044840E+02 -0.26268838372E+02  0.11936061338E+03  0.12500408094E+03  0.00000000000E+00 0. -1.
         11    1    4    4    0    0 -0.27168060951E+03 -0.17712936757E+03  0.42352274957E+03  0.53343854927E+03  0.00000000000E+00 0.  1.
</event>
<event>
 8    1  0.6635152E-009  0.1040962E+03  0.7561462E-02  0.1271911E+00
          1   -1    0    0  501    0  0.00000000000E+00  0.00000000000E+00  0.45023850021E+03  0.45023850021E+03  0.00000000000E+00 0. -1.
         -1   -1    0    0    0  501 -0.00000000000E+00 -0.00000000000E+00 -0.37760824116E+02  0.37760824116E+02  0.00000000000E+00 0.  1.
         25    2    1    2    0    0 -0.22015451651E+02  0.59674691066E+02  0.29473062304E+03  0.32643262452E+03  0.12508544811E+03 0.  0.
         23    2    1    2    0    0  0.22015451651E+02 -0.59674691066E+02  0.11774705305E+03  0.16156669980E+03  0.90518954465E+02 0.  0.
          5    1    3    3  502    0  0.32057471422E+01 -0.21981122652E+02  0.18932526834E+03  0.19066980935E+03  0.41800000000E+01 0.  1.
         -5    1    3    3    0  502 -0.25221198793E+02  0.81655813718E+02  0.10540535471E+03  0.13576281517E+03  0.41800000000E+01 0.  1.
        -11    1    4    4    0    0  0.31174811673E+02  0.76337187355E+01  0.89768262984E+01  0.33327555491E+02  0.00000000000E+00 0.  1.
         11    1    4    4    0    0 -0.91593600223E+01 -0.67308409801E+02  0.10877022675E+03  0.12823914431E+03  0.00000000000E+00 0. -1.
</event>
<event>
 8    1  0.6635152E-009  0.1104324E+03  0.7561462E-02  0.1259771E+00
          1   -1    0    0  501    0  0.00000000000E+00  0.00000000000E+00  0.20300293961E+03  0.20300293961E+03  0.00000000000E+00 0. -1.
         -1   -1    0    0    0  501 -0.00000000000E+00 -0.00000000000E+00 -0.84714318505E+02  0.84714318505E+02  0.00000000000E+00 0.  1.
         25    2    1    2    0    0 -0.25555808897E+02  0.25810364763E+02 -0.44958198655E+01  0.13032540711E+03  0.12508087402E+03 0.  0.
         23    2    1    2    0    0  0.25555808897E+02 -0.25810364763E+02  0.12278444097E+03  0.15739185100E+03  0.91525414609E+02 0.  0.
          5    1    3    3  502    0 -0.38094392738E+01 -0.49291493724E+02  0.10218515063E+02  0.50656229935E+02  0.41800000000E+01 0.  1.
         -5    1    3    3    0  502 -0.21746369623E+02  0.75101858487E+02 -0.14714334928E+02  0.79669177179E+02  0.41800000000E+01 0.  1.
        -11    1    4    4    0    0 -0.52773754911E+01 -0.52139714653E+02  0.42588433696E+02  0.67529069451E+02  0.00000000000E+00 0.  1.
         11    1    4    4    0    0  0.30833184388E+02  0.26329349890E+02  0.80196007274E+02  0.89862781550E+02  0.00000000000E+00 0. -1.
</event>
<event>
 8    1  0.6635152E-009  0.9735953E+02  0.7561462E-02  0.1285949E+00
          3   -1    0    0  501    0  0.00000000000E+00  0.00000000000E+00  0.21827003615E+02  0.21827003615E+02  0.00000000000E+00 0. -1.
         -3   -1    0    0    0  501 -0.00000000000E+00 -0.00000000000E+00 -0.64732277195E+03  0.64732277195E+03  0.00000000000E+00 0.  1.
         25    2    1    2    0    0  0.41692003583E+01  0.30330825818E+02 -0.40141085871E+03  0.42156448938E+03  0.12509436435E+03 0.  0.
         23    2    1    2    0    0 -0.41692003583E+01 -0.30330825818E+02 -0.22408490963E+03  0.24758528619E+03  0.10073274535E+03 0.  0.
          5    1    3    3  502    0  0.18491504996E+02 -0.26789862774E+02 -0.26916624284E+02  0.42445371566E+02  0.41800000000E+01 0. -1.
         -5    1    3    3    0  502 -0.14322304638E+02  0.57120688592E+02 -0.37449423442E+03  0.37911911781E+03  0.41800000000E+01 0. -1.
        -11    1    4    4    0    0 -0.44135906843E+02 -0.42309239258E+02 -0.15816671532E+03  0.16957228498E+03  0.00000000000E+00 0.  1.
         11    1    4    4    0    0  0.39966706485E+02  0.11978413440E+02 -0.65918194311E+02  0.78013001205E+02  0.00000000000E+00 0. -1.
</event>
<event>
 8    1  0.6635152E-009  0.2442991E+03  0.7561462E-02  0.1116962E+00
         -3   -1    0    0    0  501 -0.00000000000E+00  0.00000000000E+00  0.28227286527E+02  0.28227286527E+02  0.00000000000E+00 0.  1.
          3   -1    0    0  501    0  0.00000000000E+00 -0.00000000000E+00 -0.23186637502E+04  0.23186637502E+04  0.00000000000E+00 0. -1.
         25    2    1    2    0    0  0.15472623047E+03 -0.16991618335E+03 -0.13167460905E+04  0.13424901664E+04  0.12509142378E+03 0.  0.
         23    2    1    2    0    0 -0.15472623047E+03  0.16991618335E+03 -0.97369037316E+03  0.10044008703E+04  0.89086753904E+02 0.  0.
          5    1    3    3  502    0  0.35437145607E+02 -0.94684526882E+02 -0.81588505314E+03  0.82213553825E+03  0.41800000000E+01 0.  1.
         -5    1    3    3    0  502  0.11928908486E+03 -0.75231656470E+02 -0.50086103739E+03  0.52035462819E+03  0.41800000000E+01 0.  1.
        -11    1    4    4    0    0 -0.93052513656E+02  0.37647650459E+02 -0.37962534901E+03  0.39267228257E+03  0.00000000000E+00 0.  1.
         11    1    4    4    0    0 -0.61673716810E+02  0.13226853289E+03 -0.59406502415E+03  0.61172858774E+03  0.00000000000E+00 0. -1.
</event>
<event>
 8    1  0.6635152E-009  0.8899885E+02  0.7561462E-02  0.1305294E+00
          2   -1    0    0  501    0  0.00000000000E+00  0.00000000000E+00  0.31116687122E+03  0.31116687122E+03  0.00000000000E+00 0. -1.
         -2   -1    0    0    0  501 -0.00000000000E+00 -0.00000000000E+00 -0.54754569150E+02  0.54754569150E+02  0.00000000000E+00 0.  1.
         25    2    1    2    0    0 -0.71054688446E+02  0.94271629710E+01  0.17104354121E+03  0.22369761221E+03  0.12508832307E+03 0.  0.
         23    2    1    2    0    0  0.71054688446E+02 -0.94271629710E+01  0.85368760861E+02  0.14222382816E+03  0.88329790064E+02 0.  0.
          5    1    3    3  502    0 -0.46391156660E+02 -0.41481985582E+01 -0.34571873020E+01  0.46891060039E+02  0.41800000000E+01 0.  1.
         -5    1    3    3    0  502 -0.24663531786E+02  0.13575361529E+02  0.17450072851E+03  0.17680655217E+03  0.41800000000E+01 0.  1.
        -11    1    4    4    0    0  0.86371318725E+02 -0.37988144848E+01  0.42463445171E+02  0.96320194485E+02  0.00000000000E+00 0.  1.
         11    1    4    4    0    0 -0.15316630279E+02 -0.56283484862E+01  0.42905315689E+02  0.45903633671E+02  0.00000000000E+00 0. -1.
</event>
<event>
 8    1  0.6635152E-009  0.8692711E+02  0.7561462E-02  0.1310469E+00
          1   -1    0    0  501    0  0.00000000000E+00  0.00000000000E+00  0.80886748962E+03  0.80886748962E+03  0.00000000000E+00 0. -1.
         -1   -1    0    0    0  501 -0.00000000000E+00 -0.00000000000E+00 -0.21575160046E+02  0.21575160046E+02  0.00000000000E+00 0.  1.
         25    2    1    2    0    0 -0.51531853624E+02  0.14681288208E+02  0.26715414759E+03  0.29981597512E+03  0.12508880126E+03 0.  0.
         23    2    1    2    0    0  0.51531853624E+02 -0.14681288208E+02  0.52013818198E+03  0.53062667454E+03  0.90276615031E+02 0.  0.
          5    1    3    3  502    0 -0.47781296033E+02 -0.67686339637E+01  0.21218034159E+02  0.52882360290E+02  0.41800000000E+01 0. -1.
         -5    1    3    3    0  502 -0.37505575911E+01  0.21449922172E+02  0.24593611343E+03  0.24693361483E+03  0.41800000000E+01 0. -1.
        -11    1    4    4    0    0 -0.21932456720E+02 -0.19870272482E+02  0.10910059459E+03  0.11304335507E+03  0.00000000000E+00 0.  1.
         11    1    4    4    0    0  0.73464310343E+02  0.51889842736E+01  0.41103758739E+03  0.41758331947E+03  0.00000000000E+00 0. -1.
</event>
<event>
 8    1  0.6635152E-009  0.1102023E+03  0.7561462E-02  0.1260196E+00
         -2   -1    0    0    0  501 -0.00000000000E+00  0.00000000000E+00  0.30072323658E+02  0.30072323658E+02  0.00000000000E+00 0.  1.
          2   -1    0    0  501    0  0.00000000000E+00 -0.00000000000E+00 -0.56093881796E+03  0.56093881796E+03  0.00000000000E+00 0. -1.
         25    2    1    2    0    0  0.41293024260E+02  0.52014588580E+02 -0.32055014858E+03  0.35044492341E+03  0.12509442558E+03 0.  0.
         23    2    1    2    0    0 -0.41293024260E+02 -0.52014588580E+02 -0.21031634573E+03  0.24056621821E+03  0.96065127844E+02 0.  0.
          5    1    3    3  502    0  0.81598540956E+02  0.39500895197E+02 -0.15561683409E+03  0.18014636843E+03  0.41800000000E+01 0. -1.
         -5    1    3    3    0  502 -0.40305516697E+02  0.12513693383E+02 -0.16493331449E+03  0.17029855497E+03  0.41800000000E+01 0. -1.
        -11    1    4    4    0    0 -0.47849146581E+02 -0.15728210301E+02 -0.34805490824E+02  0.61223685117E+02  0.00000000000E+00 0.  1.
         11    1    4    4    0    0  0.65561223214E+01 -0.36286378279E+02 -0.17551085490E+03  0.17934253310E+03  0.00000000000E+00 0. -1.
</event>
<event>
 8    1  0.6635152E-009  0.2420374E+03  0.7561462E-02  0.1118443E+00
         -2   -1    0    0    0  501 -0.00000000000E+00  0.00000000000E+00  0.20348604072E+03  0.20348604072E+03  0.00000000000E+00 0.  1.
          2   -1    0    0  501    0  0.00000000000E+00 -0.00000000000E+00 -0.36810226541E+03  0.36810226541E+03  0.00000000000E+00 0. -1.
         25    2    1    2    0    0  0.44017365961E+02 -0.21760862510E+03 -0.20591867577E+03  0.32763092621E+03  0.12509388697E+03 0.  0.
         23    2    1    2    0    0 -0.44017365961E+02  0.21760862510E+03  0.41302451082E+02  0.24395737991E+03  0.92294466375E+02 0.  0.
          5    1    3    3  502    0  0.79870339950E+02 -0.14106505527E+03 -0.94397564777E+02  0.18763526763E+03  0.41800000000E+01 0. -1.
         -5    1    3    3    0  502 -0.35852973989E+02 -0.76543569835E+02 -0.11152111099E+03  0.13999565859E+03  0.41800000000E+01 0. -1.
        -11    1    4    4    0    0  0.13733252526E+02  0.13935631485E+03  0.43640837891E+02  0.14667415398E+03  0.00000000000E+00 0.  1.
         11    1    4    4    0    0 -0.57750618487E+02  0.78252310256E+02 -0.23383868084E+01  0.97283225938E+02  0.00000000000E+00 0. -1.
</event>
<event>
 8    1  0.6635152E-009  0.1505245E+03  0.7561462E-02  0.1199830E+00
          2   -1    0    0  501    0  0.00000000000E+00  0.00000000000E+00  0.33217217518E+03  0.33217217518E+03  0.00000000000E+00 0. -1.
         -2   -1    0    0    0  501 -0.00000000000E+00 -0.00000000000E+00 -0.83300184532E+02  0.83300184532E+02  0.00000000000E+00 0.  1.
         25    2    1    2    0    0 -0.53144304746E+02 -0.11438404803E+03  0.18631976920E+03  0.25743159266E+03  0.12509173008E+03 0.  0.
         23    2    1    2    0    0  0.53144304746E+02  0.11438404803E+03  0.62552221447E+02  0.15804076705E+03  0.71805821979E+02 0.  0.
          5    1    3    3  502    0  0.15506131710E+02  0.18921905988E+02  0.44755537231E+02  0.51176255819E+02  0.41800000000E+01 0.  1.
         -5    1    3    3    0  502 -0.68650436457E+02 -0.13330595402E+03  0.14156423197E+03  0.20625533685E+03  0.41800000000E+01 0.  1.
        -11    1    4    4    0    0  0.10166272145E+02  0.17492923454E+02  0.46663847703E+02  0.50861283337E+02  0.00000000000E+00 0. -1.
         11    1    4    4    0    0  0.42978032601E+02  0.96891124580E+02  0.15888373744E+02  0.10717948371E+03  0.00000000000E+00 0.  1.
</event>
<event>
 8    1  0.6635152E-009  0.1083953E+03  0.7561462E-02  0.1263571E+00
          2   -1    0    0  501    0  0.00000000000E+00  0.00000000000E+00  0.19688475284E+03  0.19688475284E+03  0.00000000000E+00 0.  1.
         -2   -1    0    0    0  501 -0.00000000000E+00 -0.00000000000E+00 -0.71213512124E+02  0.71213512124E+02  0.00000000000E+00 0. -1.
         25    2    1    2    0    0 -0.11147930851E+02  0.62199543779E+01  0.12246214028E+03  0.17553681567E+03  0.12511288367E+03 0.  0.
         23    2    1    2    0    0  0.11147930851E+02 -0.62199543779E+01  0.32091004314E+01  0.92561449290E+02  0.91620736596E+02 0.  0.
          5    1    3    3  502    0  0.50157296470E+01 -0.58077112606E+02  0.46966771349E+02  0.74976386706E+02  0.41800000000E+01 0. -1.
         -5    1    3    3    0  502 -0.16163660498E+02  0.64297066984E+02  0.75495368935E+02  0.10056042897E+03  0.41800000000E+01 0. -1.
        -11    1    4    4    0    0 -0.72266770508E+01 -0.46809156780E+02 -0.35523692870E+01  0.47496750912E+02  0.00000000000E+00 0. -1.
         11    1    4    4    0    0  0.18374607902E+02  0.40589202402E+02  0.67614697184E+01  0.45064698378E+02  0.00000000000E+00 0.  1.
</event>
<event>
 8    1  0.6635152E-009  0.1164330E+03  0.7561462E-02  0.1249100E+00
         -1   -1    0    0    0  501 -0.00000000000E+00  0.00000000000E+00  0.14864443956E+02  0.14864443956E+02  0.00000000000E+00 0.  1.
          1   -1    0    0  501    0  0.00000000000E+00 -0.00000000000E+00 -0.13284176460E+04  0.13284176460E+04  0.00000000000E+00 0. -1.
         25    2    1    2    0    0 -0.37578100822E+02  0.64142300527E+02 -0.95922502985E+03  0.97019907527E+03  0.12508892593E+03 0.  0.
         23    2    1    2    0    0  0.37578100822E+02 -0.64142300527E+02 -0.35432817216E+03  0.37308301465E+03  0.90089587938E+02 0.  0.
          5    1    3    3  502    0  0.29644613958E+01  0.89585044229E+02 -0.46020855892E+03  0.46887488553E+03  0.41800000000E+01 0.  1.
         -5    1    3    3    0  502 -0.40542562217E+02 -0.25442743702E+02 -0.49901647093E+03  0.50132418973E+03  0.41800000000E+01 0.  1.
        -11    1    4    4    0    0  0.27082585708E+02 -0.75148283800E+02 -0.34723062128E+03  0.35630020398E+03  0.00000000000E+00 0. -1.
         11    1    4    4    0    0  0.10495515113E+02  0.11005983273E+02 -0.70975508853E+01  0.16782810667E+02  0.00000000000E+00 0.  1.
</event>
<event>
 8    1  0.6635152E-009  0.1125340E+03  0.7561462E-02  0.1255948E+00
          1   -1    0    0  501    0  0.00000000000E+00  0.00000000000E+00  0.65280847793E+03  0.65280847793E+03  0.00000000000E+00 0.  1.
         -1   -1    0    0    0  501 -0.00000000000E+00 -0.00000000000E+00 -0.27753848355E+02  0.27753848355E+02  0.00000000000E+00 0. -1.
         25    2    1    2    0    0  0.69696765343E+02 -0.32840329203E+02  0.36964953266E+03  0.39777392579E+03  0.12508873938E+03 0.  0.
         23    2    1    2    0    0 -0.69696765343E+02  0.32840329203E+02  0.25540509692E+03  0.28278840050E+03  0.93815721517E+02 0.  0.
          5    1    3    3  502    0  0.10856542079E+01 -0.65247946490E+02  0.11808685009E+03  0.13498314610E+03  0.41800000000E+01 0. -1.
         -5    1    3    3    0  502  0.68611111135E+02  0.32407617287E+02  0.25156268257E+03  0.26279077969E+03  0.41800000000E+01 0. -1.
        -11    1    4    4    0    0 -0.62743353755E+02  0.14966518054E+02  0.25559508171E+03  0.26360874587E+03  0.00000000000E+00 0.  1.
         11    1    4    4    0    0 -0.69534115883E+01  0.17873811149E+02 -0.18998478941E+00  0.19179654635E+02  0.00000000000E+00 0. -1.
</event>
<event>
 8    1  0.6635152E-009  0.9845870E+02  0.7561462E-02  0.1283571E+00
         -1   -1    0    0    0  501 -0.00000000000E+00  0.00000000000E+00  0.30644430522E+02  0.30644430522E+02  0.00000000000E+00 0.  1.
          1   -1    0    0  501    0  0.00000000000E+00 -0.00000000000E+00 -0.45195367812E+03  0.45195367812E+03  0.00000000000E+00 0. -1.
         25    2    1    2    0    0 -0.55154647074E+02  0.33565341370E+02 -0.25956702951E+03  0.29528207668E+03  0.12509114583E+03 0.  0.
         23    2    1    2    0    0  0.55154647074E+02 -0.33565341370E+02 -0.16174221809E+03  0.18731603196E+03  0.68978862582E+02 0.  0.
          5    1    3    3  502    0 -0.82375988970E+02 -0.70478280063E+01 -0.20910477536E+03  0.22489498642E+03  0.41800000000E+01 0.  1.
         -5    1    3    3    0  502  0.27221341895E+02  0.40613169376E+02 -0.50462254151E+02  0.70387090261E+02  0.41800000000E+01 0.  1.
        -11    1    4    4    0    0  0.41493896727E+02 -0.21007302016E+02 -0.16221860907E+03  0.16875404390E+03  0.00000000000E+00 0. -1.
         11    1    4    4    0    0  0.13660750347E+02 -0.12558039354E+02  0.47639098387E+00  0.18561988062E+02  0.00000000000E+00 0.  1.
</event>
<event>
 8    1  0.6635152E-009  0.1953934E+03  0.7561462E-02  0.1153685E+00
         -2   -1    0    0    0  501 -0.00000000000E+00  0.00000000000E+00  0.32197047290E+02  0.32197047290E+02  0.00000000000E+00 0.  1.
          2   -1    0    0  501    0  0.00000000000E+00 -0.00000000000E+00 -0.14809459212E+04  0.14809459212E+04  0.00000000000E+00 0. -1.
         25    2    1    2    0    0  0.15325153857E+03 -0.65173194320E+02 -0.10634322931E+04  0.10836367099E+04  0.12508676074E+03 0.  0.
         23    2    1    2    0    0 -0.15325153857E+03  0.65173194320E+02 -0.38531658081E+03  0.42950625858E+03  0.90957019441E+02 0.  0.
          5    1    3    3  502    0  0.15229411901E+03 -0.93197774418E+02 -0.95519302949E+03  0.97174611902E+03  0.41800000000E+01 0.  1.
         -5    1    3    3    0  502  0.95741955899E+00  0.28024580098E+02 -0.10823926362E+03  0.11189059090E+03  0.41800000000E+01 0.  1.
        -11    1    4    4    0    0 -0.93352268407E+02 -0.26016769702E+01 -0.24874364701E+03  0.26569685107E+03  0.00000000000E+00 0. -1.
         11    1    4    4    0    0 -0.59899270162E+02  0.67774871290E+02 -0.13657293379E+03  0.16380940751E+03  0.00000000000E+00 0.  1.
</event>
<event>
 8    1  0.6635152E-009  0.1134721E+03  0.7561462E-02  0.1254272E+00
          2   -1    0    0  501    0  0.00000000000E+00  0.00000000000E+00  0.42083563915E+03  0.42083563915E+03  0.00000000000E+00 0. -1.
         -2   -1    0    0    0  501 -0.00000000000E+00 -0.00000000000E+00 -0.43063521536E+02  0.43063521536E+02  0.00000000000E+00 0.  1.
         25    2    1    2    0    0 -0.36120611305E+02  0.64513872648E+02  0.25471071913E+03  0.29324327253E+03  0.12508928058E+03 0.  0.
         23    2    1    2    0    0  0.36120611305E+02 -0.64513872648E+02  0.12306139848E+03  0.17065588816E+03  0.92263676722E+02 0.  0.
          5    1    3    3  502    0  0.38431174294E+02  0.53610075826E+02  0.86324646488E+02  0.10872171990E+03  0.41800000000E+01 0.  1.
         -5    1    3    3    0  502 -0.74551785599E+02  0.10903796822E+02  0.16838607264E+03  0.18452155262E+03  0.41800000000E+01 0.  1.
        -11    1    4    4    0    0  0.40316174922E+02 -0.29084927206E+02  0.12540850504E+03  0.13490226123E+03  0.00000000000E+00 0. -1.
         11    1    4    4    0    0 -0.41955636169E+01 -0.35428945443E+02 -0.23471065525E+01  0.35753626927E+02  0.00000000000E+00 0.  1.
</event>
<event>
 8    1  0.6635152E-009  0.9849577E+02  0.7561462E-02  0.1283491E+00
         -1   -1    0    0    0  501 -0.00000000000E+00  0.00000000000E+00  0.12275709399E+03  0.12275709399E+03  0.00000000000E+00 0.  1.
          1   -1    0    0  501    0  0.00000000000E+00 -0.00000000000E+00 -0.14596117465E+03  0.14596117465E+03  0.00000000000E+00 0. -1.
         25    2    1    2    0    0  0.21655407102E+02 -0.35638442407E+02 -0.78560974802E+02  0.15348008786E+03  0.12508099526E+03 0.  0.
         23    2    1    2    0    0 -0.21655407102E+02  0.35638442407E+02  0.55356894150E+02  0.11523818078E+03  0.92067352222E+02 0.  0.
          5    1    3    3  502    0 -0.44922039313E+02 -0.25360618800E+02 -0.25372625176E+01  0.51817571374E+02  0.41800000000E+01 0. -1.
         -5    1    3    3    0  502  0.66577446415E+02 -0.10277823607E+02 -0.76023712284E+02  0.10166251649E+03  0.41800000000E+01 0. -1.
        -11    1    4    4    0    0  0.15274468525E+02  0.37777608358E+02  0.65265966794E+02  0.76942208856E+02  0.00000000000E+00 0.  1.
         11    1    4    4    0    0 -0.36929875627E+02 -0.21391659516E+01 -0.99090726443E+01  0.38295971922E+02  0.00000000000E+00 0. -1.
</event>
<event>
 8    1  0.6635152E-009  0.1358557E+03  0.7561462E-02  0.1219017E+00
         -1   -1    0    0    0  501 -0.00000000000E+00  0.00000000000E+00  0.64829564612E+03  0.64829564612E+03  0.00000000000E+00 0.  1.
          1   -1    0    0  501    0  0.00000000000E+00 -0.00000000000E+00 -0.35478654049E+02  0.35478654049E+02  0.00000000000E+00 0. -1.
         25    2    1    2    0    0 -0.11514352889E+02 -0.10519503848E+03  0.25937576639E+03  0.30679301529E+03  0.12509032576E+03 0.  0.
         23    2    1    2    0    0  0.11514352889E+02  0.10519503848E+03  0.35344122568E+03  0.37698128488E+03  0.77431341823E+02 0.  0.
          5    1    3    3  502    0 -0.40531989708E+01 -0.13325922192E+03  0.19762708764E+03  0.23842899744E+03  0.41800000000E+01 0.  1.
         -5    1    3    3    0  502 -0.74611539187E+01  0.28064183442E+02  0.61748678745E+02  0.68364017852E+02  0.41800000000E+01 0.  1.
        -11    1    4    4    0    0  0.19564168378E+02  0.60874634597E+02  0.30160097824E+03  0.30830444028E+03  0.00000000000E+00 0.  1.
         11    1    4    4    0    0 -0.80498154887E+01  0.44320403879E+02  0.51840247442E+02  0.68676844600E+02  0.00000000000E+00 0. -1.
</event>
<event>
 7    1  0.6635152E-009  0.9922852E+02  0.7561462E-02  0.1281927E+00
          2   -1    0    0  501    0  0.00000000000E+00  0.00000000000E+00  0.13245288041E+04  0.13245288041E+04  0.00000000000E+00 0.  1.
         -2   -1    0    0    0  501 -0.00000000000E+00 -0.00000000000E+00 -0.10980647061E+02  0.10980647061E+02  0.00000000000E+00 0. -1.
         23    2    1    2    0    0  0.16734274996E+02  0.11054708065E+02  0.41740437738E+03  0.43043881659E+03  0.10319359496E+03 0.  0.
          5    1    1    2  502    0  0.35962148409E+02  0.13528740681E+02  0.10682345417E+03  0.11360028919E+03  0.41800000000E+01 0. -1.
         -5    1    1    2    0  502 -0.52696423405E+02 -0.24583448746E+02  0.78932032547E+03  0.79147034537E+03  0.41800000000E+01 0. -1.
        -11    1    3    3    0    0 -0.85333196937E+01  0.52380308720E+02  0.27348655419E+03  0.27858824385E+03  0.00000000000E+00 0.  1.
         11    1    3    3    0    0  0.25267594690E+02 -0.41325600655E+02  0.14391782319E+03  0.15185057274E+03  0.00000000000E+00 0. -1.
</event>
<event>
 8    1  0.6635152E-009  0.1359668E+03  0.7561462E-02  0.1218861E+00
         -2   -1    0    0    0  501 -0.00000000000E+00  0.00000000000E+00  0.28224046919E+02  0.28224046919E+02  0.00000000000E+00 0.  1.
          2   -1    0    0  501    0  0.00000000000E+00 -0.00000000000E+00 -0.11990475311E+04  0.11990475311E+04  0.00000000000E+00 0. -1.
         25    2    1    2    0    0  0.47304360818E+02  0.12016278532E+03 -0.85248316871E+03  0.87123636026E+03  0.12509374478E+03 0.  0.
         23    2    1    2    0    0 -0.47304360818E+02 -0.12016278532E+03 -0.31834031551E+03  0.35603521779E+03  0.93507872934E+02 0.  0.
          5    1    3    3  502    0  0.52258614294E+02  0.11389051791E+03 -0.41185777426E+03  0.43051865402E+03  0.41800000000E+01 0.  1.
         -5    1    3    3    0  502 -0.49542534758E+01  0.62722674140E+01 -0.44062539445E+03  0.44071770624E+03  0.41800000000E+01 0.  1.
        -11    1    4    4    0    0 -0.26081295785E+02 -0.14657708391E+02 -0.13625638787E+02  0.32874616918E+02  0.00000000000E+00 0.  1.
         11    1    4    4    0    0 -0.21223065033E+02 -0.10550507693E+03 -0.30471467672E+03  0.32316060087E+03  0.00000000000E+00 0. -1.
</event>
<event>
 8    1  0.6635152E-009  0.9001462E+02  0.7561462E-02  0.1302816E+00
         -3   -1    0    0    0  501 -0.00000000000E+00  0.00000000000E+00  0.17435530617E+03  0.17435530617E+03  0.00000000000E+00 0.  1.
          3   -1    0    0  501    0  0.00000000000E+00 -0.00000000000E+00 -0.88500911384E+02  0.88500911384E+02  0.00000000000E+00 0. -1.
         25    2    1    2    0    0  0.45356199192E+02  0.35015004811E+02  0.70553848729E+02  0.15462514066E+03  0.12509137934E+03 0.  0.
         23    2    1    2    0    0 -0.45356199192E+02 -0.35015004811E+02  0.15300546055E+02  0.10823107689E+03  0.90535208228E+02 0.  0.
          5    1    3    3  502    0  0.35013946640E+02  0.61573921546E+02  0.93795949126E+02  0.11761155022E+03  0.41800000000E+01 0. -1.
         -5    1    3    3    0  502  0.10342252552E+02 -0.26558916735E+02 -0.23242100397E+02  0.37013590435E+02  0.41800000000E+01 0. -1.
        -11    1    4    4    0    0 -0.63953315799E+01 -0.40428619423E+02  0.43578112238E+02  0.59786498482E+02  0.00000000000E+00 0. -1.
         11    1    4    4    0    0 -0.38960867612E+02  0.54136146121E+01 -0.28277566183E+02  0.48444578412E+02  0.00000000000E+00 0.  1.
</event>
<event>
 8    1  0.6635152E-009  0.1148631E+03  0.7561462E-02  0.1251820E+00
          1   -1    0    0  501    0  0.00000000000E+00  0.00000000000E+00  0.63937960605E+02  0.63937960605E+02  0.00000000000E+00 0. -1.
         -1   -1    0    0    0  501 -0.00000000000E+00 -0.00000000000E+00 -0.55656842158E+03  0.55656842158E+03  0.00000000000E+00 0.  1.
         25    2    1    2    0    0  0.16327579606E+01  0.36885240668E+02 -0.49182778525E+03  0.50882602920E+03  0.12508465441E+03 0.  0.
         23    2    1    2    0    0 -0.16327579606E+01 -0.36885240668E+02 -0.80267572050E+00  0.11168035298E+03  0.10539767586E+03 0.  0.
          5    1    3    3  502    0 -0.24109712291E+02  0.74969767623E+02 -0.37515884345E+03  0.38335802391E+03  0.41800000000E+01 0.  1.
         -5    1    3    3    0  502  0.25742470252E+02 -0.38084526955E+02 -0.11666894181E+03  0.12546800529E+03  0.41800000000E+01 0.  1.
        -11    1    4    4    0    0  0.17636022164E+02 -0.66818661376E+02 -0.19039765875E+02  0.71681765257E+02  0.00000000000E+00 0.  1.
         11    1    4    4    0    0 -0.19268780125E+02  0.29933420708E+02  0.18237090154E+02  0.39998587726E+02  0.00000000000E+00 0. -1.
</event>
<event>
 8    1  0.6635152E-009  0.1515244E+03  0.7561462E-02  0.1198612E+00
          2   -1    0    0  501    0  0.00000000000E+00  0.00000000000E+00  0.44570562711E+02  0.44570562711E+02  0.00000000000E+00 0. -1.
         -2   -1    0    0    0  501 -0.00000000000E+00 -0.00000000000E+00 -0.61228785722E+03  0.61228785722E+03  0.00000000000E+00 0.  1.
         25    2    1    2    0    0  0.96334620658E+02 -0.72613569919E+02 -0.36094861746E+03  0.40060384212E+03  0.12508574741E+03 0.  0.
         23    2    1    2    0    0 -0.96334620658E+02  0.72613569919E+02 -0.20676867705E+03  0.25625457781E+03  0.91433216970E+02 0.  0.
          5    1    3    3  502    0 -0.13788089252E+02 -0.37856357575E+02 -0.18996485254E+03  0.19423525121E+03  0.41800000000E+01 0.  1.
         -5    1    3    3    0  502  0.11012270991E+03 -0.34757212344E+02 -0.17098376493E+03  0.20636859091E+03  0.41800000000E+01 0.  1.
        -11    1    4    4    0    0  0.12305002740E+00 -0.16004225275E+02 -0.47029450943E+02  0.49678160432E+02  0.00000000000E+00 0.  1.
         11    1    4    4    0    0 -0.96457670685E+02  0.88617795193E+02 -0.15973922611E+03  0.20657641738E+03  0.00000000000E+00 0. -1.
</event>
<event>
 7    1  0.6635152E-009  0.8383159E+02  0.7561462E-02  0.1318517E+00
          2   -1    0    0  501    0  0.00000000000E+00  0.00000000000E+00  0.25333875549E+03  0.25333875549E+03  0.00000000000E+00 0. -1.
         -2   -1    0    0    0  501 -0.00000000000E+00 -0.00000000000E+00 -0.47128168855E+02  0.47128168855E+02  0.00000000000E+00 0.  1.
         23    2    1    2    0    0 -0.38676379627E+01 -0.14903975976E+02  0.61296371957E+02  0.11496042254E+03  0.96028987354E+02 0.  0.
          5    1    1    2  502    0 -0.29594602422E+02 -0.67380296682E+01 -0.43607146733E+01  0.30947209386E+02  0.41800000000E+01 0. -1.
         -5    1    1    2    0  502  0.33462240384E+02  0.21642005644E+02  0.14927492935E+03  0.15455929242E+03  0.41800000000E+01 0. -1.
        -11    1    3    3    0    0  0.40929990722E+02 -0.28805468894E+02  0.36148518151E+02  0.61739246377E+02  0.00000000000E+00 0.  1.
         11    1    3    3    0    0 -0.44797628685E+02  0.13901492918E+02  0.25147853806E+02  0.53221176163E+02  0.00000000000E+00 0. -1.
</event>
<event>
 8    1  0.6635152E-009  0.8539197E+02  0.7561462E-02  0.1314411E+00
         -1   -1    0    0    0  501 -0.00000000000E+00  0.00000000000E+00  0.20265104343E+03  0.20265104343E+03  0.00000000000E+00 0.  1.
          1   -1    0    0  501    0  0.00000000000E+00 -0.00000000000E+00 -0.96236847055E+02  0.96236847055E+02  0.00000000000E+00 0. -1.
         25    2    1    2    0    0  0.38630315876E+02 -0.60103846335E+02  0.46133442722E+01  0.14413205868E+03  0.12509194117E+03 0.  0.
         23    2    1    2    0    0 -0.38630315876E+02  0.60103846335E+02  0.10180085211E+03  0.15475583180E+03  0.92093324073E+02 0.  0.
          5    1    3    3  502    0  0.38923591459E+02 -0.62201734945E+02  0.56083122488E+02  0.92449396051E+02  0.41800000000E+01 0.  1.
         -5    1    3    3    0  502 -0.29327558274E+00  0.20978886098E+01 -0.51469778216E+02  0.51682662633E+02  0.41800000000E+01 0.  1.
        -11    1    4    4    0    0 -0.29977966343E+02 -0.18617140539E+01  0.84738746958E+02  0.89904391891E+02  0.00000000000E+00 0.  1.
         11    1    4    4    0    0 -0.86523495337E+01  0.61965560389E+02  0.17062105150E+02  0.64851439914E+02  0.00000000000E+00 0. -1.
</event>
<event>
 8    1  0.6635152E-009  0.2857669E+03  0.7561462E-02  0.1092580E+00
          1   -1    0    0  501    0  0.00000000000E+00  0.00000000000E+00  0.41327406704E+03  0.41327406704E+03  0.00000000000E+00 0. -1.
         -1   -1    0    0    0  501 -0.00000000000E+00 -0.00000000000E+00 -0.21427674341E+03  0.21427674341E+03  0.00000000000E+00 0.  1.
         25    2    1    2    0    0  0.26158915747E+03 -0.77241028607E+02  0.15643762273E+03  0.33840164214E+03  0.12509147770E+03 0.  0.
         23    2    1    2    0    0 -0.26158915747E+03  0.77241028607E+02  0.42559700902E+02  0.28914916831E+03  0.86028190667E+02 0.  0.
          5    1    3    3  502    0  0.20045370600E+03 -0.89858641129E+01  0.70538351345E+02  0.21273355498E+03  0.41800000000E+01 0.  1.
         -5    1    3    3    0  502  0.61135451462E+02 -0.68255164494E+02  0.85899271389E+02  0.12566808716E+03  0.41800000000E+01 0.  1.
        -11    1    4    4    0    0 -0.10704114049E+03  0.16242921617E+01 -0.14160206151E+02  0.10798590427E+03  0.00000000000E+00 0.  1.
         11    1    4    4    0    0 -0.15454801697E+03  0.75616736446E+02  0.56719907053E+02  0.18116326404E+03  0.00000000000E+00 0. -1.
</event>
<event>
 8    1  0.6635152E-009  0.9084042E+02  0.7561462E-02  0.1300829E+00
          1   -1    0    0  501    0  0.00000000000E+00  0.00000000000E+00  0.50612470349E+03  0.50612470349E+03  0.00000000000E+00 0. -1.
         -1   -1    0    0    0  501 -0.00000000000E+00 -0.00000000000E+00 -0.25697523305E+02  0.25697523305E+02  0.00000000000E+00 0.  1.
         25    2    1    2    0    0 -0.44674786346E+01 -0.21163248665E+02  0.32469478360E+03  0.34862830819E+03  0.12508858188E+03 0.  0.
         23    2    1    2    0    0  0.44674786346E+01  0.21163248665E+02  0.15573239659E+03  0.18319391860E+03  0.94019099163E+02 0.  0.
          5    1    3    3  502    0  0.35531057059E+02  0.67941311555E+01  0.27988459877E+03  0.28224364875E+03  0.41800000000E+01 0. -1.
         -5    1    3    3    0  502 -0.39998535693E+02 -0.27957379820E+02  0.44810184829E+02  0.66384659436E+02  0.41800000000E+01 0. -1.
        -11    1    4    4    0    0 -0.44636096045E+02  0.70078925950E+01  0.78816864586E+02  0.90849269518E+02  0.00000000000E+00 0. -1.
         11    1    4    4    0    0  0.49103574680E+02  0.14155356070E+02  0.76915532002E+02  0.92344649086E+02  0.00000000000E+00 0.  1.
</event>
<event>
 8    1  0.6635152E-009  0.1537619E+03  0.7561462E-02  0.1195925E+00
         -2   -1    0    0    0  501 -0.00000000000E+00  0.00000000000E+00  0.17786981825E+02  0.17786981825E+02  0.00000000000E+00 0.  1.
          2   -1    0    0  501    0  0.00000000000E+00 -0.00000000000E+00 -0.15536829458E+04  0.15536829458E+04  0.00000000000E+00 0. -1.
         25    2    1    2    0    0  0.68163994898E+02  0.10171326821E+03 -0.72314735207E+03  0.74403018934E+03  0.12508761212E+03 0.  0.
         23    2    1    2    0    0 -0.68163994898E+02 -0.10171326821E+03 -0.81274861195E+03  0.82743973833E+03  0.95416430536E+02 0.  0.
          5    1    3    3  502    0  0.71741731837E+02  0.26047550701E+02 -0.17925471977E+03  0.19487195268E+03  0.41800000000E+01 0. -1.
         -5    1    3    3    0  502 -0.35777369397E+01  0.75665717511E+02 -0.54389263231E+03  0.54915823665E+03  0.41800000000E+01 0. -1.
        -11    1    4    4    0    0 -0.82113291240E+02 -0.38872575568E+02 -0.47116982229E+03  0.47984859192E+03  0.00000000000E+00 0. -1.
         11    1    4    4    0    0  0.13949296342E+02 -0.62840692644E+02 -0.34157878966E+03  0.34759114641E+03  0.00000000000E+00 0.  1.
</event>
<event>
 8    1  0.6635152E-009  0.7991288E+02  0.7561462E-02  0.1329299E+00
          2   -1    0    0  501    0  0.00000000000E+00  0.00000000000E+00  0.12182363592E+03  0.12182363592E+03  0.00000000000E+00 0. -1.
         -2   -1    0    0    0  501 -0.00000000000E+00 -0.00000000000E+00 -0.19964511454E+03  0.19964511454E+03  0.00000000000E+00 0.  1.
         25    2    1    2    0    0  0.86787082304E+01 -0.57962836978E+01 -0.15540537735E+03  0.19978733480E+03  0.12512086539E+03 0.  0.
         23    2    1    2    0    0 -0.86787082304E+01  0.57962836978E+01  0.77583898725E+02  0.12168141566E+03  0.93156796287E+02 0.  0.
          5    1    3    3  502    0 -0.54817524174E+01 -0.38454459412E+02  0.12468886704E+01  0.39087366112E+02  0.41800000000E+01 0.  1.
         -5    1    3    3    0  502  0.14160460648E+02  0.32658175714E+02 -0.15665226602E+03  0.16069996868E+03  0.41800000000E+01 0.  1.
        -11    1    4    4    0    0 -0.31342281508E+02  0.35628948705E+02  0.16915974145E+02  0.50377681340E+02  0.00000000000E+00 0.  1.
         11    1    4    4    0    0  0.22663573278E+02 -0.29832665007E+02  0.60667924580E+02  0.71303734320E+02  0.00000000000E+00 0. -1.
</event>
<event>
 8    1  0.6635152E-009  0.1393211E+03  0.7561462E-02  0.1214245E+00
         -1   -1    0    0    0  501 -0.00000000000E+00  0.00000000000E+00  0.21748712326E+02  0.21748712326E+02  0.00000000000E+00 0.  1.
          1   -1    0    0  501    0  0.00000000000E+00 -0.00000000000E+00 -0.11395385726E+04  0.11395385726E+04  0.00000000000E+00 0. -1.
         25    2    1    2    0    0  0.10415816432E+03 -0.16145420890E+02 -0.75291075473E+03  0.77047169392E+03  0.12506969548E+03 0.  0.
         23    2    1    2    0    0 -0.10415816432E+03  0.16145420890E+02 -0.36487910554E+03  0.39081559101E+03  0.92143728505E+02 0.  0.
          5    1    3    3  502    0  0.10746480296E+03  0.33570062432E+02 -0.48268812808E+03  0.49566211713E+03  0.41800000000E+01 0.  1.
         -5    1    3    3    0  502 -0.33066386367E+01 -0.49715483323E+02 -0.27022262665E+03  0.27480957679E+03  0.41800000000E+01 0.  1.
        -11    1    4    4    0    0 -0.39337286464E+02 -0.17374302023E+02 -0.43170690042E+02  0.60934365967E+02  0.00000000000E+00 0.  1.
         11    1    4    4    0    0 -0.64820877859E+02  0.33519722913E+02 -0.32170841550E+03  0.32988122504E+03  0.00000000000E+00 0. -1.
</event>
<event>
 8    1  0.6635152E-009  0.1101971E+03  0.7561462E-02  0.1260205E+00
         -1   -1    0    0    0  501 -0.00000000000E+00  0.00000000000E+00  0.30544157240E+02  0.30544157240E+02  0.00000000000E+00 0.  1.
          1   -1    0    0  501    0  0.00000000000E+00 -0.00000000000E+00 -0.58052991533E+03  0.58052991533E+03  0.00000000000E+00 0. -1.
         25    2    1    2    0    0 -0.64647508983E+02  0.25856238505E+02 -0.22782429616E+03  0.26907172772E+03  0.12509132365E+03 0.  0.
         23    2    1    2    0    0  0.64647508983E+02 -0.25856238505E+02 -0.32216146193E+03  0.34200234484E+03  0.91267468681E+02 0.  0.
          5    1    3    3  502    0 -0.31402293815E+01  0.44529372290E+02 -0.15895205980E+02  0.47569486125E+02  0.41800000000E+01 0.  1.
         -5    1    3    3    0  502 -0.61507279601E+02 -0.18673133784E+02 -0.21192909018E+03  0.22150224160E+03  0.41800000000E+01 0.  1.
        -11    1    4    4    0    0  0.36632576010E+01  0.28932073812E+02 -0.51341807865E+02  0.59046300359E+02  0.00000000000E+00 0. -1.
         11    1    4    4    0    0  0.60984251382E+02 -0.54788312317E+02 -0.27081965406E+03  0.28295604448E+03  0.00000000000E+00 0.  1.
</event>
<event>
 8    1  0.6635152E-009  0.2206663E+03  0.7561462E-02  0.1133387E+00
         -1   -1    0    0    0  501 -0.00000000000E+00  0.00000000000E+00  0.94316677161E+03  0.94316677161E+03  0.00000000000E+00 0.  1.
          1   -1    0    0  501    0  0.00000000000E+00 -0.00000000000E+00 -0.58235070648E+02  0.58235070648E+02  0.00000000000E+00 0. -1.
         25    2    1    2    0    0 -0.18384487876E+03 -0.80288600870E+02  0.57155806428E+03  0.61852352293E+03  0.12509008233E+03 0.  0.
         23    2    1    2    0    0  0.18384487876E+03  0.80288600870E+02  0.31337363668E+03  0.38287831933E+03  0.90263904018E+02 0.  0.
          5    1    3    3  502    0 -0.18941799074E+03 -0.91464260911E+02  0.56669035139E+03  0.60448350928E+03  0.41800000000E+01 0. -1.
         -5    1    3    3    0  502  0.55731119748E+01  0.11175660042E+02  0.48677128951E+01  0.14040013649E+02  0.41800000000E+01 0. -1.
        -11    1    4    4    0    0  0.58697223023E+02  0.71234582872E+02  0.10655937455E+03  0.14097740986E+03  0.00000000000E+00 0.  1.
         11    1    4    4    0    0  0.12514765574E+03  0.90540179978E+01  0.20681426213E+03  0.24190090947E+03  0.00000000000E+00 0. -1.
</event>
<event>
 8    1  0.6635152E-009  0.1098966E+03  0.7561462E-02  0.1260761E+00
         -2   -1    0    0    0  501 -0.00000000000E+00  0.00000000000E+00  0.33088507288E+02  0.33088507288E+02  0.00000000000E+00 0.  1.
          2   -1    0    0  501    0  0.00000000000E+00 -0.00000000000E+00 -0.59881531438E+03  0.59881531438E+03  0.00000000000E+00 0. -1.
         25    2    1    2    0    0  0.46972867100E+02  0.31069352018E+02 -0.45706609138E+03  0.47721180833E+03  0.12509973318E+03 0.  0.
         23    2    1    2    0    0 -0.46972867100E+02 -0.31069352018E+02 -0.10866071571E+03  0.15469201334E+03  0.94608207746E+02 0.  0.
          5    1    3    3  502    0 -0.37999827708E+02  0.29363538496E+02 -0.22320414889E+03  0.22835010134E+03  0.41800000000E+01 0.  1.
         -5    1    3    3    0  502  0.84972694808E+02  0.17058135214E+01 -0.23386194249E+03  0.24886170699E+03  0.41800000000E+01 0.  1.
        -11    1    4    4    0    0 -0.20880411510E+02  0.20147577775E+02  0.29338871407E+01  0.29163747509E+02  0.00000000000E+00 0.  1.
         11    1    4    4    0    0 -0.26092455590E+02 -0.51216929792E+02 -0.11159460285E+03  0.12552826583E+03  0.00000000000E+00 0. -1.
</event>
<event>
 8    1  0.6635152E-009  0.1305512E+03  0.7561462E-02  0.1226640E+00
         -2   -1    0    0    0  501 -0.00000000000E+00  0.00000000000E+00  0.77358499783E+01  0.77358499783E+01  0.00000000000E+00 0.  1.
          2   -1    0    0  501    0  0.00000000000E+00 -0.00000000000E+00 -0.35465634096E+04  0.35465634096E+04  0.00000000000E+00 0. -1.
         25    2    1    2    0    0 -0.66290280091E+02 -0.47839906456E+02 -0.29249885304E+04  0.29288041336E+04  0.12511072070E+03 0.  0.
         23    2    1    2    0    0  0.66290280091E+02  0.47839906456E+02 -0.61383902923E+03  0.62549512594E+03  0.88106417922E+02 0.  0.
          5    1    3    3  502    0 -0.96830607921E+02 -0.18881425073E+02 -0.24323462184E+04  0.24343496613E+04  0.41800000000E+01 0. -1.
         -5    1    3    3    0  502  0.30540327830E+02 -0.28958481384E+02 -0.49264231202E+03  0.49445447238E+03  0.41800000000E+01 0. -1.
        -11    1    4    4    0    0  0.30363648951E+01 -0.24089350878E+02 -0.11304410114E+03  0.11562216544E+03  0.00000000000E+00 0.  1.
         11    1    4    4    0    0  0.63253915196E+02  0.71929257335E+02 -0.50079492809E+03  0.50987296050E+03  0.00000000000E+00 0. -1.
</event>
<event>
 8    1  0.6635152E-009  0.1068901E+03  0.7561462E-02  0.1266440E+00
         -1   -1    0    0    0  501 -0.00000000000E+00  0.00000000000E+00  0.21992330976E+02  0.21992330976E+02  0.00000000000E+00 0.  1.
          1   -1    0    0  501    0  0.00000000000E+00 -0.00000000000E+00 -0.74055543775E+03  0.74055543775E+03  0.00000000000E+00 0. -1.
         25    2    1    2    0    0 -0.39493234023E+01 -0.46704610998E+02 -0.51137933614E+03  0.52853950884E+03  0.12509304188E+03 0.  0.
         23    2    1    2    0    0  0.39493234023E+01  0.46704610998E+02 -0.20718377063E+03  0.23400825989E+03  0.98172465784E+02 0.  0.
          5    1    3    3  502    0 -0.38741898785E+02  0.30035062700E+02 -0.18346329529E+03  0.18994549963E+03  0.41800000000E+01 0. -1.
         -5    1    3    3    0  502  0.34792575382E+02 -0.76739673698E+02 -0.32791604085E+03  0.33859400920E+03  0.41800000000E+01 0. -1.
        -11    1    4    4    0    0  0.34557747410E+02  0.26410246420E+02 -0.18722378532E+03  0.19220948158E+03  0.00000000000E+00 0. -1.
         11    1    4    4    0    0 -0.30608424007E+02  0.20294364578E+02 -0.19959985314E+02  0.41798778302E+02  0.00000000000E+00 0.  1.
</event>
<event>
 7    1  0.6635152E-009  0.2610133E+03  0.7561462E-02  0.1106536E+00
          1   -1    0    0  501    0  0.00000000000E+00  0.00000000000E+00  0.95007635127E+03  0.95007635127E+03  0.00000000000E+00 0. -1.
         -1   -1    0    0    0  501 -0.00000000000E+00 -0.00000000000E+00 -0.10320117160E+03  0.10320117160E+03  0.00000000000E+00 0.  1.
         25    2    1    2    0    0 -0.12436492231E+02 -0.24726590905E+03  0.23059568426E+03  0.36071713479E+03  0.12508951043E+03 0.  0.
          5    1    3    3  502    0 -0.60953682384E+01 -0.68303564843E+02 -0.28405474246E-01  0.68702283012E+02  0.41800000000E+01 0.  1.
         -5    1    3    3    0  502 -0.63411239927E+01 -0.17896234421E+03  0.23062408973E+03  0.29201485178E+03  0.41800000000E+01 0.  1.
        -11    1    1    2    0    0  0.36298086324E+02  0.24768995406E+03  0.61979149331E+03  0.66843799981E+03  0.00000000000E+00 0. -1.
         11    1    1    2    0    0 -0.23861594093E+02 -0.42404500995E+00 -0.35119978908E+01  0.24122388274E+02  0.00000000000E+00 0.  1.
</event>
<event>
 8    1  0.6635152E-009  0.9396393E+02  0.7561462E-02  0.1293527E+00
          1   -1    0    0  501    0  0.00000000000E+00  0.00000000000E+00  0.24284073843E+03  0.24284073843E+03  0.00000000000E+00 0. -1.
         -1   -1    0    0    0  501 -0.00000000000E+00 -0.00000000000E+00 -0.48796859483E+02  0.48796859483E+02  0.00000000000E+00 0.  1.
         25    2    1    2    0    0  0.15691809639E+02 -0.51743207626E+00  0.10430046751E+03  0.16362401496E+03  0.12509088746E+03 0.  0.
         23    2    1    2    0    0 -0.15691809639E+02  0.51743207626E+00  0.89743411439E+02  0.12801358295E+03  0.89928287522E+02 0.  0.
          5    1    3    3  502    0  0.20491991905E+02 -0.56187311540E+02  0.85691331117E+02  0.10458208422E+03  0.41800000000E+01 0.  1.
         -5    1    3    3    0  502 -0.48001822657E+01  0.55669879464E+02  0.18609136388E+02  0.59041930748E+02  0.41800000000E+01 0.  1.
        -11    1    4    4    0    0 -0.38522467404E+02 -0.18024095279E+02  0.10961120223E+02  0.43920321744E+02  0.00000000000E+00 0.  1.
         11    1    4    4    0    0  0.22830657765E+02  0.18541527355E+02  0.78782291215E+02  0.84093261203E+02  0.00000000000E+00 0. -1.
</event>
<event>
 8    1  0.6635152E-009  0.1024600E+03  0.7561462E-02  0.1275206E+00
          4   -1    0    0  501    0  0.00000000000E+00  0.00000000000E+00  0.19263797671E+02  0.19263797671E+02  0.00000000000E+00 0. -1.
         -4   -1    0    0    0  501 -0.00000000000E+00 -0.00000000000E+00 -0.82856770971E+03  0.82856770971E+03  0.00000000000E+00 0.  1.
         25    2    1    2    0    0 -0.18911631899E+02  0.31833272153E+02 -0.65859318453E+03  0.67139018400E+03  0.12509512154E+03 0.  0.
         23    2    1    2    0    0  0.18911631899E+02 -0.31833272153E+02 -0.15071072751E+03  0.17644132338E+03  0.83945280816E+02 0.  0.
          5    1    3    3  502    0  0.48039815605E+02 -0.57760026300E+01 -0.17075243130E+03  0.17752479062E+03  0.41800000000E+01 0. -1.
         -5    1    3    3    0  502 -0.66951447504E+02  0.37609274783E+02 -0.48784075322E+03  0.49386539338E+03  0.41800000000E+01 0. -1.
        -11    1    4    4    0    0  0.45552702903E+02 -0.15107878406E+02 -0.43715560107E+02  0.64918001565E+02  0.00000000000E+00 0. -1.
         11    1    4    4    0    0 -0.26641071004E+02 -0.16725393746E+02 -0.10699516741E+03  0.11152332181E+03  0.00000000000E+00 0.  1.
</event>
<event>
 8    1  0.6635152E-009  0.1021692E+03  0.7561462E-02  0.1275799E+00
         -2   -1    0    0    0  501 -0.00000000000E+00  0.00000000000E+00  0.13568371757E+02  0.13568371757E+02  0.00000000000E+00 0.  1.
          2   -1    0    0  501    0  0.00000000000E+00 -0.00000000000E+00 -0.91937570351E+03  0.91937570351E+03  0.00000000000E+00 0. -1.
         25    2    1    2    0    0 -0.28405405237E+01 -0.18104060071E+02 -0.60969784574E+03  0.62266950931E+03  0.12510007622E+03 0.  0.
         23    2    1    2    0    0  0.28405405237E+01  0.18104060071E+02 -0.29610948601E+03  0.31027456595E+03  0.90849616994E+02 0.  0.
          5    1    3    3  502    0 -0.53232639306E+02  0.10709280516E+02 -0.15555341716E+03  0.16481122707E+03  0.41800000000E+01 0. -1.
         -5    1    3    3    0  502  0.50392098782E+02 -0.28813340588E+02 -0.45414442857E+03  0.45785828225E+03  0.41800000000E+01 0. -1.
        -11    1    4    4    0    0 -0.33800481699E+02 -0.19626936641E+02 -0.10423081111E+03  0.11131824284E+03  0.00000000000E+00 0. -1.
         11    1    4    4    0    0  0.36641022223E+02  0.37730996712E+02 -0.19187867490E+03  0.19895632310E+03  0.00000000000E+00 0.  1.
</event>
<event>
 8    1  0.6635152E-009  0.1265000E+03  0.7561462E-02  0.1232743E+00
         -2   -1    0    0    0  501 -0.00000000000E+00  0.00000000000E+00  0.23506600054E+03  0.23506600054E+03  0.00000000000E+00 0.  1.
          2   -1    0    0  501    0  0.00000000000E+00 -0.00000000000E+00 -0.10783925402E+03  0.10783925402E+03  0.00000000000E+00 0. -1.
         25    2    1    2    0    0  0.78688409092E+02 -0.45748457944E+02 -0.98697315012E+01  0.15502346980E+03  0.12510026963E+03 0.  0.
         23    2    1    2    0    0 -0.78688409092E+02  0.45748457944E+02  0.13709647803E+03  0.18788178475E+03  0.90660540614E+02 0.  0.
          5    1    3    3  502    0  0.19348035669E+02 -0.71806512922E+02 -0.38733292370E+02  0.83953928556E+02  0.41800000000E+01 0.  1.
         -5    1    3    3    0  502  0.59340373423E+02  0.26058054978E+02  0.28863560869E+02  0.71069541249E+02  0.41800000000E+01 0.  1.
        -11    1    4    4    0    0 -0.14665871953E+02  0.47308153579E+02  0.10533120706E+03  0.11639507024E+03  0.00000000000E+00 0.  1.
         11    1    4    4    0    0 -0.64022537140E+02 -0.15596956349E+01  0.31765270966E+02  0.71486714513E+02  0.00000000000E+00 0. -1.
</event>
<event>
 7    1  0.6635152E-009  0.5023380E+02  0.7561462E-02  0.1444085E+00
          2   -1    0    0  501    0  0.00000000000E+00  0.00000000000E+00  0.28369553183E+03  0.28369553183E+03  0.00000000000E+00 0. -1.
         -2   -1    0    0    0  501 -0.00000000000E+00 -0.00000000000E+00 -0.30695457585E+02  0.30695457585E+02  0.00000000000E+00 0.  1.
         25    2    1    2    0    0  0.33471878068E+02  0.35508662361E+02  0.19027497188E+03  0.23289802879E+03  0.12512272043E+03 0.  0.
          5    1    3    3  502    0  0.30540820734E+02  0.25034744765E+02  0.20796112622E+03  0.21171864017E+03  0.41800000000E+01 0. -1.
         -5    1    3    3    0  502  0.29310573333E+01  0.10473917596E+02 -0.17686154341E+02  0.21179388619E+02  0.41800000000E+01 0. -1.
        -11    1    1    2    0    0 -0.19104897546E+02 -0.24131317774E+02  0.25378394175E+02  0.39892110732E+02  0.00000000000E+00 0.  1.
         11    1    1    2    0    0 -0.14366980521E+02 -0.11377344587E+02  0.37346708184E+02  0.41600849887E+02  0.00000000000E+00 0. -1.
</event>
<event>
 8    1  0.6635152E-009  0.1601936E+03  0.7561462E-02  0.1188478E+00
         -1   -1    0    0    0  501 -0.00000000000E+00  0.00000000000E+00  0.20202026471E+02  0.20202026471E+02  0.00000000000E+00 0.  1.
          1   -1    0    0  501    0  0.00000000000E+00 -0.00000000000E+00 -0.17739512479E+04  0.17739512479E+04  0.00000000000E+00 0. -1.
         25    2    1    2    0    0 -0.62453087965E+01  0.12845530591E+03 -0.13394721712E+04  0.13514347489E+04  0.12510161295E+03 0.  0.
         23    2    1    2    0    0  0.62453087965E+01 -0.12845530591E+03 -0.41427705025E+03  0.44271852551E+03  0.88512422676E+02 0.  0.
          5    1    3    3  502    0 -0.53915037844E+02  0.82133696210E+02 -0.10403855465E+04  0.10450226472E+04  0.41800000000E+01 0. -1.
         -5    1    3    3    0  502  0.47669729048E+02  0.46321609701E+02 -0.29908662475E+03  0.30641210174E+03  0.41800000000E+01 0. -1.
        -11    1    4    4    0    0  0.43041016148E+02 -0.10021287588E+03 -0.27114278945E+03  0.29225598682E+03  0.00000000000E+00 0. -1.
         11    1    4    4    0    0 -0.36795707352E+02 -0.28242430030E+02 -0.14313426080E+03  0.15046253869E+03  0.00000000000E+00 0.  1.
</event>
<event>
 8    1  0.6635152E-009  0.1093386E+03  0.7561462E-02  0.1261800E+00
          3   -1    0    0  501    0  0.00000000000E+00  0.00000000000E+00  0.17474924987E+03  0.17474924987E+03  0.00000000000E+00 0. -1.
         -3   -1    0    0    0  501 -0.00000000000E+00 -0.00000000000E+00 -0.10192073242E+03  0.10192073242E+03  0.00000000000E+00 0.  1.
         25    2    1    2    0    0 -0.17523602075E+02  0.70406983167E+02  0.66088278130E+02  0.15899981713E+03  0.12509620871E+03 0.  0.
         23    2    1    2    0    0  0.17523602075E+02 -0.70406983167E+02  0.67402393169E+01  0.11767016516E+03  0.92393814914E+02 0.  0.
          5    1    3    3  502    0 -0.43651430063E+02  0.30810019828E+02  0.90731692024E+02  0.10537749763E+03  0.41800000000E+01 0.  1.
         -5    1    3    3    0  502  0.26127827988E+02  0.39596963339E+02 -0.24643413894E+02  0.53622319508E+02  0.41800000000E+01 0.  1.
        -11    1    4    4    0    0  0.50580225108E+02 -0.14681386710E+02  0.40032442792E+01  0.52819771416E+02  0.00000000000E+00 0.  1.
         11    1    4    4    0    0 -0.33056623033E+02 -0.55725596457E+02  0.27369950377E+01  0.64850393743E+02  0.00000000000E+00 0. -1.
</event>
<event>
 8    1  0.6635152E-009  0.1116107E+03  0.7561462E-02  0.1257616E+00
         -2   -1    0    0    0  501 -0.00000000000E+00  0.00000000000E+00  0.41866917774E+02  0.41866917774E+02  0.00000000000E+00 0.  1.
          2   -1    0    0  501    0  0.00000000000E+00 -0.00000000000E+00 -0.36080839024E+03  0.36080839024E+03  0.00000000000E+00 0. -1.
         25    2    1    2    0    0 -0.22547670660E+02 -0.47047083900E+02 -0.22419273617E+03  0.26197943959E+03  0.12509603615E+03 0.  0.
         23    2    1    2    0    0  0.22547670660E+02  0.47047083900E+02 -0.94748736301E+02  0.14069586843E+03  0.89978768644E+02 0.  0.
          5    1    3    3  502    0  0.44253550516E+02  0.11517444448E+02 -0.89164647340E+02  0.10029374355E+03  0.41800000000E+01 0. -1.
         -5    1    3    3    0  502 -0.66801221176E+02 -0.58564528347E+02 -0.13502808883E+03  0.16168569604E+03  0.41800000000E+01 0. -1.
        -11    1    4    4    0    0  0.48495053684E+02  0.26458301707E+02 -0.19679627358E+02  0.58643837647E+02  0.00000000000E+00 0.  1.
         11    1    4    4    0    0 -0.25947383023E+02  0.20588782193E+02 -0.75069108943E+02  0.82052030782E+02  0.00000000000E+00 0. -1.
</event>
<event>
 8    1  0.6635152E-009  0.1488855E+03  0.7561462E-02  0.1201849E+00
         -2   -1    0    0    0  501 -0.00000000000E+00  0.00000000000E+00  0.29202265861E+02  0.29202265861E+02  0.00000000000E+00 0.  1.
          2   -1    0    0  501    0  0.00000000000E+00 -0.00000000000E+00 -0.87858303503E+03  0.87858303503E+03  0.00000000000E+00 0. -1.
         25    2    1    2    0    0 -0.45000466394E+02 -0.10751377455E+03 -0.48125374657E+03  0.51072164229E+03  0.12508866303E+03 0.  0.
         23    2    1    2    0    0  0.45000466394E+02  0.10751377455E+03 -0.36812702260E+03  0.39706365860E+03  0.92508326774E+02 0.  0.
          5    1    3    3  502    0 -0.29994698652E+02 -0.13265962069E+03 -0.33639517687E+03  0.36287386835E+03  0.41800000000E+01 0.  1.
         -5    1    3    3    0  502 -0.15005767743E+02  0.25145846133E+02 -0.14485856970E+03  0.14784777394E+03  0.41800000000E+01 0.  1.
        -11    1    4    4    0    0 -0.12105507641E+02  0.48542292594E+02 -0.23804498419E+03  0.24324537402E+03  0.00000000000E+00 0. -1.
         11    1    4    4    0    0  0.57105974035E+02  0.58971481959E+02 -0.13008203841E+03  0.15381828458E+03  0.00000000000E+00 0.  1.
</event>
<event>
 8    1  0.6635152E-009  0.1205642E+03  0.7561462E-02  0.1242169E+00
         -1   -1    0    0    0  501 -0.00000000000E+00  0.00000000000E+00  0.32178127836E+02  0.32178127836E+02  0.00000000000E+00 0.  1.
          1   -1    0    0  501    0  0.00000000000E+00 -0.00000000000E+00 -0.77101818844E+03  0.77101818844E+03  0.00000000000E+00 0. -1.
         25    2    1    2    0    0  0.12695061319E+02 -0.75473855741E+02 -0.18147787530E+03  0.23332158764E+03  0.12508907448E+03 0.  0.
         23    2    1    2    0    0 -0.12695061319E+02  0.75473855741E+02 -0.55736218530E+03  0.56987472863E+03  0.90813728311E+02 0.  0.
          5    1    3    3  502    0  0.50443198112E+02 -0.68195638226E+02 -0.17444147892E+03  0.19401665722E+03  0.41800000000E+01 0. -1.
         -5    1    3    3    0  502 -0.37748136794E+02 -0.72782175149E+01 -0.70363963777E+01  0.39304930423E+02  0.41800000000E+01 0. -1.
        -11    1    4    4    0    0  0.35318140449E+02  0.54936547563E+02 -0.34975637049E+03  0.35580179033E+03  0.00000000000E+00 0.  1.
         11    1    4    4    0    0 -0.48013201768E+02  0.20537308178E+02 -0.20760581481E+03  0.21407293830E+03  0.00000000000E+00 0. -1.
</event>
<event>
 8    1  0.6635152E-009  0.1181159E+03  0.7561462E-02  0.1246238E+00
         -2   -1    0    0    0  501 -0.00000000000E+00  0.00000000000E+00  0.71555018442E+02  0.71555018442E+02  0.00000000000E+00 0.  1.
          2   -1    0    0  501    0  0.00000000000E+00 -0.00000000000E+00 -0.22511255678E+03  0.22511255678E+03  0.00000000000E+00 0. -1.
         25    2    1    2    0    0  0.44016552948E+02 -0.44432783273E+02 -0.46864721246E+02  0.14749771960E+03  0.12509015159E+03 0.  0.
         23    2    1    2    0    0 -0.44016552948E+02  0.44432783273E+02 -0.10669281710E+03  0.14916985563E+03  0.83405991670E+02 0.  0.
          5    1    3    3  502    0 -0.40932434833E+02 -0.31543814631E+02 -0.29796843774E+02  0.59797999647E+02  0.41800000000E+01 0. -1.
         -5    1    3    3    0  502  0.84948987781E+02 -0.12888968642E+02 -0.17067877472E+02  0.87699719948E+02  0.41800000000E+01 0. -1.
        -11    1    4    4    0    0  0.20865377258E+02  0.20379325229E+02 -0.56834970813E+02  0.63881881408E+02  0.00000000000E+00 0. -1.
         11    1    4    4    0    0 -0.64881930206E+02  0.24053458044E+02 -0.49857846282E+02  0.85287974223E+02  0.00000000000E+00 0.  1.
</event>
<event>
 8    1  0.6635152E-009  0.1766529E+03  0.7561462E-02  0.1171082E+00
         -1   -1    0    0    0  501 -0.00000000000E+00  0.00000000000E+00  0.54265756601E+03  0.54265756601E+03  0.00000000000E+00 0.  1.
          1   -1    0    0  501    0  0.00000000000E+00 -0.00000000000E+00 -0.78241970634E+02  0.78241970634E+02  0.00000000000E+00 0. -1.
         25    2    1    2    0    0 -0.14813621369E+03  0.33207422481E+02  0.37241721842E+03  0.42117553499E+03  0.12508867247E+03 0.  0.
         23    2    1    2    0    0  0.14813621369E+03 -0.33207422481E+02  0.91998376957E+02  0.19972400166E+03  0.91536357582E+02 0.  0.
          5    1    3    3  502    0 -0.16780144918E+02  0.52302319216E+02  0.17321561669E+03  0.18176421024E+03  0.41800000000E+01 0.  1.
         -5    1    3    3    0  502 -0.13135606878E+03 -0.19094896735E+02  0.19920160172E+03  0.23941132474E+03  0.41800000000E+01 0.  1.
        -11    1    4    4    0    0  0.33518349337E+02 -0.38035419822E+02  0.63982890613E+02  0.81633223595E+02  0.00000000000E+00 0. -1.
         11    1    4    4    0    0  0.11461786436E+03  0.48279973403E+01  0.28015486344E+02  0.11809077806E+03  0.00000000000E+00 0.  1.
</event>
<event>
 8    1  0.6635152E-009  0.1085510E+03  0.7561462E-02  0.1263277E+00
          1   -1    0    0  501    0  0.00000000000E+00  0.00000000000E+00  0.18242397871E+03  0.18242397871E+03  0.00000000000E+00 0. -1.
         -1   -1    0    0    0  501 -0.00000000000E+00 -0.00000000000E+00 -0.98301480075E+02  0.98301480075E+02  0.00000000000E+00 0.  1.
         25    2    1    2    0    0 -0.17391952466E+02 -0.35868477938E+02  0.12420970686E+03  0.18073223270E+03  0.12508821262E+03 0.  0.
         23    2    1    2    0    0  0.17391952466E+02  0.35868477938E+02 -0.40087208229E+02  0.99993226086E+02  0.82478077568E+02 0.  0.
          5    1    3    3  502    0 -0.54471500562E+02 -0.62655460065E+02  0.63516840925E+02  0.10461698013E+03  0.41800000000E+01 0. -1.
         -5    1    3    3    0  502  0.37079548096E+02  0.26786982127E+02  0.60692865937E+02  0.76115252572E+02  0.41800000000E+01 0. -1.
        -11    1    4    4    0    0 -0.15699971143E+02  0.49739485794E+02 -0.37060613005E+02  0.63984330716E+02  0.00000000000E+00 0.  1.
         11    1    4    4    0    0  0.33091923609E+02 -0.13871007856E+02 -0.30265952238E+01  0.36008895370E+02  0.00000000000E+00 0. -1.
</event>
<event>
 8    1  0.6635152E-009  0.9342869E+02  0.7561462E-02  0.1294755E+00
         -2   -1    0    0    0  501 -0.00000000000E+00  0.00000000000E+00  0.21658983413E+02  0.21658983413E+02  0.00000000000E+00 0. -1.
          2   -1    0    0  501    0  0.00000000000E+00 -0.00000000000E+00 -0.61252982994E+03  0.61252982994E+03  0.00000000000E+00 0.  1.
         25    2    1    2    0    0 -0.27678123537E+02  0.21596364237E+02 -0.28904056576E+03  0.31689890776E+03  0.12509191665E+03 0.  0.
         23    2    1    2    0    0  0.27678123537E+02 -0.21596364237E+02 -0.30183028076E+03  0.31728990559E+03  0.91317491940E+02 0.  0.
          5    1    3    3  502    0 -0.58231316460E+02  0.26656738072E+02 -0.27543851752E+03  0.28281675558E+03  0.41800000000E+01 0.  1.
         -5    1    3    3    0  502  0.30553192922E+02 -0.50603738350E+01 -0.13602048245E+02  0.34082152185E+02  0.41800000000E+01 0.  1.
        -11    1    4    4    0    0  0.12521782052E+02  0.32721410023E+02 -0.17522466488E+03  0.17869294581E+03  0.00000000000E+00 0.  1.
         11    1    4    4    0    0  0.15156341485E+02 -0.54317774260E+02 -0.12660561588E+03  0.13859695978E+03  0.00000000000E+00 0. -1.
</event>
<event>
 8    1  0.6635152E-009  0.9245614E+02  0.7561462E-02  0.1297010E+00
         -1   -1    0    0    0  501 -0.00000000000E+00  0.00000000000E+00  0.36605132145E+02  0.36605132145E+02  0.00000000000E+00 0.  1.
          1   -1    0    0  501    0  0.00000000000E+00 -0.00000000000E+00 -0.51339297500E+03  0.51339297500E+03  0.00000000000E+00 0. -1.
         25    2    1    2    0    0 -0.56549226173E+02 -0.29983571765E+01 -0.16147709290E+03  0.21196499862E+03  0.12508998354E+03 0.  0.
         23    2    1    2    0    0  0.56549226173E+02  0.29983571765E+01 -0.31531074995E+03  0.33803310852E+03  0.10788284524E+03 0.  0.
          5    1    3    3  502    0  0.30459213968E+01  0.14693755297E+02  0.16921027627E+02  0.22999514295E+02  0.41800000000E+01 0. -1.
         -5    1    3    3    0  502 -0.59595147570E+02 -0.17692112474E+02 -0.17839812053E+03  0.18896548433E+03  0.41800000000E+01 0. -1.
        -11    1    4    4    0    0  0.54606856839E+02 -0.37653628996E+02 -0.10782536848E+03  0.12659389669E+03  0.00000000000E+00 0.  1.
         11    1    4    4    0    0  0.19423693337E+01  0.40651986172E+02 -0.20748538147E+03  0.21143921183E+03  0.00000000000E+00 0. -1.
</event>
<event>
 8    1  0.6635152E-009  0.8225412E+02  0.7561462E-02  0.1322774E+00
         -2   -1    0    0    0  501 -0.00000000000E+00  0.00000000000E+00  0.22573312387E+02  0.22573312387E+02  0.00000000000E+00 0.  1.
          2   -1    0    0  501    0  0.00000000000E+00 -0.00000000000E+00 -0.68000064757E+03  0.68000064757E+03  0.00000000000E+00 0. -1.
         25    2    1    2    0    0  0.14080702726E+02 -0.49503921960E+02 -0.38614175428E+03  0.40914693727E+03  0.12508739905E+03 0.  0.
         23    2    1    2    0    0 -0.14080702726E+02  0.49503921960E+02 -0.27128558091E+03  0.29342702269E+03  0.99270573478E+02 0.  0.
          5    1    3    3  502    0  0.11303039211E+02  0.67962493102E+01  0.44137442478E+01  0.14522439133E+02  0.41800000000E+01 0.  1.
         -5    1    3    3    0  502  0.27776635144E+01 -0.56300171270E+02 -0.39055549852E+03  0.39462449813E+03  0.41800000000E+01 0.  1.
        -11    1    4    4    0    0 -0.37121991302E+02 -0.25646342595E+01 -0.19340494595E+03  0.19695200609E+03  0.00000000000E+00 0. -1.
         11    1    4    4    0    0  0.23041288576E+02  0.52068556219E+02 -0.77880634962E+02  0.96475016600E+02  0.00000000000E+00 0.  1.
</event>
<event>
 8    1  0.6635152E-009  0.1113972E+03  0.7561462E-02  0.1258004E+00
         -1   -1    0    0    0  501 -0.00000000000E+00  0.00000000000E+00  0.49149762033E+02  0.49149762033E+02  0.00000000000E+00 0.  1.
          1   -1    0    0  501    0  0.00000000000E+00 -0.00000000000E+00 -0.61137147938E+03  0.61137147938E+03  0.00000000000E+00 0. -1.
         25    2    1    2    0    0  0.80447693951E+02  0.17979624963E+02 -0.49144426791E+03  0.51377141412E+03  0.12509396118E+03 0.  0.
         23    2    1    2    0    0 -0.80447693951E+02 -0.17979624963E+02 -0.70777449434E+02  0.14674982730E+03  0.98645659241E+02 0.  0.
          5    1    3    3  502    0  0.18126490668E+02  0.56953886352E+02 -0.34163029288E+03  0.34684440928E+03  0.41800000000E+01 0.  1.
         -5    1    3    3    0  502  0.62321203283E+02 -0.38974261388E+02 -0.14981397503E+03  0.16692700484E+03  0.41800000000E+01 0.  1.
        -11    1    4    4    0    0 -0.89254348422E+01 -0.15264570344E+02 -0.73030403686E+02  0.75140603920E+02  0.00000000000E+00 0. -1.
         11    1    4    4    0    0 -0.71522259109E+02 -0.27150546194E+01  0.22529542521E+01  0.71609223376E+02  0.00000000000E+00 0.  1.
</event>
<event>
 8    1  0.6635152E-009  0.9308643E+02  0.7561462E-02  0.1295545E+00
         -2   -1    0    0    0  501 -0.00000000000E+00  0.00000000000E+00  0.76029471206E+02  0.76029471206E+02  0.00000000000E+00 0.  1.
          2   -1    0    0  501    0  0.00000000000E+00 -0.00000000000E+00 -0.23113672764E+03  0.23113672764E+03  0.00000000000E+00 0. -1.
         25    2    1    2    0    0  0.73782445472E+02 -0.30691210488E+00 -0.56900726662E+02  0.15597750184E+03  0.12508934780E+03 0.  0.
         23    2    1    2    0    0 -0.73782445472E+02  0.30691210488E+00 -0.98206529774E+02  0.15118869700E+03  0.88145085833E+02 0.  0.
          5    1    3    3  502    0  0.34111815692E+02 -0.11346779985E+02 -0.93792427783E+02  0.10053286674E+03  0.41800000000E+01 0.  1.
         -5    1    3    3    0  502  0.39670629780E+02  0.11039867880E+02  0.36891701121E+02  0.55444635102E+02  0.41800000000E+01 0.  1.
        -11    1    4    4    0    0 -0.89589601134E+02  0.98460457889E+01 -0.58638755484E+02  0.10752555461E+03  0.00000000000E+00 0.  1.
         11    1    4    4    0    0  0.15807155662E+02 -0.95391336840E+01 -0.39567774291E+02  0.43663142396E+02  0.00000000000E+00 0. -1.
</event>
<event>
 8    1  0.6635152E-009  0.1081758E+03  0.7561462E-02  0.1263986E+00
          1   -1    0    0  501    0  0.00000000000E+00  0.00000000000E+00  0.73444390772E+03  0.73444390772E+03  0.00000000000E+00 0. -1.
         -1   -1    0    0    0  501 -0.00000000000E+00 -0.00000000000E+00 -0.74588379015E+02  0.74588379015E+02  0.00000000000E+00 0.  1.
         25    2    1    2    0    0 -0.68148306177E+01  0.84526015785E+02  0.14500346240E+02  0.15181272996E+03  0.12508299515E+03 0.  0.
         23    2    1    2    0    0  0.68148306177E+01 -0.84526015785E+02  0.64535518246E+03  0.65721955677E+03  0.90901842713E+02 0.  0.
          5    1    3    3  502    0 -0.18312262182E+02  0.72479994119E+02 -0.46703674267E+02  0.88246212858E+02  0.41800000000E+01 0.  1.
         -5    1    3    3    0  502  0.11497431564E+02  0.12046021666E+02  0.61204020507E+02  0.63566517105E+02  0.41800000000E+01 0.  1.
        -11    1    4    4    0    0 -0.23235318214E+02  0.98699156761E+01  0.12833108483E+03  0.13079052940E+03  0.00000000000E+00 0.  1.
         11    1    4    4    0    0  0.30050148832E+02 -0.94395931461E+02  0.51702409764E+03  0.52642902737E+03  0.00000000000E+00 0. -1.
</event>
<event>
 8    1  0.6635152E-009  0.9867715E+02  0.7561462E-02  0.1283103E+00
          1   -1    0    0  501    0  0.00000000000E+00  0.00000000000E+00  0.39127902838E+02  0.39127902838E+02  0.00000000000E+00 0. -1.
         -1   -1    0    0    0  501 -0.00000000000E+00 -0.00000000000E+00 -0.32766026123E+03  0.32766026123E+03  0.00000000000E+00 0.  1.
         25    2    1    2    0    0 -0.54119932110E+01 -0.20411388880E+02 -0.20655268624E+03  0.24239789076E+03  0.12508721271E+03 0.  0.
         23    2    1    2    0    0  0.54119932110E+01  0.20411388880E+02 -0.81979672147E+02  0.12439027331E+03  0.91139228557E+02 0.  0.
          5    1    3    3  502    0  0.58493827463E+02 -0.84255232848E+00 -0.11345833298E+03  0.12772041133E+03  0.41800000000E+01 0. -1.
         -5    1    3    3    0  502 -0.63905820674E+02 -0.19568836552E+02 -0.93094353258E+02  0.11467747943E+03  0.41800000000E+01 0. -1.
        -11    1    4    4    0    0  0.24103824062E+02 -0.17286940605E+02  0.27484016008E+01  0.29789030888E+02  0.00000000000E+00 0. -1.
         11    1    4    4    0    0 -0.18691830851E+02  0.37698329485E+02 -0.84728073748E+02  0.94601242421E+02  0.00000000000E+00 0.  1.
</event>
<event>
 8    1  0.6635152E-009  0.2126942E+03  0.7561462E-02  0.1139450E+00
         -1   -1    0    0    0  501 -0.00000000000E+00  0.00000000000E+00  0.16346731076E+03  0.16346731076E+03  0.00000000000E+00 0.  1.
          1   -1    0    0  501    0  0.00000000000E+00 -0.00000000000E+00 -0.41464593954E+03  0.41464593954E+03  0.00000000000E+00 0. -1.
         25    2    1    2    0    0 -0.57319738850E+02  0.17796098904E+03  0.32000185952E+02  0.22721557399E+03  0.12508892469E+03 0.  0.
         23    2    1    2    0    0  0.57319738850E+02 -0.17796098904E+03 -0.28317881474E+03  0.35089767631E+03  0.89349158046E+02 0.  0.
          5    1    3    3  502    0  0.75452574368E+01  0.15095199167E+03  0.33920271076E+01  0.15123628184E+03  0.41800000000E+01 0. -1.
         -5    1    3    3    0  502 -0.64864996287E+02  0.27008997375E+02  0.28608158844E+02  0.75979292146E+02  0.41800000000E+01 0. -1.
        -11    1    4    4    0    0  0.20965821201E+02 -0.16324042783E+03 -0.20057849460E+03  0.25945854280E+03  0.00000000000E+00 0.  1.
         11    1    4    4    0    0  0.36353917649E+02 -0.14720561214E+02 -0.82600320134E+02  0.91439133510E+02  0.00000000000E+00 0. -1.
</event>
<event>
 8    1  0.6635152E-009  0.2382429E+03  0.7561462E-02  0.1120969E+00
         -1   -1    0    0    0  501 -0.00000000000E+00  0.00000000000E+00  0.23807639064E+03  0.23807639064E+03  0.00000000000E+00 0.  1.
          1   -1    0    0  501    0  0.00000000000E+00 -0.00000000000E+00 -0.26168584178E+03  0.26168584178E+03  0.00000000000E+00 0. -1.
         25    2    1    2    0    0  0.13082535831E+03 -0.17941056305E+03 -0.43833682530E+02  0.25859857171E+03  0.12509358520E+03 0.  0.
         23    2    1    2    0    0 -0.13082535831E+03  0.17941056305E+03  0.20224231387E+02  0.24116366071E+03  0.91910103916E+02 0.  0.
          5    1    3    3  502    0  0.13505313273E+03 -0.19519393096E+03 -0.45256842235E+02  0.24167265777E+03  0.41800000000E+01 0.  1.
         -5    1    3    3    0  502 -0.42277744215E+01  0.15783367915E+02  0.14231597052E+01  0.16925913944E+02  0.41800000000E+01 0.  1.
        -11    1    4    4    0    0 -0.37979701973E+02  0.45401031688E+02  0.47465898875E+02  0.75873071615E+02  0.00000000000E+00 0.  1.
         11    1    4    4    0    0 -0.92845656336E+02  0.13400953136E+03 -0.27241667488E+02  0.16529058909E+03  0.00000000000E+00 0. -1.
</event>
<event>
 8    1  0.6635152E-009  0.1371832E+03  0.7561462E-02  0.1217170E+00
          2   -1    0    0  501    0  0.00000000000E+00  0.00000000000E+00  0.18495342047E+03  0.18495342047E+03  0.00000000000E+00 0. -1.
         -2   -1    0    0    0  501 -0.00000000000E+00 -0.00000000000E+00 -0.10273947547E+03  0.10273947547E+03  0.00000000000E+00 0.  1.
         25    2    1    2    0    0  0.58773303066E+02 -0.60642918877E+02  0.47737429492E+02  0.15829687557E+03  0.12508866407E+03 0.  0.
         23    2    1    2    0    0 -0.58773303066E+02  0.60642918877E+02  0.34476515510E+02  0.12939602036E+03  0.91776005586E+02 0.  0.
          5    1    3    3  502    0  0.27514726909E+02  0.37720103044E+02  0.76500593074E+01  0.47495917487E+02  0.41800000000E+01 0.  1.
         -5    1    3    3    0  502  0.31258576157E+02 -0.98363021921E+02  0.40087370185E+02  0.11080095809E+03  0.41800000000E+01 0.  1.
        -11    1    4    4    0    0  0.19686768897E+02  0.37566371106E+02  0.62036949945E+01  0.42863585235E+02  0.00000000000E+00 0.  1.
         11    1    4    4    0    0 -0.78460071963E+02  0.23076547771E+02  0.28272820515E+02  0.86532435129E+02  0.00000000000E+00 0. -1.
</event>
<event>
 8    1  0.6635152E-009  0.1670335E+03  0.7561462E-02  0.1180977E+00
          1   -1    0    0  501    0  0.00000000000E+00  0.00000000000E+00  0.78927943767E+03  0.78927943767E+03  0.00000000000E+00 0. -1.
         -1   -1    0    0    0  501 -0.00000000000E+00 -0.00000000000E+00 -0.45317255384E+02  0.45317255384E+02  0.00000000000E+00 0.  1.
         25    2    1    2    0    0 -0.31581208728E+02 -0.12493553533E+03  0.57798307819E+03  0.60524318679E+03  0.12509442735E+03 0.  0.
         23    2    1    2    0    0  0.31581208728E+02  0.12493553533E+03  0.16597910410E+03  0.22935350626E+03  0.91911408995E+02 0.  0.
          5    1    3    3  502    0  0.16253351596E+02 -0.12944095490E+03  0.44684513344E+03  0.46551818216E+03  0.41800000000E+01 0. -1.
         -5    1    3    3    0  502 -0.47834560323E+02  0.45054195641E+01  0.13113794475E+03  0.13972500463E+03  0.41800000000E+01 0. -1.
        -11    1    4    4    0    0  0.55201500815E+02  0.42798921615E+02  0.96956648251E+02  0.11949705027E+03  0.00000000000E+00 0. -1.
         11    1    4    4    0    0 -0.23620292087E+02  0.82136613717E+02  0.69022455845E+02  0.10985645599E+03  0.00000000000E+00 0.  1.
</event>
<event>
 8    1  0.6635152E-009  0.2916483E+03  0.7561462E-02  0.1089492E+00
          1   -1    0    0  501    0  0.00000000000E+00  0.00000000000E+00  0.15599722233E+03  0.15599722233E+03  0.00000000000E+00 0. -1.
         -1   -1    0    0    0  501 -0.00000000000E+00 -0.00000000000E+00 -0.63492832967E+03  0.63492832967E+03  0.00000000000E+00 0.  1.
         25    2    1    2    0    0  0.27718732421E+03  0.30120595708E+02 -0.36497792281E+03  0.47602324208E+03  0.12509668209E+03 0.  0.
         23    2    1    2    0    0 -0.27718732421E+03 -0.30120595708E+02 -0.11395318453E+03  0.31490230991E+03  0.91858987234E+02 0.  0.
          5    1    3    3  502    0  0.93348924708E+02 -0.46523631998E+02 -0.15202838264E+03  0.18441413071E+03  0.41800000000E+01 0. -1.
         -5    1    3    3    0  502  0.18383839950E+03  0.76644227707E+02 -0.21294954017E+03  0.29160911136E+03  0.41800000000E+01 0. -1.
        -11    1    4    4    0    0 -0.22485925572E+03 -0.33091681297E+02 -0.12772426424E+03  0.26071101230E+03  0.00000000000E+00 0.  1.
         11    1    4    4    0    0 -0.52328068486E+02  0.29710855885E+01  0.13771079712E+02  0.54191297618E+02  0.00000000000E+00 0. -1.
</event>
<event>
 8    1  0.6635152E-009  0.2457936E+03  0.7561462E-02  0.1115992E+00
          1   -1    0    0  501    0  0.00000000000E+00  0.00000000000E+00  0.92582697732E+03  0.92582697732E+03  0.00000000000E+00 0. -1.
         -1   -1    0    0    0  501 -0.00000000000E+00 -0.00000000000E+00 -0.70204376970E+02  0.70204376970E+02  0.00000000000E+00 0.  1.
         25    2    1    2    0    0 -0.21442954201E+03  0.79411951522E+02  0.48865085289E+03  0.55381701611E+03  0.12508934716E+03 0.  0.
         23    2    1    2    0    0  0.21442954201E+03 -0.79411951522E+02  0.36697174746E+03  0.44221433818E+03  0.92730636384E+02 0.  0.
          5    1    3    3  502    0 -0.47284100998E+02  0.79372491762E+02  0.19728624723E+03  0.21788784822E+03  0.41800000000E+01 0. -1.
         -5    1    3    3    0  502 -0.16714544102E+03  0.39459760148E-01  0.29136460565E+03  0.33592916789E+03  0.41800000000E+01 0. -1.
        -11    1    4    4    0    0  0.92132628860E+02 -0.13924704008E+02  0.22588707404E+03  0.24435074975E+03  0.00000000000E+00 0. -1.
         11    1    4    4    0    0  0.12229691315E+03 -0.65487247513E+02  0.14108467342E+03  0.19786358843E+03  0.00000000000E+00 0.  1.
</event>
<event>
 8    1  0.6635152E-009  0.1188052E+03  0.7561462E-02  0.1245081E+00
         -2   -1    0    0    0  501 -0.00000000000E+00  0.00000000000E+00  0.13413516677E+02  0.13413516677E+02  0.00000000000E+00 0.  1.
          2   -1    0    0  501    0  0.00000000000E+00 -0.00000000000E+00 -0.16987666465E+04  0.16987666465E+04  0.00000000000E+00 0. -1.
         25    2    1    2    0    0  0.70667301244E+02  0.22040850772E+02 -0.13682918777E+04  0.13759904055E+04  0.12508903571E+03 0.  0.
         23    2    1    2    0    0 -0.70667301244E+02 -0.22040850772E+02 -0.31706125214E+03  0.33618975770E+03  0.83761858913E+02 0.  0.
          5    1    3    3  502    0  0.21805518754E+02  0.69868016970E+02 -0.85704906504E+03  0.86017881439E+03  0.41800000000E+01 0. -1.
         -5    1    3    3    0  502  0.48861782490E+02 -0.47827166198E+02 -0.51124281262E+03  0.51581159106E+03  0.41800000000E+01 0. -1.
        -11    1    4    4    0    0  0.11026110534E+02 -0.59726299929E+01 -0.54951582836E+01  0.13691025787E+02  0.00000000000E+00 0.  1.
         11    1    4    4    0    0 -0.81693411778E+02 -0.16068220779E+02 -0.31156609385E+03  0.32249873191E+03  0.00000000000E+00 0. -1.
</event>
<event>
 8    1  0.6635152E-009  0.6246547E+02  0.7561462E-02  0.1387767E+00
          1   -1    0    0  501    0  0.00000000000E+00  0.00000000000E+00  0.41934681196E+03  0.41934681196E+03  0.00000000000E+00 0. -1.
         -1   -1    0    0    0  501 -0.00000000000E+00 -0.00000000000E+00 -0.32663921901E+02  0.32663921901E+02  0.00000000000E+00 0.  1.
         25    2    1    2    0    0  0.90567179723E+01  0.30776515282E+02  0.16224206634E+03  0.20736201304E+03  0.12508916152E+03 0.  0.
         23    2    1    2    0    0 -0.90567179723E+01 -0.30776515282E+02  0.22444082371E+03  0.24464872082E+03  0.91924399450E+02 0.  0.
          5    1    3    3  502    0  0.40002187693E+01  0.46698845268E+02  0.29569620225E+01  0.47148700130E+02  0.41800000000E+01 0.  1.
         -5    1    3    3    0  502  0.50564992030E+01 -0.15922329985E+02  0.15928510432E+03  0.16021331291E+03  0.41800000000E+01 0.  1.
        -11    1    4    4    0    0  0.14481279772E+02 -0.33943979278E+02  0.21647526727E+03  0.21959836642E+03  0.00000000000E+00 0. -1.
         11    1    4    4    0    0 -0.23537997744E+02  0.31674639955E+01  0.79655564399E+01  0.25050354396E+02  0.00000000000E+00 0.  1.
</event>
<event>
 8    1  0.6635152E-009  0.6963480E+02  0.7561462E-02  0.1361339E+00
          1   -1    0    0  501    0  0.00000000000E+00  0.00000000000E+00  0.54323372331E+02  0.54323372331E+02  0.00000000000E+00 0. -1.
         -1   -1    0    0    0  501 -0.00000000000E+00 -0.00000000000E+00 -0.29747855496E+03  0.29747855496E+03  0.00000000000E+00 0.  1.
         25    2    1    2    0    0 -0.17123403881E+02 -0.45878288550E+02 -0.74334461455E+02  0.15352932695E+03  0.12509042231E+03 0.  0.
         23    2    1    2    0    0  0.17123403881E+02  0.45878288550E+02 -0.16882072117E+03  0.19827260033E+03  0.91725458986E+02 0.  0.
          5    1    3    3  502    0 -0.21077763658E+02 -0.19045563755E+02 -0.10704647133E+03  0.11083061420E+03  0.41800000000E+01 0. -1.
         -5    1    3    3    0  502  0.39543597771E+01 -0.26832724795E+02  0.32712009872E+02  0.42698712756E+02  0.41800000000E+01 0. -1.
        -11    1    4    4    0    0 -0.12608230995E+02  0.51356042758E+02 -0.40967146530E+02  0.66893330844E+02  0.00000000000E+00 0. -1.
         11    1    4    4    0    0  0.29731634876E+02 -0.54777542081E+01 -0.12785357464E+03  0.13137926949E+03  0.00000000000E+00 0.  1.
</event>
<event>
 8    1  0.6635152E-009  0.4349997E+02  0.7561462E-02  0.1483929E+00
          1   -1    0    0  501    0  0.00000000000E+00  0.00000000000E+00  0.14225123813E+03  0.14225123813E+03  0.00000000000E+00 0. -1.
         -1   -1    0    0    0  501 -0.00000000000E+00 -0.00000000000E+00 -0.17652606350E+03  0.17652606350E+03  0.00000000000E+00 0.  1.
         25    2    1    2    0    0 -0.36890155025E+02 -0.17434116282E+02  0.92058811709E+02  0.16058136466E+03  0.12508684149E+03 0.  0.
         23    2    1    2    0    0  0.36890155025E+02  0.17434116282E+02 -0.12633363708E+03  0.15819593696E+03  0.86028685136E+02 0.  0.
          5    1    3    3  502    0 -0.12596564067E+02 -0.77960738783E+01  0.12064533854E+03  0.12162328027E+03  0.41800000000E+01 0.  1.
         -5    1    3    3    0  502 -0.24293590958E+02 -0.96380424033E+01 -0.28586526828E+02  0.38958084387E+02  0.41800000000E+01 0.  1.
        -11    1    4    4    0    0  0.99022195959E+01  0.15091847085E+02  0.90056032602E+01  0.20172225744E+02  0.00000000000E+00 0. -1.
         11    1    4    4    0    0  0.26987935429E+02  0.23422691961E+01 -0.13533924034E+03  0.13802371122E+03  0.00000000000E+00 0.  1.
</event>
<event>
 8    1  0.6635152E-009  0.1237009E+03  0.7561462E-02  0.1237114E+00
          2   -1    0    0  501    0  0.00000000000E+00  0.00000000000E+00  0.79333626488E+03  0.79333626488E+03  0.00000000000E+00 0.  1.
         -2   -1    0    0    0  501 -0.00000000000E+00 -0.00000000000E+00 -0.27551477480E+02  0.27551477480E+02  0.00000000000E+00 0. -1.
         25    2    1    2    0    0  0.43068041540E+02 -0.52144769342E+02  0.62073967450E+03  0.63681916067E+03  0.12508783605E+03 0.  0.
         23    2    1    2    0    0 -0.43068041540E+02  0.52144769342E+02  0.14504511290E+03  0.18406858169E+03  0.90935278180E+02 0.  0.
          5    1    3    3  502    0 -0.40470367627E+02 -0.37678616750E+02  0.19671443660E+03  0.20438094526E+03  0.41800000000E+01 0.  1.
         -5    1    3    3    0  502  0.83538409166E+02 -0.14466152592E+02  0.42402523790E+03  0.43243821542E+03  0.41800000000E+01 0.  1.
        -11    1    4    4    0    0 -0.57596318477E+02  0.50932864774E+01  0.10779415235E+03  0.12232275647E+03  0.00000000000E+00 0.  1.
         11    1    4    4    0    0  0.14528276937E+02  0.47051482865E+02  0.37250960553E+02  0.61745825225E+02  0.00000000000E+00 0. -1.
</event>
<event>
 8    1  0.6635152E-009  0.1155566E+03  0.7561462E-02  0.1250613E+00
         -1   -1    0    0    0  501 -0.00000000000E+00  0.00000000000E+00  0.21468453796E+03  0.21468453796E+03  0.00000000000E+00 0.  1.
          1   -1    0    0  501    0  0.00000000000E+00 -0.00000000000E+00 -0.11186021632E+03  0.11186021632E+03  0.00000000000E+00 0. -1.
         25    2    1    2    0    0  0.32837588062E+02  0.10520873640E+03  0.60192156093E+02  0.17725334660E+03  0.12509383606E+03 0.  0.
         23    2    1    2    0    0 -0.32837588062E+02 -0.10520873640E+03  0.42632165543E+02  0.14929140767E+03  0.91231778791E+02 0.  0.
          5    1    3    3  502    0  0.36211581744E+02  0.70040383632E+02 -0.26707861155E+02  0.83352961790E+02  0.41800000000E+01 0. -1.
         -5    1    3    3    0  502 -0.33739936820E+01  0.35168352770E+02  0.86900017248E+02  0.93900384810E+02  0.41800000000E+01 0. -1.
        -11    1    4    4    0    0 -0.39918177507E+02 -0.69265741297E+02  0.67817690476E+02  0.10483531349E+03  0.00000000000E+00 0.  1.
         11    1    4    4    0    0  0.70805894451E+01 -0.35942995105E+02 -0.25185524933E+02  0.44456094184E+02  0.00000000000E+00 0. -1.
</event>
<event>
 8    1  0.6635152E-009  0.1998388E+03  0.7561462E-02  0.1149875E+00
          2   -1    0    0  501    0  0.00000000000E+00  0.00000000000E+00  0.78552966498E+03  0.78552966498E+03  0.00000000000E+00 0. -1.
         -2   -1    0    0    0  501 -0.00000000000E+00 -0.00000000000E+00 -0.59077043674E+02  0.59077043674E+02  0.00000000000E+00 0.  1.
         25    2    1    2    0    0  0.31186110124E+02  0.18660313820E+03  0.31267299274E+03  0.38627083631E+03  0.12508978353E+03 0.  0.
         23    2    1    2    0    0 -0.31186110124E+02 -0.18660313820E+03  0.41377962857E+03  0.45833587235E+03  0.55361414477E+02 0.  0.
          5    1    3    3  502    0 -0.20750528593E+02  0.13576684234E+03  0.12808384543E+03  0.18784611728E+03  0.41800000000E+01 0. -1.
         -5    1    3    3    0  502  0.51936638717E+02  0.50836295853E+02  0.18458914731E+03  0.19842471903E+03  0.41800000000E+01 0. -1.
        -11    1    4    4    0    0 -0.29646672355E+02 -0.15354959386E+03  0.38060113711E+03  0.41147737304E+03  0.00000000000E+00 0.  1.
         11    1    4    4    0    0 -0.15394377695E+01 -0.33053544336E+02  0.33178491465E+02  0.46858499311E+02  0.00000000000E+00 0. -1.
</event>
<event>
 8    1  0.6635152E-009  0.9571629E+02  0.7561462E-02  0.1289571E+00
          2   -1    0    0  501    0  0.00000000000E+00  0.00000000000E+00  0.20720096421E+03  0.20720096421E+03  0.00000000000E+00 0.  1.
         -2   -1    0    0    0  501 -0.00000000000E+00 -0.00000000000E+00 -0.85473934784E+02  0.85473934784E+02  0.00000000000E+00 0. -1.
         25    2    1    2    0    0 -0.27831334970E+02  0.48601877880E+02  0.99109592360E+01  0.13741395153E+03  0.12509053211E+03 0.  0.
         23    2    1    2    0    0  0.27831334970E+02 -0.48601877880E+02  0.11181607019E+03  0.15526094746E+03  0.92013056222E+02 0.  0.
          5    1    3    3  502    0 -0.54889467285E+02  0.64279121623E+02 -0.27023138644E+02  0.88839076523E+02  0.41800000000E+01 0. -1.
         -5    1    3    3    0  502  0.27058132314E+02 -0.15677243743E+02  0.36934097880E+02  0.48574875006E+02  0.41800000000E+01 0. -1.
        -11    1    4    4    0    0  0.36022080260E+02 -0.12338677629E+02  0.69194041073E+00  0.38082962246E+02  0.00000000000E+00 0. -1.
         11    1    4    4    0    0 -0.81907452897E+01 -0.36263200251E+02  0.11112412978E+03  0.11717798522E+03  0.00000000000E+00 0.  1.
</event>
<event>
 8    1  0.6635152E-009  0.1056085E+03  0.7561462E-02  0.1268925E+00
         -2   -1    0    0    0  501 -0.00000000000E+00  0.00000000000E+00  0.12151104658E+03  0.12151104658E+03  0.00000000000E+00 0.  1.
          2   -1    0    0  501    0  0.00000000000E+00 -0.00000000000E+00 -0.12634095142E+03  0.12634095142E+03  0.00000000000E+00 0. -1.
         25    2    1    2    0    0  0.11842030681E+02  0.98691073805E+01 -0.18491459210E+02  0.12738642684E+03  0.12509090577E+03 0.  0.
         23    2    1    2    0    0 -0.11842030681E+02 -0.98691073805E+01  0.13661554364E+02  0.12046557116E+03  0.11869154476E+03 0.  0.
          5    1    3    3  502    0  0.62456672403E+02  0.24734565379E+02 -0.29248181765E+02  0.73386396483E+02  0.41800000000E+01 0. -1.
         -5    1    3    3    0  502 -0.50614641722E+02 -0.14865457999E+02  0.10756722555E+02  0.54000030355E+02  0.41800000000E+01 0. -1.
        -11    1    4    4    0    0 -0.31765337346E+02  0.31711996544E+02 -0.32349330764E+02  0.55327810208E+02  0.00000000000E+00 0. -1.
         11    1    4    4    0    0  0.19923306666E+02 -0.41581103925E+02  0.46010885128E+02  0.65137760956E+02  0.00000000000E+00 0.  1.
</event>
<event>
 8    1  0.6635152E-009  0.1732197E+03  0.7561462E-02  0.1174531E+00
         -2   -1    0    0    0  501 -0.00000000000E+00  0.00000000000E+00  0.53594877227E+02  0.53594877227E+02  0.00000000000E+00 0.  1.
          2   -1    0    0  501    0  0.00000000000E+00 -0.00000000000E+00 -0.63366707195E+03  0.63366707195E+03  0.00000000000E+00 0. -1.
         25    2    1    2    0    0  0.78768653838E+02  0.11721321113E+03 -0.41266795235E+03  0.45374634805E+03  0.12508985485E+03 0.  0.
         23    2    1    2    0    0 -0.78768653838E+02 -0.11721321113E+03 -0.16740424238E+03  0.23351560112E+03  0.81005665924E+02 0.  0.
          5    1    3    3  502    0 -0.31177049750E+02  0.33278814291E+02 -0.64658067074E+02  0.79231470701E+02  0.41800000000E+01 0.  1.
         -5    1    3    3    0  502  0.10994570359E+03  0.83934396838E+02 -0.34800988527E+03  0.37451487735E+03  0.41800000000E+01 0.  1.
        -11    1    4    4    0    0  0.13112805614E+02 -0.40485846999E+02 -0.35778373389E+02  0.55598034863E+02  0.00000000000E+00 0.  1.
         11    1    4    4    0    0 -0.91881459452E+02 -0.76727364130E+02 -0.13162586899E+03  0.17791756626E+03  0.00000000000E+00 0. -1.
</event>
<event>
 8    1  0.6635152E-009  0.1069913E+03  0.7561462E-02  0.1266245E+00
         -1   -1    0    0    0  501 -0.00000000000E+00  0.00000000000E+00  0.51273854598E+03  0.51273854598E+03  0.00000000000E+00 0.  1.
          1   -1    0    0  501    0  0.00000000000E+00 -0.00000000000E+00 -0.31252189248E+02  0.31252189248E+02  0.00000000000E+00 0. -1.
         25    2    1    2    0    0  0.31526448371E+02  0.22240699459E+02  0.14272485599E+03  0.19365035224E+03  0.12506601755E+03 0.  0.
         23    2    1    2    0    0 -0.31526448371E+02 -0.22240699459E+02  0.33876150074E+03  0.35034038299E+03  0.80563415447E+02 0.  0.
          5    1    3    3  502    0  0.58143604535E+02 -0.32288217356E+02  0.96422654009E+02  0.11720925021E+03  0.41800000000E+01 0. -1.
         -5    1    3    3    0  502 -0.26617156164E+02  0.54528916815E+02  0.46302201982E+02  0.76441102031E+02  0.41800000000E+01 0. -1.
        -11    1    4    4    0    0  0.21988952111E+02 -0.24548617244E+02  0.89162330984E+02  0.95058244724E+02  0.00000000000E+00 0. -1.
         11    1    4    4    0    0 -0.53515400482E+02  0.23079177850E+01  0.24959916975E+03  0.25528213826E+03  0.00000000000E+00 0.  1.
</event>
<event>
 8    1  0.6635152E-009  0.1043870E+03  0.7561462E-02  0.1271332E+00
         -2   -1    0    0    0  501 -0.00000000000E+00  0.00000000000E+00  0.38755789221E+03  0.38755789221E+03  0.00000000000E+00 0.  1.
          2   -1    0    0  501    0  0.00000000000E+00 -0.00000000000E+00 -0.43415664767E+02  0.43415664767E+02  0.00000000000E+00 0. -1.
         25    2    1    2    0    0 -0.41146472463E+02 -0.24565023099E+02  0.10418119710E+03  0.16969759839E+03  0.12508829087E+03 0.  0.
         23    2    1    2    0    0  0.41146472463E+02  0.24565023099E+02  0.23996103034E+03  0.26127595859E+03  0.91582519607E+02 0.  0.
          5    1    3    3  502    0  0.33178566291E+02 -0.21843360140E+02 -0.19991274454E+01  0.39992731263E+02  0.41800000000E+01 0. -1.
         -5    1    3    3    0  502 -0.74325038754E+02 -0.27216629596E+01  0.10618032455E+03  0.12970486713E+03  0.41800000000E+01 0. -1.
        -11    1    4    4    0    0  0.64985330236E+02  0.27010452915E+02  0.12145156442E+03  0.14036787458E+03  0.00000000000E+00 0. -1.
         11    1    4    4    0    0 -0.23838857773E+02 -0.24454298159E+01  0.11850946592E+03  0.12090808401E+03  0.00000000000E+00 0.  1.
</event>
<event>
 8    1  0.6635152E-009  0.1064033E+03  0.7561462E-02  0.1267379E+00
          1   -1    0    0  501    0  0.00000000000E+00  0.00000000000E+00  0.74657009705E+03  0.74657009705E+03  0.00000000000E+00 0. -1.
         -1   -1    0    0    0  501 -0.00000000000E+00 -0.00000000000E+00 -0.25718672549E+02  0.25718672549E+02  0.00000000000E+00 0.  1.
         25    2    1    2    0    0 -0.15257589059E+02  0.61129234386E+02  0.55875670624E+03  0.57604377320E+03  0.12509114502E+03 0.  0.
         23    2    1    2    0    0  0.15257589059E+02 -0.61129234386E+02  0.16209471827E+03  0.19624499640E+03  0.90927573376E+02 0.  0.
          5    1    3    3  502    0 -0.63022497080E+01  0.84957825208E+02  0.21470829150E+03  0.23102959389E+03  0.41800000000E+01 0.  1.
         -5    1    3    3    0  502 -0.89553393506E+01 -0.23828590822E+02  0.34404841474E+03  0.34501417931E+03  0.41800000000E+01 0.  1.
        -11    1    4    4    0    0  0.22250785460E+02 -0.79238622262E+02  0.91680412909E+02  0.12320371270E+03  0.00000000000E+00 0.  1.
         11    1    4    4    0    0 -0.69931964012E+01  0.18109387876E+02  0.70414305359E+02  0.73041283699E+02  0.00000000000E+00 0. -1.
</event>
<event>
 8    1  0.6635152E-009  0.6813013E+02  0.7561462E-02  0.1366570E+00
         -1   -1    0    0    0  501 -0.00000000000E+00  0.00000000000E+00  0.11453099625E+02  0.11453099625E+02  0.00000000000E+00 0.  1.
          1   -1    0    0  501    0  0.00000000000E+00 -0.00000000000E+00 -0.14886036971E+04  0.14886036971E+04  0.00000000000E+00 0. -1.
         25    2    1    2    0    0 -0.31081697782E+02  0.19753924303E+02 -0.11977509216E+04  0.12048279303E+04  0.12508709768E+03 0.  0.
         23    2    1    2    0    0  0.31081697782E+02 -0.19753924303E+02 -0.27939967588E+03  0.29522886642E+03  0.87975082963E+02 0.  0.
          5    1    3    3  502    0  0.20012412885E+01 -0.38566625371E+01  0.34164629550E+00  0.60388686698E+01  0.41800000000E+01 0.  1.
         -5    1    3    3    0  502 -0.33082939070E+02  0.23610586840E+02 -0.11980925679E+04  0.11987890617E+04  0.41800000000E+01 0.  1.
        -11    1    4    4    0    0 -0.27560166866E+02 -0.21403368559E+00 -0.44593678399E+02  0.52423322685E+02  0.00000000000E+00 0.  1.
         11    1    4    4    0    0  0.58641864648E+02 -0.19539890617E+02 -0.23480599748E+03  0.24280554373E+03  0.00000000000E+00 0. -1.
</event>
<event>
 8    1  0.6635152E-009  0.9923215E+02  0.7561462E-02  0.1281919E+00
          2   -1    0    0  501    0  0.00000000000E+00  0.00000000000E+00  0.11595370810E+04  0.11595370810E+04  0.00000000000E+00 0. -1.
         -2   -1    0    0    0  501 -0.00000000000E+00 -0.00000000000E+00 -0.13610415104E+02  0.13610415104E+02  0.00000000000E+00 0.  1.
         25    2    1    2    0    0 -0.14610160024E+02 -0.57739165230E+02  0.78337915350E+03  0.79553599997E+03  0.12508941251E+03 0.  0.
         23    2    1    2    0    0  0.14610160024E+02  0.57739165230E+02  0.36254751236E+03  0.37761149611E+03  0.87192174501E+02 0.  0.
          5    1    3    3  502    0 -0.69206478701E+01  0.16415831117E+02  0.15346916740E+02  0.23882527747E+02  0.41800000000E+01 0. -1.
         -5    1    3    3    0  502 -0.76895121535E+01 -0.74154996346E+02  0.76803223676E+03  0.77165347222E+03  0.41800000000E+01 0. -1.
        -11    1    4    4    0    0  0.30412341619E+02  0.75695424806E+02  0.27340114100E+03  0.28531192011E+03  0.00000000000E+00 0. -1.
         11    1    4    4    0    0 -0.15802181596E+02 -0.17956259577E+02  0.89146371365E+02  0.92299575994E+02  0.00000000000E+00 0.  1.
</event>
<event>
 8    1  0.6635152E-009  0.1496735E+03  0.7561462E-02  0.1200875E+00
          2   -1    0    0  501    0  0.00000000000E+00  0.00000000000E+00  0.10633626840E+04  0.10633626840E+04  0.00000000000E+00 0. -1.
         -2   -1    0    0    0  501 -0.00000000000E+00 -0.00000000000E+00 -0.33932986547E+02  0.33932986547E+02  0.00000000000E+00 0.  1.
         25    2    1    2    0    0  0.13190702785E+03  0.11688573527E+02  0.31000877178E+03  0.35956860281E+03  0.12509218521E+03 0.  0.
         23    2    1    2    0    0 -0.13190702785E+03 -0.11688573527E+02  0.71942092566E+03  0.73772706772E+03  0.95596398618E+02 0.  0.
          5    1    3    3  502    0  0.83841088135E+02 -0.91808300935E+01  0.58755585117E+02  0.10287520053E+03  0.41800000000E+01 0. -1.
         -5    1    3    3    0  502  0.48065939710E+02  0.20869403620E+02  0.25125318667E+03  0.25669340229E+03  0.41800000000E+01 0. -1.
        -11    1    4    4    0    0 -0.62281519253E+02 -0.52649186912E+02  0.32084164889E+03  0.33104423902E+03  0.00000000000E+00 0.  1.
         11    1    4    4    0    0 -0.69625508592E+02  0.40960613385E+02  0.39857927677E+03  0.40668282870E+03  0.00000000000E+00 0. -1.
</event>
<event>
 8    1  0.6635152E-009  0.8399090E+02  0.7561462E-02  0.1318093E+00
         -2   -1    0    0    0  501 -0.00000000000E+00  0.00000000000E+00  0.22737549764E+02  0.22737549764E+02  0.00000000000E+00 0.  1.
          2   -1    0    0  501    0  0.00000000000E+00 -0.00000000000E+00 -0.60756461600E+03  0.60756461600E+03  0.00000000000E+00 0. -1.
         25    2    1    2    0    0 -0.94512454615E+01  0.36660696674E+02 -0.27861225380E+03  0.30774242738E+03  0.12508909194E+03 0.  0.
         23    2    1    2    0    0  0.94512454615E+01 -0.36660696674E+02 -0.30621481244E+03  0.32255973838E+03  0.94042228530E+02 0.  0.
          5    1    3    3  502    0  0.23520329809E+02  0.94370037098E+01 -0.25942012418E+03  0.26068858085E+03  0.41800000000E+01 0.  1.
         -5    1    3    3    0  502 -0.32971575270E+02  0.27223692964E+02 -0.19192129612E+02  0.47053846532E+02  0.41800000000E+01 0.  1.
        -11    1    4    4    0    0  0.46619069586E+02  0.71442452418E+00 -0.11194999239E+03  0.12127097281E+03  0.00000000000E+00 0.  1.
         11    1    4    4    0    0 -0.37167824125E+02 -0.37375121198E+02 -0.19426482005E+03  0.20128876557E+03  0.00000000000E+00 0. -1.
</event>
<event>
 8    1  0.6635152E-009  0.9674475E+02  0.7561462E-02  0.1287294E+00
         -1   -1    0    0    0  501 -0.00000000000E+00  0.00000000000E+00  0.15916971076E+02  0.15916971076E+02  0.00000000000E+00 0.  1.
          1   -1    0    0  501    0  0.00000000000E+00 -0.00000000000E+00 -0.83549087709E+03  0.83549087709E+03  0.00000000000E+00 0. -1.
         25    2    1    2    0    0  0.31780212045E+02  0.25589428598E+02 -0.45940752109E+03  0.47787760140E+03  0.12508769227E+03 0.  0.
         23    2    1    2    0    0 -0.31780212045E+02 -0.25589428598E+02 -0.36016638492E+03  0.37353024676E+03  0.90223165995E+02 0.  0.
          5    1    3    3  502    0  0.21634773986E+02  0.58524588635E+02 -0.10830096836E+03  0.12505903833E+03  0.41800000000E+01 0. -1.
         -5    1    3    3    0  502  0.10145438059E+02 -0.32935160037E+02 -0.35110655273E+03  0.35281856307E+03  0.41800000000E+01 0. -1.
        -11    1    4    4    0    0 -0.59501236287E+02 -0.32320545265E+02 -0.20898352762E+03  0.21967960666E+03  0.00000000000E+00 0.  1.
         11    1    4    4    0    0  0.27721024242E+02  0.67311166668E+01 -0.15118285731E+03  0.15385064010E+03  0.00000000000E+00 0. -1.
</event>
<event>
 8    1  0.6635152E-009  0.7565202E+02  0.7561462E-02  0.1341864E+00
          2   -1    0    0  501    0  0.00000000000E+00  0.00000000000E+00  0.37746913511E+03  0.37746913511E+03  0.00000000000E+00 0. -1.
         -2   -1    0    0    0  501 -0.00000000000E+00 -0.00000000000E+00 -0.55720400554E+02  0.55720400554E+02  0.00000000000E+00 0.  1.
         25    2    1    2    0    0 -0.40679667540E+02 -0.22258388568E+02  0.53850654400E+02  0.14386959138E+03  0.12509314582E+03 0.  0.
         23    2    1    2    0    0  0.40679667540E+02  0.22258388568E+02  0.26789808016E+03  0.28931994429E+03  0.98926121919E+02 0.  0.
          5    1    3    3  502    0 -0.48273119330E+02 -0.13100769202E+02 -0.30399173729E+02  0.58681397111E+02  0.41800000000E+01 0.  1.
         -5    1    3    3    0  502  0.75934517901E+01 -0.91576193665E+01  0.84249828128E+02  0.85188194266E+02  0.41800000000E+01 0.  1.
        -11    1    4    4    0    0  0.56081285851E+02  0.36995497721E+02  0.25648917214E+03  0.26514236345E+03  0.00000000000E+00 0. -1.
         11    1    4    4    0    0 -0.15401618311E+02 -0.14737109153E+02  0.11408908020E+02  0.24177580834E+02  0.00000000000E+00 0.  1.
</event>
<event>
 8    1  0.6635152E-009  0.1268261E+03  0.7561462E-02  0.1232243E+00
         -1   -1    0    0    0  501 -0.00000000000E+00  0.00000000000E+00  0.48645260865E+03  0.48645260865E+03  0.00000000000E+00 0.  1.
          1   -1    0    0  501    0  0.00000000000E+00 -0.00000000000E+00 -0.60946873104E+02  0.60946873104E+02  0.00000000000E+00 0. -1.
         25    2    1    2    0    0 -0.98025100765E+02  0.22928239187E+02  0.87358557685E+02  0.18279331317E+03  0.12508898116E+03 0.  0.
         23    2    1    2    0    0  0.98025100765E+02 -0.22928239187E+02  0.33814717786E+03  0.36460616858E+03  0.91975647546E+02 0.  0.
          5    1    3    3  502    0  0.35662084960E+01  0.47436533535E+02  0.56016488112E+02  0.73608843879E+02  0.41800000000E+01 0.  1.
         -5    1    3    3    0  502 -0.10159130926E+03 -0.24508294348E+02  0.31342069574E+02  0.10918446929E+03  0.41800000000E+01 0.  1.
        -11    1    4    4    0    0  0.80968459446E+02 -0.14398851956E+02  0.33540454026E+03  0.34533957779E+03  0.00000000000E+00 0.  1.
         11    1    4    4    0    0  0.17056641319E+02 -0.85293872308E+01  0.27426375983E+01  0.19266590789E+02  0.00000000000E+00 0. -1.
</event>
<event>
 8    1  0.6635152E-009  0.2940310E+03  0.7561462E-02  0.1088263E+00
         -1   -1    0    0    0  501 -0.00000000000E+00  0.00000000000E+00  0.70154198427E+03  0.70154198427E+03  0.00000000000E+00 0.  1.
          1   -1    0    0  501    0  0.00000000000E+00 -0.00000000000E+00 -0.14298876663E+03  0.14298876663E+03  0.00000000000E+00 0. -1.
         25    2    1    2    0    0 -0.27876117335E+03  0.49979360435E+02  0.39968819619E+03  0.50557244842E+03  0.12508844146E+03 0.  0.
         23    2    1    2    0    0  0.27876117335E+03 -0.49979360435E+02  0.15886502145E+03  0.33895830248E+03  0.97205491310E+02 0.  0.
          5    1    3    3  502    0 -0.28905652867E+03  0.44708992282E+02  0.39674578944E+03  0.49292724067E+03  0.41800000000E+01 0. -1.
         -5    1    3    3    0  502  0.10295355316E+02  0.52703681537E+01  0.29424067540E+01  0.12645207751E+02  0.41800000000E+01 0. -1.
        -11    1    4    4    0    0  0.17809059349E+03 -0.34075265647E+02  0.15235399607E+03  0.23683142388E+03  0.00000000000E+00 0.  1.
         11    1    4    4    0    0  0.10067057986E+03 -0.15904094788E+02  0.65110253771E+01  0.10212687859E+03  0.00000000000E+00 0. -1.
</event>
<event>
 8    1  0.6635152E-009  0.8986894E+02  0.7561462E-02  0.1303169E+00
         -1   -1    0    0    0  501 -0.00000000000E+00  0.00000000000E+00  0.11599619394E+03  0.11599619394E+03  0.00000000000E+00 0.  1.
          1   -1    0    0  501    0  0.00000000000E+00 -0.00000000000E+00 -0.10639344898E+03  0.10639344898E+03  0.00000000000E+00 0. -1.
         25    2    1    2    0    0  0.16170160631E+02 -0.21187672827E+02 -0.69857819515E+01  0.12809605360E+03  0.12509758680E+03 0.  0.
         23    2    1    2    0    0 -0.16170160631E+02  0.21187672827E+02  0.16588526913E+02  0.94293589323E+02  0.88914060686E+02 0.  0.
          5    1    3    3  502    0 -0.24272367715E+02 -0.40574346530E+02 -0.47763180267E+02  0.67336611290E+02  0.41800000000E+01 0.  1.
         -5    1    3    3    0  502  0.40442528347E+02  0.19386673703E+02  0.40777398315E+02  0.60759442309E+02  0.41800000000E+01 0.  1.
        -11    1    4    4    0    0  0.28731467226E+02  0.29926023867E+02 -0.81649695207E+01  0.42281566205E+02  0.00000000000E+00 0. -1.
         11    1    4    4    0    0 -0.44901627857E+02 -0.87383510408E+01  0.24753496434E+02  0.52012023118E+02  0.00000000000E+00 0.  1.
</event>
<event>
 8    1  0.6635152E-009  0.1507108E+03  0.7561462E-02  0.1199602E+00
         -1   -1    0    0    0  501 -0.00000000000E+00  0.00000000000E+00  0.23928256443E+02  0.23928256443E+02  0.00000000000E+00 0.  1.
          1   -1    0    0  501    0  0.00000000000E+00 -0.00000000000E+00 -0.11874514907E+04  0.11874514907E+04  0.00000000000E+00 0. -1.
         25    2    1    2    0    0 -0.10806688946E+03  0.68932187113E+02 -0.61329118727E+03  0.63890997298E+03  0.12509905747E+03 0.  0.
         23    2    1    2    0    0  0.10806688946E+03 -0.68932187113E+02 -0.55023204699E+03  0.57246977416E+03  0.92391762490E+02 0.  0.
          5    1    3    3  502    0 -0.74463284083E+02  0.57466190120E+01 -0.49478991703E+03  0.50041216882E+03  0.41800000000E+01 0.  1.
         -5    1    3    3    0  502 -0.33603605378E+02  0.63185568101E+02 -0.11850127024E+03  0.13849780416E+03  0.41800000000E+01 0.  1.
        -11    1    4    4    0    0  0.30618189346E+02 -0.71143440185E+02 -0.33126165953E+03  0.34019575199E+03  0.00000000000E+00 0.  1.
         11    1    4    4    0    0  0.77448700115E+02  0.22112530720E+01 -0.21897038746E+03  0.23227402217E+03  0.00000000000E+00 0. -1.
</event>
<event>
 8    1  0.6635152E-009  0.1136572E+03  0.7561462E-02  0.1253943E+00
          2   -1    0    0  501    0  0.00000000000E+00  0.00000000000E+00  0.33517989443E+03  0.33517989443E+03  0.00000000000E+00 0.  1.
         -2   -1    0    0    0  501 -0.00000000000E+00 -0.00000000000E+00 -0.69416220935E+02  0.69416220935E+02  0.00000000000E+00 0. -1.
         25    2    1    2    0    0 -0.37832525938E+02 -0.83108444981E+02  0.21403071638E+03  0.26418626513E+03  0.12508765520E+03 0.  0.
         23    2    1    2    0    0  0.37832525938E+02  0.83108444981E+02  0.51732957108E+02  0.14040985023E+03  0.93275471286E+02 0.  0.
          5    1    3    3  502    0 -0.25850032335E+02 -0.90450383149E+02  0.64962634930E+02  0.11439891748E+03  0.41800000000E+01 0.  1.
         -5    1    3    3    0  502 -0.11982493603E+02  0.73419381685E+01  0.14906808145E+03  0.14978734765E+03  0.41800000000E+01 0.  1.
        -11    1    4    4    0    0  0.30354304821E+02 -0.43907273626E+01  0.42068210800E+02  0.52061470089E+02  0.00000000000E+00 0.  1.
         11    1    4    4    0    0  0.74782211172E+01  0.87499172343E+02  0.96647463085E+01  0.88348380138E+02  0.00000000000E+00 0. -1.
</event>
<event>
 8    1  0.6635152E-009  0.8067292E+02  0.7561462E-02  0.1327153E+00
         -1   -1    0    0    0  501 -0.00000000000E+00  0.00000000000E+00  0.10800810805E+03  0.10800810805E+03  0.00000000000E+00 0.  1.
          1   -1    0    0  501    0  0.00000000000E+00 -0.00000000000E+00 -0.13182774878E+03  0.13182774878E+03  0.00000000000E+00 0. -1.
         25    2    1    2    0    0 -0.28877025362E+02 -0.38278910907E+02 -0.91000802914E+01  0.13426864881E+03  0.12508437544E+03 0.  0.
         23    2    1    2    0    0  0.28877025362E+02  0.38278910907E+02 -0.14719560433E+02  0.10556720802E+03  0.92890324234E+02 0.  0.
          5    1    3    3  502    0  0.21096877129E+02 -0.14632394654E+02  0.48052635153E+02  0.54641681371E+02  0.41800000000E+01 0. -1.
         -5    1    3    3    0  502 -0.49973902491E+02 -0.23646516253E+02 -0.57152715445E+02  0.79626967440E+02  0.41800000000E+01 0. -1.
        -11    1    4    4    0    0  0.22357886924E+02 -0.14539787336E+02 -0.38857613582E+02  0.47129551842E+02  0.00000000000E+00 0. -1.
         11    1    4    4    0    0  0.65191384376E+01  0.52818698243E+02  0.24138053150E+02  0.58437656181E+02  0.00000000000E+00 0.  1.
</event>
<event>
 8    1  0.6635152E-009  0.2510469E+03  0.7561462E-02  0.1112645E+00
         -2   -1    0    0    0  501 -0.00000000000E+00  0.00000000000E+00  0.66235966883E+02  0.66235966883E+02  0.00000000000E+00 0.  1.
          2   -1    0    0  501    0  0.00000000000E+00 -0.00000000000E+00 -0.10027651702E+04  0.10027651702E+04  0.00000000000E+00 0. -1.
         25    2    1    2    0    0 -0.21807734449E+03  0.83052962303E+02 -0.47343192592E+03  0.54243658655E+03  0.12507653345E+03 0.  0.
         23    2    1    2    0    0  0.21807734449E+03 -0.83052962303E+02 -0.46309727744E+03  0.52656455058E+03  0.91409052208E+02 0.  0.
          5    1    3    3  502    0 -0.25681697254E+02 -0.21876516177E+02 -0.21684241636E+02  0.40321337642E+02  0.41800000000E+01 0. -1.
         -5    1    3    3    0  502 -0.19239564724E+03  0.10492947848E+03 -0.45174768428E+03  0.50211524891E+03  0.41800000000E+01 0. -1.
        -11    1    4    4    0    0  0.61516655100E+02 -0.67893445838E+02 -0.20092291789E+03  0.22082535583E+03  0.00000000000E+00 0.  1.
         11    1    4    4    0    0  0.15656068939E+03 -0.15159516465E+02 -0.26217435955E+03  0.30573919475E+03  0.00000000000E+00 0. -1.
</event>
<event>
 8    1  0.6635152E-009  0.1089402E+03  0.7561462E-02  0.1262545E+00
          1   -1    0    0  501    0  0.00000000000E+00  0.00000000000E+00  0.27027216436E+03  0.27027216436E+03  0.00000000000E+00 0. -1.
         -1   -1    0    0    0  501 -0.00000000000E+00 -0.00000000000E+00 -0.80009222979E+02  0.80009222979E+02  0.00000000000E+00 0.  1.
         25    2    1    2    0    0  0.71563359838E+02  0.24172458235E+02  0.18069898021E+03  0.23239202330E+03  0.12509320060E+03 0.  0.
         23    2    1    2    0    0 -0.71563359838E+02 -0.24172458235E+02  0.95639611716E+01  0.11788936404E+03  0.90004503175E+02 0.  0.
          5    1    3    3  502    0 -0.31844737205E+02  0.15850457143E+02  0.80468956638E+02  0.88079791449E+02  0.41800000000E+01 0.  1.
         -5    1    3    3    0  502  0.10340809704E+03  0.83220010922E+01  0.10023002357E+03  0.14431223185E+03  0.41800000000E+01 0.  1.
        -11    1    4    4    0    0 -0.29872339605E+02 -0.20820316477E+02  0.48566461272E+02  0.60700439967E+02  0.00000000000E+00 0. -1.
         11    1    4    4    0    0 -0.41691020234E+02 -0.33521417580E+01 -0.39002500100E+02  0.57188924072E+02  0.00000000000E+00 0.  1.
</event>
<event>
 8    1  0.6635152E-009  0.8732902E+02  0.7561462E-02  0.1309452E+00
         -1   -1    0    0    0  501 -0.00000000000E+00  0.00000000000E+00  0.28416623099E+02  0.28416623099E+02  0.00000000000E+00 0.  1.
          1   -1    0    0  501    0  0.00000000000E+00 -0.00000000000E+00 -0.52742635774E+03  0.52742635774E+03  0.00000000000E+00 0. -1.
         25    2    1    2    0    0 -0.27599902241E+02 -0.40057597296E+02 -0.30368369021E+03  0.33201838385E+03  0.12508420289E+03 0.  0.
         23    2    1    2    0    0  0.27599902241E+02  0.40057597296E+02 -0.19532604444E+03  0.22382459699E+03  0.97871450783E+02 0.  0.
          5    1    3    3  502    0  0.10693020036E+02 -0.35944606977E+02 -0.28761334923E+03  0.29007803520E+03  0.41800000000E+01 0.  1.
         -5    1    3    3    0  502 -0.38292922276E+02 -0.41129903194E+01 -0.16070340971E+02  0.41940348648E+02  0.41800000000E+01 0.  1.
        -11    1    4    4    0    0  0.56887707156E+02  0.13093630425E+02 -0.16101118662E+03  0.17126662430E+03  0.00000000000E+00 0. -1.
         11    1    4    4    0    0 -0.29287804916E+02  0.26963966871E+02 -0.34314857817E+02  0.52557972689E+02  0.00000000000E+00 0.  1.
</event>
<event>
 8    1  0.6635152E-009  0.8205434E+02  0.7561462E-02  0.1323321E+00
         -1   -1    0    0    0  501 -0.00000000000E+00  0.00000000000E+00  0.81671341963E+02  0.81671341963E+02  0.00000000000E+00 0.  1.
          1   -1    0    0  501    0  0.00000000000E+00 -0.00000000000E+00 -0.15159894155E+03  0.15159894155E+03  0.00000000000E+00 0. -1.
         25    2    1    2    0    0 -0.62705865339E+01  0.20108967668E+02 -0.26510327930E+02  0.12961695145E+03  0.12511620911E+03 0.  0.
         23    2    1    2    0    0  0.62705865339E+01 -0.20108967668E+02 -0.43417271660E+02  0.10365333206E+03  0.91734742234E+02 0.  0.
          5    1    3    3  502    0 -0.31035270116E+02  0.32864971787E+02 -0.66612546178E+02  0.80610161085E+02  0.41800000000E+01 0.  1.
         -5    1    3    3    0  502  0.24764683582E+02 -0.12756004119E+02  0.40102218248E+02  0.49006790370E+02  0.41800000000E+01 0.  1.
        -11    1    4    4    0    0  0.47704028664E+01 -0.55207743320E+02 -0.40029716305E+02  0.68359562999E+02  0.00000000000E+00 0. -1.
         11    1    4    4    0    0  0.15001836675E+01  0.35098775652E+02 -0.33875553548E+01  0.35293769061E+02  0.00000000000E+00 0.  1.
</event>
<event>
 8    1  0.6635152E-009  0.1421086E+03  0.7561462E-02  0.1210519E+00
          2   -1    0    0  501    0  0.00000000000E+00  0.00000000000E+00  0.57957711073E+03  0.57957711073E+03  0.00000000000E+00 0. -1.
         -2   -1    0    0    0  501 -0.00000000000E+00 -0.00000000000E+00 -0.51098567935E+02  0.51098567935E+02  0.00000000000E+00 0.  1.
         25    2    1    2    0    0  0.10198870946E+03 -0.40065492713E+02  0.15654402841E+03  0.22838743494E+03  0.12509135480E+03 0.  0.
         23    2    1    2    0    0 -0.10198870946E+03  0.40065492713E+02  0.37193451439E+03  0.40228824373E+03  0.10720824353E+03 0.  0.
          5    1    3    3  502    0  0.54584359212E+02  0.41380614070E+02  0.43907273544E+02  0.81468574073E+02  0.41800000000E+01 0. -1.
         -5    1    3    3    0  502  0.47404350251E+02 -0.81446106783E+02  0.11263675486E+03  0.14691886087E+03  0.41800000000E+01 0. -1.
        -11    1    4    4    0    0 -0.74711890227E+02  0.23899077598E+01  0.92112126559E+02  0.11862639698E+03  0.00000000000E+00 0.  1.
         11    1    4    4    0    0 -0.27276819236E+02  0.37675584953E+02  0.27982238783E+03  0.28366184675E+03  0.00000000000E+00 0. -1.
</event>
<event>
 8    1  0.6635152E-009  0.7531045E+02  0.7561462E-02  0.1342912E+00
         -2   -1    0    0    0  501 -0.00000000000E+00  0.00000000000E+00  0.28144161330E+02  0.28144161330E+02  0.00000000000E+00 0.  1.
          2   -1    0    0  501    0  0.00000000000E+00 -0.00000000000E+00 -0.41620866590E+03  0.41620866590E+03  0.00000000000E+00 0. -1.
         25    2    1    2    0    0 -0.27550087402E+01 -0.54453592105E+01 -0.22871758994E+03  0.26076259377E+03  0.12509257513E+03 0.  0.
         23    2    1    2    0    0  0.27550087402E+01  0.54453592105E+01 -0.15934691463E+03  0.18359023346E+03  0.90976329938E+02 0.  0.
          5    1    3    3  502    0  0.16428878343E+02 -0.37345754256E+02 -0.21796702771E+03  0.22179204443E+03  0.41800000000E+01 0. -1.
         -5    1    3    3    0  502 -0.19183887083E+02  0.31900395046E+02 -0.10750562231E+02  0.38970549341E+02  0.41800000000E+01 0. -1.
        -11    1    4    4    0    0 -0.29624037920E+02 -0.15650709845E+02 -0.20079393183E+02  0.39060342702E+02  0.00000000000E+00 0.  1.
         11    1    4    4    0    0  0.32379046661E+02  0.21096069055E+02 -0.13926752144E+03  0.14452989075E+03  0.00000000000E+00 0. -1.
</event>
<event>
 8    1  0.6635152E-009  0.1189461E+03  0.7561462E-02  0.1244846E+00
         -2   -1    0    0    0  501 -0.00000000000E+00  0.00000000000E+00  0.56782250649E+02  0.56782250649E+02  0.00000000000E+00 0.  1.
          2   -1    0    0  501    0  0.00000000000E+00 -0.00000000000E+00 -0.35761815043E+03  0.35761815043E+03  0.00000000000E+00 0. -1.
         25    2    1    2    0    0 -0.60418968448E+02 -0.62267323047E+02 -0.20940875750E+03  0.25889612154E+03  0.12508997867E+03 0.  0.
         23    2    1    2    0    0  0.60418968448E+02  0.62267323047E+02 -0.91427142287E+02  0.15550427955E+03  0.91076821104E+02 0.  0.
          5    1    3    3  502    0 -0.21987645624E+02 -0.90366398331E+02 -0.18035817898E+03  0.20296819365E+03  0.41800000000E+01 0. -1.
         -5    1    3    3    0  502 -0.38431322824E+02  0.28099075284E+02 -0.29050578512E+02  0.55927927887E+02  0.41800000000E+01 0. -1.
        -11    1    4    4    0    0  0.58537371834E+02  0.32066661084E+02 -0.85678059847E+01  0.67292658988E+02  0.00000000000E+00 0.  1.
         11    1    4    4    0    0  0.18815966139E+01  0.30200661963E+02 -0.82859336303E+02  0.88211620557E+02  0.00000000000E+00 0. -1.
</event>
<event>
 8    1  0.6635152E-009  0.1111991E+03  0.7561462E-02  0.1258365E+00
         -1   -1    0    0    0  501 -0.00000000000E+00  0.00000000000E+00  0.29423366310E+02  0.29423366310E+02  0.00000000000E+00 0.  1.
          1   -1    0    0  501    0  0.00000000000E+00 -0.00000000000E+00 -0.44454334201E+03  0.44454334201E+03  0.00000000000E+00 0. -1.
         25    2    1    2    0    0  0.16922388530E+02  0.25460442366E+02 -0.19639028364E+03  0.23484394989E+03  0.12509171008E+03 0.  0.
         23    2    1    2    0    0 -0.16922388530E+02 -0.25460442366E+02 -0.21872969206E+03  0.23912275843E+03  0.91664682694E+02 0.  0.
          5    1    3    3  502    0  0.36717338068E+02 -0.43390579830E+02 -0.85056036907E+02  0.10238606911E+03  0.41800000000E+01 0. -1.
         -5    1    3    3    0  502 -0.19794949538E+02  0.68851022196E+02 -0.11133424673E+03  0.13245788078E+03  0.41800000000E+01 0. -1.
        -11    1    4    4    0    0 -0.26451822506E+02 -0.55847691074E+02 -0.11417097440E+03  0.12982170430E+03  0.00000000000E+00 0.  1.
         11    1    4    4    0    0  0.95294339761E+01  0.30387248708E+02 -0.10455871765E+03  0.10930105413E+03  0.00000000000E+00 0. -1.
</event>
<event>
 7    1  0.6635152E-009  0.1197386E+03  0.7561462E-02  0.1243529E+00
         -2   -1    0    0    0  501 -0.00000000000E+00  0.00000000000E+00  0.60598945901E+03  0.60598945901E+03  0.00000000000E+00 0.  1.
          2   -1    0    0  501    0  0.00000000000E+00 -0.00000000000E+00 -0.37132418729E+02  0.37132418729E+02  0.00000000000E+00 0. -1.
         23    2    1    2    0    0 -0.18747660962E+02 -0.73703692634E+02  0.38809205353E+03  0.40578834666E+03  0.90912216860E+02 0.  0.
          5    1    1    2  502    0 -0.50898062134E+02  0.52154339315E+02  0.12761370082E+03  0.14701502262E+03  0.41800000000E+01 0. -1.
         -5    1    1    2    0  502  0.69645723096E+02  0.21549353319E+02  0.53151285930E+02  0.90318508458E+02  0.41800000000E+01 0. -1.
        -11    1    3    3    0    0  0.19359565710E+02 -0.24610922351E+02  0.33753709486E+02  0.46041320436E+02  0.00000000000E+00 0. -1.
         11    1    3    3    0    0 -0.38107226672E+02 -0.49092770283E+02  0.35433834404E+03  0.35974702622E+03  0.00000000000E+00 0.  1.
</event>
<event>
 8    1  0.6635152E-009  0.3427451E+03  0.7561462E-02  0.1065633E+00
          2   -1    0    0  501    0  0.00000000000E+00  0.00000000000E+00  0.72678173890E+03  0.72678173890E+03  0.00000000000E+00 0. -1.
         -2   -1    0    0    0  501 -0.00000000000E+00 -0.00000000000E+00 -0.38448247449E+03  0.38448247449E+03  0.00000000000E+00 0.  1.
         25    2    1    2    0    0  0.33525109606E+03  0.59594812284E+02  0.58141258312E+03  0.68529748916E+03  0.12508883954E+03 0.  0.
         23    2    1    2    0    0 -0.33525109606E+03 -0.59594812284E+02 -0.23911331871E+03  0.42596672423E+03  0.91255859574E+02 0.  0.
          5    1    3    3  502    0  0.14579689451E+03  0.50665906485E+02  0.15595905848E+03  0.21946404911E+03  0.41800000000E+01 0.  1.
         -5    1    3    3    0  502  0.18945420156E+03  0.89289057986E+01  0.42545352464E+03  0.46583344006E+03  0.41800000000E+01 0.  1.
        -11    1    4    4    0    0 -0.13809507810E+03 -0.12421720512E+02 -0.46259163877E+02  0.14616586462E+03  0.00000000000E+00 0. -1.
         11    1    4    4    0    0 -0.19715601796E+03 -0.47173091771E+02 -0.19285415483E+03  0.27980085962E+03  0.00000000000E+00 0.  1.
</event>
<event>
 8    1  0.6635152E-009  0.1443290E+03  0.7561462E-02  0.1207620E+00
         -2   -1    0    0    0  501 -0.00000000000E+00  0.00000000000E+00  0.10048919408E+03  0.10048919408E+03  0.00000000000E+00 0. -1.
          2   -1    0    0  501    0  0.00000000000E+00 -0.00000000000E+00 -0.35123146885E+03  0.35123146885E+03  0.00000000000E+00 0.  1.
         25    2    1    2    0    0  0.11525873915E+03  0.66421342732E+02 -0.22319601455E+03  0.28837289266E+03  0.12508434192E+03 0.  0.
         23    2    1    2    0    0 -0.11525873915E+03 -0.66421342732E+02 -0.27546260223E+02  0.16334777027E+03  0.90704607816E+02 0.  0.
          5    1    3    3  502    0  0.10883593605E+03  0.42927764896E+02 -0.77046310917E+02  0.14014870817E+03  0.41800000000E+01 0.  1.
         -5    1    3    3    0  502  0.64228030990E+01  0.23493577836E+02 -0.14614970363E+03  0.14822418450E+03  0.41800000000E+01 0.  1.
        -11    1    4    4    0    0 -0.89818733683E+02 -0.77967242202E+02  0.67297851406E+01  0.11912844239E+03  0.00000000000E+00 0. -1.
         11    1    4    4    0    0 -0.25440005465E+02  0.11545899471E+02 -0.34276045364E+02  0.44219327883E+02  0.00000000000E+00 0.  1.
</event>
<event>
 8    1  0.6635152E-009  0.1608056E+03  0.7561462E-02  0.1187790E+00
         -1   -1    0    0    0  501 -0.00000000000E+00  0.00000000000E+00  0.36325563650E+02  0.36325563650E+02  0.00000000000E+00 0.  1.
          1   -1    0    0  501    0  0.00000000000E+00 -0.00000000000E+00 -0.74221595375E+03  0.74221595375E+03  0.00000000000E+00 0. -1.
         25    2    1    2    0    0 -0.66578956273E+01  0.12001518049E+03 -0.33520400775E+03  0.37743552533E+03  0.12509147791E+03 0.  0.
         23    2    1    2    0    0  0.66578956273E+01 -0.12001518049E+03 -0.37068638234E+03  0.40110599207E+03  0.95024479438E+02 0.  0.
          5    1    3    3  502    0  0.36449967061E+02 -0.76340761687E+01 -0.92656742833E+02  0.99948104585E+02  0.41800000000E+01 0.  1.
         -5    1    3    3    0  502 -0.43107862689E+02  0.12764925666E+03 -0.24254726492E+03  0.27748742075E+03  0.41800000000E+01 0.  1.
        -11    1    4    4    0    0 -0.40586596613E+02 -0.66945613336E+02 -0.23869307192E+03  0.25120384064E+03  0.00000000000E+00 0. -1.
         11    1    4    4    0    0  0.47244492240E+02 -0.53069567158E+02 -0.13199331042E+03  0.14990215142E+03  0.00000000000E+00 0.  1.
</event>
<event>
 8    1  0.6635152E-009  0.1137592E+03  0.7561462E-02  0.1253763E+00
         -2   -1    0    0    0  501 -0.00000000000E+00  0.00000000000E+00  0.20406951830E+02  0.20406951830E+02  0.00000000000E+00 0.  1.
          2   -1    0    0  501    0  0.00000000000E+00 -0.00000000000E+00 -0.81421884479E+03  0.81421884479E+03  0.00000000000E+00 0. -1.
         25    2    1    2    0    0  0.61594536465E+02 -0.18658671251E+02 -0.51934217601E+03  0.53805725966E+03  0.12508911207E+03 0.  0.
         23    2    1    2    0    0 -0.61594536465E+02  0.18658671251E+02 -0.27446971695E+03  0.29656853696E+03  0.92071921098E+02 0.  0.
          5    1    3    3  502    0  0.41174091424E+02 -0.71279009002E+02 -0.34721003161E+03  0.35685890962E+03  0.41800000000E+01 0. -1.
         -5    1    3    3    0  502  0.20420445041E+02  0.52620337751E+02 -0.17213214440E+03  0.18119835004E+03  0.41800000000E+01 0. -1.
        -11    1    4    4    0    0 -0.11736075357E+02  0.34292732455E+02 -0.21223128866E+03  0.21530407997E+03  0.00000000000E+00 0. -1.
         11    1    4    4    0    0 -0.49858461109E+02 -0.15634061205E+02 -0.62238428292E+02  0.81264456992E+02  0.00000000000E+00 0.  1.
</event>
<event>
 7    1  0.6635152E-009  0.1331368E+03  0.7561462E-02  0.1222874E+00
         -1   -1    0    0    0  501 -0.00000000000E+00  0.00000000000E+00  0.67923459779E+02  0.67923459779E+02  0.00000000000E+00 0.  1.
          1   -1    0    0  501    0  0.00000000000E+00 -0.00000000000E+00 -0.47797134449E+03  0.47797134449E+03  0.00000000000E+00 0. -1.
         23    2    1    2    0    0  0.10756741512E+03  0.97031279926E+01 -0.33718049136E+03  0.36522475870E+03  0.89630023579E+02 0.  0.
          5    1    1    2  502    0 -0.69092109358E+02 -0.49832303875E+02 -0.88357894330E+02  0.12280703553E+03  0.41800000000E+01 0.  1.
         -5    1    1    2    0  502 -0.38475305762E+02  0.40129175883E+02  0.15490500976E+02  0.57863010041E+02  0.41800000000E+01 0.  1.
        -11    1    3    3    0    0  0.75314952796E+02 -0.23546357429E+02 -0.12332387232E+03  0.14640884723E+03  0.00000000000E+00 0.  1.
         11    1    3    3    0    0  0.32252462324E+02  0.33249485421E+02 -0.21385661904E+03  0.21881591147E+03  0.00000000000E+00 0. -1.
</event>
<event>
 8    1  0.6635152E-009  0.1315164E+03  0.7561462E-02  0.1225223E+00
          1   -1    0    0  501    0  0.00000000000E+00  0.00000000000E+00  0.47784116064E+03  0.47784116064E+03  0.00000000000E+00 0. -1.
         -1   -1    0    0    0  501 -0.00000000000E+00 -0.00000000000E+00 -0.41189373867E+02  0.41189373867E+02  0.00000000000E+00 0.  1.
         25    2    1    2    0    0 -0.43671091467E+02  0.58616147690E+02  0.29373124396E+03  0.32751691386E+03  0.12508504381E+03 0.  0.
         23    2    1    2    0    0  0.43671091467E+02 -0.58616147690E+02  0.14292054281E+03  0.19151362064E+03  0.10444217699E+03 0.  0.
          5    1    3    3  502    0  0.35868280303E+02 -0.15011655590E+01  0.35438623213E+02  0.50617738443E+02  0.41800000000E+01 0.  1.
         -5    1    3    3    0  502 -0.79539371770E+02  0.60117313249E+02  0.25829262075E+03  0.27689917542E+03  0.41800000000E+01 0.  1.
        -11    1    4    4    0    0 -0.34455723324E+02 -0.14539310971E+02  0.48963110794E+02  0.61611481494E+02  0.00000000000E+00 0. -1.
         11    1    4    4    0    0  0.78126814791E+02 -0.44076836719E+02  0.93957432013E+02  0.12990213915E+03  0.00000000000E+00 0.  1.
</event>
<event>
 8    1  0.6635152E-009  0.1865591E+03  0.7561462E-02  0.1161602E+00
          2   -1    0    0  501    0  0.00000000000E+00  0.00000000000E+00  0.63555432367E+03  0.63555432367E+03  0.00000000000E+00 0. -1.
         -2   -1    0    0    0  501 -0.00000000000E+00 -0.00000000000E+00 -0.94416754922E+02  0.94416754922E+02  0.00000000000E+00 0.  1.
         25    2    1    2    0    0  0.83292142477E+02  0.13591076753E+03  0.50298285527E+03  0.54226240251E+03  0.12508973877E+03 0.  0.
         23    2    1    2    0    0 -0.83292142477E+02 -0.13591076753E+03  0.38154713477E+02  0.18770867609E+03  0.91484682801E+02 0.  0.
          5    1    3    3  502    0  0.37503699326E+02  0.14235201071E+03  0.30209877670E+03  0.33608297443E+03  0.41800000000E+01 0. -1.
         -5    1    3    3    0  502  0.45788443150E+02 -0.64412431760E+01  0.20088407857E+03  0.20617942808E+03  0.41800000000E+01 0. -1.
        -11    1    4    4    0    0  0.11822035406E+02 -0.49581138527E+02  0.29671641981E+02  0.58978438066E+02  0.00000000000E+00 0.  1.
         11    1    4    4    0    0 -0.95114177882E+02 -0.86329629007E+02  0.84830714961E+01  0.12873023802E+03  0.00000000000E+00 0. -1.
</event>
<event>
 8    1  0.6635152E-009  0.9629772E+02  0.7561462E-02  0.1288280E+00
         -4   -1    0    0    0  501 -0.00000000000E+00  0.00000000000E+00  0.66407925127E+02  0.66407925127E+02  0.00000000000E+00 0.  1.
          4   -1    0    0  501    0  0.00000000000E+00 -0.00000000000E+00 -0.21542935803E+03  0.21542935803E+03  0.00000000000E+00 0. -1.
         25    2    1    2    0    0 -0.11838717489E+02 -0.30755185206E+02 -0.75008073629E+02  0.14952835838E+03  0.12508589929E+03 0.  0.
         23    2    1    2    0    0  0.11838717489E+02  0.30755185206E+02 -0.74013359270E+02  0.13230892477E+03  0.10460228284E+03 0.  0.
          5    1    3    3  502    0 -0.53368526705E+02 -0.52680605884E+02 -0.69017135375E+02  0.10200138849E+03  0.41800000000E+01 0.  1.
         -5    1    3    3    0  502  0.41529809216E+02  0.21925420678E+02 -0.59909382539E+01  0.47526969887E+02  0.41800000000E+01 0.  1.
        -11    1    4    4    0    0  0.16480697906E+02  0.48905105917E+02  0.42997401093E+01  0.51786200413E+02  0.00000000000E+00 0.  1.
         11    1    4    4    0    0 -0.46419804170E+01 -0.18149920711E+02 -0.78313099380E+02  0.80522724361E+02  0.00000000000E+00 0. -1.
</event>
<event>
 8    1  0.6635152E-009  0.1190690E+03  0.7561462E-02  0.1244641E+00
         -3   -1    0    0    0  501 -0.00000000000E+00  0.00000000000E+00  0.15972696856E+03  0.15972696856E+03  0.00000000000E+00 0.  1.
          3   -1    0    0  501    0  0.00000000000E+00 -0.00000000000E+00 -0.13601612446E+03  0.13601612446E+03  0.00000000000E+00 0. -1.
         25    2    1    2    0    0 -0.91747238900E+02  0.12989398923E+02 -0.59652749149E+01  0.15578648477E+03  0.12509022345E+03 0.  0.
         23    2    1    2    0    0  0.91747238900E+02 -0.12989398923E+02  0.29676119011E+02  0.13995660825E+03  0.10060268298E+03 0.  0.
          5    1    3    3  502    0 -0.10453240660E+03  0.40118092418E+02  0.22438688309E+02  0.11426921065E+03  0.41800000000E+01 0.  1.
         -5    1    3    3    0  502  0.12785167700E+02 -0.27128693494E+02 -0.28403963223E+02  0.41517274123E+02  0.41800000000E+01 0.  1.
        -11    1    4    4    0    0  0.40569384778E+02  0.64283901904E+01 -0.35889151417E+02  0.54545672341E+02  0.00000000000E+00 0. -1.
         11    1    4    4    0    0  0.51177854122E+02 -0.19417789114E+02  0.65565270428E+02  0.85410935909E+02  0.00000000000E+00 0.  1.
</event>
<event>
 8    1  0.6635152E-009  0.1562991E+03  0.7561462E-02  0.1192939E+00
         -2   -1    0    0    0  501 -0.00000000000E+00  0.00000000000E+00  0.88744275998E+02  0.88744275998E+02  0.00000000000E+00 0.  1.
          2   -1    0    0  501    0  0.00000000000E+00 -0.00000000000E+00 -0.29442789317E+03  0.29442789317E+03  0.00000000000E+00 0. -1.
         25    2    1    2    0    0 -0.11284186164E+03  0.34232523243E+02 -0.14656495259E+03  0.22590854270E+03  0.12509289728E+03 0.  0.
         23    2    1    2    0    0  0.11284186164E+03 -0.34232523243E+02 -0.59118664585E+02  0.15726362647E+03  0.85625231811E+02 0.  0.
          5    1    3    3  502    0 -0.13302850580E+03  0.49086785910E+02 -0.10239734589E+03  0.17495366458E+03  0.41800000000E+01 0.  1.
         -5    1    3    3    0  502  0.20186644159E+02 -0.14854262666E+02 -0.44167606701E+02  0.50954878112E+02  0.41800000000E+01 0.  1.
        -11    1    4    4    0    0  0.59321483036E+02 -0.61344614470E+02 -0.40397142480E+02  0.94414666205E+02  0.00000000000E+00 0.  1.
         11    1    4    4    0    0  0.53520378606E+02  0.27112091227E+02 -0.18721522105E+02  0.62848960268E+02  0.00000000000E+00 0. -1.
</event>
<event>
 8    1  0.6635152E-009  0.1000566E+03  0.7561462E-02  0.1280177E+00
          1   -1    0    0  501    0  0.00000000000E+00  0.00000000000E+00  0.30227616781E+03  0.30227616781E+03  0.00000000000E+00 0. -1.
         -1   -1    0    0    0  501 -0.00000000000E+00 -0.00000000000E+00 -0.37733252612E+02  0.37733252612E+02  0.00000000000E+00 0.  1.
         25    2    1    2    0    0 -0.28184284839E+02  0.27935467572E+02  0.19046439042E+03  0.23129827550E+03  0.12508982361E+03 0.  0.
         23    2    1    2    0    0  0.28184284839E+02 -0.27935467572E+02  0.74078524777E+02  0.10871114492E+03  0.68961880313E+02 0.  0.
          5    1    3    3  502    0  0.44263424166E+02  0.20360532568E+02  0.12120627054E+03  0.13069902227E+03  0.41800000000E+01 0. -1.
         -5    1    3    3    0  502 -0.72447709005E+02  0.75749350033E+01  0.69258119884E+02  0.10059925323E+03  0.41800000000E+01 0. -1.
        -11    1    4    4    0    0  0.50221559880E+02 -0.13851686913E+02  0.58218221066E+02  0.78124487654E+02  0.00000000000E+00 0. -1.
         11    1    4    4    0    0 -0.22037275041E+02 -0.14083780658E+02  0.15860303711E+02  0.30586657266E+02  0.00000000000E+00 0.  1.
</event>
<event>
 8    1  0.6635152E-009  0.1111840E+03  0.7561462E-02  0.1258393E+00
          1   -1    0    0  501    0  0.00000000000E+00  0.00000000000E+00  0.13513971510E+03  0.13513971510E+03  0.00000000000E+00 0. -1.
         -1   -1    0    0    0  501 -0.00000000000E+00 -0.00000000000E+00 -0.12476905139E+03  0.12476905139E+03  0.00000000000E+00 0.  1.
         25    2    1    2    0    0  0.21261065423E+02 -0.55134786531E+02  0.57841959659E+02  0.14994558546E+03  0.12508440635E+03 0.  0.
         23    2    1    2    0    0 -0.21261065423E+02  0.55134786531E+02 -0.47471295954E+02  0.10996318103E+03  0.79664921096E+02 0.  0.
          5    1    3    3  502    0  0.29319186480E+02  0.35212350665E+02  0.30171537470E+02  0.55021072405E+02  0.41800000000E+01 0. -1.
         -5    1    3    3    0  502 -0.80581210574E+01 -0.90347137197E+02  0.27670422188E+02  0.94924513055E+02  0.41800000000E+01 0. -1.
        -11    1    4    4    0    0  0.14890800257E+02  0.45882014029E+02  0.16602974003E+01  0.48266465906E+02  0.00000000000E+00 0. -1.
         11    1    4    4    0    0 -0.36151865680E+02  0.92527725024E+01 -0.49131593354E+02  0.61696715121E+02  0.00000000000E+00 0.  1.
</event>
<event>
 8    1  0.6635152E-009  0.1225992E+03  0.7561462E-02  0.1238870E+00
          2   -1    0    0  501    0  0.00000000000E+00  0.00000000000E+00  0.54454508106E+03  0.54454508106E+03  0.00000000000E+00 0. -1.
         -2   -1    0    0    0  501 -0.00000000000E+00 -0.00000000000E+00 -0.31362126223E+02  0.31362126223E+02  0.00000000000E+00 0.  1.
         25    2    1    2    0    0  0.37269815536E+02 -0.50241332505E+02  0.26122307448E+03  0.29630708511E+03  0.12508862220E+03 0.  0.
         23    2    1    2    0    0 -0.37269815536E+02  0.50241332505E+02  0.25195988036E+03  0.27960012217E+03  0.10382300500E+03 0.  0.
          5    1    3    3  502    0  0.49421533598E+02  0.30195441817E+02  0.98714580606E+02  0.11452638785E+03  0.41800000000E+01 0.  1.
         -5    1    3    3    0  502 -0.12151718063E+02 -0.80436774323E+02  0.16250849388E+03  0.18178069726E+03  0.41800000000E+01 0.  1.
        -11    1    4    4    0    0 -0.37921583774E+02 -0.14743582788E+02  0.17104848824E+03  0.17582094607E+03  0.00000000000E+00 0. -1.
         11    1    4    4    0    0  0.65176823770E+00  0.64984915293E+02  0.80911392118E+02  0.10377917610E+03  0.00000000000E+00 0.  1.
</event>
<event>
 8    1  0.6635152E-009  0.1815961E+03  0.7561462E-02  0.1166267E+00
         -2   -1    0    0    0  501 -0.00000000000E+00  0.00000000000E+00  0.21131202090E+03  0.21131202090E+03  0.00000000000E+00 0.  1.
          2   -1    0    0  501    0  0.00000000000E+00 -0.00000000000E+00 -0.18481588910E+03  0.18481588910E+03  0.00000000000E+00 0. -1.
         25    2    1    2    0    0  0.52179750711E+02 -0.15141250253E+03 -0.26356426460E+02  0.20489994710E+03  0.12506340311E+03 0.  0.
         23    2    1    2    0    0 -0.52179750711E+02  0.15141250253E+03  0.52852558258E+02  0.19122796290E+03  0.90145818389E+02 0.  0.
          5    1    3    3  502    0  0.71329918573E+02 -0.25906580202E+02 -0.13887003936E+02  0.77262082936E+02  0.41800000000E+01 0.  1.
         -5    1    3    3    0  502 -0.19150167861E+02 -0.12550592233E+03 -0.12469422524E+02  0.12763786416E+03  0.41800000000E+01 0.  1.
        -11    1    4    4    0    0 -0.19022451193E+02  0.57823075646E+02  0.67466839261E+02  0.90868785215E+02  0.00000000000E+00 0.  1.
         11    1    4    4    0    0 -0.33157299519E+02  0.93589426887E+02 -0.14614281004E+02  0.10035917769E+03  0.00000000000E+00 0. -1.
</event>
<event>
 8    1  0.6635152E-009  0.1541076E+03  0.7561462E-02  0.1195515E+00
         -4   -1    0    0    0  501 -0.00000000000E+00  0.00000000000E+00  0.11330912140E+03  0.11330912140E+03  0.00000000000E+00 0. -1.
          4   -1    0    0  501    0  0.00000000000E+00 -0.00000000000E+00 -0.24200575183E+03  0.24200575183E+03  0.00000000000E+00 0.  1.
         25    2    1    2    0    0 -0.62301019995E+02  0.88546418115E+02 -0.11421702141E+03  0.20103464269E+03  0.12509002489E+03 0.  0.
         23    2    1    2    0    0  0.62301019995E+02 -0.88546418115E+02 -0.14479609017E+02  0.15428023054E+03  0.10895340841E+03 0.  0.
          5    1    3    3  502    0 -0.99886917411E+02  0.68361412206E+02 -0.72150213879E+02  0.14097448248E+03  0.41800000000E+01 0. -1.
         -5    1    3    3    0  502  0.37585897416E+02  0.20185005909E+02 -0.42066807531E+02  0.60060160206E+02  0.41800000000E+01 0. -1.
        -11    1    4    4    0    0  0.52805740302E+02  0.23372830128E+01 -0.31208670132E+02  0.61383142573E+02  0.00000000000E+00 0.  1.
         11    1    4    4    0    0  0.94952796931E+01 -0.90883701128E+02  0.16729061115E+02  0.92897087968E+02  0.00000000000E+00 0. -1.
</event>
<event>
 8    1  0.6635152E-009  0.1275461E+03  0.7561462E-02  0.1231143E+00
         -1   -1    0    0    0  501 -0.00000000000E+00  0.00000000000E+00  0.63497954340E+03  0.63497954340E+03  0.00000000000E+00 0.  1.
          1   -1    0    0  501    0  0.00000000000E+00 -0.00000000000E+00 -0.30304973832E+02  0.30304973832E+02  0.00000000000E+00 0. -1.
         25    2    1    2    0    0 -0.55367371259E+02  0.44151432541E+02  0.45231832149E+03  0.47460958327E+03  0.12508995876E+03 0.  0.
         23    2    1    2    0    0  0.55367371259E+02 -0.44151432541E+02  0.15235624808E+03  0.19067493396E+03  0.90164346150E+02 0.  0.
          5    1    3    3  502    0  0.22018914737E+02  0.57753231531E+02  0.24917036860E+03  0.25675594121E+03  0.41800000000E+01 0.  1.
         -5    1    3    3    0  502 -0.77386285996E+02 -0.13601798990E+02  0.20314795289E+03  0.21785364206E+03  0.41800000000E+01 0.  1.
        -11    1    4    4    0    0  0.23229014471E+02 -0.69658001002E+02  0.10293893858E+03  0.12644464913E+03  0.00000000000E+00 0.  1.
         11    1    4    4    0    0  0.32138356787E+02  0.25506568461E+02  0.49417309494E+02  0.64230284829E+02  0.00000000000E+00 0. -1.
</event>
<event>
 8    1  0.6635152E-009  0.1295033E+03  0.7561462E-02  0.1228195E+00
         -1   -1    0    0    0  501 -0.00000000000E+00  0.00000000000E+00  0.12017585357E+03  0.12017585357E+03  0.00000000000E+00 0.  1.
          1   -1    0    0  501    0  0.00000000000E+00 -0.00000000000E+00 -0.23606378698E+03  0.23606378698E+03  0.00000000000E+00 0. -1.
         25    2    1    2    0    0  0.20075336557E+02 -0.11127584820E+03  0.74367418164E+01  0.16878959767E+03  0.12509712076E+03 0.  0.
         23    2    1    2    0    0 -0.20075336557E+02  0.11127584820E+03 -0.12332467522E+03  0.18745004288E+03  0.84517510189E+02 0.  0.
          5    1    3    3  502    0 -0.16776844642E+02 -0.21844372142E+02 -0.49260734037E+02  0.56592679989E+02  0.41800000000E+01 0.  1.
         -5    1    3    3    0  502  0.36852181199E+02 -0.89431476053E+02  0.56697475854E+02  0.11219691768E+03  0.41800000000E+01 0.  1.
        -11    1    4    4    0    0 -0.41654654497E+02  0.33021935098E+02 -0.21773772640E+02  0.57442628891E+02  0.00000000000E+00 0. -1.
         11    1    4    4    0    0  0.21579317940E+02  0.78253913097E+02 -0.10155090258E+03  0.13000741399E+03  0.00000000000E+00 0.  1.
</event>
<event>
 8    1  0.6635152E-009  0.1789851E+03  0.7561462E-02  0.1168789E+00
          2   -1    0    0  501    0  0.00000000000E+00  0.00000000000E+00  0.87021483222E+03  0.87021483222E+03  0.00000000000E+00 0.  1.
         -2   -1    0    0    0  501 -0.00000000000E+00 -0.00000000000E+00 -0.48313089190E+02  0.48313089190E+02  0.00000000000E+00 0. -1.
         25    2    1    2    0    0 -0.33008835921E+01  0.16041492124E+03  0.58098576759E+03  0.61557740206E+03  0.12508890038E+03 0.  0.
         23    2    1    2    0    0  0.33008835921E+01 -0.16041492124E+03  0.24091597543E+03  0.30295051934E+03  0.89412902666E+02 0.  0.
          5    1    3    3  502    0 -0.39793333707E+02  0.20044954619E+02  0.25304231769E+03  0.25696925216E+03  0.41800000000E+01 0.  1.
         -5    1    3    3    0  502  0.36492450115E+02  0.14036996662E+03  0.32794344991E+03  0.35860814991E+03  0.41800000000E+01 0.  1.
        -11    1    4    4    0    0  0.19688950729E+02 -0.14245223238E+03  0.23851992622E+03  0.27851759100E+03  0.00000000000E+00 0.  1.
         11    1    4    4    0    0 -0.16388067137E+02 -0.17962688862E+02  0.23960492080E+01  0.24432928344E+02  0.00000000000E+00 0. -1.
</event>
<event>
 8    1  0.6635152E-009  0.1376757E+03  0.7561462E-02  0.1216491E+00
         -1   -1    0    0    0  501 -0.00000000000E+00  0.00000000000E+00  0.37750938452E+02  0.37750938452E+02  0.00000000000E+00 0.  1.
          1   -1    0    0  501    0  0.00000000000E+00 -0.00000000000E+00 -0.61003351008E+03  0.61003351008E+03  0.00000000000E+00 0. -1.
         25    2    1    2    0    0  0.46897438951E+02  0.85154258910E+02 -0.38833618727E+03  0.41940906480E+03  0.12509337194E+03 0.  0.
         23    2    1    2    0    0 -0.46897438951E+02 -0.85154258910E+02 -0.18394638436E+03  0.22837538373E+03  0.94172320697E+02 0.  0.
          5    1    3    3  502    0 -0.41970150317E+01  0.91100966030E+02 -0.15039289424E+03  0.17593321455E+03  0.41800000000E+01 0.  1.
         -5    1    3    3    0  502  0.51094453982E+02 -0.59467071203E+01 -0.23794329304E+03  0.24347585025E+03  0.41800000000E+01 0.  1.
        -11    1    4    4    0    0 -0.69258028109E+02 -0.35137516212E+02 -0.84016054887E+02  0.11441161209E+03  0.00000000000E+00 0.  1.
         11    1    4    4    0    0  0.22360589159E+02 -0.50016742698E+02 -0.99930329471E+02  0.11396377164E+03  0.00000000000E+00 0. -1.
</event>
<event>
 8    1  0.6635152E-009  0.2254668E+03  0.7561462E-02  0.1129872E+00
          1   -1    0    0  501    0  0.00000000000E+00  0.00000000000E+00  0.73692985020E+02  0.73692985020E+02  0.00000000000E+00 0. -1.
         -1   -1    0    0    0  501 -0.00000000000E+00 -0.00000000000E+00 -0.83849367570E+03  0.83849367570E+03  0.00000000000E+00 0.  1.
         25    2    1    2    0    0 -0.32297606210E+02  0.21244597597E+03 -0.29613491612E+03  0.38667852744E+03  0.12509183412E+03 0.  0.
         23    2    1    2    0    0  0.32297606210E+02 -0.21244597597E+03 -0.46866577456E+03  0.52550813329E+03  0.10166003066E+03 0.  0.
          5    1    3    3  502    0 -0.19862759400E+02  0.10820387564E+03 -0.53769391623E+02  0.12252031583E+03  0.41800000000E+01 0.  1.
         -5    1    3    3    0  502 -0.12434846810E+02  0.10424210032E+03 -0.24236552450E+03  0.26415821161E+03  0.41800000000E+01 0.  1.
        -11    1    4    4    0    0 -0.26984432541E+02 -0.13799247505E+03 -0.24584732638E+03  0.28321544919E+03  0.00000000000E+00 0.  1.
         11    1    4    4    0    0  0.59282038751E+02 -0.74453500912E+02 -0.22281844819E+03  0.24229268410E+03  0.00000000000E+00 0. -1.
</event>
<event>
 8    1  0.6635152E-009  0.1273268E+03  0.7561462E-02  0.1231477E+00
         -2   -1    0    0    0  501 -0.00000000000E+00  0.00000000000E+00  0.49891553228E+02  0.49891553228E+02  0.00000000000E+00 0.  1.
          2   -1    0    0  501    0  0.00000000000E+00 -0.00000000000E+00 -0.43431639837E+03  0.43431639837E+03  0.00000000000E+00 0. -1.
         25    2    1    2    0    0  0.66899297929E+02  0.20256054613E+02 -0.91663330532E+02  0.17006510059E+03  0.12503658850E+03 0.  0.
         23    2    1    2    0    0 -0.66899297929E+02 -0.20256054613E+02 -0.29276151461E+03  0.31414285101E+03  0.89947777021E+02 0.  0.
          5    1    3    3  502    0 -0.27432570437E+02 -0.25064800300E+02 -0.33807361696E+02  0.50410318782E+02  0.41800000000E+01 0. -1.
         -5    1    3    3    0  502  0.94331868366E+02  0.45320854913E+02 -0.57855968836E+02  0.11965478181E+03  0.41800000000E+01 0. -1.
        -11    1    4    4    0    0 -0.30675181965E+02  0.34944188330E+02 -0.97482035594E+02  0.10800375156E+03  0.00000000000E+00 0. -1.
         11    1    4    4    0    0 -0.36224115965E+02 -0.55200242942E+02 -0.19527947902E+03  0.20613909945E+03  0.00000000000E+00 0.  1.
</event>
<event>
 8    1  0.6635152E-009  0.1156906E+03  0.7561462E-02  0.1250380E+00
         -1   -1    0    0    0  501 -0.00000000000E+00  0.00000000000E+00  0.26655774890E+03  0.26655774890E+03  0.00000000000E+00 0.  1.
          1   -1    0    0  501    0  0.00000000000E+00 -0.00000000000E+00 -0.79022322974E+02  0.79022322974E+02  0.00000000000E+00 0. -1.
         25    2    1    2    0    0  0.90563582375E+01  0.95997061433E+02  0.10792829947E+03  0.19129762649E+03  0.12509520632E+03 0.  0.
         23    2    1    2    0    0 -0.90563582375E+01 -0.95997061433E+02  0.79607126454E+02  0.15428244539E+03  0.90378785923E+02 0.  0.
          5    1    3    3  502    0 -0.30264871563E+02  0.24386359596E+02 -0.16464836976E+02  0.42417216336E+02  0.41800000000E+01 0. -1.
         -5    1    3    3    0  502  0.39321229801E+02  0.71610701837E+02  0.12439313645E+03  0.14888041015E+03  0.41800000000E+01 0. -1.
        -11    1    4    4    0    0 -0.26143498514E+02 -0.87657974591E+02  0.93446522232E+02  0.13076565123E+03  0.00000000000E+00 0.  1.
         11    1    4    4    0    0  0.17087140276E+02 -0.83390868422E+01 -0.13839395778E+02  0.23516794162E+02  0.00000000000E+00 0. -1.
</event>
<event>
 8    1  0.6635152E-009  0.1621137E+03  0.7561462E-02  0.1186331E+00
         -1   -1    0    0    0  501 -0.00000000000E+00  0.00000000000E+00  0.16830070707E+03  0.16830070707E+03  0.00000000000E+00 0.  1.
          1   -1    0    0  501    0  0.00000000000E+00 -0.00000000000E+00 -0.18547665257E+03  0.18547665257E+03  0.00000000000E+00 0. -1.
         25    2    1    2    0    0 -0.46207073392E+02 -0.12767156251E+03  0.22312179960E+02  0.18594277215E+03  0.12506702057E+03 0.  0.
         23    2    1    2    0    0  0.46207073392E+02  0.12767156251E+03 -0.39488125458E+02  0.16783458749E+03  0.90410260476E+02 0.  0.
          5    1    3    3  502    0  0.27720612191E+02 -0.29636210737E+02 -0.31773075254E+02  0.51708200879E+02  0.41800000000E+01 0. -1.
         -5    1    3    3    0  502 -0.73927685584E+02 -0.98035351776E+02  0.54085255214E+02  0.13423457127E+03  0.41800000000E+01 0. -1.
        -11    1    4    4    0    0 -0.85468898592E+01  0.97860058441E+02 -0.96109789545E+01  0.98701627549E+02  0.00000000000E+00 0. -1.
         11    1    4    4    0    0  0.54753963252E+02  0.29811504072E+02 -0.29877146504E+02  0.69132959940E+02  0.00000000000E+00 0.  1.
</event>
<event>
 8    1  0.6635152E-009  0.8546308E+02  0.7561462E-02  0.1314226E+00
          2   -1    0    0  501    0  0.00000000000E+00  0.00000000000E+00  0.63829889754E+02  0.63829889754E+02  0.00000000000E+00 0. -1.
         -2   -1    0    0    0  501 -0.00000000000E+00 -0.00000000000E+00 -0.20862672708E+03  0.20862672708E+03  0.00000000000E+00 0.  1.
         25    2    1    2    0    0 -0.59719341402E+01  0.79501793045E+01 -0.33665296009E+02  0.12992186859E+03  0.12508984945E+03 0.  0.
         23    2    1    2    0    0  0.59719341402E+01 -0.79501793045E+01 -0.11113154132E+03  0.14253474824E+03  0.88696480385E+02 0.  0.
          5    1    3    3  502    0 -0.56441497814E+02 -0.56037251769E+00  0.15651824288E+02  0.58723152984E+02  0.41800000000E+01 0. -1.
         -5    1    3    3    0  502  0.50469563674E+02  0.85105518222E+01 -0.49317120297E+02  0.71198715607E+02  0.41800000000E+01 0. -1.
        -11    1    4    4    0    0  0.10080554015E+02  0.26462615234E+02 -0.10315534667E+03  0.10697155285E+03  0.00000000000E+00 0.  1.
         11    1    4    4    0    0 -0.41086198746E+01 -0.34412794539E+02 -0.79761946544E+01  0.35563195391E+02  0.00000000000E+00 0. -1.
</event>
<event>
 8    1  0.6635152E-009  0.1099839E+03  0.7561462E-02  0.1260600E+00
         -1   -1    0    0    0  501 -0.00000000000E+00  0.00000000000E+00  0.40216769480E+02  0.40216769480E+02  0.00000000000E+00 0.  1.
          1   -1    0    0  501    0  0.00000000000E+00 -0.00000000000E+00 -0.47302207142E+03  0.47302207142E+03  0.00000000000E+00 0. -1.
         25    2    1    2    0    0  0.69617286466E+02 -0.12823060843E+02 -0.15093786719E+03  0.20843277352E+03  0.12510389227E+03 0.  0.
         23    2    1    2    0    0 -0.69617286466E+02  0.12823060843E+02 -0.28186743475E+03  0.30480606738E+03  0.91904790279E+02 0.  0.
          5    1    3    3  502    0  0.96272637460E+02 -0.13356314125E+01 -0.15097019373E+03  0.17910800214E+03  0.41800000000E+01 0. -1.
         -5    1    3    3    0  502 -0.26655350994E+02 -0.11487429431E+02  0.32326539678E-01  0.29324771381E+02  0.41800000000E+01 0. -1.
        -11    1    4    4    0    0 -0.48379270713E+02 -0.22263968247E+02 -0.24134116795E+03  0.24714731935E+03  0.00000000000E+00 0. -1.
         11    1    4    4    0    0 -0.21238015753E+02  0.35087029090E+02 -0.40526266806E+02  0.57658748033E+02  0.00000000000E+00 0.  1.
</event>
<event>
 8    1  0.6635152E-009  0.9851224E+02  0.7561462E-02  0.1283456E+00
         -2   -1    0    0    0  501 -0.00000000000E+00  0.00000000000E+00  0.24734751696E+02  0.24734751696E+02  0.00000000000E+00 0.  1.
          2   -1    0    0  501    0  0.00000000000E+00 -0.00000000000E+00 -0.83736473945E+03  0.83736473945E+03  0.00000000000E+00 0. -1.
         25    2    1    2    0    0  0.85741321125E+02 -0.40443787890E+01 -0.58711482281E+03  0.60639874653E+03  0.12509074102E+03 0.  0.
         23    2    1    2    0    0 -0.85741321125E+02  0.40443787890E+01 -0.22551516495E+03  0.25570074462E+03  0.84604078075E+02 0.  0.
          5    1    3    3  502    0  0.72580402768E+02 -0.16935582052E+02 -0.58208203776E+03  0.58684895833E+03  0.41800000000E+01 0. -1.
         -5    1    3    3    0  502  0.13160918357E+02  0.12891203263E+02 -0.50327850471E+01  0.19549788206E+02  0.41800000000E+01 0. -1.
        -11    1    4    4    0    0 -0.90219081372E+02  0.15177261805E+02 -0.22587124815E+03  0.24369581995E+03  0.00000000000E+00 0. -1.
         11    1    4    4    0    0  0.44777602479E+01 -0.11132883016E+02  0.35608319789E+00  0.12004924670E+02  0.00000000000E+00 0.  1.
</event>
<event>
 8    1  0.6635152E-009  0.1131188E+03  0.7561462E-02  0.1254901E+00
         -2   -1    0    0    0  501 -0.00000000000E+00  0.00000000000E+00  0.75679219367E+02  0.75679219367E+02  0.00000000000E+00 0.  1.
          2   -1    0    0  501    0  0.00000000000E+00 -0.00000000000E+00 -0.25265791671E+03  0.25265791671E+03  0.00000000000E+00 0. -1.
         25    2    1    2    0    0 -0.55960658849E+02  0.44495315805E+02 -0.14963617549E+03  0.20772499680E+03  0.12508901157E+03 0.  0.
         23    2    1    2    0    0  0.55960658849E+02 -0.44495315805E+02 -0.27342521853E+02  0.12061213927E+03  0.93210762102E+02 0.  0.
          5    1    3    3  502    0 -0.81830022391E+02  0.44987877399E+02 -0.15496971370E+03  0.18097830324E+03  0.41800000000E+01 0.  1.
         -5    1    3    3    0  502  0.25869363542E+02 -0.49256159397E+00  0.53335382109E+01  0.26746693568E+02  0.41800000000E+01 0.  1.
        -11    1    4    4    0    0  0.45126829661E+02  0.13854865164E+02  0.12864433265E+02  0.48927310239E+02  0.00000000000E+00 0.  1.
         11    1    4    4    0    0  0.10833829188E+02 -0.58350180969E+02 -0.40206955118E+02  0.71684829035E+02  0.00000000000E+00 0. -1.
</event>
<event>
 8    1  0.6635152E-009  0.7690143E+02  0.7561462E-02  0.1338082E+00
          1   -1    0    0  501    0  0.00000000000E+00  0.00000000000E+00  0.78433013649E+03  0.78433013649E+03  0.00000000000E+00 0. -1.
         -1   -1    0    0    0  501 -0.00000000000E+00 -0.00000000000E+00 -0.15317226662E+02  0.15317226662E+02  0.00000000000E+00 0.  1.
         25    2    1    2    0    0 -0.15109484087E+02  0.10519953583E+01  0.43358535126E+03  0.45152320668E+03  0.12509015207E+03 0.  0.
         23    2    1    2    0    0  0.15109484087E+02 -0.10519953583E+01  0.33542755858E+03  0.34812415647E+03  0.91920498606E+02 0.  0.
          5    1    3    3  502    0 -0.55151198340E+01 -0.33506940127E+02  0.27663684728E+02  0.43998675391E+02  0.41800000000E+01 0.  1.
         -5    1    3    3    0  502 -0.95943642529E+01  0.34558935485E+02  0.40592166653E+03  0.40752453129E+03  0.41800000000E+01 0.  1.
        -11    1    4    4    0    0 -0.33332449702E+02 -0.86728127396E+01  0.67861912995E+02  0.76101965279E+02  0.00000000000E+00 0.  1.
         11    1    4    4    0    0  0.48441933789E+02  0.76208173813E+01  0.26756564558E+03  0.27202219119E+03  0.00000000000E+00 0. -1.
</event>
<event>
 8    1  0.6635152E-009  0.3895487E+03  0.7561462E-02  0.1047460E+00
         -1   -1    0    0    0  501 -0.00000000000E+00  0.00000000000E+00  0.17106690982E+03  0.17106690982E+03  0.00000000000E+00 0.  1.
          1   -1    0    0  501    0  0.00000000000E+00 -0.00000000000E+00 -0.12018870388E+04  0.12018870388E+04  0.00000000000E+00 0. -1.
         25    2    1    2    0    0  0.19772404109E+03 -0.32877772953E+03 -0.84585939666E+03  0.93718295782E+03  0.12507671907E+03 0.  0.
         23    2    1    2    0    0 -0.19772404109E+03  0.32877772953E+03 -0.18496073236E+03  0.43577099084E+03  0.92175333354E+02 0.  0.
          5    1    3    3  502    0  0.15308806034E+03 -0.16279755123E+03 -0.56849671560E+03  0.61085594452E+03  0.41800000000E+01 0. -1.
         -5    1    3    3    0  502  0.44635980748E+02 -0.16598017830E+03 -0.27736268106E+03  0.32632701330E+03  0.41800000000E+01 0. -1.
        -11    1    4    4    0    0 -0.12284314516E+03  0.20643369339E+03 -0.65206602102E+02  0.24891205081E+03  0.00000000000E+00 0.  1.
         11    1    4    4    0    0 -0.74880895926E+02  0.12234403614E+03 -0.11975413026E+03  0.18685894003E+03  0.00000000000E+00 0. -1.
</event>
<event>
 8    1  0.6635152E-009  0.9815166E+02  0.7561462E-02  0.1284231E+00
          2   -1    0    0  501    0  0.00000000000E+00  0.00000000000E+00  0.32768995406E+03  0.32768995406E+03  0.00000000000E+00 0. -1.
         -2   -1    0    0    0  501 -0.00000000000E+00 -0.00000000000E+00 -0.53626435758E+02  0.53626435758E+02  0.00000000000E+00 0.  1.
         25    2    1    2    0    0 -0.61456022716E+02 -0.23125858666E+02  0.20588901886E+03  0.24969796185E+03  0.12508851266E+03 0.  0.
         23    2    1    2    0    0  0.61456022716E+02  0.23125858666E+02  0.68174499442E+02  0.13161842797E+03  0.91454907681E+02 0.  0.
          5    1    3    3  502    0 -0.21720166070E+02  0.26725145524E+02  0.59848378155E+00  0.34696247639E+02  0.41800000000E+01 0. -1.
         -5    1    3    3    0  502 -0.39735856646E+02 -0.49851004189E+02  0.20529053508E+03  0.21500171422E+03  0.41800000000E+01 0. -1.
        -11    1    4    4    0    0 -0.11815341102E+02 -0.11674083569E+02  0.43917640003E+02  0.46953653915E+02  0.00000000000E+00 0. -1.
         11    1    4    4    0    0  0.73271363818E+02  0.34799942235E+02  0.24256859439E+02  0.84664774051E+02  0.00000000000E+00 0.  1.
</event>
<event>
 8    1  0.6635152E-009  0.1055424E+03  0.7561462E-02  0.1269055E+00
          2   -1    0    0  501    0  0.00000000000E+00  0.00000000000E+00  0.54246527856E+02  0.54246527856E+02  0.00000000000E+00 0.  1.
         -2   -1    0    0    0  501 -0.00000000000E+00 -0.00000000000E+00 -0.30200263138E+03  0.30200263138E+03  0.00000000000E+00 0. -1.
         25    2    1    2    0    0 -0.33143680898E+02  0.41607214541E+02 -0.75612198702E+02  0.15553976444E+03  0.12508297183E+03 0.  0.
         23    2    1    2    0    0  0.33143680898E+02 -0.41607214541E+02 -0.17214390482E+03  0.20070939480E+03  0.88436832309E+02 0.  0.
          5    1    3    3  502    0  0.27055183873E+02  0.46617782709E+02 -0.78043784955E+02  0.94939482878E+02  0.41800000000E+01 0. -1.
         -5    1    3    3    0  502 -0.60198864771E+02 -0.50105681687E+01  0.24315862529E+01  0.60600281557E+02  0.41800000000E+01 0. -1.
        -11    1    4    4    0    0  0.38732537177E+02  0.13548261742E+02 -0.39542567213E+02  0.56985782913E+02  0.00000000000E+00 0.  1.
         11    1    4    4    0    0 -0.55888562790E+01 -0.55155476283E+02 -0.13260133761E+03  0.14372361189E+03  0.00000000000E+00 0. -1.
</event>
<event>
 8    1  0.6635152E-009  0.1592844E+03  0.7561462E-02  0.1189507E+00
          2   -1    0    0  501    0  0.00000000000E+00  0.00000000000E+00  0.52528119499E+03  0.52528119499E+03  0.00000000000E+00 0. -1.
         -2   -1    0    0    0  501 -0.00000000000E+00 -0.00000000000E+00 -0.50113857521E+02  0.50113857521E+02  0.00000000000E+00 0.  1.
         25    2    1    2    0    0  0.94201992349E+02 -0.74522292317E+02  0.23013894418E+03  0.28813857733E+03  0.12502927137E+03 0.  0.
         23    2    1    2    0    0 -0.94201992349E+02  0.74522292317E+02  0.24502839329E+03  0.28725647518E+03  0.89720575140E+02 0.  0.
          5    1    3    3  502    0 -0.66346326128E+01 -0.67017585954E+02  0.60606488333E+02  0.90697265698E+02  0.41800000000E+01 0. -1.
         -5    1    3    3    0  502  0.10083662496E+03 -0.75047063629E+01  0.16953245585E+03  0.19744131163E+03  0.41800000000E+01 0. -1.
        -11    1    4    4    0    0 -0.58264195085E+02 -0.90104464337E+01  0.93472504779E+02  0.11051250483E+03  0.00000000000E+00 0.  1.
         11    1    4    4    0    0 -0.35937797264E+02  0.83532738751E+02  0.15155588851E+03  0.17674397035E+03  0.00000000000E+00 0. -1.
</event>
<event>
 8    1  0.6635152E-009  0.1442304E+03  0.7561462E-02  0.1207747E+00
          1   -1    0    0  501    0  0.00000000000E+00  0.00000000000E+00  0.17280709391E+04  0.17280709391E+04  0.00000000000E+00 0. -1.
         -1   -1    0    0    0  501 -0.00000000000E+00 -0.00000000000E+00 -0.20691603560E+02  0.20691603560E+02  0.00000000000E+00 0.  1.
         25    2    1    2    0    0  0.10895983084E+03 -0.18745550548E+02  0.14109729791E+04  0.14208153741E+04  0.12509172338E+03 0.  0.
         23    2    1    2    0    0 -0.10895983084E+03  0.18745550548E+02  0.29640635645E+03  0.32794716853E+03  0.86423242217E+02 0.  0.
          5    1    3    3  502    0  0.26823231586E+02  0.47201369094E+02  0.30434086658E+03  0.30917356042E+03  0.41800000000E+01 0. -1.
         -5    1    3    3    0  502  0.82136599258E+02 -0.65946919641E+02  0.11066321125E+04  0.11116418137E+04  0.41800000000E+01 0. -1.
        -11    1    4    4    0    0 -0.13028969518E+02  0.29315592413E+02  0.27527431153E+02  0.42271946621E+02  0.00000000000E+00 0.  1.
         11    1    4    4    0    0 -0.95930861326E+02 -0.10570041865E+02  0.26887892530E+03  0.28567522191E+03  0.00000000000E+00 0. -1.
</event>
<event>
 8    1  0.6635152E-009  0.9867677E+02  0.7561462E-02  0.1283103E+00
          1   -1    0    0  501    0  0.00000000000E+00  0.00000000000E+00  0.24438314783E+03  0.24438314783E+03  0.00000000000E+00 0. -1.
         -1   -1    0    0    0  501 -0.00000000000E+00 -0.00000000000E+00 -0.58770144650E+02  0.58770144650E+02  0.00000000000E+00 0.  1.
         25    2    1    2    0    0 -0.36748889521E+02 -0.34979926136E+02  0.86623344250E+02  0.16038768032E+03  0.12508608282E+03 0.  0.
         23    2    1    2    0    0  0.36748889521E+02  0.34979926136E+02  0.98989658925E+02  0.14276561216E+03  0.89492968032E+02 0.  0.
          5    1    3    3  502    0 -0.61306356296E+02 -0.34977298448E+02  0.47254420808E+00  0.70707682942E+02  0.41800000000E+01 0. -1.
         -5    1    3    3    0  502  0.24557466775E+02 -0.26276875715E-02  0.86150800042E+02  0.89679997375E+02  0.41800000000E+01 0. -1.
        -11    1    4    4    0    0 -0.83274299670E+01  0.52662059099E+02  0.62397180222E+02  0.82073422361E+02  0.00000000000E+00 0.  1.
         11    1    4    4    0    0  0.45076319488E+02 -0.17682132963E+02  0.36592478703E+02  0.60692189797E+02  0.00000000000E+00 0. -1.
</event>
<event>
 8    1  0.6635152E-009  0.9855227E+02  0.7561462E-02  0.1283370E+00
          2   -1    0    0  501    0  0.00000000000E+00  0.00000000000E+00  0.50952704137E+02  0.50952704137E+02  0.00000000000E+00 0. -1.
         -2   -1    0    0    0  501 -0.00000000000E+00 -0.00000000000E+00 -0.30929888563E+03  0.30929888563E+03  0.00000000000E+00 0.  1.
         25    2    1    2    0    0 -0.12769524719E+02  0.49486985421E+02 -0.17140943836E+03  0.21827085948E+03  0.12509576353E+03 0.  0.
         23    2    1    2    0    0  0.12769524719E+02 -0.49486985421E+02 -0.86936743139E+02  0.14198073029E+03  0.99942523370E+02 0.  0.
          5    1    3    3  502    0  0.53776036727E+02  0.40398504337E+02 -0.76864868434E+02  0.10222319540E+03  0.41800000000E+01 0. -1.
         -5    1    3    3    0  502 -0.66545561446E+02  0.90884810842E+01 -0.94544569922E+02  0.11604766408E+03  0.41800000000E+01 0. -1.
        -11    1    4    4    0    0  0.24867524015E+02 -0.25855967837E+02  0.13321394354E+02  0.38267275458E+02  0.00000000000E+00 0.  1.
         11    1    4    4    0    0 -0.12097999296E+02 -0.23631017584E+02 -0.10025813749E+03  0.10371345483E+03  0.00000000000E+00 0. -1.
</event>
<event>
 8    1  0.6635152E-009  0.8276497E+02  0.7561462E-02  0.1321383E+00
          2   -1    0    0  501    0  0.00000000000E+00  0.00000000000E+00  0.29112108894E+02  0.29112108894E+02  0.00000000000E+00 0. -1.
         -2   -1    0    0    0  501 -0.00000000000E+00 -0.00000000000E+00 -0.48441092791E+03  0.48441092791E+03  0.00000000000E+00 0.  1.
         25    2    1    2    0    0 -0.32282571656E+02  0.39723240517E+01 -0.18152843540E+03  0.22283995217E+03  0.12508847921E+03 0.  0.
         23    2    1    2    0    0  0.32282571656E+02 -0.39723240517E+01 -0.27377038362E+03  0.29068308464E+03  0.92132996035E+02 0.  0.
          5    1    3    3  502    0  0.10255259203E+02  0.24559005584E+02 -0.17244426030E+03  0.17453598599E+03  0.41800000000E+01 0. -1.
         -5    1    3    3    0  502 -0.42537830859E+02 -0.20586681532E+02 -0.90841750998E+01  0.48303966172E+02  0.41800000000E+01 0. -1.
        -11    1    4    4    0    0  0.54254984893E+01 -0.43237088673E+02 -0.18397180258E+03  0.18906217500E+03  0.00000000000E+00 0. -1.
         11    1    4    4    0    0  0.26857073166E+02  0.39264764621E+02 -0.89798581040E+02  0.10162090964E+03  0.00000000000E+00 0.  1.
</event>
<event>
 8    1  0.6635152E-009  0.1016911E+03  0.7561462E-02  0.1276779E+00
         -1   -1    0    0    0  501 -0.00000000000E+00  0.00000000000E+00  0.14935745458E+02  0.14935745458E+02  0.00000000000E+00 0.  1.
          1   -1    0    0  501    0  0.00000000000E+00 -0.00000000000E+00 -0.86870334273E+03  0.86870334273E+03  0.00000000000E+00 0. -1.
         25    2    1    2    0    0  0.26480818710E+02  0.17584906013E+02 -0.52627697634E+03  0.54187042138E+03  0.12508251299E+03 0.  0.
         23    2    1    2    0    0 -0.26480818710E+02 -0.17584906013E+02 -0.32749062094E+03  0.34176866682E+03  0.92440532978E+02 0.  0.
          5    1    3    3  502    0  0.48682237854E+02  0.61145754432E+02 -0.36479501210E+03  0.37309735568E+03  0.41800000000E+01 0.  1.
         -5    1    3    3    0  502 -0.22201419144E+02 -0.43560848419E+02 -0.16148196425E+03  0.16877306569E+03  0.41800000000E+01 0.  1.
        -11    1    4    4    0    0  0.24190716750E+01  0.24703202868E+02 -0.25953061708E+02  0.35911858093E+02  0.00000000000E+00 0.  1.
         11    1    4    4    0    0 -0.28899890385E+02 -0.42288108881E+02 -0.30153755923E+03  0.30585680872E+03  0.00000000000E+00 0. -1.
</event>
<event>
 8    1  0.6635152E-009  0.1185736E+03  0.7561462E-02  0.1245469E+00
         -2   -1    0    0    0  501 -0.00000000000E+00  0.00000000000E+00  0.64412931683E+02  0.64412931683E+02  0.00000000000E+00 0.  1.
          2   -1    0    0  501    0  0.00000000000E+00 -0.00000000000E+00 -0.35707509262E+03  0.35707509262E+03  0.00000000000E+00 0. -1.
         25    2    1    2    0    0 -0.12617752368E+02  0.11108583722E+03 -0.19346074256E+03  0.25607366805E+03  0.12508954254E+03 0.  0.
         23    2    1    2    0    0  0.12617752368E+02 -0.11108583722E+03 -0.99201418376E+02  0.16541435625E+03  0.70864073698E+02 0.  0.
          5    1    3    3  502    0 -0.19975362159E+02  0.92959280315E+02 -0.43254568174E+02  0.10454125003E+03  0.41800000000E+01 0. -1.
         -5    1    3    3    0  502  0.73576097913E+01  0.18126556902E+02 -0.15020617439E+03  0.15153241802E+03  0.41800000000E+01 0. -1.
        -11    1    4    4    0    0  0.31130667258E+02 -0.79208375226E+02 -0.36337221258E+02  0.92539066337E+02  0.00000000000E+00 0.  1.
         11    1    4    4    0    0 -0.18512914890E+02 -0.31877461991E+02 -0.62864197118E+02  0.72875289913E+02  0.00000000000E+00 0. -1.
</event>
<event>
 8    1  0.6635152E-009  0.1866509E+03  0.7561462E-02  0.1161517E+00
         -2   -1    0    0    0  501 -0.00000000000E+00  0.00000000000E+00  0.10300592384E+03  0.10300592384E+03  0.00000000000E+00 0.  1.
          2   -1    0    0  501    0  0.00000000000E+00 -0.00000000000E+00 -0.51740450413E+03  0.51740450413E+03  0.00000000000E+00 0. -1.
         25    2    1    2    0    0  0.68744125685E+02  0.15533452677E+03 -0.64228875328E+02  0.22051262236E+03  0.12508356475E+03 0.  0.
         23    2    1    2    0    0 -0.68744125685E+02 -0.15533452677E+03 -0.35016970496E+03  0.39989780561E+03  0.91895933715E+02 0.  0.
          5    1    3    3  502    0 -0.21536269006E+02  0.78482463305E+02 -0.61071373075E+02  0.10183561724E+03  0.41800000000E+01 0. -1.
         -5    1    3    3    0  502  0.90280394691E+02  0.76852063463E+02 -0.31575022526E+01  0.11867700512E+03  0.41800000000E+01 0. -1.
        -11    1    4    4    0    0 -0.37113911208E+02 -0.12067329361E+03 -0.15886665936E+03  0.20292388142E+03  0.00000000000E+00 0.  1.
         11    1    4    4    0    0 -0.31630214477E+02 -0.34661233161E+02 -0.19130304560E+03  0.19697392419E+03  0.00000000000E+00 0. -1.
</event>
<event>
 8    1  0.6635152E-009  0.1154536E+03  0.7561462E-02  0.1250791E+00
         -2   -1    0    0    0  501 -0.00000000000E+00  0.00000000000E+00  0.33716757151E+03  0.33716757151E+03  0.00000000000E+00 0.  1.
          2   -1    0    0  501    0  0.00000000000E+00 -0.00000000000E+00 -0.49473885128E+02  0.49473885128E+02  0.00000000000E+00 0. -1.
         25    2    1    2    0    0  0.65190063751E+02  0.13166299347E+02  0.18532380473E+03  0.23327237582E+03  0.12509193767E+03 0.  0.
         23    2    1    2    0    0 -0.65190063751E+02 -0.13166299347E+02  0.10236988165E+03  0.15336908081E+03  0.92840650749E+02 0.  0.
          5    1    3    3  502    0  0.40082248763E+02 -0.43660386419E+02  0.15078224714E+03  0.16206657416E+03  0.41800000000E+01 0. -1.
         -5    1    3    3    0  502  0.25107814988E+02  0.56826685766E+02  0.34541557591E+02  0.71205801655E+02  0.41800000000E+01 0. -1.
        -11    1    4    4    0    0  0.12175467853E+02 -0.27924751822E+02  0.50777913626E+02  0.59215118796E+02  0.00000000000E+00 0.  1.
         11    1    4    4    0    0 -0.77365531604E+02  0.14758452476E+02  0.51591968019E+02  0.94153962019E+02  0.00000000000E+00 0. -1.
</event>
<event>
 8    1  0.6635152E-009  0.1092910E+03  0.7561462E-02  0.1261888E+00
         -2   -1    0    0    0  501 -0.00000000000E+00  0.00000000000E+00  0.70885770399E+01  0.70885770399E+01  0.00000000000E+00 0.  1.
          2   -1    0    0  501    0  0.00000000000E+00 -0.00000000000E+00 -0.22872150222E+04  0.22872150222E+04  0.00000000000E+00 0. -1.
         25    2    1    2    0    0 -0.40337762517E+01  0.29490656931E+02 -0.18070627590E+04  0.18116316912E+04  0.12509036574E+03 0.  0.
         23    2    1    2    0    0  0.40337762517E+01 -0.29490656931E+02 -0.47306368623E+03  0.48267190805E+03  0.91087591899E+02 0.  0.
          5    1    3    3  502    0 -0.21614860678E+02  0.74391525102E+02 -0.92787774178E+03  0.93111539419E+03  0.41800000000E+01 0. -1.
         -5    1    3    3    0  502  0.17581084426E+02 -0.44900868171E+02 -0.87918501720E+03  0.88051629705E+03  0.41800000000E+01 0. -1.
        -11    1    4    4    0    0 -0.22708488489E+01 -0.60709148350E+02 -0.36468195197E+03  0.36970756490E+03  0.00000000000E+00 0. -1.
         11    1    4    4    0    0  0.63046251005E+01  0.31218491419E+02 -0.10838173425E+03  0.11296434315E+03  0.00000000000E+00 0.  1.
</event>
<event>
 8    1  0.6635152E-009  0.9855378E+02  0.7561462E-02  0.1283367E+00
         -1   -1    0    0    0  501 -0.00000000000E+00  0.00000000000E+00  0.33244964446E+02  0.33244964446E+02  0.00000000000E+00 0.  1.
          1   -1    0    0  501    0  0.00000000000E+00 -0.00000000000E+00 -0.40931467110E+03  0.40931467110E+03  0.00000000000E+00 0. -1.
         25    2    1    2    0    0  0.14374742299E+02 -0.11442597062E+02 -0.13623835565E+03  0.18586529912E+03  0.12508978225E+03 0.  0.
         23    2    1    2    0    0 -0.14374742299E+02  0.11442597062E+02 -0.23983135101E+03  0.25669433643E+03  0.89640053469E+02 0.  0.
          5    1    3    3  502    0  0.33787603192E+02  0.47940046362E+02 -0.40234816961E+02  0.71247196932E+02  0.41800000000E+01 0.  1.
         -5    1    3    3    0  502 -0.19412860893E+02 -0.59382643424E+02 -0.96003538686E+02  0.11461810218E+03  0.41800000000E+01 0.  1.
        -11    1    4    4    0    0  0.23020862305E+02 -0.17077482457E+02 -0.29357275843E+02  0.41029869038E+02  0.00000000000E+00 0.  1.
         11    1    4    4    0    0 -0.37395604604E+02  0.28520079519E+02 -0.21047407516E+03  0.21566446739E+03  0.00000000000E+00 0. -1.
</event>
<event>
 8    1  0.6635152E-009  0.1042376E+03  0.7561462E-02  0.1271629E+00
          1   -1    0    0  501    0  0.00000000000E+00  0.00000000000E+00  0.43677970606E+03  0.43677970606E+03  0.00000000000E+00 0. -1.
         -1   -1    0    0    0  501 -0.00000000000E+00 -0.00000000000E+00 -0.61142816639E+02  0.61142816639E+02  0.00000000000E+00 0.  1.
         25    2    1    2    0    0  0.47350748653E+02  0.22809012605E+02  0.33377578587E+02  0.13972276591E+03  0.12508414811E+03 0.  0.
         23    2    1    2    0    0 -0.47350748653E+02 -0.22809012605E+02  0.34225931084E+03  0.35819975679E+03  0.91669435778E+02 0.  0.
          5    1    3    3  502    0 -0.21003037353E+02  0.41649183621E+02 -0.19951183735E+02  0.50904854452E+02  0.41800000000E+01 0.  1.
         -5    1    3    3    0  502  0.68353786006E+02 -0.18840171016E+02  0.53328762323E+02  0.88817911460E+02  0.41800000000E+01 0.  1.
        -11    1    4    4    0    0  0.18522342214E+01 -0.38828131837E+02  0.61814430985E+02  0.73021082378E+02  0.00000000000E+00 0.  1.
         11    1    4    4    0    0 -0.49202982875E+02  0.16019119231E+02  0.28044487985E+03  0.28517867441E+03  0.00000000000E+00 0. -1.
</event>
<event>
 8    1  0.6635152E-009  0.1482022E+03  0.7561462E-02  0.1202700E+00
          2   -1    0    0  501    0  0.00000000000E+00  0.00000000000E+00  0.16682431201E+03  0.16682431201E+03  0.00000000000E+00 0. -1.
         -2   -1    0    0    0  501 -0.00000000000E+00 -0.00000000000E+00 -0.33900621983E+03  0.33900621983E+03  0.00000000000E+00 0.  1.
         25    2    1    2    0    0  0.11917773376E+03  0.33742146772E+01 -0.27479951013E+03  0.32462322260E+03  0.12510295096E+03 0.  0.
         23    2    1    2    0    0 -0.11917773376E+03 -0.33742146772E+01  0.10261760231E+03  0.18120730923E+03  0.89949980915E+02 0.  0.
          5    1    3    3  502    0  0.11863921821E+03 -0.36794003779E+02 -0.15791199862E+03  0.20095455835E+03  0.41800000000E+01 0.  1.
         -5    1    3    3    0  502  0.53851554620E+00  0.40168218457E+02 -0.11688751151E+03  0.12366866426E+03  0.41800000000E+01 0.  1.
        -11    1    4    4    0    0 -0.49344012772E+02 -0.29128614541E+02  0.37071783327E+01  0.57419952566E+02  0.00000000000E+00 0.  1.
         11    1    4    4    0    0 -0.69833720988E+02  0.25754399864E+02  0.98910423972E+02  0.12378735666E+03  0.00000000000E+00 0. -1.
</event>
<event>
 8    1  0.6635152E-009  0.1481622E+03  0.7561462E-02  0.1202750E+00
         -1   -1    0    0    0  501 -0.00000000000E+00  0.00000000000E+00  0.19252973438E+03  0.19252973438E+03  0.00000000000E+00 0.  1.
          1   -1    0    0  501    0  0.00000000000E+00 -0.00000000000E+00 -0.14955024077E+03  0.14955024077E+03  0.00000000000E+00 0. -1.
         25    2    1    2    0    0 -0.11895985750E+03 -0.52358047621E+02  0.26832256504E+02  0.18237229743E+03  0.12508745753E+03 0.  0.
         23    2    1    2    0    0  0.11895985750E+03  0.52358047621E+02  0.16147237105E+02  0.15970767772E+03  0.91394727467E+02 0.  0.
          5    1    3    3  502    0 -0.78792032163E+02 -0.81896057137E+01 -0.43138786494E+02  0.90297736817E+02  0.41800000000E+01 0.  1.
         -5    1    3    3    0  502 -0.40167825340E+02 -0.44168441907E+02  0.69971042998E+02  0.92074560609E+02  0.41800000000E+01 0.  1.
        -11    1    4    4    0    0  0.34266906205E+02  0.63074287954E+02 -0.43499762173E+01  0.71913204315E+02  0.00000000000E+00 0.  1.
         11    1    4    4    0    0  0.84692951298E+02 -0.10716240334E+02  0.20497213322E+02  0.87794473404E+02  0.00000000000E+00 0. -1.
</event>
<event>
 8    1  0.6635152E-009  0.1319364E+03  0.7561462E-02  0.1224610E+00
         -1   -1    0    0    0  501 -0.00000000000E+00  0.00000000000E+00  0.20512883102E+03  0.20512883102E+03  0.00000000000E+00 0.  1.
          1   -1    0    0  501    0  0.00000000000E+00 -0.00000000000E+00 -0.89852050425E+02  0.89852050425E+02  0.00000000000E+00 0. -1.
         25    2    1    2    0    0 -0.41813613088E+02 -0.62957484163E+02  0.97557728545E+02  0.17571833932E+03  0.12508957319E+03 0.  0.
         23    2    1    2    0    0  0.41813613088E+02  0.62957484163E+02  0.17719052052E+02  0.11926254213E+03  0.90540411409E+02 0.  0.
          5    1    3    3  502    0  0.64026675282E+01 -0.90258295434E+02  0.60731924383E+02  0.10905683420E+03  0.41800000000E+01 0.  1.
         -5    1    3    3    0  502 -0.48216280617E+02  0.27300811271E+02  0.36825804162E+02  0.66661505119E+02  0.41800000000E+01 0.  1.
        -11    1    4    4    0    0 -0.42755930498E+01  0.70837887363E+02  0.14189476582E+02  0.72371460035E+02  0.00000000000E+00 0.  1.
         11    1    4    4    0    0  0.46089206138E+02 -0.78804031996E+01  0.35295754699E+01  0.46891082095E+02  0.00000000000E+00 0. -1.
</event>
<event>
 8    1  0.6635152E-009  0.1788305E+03  0.7561462E-02  0.1168940E+00
         -1   -1    0    0    0  501 -0.00000000000E+00  0.00000000000E+00  0.19474468658E+03  0.19474468658E+03  0.00000000000E+00 0.  1.
          1   -1    0    0  501    0  0.00000000000E+00 -0.00000000000E+00 -0.19790723130E+03  0.19790723130E+03  0.00000000000E+00 0. -1.
         25    2    1    2    0    0 -0.11635585869E+02  0.16080365139E+03  0.36955295651E+02  0.20738053288E+03  0.12509112832E+03 0.  0.
         23    2    1    2    0    0  0.11635585869E+02 -0.16080365139E+03 -0.40117840362E+02  0.18527138500E+03  0.81992949858E+02 0.  0.
          5    1    3    3  502    0 -0.35801196220E+02  0.41256711014E+01  0.32537869080E+02  0.48733275460E+02  0.41800000000E+01 0. -1.
         -5    1    3    3    0  502  0.24165610351E+02  0.15667798028E+03  0.44174265716E+01  0.15864725742E+03  0.41800000000E+01 0. -1.
        -11    1    4    4    0    0 -0.68295377287E+01 -0.49909545134E+02  0.24055718297E+02  0.55823676552E+02  0.00000000000E+00 0. -1.
         11    1    4    4    0    0  0.18465123597E+02 -0.11089410625E+03 -0.64173558659E+02  0.12944770845E+03  0.00000000000E+00 0.  1.
</event>
<event>
 8    1  0.6635152E-009  0.1247346E+03  0.7561462E-02  0.1235485E+00
          3   -1    0    0  501    0  0.00000000000E+00  0.00000000000E+00  0.18178415485E+03  0.18178415485E+03  0.00000000000E+00 0. -1.
         -3   -1    0    0    0  501 -0.00000000000E+00 -0.00000000000E+00 -0.11549678644E+03  0.11549678644E+03  0.00000000000E+00 0.  1.
         25    2    1    2    0    0  0.29197601347E+02 -0.85144936839E+02  0.71526825954E+02  0.16990684070E+03  0.12510030971E+03 0.  0.
         23    2    1    2    0    0 -0.29197601347E+02  0.85144936839E+02 -0.52394575374E+01  0.12737410059E+03  0.89969713753E+02 0.  0.
          5    1    3    3  502    0  0.13423791046E+02 -0.10840488178E+03  0.84990218317E+02  0.13846525257E+03  0.41800000000E+01 0. -1.
         -5    1    3    3    0  502  0.15773810301E+02  0.23259944940E+02 -0.13463392363E+02  0.31441588127E+02  0.41800000000E+01 0. -1.
        -11    1    4    4    0    0 -0.30019778979E+02  0.36463271163E+01 -0.29592529441E+02  0.42310762580E+02  0.00000000000E+00 0.  1.
         11    1    4    4    0    0  0.82217763192E+00  0.81498609723E+02  0.24353071904E+02  0.85063338013E+02  0.00000000000E+00 0. -1.
</event>
<event>
 8    1  0.6635152E-009  0.1097237E+03  0.7561462E-02  0.1261082E+00
          2   -1    0    0  501    0  0.00000000000E+00  0.00000000000E+00  0.40259997117E+03  0.40259997117E+03  0.00000000000E+00 0. -1.
         -2   -1    0    0    0  501 -0.00000000000E+00 -0.00000000000E+00 -0.41881992061E+02  0.41881992061E+02  0.00000000000E+00 0.  1.
         25    2    1    2    0    0  0.42744037883E+02 -0.41725483587E+02  0.13159399204E+03  0.19112921764E+03  0.12508129492E+03 0.  0.
         23    2    1    2    0    0 -0.42744037883E+02  0.41725483587E+02  0.22912398706E+03  0.25335274558E+03  0.90120716224E+02 0.  0.
          5    1    3    3  502    0  0.75000334481E+02 -0.54202722068E+02  0.56900663652E+02  0.10871128357E+03  0.41800000000E+01 0. -1.
         -5    1    3    3    0  502 -0.32256296598E+02  0.12477238481E+02  0.74693328391E+02  0.82417934071E+02  0.41800000000E+01 0. -1.
        -11    1    4    4    0    0  0.16729276201E+02 -0.37111204445E+01  0.62375283555E+01  0.18235894745E+02  0.00000000000E+00 0.  1.
         11    1    4    4    0    0 -0.59473314083E+02  0.45436604031E+02  0.22288645871E+03  0.23511685084E+03  0.00000000000E+00 0. -1.
</event>
<event>
 8    1  0.6635152E-009  0.1271393E+03  0.7561462E-02  0.1231763E+00
         -1   -1    0    0    0  501 -0.00000000000E+00  0.00000000000E+00  0.18412282847E+03  0.18412282847E+03  0.00000000000E+00 0.  1.
          1   -1    0    0  501    0  0.00000000000E+00 -0.00000000000E+00 -0.13730029630E+03  0.13730029630E+03  0.00000000000E+00 0. -1.
         25    2    1    2    0    0  0.64809999087E+02  0.33986224855E+02 -0.65727790050E+02  0.15913161180E+03  0.12508928022E+03 0.  0.
         23    2    1    2    0    0 -0.64809999087E+02 -0.33986224855E+02  0.11255032222E+03  0.16229151298E+03  0.91189696191E+02 0.  0.
          5    1    3    3  502    0 -0.34101710014E+02 -0.22988958697E+01 -0.35472436399E+02  0.49436602758E+02  0.41800000000E+01 0. -1.
         -5    1    3    3    0  502  0.98911709101E+02  0.36285120724E+02 -0.30255353651E+02  0.10969500904E+03  0.41800000000E+01 0. -1.
        -11    1    4    4    0    0  0.46397461767E+01 -0.43993659174E+02  0.27730829794E+02  0.52210805521E+02  0.00000000000E+00 0. -1.
         11    1    4    4    0    0 -0.69449745263E+02  0.10007434320E+02  0.84819492423E+02  0.11008070745E+03  0.00000000000E+00 0.  1.
</event>
<event>
 8    1  0.6635152E-009  0.1353857E+03  0.7561462E-02  0.1219676E+00
         -1   -1    0    0    0  501 -0.00000000000E+00  0.00000000000E+00  0.17545789744E+03  0.17545789744E+03  0.00000000000E+00 0.  1.
          1   -1    0    0  501    0  0.00000000000E+00 -0.00000000000E+00 -0.17380506465E+03  0.17380506465E+03  0.00000000000E+00 0. -1.
         25    2    1    2    0    0  0.11211558707E+03 -0.16007789839E+02  0.75935528821E+02  0.18504624526E+03  0.12509897741E+03 0.  0.
         23    2    1    2    0    0 -0.11211558707E+03  0.16007789839E+02 -0.74282696032E+02  0.16421671682E+03  0.92860416503E+02 0.  0.
          5    1    3    3  502    0  0.94232659215E+02  0.12652627005E+02  0.10396826101E+03  0.14094947581E+03  0.41800000000E+01 0. -1.
         -5    1    3    3    0  502  0.17882927855E+02 -0.28660416844E+02 -0.28032732191E+02  0.44096769456E+02  0.41800000000E+01 0. -1.
        -11    1    4    4    0    0 -0.49034242532E+02  0.49893551759E+02 -0.15689790150E+02  0.71693046823E+02  0.00000000000E+00 0. -1.
         11    1    4    4    0    0 -0.63081344538E+02 -0.33885761920E+02 -0.58592905882E+02  0.92523669995E+02  0.00000000000E+00 0.  1.
</event>
<event>
 8    1  0.6635152E-009  0.1292214E+03  0.7561462E-02  0.1228616E+00
          2   -1    0    0  501    0  0.00000000000E+00  0.00000000000E+00  0.57209730622E+03  0.57209730622E+03  0.00000000000E+00 0. -1.
         -2   -1    0    0    0  501 -0.00000000000E+00 -0.00000000000E+00 -0.53295321591E+02  0.53295321591E+02  0.00000000000E+00 0.  1.
         25    2    1    2    0    0 -0.97419173265E+02  0.25558686688E+02  0.44094920950E+03  0.46928386323E+03  0.12508955650E+03 0.  0.
         23    2    1    2    0    0  0.97419173265E+02 -0.25558686688E+02  0.77852775129E+02  0.15610876458E+03  0.90361219549E+02 0.  0.
          5    1    3    3  502    0 -0.23467577540E+02  0.68152390921E+02  0.15799703798E+03  0.17371244053E+03  0.41800000000E+01 0. -1.
         -5    1    3    3    0  502 -0.73951595725E+02 -0.42593704233E+02  0.28295217151E+03  0.29557142270E+03  0.41800000000E+01 0. -1.
        -11    1    4    4    0    0  0.74393516033E+02 -0.21299713552E+02  0.98243058394E+02  0.12505907223E+03  0.00000000000E+00 0. -1.
         11    1    4    4    0    0  0.23025657232E+02 -0.42589731356E+01 -0.20390283266E+02  0.31049692346E+02  0.00000000000E+00 0.  1.
</event>
<event>
 8    1  0.6635152E-009  0.1123581E+03  0.7561462E-02  0.1256264E+00
          2   -1    0    0  501    0  0.00000000000E+00  0.00000000000E+00  0.10308206698E+04  0.10308206698E+04  0.00000000000E+00 0. -1.
         -2   -1    0    0    0  501 -0.00000000000E+00 -0.00000000000E+00 -0.16786819429E+02  0.16786819429E+02  0.00000000000E+00 0.  1.
         25    2    1    2    0    0 -0.41130609343E+02  0.37887873704E+02  0.72992659663E+03  0.74267584507E+03  0.12508939353E+03 0.  0.
         23    2    1    2    0    0  0.41130609343E+02 -0.37887873704E+02  0.28410725371E+03  0.30493164413E+03  0.95598943430E+02 0.  0.
          5    1    3    3  502    0 -0.22385131891E+02  0.75637473623E+02  0.61757069354E+03  0.62260192376E+03  0.41800000000E+01 0.  1.
         -5    1    3    3    0  502 -0.18745477452E+02 -0.37749599919E+02  0.11235590309E+03  0.12007392131E+03  0.41800000000E+01 0.  1.
        -11    1    4    4    0    0  0.29457677150E+02 -0.66356865856E+02  0.24281176841E+03  0.25343350857E+03  0.00000000000E+00 0. -1.
         11    1    4    4    0    0  0.11672932192E+02  0.28468992152E+02  0.41295485302E+02  0.51498135563E+02  0.00000000000E+00 0.  1.
</event>
<event>
 8    1  0.6635152E-009  0.1178696E+03  0.7561462E-02  0.1246653E+00
         -1   -1    0    0    0  501 -0.00000000000E+00  0.00000000000E+00  0.52430043997E+02  0.52430043997E+02  0.00000000000E+00 0.  1.
          1   -1    0    0  501    0  0.00000000000E+00 -0.00000000000E+00 -0.28567197824E+03  0.28567197824E+03  0.00000000000E+00 0. -1.
         25    2    1    2    0    0 -0.21674706259E+02  0.50432291599E+02 -0.10895155677E+03  0.17472996827E+03  0.12508761394E+03 0.  0.
         23    2    1    2    0    0  0.21674706259E+02 -0.50432291599E+02 -0.12429037747E+03  0.16337205397E+03  0.90714503569E+02 0.  0.
          5    1    3    3  502    0 -0.58844092503E+02 -0.13849189470E+02 -0.35643417339E+02  0.70301869613E+02  0.41800000000E+01 0.  1.
         -5    1    3    3    0  502  0.37169386244E+02  0.64281481068E+02 -0.73308139431E+02  0.10442809866E+03  0.41800000000E+01 0.  1.
        -11    1    4    4    0    0  0.27743142404E+02 -0.72635701561E+02 -0.70876981010E+02  0.10521013986E+03  0.00000000000E+00 0.  1.
         11    1    4    4    0    0 -0.60684361448E+01  0.22203409962E+02 -0.53413396464E+02  0.58161914111E+02  0.00000000000E+00 0. -1.
</event>
<event>
 8    1  0.6635152E-009  0.1043431E+03  0.7561462E-02  0.1271419E+00
         -1   -1    0    0    0  501 -0.00000000000E+00  0.00000000000E+00  0.82195266421E+02  0.82195266421E+02  0.00000000000E+00 0.  1.
          1   -1    0    0  501    0  0.00000000000E+00 -0.00000000000E+00 -0.23040827086E+03  0.23040827086E+03  0.00000000000E+00 0. -1.
         25    2    1    2    0    0 -0.16402115224E+02  0.21993955883E+02 -0.17202070686E+03  0.21445490337E+03  0.12508804303E+03 0.  0.
         23    2    1    2    0    0  0.16402115224E+02 -0.21993955883E+02  0.23807702424E+02  0.98148633914E+02  0.91178858104E+02 0.  0.
          5    1    3    3  502    0  0.19065943167E+01 -0.48197284676E+02 -0.36315816826E+02  0.60522097648E+02  0.41800000000E+01 0. -1.
         -5    1    3    3    0  502 -0.18308709541E+02  0.70191240559E+02 -0.13570489004E+03  0.15393280572E+03  0.41800000000E+01 0. -1.
        -11    1    4    4    0    0  0.35402066332E+02  0.20608103023E+02 -0.79362816224E+01  0.41725109668E+02  0.00000000000E+00 0.  1.
         11    1    4    4    0    0 -0.18999951109E+02 -0.42602058906E+02  0.31743984047E+02  0.56423524246E+02  0.00000000000E+00 0. -1.
</event>
<event>
 8    1  0.6635152E-009  0.1049796E+03  0.7561462E-02  0.1270160E+00
          1   -1    0    0  501    0  0.00000000000E+00  0.00000000000E+00  0.63465346561E+02  0.63465346561E+02  0.00000000000E+00 0. -1.
         -1   -1    0    0    0  501 -0.00000000000E+00 -0.00000000000E+00 -0.21520816560E+03  0.21520816560E+03  0.00000000000E+00 0.  1.
         25    2    1    2    0    0  0.44005713023E+01 -0.31470170636E+02 -0.51379577978E+02  0.13891321878E+03  0.12508910684E+03 0.  0.
         23    2    1    2    0    0 -0.44005713023E+01  0.31470170636E+02 -0.10036324106E+03  0.13976029338E+03  0.91926181157E+02 0.  0.
          5    1    3    3  502    0 -0.71396609882E+00 -0.79617635435E+02 -0.24676929109E+02  0.83461972479E+02  0.41800000000E+01 0.  1.
         -5    1    3    3    0  502  0.51145374011E+01  0.48147464799E+02 -0.26702648869E+02  0.55451246298E+02  0.41800000000E+01 0.  1.
        -11    1    4    4    0    0 -0.31870154359E+02  0.41554036837E+02 -0.97093945291E+02  0.11031626774E+03  0.00000000000E+00 0.  1.
         11    1    4    4    0    0  0.27469583057E+02 -0.10083866201E+02 -0.32692957665E+01  0.29444025637E+02  0.00000000000E+00 0. -1.
</event>
<event>
 8    1  0.6635152E-009  0.5754565E+02  0.7561462E-02  0.1408430E+00
         -1   -1    0    0    0  501 -0.00000000000E+00  0.00000000000E+00  0.28716284811E+02  0.28716284811E+02  0.00000000000E+00 0.  1.
          1   -1    0    0  501    0  0.00000000000E+00 -0.00000000000E+00 -0.48784727498E+03  0.48784727498E+03  0.00000000000E+00 0. -1.
         25    2    1    2    0    0  0.80612527591E+01 -0.65406903789E+00 -0.36261395349E+03  0.38366829183E+03  0.12508823801E+03 0.  0.
         23    2    1    2    0    0 -0.80612527591E+01  0.65406903789E+00 -0.96517036679E+02  0.13289526796E+03  0.90995616790E+02 0.  0.
          5    1    3    3  502    0 -0.58868644322E+01  0.14996706747E+02  0.34356144079E+01  0.16995064945E+02  0.41800000000E+01 0. -1.
         -5    1    3    3    0  502  0.13948117191E+02 -0.15650775785E+02 -0.36604956790E+03  0.36667322689E+03  0.41800000000E+01 0. -1.
        -11    1    4    4    0    0  0.13957810957E+02  0.34202712666E+02 -0.11183251958E+02  0.38596776611E+02  0.00000000000E+00 0.  1.
         11    1    4    4    0    0 -0.22019063716E+02 -0.33548643628E+02 -0.85333784721E+02  0.94298491351E+02  0.00000000000E+00 0. -1.
</event>
<event>
 8    1  0.6635152E-009  0.2476562E+03  0.7561462E-02  0.1114795E+00
          2   -1    0    0  501    0  0.00000000000E+00  0.00000000000E+00  0.81951311963E+03  0.81951311963E+03  0.00000000000E+00 0.  1.
         -2   -1    0    0    0  501 -0.00000000000E+00 -0.00000000000E+00 -0.83274641827E+02  0.83274641827E+02  0.00000000000E+00 0. -1.
         25    2    1    2    0    0 -0.17796675502E+02  0.23500894747E+03  0.32954786548E+03  0.42402288896E+03  0.12509071775E+03 0.  0.
         23    2    1    2    0    0  0.17796675502E+02 -0.23500894747E+03  0.40669061232E+03  0.47876487250E+03  0.90953955038E+02 0.  0.
          5    1    3    3  502    0 -0.22061543816E+02  0.24605097386E+03  0.32901773041E+03  0.41145830016E+03  0.41800000000E+01 0.  1.
         -5    1    3    3    0  502  0.42648683148E+01 -0.11042026385E+02  0.53013507723E+00  0.12564588796E+02  0.41800000000E+01 0.  1.
        -11    1    4    4    0    0  0.13267133550E+02 -0.16723627077E+03  0.19915798467E+03  0.26039948147E+03  0.00000000000E+00 0. -1.
         11    1    4    4    0    0  0.45295419513E+01 -0.67772676702E+02  0.20753262765E+03  0.21836539102E+03  0.00000000000E+00 0.  1.
</event>
<event>
 8    1  0.6635152E-009  0.1076176E+03  0.7561462E-02  0.1265046E+00
          2   -1    0    0  501    0  0.00000000000E+00  0.00000000000E+00  0.29425825160E+03  0.29425825160E+03  0.00000000000E+00 0. -1.
         -2   -1    0    0    0  501 -0.00000000000E+00 -0.00000000000E+00 -0.46360800671E+02  0.46360800671E+02  0.00000000000E+00 0.  1.
         25    2    1    2    0    0 -0.28151237163E+01 -0.38362774578E+02  0.16337357269E+03  0.20932773627E+03  0.12509016558E+03 0.  0.
         23    2    1    2    0    0  0.28151237163E+01  0.38362774578E+02  0.84523878237E+02  0.13129131600E+03  0.92808923434E+02 0.  0.
          5    1    3    3  502    0  0.45074155572E+02 -0.47798467452E+02  0.41106823498E+02  0.77611959963E+02  0.41800000000E+01 0. -1.
         -5    1    3    3    0  502 -0.47889279288E+02  0.94356928741E+01  0.12226674919E+03  0.13171577631E+03  0.41800000000E+01 0. -1.
        -11    1    4    4    0    0  0.89792167054E+01  0.68787842023E+02  0.60289831856E+02  0.91908962392E+02  0.00000000000E+00 0.  1.
         11    1    4    4    0    0 -0.61640929891E+01 -0.30425067445E+02  0.24234046381E+02  0.39382353604E+02  0.00000000000E+00 0. -1.
</event>
<event>
 8    1  0.6635152E-009  0.1755491E+03  0.7561462E-02  0.1172182E+00
          2   -1    0    0  501    0  0.00000000000E+00  0.00000000000E+00  0.13944007680E+03  0.13944007680E+03  0.00000000000E+00 0. -1.
         -2   -1    0    0    0  501 -0.00000000000E+00 -0.00000000000E+00 -0.28087655906E+03  0.28087655906E+03  0.00000000000E+00 0.  1.
         25    2    1    2    0    0 -0.29856839411E+01 -0.16494927031E+03 -0.63361495289E+02  0.21651753704E+03  0.12509192091E+03 0.  0.
         23    2    1    2    0    0  0.29856839411E+01  0.16494927031E+03 -0.78074986969E+02  0.20379909882E+03  0.90670794667E+02 0.  0.
          5    1    3    3  502    0 -0.38245698517E+02 -0.53732178793E+02  0.24416903044E+02  0.70452381416E+02  0.41800000000E+01 0.  1.
         -5    1    3    3    0  502  0.35260014576E+02 -0.11121709152E+03 -0.87778398332E+02  0.14606515562E+03  0.41800000000E+01 0.  1.
        -11    1    4    4    0    0  0.15596873304E+02  0.13308107611E+03 -0.96275538984E+02  0.16499337769E+03  0.00000000000E+00 0.  1.
         11    1    4    4    0    0 -0.12611189363E+02  0.31868194206E+02  0.18200552015E+02  0.38805721134E+02  0.00000000000E+00 0. -1.
</event>
<event>
 8    1  0.6635152E-009  0.2930184E+03  0.7561462E-02  0.1088784E+00
          2   -1    0    0  501    0  0.00000000000E+00  0.00000000000E+00  0.53213929020E+02  0.53213929020E+02  0.00000000000E+00 0. -1.
         -2   -1    0    0    0  501 -0.00000000000E+00 -0.00000000000E+00 -0.18124519347E+04  0.18124519347E+04  0.00000000000E+00 0.  1.
         25    2    1    2    0    0 -0.17004826305E+02  0.29077127184E+03 -0.89947048511E+03  0.95369427653E+03  0.12509405604E+03 0.  0.
         23    2    1    2    0    0  0.17004826305E+02 -0.29077127184E+03 -0.85976752059E+03  0.91197158721E+03  0.87492226907E+02 0.  0.
          5    1    3    3  502    0  0.12824852084E+02  0.41539802830E+02 -0.30901144312E+03  0.31208264359E+03  0.41800000000E+01 0. -1.
         -5    1    3    3    0  502 -0.29829678389E+02  0.24923146901E+03 -0.59045904199E+03  0.64161163294E+03  0.41800000000E+01 0. -1.
        -11    1    4    4    0    0  0.15364741290E+02 -0.22442626614E+03 -0.75633230871E+03  0.78907653964E+03  0.00000000000E+00 0.  1.
         11    1    4    4    0    0  0.16400850149E+01 -0.66345005705E+02 -0.10343521187E+03  0.12289504756E+03  0.00000000000E+00 0. -1.
</event>
<event>
 8    1  0.6635152E-009  0.7977903E+02  0.7561462E-02  0.1329680E+00
         -1   -1    0    0    0  501 -0.00000000000E+00  0.00000000000E+00  0.23440987771E+03  0.23440987771E+03  0.00000000000E+00 0.  1.
          1   -1    0    0  501    0  0.00000000000E+00 -0.00000000000E+00 -0.82988218227E+02  0.82988218227E+02  0.00000000000E+00 0. -1.
         25    2    1    2    0    0 -0.41137174945E+02 -0.40650920809E+02  0.15649720650E+03  0.20852848761E+03  0.12509192611E+03 0.  0.
         23    2    1    2    0    0  0.41137174945E+02  0.40650920809E+02 -0.50755470151E+01  0.10886960833E+03  0.92098131985E+02 0.  0.
          5    1    3    3  502    0 -0.17316809748E+02 -0.53682341240E+01 -0.19768370006E+02  0.27146835730E+02  0.41800000000E+01 0.  1.
         -5    1    3    3    0  502 -0.23820365198E+02 -0.35282686685E+02  0.17626557651E+03  0.18138165188E+03  0.41800000000E+01 0.  1.
        -11    1    4    4    0    0  0.14026576431E+02  0.62064394292E+02  0.19410842098E+02  0.66524541908E+02  0.00000000000E+00 0.  1.
         11    1    4    4    0    0  0.27110598514E+02 -0.21413473483E+02 -0.24486389113E+02  0.42345066421E+02  0.00000000000E+00 0. -1.
</event>
<event>
 7    1  0.6635152E-009  0.1310693E+03  0.7561462E-02  0.1225878E+00
         -1   -1    0    0    0  501 -0.00000000000E+00  0.00000000000E+00  0.11122204912E+03  0.11122204912E+03  0.00000000000E+00 0.  1.
          1   -1    0    0  501    0  0.00000000000E+00 -0.00000000000E+00 -0.23324597187E+03  0.23324597187E+03  0.00000000000E+00 0. -1.
         23    2    1    2    0    0 -0.44868080708E+02 -0.92502149982E+02 -0.11510193972E+03  0.18250931450E+03  0.97423821178E+02 0.  0.
          5    1    1    2  502    0  0.76000263788E+02  0.97176167707E+02  0.13543968021E+02  0.12417793337E+03  0.41800000000E+01 0. -1.
         -5    1    1    2    0  502 -0.31132183080E+02 -0.46740177258E+01 -0.20465951050E+02  0.37780773118E+02  0.41800000000E+01 0. -1.
        -11    1    3    3    0    0 -0.34822942995E+02 -0.38075503409E+02  0.34100014090E+01  0.51710825059E+02  0.00000000000E+00 0.  1.
         11    1    3    3    0    0 -0.10045137713E+02 -0.54426646573E+02 -0.11851194113E+03  0.13079848944E+03  0.00000000000E+00 0. -1.
</event>
<event>
 8    1  0.6635152E-009  0.2357006E+03  0.7561462E-02  0.1122691E+00
         -1   -1    0    0    0  501 -0.00000000000E+00  0.00000000000E+00  0.10487350609E+03  0.10487350609E+03  0.00000000000E+00 0.  1.
          1   -1    0    0  501    0  0.00000000000E+00 -0.00000000000E+00 -0.57881925253E+03  0.57881925253E+03  0.00000000000E+00 0. -1.
         25    2    1    2    0    0 -0.20597173843E+03  0.68970337686E+02 -0.18769303197E+03  0.31313975548E+03  0.12508624104E+03 0.  0.
         23    2    1    2    0    0  0.20597173843E+03 -0.68970337686E+02 -0.28625271446E+03  0.37055300314E+03  0.90485618137E+02 0.  0.
          5    1    3    3  502    0 -0.13935191157E+03 -0.17914877575E+02 -0.95348781965E+02  0.16984922938E+03  0.41800000000E+01 0. -1.
         -5    1    3    3    0  502 -0.66619826853E+02  0.86885215261E+02 -0.92344250010E+02  0.14329052610E+03  0.41800000000E+01 0. -1.
        -11    1    4    4    0    0  0.39794098409E+02 -0.31925344909E+02 -0.20591136297E+02  0.55016295856E+02  0.00000000000E+00 0.  1.
         11    1    4    4    0    0  0.16617764002E+03 -0.37044992777E+02 -0.26566157816E+03  0.31553670728E+03  0.00000000000E+00 0. -1.
</event>
<event>
 8    1  0.6635152E-009  0.1909188E+03  0.7561462E-02  0.1157635E+00
         -2   -1    0    0    0  501 -0.00000000000E+00  0.00000000000E+00  0.69057840338E+02  0.69057840338E+02  0.00000000000E+00 0.  1.
          2   -1    0    0  501    0  0.00000000000E+00 -0.00000000000E+00 -0.60103113676E+03  0.60103113676E+03  0.00000000000E+00 0. -1.
         25    2    1    2    0    0 -0.15273999122E+03 -0.73395382304E+02 -0.22620564342E+03  0.30908259014E+03  0.12508663936E+03 0.  0.
         23    2    1    2    0    0  0.15273999122E+03  0.73395382304E+02 -0.30576765300E+03  0.36100638696E+03  0.90085330358E+02 0.  0.
          5    1    3    3  502    0 -0.55086495475E+02  0.33597849023E+02 -0.84456422825E+02  0.10636586482E+03  0.41800000000E+01 0.  1.
         -5    1    3    3    0  502 -0.97653495749E+02 -0.10699323133E+03 -0.14174922060E+03  0.20271672532E+03  0.41800000000E+01 0.  1.
        -11    1    4    4    0    0  0.75431576770E+01  0.12944913163E+02  0.22571742257E+01  0.15151397296E+02  0.00000000000E+00 0.  1.
         11    1    4    4    0    0  0.14519683355E+03  0.60450469141E+02 -0.30802482722E+03  0.34585498967E+03  0.00000000000E+00 0. -1.
</event>
<event>
 8    1  0.6635152E-009  0.1105794E+03  0.7561462E-02  0.1259501E+00
          2   -1    0    0  501    0  0.00000000000E+00  0.00000000000E+00  0.48023945927E+03  0.48023945927E+03  0.00000000000E+00 0. -1.
         -2   -1    0    0    0  501 -0.00000000000E+00 -0.00000000000E+00 -0.39812781816E+02  0.39812781816E+02  0.00000000000E+00 0.  1.
         25    2    1    2    0    0 -0.53820173814E+02  0.61052959828E+02  0.28736886078E+03  0.32380832187E+03  0.12508753795E+03 0.  0.
         23    2    1    2    0    0  0.53820173814E+02 -0.61052959828E+02  0.15305781667E+03  0.19624391922E+03  0.91983180920E+02 0.  0.
          5    1    3    3  502    0 -0.86746526151E+02  0.61704732114E+02  0.16029056873E+03  0.19246551013E+03  0.41800000000E+01 0.  1.
         -5    1    3    3    0  502  0.32926352338E+02 -0.65177228633E+00  0.12707829205E+03  0.13134281174E+03  0.41800000000E+01 0.  1.
        -11    1    4    4    0    0  0.33623833216E+02 -0.36320539025E+02  0.11080228723E+02  0.50719968295E+02  0.00000000000E+00 0.  1.
         11    1    4    4    0    0  0.20196340597E+02 -0.24732420802E+02  0.14197758795E+03  0.14552395092E+03  0.00000000000E+00 0. -1.
</event>
<event>
 8    1  0.6635152E-009  0.2897151E+03  0.7561462E-02  0.1090498E+00
         -2   -1    0    0    0  501 -0.00000000000E+00  0.00000000000E+00  0.54750603207E+02  0.54750603207E+02  0.00000000000E+00 0.  1.
          2   -1    0    0  501    0  0.00000000000E+00 -0.00000000000E+00 -0.17208129139E+04  0.17208129139E+04  0.00000000000E+00 0. -1.
         25    2    1    2    0    0 -0.23339605686E+03  0.13316260683E+03 -0.11369438004E+04  0.11749450759E+04  0.12509487198E+03 0.  0.
         23    2    1    2    0    0  0.23339605686E+03 -0.13316260683E+03 -0.52911851036E+03  0.60061844123E+03  0.92574914122E+02 0.  0.
          5    1    3    3  502    0 -0.10174103931E+03  0.12922792035E+03 -0.64623500609E+03  0.66684949574E+03  0.41800000000E+01 0. -1.
         -5    1    3    3    0  502 -0.13165501755E+03  0.39346864821E+01 -0.49070879428E+03  0.50809558017E+03  0.41800000000E+01 0. -1.
        -11    1    4    4    0    0  0.26369373057E+02 -0.56516342444E+02 -0.13946484623E+03  0.15277396418E+03  0.00000000000E+00 0. -1.
         11    1    4    4    0    0  0.20702668380E+03 -0.76646264390E+02 -0.38965366414E+03  0.44784447705E+03  0.00000000000E+00 0.  1.
</event>
<event>
 8    1  0.6635152E-009  0.1539639E+03  0.7561462E-02  0.1195685E+00
         -1   -1    0    0    0  501 -0.00000000000E+00  0.00000000000E+00  0.19959593118E+03  0.19959593118E+03  0.00000000000E+00 0.  1.
          1   -1    0    0  501    0  0.00000000000E+00 -0.00000000000E+00 -0.12785641388E+03  0.12785641388E+03  0.00000000000E+00 0. -1.
         25    2    1    2    0    0  0.10236175588E+03 -0.53401228716E+02  0.19323588913E+02  0.17132165321E+03  0.12509231581E+03 0.  0.
         23    2    1    2    0    0 -0.10236175588E+03  0.53401228716E+02  0.52415928389E+02  0.15613069185E+03  0.91102925827E+02 0.  0.
          5    1    3    3  502    0  0.52331321733E+02 -0.86331623298E+02 -0.15022190090E+02  0.10215113808E+03  0.41800000000E+01 0. -1.
         -5    1    3    3    0  502  0.50030434150E+02  0.32930394581E+02  0.34345779004E+02  0.69170515133E+02  0.41800000000E+01 0. -1.
        -11    1    4    4    0    0 -0.47518187522E+02 -0.23005380628E+02  0.14741926384E+02  0.54813776341E+02  0.00000000000E+00 0. -1.
         11    1    4    4    0    0 -0.54843568360E+02  0.76406609345E+02  0.37674002004E+02  0.10131691551E+03  0.00000000000E+00 0.  1.
</event>
<event>
 8    1  0.6635152E-009  0.1018970E+03  0.7561462E-02  0.1276357E+00
          1   -1    0    0  501    0  0.00000000000E+00  0.00000000000E+00  0.76054814790E+02  0.76054814790E+02  0.00000000000E+00 0. -1.
         -1   -1    0    0    0  501 -0.00000000000E+00 -0.00000000000E+00 -0.25258820155E+03  0.25258820155E+03  0.00000000000E+00 0.  1.
         25    2    1    2    0    0  0.36559058481E+02 -0.19871227710E+02 -0.76223101454E+01  0.13203101878E+03  0.12507061950E+03 0.  0.
         23    2    1    2    0    0 -0.36559058481E+02  0.19871227710E+02 -0.16891107662E+03  0.19661199756E+03  0.91618204154E+02 0.  0.
          5    1    3    3  502    0 -0.23177206520E+01  0.39408410651E+02 -0.37851742138E+02  0.54850901924E+02  0.41800000000E+01 0. -1.
         -5    1    3    3    0  502  0.38876779133E+02 -0.59279638361E+02  0.30229431992E+02  0.77180116860E+02  0.41800000000E+01 0. -1.
        -11    1    4    4    0    0 -0.36642883176E+02 -0.27435935124E+02 -0.45930451138E+02  0.64846262540E+02  0.00000000000E+00 0. -1.
         11    1    4    4    0    0  0.83824695515E-01  0.47307162834E+02 -0.12298062548E+03  0.13176573502E+03  0.00000000000E+00 0.  1.
</event>
<event>
 7    1  0.6635152E-009  0.1324393E+03  0.7561462E-02  0.1223881E+00
          1   -1    0    0  501    0  0.00000000000E+00  0.00000000000E+00  0.17724200677E+03  0.17724200677E+03  0.00000000000E+00 0. -1.
         -1   -1    0    0    0  501 -0.00000000000E+00 -0.00000000000E+00 -0.11544278118E+03  0.11544278118E+03  0.00000000000E+00 0.  1.
         23    2    1    2    0    0  0.42028273860E+02 -0.77773229924E+02 -0.17609573124E+02  0.12009842818E+03  0.79362990675E+02 0.  0.
          5    1    1    2  502    0  0.12721812191E+02  0.91479237389E+02  0.29269877449E+02  0.96976767860E+02  0.41800000000E+01 0.  1.
         -5    1    1    2    0  502 -0.54750086051E+02 -0.13706007465E+02  0.50138921263E+02  0.75609591909E+02  0.41800000000E+01 0.  1.
        -11    1    3    3    0    0  0.12892591392E+02  0.14301947598E+02 -0.13348259095E+02  0.23429482256E+02  0.00000000000E+00 0.  1.
         11    1    3    3    0    0  0.29135682468E+02 -0.92075177522E+02 -0.42613140292E+01  0.96668945923E+02  0.00000000000E+00 0. -1.
</event>
<event>
 8    1  0.6635152E-009  0.1384782E+03  0.7561462E-02  0.1215391E+00
          1   -1    0    0  501    0  0.00000000000E+00  0.00000000000E+00  0.46391399263E+03  0.46391399263E+03  0.00000000000E+00 0. -1.
         -1   -1    0    0    0  501 -0.00000000000E+00 -0.00000000000E+00 -0.69045338063E+02  0.69045338063E+02  0.00000000000E+00 0.  1.
         25    2    1    2    0    0 -0.20860806493E+02  0.13216527247E+03  0.28887164523E+03  0.34204543717E+03  0.12508165805E+03 0.  0.
         23    2    1    2    0    0  0.20860806493E+02 -0.13216527247E+03  0.10599700934E+03  0.19091389352E+03  0.85498048258E+02 0.  0.
          5    1    3    3  502    0 -0.64151546428E+01  0.14881284032E+02  0.18167260364E+03  0.18244181028E+03  0.41800000000E+01 0. -1.
         -5    1    3    3    0  502 -0.14445651850E+02  0.11728398844E+03  0.10719904158E+03  0.15960362689E+03  0.41800000000E+01 0. -1.
        -11    1    4    4    0    0  0.35479490914E+02 -0.74952104716E+02  0.17865478043E+02  0.84827988203E+02  0.00000000000E+00 0.  1.
         11    1    4    4    0    0 -0.14618684421E+02 -0.57213167752E+02  0.88131531294E+02  0.10608590532E+03  0.00000000000E+00 0. -1.
</event>
<event>
 8    1  0.6635152E-009  0.3915809E+03  0.7561462E-02  0.1046735E+00
         -2   -1    0    0    0  501 -0.00000000000E+00  0.00000000000E+00  0.20246351124E+03  0.20246351124E+03  0.00000000000E+00 0.  1.
          2   -1    0    0  501    0  0.00000000000E+00 -0.00000000000E+00 -0.10356040682E+04  0.10356040682E+04  0.00000000000E+00 0. -1.
         25    2    1    2    0    0  0.18498295168E+03 -0.33526989439E+03 -0.72702668685E+03  0.83116752019E+03  0.12508816383E+03 0.  0.
         23    2    1    2    0    0 -0.18498295168E+03  0.33526989439E+03 -0.10611387013E+03  0.40690005927E+03  0.87652212223E+02 0.  0.
          5    1    3    3  502    0  0.52900616132E+02 -0.19935473258E+03 -0.30146953600E+03  0.36529732839E+03  0.41800000000E+01 0. -1.
         -5    1    3    3    0  502  0.13208233555E+03 -0.13591516181E+03 -0.42555715085E+03  0.46587019180E+03  0.41800000000E+01 0. -1.
        -11    1    4    4    0    0 -0.60579619894E+02  0.60205198181E+02  0.41394893913E+01  0.85508430035E+02  0.00000000000E+00 0.  1.
         11    1    4    4    0    0 -0.12440333178E+03  0.27506469621E+03 -0.11025335952E+03  0.32139162924E+03  0.00000000000E+00 0. -1.
</event>
<event>
 8    1  0.6635152E-009  0.1193065E+03  0.7561462E-02  0.1244246E+00
         -3   -1    0    0    0  501 -0.00000000000E+00  0.00000000000E+00  0.31020792528E+03  0.31020792528E+03  0.00000000000E+00 0.  1.
          3   -1    0    0  501    0  0.00000000000E+00 -0.00000000000E+00 -0.11469690336E+03  0.11469690336E+03  0.00000000000E+00 0. -1.
         25    2    1    2    0    0 -0.10170083676E+03 -0.18986795016E+01 -0.27621360564E+02  0.16357543699E+03  0.12508924353E+03 0.  0.
         23    2    1    2    0    0  0.10170083676E+03  0.18986795016E+01  0.22313238248E+03  0.26132939166E+03  0.90323450159E+02 0.  0.
          5    1    3    3  502    0 -0.29935880145E+02 -0.39595589082E+02 -0.58404995531E+02  0.76763164981E+02  0.41800000000E+01 0. -1.
         -5    1    3    3    0  502 -0.71764956617E+02  0.37696909581E+02  0.30783634968E+02  0.86812272012E+02  0.41800000000E+01 0. -1.
        -11    1    4    4    0    0  0.45625433094E+02 -0.16643516776E+02  0.18442865724E+03  0.19071606227E+03  0.00000000000E+00 0.  1.
         11    1    4    4    0    0  0.56075403667E+02  0.18542196277E+02  0.38703725239E+02  0.70613329384E+02  0.00000000000E+00 0. -1.
</event>
<event>
 8    1  0.6635152E-009  0.1042539E+03  0.7561462E-02  0.1271597E+00
         -2   -1    0    0    0  501 -0.00000000000E+00  0.00000000000E+00  0.11861734585E+03  0.11861734585E+03  0.00000000000E+00 0.  1.
          2   -1    0    0  501    0  0.00000000000E+00 -0.00000000000E+00 -0.14108087188E+03  0.14108087188E+03  0.00000000000E+00 0. -1.
         25    2    1    2    0    0  0.64092057063E+02 -0.10524975337E+02  0.11230892027E+02  0.14139170424E+03  0.12508762612E+03 0.  0.
         23    2    1    2    0    0 -0.64092057063E+02  0.10524975337E+02 -0.33694418057E+02  0.11830651349E+03  0.92965318493E+02 0.  0.
          5    1    3    3  502    0  0.92771521148E+02 -0.59487425844E+01  0.39088412890E+02  0.10093225003E+03  0.41800000000E+01 0. -1.
         -5    1    3    3    0  502 -0.28679464085E+02 -0.45762327528E+01 -0.27857520863E+02  0.40459454211E+02  0.41800000000E+01 0. -1.
        -11    1    4    4    0    0 -0.12045358079E+02  0.28585067670E+02  0.23484034109E+02  0.38906254034E+02  0.00000000000E+00 0.  1.
         11    1    4    4    0    0 -0.52046698984E+02 -0.18060092333E+02 -0.57178452166E+02  0.79400259460E+02  0.00000000000E+00 0. -1.
</event>
<event>
 8    1  0.6635152E-009  0.1056229E+03  0.7561462E-02  0.1268897E+00
         -2   -1    0    0    0  501 -0.00000000000E+00  0.00000000000E+00  0.14747019445E+03  0.14747019445E+03  0.00000000000E+00 0.  1.
          2   -1    0    0  501    0  0.00000000000E+00 -0.00000000000E+00 -0.13611193423E+03  0.13611193423E+03  0.00000000000E+00 0. -1.
         25    2    1    2    0    0 -0.79830575204E+01 -0.73250813345E+02 -0.46861660634E+02  0.15255523557E+03  0.12509066232E+03 0.  0.
         23    2    1    2    0    0  0.79830575204E+01  0.73250813345E+02  0.58219920851E+02  0.13102689311E+03  0.91373282045E+02 0.  0.
          5    1    3    3  502    0  0.20569516376E+02 -0.62277306532E+01 -0.72093471580E+02  0.75344745520E+02  0.41800000000E+01 0.  1.
         -5    1    3    3    0  502 -0.28552573897E+02 -0.67023082692E+02  0.25231810946E+02  0.77210490047E+02  0.41800000000E+01 0.  1.
        -11    1    4    4    0    0  0.27125022514E+02  0.88082566559E+02  0.38853185086E+02  0.10001937497E+03  0.00000000000E+00 0. -1.
         11    1    4    4    0    0 -0.19141964993E+02 -0.14831753214E+02  0.19366735764E+02  0.31007518143E+02  0.00000000000E+00 0.  1.
</event>
<event>
 8    1  0.6635152E-009  0.1161390E+03  0.7561462E-02  0.1249606E+00
         -1   -1    0    0    0  501 -0.00000000000E+00  0.00000000000E+00  0.11996780440E+03  0.11996780440E+03  0.00000000000E+00 0.  1.
          1   -1    0    0  501    0  0.00000000000E+00 -0.00000000000E+00 -0.12827208679E+03  0.12827208679E+03  0.00000000000E+00 0. -1.
         25    2    1    2    0    0  0.33563420466E+02  0.44086730294E+02  0.21740821519E+02  0.13852846640E+03  0.12508928692E+03 0.  0.
         23    2    1    2    0    0 -0.33563420466E+02 -0.44086730294E+02 -0.30045103908E+02  0.10971142480E+03  0.89798360122E+02 0.  0.
          5    1    3    3  502    0  0.62076358308E+02  0.65918178970E+02 -0.89782594786E+01  0.91086563898E+02  0.41800000000E+01 0.  1.
         -5    1    3    3    0  502 -0.28512937842E+02 -0.21831448676E+02  0.30719080998E+02  0.47441902502E+02  0.41800000000E+01 0.  1.
        -11    1    4    4    0    0 -0.34515033008E+01  0.27554192947E+02 -0.91724764346E+01  0.29245183329E+02  0.00000000000E+00 0.  1.
         11    1    4    4    0    0 -0.30111917165E+02 -0.71640923241E+02 -0.20872627473E+02  0.80466241467E+02  0.00000000000E+00 0. -1.
</event>
<event>
 8    1  0.6635152E-009  0.2723195E+03  0.7561462E-02  0.1099959E+00
         -1   -1    0    0    0  501 -0.00000000000E+00  0.00000000000E+00  0.44724967798E+02  0.44724967798E+02  0.00000000000E+00 0. -1.
          1   -1    0    0  501    0  0.00000000000E+00 -0.00000000000E+00 -0.17843527960E+04  0.17843527960E+04  0.00000000000E+00 0.  1.
         25    2    1    2    0    0 -0.23216435529E+03 -0.11603836921E+03 -0.81575500261E+03  0.86514106209E+03  0.12509053535E+03 0.  0.
         23    2    1    2    0    0  0.23216435529E+03  0.11603836921E+03 -0.92387282559E+03  0.96393670171E+03  0.90927311798E+02 0.  0.
          5    1    3    3  502    0 -0.80225992144E+02 -0.83872785528E+02 -0.49899116377E+03  0.51232851559E+03  0.41800000000E+01 0. -1.
         -5    1    3    3    0  502 -0.15193836315E+03 -0.32165583685E+02 -0.31676383884E+03  0.35281254650E+03  0.41800000000E+01 0. -1.
        -11    1    4    4    0    0  0.33976706043E+02 -0.13292428955E+02 -0.89464508106E+02  0.96617821502E+02  0.00000000000E+00 0.  1.
         11    1    4    4    0    0  0.19818764925E+03  0.12933079817E+03 -0.83440831749E+03  0.86731888021E+03  0.00000000000E+00 0. -1.
</event>
<event>
 8    1  0.6635152E-009  0.1300947E+03  0.7561462E-02  0.1227315E+00
          2   -1    0    0  501    0  0.00000000000E+00  0.00000000000E+00  0.16653085528E+03  0.16653085528E+03  0.00000000000E+00 0. -1.
         -2   -1    0    0    0  501 -0.00000000000E+00 -0.00000000000E+00 -0.17328529769E+03  0.17328529769E+03  0.00000000000E+00 0.  1.
         25    2    1    2    0    0 -0.95243534038E+02  0.67885020728E+02 -0.61350227199E+02  0.18190873636E+03  0.12508889308E+03 0.  0.
         23    2    1    2    0    0  0.95243534038E+02 -0.67885020728E+02  0.54595784783E+02  0.15790741661E+03  0.90963430502E+02 0.  0.
          5    1    3    3  502    0 -0.29616682153E+02  0.59108080841E+02 -0.88226829750E+02  0.11032841416E+03  0.41800000000E+01 0. -1.
         -5    1    3    3    0  502 -0.65626851885E+02  0.87769398865E+01  0.26876602551E+02  0.71580322203E+02  0.41800000000E+01 0. -1.
        -11    1    4    4    0    0  0.74651528763E+02 -0.22831177162E+02 -0.75559645053E+01  0.78429624485E+02  0.00000000000E+00 0.  1.
         11    1    4    4    0    0  0.20592005275E+02 -0.45053843566E+02  0.62151749288E+02  0.79477792124E+02  0.00000000000E+00 0. -1.
</event>
<event>
 8    1  0.6635152E-009  0.1053057E+03  0.7561462E-02  0.1269518E+00
          1   -1    0    0  501    0  0.00000000000E+00  0.00000000000E+00  0.11346424404E+03  0.11346424404E+03  0.00000000000E+00 0. -1.
         -1   -1    0    0    0  501 -0.00000000000E+00 -0.00000000000E+00 -0.12572073661E+03  0.12572073661E+03  0.00000000000E+00 0.  1.
         25    2    1    2    0    0  0.15715403319E+01  0.24731604312E+02 -0.49021757976E+02  0.13661818875E+03  0.12508906727E+03 0.  0.
         23    2    1    2    0    0 -0.15715403319E+01 -0.24731604312E+02  0.36765265410E+02  0.10256679190E+03  0.92488594271E+02 0.  0.
          5    1    3    3  502    0 -0.42867515611E+02 -0.25699621399E+02 -0.47763055245E+02  0.69259485135E+02  0.41800000000E+01 0.  1.
         -5    1    3    3    0  502  0.44439055943E+02  0.50431225711E+02 -0.12587027306E+01  0.67358703613E+02  0.41800000000E+01 0.  1.
        -11    1    4    4    0    0  0.29435889126E+02  0.22193353061E+02  0.26480942558E+02  0.45390051856E+02  0.00000000000E+00 0. -1.
         11    1    4    4    0    0 -0.31007429458E+02 -0.46924957373E+02  0.10284322852E+02  0.57176740049E+02  0.00000000000E+00 0.  1.
</event>
<event>
 8    1  0.6635152E-009  0.1250253E+03  0.7561462E-02  0.1235030E+00
          2   -1    0    0  501    0  0.00000000000E+00  0.00000000000E+00  0.53532228984E+03  0.53532228984E+03  0.00000000000E+00 0. -1.
         -2   -1    0    0    0  501 -0.00000000000E+00 -0.00000000000E+00 -0.33807326084E+02  0.33807326084E+02  0.00000000000E+00 0.  1.
         25    2    1    2    0    0  0.22369851768E+02 -0.69342451477E+02  0.20914466241E+03  0.25435845279E+03  0.12509175371E+03 0.  0.
         23    2    1    2    0    0 -0.22369851768E+02  0.69342451477E+02  0.29237030134E+03  0.31477116313E+03  0.91058806198E+02 0.  0.
          5    1    3    3  502    0 -0.46816152543E+02 -0.55261414263E+01  0.96699172419E+02  0.10765915068E+03  0.41800000000E+01 0. -1.
         -5    1    3    3    0  502  0.69186004311E+02 -0.63816310050E+02  0.11244548999E+03  0.14669930211E+03  0.41800000000E+01 0. -1.
        -11    1    4    4    0    0 -0.52566264122E+02  0.37140542403E+02  0.11296386361E+03  0.13001333199E+03  0.00000000000E+00 0.  1.
         11    1    4    4    0    0  0.30196412355E+02  0.32201909074E+02  0.17940643774E+03  0.18475783114E+03  0.00000000000E+00 0. -1.
</event>
<event>
 8    1  0.6635152E-009  0.6611200E+02  0.7561462E-02  0.1373837E+00
          2   -1    0    0  501    0  0.00000000000E+00  0.00000000000E+00  0.18519626724E+04  0.18519626724E+04  0.00000000000E+00 0. -1.
         -2   -1    0    0    0  501 -0.00000000000E+00 -0.00000000000E+00 -0.13032789358E+02  0.13032789358E+02  0.00000000000E+00 0.  1.
         25    2    1    2    0    0 -0.74239217143E+01 -0.15378847719E+02  0.16442426411E+04  0.16490825159E+04  0.12509059910E+03 0.  0.
         23    2    1    2    0    0  0.74239217143E+01  0.15378847719E+02  0.19468724201E+03  0.21591294589E+03  0.91780468676E+02 0.  0.
          5    1    3    3  502    0 -0.21861434965E+02 -0.24286013513E+01  0.16045637192E+04  0.16047199201E+04  0.41800000000E+01 0.  1.
         -5    1    3    3    0  502  0.14437513251E+02 -0.12950246368E+02  0.39678921852E+02  0.44362595834E+02  0.41800000000E+01 0.  1.
        -11    1    4    4    0    0  0.32950156592E+02  0.41820738412E+02  0.14217404587E+03  0.15181615954E+03  0.00000000000E+00 0. -1.
         11    1    4    4    0    0 -0.25526234878E+02 -0.26441890693E+02  0.52513196140E+02  0.64096786342E+02  0.00000000000E+00 0.  1.
</event>
<event>
 8    1  0.6635152E-009  0.8669375E+02  0.7561462E-02  0.1311062E+00
         -1   -1    0    0    0  501 -0.00000000000E+00  0.00000000000E+00  0.72908573967E+02  0.72908573967E+02  0.00000000000E+00 0.  1.
          1   -1    0    0  501    0  0.00000000000E+00 -0.00000000000E+00 -0.19355631176E+03  0.19355631176E+03  0.00000000000E+00 0. -1.
         25    2    1    2    0    0 -0.35395559969E+02  0.29109790293E+02 -0.41291691762E+02  0.13947238014E+03  0.12508922998E+03 0.  0.
         23    2    1    2    0    0  0.35395559969E+02 -0.29109790293E+02 -0.79356046033E+02  0.12699250559E+03  0.87917511778E+02 0.  0.
          5    1    3    3  502    0  0.26150405455E+02 -0.10328894185E+02  0.27105790665E+02  0.39277551453E+02  0.41800000000E+01 0.  1.
         -5    1    3    3    0  502 -0.61545965424E+02  0.39438684477E+02 -0.68397482427E+02  0.10019482869E+03  0.41800000000E+01 0.  1.
        -11    1    4    4    0    0  0.46177530246E+02 -0.64176575291E+01 -0.88685237478E+02  0.10019292377E+03  0.00000000000E+00 0. -1.
         11    1    4    4    0    0 -0.10781970277E+02 -0.22692132764E+02  0.93291914453E+01  0.26799581815E+02  0.00000000000E+00 0.  1.
</event>
<event>
 8    1  0.6635152E-009  0.8319935E+02  0.7561462E-02  0.1320210E+00
         -1   -1    0    0    0  501 -0.00000000000E+00  0.00000000000E+00  0.17360221873E+03  0.17360221873E+03  0.00000000000E+00 0.  1.
          1   -1    0    0  501    0  0.00000000000E+00 -0.00000000000E+00 -0.72086573548E+02  0.72086573548E+02  0.00000000000E+00 0. -1.
         25    2    1    2    0    0  0.22157505365E+02 -0.32895044375E+02  0.90626386526E+02  0.15947275456E+03  0.12508148754E+03 0.  0.
         23    2    1    2    0    0 -0.22157505365E+02  0.32895044375E+02  0.10889258652E+02  0.86216037709E+02  0.75773281676E+02 0.  0.
          5    1    3    3  502    0  0.40251088465E+02 -0.43678436040E+02  0.11345549215E+03  0.12813109301E+03  0.41800000000E+01 0.  1.
         -5    1    3    3    0  502 -0.18093583100E+02  0.10783391665E+02 -0.22829105624E+02  0.31341661552E+02  0.41800000000E+01 0.  1.
        -11    1    4    4    0    0 -0.38790150742E+02 -0.94175111449E+01  0.75906180656E+01  0.40632287572E+02  0.00000000000E+00 0.  1.
         11    1    4    4    0    0  0.16632645377E+02  0.42312555520E+02  0.32986405866E+01  0.45583750137E+02  0.00000000000E+00 0. -1.
</event>
<event>
 8    1  0.6635152E-009  0.3899117E+03  0.7561462E-02  0.1047330E+00
          1   -1    0    0  501    0  0.00000000000E+00  0.00000000000E+00  0.70987051183E+02  0.70987051183E+02  0.00000000000E+00 0. -1.
         -1   -1    0    0    0  501 -0.00000000000E+00 -0.00000000000E+00 -0.23021349956E+04  0.23021349956E+04  0.00000000000E+00 0.  1.
         25    2    1    2    0    0  0.26618794101E+03 -0.27858857376E+03 -0.98176568687E+03  0.10620635393E+04  0.12508990462E+03 0.  0.
         23    2    1    2    0    0 -0.26618794101E+03  0.27858857376E+03 -0.12493822575E+04  0.13110585074E+04  0.97215076937E+02 0.  0.
          5    1    3    3  502    0  0.21822100927E+03 -0.20645711522E+03 -0.87116463352E+03  0.92151518729E+03  0.41800000000E+01 0. -1.
         -5    1    3    3    0  502  0.47966931741E+02 -0.72131458545E+02 -0.11060105335E+03  0.14054835202E+03  0.41800000000E+01 0. -1.
        -11    1    4    4    0    0 -0.22558560315E+03  0.18897841748E+03 -0.10167020470E+04  0.10584350519E+04  0.00000000000E+00 0.  1.
         11    1    4    4    0    0 -0.40602337861E+02  0.89610156288E+02 -0.23268021050E+03  0.25262345557E+03  0.00000000000E+00 0. -1.
</event>
<event>
 8    1  0.6635152E-009  0.1424613E+03  0.7561462E-02  0.1210055E+00
         -2   -1    0    0    0  501 -0.00000000000E+00  0.00000000000E+00  0.81101732373E+02  0.81101732373E+02  0.00000000000E+00 0.  1.
          2   -1    0    0  501    0  0.00000000000E+00 -0.00000000000E+00 -0.37176334524E+03  0.37176334524E+03  0.00000000000E+00 0. -1.
         25    2    1    2    0    0 -0.45427758364E+02 -0.86747387827E+02 -0.27461922099E+03  0.31725710916E+03  0.12509023243E+03 0.  0.
         23    2    1    2    0    0  0.45427758364E+02  0.86747387827E+02 -0.16042391880E+02  0.13560796846E+03  0.92430364314E+02 0.  0.
          5    1    3    3  502    0 -0.69651394176E+02 -0.10478535423E+03 -0.24079911276E+03  0.27172223368E+03  0.41800000000E+01 0.  1.
         -5    1    3    3    0  502  0.24223635812E+02  0.18037966403E+02 -0.33820108230E+02  0.45534875475E+02  0.41800000000E+01 0.  1.
        -11    1    4    4    0    0 -0.23903354682E+02  0.33344973325E+02  0.13580501509E+02  0.43216751756E+02  0.00000000000E+00 0. -1.
         11    1    4    4    0    0  0.69331113046E+02  0.53402414501E+02 -0.29622893389E+02  0.92391216701E+02  0.00000000000E+00 0.  1.
</event>
<event>
 8    1  0.6635152E-009  0.1181832E+03  0.7561462E-02  0.1246125E+00
          3   -1    0    0  501    0  0.00000000000E+00  0.00000000000E+00  0.24539196727E+03  0.24539196727E+03  0.00000000000E+00 0. -1.
         -3   -1    0    0    0  501 -0.00000000000E+00 -0.00000000000E+00 -0.88075154638E+02  0.88075154638E+02  0.00000000000E+00 0.  1.
         25    2    1    2    0    0  0.45885736747E+02 -0.73429886021E+02  0.13821548948E+03  0.20553697547E+03  0.12507788674E+03 0.  0.
         23    2    1    2    0    0 -0.45885736747E+02  0.73429886021E+02  0.19101323143E+02  0.12793014644E+03  0.92216120198E+02 0.  0.
          5    1    3    3  502    0 -0.35292598508E+02  0.49130242248E+01  0.16385249250E+02  0.39441781266E+02  0.41800000000E+01 0. -1.
         -5    1    3    3    0  502  0.81178335254E+02 -0.78342910246E+02  0.12183024023E+03  0.16609519420E+03  0.41800000000E+01 0. -1.
        -11    1    4    4    0    0 -0.19511758517E+02  0.19624043608E+02  0.52486851132E+02  0.59335329692E+02  0.00000000000E+00 0. -1.
         11    1    4    4    0    0 -0.26373978230E+02  0.53805842413E+02 -0.33385527989E+02  0.68594816747E+02  0.00000000000E+00 0.  1.
</event>
<event>
 8    1  0.6635152E-009  0.1608859E+03  0.7561462E-02  0.1187700E+00
          1   -1    0    0  501    0  0.00000000000E+00  0.00000000000E+00  0.27410330532E+03  0.27410330532E+03  0.00000000000E+00 0.  1.
         -1   -1    0    0    0  501 -0.00000000000E+00 -0.00000000000E+00 -0.11486270318E+03  0.11486270318E+03  0.00000000000E+00 0. -1.
         25    2    1    2    0    0  0.38374399682E+02 -0.12421881847E+03  0.14187094027E+03  0.22951641197E+03  0.12509000861E+03 0.  0.
         23    2    1    2    0    0 -0.38374399682E+02  0.12421881847E+03  0.17369661862E+02  0.15944959653E+03  0.90661785058E+02 0.  0.
          5    1    3    3  502    0  0.57028046029E+02 -0.27388063533E+01  0.50099420121E+02  0.76073145003E+02  0.41800000000E+01 0. -1.
         -5    1    3    3    0  502 -0.18653646347E+02 -0.12148001211E+03  0.91771520153E+02  0.15344326696E+03  0.41800000000E+01 0. -1.
        -11    1    4    4    0    0 -0.10150737776E+02  0.10902540439E+03 -0.18823760696E+02  0.11110315138E+03  0.00000000000E+00 0. -1.
         11    1    4    4    0    0 -0.28223661906E+02  0.15193414077E+02  0.36193422559E+02  0.48346445156E+02  0.00000000000E+00 0.  1.
</event>
<event>
 8    1  0.6635152E-009  0.9903240E+02  0.7561462E-02  0.1282344E+00
          2   -1    0    0  501    0  0.00000000000E+00  0.00000000000E+00  0.30616243671E+03  0.30616243671E+03  0.00000000000E+00 0.  1.
         -2   -1    0    0    0  501 -0.00000000000E+00 -0.00000000000E+00 -0.61700213532E+02  0.61700213532E+02  0.00000000000E+00 0. -1.
         25    2    1    2    0    0 -0.73307031455E+01 -0.76891725626E+02  0.18003359594E+03  0.23243479086E+03  0.12509100551E+03 0.  0.
         23    2    1    2    0    0  0.73307031455E+01  0.76891725626E+02  0.64428627240E+02  0.13542785938E+03  0.90683958942E+02 0.  0.
          5    1    3    3  502    0 -0.33491504863E+02 -0.26189022074E+02  0.16881730844E+03  0.17413874297E+03  0.41800000000E+01 0. -1.
         -5    1    3    3    0  502  0.26160801718E+02 -0.50702703552E+02  0.11216287494E+02  0.58296047886E+02  0.41800000000E+01 0. -1.
        -11    1    4    4    0    0 -0.26632433748E+02  0.39321052928E+02  0.69878382430E+02  0.84489171269E+02  0.00000000000E+00 0.  1.
         11    1    4    4    0    0  0.33963136894E+02  0.37570672698E+02 -0.54497551895E+01  0.50938688109E+02  0.00000000000E+00 0. -1.
</event>
<event>
 8    1  0.6635152E-009  0.1710262E+03  0.7561462E-02  0.1176782E+00
          2   -1    0    0  501    0  0.00000000000E+00  0.00000000000E+00  0.75946684600E+03  0.75946684600E+03  0.00000000000E+00 0. -1.
         -2   -1    0    0    0  501 -0.00000000000E+00 -0.00000000000E+00 -0.53106782661E+02  0.53106782661E+02  0.00000000000E+00 0.  1.
         25    2    1    2    0    0  0.50591882719E+02  0.15902052323E+03  0.36906192636E+03  0.42391196995E+03  0.12509031686E+03 0.  0.
         23    2    1    2    0    0 -0.50591882719E+02 -0.15902052323E+03  0.33729813699E+03  0.38866165872E+03  0.97163708949E+02 0.  0.
          5    1    3    3  502    0  0.21575275929E+02  0.12562372724E+02  0.18568702181E+03  0.18740450423E+03  0.41800000000E+01 0. -1.
         -5    1    3    3    0  502  0.29016606790E+02  0.14645815051E+03  0.18337490455E+03  0.23650746571E+03  0.41800000000E+01 0. -1.
        -11    1    4    4    0    0 -0.43711254101E+01 -0.30183077776E+02  0.72379938316E+01  0.31345071001E+02  0.00000000000E+00 0.  1.
         11    1    4    4    0    0 -0.46220757309E+02 -0.12883744545E+03  0.33006014315E+03  0.35731658772E+03  0.00000000000E+00 0. -1.
</event>
<event>
 8    1  0.6635152E-009  0.1499978E+03  0.7561462E-02  0.1200476E+00
          2   -1    0    0  501    0  0.00000000000E+00  0.00000000000E+00  0.50145974303E+02  0.50145974303E+02  0.00000000000E+00 0.  1.
         -2   -1    0    0    0  501 -0.00000000000E+00 -0.00000000000E+00 -0.66101546901E+03  0.66101546901E+03  0.00000000000E+00 0. -1.
         25    2    1    2    0    0 -0.10282224619E+03 -0.10345998441E+03 -0.33944282840E+03  0.39005764057E+03  0.12508855474E+03 0.  0.
         23    2    1    2    0    0  0.10282224619E+03  0.10345998441E+03 -0.27142666630E+03  0.32110380274E+03  0.90326265666E+02 0.  0.
          5    1    3    3  502    0 -0.10721564011E+03 -0.95303874414E+02 -0.34821709800E+03  0.37663064361E+03  0.41800000000E+01 0. -1.
         -5    1    3    3    0  502  0.43933939232E+01 -0.81561099997E+01  0.87742695984E+01  0.13426996964E+02  0.41800000000E+01 0. -1.
        -11    1    4    4    0    0  0.36201054376E+02  0.28811444160E+02 -0.19820257252E+02  0.50333470475E+02  0.00000000000E+00 0.  1.
         11    1    4    4    0    0  0.66621191810E+02  0.74648540254E+02 -0.25160640905E+03  0.27077033227E+03  0.00000000000E+00 0. -1.
</event>
<event>
 8    1  0.6635152E-009  0.1146268E+03  0.7561462E-02  0.1252234E+00
         -2   -1    0    0    0  501 -0.00000000000E+00  0.00000000000E+00  0.78971925491E+02  0.78971925491E+02  0.00000000000E+00 0.  1.
          2   -1    0    0  501    0  0.00000000000E+00 -0.00000000000E+00 -0.18183246006E+03  0.18183246006E+03  0.00000000000E+00 0. -1.
         25    2    1    2    0    0  0.49239135210E+02  0.24919053689E+02 -0.55527896538E+02  0.14756831489E+03  0.12509040168E+03 0.  0.
         23    2    1    2    0    0 -0.49239135210E+02 -0.24919053689E+02 -0.47332638031E+02  0.11323607066E+03  0.86813463256E+02 0.  0.
          5    1    3    3  502    0  0.70708643439E+02  0.60455921338E+02 -0.26789077194E+02  0.96900762323E+02  0.41800000000E+01 0.  1.
         -5    1    3    3    0  502 -0.21469508229E+02 -0.35536867649E+02 -0.28738819344E+02  0.50667552567E+02  0.41800000000E+01 0.  1.
        -11    1    4    4    0    0 -0.21065229893E+02  0.27648710084E+02  0.34144375967E+01  0.34926400671E+02  0.00000000000E+00 0.  1.
         11    1    4    4    0    0 -0.28173905317E+02 -0.52567763773E+02 -0.50747075627E+02  0.78309669988E+02  0.00000000000E+00 0. -1.
</event>
<event>
 8    1  0.6635152E-009  0.6306639E+02  0.7561462E-02  0.1385396E+00
         -2   -1    0    0    0  501 -0.00000000000E+00  0.00000000000E+00  0.16613769394E+02  0.16613769394E+02  0.00000000000E+00 0.  1.
          2   -1    0    0  501    0  0.00000000000E+00 -0.00000000000E+00 -0.82848385043E+03  0.82848385043E+03  0.00000000000E+00 0. -1.
         25    2    1    2    0    0  0.82150051371E+01  0.15183514960E+02 -0.59935058095E+03  0.61250883751E+03  0.12509169320E+03 0.  0.
         23    2    1    2    0    0 -0.82150051371E+01 -0.15183514960E+02 -0.21251950009E+03  0.23258878231E+03  0.92924583963E+02 0.  0.
          5    1    3    3  502    0  0.20777930150E+02 -0.13409305696E+02 -0.56626316360E+03  0.56681829073E+03  0.41800000000E+01 0. -1.
         -5    1    3    3    0  502 -0.12562925013E+02  0.28592820655E+02 -0.33087417350E+02  0.45690546777E+02  0.41800000000E+01 0. -1.
        -11    1    4    4    0    0  0.27995536352E+02  0.44587846809E+01 -0.17608461507E+02  0.33371975265E+02  0.00000000000E+00 0.  1.
         11    1    4    4    0    0 -0.36210541489E+02 -0.19642299640E+02 -0.19491103858E+03  0.19921680705E+03  0.00000000000E+00 0. -1.
</event>
<event>
 8    1  0.6635152E-009  0.1151139E+03  0.7561462E-02  0.1251382E+00
          3   -1    0    0  501    0  0.00000000000E+00  0.00000000000E+00  0.63600751889E+03  0.63600751889E+03  0.00000000000E+00 0. -1.
         -3   -1    0    0    0  501 -0.00000000000E+00 -0.00000000000E+00 -0.30823468668E+02  0.30823468668E+02  0.00000000000E+00 0.  1.
         25    2    1    2    0    0 -0.49426464786E+02  0.69267003174E+02  0.28990302182E+03  0.32700486203E+03  0.12509006588E+03 0.  0.
         23    2    1    2    0    0  0.49426464786E+02 -0.69267003174E+02  0.31528102840E+03  0.33982612553E+03  0.94014762515E+02 0.  0.
          5    1    3    3  502    0 -0.66472800032E+01 -0.10924794771E+02  0.19525147282E+03  0.19571445402E+03  0.41800000000E+01 0. -1.
         -5    1    3    3    0  502 -0.42779184783E+02  0.80191797945E+02  0.94651548997E+02  0.13129040801E+03  0.41800000000E+01 0. -1.
        -11    1    4    4    0    0  0.73353504787E+02 -0.28855326369E+02  0.21771715173E+03  0.23154724072E+03  0.00000000000E+00 0.  1.
         11    1    4    4    0    0 -0.23927040000E+02 -0.40411676805E+02  0.97563876670E+02  0.10827888481E+03  0.00000000000E+00 0. -1.
</event>
<event>
 8    1  0.6635152E-009  0.1054723E+03  0.7561462E-02  0.1269192E+00
         -2   -1    0    0    0  501 -0.00000000000E+00  0.00000000000E+00  0.14357753639E+04  0.14357753639E+04  0.00000000000E+00 0.  1.
          2   -1    0    0  501    0  0.00000000000E+00 -0.00000000000E+00 -0.10419509705E+02  0.10419509705E+02  0.00000000000E+00 0. -1.
         25    2    1    2    0    0  0.30481548623E+02  0.26503548645E+02  0.10431005296E+04  0.10513503910E+04  0.12508943588E+03 0.  0.
         23    2    1    2    0    0 -0.30481548623E+02 -0.26503548645E+02  0.38225532457E+03  0.39484448255E+03  0.90285487993E+02 0.  0.
          5    1    3    3  502    0 -0.14005025548E+02 -0.34596481556E+02  0.13579899723E+03  0.14089676123E+03  0.41800000000E+01 0.  1.
         -5    1    3    3    0  502  0.44486574171E+02  0.61100030202E+02  0.90730153239E+03  0.91045362982E+03  0.41800000000E+01 0.  1.
        -11    1    4    4    0    0  0.29212435916E+02 -0.24233086937E+02  0.11944243938E+03  0.12532799065E+03  0.00000000000E+00 0. -1.
         11    1    4    4    0    0 -0.59693984539E+02 -0.22704617079E+01  0.26281288519E+03  0.26951649191E+03  0.00000000000E+00 0.  1.
</event>
<event>
 8    1  0.6635152E-009  0.2590838E+03  0.7561462E-02  0.1107695E+00
         -1   -1    0    0    0  501 -0.00000000000E+00  0.00000000000E+00  0.82736390184E+02  0.82736390184E+02  0.00000000000E+00 0.  1.
          1   -1    0    0  501    0  0.00000000000E+00 -0.00000000000E+00 -0.93373103226E+03  0.93373103226E+03  0.00000000000E+00 0. -1.
         25    2    1    2    0    0 -0.18096563898E+03  0.16068702750E+03 -0.28388326765E+03  0.39345396114E+03  0.12508967417E+03 0.  0.
         23    2    1    2    0    0  0.18096563898E+03 -0.16068702750E+03 -0.56711137442E+03  0.62301346130E+03  0.89227678842E+02 0.  0.
          5    1    3    3  502    0 -0.99516311218E+02  0.18679842175E+02 -0.15440274406E+03  0.18468923216E+03  0.41800000000E+01 0.  1.
         -5    1    3    3    0  502 -0.81449327762E+02  0.14200718532E+03 -0.12948052359E+03  0.20876472898E+03  0.41800000000E+01 0.  1.
        -11    1    4    4    0    0  0.15230179503E+02 -0.53654886101E+02 -0.18127880216E+03  0.18966499224E+03  0.00000000000E+00 0. -1.
         11    1    4    4    0    0  0.16573545948E+03 -0.10703214140E+03 -0.38583257226E+03  0.43334846906E+03  0.00000000000E+00 0.  1.
</event>
<event>
 8    1  0.6635152E-009  0.2081214E+03  0.7561462E-02  0.1143062E+00
         -1   -1    0    0    0  501 -0.00000000000E+00  0.00000000000E+00  0.65863529890E+02  0.65863529890E+02  0.00000000000E+00 0.  1.
          1   -1    0    0  501    0  0.00000000000E+00 -0.00000000000E+00 -0.76580492657E+03  0.76580492657E+03  0.00000000000E+00 0. -1.
         25    2    1    2    0    0 -0.92779968675E+02  0.16455946441E+03 -0.25801209896E+03  0.34337355241E+03  0.12508882193E+03 0.  0.
         23    2    1    2    0    0  0.92779968675E+02 -0.16455946441E+03 -0.44192929773E+03  0.48829490406E+03  0.86269746848E+02 0.  0.
          5    1    3    3  502    0 -0.10948708297E+03  0.17207167472E+03 -0.25070659073E+03  0.32321409254E+03  0.41800000000E+01 0.  1.
         -5    1    3    3    0  502  0.16707114299E+02 -0.75122103061E+01 -0.73055082204E+01  0.20159459869E+02  0.41800000000E+01 0.  1.
        -11    1    4    4    0    0  0.37857153421E+02 -0.10877867429E+03 -0.17016046732E+03  0.20547639447E+03  0.00000000000E+00 0. -1.
         11    1    4    4    0    0  0.54922815254E+02 -0.55780790115E+02 -0.27176883041E+03  0.28281850959E+03  0.00000000000E+00 0.  1.
</event>
<event>
 8    1  0.6635152E-009  0.1218044E+03  0.7561462E-02  0.1240150E+00
         -2   -1    0    0    0  501 -0.00000000000E+00  0.00000000000E+00  0.26980985574E+02  0.26980985574E+02  0.00000000000E+00 0.  1.
          2   -1    0    0  501    0  0.00000000000E+00 -0.00000000000E+00 -0.92113836281E+03  0.92113836281E+03  0.00000000000E+00 0. -1.
         25    2    1    2    0    0 -0.93845719500E+02 -0.80526975047E+01 -0.67931960802E+03  0.69713158864E+03  0.12508180136E+03 0.  0.
         23    2    1    2    0    0  0.93845719500E+02  0.80526975047E+01 -0.21483776921E+03  0.25098775974E+03  0.89262105368E+02 0.  0.
          5    1    3    3  502    0 -0.19030936387E+02 -0.42698389759E+02 -0.84921689608E+02  0.97028319544E+02  0.41800000000E+01 0. -1.
         -5    1    3    3    0  502 -0.74814783114E+02  0.34645692254E+02 -0.59439791841E+03  0.60010326910E+03  0.41800000000E+01 0. -1.
        -11    1    4    4    0    0 -0.61497328392E+01  0.12602240388E+02 -0.52734524183E-01  0.14022783522E+02  0.00000000000E+00 0.  1.
         11    1    4    4    0    0  0.99995452340E+02 -0.45495428829E+01 -0.21478503469E+03  0.23696497622E+03  0.00000000000E+00 0. -1.
</event>
<event>
 8    1  0.6635152E-009  0.1777899E+03  0.7561462E-02  0.1169959E+00
          2   -1    0    0  501    0  0.00000000000E+00  0.00000000000E+00  0.62047690891E+03  0.62047690891E+03  0.00000000000E+00 0. -1.
         -2   -1    0    0    0  501 -0.00000000000E+00 -0.00000000000E+00 -0.57476963652E+02  0.57476963652E+02  0.00000000000E+00 0.  1.
         25    2    1    2    0    0  0.49728863864E+02 -0.14399908317E+03  0.25219754621E+03  0.32009734413E+03  0.12510000619E+03 0.  0.
         23    2    1    2    0    0 -0.49728863864E+02  0.14399908317E+03  0.31080239905E+03  0.35785652843E+03  0.90854101913E+02 0.  0.
          5    1    3    3  502    0 -0.15461170559E+02 -0.95522924622E+02  0.20328163936E+03  0.22517676217E+03  0.41800000000E+01 0.  1.
         -5    1    3    3    0  502  0.65190034423E+02 -0.48476158547E+02  0.48915906856E+02  0.94920581957E+02  0.41800000000E+01 0.  1.
        -11    1    4    4    0    0 -0.23614952230E+02  0.14893991706E+03  0.26381174526E+03  0.30387069915E+03  0.00000000000E+00 0.  1.
         11    1    4    4    0    0 -0.26113911633E+02 -0.49408338930E+01  0.46990653783E+02  0.53985829283E+02  0.00000000000E+00 0. -1.
</event>
<event>
 8    1  0.6635152E-009  0.1333932E+03  0.7561462E-02  0.1222506E+00
         -2   -1    0    0    0  501 -0.00000000000E+00  0.00000000000E+00  0.88032456704E+02  0.88032456704E+02  0.00000000000E+00 0.  1.
          2   -1    0    0  501    0  0.00000000000E+00 -0.00000000000E+00 -0.38738024255E+03  0.38738024255E+03  0.00000000000E+00 0. -1.
         25    2    1    2    0    0  0.87265361377E+02 -0.89051551403E+02 -0.52500014251E+02  0.18425522957E+03  0.12509322932E+03 0.  0.
         23    2    1    2    0    0 -0.87265361377E+02  0.89051551403E+02 -0.24684777159E+03  0.29115746969E+03  0.91068258525E+02 0.  0.
          5    1    3    3  502    0  0.77239398752E+02 -0.53483979600E+02 -0.90904191714E+02  0.13079566225E+03  0.41800000000E+01 0.  1.
         -5    1    3    3    0  502  0.10025962626E+02 -0.35567571802E+02  0.38404177463E+02  0.53459567311E+02  0.41800000000E+01 0.  1.
        -11    1    4    4    0    0 -0.80088754987E+02  0.46928806549E+02 -0.22450634515E+03  0.24293954098E+03  0.00000000000E+00 0. -1.
         11    1    4    4    0    0 -0.71766063907E+01  0.42122744854E+02 -0.22341426445E+02  0.48217928708E+02  0.00000000000E+00 0.  1.
</event>
<event>
 8    1  0.6635152E-009  0.1724204E+03  0.7561462E-02  0.1175347E+00
          2   -1    0    0  501    0  0.00000000000E+00  0.00000000000E+00  0.36986079424E+03  0.36986079424E+03  0.00000000000E+00 0. -1.
         -2   -1    0    0    0  501 -0.00000000000E+00 -0.00000000000E+00 -0.13389708153E+03  0.13389708153E+03  0.00000000000E+00 0.  1.
         25    2    1    2    0    0  0.14980018954E+03  0.25692666647E+02  0.25525832752E+03  0.32233976872E+03  0.12508358337E+03 0.  0.
         23    2    1    2    0    0 -0.14980018954E+03 -0.25692666647E+02 -0.19294614806E+02  0.18141810704E+03  0.97159855367E+02 0.  0.
          5    1    3    3  502    0  0.33696314353E+02  0.62107351532E+02  0.12768370863E+03  0.14599098111E+03  0.41800000000E+01 0. -1.
         -5    1    3    3    0  502  0.11610387519E+03 -0.36414684886E+02  0.12757461888E+03  0.17634878761E+03  0.41800000000E+01 0. -1.
        -11    1    4    4    0    0 -0.48196640100E+02 -0.36225154042E+01  0.39101147679E+02  0.62168629425E+02  0.00000000000E+00 0. -1.
         11    1    4    4    0    0 -0.10160354944E+03 -0.22070151242E+02 -0.58395762485E+02  0.11924947762E+03  0.00000000000E+00 0.  1.
</event>
<event>
 8    1  0.6635152E-009  0.1011035E+03  0.7561462E-02  0.1277992E+00
         -2   -1    0    0    0  501 -0.00000000000E+00  0.00000000000E+00  0.45319572754E+03  0.45319572754E+03  0.00000000000E+00 0.  1.
          2   -1    0    0  501    0  0.00000000000E+00 -0.00000000000E+00 -0.30701771825E+02  0.30701771825E+02  0.00000000000E+00 0. -1.
         25    2    1    2    0    0  0.38038569171E+02 -0.30381107726E+02  0.24683261774E+03  0.28097108474E+03  0.12509382411E+03 0.  0.
         23    2    1    2    0    0 -0.38038569171E+02  0.30381107726E+02  0.17566133798E+03  0.20292641463E+03  0.89175555182E+02 0.  0.
          5    1    3    3  502    0  0.82096466475E+02 -0.22362273919E+02  0.19200933649E+03  0.21005941731E+03  0.41800000000E+01 0.  1.
         -5    1    3    3    0  502 -0.44057897304E+02 -0.80188338075E+01  0.54823281247E+02  0.70911667426E+02  0.41800000000E+01 0.  1.
        -11    1    4    4    0    0 -0.29411099590E+02 -0.97556854583E+01  0.15285335247E+03  0.15596260301E+03  0.00000000000E+00 0.  1.
         11    1    4    4    0    0 -0.86274695808E+01  0.40136793185E+02  0.22807985515E+02  0.46963811619E+02  0.00000000000E+00 0. -1.
</event>
<event>
 8    1  0.6635152E-009  0.9711861E+02  0.7561462E-02  0.1286474E+00
          1   -1    0    0  501    0  0.00000000000E+00  0.00000000000E+00  0.36052670511E+02  0.36052670511E+02  0.00000000000E+00 0.  1.
         -1   -1    0    0    0  501 -0.00000000000E+00 -0.00000000000E+00 -0.41527955572E+03  0.41527955572E+03  0.00000000000E+00 0. -1.
         25    2    1    2    0    0  0.53620530568E+02 -0.17901063413E+00 -0.18897686323E+03  0.23288406586E+03  0.12509012733E+03 0.  0.
         23    2    1    2    0    0 -0.53620530568E+02  0.17901063413E+00 -0.19025002198E+03  0.21844816036E+03  0.93001798697E+02 0.  0.
          5    1    3    3  502    0 -0.10067367325E+02  0.18285971646E+02 -0.15825930577E+03  0.15968471720E+03  0.41800000000E+01 0. -1.
         -5    1    3    3    0  502  0.63687897893E+02 -0.18464982280E+02 -0.30717557454E+02  0.73199348662E+02  0.41800000000E+01 0. -1.
        -11    1    4    4    0    0 -0.78352041720E+02 -0.11437785519E+02 -0.12873263163E+03  0.15113555447E+03  0.00000000000E+00 0. -1.
         11    1    4    4    0    0  0.24731511152E+02  0.11616796153E+02 -0.61517390353E+02  0.67312605897E+02  0.00000000000E+00 0.  1.
</event>
<event>
 8    1  0.6635152E-009  0.1120331E+03  0.7561462E-02  0.1256851E+00
          2   -1    0    0  501    0  0.00000000000E+00  0.00000000000E+00  0.33756592865E+03  0.33756592865E+03  0.00000000000E+00 0. -1.
         -2   -1    0    0    0  501 -0.00000000000E+00 -0.00000000000E+00 -0.69968127050E+02  0.69968127050E+02  0.00000000000E+00 0.  1.
         25    2    1    2    0    0  0.15948034576E+01  0.87348331524E+02  0.95911626480E+02  0.18021751429E+03  0.12508812072E+03 0.  0.
         23    2    1    2    0    0 -0.15948034576E+01 -0.87348331524E+02  0.17168617513E+03  0.22731654141E+03  0.12068302636E+03 0.  0.
          5    1    3    3  502    0 -0.42512122136E+02  0.75823377542E+01 -0.55776897732E+01  0.43741918083E+02  0.41800000000E+01 0.  1.
         -5    1    3    3    0  502  0.44106925594E+02  0.79765993770E+02  0.10148931625E+03  0.13647559621E+03  0.41800000000E+01 0.  1.
        -11    1    4    4    0    0 -0.98825558808E+01 -0.61606063946E+02  0.18637479901E+03  0.19654144024E+03  0.00000000000E+00 0. -1.
         11    1    4    4    0    0  0.82877524232E+01 -0.25742267578E+02 -0.14688623887E+02  0.30775101170E+02  0.00000000000E+00 0.  1.
</event>
<event>
 7    1  0.6635152E-009  0.1056639E+03  0.7561462E-02  0.1268817E+00
          1   -1    0    0  501    0  0.00000000000E+00  0.00000000000E+00  0.29621333731E+03  0.29621333731E+03  0.00000000000E+00 0. -1.
         -1   -1    0    0    0  501 -0.00000000000E+00 -0.00000000000E+00 -0.49436845365E+02  0.49436845365E+02  0.00000000000E+00 0.  1.
         23    2    1    2    0    0  0.37520153981E+02 -0.18733298710E+02  0.15539369269E+03  0.18511166916E+03  0.91435397390E+02 0.  0.
          5    1    1    2  502    0 -0.15915012734E+02 -0.48521220614E+02  0.69744163885E+02  0.86540841666E+02  0.41800000000E+01 0.  1.
         -5    1    1    2    0  502 -0.21605141247E+02  0.67254519324E+02  0.21638635361E+02  0.73997671842E+02  0.41800000000E+01 0.  1.
        -11    1    3    3    0    0  0.13205519417E+02  0.31151154342E+02  0.21280903233E+02  0.39970701799E+02  0.00000000000E+00 0.  1.
         11    1    3    3    0    0  0.24314634564E+02 -0.49884453052E+02  0.13411278946E+03  0.14514096736E+03  0.00000000000E+00 0. -1.
</event>
<event>
 8    1  0.6635152E-009  0.1458013E+03  0.7561462E-02  0.1205729E+00
          1   -1    0    0  501    0  0.00000000000E+00  0.00000000000E+00  0.34361889322E+03  0.34361889322E+03  0.00000000000E+00 0. -1.
         -1   -1    0    0    0  501 -0.00000000000E+00 -0.00000000000E+00 -0.68012196779E+02  0.68012196779E+02  0.00000000000E+00 0.  1.
         25    2    1    2    0    0  0.96707246872E+02 -0.19470119277E+02  0.89288878263E+02  0.18262458517E+03  0.12509139933E+03 0.  0.
         23    2    1    2    0    0 -0.96707246872E+02  0.19470119277E+02  0.18631781818E+03  0.22900650483E+03  0.89433062900E+02 0.  0.
          5    1    3    3  502    0 -0.25554174591E+02 -0.26140251558E+02  0.20659337921E+02  0.42197265716E+02  0.41800000000E+01 0. -1.
         -5    1    3    3    0  502  0.12226142146E+03  0.66701322817E+01  0.68629540341E+02  0.14042731946E+03  0.41800000000E+01 0. -1.
        -11    1    4    4    0    0 -0.87042145743E+02 -0.21945136311E+02  0.11385657918E+03  0.14498705034E+03  0.00000000000E+00 0.  1.
         11    1    4    4    0    0 -0.96651011289E+01  0.41415255588E+02  0.72461239002E+02  0.84019454491E+02  0.00000000000E+00 0. -1.
</event>
<event>
 8    1  0.6635152E-009  0.6858317E+02  0.7561462E-02  0.1364978E+00
         -1   -1    0    0    0  501 -0.00000000000E+00  0.00000000000E+00  0.20113910512E+03  0.20113910512E+03  0.00000000000E+00 0.  1.
          1   -1    0    0  501    0  0.00000000000E+00 -0.00000000000E+00 -0.94474691880E+02  0.94474691880E+02  0.00000000000E+00 0. -1.
         25    2    1    2    0    0  0.60083238974E+01 -0.19457563993E+01 -0.30756191502E+02  0.12896047821E+03  0.12507987728E+03 0.  0.
         23    2    1    2    0    0 -0.60083238974E+01  0.19457563993E+01  0.13742060474E+03  0.16665331879E+03  0.94069230525E+02 0.  0.
          5    1    3    3  502    0  0.94242198422E+00 -0.38746755646E+02 -0.66600064948E+02  0.77170203339E+02  0.41800000000E+01 0. -1.
         -5    1    3    3    0  502  0.50659019131E+01  0.36800999246E+02  0.35843873446E+02  0.51790274872E+02  0.41800000000E+01 0. -1.
        -11    1    4    4    0    0  0.27371239093E+02  0.12103376743E+00  0.23102943219E+01  0.27468833949E+02  0.00000000000E+00 0. -1.
         11    1    4    4    0    0 -0.33379562991E+02  0.18247226319E+01  0.13511031042E+03  0.13918448484E+03  0.00000000000E+00 0.  1.
</event>
<event>
 8    1  0.6635152E-009  0.1065217E+03  0.7561462E-02  0.1267150E+00
          2   -1    0    0  501    0  0.00000000000E+00  0.00000000000E+00  0.19891373244E+03  0.19891373244E+03  0.00000000000E+00 0. -1.
         -2   -1    0    0    0  501 -0.00000000000E+00 -0.00000000000E+00 -0.67665600678E+02  0.67665600678E+02  0.00000000000E+00 0.  1.
         25    2    1    2    0    0 -0.19260021075E+02  0.17441978803E+02  0.10803914359E+03  0.16731428686E+03  0.12508574260E+03 0.  0.
         23    2    1    2    0    0  0.19260021075E+02 -0.17441978803E+02  0.23208988178E+02  0.99265046266E+02  0.92950100815E+02 0.  0.
          5    1    3    3  502    0  0.47026265974E+02 -0.94966983937E+01  0.16181881697E+02  0.50803372596E+02  0.41800000000E+01 0. -1.
         -5    1    3    3    0  502 -0.66286287049E+02  0.26938677197E+02  0.91857261891E+02  0.11651091426E+03  0.41800000000E+01 0. -1.
        -11    1    4    4    0    0 -0.34642779997E+02  0.46601910822E+01 -0.35897848021E+01  0.35138670177E+02  0.00000000000E+00 0.  1.
         11    1    4    4    0    0  0.53902801072E+02 -0.22102169885E+02  0.26798772980E+02  0.64126376089E+02  0.00000000000E+00 0. -1.
</event>
<event>
 8    1  0.6635152E-009  0.1035609E+03  0.7561462E-02  0.1272981E+00
         -3   -1    0    0    0  501 -0.00000000000E+00  0.00000000000E+00  0.90834710248E+03  0.90834710248E+03  0.00000000000E+00 0.  1.
          3   -1    0    0  501    0  0.00000000000E+00 -0.00000000000E+00 -0.22427036979E+02  0.22427036979E+02  0.00000000000E+00 0. -1.
         25    2    1    2    0    0 -0.47988613318E+02  0.38888779024E+02  0.68247647523E+03  0.69658924504E+03  0.12508874020E+03 0.  0.
         23    2    1    2    0    0  0.47988613318E+02 -0.38888779024E+02  0.20344359027E+03  0.23418489442E+03  0.98173449605E+02 0.  0.
          5    1    3    3  502    0 -0.95283479971E+01 -0.19929161001E+02  0.50726850459E+03  0.50776645126E+03  0.41800000000E+01 0. -1.
         -5    1    3    3    0  502 -0.38460265321E+02  0.58817940025E+02  0.17520797064E+03  0.18882279378E+03  0.41800000000E+01 0. -1.
        -11    1    4    4    0    0  0.55079199968E+02  0.17201587715E+02  0.12298370197E+03  0.13584772299E+03  0.00000000000E+00 0.  1.
         11    1    4    4    0    0 -0.70905866498E+01 -0.56090366739E+02  0.80459888298E+02  0.98337171430E+02  0.00000000000E+00 0. -1.
</event>
<event>
 8    1  0.6635152E-009  0.1065374E+03  0.7561462E-02  0.1267120E+00
          1   -1    0    0  501    0  0.00000000000E+00  0.00000000000E+00  0.21663141226E+03  0.21663141226E+03  0.00000000000E+00 0. -1.
         -1   -1    0    0    0  501 -0.00000000000E+00 -0.00000000000E+00 -0.63968170644E+02  0.63968170644E+02  0.00000000000E+00 0.  1.
         25    2    1    2    0    0  0.43982521895E+02  0.15914567970E+02  0.98528881143E+02  0.16596035086E+03  0.12508861632E+03 0.  0.
         23    2    1    2    0    0 -0.43982521895E+02 -0.15914567970E+02  0.54134360478E+02  0.11463923204E+03  0.89576162194E+02 0.  0.
          5    1    3    3  502    0 -0.18066825941E+02  0.44583058325E+02  0.82559703642E+02  0.95643276578E+02  0.41800000000E+01 0. -1.
         -5    1    3    3    0  502  0.62049347836E+02 -0.28668490355E+02  0.15969177501E+02  0.70317074286E+02  0.41800000000E+01 0. -1.
        -11    1    4    4    0    0  0.81228848514E+01 -0.38624745691E+02  0.55358976110E+01  0.39855970699E+02  0.00000000000E+00 0.  1.
         11    1    4    4    0    0 -0.52105406747E+02  0.22710177721E+02  0.48598462867E+02  0.74783261345E+02  0.00000000000E+00 0. -1.
</event>
<event>
 8    1  0.6635152E-009  0.1097470E+03  0.7561462E-02  0.1261039E+00
          3   -1    0    0  501    0  0.00000000000E+00  0.00000000000E+00  0.17037540804E+03  0.17037540804E+03  0.00000000000E+00 0. -1.
         -3   -1    0    0    0  501 -0.00000000000E+00 -0.00000000000E+00 -0.71994765932E+02  0.71994765932E+02  0.00000000000E+00 0.  1.
         25    2    1    2    0    0  0.84334683014E+01 -0.23993571751E+02  0.72784675994E+02  0.14694318977E+03  0.12509147487E+03 0.  0.
         23    2    1    2    0    0 -0.84334683014E+01  0.23993571751E+02  0.25595966117E+02  0.95426984210E+02  0.88342181097E+02 0.  0.
          5    1    3    3  502    0  0.63043755355E+02  0.88318521941E+01  0.36126274888E+02  0.73315051932E+02  0.41800000000E+01 0.  1.
         -5    1    3    3    0  502 -0.54610287053E+02 -0.32825423945E+02  0.36658401106E+02  0.73628137834E+02  0.41800000000E+01 0.  1.
        -11    1    4    4    0    0  0.13700498251E+02 -0.30277527833E+02  0.72847004810E+01  0.34022039990E+02  0.00000000000E+00 0.  1.
         11    1    4    4    0    0 -0.22133966552E+02  0.54271099584E+02  0.18311265635E+02  0.61404944219E+02  0.00000000000E+00 0. -1.
</event>
<event>
 8    1  0.6635152E-009  0.1597771E+03  0.7561462E-02  0.1188949E+00
         -2   -1    0    0    0  501 -0.00000000000E+00  0.00000000000E+00  0.18527338370E+03  0.18527338370E+03  0.00000000000E+00 0.  1.
          2   -1    0    0  501    0  0.00000000000E+00 -0.00000000000E+00 -0.18903532854E+03  0.18903532854E+03  0.00000000000E+00 0. -1.
         25    2    1    2    0    0  0.12522030651E+03  0.83278512521E+02 -0.23939215011E+02  0.19706157767E+03  0.12507894934E+03 0.  0.
         23    2    1    2    0    0 -0.12522030651E+03 -0.83278512521E+02  0.20177270178E+02  0.17724713457E+03  0.91618713551E+02 0.  0.
          5    1    3    3  502    0  0.12540982195E+03  0.49360192759E+02  0.25232915714E+02  0.13717953385E+03  0.41800000000E+01 0.  1.
         -5    1    3    3    0  502 -0.18951544612E+00  0.33918319762E+02 -0.49172130725E+02  0.59882043816E+02  0.41800000000E+01 0.  1.
        -11    1    4    4    0    0 -0.61279564209E+02 -0.36652069202E+02 -0.36226072022E+02  0.80068017713E+02  0.00000000000E+00 0. -1.
         11    1    4    4    0    0 -0.63940742299E+02 -0.46626443319E+02  0.56403342199E+02  0.97179116859E+02  0.00000000000E+00 0.  1.
</event>
<event>
 8    1  0.6635152E-009  0.9994340E+02  0.7561462E-02  0.1280415E+00
         -1   -1    0    0    0  501 -0.00000000000E+00  0.00000000000E+00  0.49730168887E+02  0.49730168887E+02  0.00000000000E+00 0.  1.
          1   -1    0    0  501    0  0.00000000000E+00 -0.00000000000E+00 -0.33618253974E+03  0.33618253974E+03  0.00000000000E+00 0. -1.
         25    2    1    2    0    0 -0.49563193051E+02 -0.49669921452E+02 -0.14774530215E+03  0.20591099400E+03  0.12508817666E+03 0.  0.
         23    2    1    2    0    0  0.49563193051E+02  0.49669921452E+02 -0.13870706870E+03  0.18000171463E+03  0.90759876369E+02 0.  0.
          5    1    3    3  502    0  0.23897782615E+02 -0.30514221842E+02 -0.11799064635E+03  0.12426377902E+03  0.41800000000E+01 0. -1.
         -5    1    3    3    0  502 -0.73460975665E+02 -0.19155699610E+02 -0.29754655802E+02  0.81647214987E+02  0.41800000000E+01 0. -1.
        -11    1    4    4    0    0  0.14457659225E+02  0.47552540560E+02 -0.13591991393E+03  0.14472211658E+03  0.00000000000E+00 0. -1.
         11    1    4    4    0    0  0.35105533825E+02  0.21173808923E+01 -0.27871547747E+01  0.35279598052E+02  0.00000000000E+00 0.  1.
</event>
<event>
 8    1  0.6635152E-009  0.1086697E+03  0.7561462E-02  0.1263053E+00
          1   -1    0    0  501    0  0.00000000000E+00  0.00000000000E+00  0.25935763469E+03  0.25935763469E+03  0.00000000000E+00 0. -1.
         -1   -1    0    0    0  501 -0.00000000000E+00 -0.00000000000E+00 -0.74858516837E+02  0.74858516837E+02  0.00000000000E+00 0.  1.
         25    2    1    2    0    0  0.63957968768E+02  0.55404807928E+02  0.75198806101E+02  0.16872350502E+03  0.12510973662E+03 0.  0.
         23    2    1    2    0    0 -0.63957968768E+02 -0.55404807928E+02  0.10930031175E+03  0.16549264651E+03  0.90999688946E+02 0.  0.
          5    1    3    3  502    0  0.48198878258E+02 -0.58693352777E+00  0.95431768389E+02  0.10699612691E+03  0.41800000000E+01 0.  1.
         -5    1    3    3    0  502  0.15759090510E+02  0.55991741456E+02 -0.20232962288E+02  0.61727378107E+02  0.41800000000E+01 0.  1.
        -11    1    4    4    0    0 -0.59638318578E+02 -0.47794932823E+01  0.20610956902E+02  0.63280203407E+02  0.00000000000E+00 0.  1.
         11    1    4    4    0    0 -0.43196501902E+01 -0.50625314646E+02  0.88689354848E+02  0.10221244310E+03  0.00000000000E+00 0. -1.
</event>
<event>
 8    1  0.6635152E-009  0.3498186E+03  0.7561462E-02  0.1062690E+00
          1   -1    0    0  501    0  0.00000000000E+00  0.00000000000E+00  0.79143703571E+03  0.79143703571E+03  0.00000000000E+00 0. -1.
         -1   -1    0    0    0  501 -0.00000000000E+00 -0.00000000000E+00 -0.15948497633E+03  0.15948497633E+03  0.00000000000E+00 0.  1.
         25    2    1    2    0    0  0.33750656315E+03 -0.13088861813E+02  0.33840277337E+03  0.49421153852E+03  0.12508640736E+03 0.  0.
         23    2    1    2    0    0 -0.33750656315E+03  0.13088861813E+02  0.29354928601E+03  0.45671047352E+03  0.91275817349E+02 0.  0.
          5    1    3    3  502    0  0.15688532771E+03 -0.56004535217E+02  0.10921207564E+03  0.19923419356E+03  0.41800000000E+01 0.  1.
         -5    1    3    3    0  502  0.18062123544E+03  0.42915673405E+02  0.22919069773E+03  0.29497734496E+03  0.41800000000E+01 0.  1.
        -11    1    4    4    0    0 -0.18032025867E+03  0.47341361063E+02  0.18496944159E+03  0.26262196115E+03  0.00000000000E+00 0.  1.
         11    1    4    4    0    0 -0.15718630448E+03 -0.34252499250E+02  0.10857984442E+03  0.19408851238E+03  0.00000000000E+00 0. -1.
</event>
<event>
 8    1  0.6635152E-009  0.9319898E+02  0.7561462E-02  0.1295285E+00
         -2   -1    0    0    0  501 -0.00000000000E+00  0.00000000000E+00  0.15480743743E+03  0.15480743743E+03  0.00000000000E+00 0.  1.
          2   -1    0    0  501    0  0.00000000000E+00 -0.00000000000E+00 -0.94096587328E+02  0.94096587328E+02  0.00000000000E+00 0. -1.
         25    2    1    2    0    0  0.26935713032E+02  0.40932655469E+02  0.14701492954E+02  0.13514662625E+03  0.12508981482E+03 0.  0.
         23    2    1    2    0    0 -0.26935713032E+02 -0.40932655469E+02  0.46009357150E+02  0.11375739851E+03  0.91776194353E+02 0.  0.
          5    1    3    3  502    0 -0.43343365883E+02  0.36162794846E+02 -0.15045481778E+02  0.58568199726E+02  0.41800000000E+01 0.  1.
         -5    1    3    3    0  502  0.70279078915E+02  0.47698606231E+01  0.29746974732E+02  0.76578426526E+02  0.41800000000E+01 0.  1.
        -11    1    4    4    0    0 -0.28676116814E+02 -0.13416555577E+02  0.70244228230E+02  0.77049174160E+02  0.00000000000E+00 0.  1.
         11    1    4    4    0    0  0.17404037823E+01 -0.27516099892E+02 -0.24234871080E+02  0.36708224349E+02  0.00000000000E+00 0. -1.
</event>
<event>
 8    1  0.6635152E-009  0.1353992E+03  0.7561462E-02  0.1219657E+00
         -3   -1    0    0    0  501 -0.00000000000E+00  0.00000000000E+00  0.11251638054E+03  0.11251638054E+03  0.00000000000E+00 0.  1.
          3   -1    0    0  501    0  0.00000000000E+00 -0.00000000000E+00 -0.18741988554E+03  0.18741988554E+03  0.00000000000E+00 0. -1.
         25    2    1    2    0    0 -0.54013485515E+01 -0.95030315113E+02 -0.59252430139E+02  0.16798302567E+03  0.12509001190E+03 0.  0.
         23    2    1    2    0    0  0.54013485515E+01  0.95030315113E+02 -0.15651074865E+02  0.13195324042E+03  0.90037581908E+02 0.  0.
          5    1    3    3  502    0  0.25224154205E+02  0.23094324975E+02 -0.19410434822E+02  0.39545457153E+02  0.41800000000E+01 0. -1.
         -5    1    3    3    0  502 -0.30625502757E+02 -0.11812464009E+03 -0.39841995316E+02  0.12843756851E+03  0.41800000000E+01 0. -1.
        -11    1    4    4    0    0  0.33853782164E+02  0.62057705432E+02  0.22363882494E+02  0.74144322847E+02  0.00000000000E+00 0.  1.
         11    1    4    4    0    0 -0.28452433613E+02  0.32972609681E+02 -0.38014957359E+02  0.57808917571E+02  0.00000000000E+00 0. -1.
</event>
<event>
 8    1  0.6635152E-009  0.1198600E+03  0.7561462E-02  0.1243328E+00
         -1   -1    0    0    0  501 -0.00000000000E+00  0.00000000000E+00  0.18402528531E+03  0.18402528531E+03  0.00000000000E+00 0.  1.
          1   -1    0    0  501    0  0.00000000000E+00 -0.00000000000E+00 -0.84698318682E+02  0.84698318682E+02  0.00000000000E+00 0. -1.
         25    2    1    2    0    0  0.59050022430E+02 -0.15389674828E+02  0.75648113538E+02  0.15840995593E+03  0.12508928737E+03 0.  0.
         23    2    1    2    0    0 -0.59050022430E+02  0.15389674828E+02  0.23678853086E+02  0.11031364806E+03  0.88795639670E+02 0.  0.
          5    1    3    3  502    0  0.88226539533E+02  0.19575088522E+02  0.65161293289E+02  0.11149247917E+03  0.41800000000E+01 0.  1.
         -5    1    3    3    0  502 -0.29176517103E+02 -0.34964763350E+02  0.10486820250E+02  0.46917476758E+02  0.41800000000E+01 0.  1.
        -11    1    4    4    0    0 -0.76812662739E+02 -0.43876665862E+01  0.30671751468E+02  0.82826282744E+02  0.00000000000E+00 0. -1.
         11    1    4    4    0    0  0.17762640309E+02  0.19777341414E+02 -0.69928983816E+01  0.27487365315E+02  0.00000000000E+00 0.  1.
</event>
<event>
 8    1  0.6635152E-009  0.1792542E+03  0.7561462E-02  0.1168527E+00
          2   -1    0    0  501    0  0.00000000000E+00  0.00000000000E+00  0.59781155424E+02  0.59781155424E+02  0.00000000000E+00 0. -1.
         -2   -1    0    0    0  501 -0.00000000000E+00 -0.00000000000E+00 -0.91488557274E+03  0.91488557274E+03  0.00000000000E+00 0.  1.
         25    2    1    2    0    0 -0.65311088618E+02  0.16539728341E+03 -0.22277381739E+03  0.31128484594E+03  0.12509309309E+03 0.  0.
         23    2    1    2    0    0  0.65311088618E+02 -0.16539728341E+03 -0.63233059992E+03  0.66338188223E+03  0.92799431087E+02 0.  0.
          5    1    3    3  502    0 -0.62756490013E+02  0.13646269234E+03 -0.89664549743E+02  0.17497899108E+03  0.41800000000E+01 0. -1.
         -5    1    3    3    0  502 -0.25545986052E+01  0.28934591075E+02 -0.13310926765E+03  0.13630585486E+03  0.41800000000E+01 0. -1.
        -11    1    4    4    0    0  0.35248125563E+02 -0.63078912142E+02 -0.41559831478E+03  0.42183330684E+03  0.00000000000E+00 0.  1.
         11    1    4    4    0    0  0.30062963055E+02 -0.10231837127E+03 -0.21673228514E+03  0.24154857538E+03  0.00000000000E+00 0. -1.
</event>
<event>
 8    1  0.6635152E-009  0.6409151E+02  0.7561462E-02  0.1381422E+00
          2   -1    0    0  501    0  0.00000000000E+00  0.00000000000E+00  0.68915251218E+02  0.68915251218E+02  0.00000000000E+00 0. -1.
         -2   -1    0    0    0  501 -0.00000000000E+00 -0.00000000000E+00 -0.26451758003E+03  0.26451758003E+03  0.00000000000E+00 0.  1.
         25    2    1    2    0    0 -0.45802308727E+01 -0.70685440619E+01 -0.20430339668E+03  0.23970543838E+03  0.12509147238E+03 0.  0.
         23    2    1    2    0    0  0.45802308727E+01  0.70685440619E+01  0.87010678770E+01  0.93727392862E+02  0.92941770806E+02 0.  0.
          5    1    3    3  502    0  0.14667119093E+02 -0.11438075812E+02 -0.21569553829E+03  0.21653635168E+03  0.41800000000E+01 0. -1.
         -5    1    3    3    0  502 -0.19247349965E+02  0.43695317504E+01  0.11392141603E+02  0.23169086704E+02  0.41800000000E+01 0. -1.
        -11    1    4    4    0    0  0.46128320036E+02 -0.28924977213E+01 -0.96701069810E+01  0.47219693153E+02  0.00000000000E+00 0.  1.
         11    1    4    4    0    0 -0.41548089164E+02  0.99610417833E+01  0.18371174858E+02  0.46507699709E+02  0.00000000000E+00 0. -1.
</event>
<event>
 8    1  0.6635152E-009  0.1191899E+03  0.7561462E-02  0.1244439E+00
          2   -1    0    0  501    0  0.00000000000E+00  0.00000000000E+00  0.19914443061E+04  0.19914443061E+04  0.00000000000E+00 0. -1.
         -2   -1    0    0    0  501 -0.00000000000E+00 -0.00000000000E+00 -0.22955911024E+02  0.22955911024E+02  0.00000000000E+00 0.  1.
         25    2    1    2    0    0 -0.50185412612E+02 -0.29199312063E+02  0.18399463379E+04  0.18451074192E+04  0.12509071378E+03 0.  0.
         23    2    1    2    0    0  0.50185412612E+02  0.29199312063E+02  0.12854205716E+03  0.16929279788E+03  0.93625933862E+02 0.  0.
          5    1    3    3  502    0 -0.59696440158E+02 -0.67556872663E+02  0.15242876236E+04  0.15269570484E+04  0.41800000000E+01 0.  1.
         -5    1    3    3    0  502  0.95110275456E+01  0.38357560600E+02  0.31565871436E+03  0.31815037082E+03  0.41800000000E+01 0.  1.
        -11    1    4    4    0    0 -0.12534721521E+02  0.42470323181E+02  0.37992691566E+02  0.58346312712E+02  0.00000000000E+00 0.  1.
         11    1    4    4    0    0  0.62720134133E+02 -0.13271011118E+02  0.90549365595E+02  0.11094648517E+03  0.00000000000E+00 0. -1.
</event>
<event>
 8    1  0.6635152E-009  0.2348205E+03  0.7561462E-02  0.1123292E+00
          2   -1    0    0  501    0  0.00000000000E+00  0.00000000000E+00  0.12537061282E+04  0.12537061282E+04  0.00000000000E+00 0. -1.
         -2   -1    0    0    0  501 -0.00000000000E+00 -0.00000000000E+00 -0.50850384329E+02  0.50850384329E+02  0.00000000000E+00 0.  1.
         25    2    1    2    0    0  0.13423855262E+03  0.17721724335E+03  0.49036841002E+03  0.55275083612E+03  0.12508544652E+03 0.  0.
         23    2    1    2    0    0 -0.13423855262E+03 -0.17721724335E+03  0.71248733388E+03  0.75180567644E+03  0.90264244537E+02 0.  0.
          5    1    3    3  502    0  0.52269418275E+01  0.91358257089E+02  0.25462873577E+03  0.27060472564E+03  0.41800000000E+01 0.  1.
         -5    1    3    3    0  502  0.12901161079E+03  0.85858986264E+02  0.23573967425E+03  0.28214611048E+03  0.41800000000E+01 0.  1.
        -11    1    4    4    0    0 -0.21413064212E+02 -0.39947683283E+02  0.57899995876E+02  0.73530580312E+02  0.00000000000E+00 0.  1.
         11    1    4    4    0    0 -0.11282548840E+03 -0.13726956007E+03  0.65458733801E+03  0.67827509613E+03  0.00000000000E+00 0. -1.
</event>
<event>
 8    1  0.6635152E-009  0.1556991E+03  0.7561462E-02  0.1193640E+00
         -3   -1    0    0    0  501 -0.00000000000E+00  0.00000000000E+00  0.45923630332E+02  0.45923630332E+02  0.00000000000E+00 0.  1.
          3   -1    0    0  501    0  0.00000000000E+00 -0.00000000000E+00 -0.56307045355E+03  0.56307045355E+03  0.00000000000E+00 0. -1.
         25    2    1    2    0    0 -0.11843239220E+03  0.97578303991E+01 -0.28340403172E+03  0.33179825641E+03  0.12510312142E+03 0.  0.
         23    2    1    2    0    0  0.11843239220E+03 -0.97578303991E+01 -0.23374279150E+03  0.27719582747E+03  0.89890975140E+02 0.  0.
          5    1    3    3  502    0 -0.24163644118E+02 -0.53330997185E+02 -0.10662871083E+03  0.12171783489E+03  0.41800000000E+01 0. -1.
         -5    1    3    3    0  502 -0.94268748083E+02  0.63088827584E+02 -0.17677532089E+03  0.21008042152E+03  0.41800000000E+01 0. -1.
        -11    1    4    4    0    0  0.83975435273E+02 -0.40300940951E+02 -0.19830960929E+03  0.21909527769E+03  0.00000000000E+00 0. -1.
         11    1    4    4    0    0  0.34456956927E+02  0.30543110552E+02 -0.35433182217E+02  0.58100549781E+02  0.00000000000E+00 0.  1.
</event>
<event>
 8    1  0.6635152E-009  0.1578947E+03  0.7561462E-02  0.1191094E+00
          2   -1    0    0  501    0  0.00000000000E+00  0.00000000000E+00  0.18325341238E+04  0.18325341238E+04  0.00000000000E+00 0. -1.
         -2   -1    0    0    0  501 -0.00000000000E+00 -0.00000000000E+00 -0.13811103037E+02  0.13811103037E+02  0.00000000000E+00 0.  1.
         25    2    1    2    0    0 -0.38611191465E+02  0.10912256919E+03  0.98271202879E+03  0.99738116108E+03  0.12509072603E+03 0.  0.
         23    2    1    2    0    0  0.38611191465E+02 -0.10912256919E+03  0.83601099201E+03  0.84896406580E+03  0.91798948965E+02 0.  0.
          5    1    3    3  502    0  0.32907513018E+02 -0.63515405644E+01  0.16052809103E+03  0.16404263742E+03  0.41800000000E+01 0. -1.
         -5    1    3    3    0  502 -0.71518704483E+02  0.11547410976E+03  0.82218393775E+03  0.83333852366E+03  0.41800000000E+01 0. -1.
        -11    1    4    4    0    0  0.21373979040E+02 -0.12247049194E+03  0.74994411587E+03  0.76017895611E+03  0.00000000000E+00 0.  1.
         11    1    4    4    0    0  0.17237212425E+02  0.13347922745E+02  0.86066876142E+02  0.88785109690E+02  0.00000000000E+00 0. -1.
</event>
<event>
 8    1  0.6635152E-009  0.1211702E+03  0.7561462E-02  0.1241179E+00
          2   -1    0    0  501    0  0.00000000000E+00  0.00000000000E+00  0.39416189160E+03  0.39416189160E+03  0.00000000000E+00 0. -1.
         -2   -1    0    0    0  501 -0.00000000000E+00 -0.00000000000E+00 -0.52591898579E+02  0.52591898579E+02  0.00000000000E+00 0.  1.
         25    2    1    2    0    0 -0.45322713592E+02 -0.22508563132E+02  0.27991383645E+03  0.31074037360E+03  0.12508812960E+03 0.  0.
         23    2    1    2    0    0  0.45322713592E+02  0.22508563132E+02  0.61656156572E+02  0.13601341658E+03  0.11016979652E+03 0.  0.
          5    1    3    3  502    0  0.36655418455E+02  0.19919550278E+02  0.10150139514E+03  0.10981991532E+03  0.41800000000E+01 0.  1.
         -5    1    3    3    0  502 -0.81978132047E+02 -0.42428113410E+02  0.17841244131E+03  0.20092045828E+03  0.41800000000E+01 0.  1.
        -11    1    4    4    0    0  0.50753759532E+02 -0.27489150803E+02  0.16832388725E+01  0.57744530578E+02  0.00000000000E+00 0.  1.
         11    1    4    4    0    0 -0.54310459402E+01  0.49997713935E+02  0.59972917700E+02  0.78268886003E+02  0.00000000000E+00 0. -1.
</event>
<event>
 8    1  0.6635152E-009  0.1426920E+03  0.7561462E-02  0.1209752E+00
          2   -1    0    0  501    0  0.00000000000E+00  0.00000000000E+00  0.13032399090E+03  0.13032399090E+03  0.00000000000E+00 0. -1.
         -2   -1    0    0    0  501 -0.00000000000E+00 -0.00000000000E+00 -0.19654529225E+03  0.19654529225E+03  0.00000000000E+00 0.  1.
         25    2    1    2    0    0 -0.59405373845E+02  0.77277005030E+02 -0.10512229167E+03  0.19026664611E+03  0.12509982601E+03 0.  0.
         23    2    1    2    0    0  0.59405373845E+02 -0.77277005030E+02  0.38900990322E+02  0.13660263704E+03  0.87442892510E+02 0.  0.
          5    1    3    3  502    0  0.32304850163E+02  0.51180438332E+02 -0.24865357206E+02  0.65565227071E+02  0.41800000000E+01 0.  1.
         -5    1    3    3    0  502 -0.91710224008E+02  0.26096566698E+02 -0.80256934460E+02  0.12470141904E+03  0.41800000000E+01 0.  1.
        -11    1    4    4    0    0  0.56199394328E+02 -0.95479697342E+02  0.25269387080E+02  0.11363664220E+03  0.00000000000E+00 0.  1.
         11    1    4    4    0    0  0.32059795164E+01  0.18202692312E+02  0.13631603242E+02  0.22965994840E+02  0.00000000000E+00 0. -1.
</event>
<event>
 8    1  0.6635152E-009  0.6316882E+02  0.7561462E-02  0.1384995E+00
         -2   -1    0    0    0  501 -0.00000000000E+00  0.00000000000E+00  0.10608495323E+03  0.10608495323E+03  0.00000000000E+00 0.  1.
          2   -1    0    0  501    0  0.00000000000E+00 -0.00000000000E+00 -0.12201769834E+03  0.12201769834E+03  0.00000000000E+00 0. -1.
         25    2    1    2    0    0 -0.23498608741E+01 -0.36784213705E+02 -0.18835004954E+02  0.13175952500E+03  0.12508882761E+03 0.  0.
         23    2    1    2    0    0  0.23498608741E+01  0.36784213705E+02  0.29022598403E+01  0.96343126567E+02  0.88966143563E+02 0.  0.
          5    1    3    3  502    0  0.52760703939E+01  0.14916711204E+02 -0.61828687776E+02  0.63957831608E+02  0.41800000000E+01 0.  1.
         -5    1    3    3    0  502 -0.76259312681E+01 -0.51700924909E+02  0.42993682822E+02  0.67801693391E+02  0.41800000000E+01 0.  1.
        -11    1    4    4    0    0  0.13513602106E+02 -0.49133955900E+01 -0.35666820851E+02  0.38456221964E+02  0.00000000000E+00 0. -1.
         11    1    4    4    0    0 -0.11163741231E+02  0.41697609295E+02  0.38569080691E+02  0.57886904603E+02  0.00000000000E+00 0.  1.
</event>
<event>
 8    1  0.6635152E-009  0.1024448E+03  0.7561462E-02  0.1275237E+00
          2   -1    0    0  501    0  0.00000000000E+00  0.00000000000E+00  0.20606020675E+03  0.20606020675E+03  0.00000000000E+00 0. -1.
         -2   -1    0    0    0  501 -0.00000000000E+00 -0.00000000000E+00 -0.87159454773E+02  0.87159454773E+02  0.00000000000E+00 0.  1.
         25    2    1    2    0    0 -0.31775044949E+02  0.68204391511E+02  0.11072839773E+03  0.18321776802E+03  0.12508589031E+03 0.  0.
         23    2    1    2    0    0  0.31775044949E+02 -0.68204391511E+02  0.81723542518E+01  0.11000189350E+03  0.79825664396E+02 0.  0.
          5    1    3    3  502    0  0.22741116979E+02  0.70426053403E+02  0.19186953597E+02  0.76567610565E+02  0.41800000000E+01 0.  1.
         -5    1    3    3    0  502 -0.54516161928E+02 -0.22216618923E+01  0.91541444129E+02  0.10665015746E+03  0.41800000000E+01 0.  1.
        -11    1    4    4    0    0  0.16358868855E+02 -0.22565591188E+02  0.42518429114E+02  0.50839308711E+02  0.00000000000E+00 0. -1.
         11    1    4    4    0    0  0.15416176093E+02 -0.45638800322E+02 -0.34346074862E+02  0.59162584787E+02  0.00000000000E+00 0.  1.
</event>
<event>
 8    1  0.6635152E-009  0.1566892E+03  0.7561462E-02  0.1192486E+00
          1   -1    0    0  501    0  0.00000000000E+00  0.00000000000E+00  0.66733197769E+03  0.66733197769E+03  0.00000000000E+00 0. -1.
         -1   -1    0    0    0  501 -0.00000000000E+00 -0.00000000000E+00 -0.82897158629E+02  0.82897158629E+02  0.00000000000E+00 0.  1.
         25    2    1    2    0    0  0.90184554154E+02 -0.11645940310E+03  0.53619155076E+03  0.56995183940E+03  0.12509066210E+03 0.  0.
         23    2    1    2    0    0 -0.90184554154E+02  0.11645940310E+03  0.48243268304E+02  0.18027729693E+03  0.92067608151E+02 0.  0.
          5    1    3    3  502    0  0.56839698515E+02 -0.22563330269E+02  0.37807335698E+03  0.38301017070E+03  0.41800000000E+01 0.  1.
         -5    1    3    3    0  502  0.33344855640E+02 -0.93896072836E+02  0.15811819378E+03  0.18694166870E+03  0.41800000000E+01 0.  1.
        -11    1    4    4    0    0 -0.40298827748E+02  0.83055858467E+02 -0.14488410388E+02  0.93446161928E+02  0.00000000000E+00 0.  1.
         11    1    4    4    0    0 -0.49885726406E+02  0.33403544638E+02  0.62731678692E+02  0.86831134997E+02  0.00000000000E+00 0. -1.
</event>
<event>
 8    1  0.6635152E-009  0.1027462E+03  0.7561462E-02  0.1274625E+00
         -2   -1    0    0    0  501 -0.00000000000E+00  0.00000000000E+00  0.66919460302E+02  0.66919460302E+02  0.00000000000E+00 0.  1.
          2   -1    0    0  501    0  0.00000000000E+00 -0.00000000000E+00 -0.21853942345E+03  0.21853942345E+03  0.00000000000E+00 0. -1.
         25    2    1    2    0    0  0.22589893866E+02  0.17846085540E+02 -0.31056389457E+02  0.13207170281E+03  0.12509855828E+03 0.  0.
         23    2    1    2    0    0 -0.22589893866E+02 -0.17846085540E+02 -0.12056357369E+03  0.15338718094E+03  0.90350793584E+02 0.  0.
          5    1    3    3  502    0  0.17820205431E+01 -0.52898260141E+02 -0.33916094326E+01  0.53201286993E+02  0.41800000000E+01 0. -1.
         -5    1    3    3    0  502  0.20807873323E+02  0.70744345681E+02 -0.27664780024E+02  0.78870415822E+02  0.41800000000E+01 0. -1.
        -11    1    4    4    0    0  0.26942454936E+02 -0.69159317104E+01 -0.65170356420E+01  0.28569174699E+02  0.00000000000E+00 0.  1.
         11    1    4    4    0    0 -0.49532348802E+02 -0.10930153830E+02 -0.11404653805E+03  0.12481800624E+03  0.00000000000E+00 0. -1.
</event>
<event>
 7    1  0.6635152E-009  0.9015545E+02  0.7561462E-02  0.1302476E+00
          2   -1    0    0  501    0  0.00000000000E+00  0.00000000000E+00  0.34401502968E+03  0.34401502968E+03  0.00000000000E+00 0. -1.
         -2   -1    0    0    0  501 -0.00000000000E+00 -0.00000000000E+00 -0.54703303119E+02  0.54703303119E+02  0.00000000000E+00 0.  1.
         23    2    1    2    0    0 -0.44937487717E+02 -0.66879274802E+02  0.15776832933E+03  0.20026332713E+03  0.93393464712E+02 0.  0.
          5    1    1    2  502    0  0.34655892377E+02  0.56595030615E+02  0.45468391771E+00  0.66495920959E+02  0.41800000000E+01 0. -1.
         -5    1    1    2    0  502  0.10281595340E+02  0.10284244187E+02  0.13108871331E+03  0.13195908471E+03  0.41800000000E+01 0. -1.
        -11    1    3    3    0    0  0.90473973688E+01 -0.34650275264E+02  0.64305776117E+01  0.36384739980E+02  0.00000000000E+00 0.  1.
         11    1    3    3    0    0 -0.53984885086E+02 -0.32228999538E+02  0.15133775172E+03  0.16387858715E+03  0.00000000000E+00 0. -1.
</event>
<event>
 8    1  0.6635152E-009  0.9890081E+02  0.7561462E-02  0.1282625E+00
         -2   -1    0    0    0  501 -0.00000000000E+00  0.00000000000E+00  0.15232464723E+02  0.15232464723E+02  0.00000000000E+00 0.  1.
          2   -1    0    0  501    0  0.00000000000E+00 -0.00000000000E+00 -0.98158642642E+03  0.98158642642E+03  0.00000000000E+00 0. -1.
         25    2    1    2    0    0  0.25787838203E+02 -0.38433429575E+02 -0.67419298115E+03  0.68725931419E+03  0.12508816089E+03 0.  0.
         23    2    1    2    0    0 -0.25787838203E+02  0.38433429575E+02 -0.29216098054E+03  0.30955957696E+03  0.91252134354E+02 0.  0.
          5    1    3    3  502    0 -0.27555781480E+02 -0.31775304615E+02 -0.55299950359E+03  0.55461240019E+03  0.41800000000E+01 0.  1.
         -5    1    3    3    0  502  0.53343619683E+02 -0.66581249603E+01 -0.12119347756E+03  0.13264691400E+03  0.41800000000E+01 0.  1.
        -11    1    4    4    0    0  0.23024126135E+02 -0.16351350616E+02 -0.65823716659E+02  0.71625684821E+02  0.00000000000E+00 0. -1.
         11    1    4    4    0    0 -0.48811964339E+02  0.54784780191E+02 -0.22633726389E+03  0.23793389213E+03  0.00000000000E+00 0.  1.
</event>
<event>
 7    1  0.6635152E-009  0.1022810E+03  0.7561462E-02  0.1275571E+00
         -1   -1    0    0    0  501 -0.00000000000E+00  0.00000000000E+00  0.89090858553E+02  0.89090858553E+02  0.00000000000E+00 0.  1.
          1   -1    0    0  501    0  0.00000000000E+00 -0.00000000000E+00 -0.18965677040E+03  0.18965677040E+03  0.00000000000E+00 0. -1.
         25    2    1    2    0    0  0.73230866376E+02  0.53673585314E+02 -0.98449099535E+02  0.18325745963E+03  0.12508979878E+03 0.  0.
          5    1    3    3  502    0  0.78585028080E+02  0.22959950561E+02 -0.22086308077E+01  0.82006807145E+02  0.41800000000E+01 0. -1.
         -5    1    3    3    0  502 -0.53541617039E+01  0.30713634752E+02 -0.96240468727E+02  0.10125065248E+03  0.41800000000E+01 0. -1.
        -11    1    1    2    0    0 -0.18333923271E+02 -0.17779013284E+02 -0.13550156369E+02  0.28910772966E+02  0.00000000000E+00 0.  1.
         11    1    1    2    0    0 -0.54896943106E+02 -0.35894572029E+02  0.11433344055E+02  0.66579396361E+02  0.00000000000E+00 0. -1.
</event>
<event>
 8    1  0.6635152E-009  0.1018925E+03  0.7561462E-02  0.1276366E+00
         -2   -1    0    0    0  501 -0.00000000000E+00  0.00000000000E+00  0.13941844327E+02  0.13941844327E+02  0.00000000000E+00 0. -1.
          2   -1    0    0  501    0  0.00000000000E+00 -0.00000000000E+00 -0.13751857835E+04  0.13751857835E+04  0.00000000000E+00 0.  1.
         25    2    1    2    0    0  0.24409363405E+02 -0.28587846605E+02 -0.11289223129E+04  0.11364537574E+04  0.12509385325E+03 0.  0.
         23    2    1    2    0    0 -0.24409363405E+02  0.28587846605E+02 -0.23232162624E+03  0.25267387041E+03  0.91965562969E+02 0.  0.
          5    1    3    3  502    0 -0.33874194320E+02 -0.30907690183E+02 -0.86068445512E+03  0.86191528008E+03  0.41800000000E+01 0.  1.
         -5    1    3    3    0  502  0.58283557725E+02  0.23198435782E+01 -0.26823785781E+03  0.27453847733E+03  0.41800000000E+01 0.  1.
        -11    1    4    4    0    0 -0.41784701712E+02  0.54121755121E+02 -0.16497998347E+03  0.17858757130E+03  0.00000000000E+00 0.  1.
         11    1    4    4    0    0  0.17375338307E+02 -0.25533908516E+02 -0.67341642770E+02  0.74086299114E+02  0.00000000000E+00 0. -1.
</event>
<event>
 8    1  0.6635152E-009  0.1751074E+03  0.7561462E-02  0.1172624E+00
         -2   -1    0    0    0  501 -0.00000000000E+00  0.00000000000E+00  0.49963282181E+02  0.49963282181E+02  0.00000000000E+00 0.  1.
          2   -1    0    0  501    0  0.00000000000E+00 -0.00000000000E+00 -0.67458462183E+03  0.67458462183E+03  0.00000000000E+00 0. -1.
         25    2    1    2    0    0 -0.14426398661E+03  0.29200027408E+02 -0.34279868942E+03  0.39347615599E+03  0.12509118447E+03 0.  0.
         23    2    1    2    0    0  0.14426398661E+03 -0.29200027408E+02 -0.28182265023E+03  0.33107174802E+03  0.92302528261E+02 0.  0.
          5    1    3    3  502    0  0.31420062202E+01  0.36363783461E+02 -0.12550345059E+03  0.13076997155E+03  0.41800000000E+01 0. -1.
         -5    1    3    3    0  502 -0.14740599283E+03 -0.71637560536E+01 -0.21729523883E+03  0.26270618443E+03  0.41800000000E+01 0. -1.
        -11    1    4    4    0    0  0.61295555120E+02  0.25577220437E+02 -0.16380972641E+03  0.17676245571E+03  0.00000000000E+00 0. -1.
         11    1    4    4    0    0  0.82968431486E+02 -0.54777247844E+02 -0.11801292382E+03  0.15430929231E+03  0.00000000000E+00 0.  1.
</event>
<event>
 8    1  0.6635152E-009  0.1106026E+03  0.7561462E-02  0.1259458E+00
         -1   -1    0    0    0  501 -0.00000000000E+00  0.00000000000E+00  0.21333792015E+03  0.21333792015E+03  0.00000000000E+00 0.  1.
          1   -1    0    0  501    0  0.00000000000E+00 -0.00000000000E+00 -0.99300010585E+02  0.99300010585E+02  0.00000000000E+00 0. -1.
         25    2    1    2    0    0 -0.76235020429E+02  0.52865697923E+02  0.31826228404E+02  0.15895523954E+03  0.12508916422E+03 0.  0.
         23    2    1    2    0    0  0.76235020429E+02 -0.52865697923E+02  0.82211681164E+02  0.15368269120E+03  0.90846291607E+02 0.  0.
          5    1    3    3  502    0 -0.73638438723E+02  0.57427569649E+02  0.72146112863E+02  0.11808081730E+03  0.41800000000E+01 0. -1.
         -5    1    3    3    0  502 -0.25965817056E+01 -0.45618717264E+01 -0.40319884459E+02  0.40874422234E+02  0.41800000000E+01 0. -1.
        -11    1    4    4    0    0  0.46204065777E+02 -0.71897597374E+02  0.30123720385E+02  0.90617430621E+02  0.00000000000E+00 0.  1.
         11    1    4    4    0    0  0.30030954652E+02  0.19031899451E+02  0.52087960780E+02  0.63065260582E+02  0.00000000000E+00 0. -1.
</event>
<event>
 8    1  0.6635152E-009  0.1803487E+03  0.7561462E-02  0.1167466E+00
         -2   -1    0    0    0  501 -0.00000000000E+00  0.00000000000E+00  0.34195595789E+02  0.34195595789E+02  0.00000000000E+00 0.  1.
          2   -1    0    0  501    0  0.00000000000E+00 -0.00000000000E+00 -0.12189443760E+04  0.12189443760E+04  0.00000000000E+00 0. -1.
         25    2    1    2    0    0 -0.52465486883E+02 -0.16026851108E+03 -0.50782656337E+03  0.54952166747E+03  0.12509045366E+03 0.  0.
         23    2    1    2    0    0  0.52465486883E+02  0.16026851108E+03 -0.67692221688E+03  0.70361830436E+03  0.91740980854E+02 0.  0.
          5    1    3    3  502    0 -0.53348171688E+02 -0.10764722875E+03 -0.17365151219E+03  0.21120197292E+03  0.41800000000E+01 0.  1.
         -5    1    3    3    0  502  0.88268480515E+00 -0.52621282325E+02 -0.33417505118E+03  0.33831969455E+03  0.41800000000E+01 0.  1.
        -11    1    4    4    0    0 -0.12346666773E+01  0.12138043262E+03 -0.50423715307E+03  0.51864230483E+03  0.00000000000E+00 0. -1.
         11    1    4    4    0    0  0.53700153561E+02  0.38888078456E+02 -0.17268506381E+03  0.18497599953E+03  0.00000000000E+00 0.  1.
</event>
<event>
 8    1  0.6635152E-009  0.1318639E+03  0.7561462E-02  0.1224716E+00
         -1   -1    0    0    0  501 -0.00000000000E+00  0.00000000000E+00  0.24009313614E+02  0.24009313614E+02  0.00000000000E+00 0.  1.
          1   -1    0    0  501    0  0.00000000000E+00 -0.00000000000E+00 -0.75312022083E+03  0.75312022083E+03  0.00000000000E+00 0. -1.
         25    2    1    2    0    0  0.62614947278E+02 -0.46459219325E+02 -0.35381334857E+03  0.38328901889E+03  0.12508995040E+03 0.  0.
         23    2    1    2    0    0 -0.62614947278E+02  0.46459219325E+02 -0.37529755865E+03  0.39384051556E+03  0.90459955141E+02 0.  0.
          5    1    3    3  502    0  0.94395831663E+02 -0.57859963013E+02 -0.23695359693E+03  0.26157757521E+03  0.41800000000E+01 0. -1.
         -5    1    3    3    0  502 -0.31780884385E+02  0.11400743688E+02 -0.11685975164E+03  0.12171144368E+03  0.41800000000E+01 0. -1.
        -11    1    4    4    0    0 -0.55484542215E+01  0.60002379143E+02 -0.17191190106E+03  0.18216688111E+03  0.00000000000E+00 0. -1.
         11    1    4    4    0    0 -0.57066493057E+02 -0.13543159819E+02 -0.20338565759E+03  0.21167363445E+03  0.00000000000E+00 0.  1.
</event>
<event>
 8    1  0.6635152E-009  0.8505727E+02  0.7561462E-02  0.1315283E+00
          2   -1    0    0  501    0  0.00000000000E+00  0.00000000000E+00  0.43485220591E+03  0.43485220591E+03  0.00000000000E+00 0. -1.
         -2   -1    0    0    0  501 -0.00000000000E+00 -0.00000000000E+00 -0.38225104534E+02  0.38225104534E+02  0.00000000000E+00 0.  1.
         25    2    1    2    0    0 -0.35921378468E+02 -0.55431295793E+02  0.17059988927E+03  0.22161765009E+03  0.12508831532E+03 0.  0.
         23    2    1    2    0    0  0.35921378468E+02  0.55431295793E+02  0.22602721211E+03  0.25145966035E+03  0.88208197960E+02 0.  0.
          5    1    3    3  502    0 -0.10581571865E+02 -0.50667414944E+02  0.18475100354E+03  0.19191029756E+03  0.41800000000E+01 0. -1.
         -5    1    3    3    0  502 -0.25339806603E+02 -0.47638808486E+01 -0.14151114270E+02  0.29707352533E+02  0.41800000000E+01 0. -1.
        -11    1    4    4    0    0  0.52946215066E+02  0.28300814510E+02  0.70180147159E+02  0.92355242661E+02  0.00000000000E+00 0.  1.
         11    1    4    4    0    0 -0.17024836598E+02  0.27130481282E+02  0.15584706495E+03  0.15910441769E+03  0.00000000000E+00 0. -1.
</event>
<event>
 7    1  0.6635152E-009  0.9474431E+02  0.7561462E-02  0.1291753E+00
         -2   -1    0    0    0  501 -0.00000000000E+00  0.00000000000E+00  0.43954980307E+02  0.43954980307E+02  0.00000000000E+00 0.  1.
          2   -1    0    0  501    0  0.00000000000E+00 -0.00000000000E+00 -0.55787313037E+03  0.55787313037E+03  0.00000000000E+00 0. -1.
         23    2    1    2    0    0  0.13084693934E+02  0.28870465918E+02 -0.33690109103E+02  0.10454091211E+03  0.93750017785E+02 0.  0.
          5    1    1    2  502    0  0.39285104613E+02  0.29805530772E+01 -0.55795306600E+02  0.68430927070E+02  0.41800000000E+01 0. -1.
         -5    1    1    2    0  502 -0.52369798546E+02 -0.31851018995E+02 -0.42443273436E+03  0.42885627150E+03  0.41800000000E+01 0. -1.
        -11    1    3    3    0    0  0.13238219821E+02 -0.28309523804E+02  0.97431811542E+01  0.32735442276E+02  0.00000000000E+00 0.  1.
         11    1    3    3    0    0 -0.15352588708E+00  0.57179989722E+02 -0.43433290257E+02  0.71805469829E+02  0.00000000000E+00 0. -1.
</event>
<event>
 8    1  0.6635152E-009  0.1047113E+03  0.7561462E-02  0.1270690E+00
         -2   -1    0    0    0  501 -0.00000000000E+00  0.00000000000E+00  0.50658993630E+03  0.50658993630E+03  0.00000000000E+00 0. -1.
          2   -1    0    0  501    0  0.00000000000E+00 -0.00000000000E+00 -0.27913229464E+02  0.27913229464E+02  0.00000000000E+00 0.  1.
         25    2    1    2    0    0  0.42226471567E+02 -0.20140333918E+02  0.24357110344E+03  0.27778223732E+03  0.12508949190E+03 0.  0.
         23    2    1    2    0    0 -0.42226471567E+02  0.20140333918E+02  0.23510560339E+03  0.25672092845E+03  0.91881893784E+02 0.  0.
          5    1    3    3  502    0  0.15997962566E+02 -0.67834711789E+02  0.18489242668E+03  0.19763644596E+03  0.41800000000E+01 0.  1.
         -5    1    3    3    0  502  0.26228509000E+02  0.47694377871E+02  0.58678676767E+02  0.80145791356E+02  0.41800000000E+01 0.  1.
        -11    1    4    4    0    0 -0.14104104652E+02  0.45196105847E+02  0.54337965807E+02  0.72070994719E+02  0.00000000000E+00 0.  1.
         11    1    4    4    0    0 -0.28122366915E+02 -0.25055771929E+02  0.18076763759E+03  0.18464993373E+03  0.00000000000E+00 0. -1.
</event>
<event>
 8    1  0.6635152E-009  0.1068695E+03  0.7561462E-02  0.1266479E+00
         -4   -1    0    0    0  501 -0.00000000000E+00  0.00000000000E+00  0.13590699289E+03  0.13590699289E+03  0.00000000000E+00 0. -1.
          4   -1    0    0  501    0  0.00000000000E+00 -0.00000000000E+00 -0.14709251095E+03  0.14709251095E+03  0.00000000000E+00 0.  1.
         25    2    1    2    0    0  0.17040226695E+02  0.31833196710E+01 -0.94396264140E+02  0.15767083981E+03  0.12509570814E+03 0.  0.
         23    2    1    2    0    0 -0.17040226695E+02 -0.31833196710E+01  0.83210746080E+02  0.12532866402E+03  0.92101807323E+02 0.  0.
          5    1    3    3  502    0 -0.53997018476E+02 -0.50671680561E+01 -0.45768500938E+02  0.71088552345E+02  0.41800000000E+01 0.  1.
         -5    1    3    3    0  502  0.71037245171E+02  0.82504877271E+01 -0.48627763202E+02  0.86582287468E+02  0.41800000000E+01 0.  1.
        -11    1    4    4    0    0  0.24379532063E+02 -0.29777637532E+02  0.15207288221E+02  0.41380320149E+02  0.00000000000E+00 0.  1.
         11    1    4    4    0    0 -0.41419758758E+02  0.26594317861E+02  0.68003457859E+02  0.83948343872E+02  0.00000000000E+00 0. -1.
</event>
<event>
 8    1  0.6635152E-009  0.1498180E+03  0.7561462E-02  0.1200697E+00
          2   -1    0    0  501    0  0.00000000000E+00  0.00000000000E+00  0.58699810510E+03  0.58699810510E+03  0.00000000000E+00 0. -1.
         -2   -1    0    0    0  501 -0.00000000000E+00 -0.00000000000E+00 -0.42438385625E+02  0.42438385625E+02  0.00000000000E+00 0.  1.
         25    2    1    2    0    0 -0.38488261331E+02  0.10036813249E+03  0.38780376108E+03  0.42141986339E+03  0.12509131014E+03 0.  0.
         23    2    1    2    0    0  0.38488261331E+02 -0.10036813249E+03  0.15675595839E+03  0.20801662733E+03  0.84518509658E+02 0.  0.
          5    1    3    3  502    0 -0.77879033977E+02  0.31591985798E+02  0.22703606045E+03  0.24212815335E+03  0.41800000000E+01 0.  1.
         -5    1    3    3    0  502  0.39390772646E+02  0.68776146692E+02  0.16076770064E+03  0.17929171005E+03  0.41800000000E+01 0.  1.
        -11    1    4    4    0    0 -0.15802327908E+02 -0.74180390043E+02  0.77424438603E+02  0.10838352055E+03  0.00000000000E+00 0.  1.
         11    1    4    4    0    0  0.54290589239E+02 -0.26187742448E+02  0.79331519785E+02  0.99633106776E+02  0.00000000000E+00 0. -1.
</event>
<event>
 8    1  0.6635152E-009  0.1054399E+03  0.7561462E-02  0.1269255E+00
         -1   -1    0    0    0  501 -0.00000000000E+00  0.00000000000E+00  0.22850091978E+02  0.22850091978E+02  0.00000000000E+00 0.  1.
          1   -1    0    0  501    0  0.00000000000E+00 -0.00000000000E+00 -0.64344527034E+03  0.64344527034E+03  0.00000000000E+00 0. -1.
         25    2    1    2    0    0 -0.23219440510E+02 -0.21165713303E+02 -0.22238557976E+03  0.25707869512E+03  0.12508788736E+03 0.  0.
         23    2    1    2    0    0  0.23219440510E+02  0.21165713303E+02 -0.39820959860E+03  0.40921666719E+03  0.88883443085E+02 0.  0.
          5    1    3    3  502    0  0.44260426321E+01  0.45580702925E+02 -0.14032463498E+03  0.14766741656E+03  0.41800000000E+01 0. -1.
         -5    1    3    3    0  502 -0.27645483142E+02 -0.66746416229E+02 -0.82060944782E+02  0.10941127856E+03  0.41800000000E+01 0. -1.
        -11    1    4    4    0    0  0.15669118457E+02 -0.33689928533E+02 -0.12289890546E+03  0.12839265369E+03  0.00000000000E+00 0.  1.
         11    1    4    4    0    0  0.75503220532E+01  0.54855641836E+02 -0.27531069313E+03  0.28082401350E+03  0.00000000000E+00 0. -1.
</event>
<event>
 8    1  0.6635152E-009  0.1049952E+03  0.7561462E-02  0.1270129E+00
         -1   -1    0    0    0  501 -0.00000000000E+00  0.00000000000E+00  0.56783340994E+02  0.56783340994E+02  0.00000000000E+00 0.  1.
          1   -1    0    0  501    0  0.00000000000E+00 -0.00000000000E+00 -0.28195302423E+03  0.28195302423E+03  0.00000000000E+00 0. -1.
         25    2    1    2    0    0 -0.60569359692E+02  0.15327555306E+02 -0.98462229609E+02  0.17101349938E+03  0.12508886851E+03 0.  0.
         23    2    1    2    0    0  0.60569359692E+02 -0.15327555306E+02 -0.12670745363E+03  0.16772286585E+03  0.90402431590E+02 0.  0.
          5    1    3    3  502    0  0.16807040800E+02 -0.33150477468E+02 -0.62404100962E+02  0.72754209457E+02  0.41800000000E+01 0.  1.
         -5    1    3    3    0  502 -0.77376400492E+02  0.48478032774E+02 -0.36058128647E+02  0.98259289923E+02  0.41800000000E+01 0.  1.
        -11    1    4    4    0    0  0.57635120583E+02 -0.30860208124E+02 -0.13490839932E+03  0.14991476171E+03  0.00000000000E+00 0. -1.
         11    1    4    4    0    0  0.29342391085E+01  0.15532652818E+02  0.82009456945E+01  0.17808104138E+02  0.00000000000E+00 0.  1.
</event>
<event>
 8    1  0.6635152E-009  0.1090122E+03  0.7561462E-02  0.1262410E+00
          1   -1    0    0  501    0  0.00000000000E+00  0.00000000000E+00  0.19645095865E+03  0.19645095865E+03  0.00000000000E+00 0. -1.
         -1   -1    0    0    0  501 -0.00000000000E+00 -0.00000000000E+00 -0.72733529355E+02  0.72733529355E+02  0.00000000000E+00 0.  1.
         25    2    1    2    0    0 -0.40457888756E+02  0.29186264737E+02  0.59389734680E+02  0.14719087766E+03  0.12509730241E+03 0.  0.
         23    2    1    2    0    0  0.40457888756E+02 -0.29186264737E+02  0.64327694610E+02  0.12199361034E+03  0.90860936919E+02 0.  0.
          5    1    3    3  502    0  0.34477994223E+02 -0.13602488630E+02 -0.73563454024E+01  0.38017732708E+02  0.41800000000E+01 0.  1.
         -5    1    3    3    0  502 -0.74935882979E+02  0.42788753367E+02  0.66746080083E+02  0.10917314495E+03  0.41800000000E+01 0.  1.
        -11    1    4    4    0    0  0.62040685035E+01  0.27450504471E+02 -0.20972525027E+01  0.28220898812E+02  0.00000000000E+00 0.  1.
         11    1    4    4    0    0  0.34253820253E+02 -0.56636769208E+02  0.66424947113E+02  0.93772711527E+02  0.00000000000E+00 0. -1.
</event>
<event>
 8    1  0.6635152E-009  0.1142223E+03  0.7561462E-02  0.1252945E+00
          2   -1    0    0  501    0  0.00000000000E+00  0.00000000000E+00  0.28238555997E+03  0.28238555997E+03  0.00000000000E+00 0. -1.
         -2   -1    0    0    0  501 -0.00000000000E+00 -0.00000000000E+00 -0.74032955652E+02  0.74032955652E+02  0.00000000000E+00 0.  1.
         25    2    1    2    0    0 -0.66668929372E+02  0.64839792439E+02  0.14531528498E+03  0.21310249843E+03  0.12508876032E+03 0.  0.
         23    2    1    2    0    0  0.66668929372E+02 -0.64839792439E+02  0.63037319332E+02  0.14331601719E+03  0.88976583034E+02 0.  0.
          5    1    3    3  502    0  0.14003563596E+02  0.34611011197E+02 -0.68529340201E+01  0.38189749857E+02  0.41800000000E+01 0. -1.
         -5    1    3    3    0  502 -0.80672492968E+02  0.30228781242E+02  0.15216821900E+03  0.17491274857E+03  0.41800000000E+01 0. -1.
        -11    1    4    4    0    0  0.11192427776E+02  0.74906691452E+01 -0.17222031045E+02  0.21862728949E+02  0.00000000000E+00 0.  1.
         11    1    4    4    0    0  0.55476501596E+02 -0.72330461584E+02  0.80259350377E+02  0.12145328824E+03  0.00000000000E+00 0. -1.
</event>
<event>
 8    1  0.6635152E-009  0.2072579E+03  0.7561462E-02  0.1143756E+00
         -2   -1    0    0    0  501 -0.00000000000E+00  0.00000000000E+00  0.26553569162E+02  0.26553569162E+02  0.00000000000E+00 0.  1.
          2   -1    0    0  501    0  0.00000000000E+00 -0.00000000000E+00 -0.16250333420E+04  0.16250333420E+04  0.00000000000E+00 0. -1.
         25    2    1    2    0    0 -0.87006900483E+02  0.15322715487E+03 -0.77858741041E+03  0.80802147101E+03  0.12510627578E+03 0.  0.
         23    2    1    2    0    0  0.87006900483E+02 -0.15322715487E+03 -0.81989236247E+03  0.84356544019E+03  0.91271047613E+02 0.  0.
          5    1    3    3  502    0 -0.79999728032E+02  0.19923573392E+02 -0.29809303688E+03  0.30931187546E+03  0.41800000000E+01 0.  1.
         -5    1    3    3    0  502 -0.70071724510E+01  0.13330358148E+03 -0.48049437353E+03  0.49870959555E+03  0.41800000000E+01 0.  1.
        -11    1    4    4    0    0 -0.15052561256E+02 -0.54036070470E+02 -0.22542661604E+03  0.23230074414E+03  0.00000000000E+00 0. -1.
         11    1    4    4    0    0  0.10205946174E+03 -0.99191084404E+02 -0.59446574643E+03  0.61126469605E+03  0.00000000000E+00 0.  1.
</event>
<event>
 8    1  0.6635152E-009  0.1666098E+03  0.7561462E-02  0.1181430E+00
          1   -1    0    0  501    0  0.00000000000E+00  0.00000000000E+00  0.51250101756E+03  0.51250101756E+03  0.00000000000E+00 0. -1.
         -1   -1    0    0    0  501 -0.00000000000E+00 -0.00000000000E+00 -0.65445602460E+02  0.65445602460E+02  0.00000000000E+00 0.  1.
         25    2    1    2    0    0  0.63702756253E+02 -0.12865957624E+03  0.18398425033E+03  0.26478424102E+03  0.12509661151E+03 0.  0.
         23    2    1    2    0    0 -0.63702756253E+02  0.12865957624E+03  0.26307116477E+03  0.31316237900E+03  0.90845529218E+02 0.  0.
          5    1    3    3  502    0  0.96791860604E+02 -0.11193072199E+03  0.11935916944E+03  0.19016107523E+03  0.41800000000E+01 0.  1.
         -5    1    3    3    0  502 -0.33089104351E+02 -0.16728854242E+02  0.64625080900E+02  0.74623165788E+02  0.41800000000E+01 0.  1.
        -11    1    4    4    0    0 -0.58027687017E+02  0.79714038632E+02  0.23855264924E+03  0.25812575787E+03  0.00000000000E+00 0. -1.
         11    1    4    4    0    0 -0.56750692354E+01  0.48945537604E+02  0.24518515528E+02  0.55036621134E+02  0.00000000000E+00 0.  1.
</event>
<event>
 8    1  0.6635152E-009  0.1198583E+03  0.7561462E-02  0.1243331E+00
         -2   -1    0    0    0  501 -0.00000000000E+00  0.00000000000E+00  0.24507135673E+02  0.24507135673E+02  0.00000000000E+00 0.  1.
          2   -1    0    0  501    0  0.00000000000E+00 -0.00000000000E+00 -0.95737547205E+03  0.95737547205E+03  0.00000000000E+00 0. -1.
         25    2    1    2    0    0 -0.10298417819E+03 -0.34861869327E+02 -0.46186309506E+03  0.49070033197E+03  0.12509279086E+03 0.  0.
         23    2    1    2    0    0  0.10298417819E+03  0.34861869327E+02 -0.47100524132E+03  0.49118227576E+03  0.87137820607E+02 0.  0.
          5    1    3    3  502    0 -0.74182935263E+01 -0.16586426589E+02  0.37846655899E-01  0.18644421638E+02  0.41800000000E+01 0. -1.
         -5    1    3    3    0  502 -0.95565884659E+02 -0.18275442738E+02 -0.46190094172E+03  0.47205591033E+03  0.41800000000E+01 0. -1.
        -11    1    4    4    0    0  0.72380144666E+02  0.51517360942E+02 -0.42076714022E+03  0.43004407927E+03  0.00000000000E+00 0.  1.
         11    1    4    4    0    0  0.30604033519E+02 -0.16655491614E+02 -0.50238101091E+02  0.61138196488E+02  0.00000000000E+00 0. -1.
</event>
<event>
 8    1  0.6635152E-009  0.1251030E+03  0.7561462E-02  0.1234908E+00
          2   -1    0    0  501    0  0.00000000000E+00  0.00000000000E+00  0.37396560761E+03  0.37396560761E+03  0.00000000000E+00 0. -1.
         -2   -1    0    0    0  501 -0.00000000000E+00 -0.00000000000E+00 -0.52057718107E+02  0.52057718107E+02  0.00000000000E+00 0.  1.
         25    2    1    2    0    0  0.44807877753E+02 -0.61712562258E+02  0.24316105240E+03  0.28388524122E+03  0.12508935418E+03 0.  0.
         23    2    1    2    0    0 -0.44807877753E+02  0.61712562258E+02  0.78746837110E+02  0.14213808450E+03  0.90476430425E+02 0.  0.
          5    1    3    3  502    0  0.84091463771E+02 -0.39867198664E+02  0.11494801796E+03  0.14795704458E+03  0.41800000000E+01 0. -1.
         -5    1    3    3    0  502 -0.39283586018E+02 -0.21845363594E+02  0.12821303444E+03  0.13592819663E+03  0.41800000000E+01 0. -1.
        -11    1    4    4    0    0  0.71272120637E+01 -0.16526824857E+02 -0.22334898447E+01  0.18136194985E+02  0.00000000000E+00 0.  1.
         11    1    4    4    0    0 -0.51935089817E+02  0.78239387115E+02  0.80980326955E+02  0.12400188952E+03  0.00000000000E+00 0. -1.
</event>
<event>
 8    1  0.6635152E-009  0.9304794E+02  0.7561462E-02  0.1295634E+00
         -2   -1    0    0    0  501 -0.00000000000E+00  0.00000000000E+00  0.76977628880E+02  0.76977628880E+02  0.00000000000E+00 0.  1.
          2   -1    0    0  501    0  0.00000000000E+00 -0.00000000000E+00 -0.16780771128E+03  0.16780771128E+03  0.00000000000E+00 0. -1.
         25    2    1    2    0    0 -0.94974259241E+01 -0.27967977028E+02 -0.67212881876E+02  0.14504119054E+03  0.12508783564E+03 0.  0.
         23    2    1    2    0    0  0.94974259241E+01  0.27967977028E+02 -0.23617200529E+02  0.99744149628E+02  0.92296881778E+02 0.  0.
          5    1    3    3  502    0  0.53578342416E+02 -0.12166706060E+02 -0.56656988812E+02  0.79032615379E+02  0.41800000000E+01 0.  1.
         -5    1    3    3    0  502 -0.63075768340E+02 -0.15801270968E+02 -0.10555893064E+02  0.66008575157E+02  0.41800000000E+01 0.  1.
        -11    1    4    4    0    0 -0.91817309673E+01  0.41670122041E+02  0.22424198356E+02  0.48203194151E+02  0.00000000000E+00 0.  1.
         11    1    4    4    0    0  0.18679156891E+02 -0.13702145013E+02 -0.46041398885E+02  0.51540955477E+02  0.00000000000E+00 0. -1.
</event>
<event>
 8    1  0.6635152E-009  0.1651381E+03  0.7561462E-02  0.1183015E+00
         -2   -1    0    0    0  501 -0.00000000000E+00  0.00000000000E+00  0.67555392512E+02  0.67555392512E+02  0.00000000000E+00 0.  1.
          2   -1    0    0  501    0  0.00000000000E+00 -0.00000000000E+00 -0.49030743095E+03  0.49030743095E+03  0.00000000000E+00 0. -1.
         25    2    1    2    0    0  0.47244722891E+02 -0.13295007303E+03 -0.28107771436E+03  0.33846696365E+03  0.12508964071E+03 0.  0.
         23    2    1    2    0    0 -0.47244722891E+02  0.13295007303E+03 -0.14167432407E+03  0.21939585981E+03  0.90305832821E+02 0.  0.
          5    1    3    3  502    0  0.26480031668E+02  0.71946930563E+01 -0.51011066724E+01  0.28221434666E+02  0.41800000000E+01 0. -1.
         -5    1    3    3    0  502  0.20764691223E+02 -0.14014476608E+03 -0.27597660769E+03  0.31024552898E+03  0.41800000000E+01 0. -1.
        -11    1    4    4    0    0 -0.66483759272E+02  0.77602302118E+02 -0.58793860280E+02  0.11789370444E+03  0.00000000000E+00 0.  1.
         11    1    4    4    0    0  0.19239036380E+02  0.55347770910E+02 -0.82880463795E+02  0.10150215537E+03  0.00000000000E+00 0. -1.
</event>
<event>
 8    1  0.6635152E-009  0.1213334E+03  0.7561462E-02  0.1240913E+00
         -2   -1    0    0    0  501 -0.00000000000E+00  0.00000000000E+00  0.36515167105E+03  0.36515167105E+03  0.00000000000E+00 0.  1.
          2   -1    0    0  501    0  0.00000000000E+00 -0.00000000000E+00 -0.47256729033E+02  0.47256729033E+02  0.00000000000E+00 0. -1.
         25    2    1    2    0    0  0.25325555590E+02 -0.68235263061E+02  0.19299700984E+03  0.24123992435E+03  0.12510563697E+03 0.  0.
         23    2    1    2    0    0 -0.25325555590E+02  0.68235263061E+02  0.12489793218E+03  0.17116847574E+03  0.91660889871E+02 0.  0.
          5    1    3    3  502    0 -0.35997137511E+02 -0.35609009269E+01  0.10175899040E+02  0.37808666277E+02  0.41800000000E+01 0. -1.
         -5    1    3    3    0  502  0.61322693101E+02 -0.64674362134E+02  0.18282111080E+03  0.20343125807E+03  0.41800000000E+01 0. -1.
        -11    1    4    4    0    0  0.22787709417E+02 -0.10237977366E+02  0.25627032169E+02  0.35788834276E+02  0.00000000000E+00 0. -1.
         11    1    4    4    0    0 -0.48113265007E+02  0.78473240427E+02  0.99270900010E+02  0.13537964146E+03  0.00000000000E+00 0.  1.
</event>
<event>
 8    1  0.6635152E-009  0.1011141E+03  0.7561462E-02  0.1277971E+00
         -2   -1    0    0    0  501 -0.00000000000E+00  0.00000000000E+00  0.76256124078E+02  0.76256124078E+02  0.00000000000E+00 0.  1.
          2   -1    0    0  501    0  0.00000000000E+00 -0.00000000000E+00 -0.19064147313E+03  0.19064147313E+03  0.00000000000E+00 0. -1.
         25    2    1    2    0    0  0.21146964184E+02 -0.32524743188E+02 -0.10413986937E+03  0.16732584471E+03  0.12509105844E+03 0.  0.
         23    2    1    2    0    0 -0.21146964184E+02  0.32524743188E+02 -0.10245479684E+02  0.99571752498E+02  0.91129089911E+02 0.  0.
          5    1    3    3  502    0  0.66437220947E+02 -0.26390402781E+02 -0.97472921405E+02  0.12094957831E+03  0.41800000000E+01 0. -1.
         -5    1    3    3    0  502 -0.45290256763E+02 -0.61343404067E+01 -0.66669479602E+01  0.46376266397E+02  0.41800000000E+01 0. -1.
        -11    1    4    4    0    0  0.18977074570E+02 -0.13781344055E+02  0.20381708386E+02  0.31071994464E+02  0.00000000000E+00 0.  1.
         11    1    4    4    0    0 -0.40124038754E+02  0.46306087243E+02 -0.30627188070E+02  0.68499758034E+02  0.00000000000E+00 0. -1.
</event>
<event>
 8    1  0.6635152E-009  0.9519730E+02  0.7561462E-02  0.1290732E+00
          4   -1    0    0  501    0  0.00000000000E+00  0.00000000000E+00  0.15234622713E+02  0.15234622713E+02  0.00000000000E+00 0. -1.
         -4   -1    0    0    0  501 -0.00000000000E+00 -0.00000000000E+00 -0.78935002837E+03  0.78935002837E+03  0.00000000000E+00 0.  1.
         25    2    1    2    0    0 -0.31506145069E+01 -0.21454995949E+01 -0.50625234593E+03  0.52149221929E+03  0.12509263556E+03 0.  0.
         23    2    1    2    0    0  0.31506145069E+01  0.21454995949E+01 -0.26786305972E+03  0.28309243180E+03  0.91521454511E+02 0.  0.
          5    1    3    3  502    0  0.16533673366E+02  0.53412909147E+02 -0.14544575959E+03  0.15587893572E+03  0.41800000000E+01 0. -1.
         -5    1    3    3    0  502 -0.19684287873E+02 -0.55558408742E+02 -0.36080658634E+03  0.36561328356E+03  0.41800000000E+01 0. -1.
        -11    1    4    4    0    0 -0.17726678483E+01  0.38503848685E+02 -0.21688680397E+03  0.22028521161E+03  0.00000000000E+00 0.  1.
         11    1    4    4    0    0  0.49232823551E+01 -0.36358349090E+02 -0.50976255750E+02  0.62807220190E+02  0.00000000000E+00 0. -1.
</event>
<event>
 8    1  0.6635152E-009  0.6784265E+02  0.7561462E-02  0.1367587E+00
          1   -1    0    0  501    0  0.00000000000E+00  0.00000000000E+00  0.60520387591E+02  0.60520387591E+02  0.00000000000E+00 0. -1.
         -1   -1    0    0    0  501 -0.00000000000E+00 -0.00000000000E+00 -0.23361772255E+03  0.23361772255E+03  0.00000000000E+00 0.  1.
         25    2    1    2    0    0  0.90284234939E+01 -0.42961106884E+02 -0.71657665032E+02  0.15069737033E+03  0.12509079635E+03 0.  0.
         23    2    1    2    0    0 -0.90284234939E+01  0.42961106884E+02 -0.10143966993E+03  0.14344073981E+03  0.91422481188E+02 0.  0.
          5    1    3    3  502    0  0.29094652191E+02 -0.40178789018E+02  0.22257189374E+02  0.54531539057E+02  0.41800000000E+01 0. -1.
         -5    1    3    3    0  502 -0.20066228697E+02 -0.27823178664E+01 -0.93914854407E+02  0.96165831276E+02  0.41800000000E+01 0. -1.
        -11    1    4    4    0    0 -0.13766621250E+02 -0.67144260221E+01  0.12034524829E+02  0.19479044261E+02  0.00000000000E+00 0. -1.
         11    1    4    4    0    0  0.47381977561E+01  0.49675532906E+02 -0.11347419476E+03  0.12396169555E+03  0.00000000000E+00 0.  1.
</event>
<event>
 8    1  0.6635152E-009  0.1738602E+03  0.7561462E-02  0.1173881E+00
          1   -1    0    0  501    0  0.00000000000E+00  0.00000000000E+00  0.19317629034E+03  0.19317629034E+03  0.00000000000E+00 0. -1.
         -1   -1    0    0    0  501 -0.00000000000E+00 -0.00000000000E+00 -0.16928346315E+03  0.16928346315E+03  0.00000000000E+00 0.  1.
         25    2    1    2    0    0 -0.10359816781E+03  0.94910325695E+02 -0.13365292405E+01  0.18812229889E+03  0.12509061809E+03 0.  0.
         23    2    1    2    0    0  0.10359816781E+03 -0.94910325695E+02  0.25229356432E+02  0.17433745460E+03  0.10008235286E+03 0.  0.
          5    1    3    3  502    0 -0.12367491998E+03  0.49743839533E+02  0.18603140731E+02  0.13466062768E+03  0.41800000000E+01 0.  1.
         -5    1    3    3    0  502  0.20076752173E+02  0.45166486162E+02 -0.19939669972E+02  0.53461671210E+02  0.41800000000E+01 0.  1.
        -11    1    4    4    0    0  0.72572991368E+02 -0.10877671574E+03 -0.20186460819E+01  0.13077953928E+03  0.00000000000E+00 0.  1.
         11    1    4    4    0    0  0.31025176438E+02  0.13866390042E+02  0.27248002514E+02  0.43557915317E+02  0.00000000000E+00 0. -1.
</event>
<event>
 8    1  0.6635152E-009  0.1067740E+03  0.7561462E-02  0.1266663E+00
          1   -1    0    0  501    0  0.00000000000E+00  0.00000000000E+00  0.48779108587E+02  0.48779108587E+02  0.00000000000E+00 0. -1.
         -1   -1    0    0    0  501 -0.00000000000E+00 -0.00000000000E+00 -0.25297256956E+03  0.25297256956E+03  0.00000000000E+00 0.  1.
         25    2    1    2    0    0 -0.13093330648E+02 -0.22395312746E+02 -0.10780638366E+03  0.16716082458E+03  0.12509012581E+03 0.  0.
         23    2    1    2    0    0  0.13093330648E+02  0.22395312746E+02 -0.96387077309E+02  0.13459085357E+03  0.90284239218E+02 0.  0.
          5    1    3    3  502    0  0.32371810752E+02 -0.58439613247E+02 -0.40647404478E+02  0.78312236711E+02  0.41800000000E+01 0. -1.
         -5    1    3    3    0  502 -0.45465141400E+02  0.36044300500E+02 -0.67158979184E+02  0.88848587868E+02  0.41800000000E+01 0. -1.
        -11    1    4    4    0    0  0.47425293107E+02 -0.45508551479E-01 -0.73918523889E+02  0.87824305697E+02  0.00000000000E+00 0.  1.
         11    1    4    4    0    0 -0.34331962459E+02  0.22440821298E+02 -0.22468553421E+02  0.46766547870E+02  0.00000000000E+00 0. -1.
</event>
<event>
 8    1  0.6635152E-009  0.1273858E+03  0.7561462E-02  0.1231387E+00
          1   -1    0    0  501    0  0.00000000000E+00  0.00000000000E+00  0.28534077615E+03  0.28534077615E+03  0.00000000000E+00 0. -1.
         -1   -1    0    0    0  501 -0.00000000000E+00 -0.00000000000E+00 -0.73250376756E+02  0.73250376756E+02  0.00000000000E+00 0.  1.
         25    2    1    2    0    0  0.86702030956E+01 -0.87556557977E+02  0.14580886852E+03  0.21130522024E+03  0.12509335192E+03 0.  0.
         23    2    1    2    0    0 -0.86702030956E+01  0.87556557977E+02  0.66281530870E+02  0.14728593266E+03  0.97767997625E+02 0.  0.
          5    1    3    3  502    0 -0.20768045929E+01  0.32026150286E+02  0.24661902056E+02  0.40689915611E+02  0.41800000000E+01 0.  1.
         -5    1    3    3    0  502  0.10747007689E+02 -0.11958270826E+03  0.12114696647E+03  0.17061530463E+03  0.41800000000E+01 0.  1.
        -11    1    4    4    0    0 -0.30044218901E+02  0.39110564795E+02  0.78720007729E+02  0.92893115917E+02  0.00000000000E+00 0. -1.
         11    1    4    4    0    0  0.21374015805E+02  0.48445993182E+02 -0.12438476859E+02  0.54392816746E+02  0.00000000000E+00 0.  1.
</event>
<event>
 8    1  0.6635152E-009  0.1919586E+03  0.7561462E-02  0.1156707E+00
          2   -1    0    0  501    0  0.00000000000E+00  0.00000000000E+00  0.11159814821E+04  0.11159814821E+04  0.00000000000E+00 0. -1.
         -2   -1    0    0    0  501 -0.00000000000E+00 -0.00000000000E+00 -0.61521764028E+02  0.61521764028E+02  0.00000000000E+00 0.  1.
         25    2    1    2    0    0  0.18505846601E+03 -0.22312407576E+02  0.87489633072E+03  0.90323564990E+03  0.12508625175E+03 0.  0.
         23    2    1    2    0    0 -0.18505846601E+03  0.22312407576E+02  0.17956338739E+03  0.27426759627E+03  0.90748139906E+02 0.  0.
          5    1    3    3  502    0  0.18735608678E+02 -0.24421733406E+02  0.34073313856E+02  0.46107561334E+02  0.41800000000E+01 0. -1.
         -5    1    3    3    0  502  0.16632285733E+03  0.21093258304E+01  0.84082301686E+03  0.85712808856E+03  0.41800000000E+01 0. -1.
        -11    1    4    4    0    0 -0.31604486575E+02  0.57054814544E+01 -0.62408258406E+01  0.32716112200E+02  0.00000000000E+00 0.  1.
         11    1    4    4    0    0 -0.15345397943E+03  0.16606926121E+02  0.18580421323E+03  0.24155148407E+03  0.00000000000E+00 0. -1.
</event>
<event>
 8    1  0.6635152E-009  0.1125834E+03  0.7561462E-02  0.1255859E+00
         -2   -1    0    0    0  501 -0.00000000000E+00  0.00000000000E+00  0.17384647377E+03  0.17384647377E+03  0.00000000000E+00 0.  1.
          2   -1    0    0  501    0  0.00000000000E+00 -0.00000000000E+00 -0.11582626993E+03  0.11582626993E+03  0.00000000000E+00 0. -1.
         25    2    1    2    0    0 -0.74497253653E+02 -0.44402865265E+02  0.55822627615E+02  0.16212947911E+03  0.12509335312E+03 0.  0.
         23    2    1    2    0    0  0.74497253653E+02  0.44402865265E+02  0.21975762269E+01  0.12754326460E+03  0.93493313972E+02 0.  0.
          5    1    3    3  502    0 -0.83068524237E+02 -0.69444182670E+02  0.72681017438E+02  0.13047174760E+03  0.41800000000E+01 0. -1.
         -5    1    3    3    0  502  0.85712705839E+01  0.25041317405E+02 -0.16858389823E+02  0.31657731508E+02  0.41800000000E+01 0. -1.
        -11    1    4    4    0    0  0.21853759445E+02  0.26644215764E+02  0.45518736855E+02  0.57091649480E+02  0.00000000000E+00 0.  1.
         11    1    4    4    0    0  0.52643494209E+02  0.17758649501E+02 -0.43321160628E+02  0.70451615118E+02  0.00000000000E+00 0. -1.
</event>
<event>
 8    1  0.6635152E-009  0.2229537E+03  0.7561462E-02  0.1131700E+00
         -1   -1    0    0    0  501 -0.00000000000E+00  0.00000000000E+00  0.75882403566E+02  0.75882403566E+02  0.00000000000E+00 0.  1.
          1   -1    0    0  501    0  0.00000000000E+00 -0.00000000000E+00 -0.76709384028E+03  0.76709384028E+03  0.00000000000E+00 0. -1.
         25    2    1    2    0    0 -0.44093044999E+02  0.20866737568E+03 -0.30735972855E+03  0.39446858836E+03  0.12509673930E+03 0.  0.
         23    2    1    2    0    0  0.44093044999E+02 -0.20866737568E+03 -0.38385170817E+03  0.44850765549E+03  0.91272738954E+02 0.  0.
          5    1    3    3  502    0 -0.57381646995E+02  0.20389736411E+03 -0.31361634775E+03  0.37846991226E+03  0.41800000000E+01 0. -1.
         -5    1    3    3    0  502  0.13288601997E+02  0.47700115620E+01  0.62566192060E+01  0.15998676108E+02  0.41800000000E+01 0. -1.
        -11    1    4    4    0    0  0.21981802810E+02 -0.21140879081E+02 -0.14679003618E+02  0.33846854659E+02  0.00000000000E+00 0.  1.
         11    1    4    4    0    0  0.22111242188E+02 -0.18752649660E+03 -0.36917270455E+03  0.41466080083E+03  0.00000000000E+00 0. -1.
</event>
<event>
 8    1  0.6635152E-009  0.8202050E+02  0.7561462E-02  0.1323413E+00
         -2   -1    0    0    0  501 -0.00000000000E+00  0.00000000000E+00  0.41111358100E+02  0.41111358100E+02  0.00000000000E+00 0.  1.
          2   -1    0    0  501    0  0.00000000000E+00 -0.00000000000E+00 -0.33690507907E+03  0.33690507907E+03  0.00000000000E+00 0. -1.
         25    2    1    2    0    0 -0.44611040632E+02  0.18820021250E+02 -0.18224108206E+03  0.22628066776E+03  0.12508713151E+03 0.  0.
         23    2    1    2    0    0  0.44611040632E+02 -0.18820021250E+02 -0.11355263892E+03  0.15173576941E+03  0.88233801725E+02 0.  0.
          5    1    3    3  502    0  0.24798228801E+02  0.24871629991E+01  0.51040988352E+01  0.25781046456E+02  0.41800000000E+01 0.  1.
         -5    1    3    3    0  502 -0.69409269433E+02  0.16332858251E+02 -0.18734518089E+03  0.20049962131E+03  0.41800000000E+01 0.  1.
        -11    1    4    4    0    0  0.46551935711E+02  0.18434011348E+01 -0.12102089531E+03  0.12967859479E+03  0.00000000000E+00 0. -1.
         11    1    4    4    0    0 -0.19408950795E+01 -0.20663422385E+02  0.74682563941E+01  0.22057174613E+02  0.00000000000E+00 0.  1.
</event>
<event>
 8    1  0.6635152E-009  0.1369811E+03  0.7561462E-02  0.1217450E+00
          2   -1    0    0  501    0  0.00000000000E+00  0.00000000000E+00  0.10663550342E+03  0.10663550342E+03  0.00000000000E+00 0. -1.
         -2   -1    0    0    0  501 -0.00000000000E+00 -0.00000000000E+00 -0.19870533281E+03  0.19870533281E+03  0.00000000000E+00 0.  1.
         25    2    1    2    0    0 -0.91952635086E+02 -0.28597406454E+02 -0.70325182505E+02  0.17282286389E+03  0.12509601206E+03 0.  0.
         23    2    1    2    0    0  0.91952635086E+02  0.28597406454E+02 -0.21744646884E+02  0.13251797234E+03  0.88402966972E+02 0.  0.
          5    1    3    3  502    0 -0.10611962385E+03 -0.58379021813E+02 -0.69211847723E+02  0.13956087209E+03  0.41800000000E+01 0. -1.
         -5    1    3    3    0  502  0.14166988762E+02  0.29781615359E+02 -0.11133347823E+01  0.33261991797E+02  0.41800000000E+01 0. -1.
        -11    1    4    4    0    0  0.84305253172E+02  0.49159309682E+02  0.52511634765E+01  0.97732226817E+02  0.00000000000E+00 0. -1.
         11    1    4    4    0    0  0.76473819147E+01 -0.20561903228E+02 -0.26995810360E+02  0.34785745522E+02  0.00000000000E+00 0.  1.
</event>
<event>
 8    1  0.6635152E-009  0.1249891E+03  0.7561462E-02  0.1235086E+00
          1   -1    0    0  501    0  0.00000000000E+00  0.00000000000E+00  0.20312514668E+03  0.20312514668E+03  0.00000000000E+00 0. -1.
         -1   -1    0    0    0  501 -0.00000000000E+00 -0.00000000000E+00 -0.14942702940E+03  0.14942702940E+03  0.00000000000E+00 0.  1.
         25    2    1    2    0    0  0.46834900996E+02 -0.58840042592E+02 -0.86357730703E+02  0.16958983802E+03  0.12508955570E+03 0.  0.
         23    2    1    2    0    0 -0.46834900996E+02  0.58840042592E+02  0.14005584798E+03  0.18296233807E+03  0.90575482513E+02 0.  0.
          5    1    3    3  502    0 -0.10620136871E+02 -0.77073111289E+02 -0.74925817126E+02  0.10809441365E+03  0.41800000000E+01 0. -1.
         -5    1    3    3    0  502  0.57455037867E+02  0.18233068696E+02 -0.11431913578E+02  0.61495424370E+02  0.41800000000E+01 0. -1.
        -11    1    4    4    0    0  0.10027651924E+02  0.53608549322E+02  0.39556297735E+02  0.67373073657E+02  0.00000000000E+00 0. -1.
         11    1    4    4    0    0 -0.56862552920E+02  0.52314932706E+01  0.10049955025E+03  0.11558926441E+03  0.00000000000E+00 0.  1.
</event>
<event>
 8    1  0.6635152E-009  0.1940483E+03  0.7561462E-02  0.1154860E+00
         -1   -1    0    0    0  501 -0.00000000000E+00  0.00000000000E+00  0.15534635118E+03  0.15534635118E+03  0.00000000000E+00 0.  1.
          1   -1    0    0  501    0  0.00000000000E+00 -0.00000000000E+00 -0.24418840681E+03  0.24418840681E+03  0.00000000000E+00 0. -1.
         25    2    1    2    0    0 -0.18443893712E+02  0.15948522628E+03 -0.32220876274E+02  0.20606232418E+03  0.12509109464E+03 0.  0.
         23    2    1    2    0    0  0.18443893712E+02 -0.15948522628E+03 -0.56621179350E+02  0.19347243382E+03  0.91923392448E+02 0.  0.
          5    1    3    3  502    0  0.26897415070E+02 -0.91888908856E+01 -0.66500710645E+01  0.29489023353E+02  0.41800000000E+01 0. -1.
         -5    1    3    3    0  502 -0.45341308782E+02  0.16867411717E+03 -0.25570805210E+02  0.17657330082E+03  0.41800000000E+01 0. -1.
        -11    1    4    4    0    0 -0.36397103939E+02 -0.82116644643E+02 -0.21629057419E+02  0.92388898832E+02  0.00000000000E+00 0.  1.
         11    1    4    4    0    0  0.54840997650E+02 -0.77368581638E+02 -0.34992121931E+02  0.10108353499E+03  0.00000000000E+00 0. -1.
</event>
<event>
 8    1  0.6635152E-009  0.4395645E+03  0.7561462E-02  0.1030881E+00
          1   -1    0    0  501    0  0.00000000000E+00  0.00000000000E+00  0.24948745712E+04  0.24948745712E+04  0.00000000000E+00 0. -1.
         -1   -1    0    0    0  501 -0.00000000000E+00 -0.00000000000E+00 -0.91233932993E+02  0.91233932993E+02  0.00000000000E+00 0.  1.
         25    2    1    2    0    0 -0.14622126523E+03 -0.40080692633E+03  0.17087112442E+04  0.17656075500E+04  0.12509617797E+03 0.  0.
         23    2    1    2    0    0  0.14622126523E+03  0.40080692633E+03  0.69492939392E+03  0.82050095417E+03  0.90929107863E+02 0.  0.
          5    1    3    3  502    0 -0.93376139636E+02 -0.37207967789E+03  0.15080956446E+04  0.15561273521E+04  0.41800000000E+01 0.  1.
         -5    1    3    3    0  502 -0.52845125597E+02 -0.28727248440E+02  0.20061559961E+03  0.20948019789E+03  0.41800000000E+01 0.  1.
        -11    1    4    4    0    0  0.72312118194E+02  0.30892874994E+03  0.48078694784E+03  0.57604001961E+03  0.00000000000E+00 0. -1.
         11    1    4    4    0    0  0.73909147039E+02  0.91878176391E+02  0.21414244608E+03  0.24446093456E+03  0.00000000000E+00 0.  1.
</event>
<event>
 8    1  0.6635152E-009  0.1454502E+03  0.7561462E-02  0.1206178E+00
          2   -1    0    0  501    0  0.00000000000E+00  0.00000000000E+00  0.20246297901E+03  0.20246297901E+03  0.00000000000E+00 0. -1.
         -2   -1    0    0    0  501 -0.00000000000E+00 -0.00000000000E+00 -0.15421091231E+03  0.15421091231E+03  0.00000000000E+00 0.  1.
         25    2    1    2    0    0 -0.95352740696E+02  0.57859506221E+02  0.10675870399E+03  0.19870851157E+03  0.12509110310E+03 0.  0.
         23    2    1    2    0    0  0.95352740696E+02 -0.57859506221E+02 -0.58506637291E+02  0.15796537974E+03  0.95342367135E+02 0.  0.
          5    1    3    3  502    0 -0.10947620834E+03  0.22971503961E+01  0.62400846289E+02  0.12610176490E+03  0.41800000000E+01 0.  1.
         -5    1    3    3    0  502  0.14123467644E+02  0.55562355825E+02  0.44357857700E+02  0.72606746676E+02  0.41800000000E+01 0.  1.
        -11    1    4    4    0    0  0.91394364211E+02 -0.67367479510E+02 -0.16521662873E+02  0.11473566337E+03  0.00000000000E+00 0. -1.
         11    1    4    4    0    0  0.39583764852E+01  0.95079732889E+01 -0.41984974418E+02  0.43229716369E+02  0.00000000000E+00 0.  1.
</event>
<event>
 8    1  0.6635152E-009  0.8449337E+02  0.7561462E-02  0.1316763E+00
          1   -1    0    0  501    0  0.00000000000E+00  0.00000000000E+00  0.87076571392E+02  0.87076571392E+02  0.00000000000E+00 0. -1.
         -1   -1    0    0    0  501 -0.00000000000E+00 -0.00000000000E+00 -0.14576933028E+03  0.14576933028E+03  0.00000000000E+00 0.  1.
         25    2    1    2    0    0 -0.31050159067E+02  0.64593665003E+00 -0.34672188456E+02  0.13347755013E+03  0.12509822590E+03 0.  0.
         23    2    1    2    0    0  0.31050159067E+02 -0.64593665003E+00 -0.24020570431E+02  0.99368351542E+02  0.91282812578E+02 0.  0.
          5    1    3    3  502    0 -0.62981219793E+02 -0.29630726265E+02  0.10224090023E+02  0.70474239282E+02  0.41800000000E+01 0. -1.
         -5    1    3    3    0  502  0.31931060726E+02  0.30276662915E+02 -0.44896278479E+02  0.63003310846E+02  0.41800000000E+01 0. -1.
        -11    1    4    4    0    0  0.17273984868E+01  0.19438617019E+02  0.29350330497E+02  0.35246072652E+02  0.00000000000E+00 0. -1.
         11    1    4    4    0    0  0.29322760581E+02 -0.20084553669E+02 -0.53370900928E+02  0.64122278890E+02  0.00000000000E+00 0.  1.
</event>
<event>
 8    1  0.6635152E-009  0.1437915E+03  0.7561462E-02  0.1208316E+00
          1   -1    0    0  501    0  0.00000000000E+00  0.00000000000E+00  0.39972899646E+03  0.39972899646E+03  0.00000000000E+00 0. -1.
         -1   -1    0    0    0  501 -0.00000000000E+00 -0.00000000000E+00 -0.62706611641E+02  0.62706611641E+02  0.00000000000E+00 0.  1.
         25    2    1    2    0    0  0.10951383607E+03  0.16472867768E+02  0.22592202408E+03  0.28096459768E+03  0.12504282675E+03 0.  0.
         23    2    1    2    0    0 -0.10951383607E+03 -0.16472867768E+02  0.11110036074E+03  0.18147101042E+03  0.91234871645E+02 0.  0.
          5    1    3    3  502    0 -0.15832209655E+02  0.26249417825E+02  0.12790473998E+02  0.33477745202E+02  0.41800000000E+01 0. -1.
         -5    1    3    3    0  502  0.12534604572E+03 -0.97765500570E+01  0.21313155008E+03  0.24748685248E+03  0.41800000000E+01 0. -1.
        -11    1    4    4    0    0 -0.78093659006E+02  0.22040771847E+02  0.10297951064E+03  0.13110756962E+03  0.00000000000E+00 0.  1.
         11    1    4    4    0    0 -0.31420177063E+02 -0.38513639616E+02  0.81208501036E+01  0.50363440803E+02  0.00000000000E+00 0. -1.
</event>
<event>
 8    1  0.6635152E-009  0.1274677E+03  0.7561462E-02  0.1231262E+00
         -1   -1    0    0    0  501 -0.00000000000E+00  0.00000000000E+00  0.80279273423E+02  0.80279273423E+02  0.00000000000E+00 0.  1.
          1   -1    0    0  501    0  0.00000000000E+00 -0.00000000000E+00 -0.26805320834E+03  0.26805320834E+03  0.00000000000E+00 0. -1.
         25    2    1    2    0    0  0.97068943225E+02  0.21499981905E+02 -0.10153687816E+03  0.18931923727E+03  0.12508959595E+03 0.  0.
         23    2    1    2    0    0 -0.97068943225E+02 -0.21499981905E+02 -0.86237056757E+02  0.15901324449E+03  0.89239862198E+02 0.  0.
          5    1    3    3  502    0 -0.25732975062E+02  0.28374850608E+01  0.36783332316E+01  0.26480933941E+02  0.41800000000E+01 0.  1.
         -5    1    3    3    0  502  0.12280191829E+03  0.18662496844E+02 -0.10521521139E+03  0.16283830333E+03  0.41800000000E+01 0.  1.
        -11    1    4    4    0    0 -0.34160155519E+02  0.77878525026E+01  0.13469121330E+02  0.37536436979E+02  0.00000000000E+00 0.  1.
         11    1    4    4    0    0 -0.62908787706E+02 -0.29287834408E+02 -0.99706178087E+02  0.12147680751E+03  0.00000000000E+00 0. -1.
</event>
<event>
 8    1  0.6635152E-009  0.9105546E+02  0.7561462E-02  0.1300316E+00
         -1   -1    0    0    0  501 -0.00000000000E+00  0.00000000000E+00  0.20657758802E+03  0.20657758802E+03  0.00000000000E+00 0.  1.
          1   -1    0    0  501    0  0.00000000000E+00 -0.00000000000E+00 -0.86767289724E+02  0.86767289724E+02  0.00000000000E+00 0. -1.
         25    2    1    2    0    0  0.77316171926E+02 -0.49905400915E+01  0.79467744439E+02  0.16722732803E+03  0.12508861220E+03 0.  0.
         23    2    1    2    0    0 -0.77316171926E+02  0.49905400915E+01  0.40342553861E+02  0.12611754972E+03  0.90969328699E+02 0.  0.
          5    1    3    3  502    0 -0.20126452967E+01  0.52690055228E+01  0.86533349354E+02  0.86817660132E+02  0.41800000000E+01 0. -1.
         -5    1    3    3    0  502  0.79328817223E+02 -0.10259545614E+02 -0.70656049150E+01  0.80409667895E+02  0.41800000000E+01 0. -1.
        -11    1    4    4    0    0 -0.84564654675E+02 -0.24556031888E+01  0.60113052901E+02  0.10378241632E+03  0.00000000000E+00 0.  1.
         11    1    4    4    0    0  0.72484827489E+01  0.74461432802E+01 -0.19770499040E+02  0.22335133405E+02  0.00000000000E+00 0. -1.
</event>
<event>
 8    1  0.6635152E-009  0.1862466E+03  0.7561462E-02  0.1161891E+00
         -2   -1    0    0    0  501 -0.00000000000E+00  0.00000000000E+00  0.54722420517E+02  0.54722420517E+02  0.00000000000E+00 0.  1.
          2   -1    0    0  501    0  0.00000000000E+00 -0.00000000000E+00 -0.74577557428E+03  0.74577557428E+03  0.00000000000E+00 0. -1.
         25    2    1    2    0    0 -0.31474371180E+02  0.15640502076E+03 -0.47569519964E+03  0.51709181613E+03  0.12507940196E+03 0.  0.
         23    2    1    2    0    0  0.31474371180E+02 -0.15640502076E+03 -0.21535795412E+03  0.28340617866E+03  0.92124085561E+02 0.  0.
          5    1    3    3  502    0  0.41528347520E+02  0.38946223647E+02 -0.20882313681E+03  0.21648553497E+03  0.41800000000E+01 0.  1.
         -5    1    3    3    0  502 -0.73002718700E+02  0.11745879711E+03 -0.26687206282E+03  0.30060628116E+03  0.41800000000E+01 0.  1.
        -11    1    4    4    0    0 -0.24723655944E+02 -0.67325322285E+02 -0.12732499388E+03  0.14613559543E+03  0.00000000000E+00 0. -1.
         11    1    4    4    0    0  0.56198027124E+02 -0.89079698473E+02 -0.88032960239E+02  0.13727058323E+03  0.00000000000E+00 0.  1.
</event>
<event>
 8    1  0.6635152E-009  0.8814674E+02  0.7561462E-02  0.1307403E+00
          2   -1    0    0  501    0  0.00000000000E+00  0.00000000000E+00  0.78455130843E+02  0.78455130843E+02  0.00000000000E+00 0. -1.
         -2   -1    0    0    0  501 -0.00000000000E+00 -0.00000000000E+00 -0.23289018079E+03  0.23289018079E+03  0.00000000000E+00 0.  1.
         25    2    1    2    0    0  0.31294339866E+02 -0.53336139549E+02 -0.25523987879E+02  0.14185309335E+03  0.12508695634E+03 0.  0.
         23    2    1    2    0    0 -0.31294339866E+02  0.53336139549E+02 -0.12891106207E+03  0.16949221829E+03  0.91024560676E+02 0.  0.
          5    1    3    3  502    0 -0.10411056494E+02 -0.56654236434E+02 -0.63045196502E+02  0.85500069036E+02  0.41800000000E+01 0. -1.
         -5    1    3    3    0  502  0.41705396360E+02  0.33180968845E+01  0.37521208623E+02  0.56353024311E+02  0.41800000000E+01 0. -1.
        -11    1    4    4    0    0  0.10786481322E+02  0.20324469066E+02  0.64928455287E+01  0.23907933101E+02  0.00000000000E+00 0. -1.
         11    1    4    4    0    0 -0.42080821189E+02  0.33011670484E+02 -0.13540390760E+03  0.14558428519E+03  0.00000000000E+00 0.  1.
</event>
<event>
 8    1  0.6635152E-009  0.1960200E+03  0.7561462E-02  0.1153141E+00
          3   -1    0    0  501    0  0.00000000000E+00  0.00000000000E+00  0.40230833382E+03  0.40230833382E+03  0.00000000000E+00 0. -1.
         -3   -1    0    0    0  501 -0.00000000000E+00 -0.00000000000E+00 -0.12929886311E+03  0.12929886311E+03  0.00000000000E+00 0.  1.
         25    2    1    2    0    0  0.17884424446E+03  0.65567527426E+02  0.21156564394E+03  0.31095452967E+03  0.12509329877E+03 0.  0.
         23    2    1    2    0    0 -0.17884424446E+03 -0.65567527426E+02  0.61443826772E+02  0.22065266726E+03  0.92886442985E+02 0.  0.
          5    1    3    3  502    0  0.10234233831E+03  0.53742422651E+02  0.39495955636E+02  0.12222767737E+03  0.41800000000E+01 0.  1.
         -5    1    3    3    0  502  0.76501906154E+02  0.11825104775E+02  0.17206968830E+03  0.18872685230E+03  0.41800000000E+01 0. -1.
        -11    1    4    4    0    0 -0.13139346285E+03 -0.73778695496E+02  0.78062909302E+02  0.16970962199E+03  0.00000000000E+00 0.  1.
         11    1    4    4    0    0 -0.47450781617E+02  0.82111680695E+01 -0.16619082530E+02  0.50943045269E+02  0.00000000000E+00 0. -1.
</event>
<event>
 8    1  0.6635152E-009  0.9649668E+02  0.7561462E-02  0.1287840E+00
          1   -1    0    0  501    0  0.00000000000E+00  0.00000000000E+00  0.60100485863E+02  0.60100485863E+02  0.00000000000E+00 0. -1.
         -1   -1    0    0    0  501 -0.00000000000E+00 -0.00000000000E+00 -0.26113865889E+03  0.26113865889E+03  0.00000000000E+00 0.  1.
         25    2    1    2    0    0  0.39549146193E+02 -0.11827149745E+02 -0.18071246777E+03  0.22362804195E+03  0.12509391954E+03 0.  0.
         23    2    1    2    0    0 -0.39549146193E+02  0.11827149745E+02 -0.20325705254E+02  0.97611102796E+02  0.86085867942E+02 0.  0.
          5    1    3    3  502    0  0.66822878670E+02 -0.29121942278E+02 -0.17623070930E+03  0.19075670351E+03  0.41800000000E+01 0.  1.
         -5    1    3    3    0  502 -0.27273732477E+02  0.17294792533E+02 -0.44817584743E+01  0.32871338442E+02  0.41800000000E+01 0.  1.
        -11    1    4    4    0    0 -0.22070143244E+02 -0.32774035635E+02 -0.28890199134E+02  0.48947647958E+02  0.00000000000E+00 0.  1.
         11    1    4    4    0    0 -0.17479002949E+02  0.44601185380E+02  0.85644938795E+01  0.48663454838E+02  0.00000000000E+00 0. -1.
</event>
<event>
 8    1  0.6635152E-009  0.9763267E+02  0.7561462E-02  0.1285354E+00
          1   -1    0    0  501    0  0.00000000000E+00  0.00000000000E+00  0.14602755921E+03  0.14602755921E+03  0.00000000000E+00 0. -1.
         -1   -1    0    0    0  501 -0.00000000000E+00 -0.00000000000E+00 -0.10875822091E+03  0.10875822091E+03  0.00000000000E+00 0.  1.
         25    2    1    2    0    0  0.35906407930E+02 -0.38863043442E+02 -0.16378376313E+02  0.13680458969E+03  0.12509052032E+03 0.  0.
         23    2    1    2    0    0 -0.35906407930E+02  0.38863043442E+02  0.53647714619E+02  0.11798119043E+03  0.90784788018E+02 0.  0.
          5    1    3    3  502    0  0.75593461073E+02  0.47169546103E+01 -0.16881063879E+02  0.77711413161E+02  0.41800000000E+01 0.  1.
         -5    1    3    3    0  502 -0.39687053143E+02 -0.43579998052E+02  0.50268756655E+00  0.59093176529E+02  0.41800000000E+01 0.  1.
        -11    1    4    4    0    0 -0.38845435775E+02  0.25108895708E+02 -0.14440374348E+02  0.48455638841E+02  0.00000000000E+00 0.  1.
         11    1    4    4    0    0  0.29390278447E+01  0.13754147734E+02  0.68088088967E+02  0.69525551589E+02  0.00000000000E+00 0. -1.
</event>
<event>
 8    1  0.6635152E-009  0.1086184E+03  0.7561462E-02  0.1263150E+00
          3   -1    0    0  501    0  0.00000000000E+00  0.00000000000E+00  0.18086336455E+02  0.18086336455E+02  0.00000000000E+00 0. -1.
         -3   -1    0    0    0  501 -0.00000000000E+00 -0.00000000000E+00 -0.66593289313E+03  0.66593289313E+03  0.00000000000E+00 0.  1.
         25    2    1    2    0    0  0.94368993121E+00  0.18884877942E+02 -0.40059388518E+03  0.42009738107E+03  0.12509524199E+03 0.  0.
         23    2    1    2    0    0 -0.94368993121E+00 -0.18884877942E+02 -0.24725267149E+03  0.26392184852E+03  0.90351144982E+02 0.  0.
          5    1    3    3  502    0  0.60432849564E+02 -0.48776989886E+01 -0.22768194341E+03  0.23565326437E+03  0.41800000000E+01 0. -1.
         -5    1    3    3    0  502 -0.59489159632E+02  0.23762576930E+02 -0.17291194177E+03  0.18444411670E+03  0.41800000000E+01 0. -1.
        -11    1    4    4    0    0 -0.44708112646E+02 -0.18808374029E+02 -0.13388342051E+03  0.14239852723E+03  0.00000000000E+00 0.  1.
         11    1    4    4    0    0  0.43764422715E+02 -0.76503913281E-01 -0.11336925099E+03  0.12152332129E+03  0.00000000000E+00 0. -1.
</event>
<event>
 8    1  0.6635152E-009  0.6628457E+02  0.7561462E-02  0.1373204E+00
          2   -1    0    0  501    0  0.00000000000E+00  0.00000000000E+00  0.17206689599E+04  0.17206689599E+04  0.00000000000E+00 0. -1.
         -2   -1    0    0    0  501 -0.00000000000E+00 -0.00000000000E+00 -0.15639177743E+02  0.15639177743E+02  0.00000000000E+00 0.  1.
         25    2    1    2    0    0 -0.50993512596E+02 -0.66600754237E+01  0.14958566049E+04  0.15019586517E+04  0.12509242252E+03 0.  0.
         23    2    1    2    0    0  0.50993512596E+02  0.66600754237E+01  0.20917317732E+03  0.23434948597E+03  0.92312342255E+02 0.  0.
          5    1    3    3  502    0 -0.24533867703E+02 -0.29302444597E+02  0.12791512159E+03  0.13356756588E+03  0.41800000000E+01 0. -1.
         -5    1    3    3    0  502 -0.26459644894E+02  0.22642369173E+02  0.13679414833E+04  0.13683910858E+04  0.41800000000E+01 0. -1.
        -11    1    4    4    0    0  0.56866359299E+01  0.12145972948E+02 -0.57808134838E+01  0.14604118994E+02  0.00000000000E+00 0.  1.
         11    1    4    4    0    0  0.45306876666E+02 -0.54858975242E+01  0.21495399080E+03  0.21974536698E+03  0.00000000000E+00 0. -1.
</event>
<event>
 8    1  0.6635152E-009  0.9418694E+02  0.7561462E-02  0.1293018E+00
          2   -1    0    0  501    0  0.00000000000E+00  0.00000000000E+00  0.82848797247E+03  0.82848797247E+03  0.00000000000E+00 0. -1.
         -2   -1    0    0    0  501 -0.00000000000E+00 -0.00000000000E+00 -0.25240667318E+02  0.25240667318E+02  0.00000000000E+00 0.  1.
         25    2    1    2    0    0 -0.88315702347E+02 -0.13203870716E+01  0.53835477546E+03  0.55971236850E+03  0.12510261580E+03 0.  0.
         23    2    1    2    0    0  0.88315702347E+02  0.13203870716E+01  0.26489252968E+03  0.29401627129E+03  0.92065785153E+02 0.  0.
          5    1    3    3  502    0 -0.68323589709E+02  0.16950628258E+02  0.52409908897E+03  0.52882205341E+03  0.41800000000E+01 0. -1.
         -5    1    3    3    0  502 -0.19992112638E+02 -0.18271015330E+02  0.14255686489E+02  0.30890315087E+02  0.41800000000E+01 0. -1.
        -11    1    4    4    0    0  0.18218370805E+02 -0.76937793189E+01 -0.83989732234E-01  0.19776509532E+02  0.00000000000E+00 0.  1.
         11    1    4    4    0    0  0.70097331541E+02  0.90141663905E+01  0.26497651942E+03  0.27423976175E+03  0.00000000000E+00 0. -1.
</event>
<event>
 8    1  0.6635152E-009  0.1247739E+03  0.7561462E-02  0.1235423E+00
         -2   -1    0    0    0  501 -0.00000000000E+00  0.00000000000E+00  0.77660416085E+02  0.77660416085E+02  0.00000000000E+00 0.  1.
          2   -1    0    0  501    0  0.00000000000E+00 -0.00000000000E+00 -0.42874156286E+03  0.42874156286E+03  0.00000000000E+00 0. -1.
         25    2    1    2    0    0 -0.73586251937E+02 -0.30048255869E+02 -0.17008069247E+02  0.14918073893E+03  0.12509110398E+03 0.  0.
         23    2    1    2    0    0  0.73586251937E+02  0.30048255869E+02 -0.33407307753E+03  0.35722124002E+03  0.98409141007E+02 0.  0.
          5    1    3    3  502    0 -0.41333004912E-01 -0.59151389262E+02 -0.33743858333E+02  0.68227625895E+02  0.41800000000E+01 0. -1.
         -5    1    3    3    0  502 -0.73544918932E+02  0.29103133393E+02  0.16735789086E+02  0.80953113037E+02  0.41800000000E+01 0. -1.
        -11    1    4    4    0    0  0.44615643606E+02  0.56378499138E+02 -0.12236073369E+03  0.14191983641E+03  0.00000000000E+00 0. -1.
         11    1    4    4    0    0  0.28970608330E+02 -0.26330243269E+02 -0.21171234384E+03  0.21530140360E+03  0.00000000000E+00 0.  1.
</event>
<event>
 8    1  0.6635152E-009  0.1225006E+03  0.7561462E-02  0.1239028E+00
         -3   -1    0    0    0  501 -0.00000000000E+00  0.00000000000E+00  0.89911454879E+02  0.89911454879E+02  0.00000000000E+00 0.  1.
          3   -1    0    0  501    0  0.00000000000E+00 -0.00000000000E+00 -0.26590169015E+03  0.26590169015E+03  0.00000000000E+00 0. -1.
         25    2    1    2    0    0 -0.55228830774E+02  0.16981109957E+02 -0.20262785194E+03  0.24503479806E+03  0.12508166946E+03 0.  0.
         23    2    1    2    0    0  0.55228830774E+02 -0.16981109957E+02  0.26637616667E+02  0.11077834697E+03  0.90684605596E+02 0.  0.
          5    1    3    3  502    0 -0.43727488085E+02 -0.51787903098E+02 -0.10220674547E+03  0.12271011100E+03  0.41800000000E+01 0. -1.
         -5    1    3    3    0  502 -0.11501342689E+02  0.68769013055E+02 -0.10042110647E+03  0.12232468707E+03  0.41800000000E+01 0. -1.
        -11    1    4    4    0    0 -0.25287522527E+02 -0.22163981889E+01  0.97697161999E+01  0.27199606083E+02  0.00000000000E+00 0. -1.
         11    1    4    4    0    0  0.80516353300E+02 -0.14764711768E+02  0.16867900467E+02  0.83578740889E+02  0.00000000000E+00 0.  1.
</event>
<event>
 8    1  0.6635152E-009  0.1053620E+03  0.7561462E-02  0.1269408E+00
         -3   -1    0    0    0  501 -0.00000000000E+00  0.00000000000E+00  0.13484459937E+02  0.13484459937E+02  0.00000000000E+00 0.  1.
          3   -1    0    0  501    0  0.00000000000E+00 -0.00000000000E+00 -0.12207756671E+04  0.12207756671E+04  0.00000000000E+00 0. -1.
         25    2    1    2    0    0  0.55898173313E+02  0.28921091728E+02 -0.84615476328E+03  0.85766288638E+03  0.12508680155E+03 0.  0.
         23    2    1    2    0    0 -0.55898173313E+02 -0.28921091728E+02 -0.36113644386E+03  0.37659724064E+03  0.86283922280E+02 0.  0.
          5    1    3    3  502    0 -0.48112142099E+01 -0.26528942996E+02 -0.53827162096E+03  0.53896265448E+03  0.41800000000E+01 0. -1.
         -5    1    3    3    0  502  0.60709387523E+02  0.55450034723E+02 -0.30788314233E+03  0.31870023190E+03  0.41800000000E+01 0. -1.
        -11    1    4    4    0    0 -0.20097598827E+02  0.27639582238E+02 -0.70423398958E+02  0.78277168483E+02  0.00000000000E+00 0.  1.
         11    1    4    4    0    0 -0.35800574485E+02 -0.56560673966E+02 -0.29071304490E+03  0.29832007215E+03  0.00000000000E+00 0. -1.
</event>
<event>
 8    1  0.6635152E-009  0.1017923E+03  0.7561462E-02  0.1276572E+00
          1   -1    0    0  501    0  0.00000000000E+00  0.00000000000E+00  0.10533742353E+03  0.10533742353E+03  0.00000000000E+00 0. -1.
         -1   -1    0    0    0  501 -0.00000000000E+00 -0.00000000000E+00 -0.17546614432E+03  0.17546614432E+03  0.00000000000E+00 0.  1.
         25    2    1    2    0    0  0.58688554149E+02  0.43304028824E+02 -0.65506114366E+01  0.14494793995E+03  0.12508960583E+03 0.  0.
         23    2    1    2    0    0 -0.58688554149E+02 -0.43304028824E+02 -0.63578109348E+02  0.13585562790E+03  0.95367658787E+02 0.  0.
          5    1    3    3  502    0 -0.13122082836E+02  0.45164015193E+02 -0.43375513599E+02  0.64116182874E+02  0.41800000000E+01 0.  1.
         -5    1    3    3    0  502  0.71810636985E+02 -0.18599863689E+01  0.36824902162E+02  0.80831757081E+02  0.41800000000E+01 0.  1.
        -11    1    4    4    0    0 -0.63943823028E+02 -0.31062477000E+02 -0.19698317420E+00  0.71089582803E+02  0.00000000000E+00 0. -1.
         11    1    4    4    0    0  0.52552688780E+01 -0.12241551824E+02 -0.63381126174E+02  0.64766045094E+02  0.00000000000E+00 0.  1.
</event>
<event>
 8    1  0.6635152E-009  0.1282556E+03  0.7561462E-02  0.1230067E+00
          1   -1    0    0  501    0  0.00000000000E+00  0.00000000000E+00  0.31862071886E+03  0.31862071886E+03  0.00000000000E+00 0. -1.
         -1   -1    0    0    0  501 -0.00000000000E+00 -0.00000000000E+00 -0.52474505906E+02  0.52474505906E+02  0.00000000000E+00 0.  1.
         25    2    1    2    0    0 -0.70375446396E+02 -0.81342786291E+01  0.15809366022E+03  0.21368135690E+03  0.12508895611E+03 0.  0.
         23    2    1    2    0    0  0.70375446396E+02  0.81342786291E+01  0.10805255273E+03  0.15741386787E+03  0.89916081435E+02 0.  0.
          5    1    3    3  502    0  0.35677687771E+02 -0.55439675665E+01  0.53242451754E+02  0.64465991421E+02  0.41800000000E+01 0. -1.
         -5    1    3    3    0  502 -0.10605313417E+03 -0.25903110627E+01  0.10485120847E+03  0.14921536548E+03  0.41800000000E+01 0. -1.
        -11    1    4    4    0    0  0.90117046715E+02  0.18047202337E+02  0.92514329643E+02  0.13040584653E+03  0.00000000000E+00 0. -1.
         11    1    4    4    0    0 -0.19741600319E+02 -0.99129237076E+01  0.15538223091E+02  0.27008021335E+02  0.00000000000E+00 0.  1.
</event>
<event>
 8    1  0.6635152E-009  0.9921867E+02  0.7561462E-02  0.1281948E+00
          2   -1    0    0  501    0  0.00000000000E+00  0.00000000000E+00  0.16671833887E+03  0.16671833887E+03  0.00000000000E+00 0. -1.
         -2   -1    0    0    0  501 -0.00000000000E+00 -0.00000000000E+00 -0.73697020755E+02  0.73697020755E+02  0.00000000000E+00 0.  1.
         25    2    1    2    0    0 -0.67707185742E+01 -0.33869291545E+01  0.31692588323E+02  0.12926473093E+03  0.12509051359E+03 0.  0.
         23    2    1    2    0    0  0.67707185742E+01  0.33869291545E+01  0.61328729796E+02  0.11115062869E+03  0.92390125238E+02 0.  0.
          5    1    3    3  502    0  0.45988762016E+02  0.23893289302E+02  0.44411851832E+02  0.68379386430E+02  0.41800000000E+01 0. -1.
         -5    1    3    3    0  502 -0.52759480590E+02 -0.27280218457E+02 -0.12719263509E+02  0.60885344504E+02  0.41800000000E+01 0. -1.
        -11    1    4    4    0    0 -0.25998107049E+02  0.33495478955E+02  0.10672012214E+02  0.43723455092E+02  0.00000000000E+00 0.  1.
         11    1    4    4    0    0  0.32768825623E+02 -0.30108549800E+02  0.50656717582E+02  0.67427173602E+02  0.00000000000E+00 0. -1.
</event>
<event>
 8    1  0.6635152E-009  0.1100671E+03  0.7561462E-02  0.1260446E+00
         -2   -1    0    0    0  501 -0.00000000000E+00  0.00000000000E+00  0.55756788190E+02  0.55756788190E+02  0.00000000000E+00 0.  1.
          2   -1    0    0  501    0  0.00000000000E+00 -0.00000000000E+00 -0.25287740394E+03  0.25287740394E+03  0.00000000000E+00 0. -1.
         25    2    1    2    0    0  0.40107786791E+02 -0.61357531346E+01 -0.14046850675E+03  0.19241899220E+03  0.12508950852E+03 0.  0.
         23    2    1    2    0    0 -0.40107786791E+02  0.61357531346E+01 -0.56652109000E+02  0.11621519994E+03  0.93006608444E+02 0.  0.
          5    1    3    3  502    0 -0.18430001689E+02  0.47851558622E+02 -0.61662147226E+02  0.80306471877E+02  0.41800000000E+01 0. -1.
         -5    1    3    3    0  502  0.58537788480E+02 -0.53987311757E+02 -0.78806359528E+02  0.11211252032E+03  0.41800000000E+01 0. -1.
        -11    1    4    4    0    0 -0.16920110322E+02 -0.36600633933E+02  0.15797915481E+01  0.40353342847E+02  0.00000000000E+00 0.  1.
         11    1    4    4    0    0 -0.23187676469E+02  0.42736387067E+02 -0.58231900548E+02  0.75861857090E+02  0.00000000000E+00 0. -1.
</event>
<event>
 8    1  0.6635152E-009  0.1108062E+03  0.7561462E-02  0.1259084E+00
          2   -1    0    0  501    0  0.00000000000E+00  0.00000000000E+00  0.11307036156E+04  0.11307036156E+04  0.00000000000E+00 0. -1.
         -2   -1    0    0    0  501 -0.00000000000E+00 -0.00000000000E+00 -0.19723470165E+02  0.19723470165E+02  0.00000000000E+00 0.  1.
         25    2    1    2    0    0 -0.42131603974E+02 -0.54608443710E+02  0.88891511903E+03  0.90031920876E+03  0.12508970642E+03 0.  0.
         23    2    1    2    0    0  0.42131603974E+02  0.54608443710E+02  0.22206502643E+03  0.25010787702E+03  0.92108197294E+02 0.  0.
          5    1    3    3  502    0  0.23623016288E+02  0.11471913043E+02  0.53864548662E+02  0.60070905520E+02  0.41800000000E+01 0.  1.
         -5    1    3    3    0  502 -0.65754620262E+02 -0.66080356752E+02  0.83505057037E+03  0.84024830324E+03  0.41800000000E+01 0.  1.
        -11    1    4    4    0    0  0.18961905639E+01  0.60944546749E+02  0.70713800471E+02  0.93371702856E+02  0.00000000000E+00 0.  1.
         11    1    4    4    0    0  0.40235413410E+02 -0.63361030395E+01  0.15135122596E+03  0.15673617417E+03  0.00000000000E+00 0. -1.
</event>
<event>
 7    1  0.6635152E-009  0.1608786E+03  0.7561462E-02  0.1187708E+00
          2   -1    0    0  501    0  0.00000000000E+00  0.00000000000E+00  0.17204775448E+03  0.17204775448E+03  0.00000000000E+00 0. -1.
         -2   -1    0    0    0  501 -0.00000000000E+00 -0.00000000000E+00 -0.18126538480E+03  0.18126538480E+03  0.00000000000E+00 0.  1.
         25    2    1    2    0    0  0.62251873050E+02 -0.98091877865E+02 -0.37594835595E+02  0.17480532915E+03  0.12508484814E+03 0.  0.
          5    1    3    3  502    0 -0.22563327417E+02  0.57533786125E+01 -0.32971185558E+02  0.40580495150E+02  0.41800000000E+01 0.  1.
         -5    1    3    3    0  502  0.84815200467E+02 -0.10384525648E+03 -0.46236500371E+01  0.13422483400E+03  0.41800000000E+01 0.  1.
        -11    1    1    2    0    0 -0.53503597041E+02  0.12483459300E+03 -0.36629163296E+01  0.13586657963E+03  0.00000000000E+00 0.  1.
         11    1    1    2    0    0 -0.87482760091E+01 -0.26742715133E+02  0.32040121605E+02  0.42641230496E+02  0.00000000000E+00 0. -1.
</event>
<event>
 8    1  0.6635152E-009  0.2178875E+03  0.7561462E-02  0.1135468E+00
         -1   -1    0    0    0  501 -0.00000000000E+00  0.00000000000E+00  0.57408100009E+03  0.57408100009E+03  0.00000000000E+00 0.  1.
          1   -1    0    0  501    0  0.00000000000E+00 -0.00000000000E+00 -0.91560288016E+02  0.91560288016E+02  0.00000000000E+00 0. -1.
         25    2    1    2    0    0  0.50634950465E+02  0.19370859227E+03  0.28591637222E+03  0.37078731300E+03  0.12509253632E+03 0.  0.
         23    2    1    2    0    0 -0.50634950465E+02 -0.19370859227E+03  0.19660433985E+03  0.29485397511E+03  0.90546580623E+02 0.  0.
          5    1    3    3  502    0  0.25839238981E+02  0.42798592540E+01  0.10264334955E+03  0.10601468329E+03  0.41800000000E+01 0. -1.
         -5    1    3    3    0  502  0.24795711484E+02  0.18942873302E+03  0.18327302267E+03  0.26477262971E+03  0.41800000000E+01 0. -1.
        -11    1    4    4    0    0  0.41095164376E+01 -0.14447965308E+03  0.14649162690E+03  0.20579371962E+03  0.00000000000E+00 0. -1.
         11    1    4    4    0    0 -0.54744466902E+02 -0.49228939188E+02  0.50112712944E+02  0.89060255494E+02  0.00000000000E+00 0.  1.
</event>
<event>
 8    1  0.6635152E-009  0.1026730E+03  0.7561462E-02  0.1274773E+00
         -2   -1    0    0    0  501 -0.00000000000E+00  0.00000000000E+00  0.50751853759E+02  0.50751853759E+02  0.00000000000E+00 0.  1.
          2   -1    0    0  501    0  0.00000000000E+00 -0.00000000000E+00 -0.35076628799E+03  0.35076628799E+03  0.00000000000E+00 0. -1.
         25    2    1    2    0    0 -0.70563298612E+02  0.91410816288E+01 -0.11863663164E+03  0.18650916890E+03  0.12509309026E+03 0.  0.
         23    2    1    2    0    0  0.70563298612E+02 -0.91410816288E+01 -0.18137780259E+03  0.21500897285E+03  0.90929712686E+02 0.  0.
          5    1    3    3  502    0  0.22763883913E+02  0.30520003846E+02 -0.68179352346E+02  0.78202055804E+02  0.41800000000E+01 0. -1.
         -5    1    3    3    0  502 -0.93327182525E+02 -0.21378922218E+02 -0.50457279296E+02  0.10830711310E+03  0.41800000000E+01 0. -1.
        -11    1    4    4    0    0  0.11473219241E+02 -0.25237017008E+01  0.94851626068E+01  0.15098746296E+02  0.00000000000E+00 0.  1.
         11    1    4    4    0    0  0.59090079371E+02 -0.66173799280E+01 -0.19086296520E+03  0.19991022655E+03  0.00000000000E+00 0. -1.
</event>
<event>
 8    1  0.6635152E-009  0.1300891E+03  0.7561462E-02  0.1227324E+00
         -1   -1    0    0    0  501 -0.00000000000E+00  0.00000000000E+00  0.28263972867E+02  0.28263972867E+02  0.00000000000E+00 0.  1.
          1   -1    0    0  501    0  0.00000000000E+00 -0.00000000000E+00 -0.68122223332E+03  0.68122223332E+03  0.00000000000E+00 0. -1.
         25    2    1    2    0    0  0.19095988807E+02  0.79764699667E+02 -0.28599973030E+03  0.32275527190E+03  0.12509218885E+03 0.  0.
         23    2    1    2    0    0 -0.19095988807E+02 -0.79764699667E+02 -0.36695853016E+03  0.38673093428E+03  0.90416749417E+02 0.  0.
          5    1    3    3  502    0  0.44006191537E+02 -0.17982643208E+02 -0.75867579615E+02  0.89628580191E+02  0.41800000000E+01 0. -1.
         -5    1    3    3    0  502 -0.24910202730E+02  0.97747342875E+02 -0.21013215068E+03  0.23312669171E+03  0.41800000000E+01 0. -1.
        -11    1    4    4    0    0  0.29398868602E+02 -0.31088469115E+02 -0.70958826589E+02  0.82860976689E+02  0.00000000000E+00 0.  1.
         11    1    4    4    0    0 -0.48494857409E+02 -0.48676230552E+02 -0.29599970357E+03  0.30386995759E+03  0.00000000000E+00 0. -1.
</event>
<event>
 8    1  0.6635152E-009  0.2085073E+03  0.7561462E-02  0.1142754E+00
         -2   -1    0    0    0  501 -0.00000000000E+00  0.00000000000E+00  0.31497924801E+03  0.31497924801E+03  0.00000000000E+00 0.  1.
          2   -1    0    0  501    0  0.00000000000E+00 -0.00000000000E+00 -0.15409748933E+03  0.15409748933E+03  0.00000000000E+00 0. -1.
         25    2    1    2    0    0  0.17049417684E+03 -0.70767862532E+02  0.29326300145E+02  0.22490907303E+03  0.12509078521E+03 0.  0.
         23    2    1    2    0    0 -0.17049417684E+03  0.70767862532E+02  0.13155545853E+03  0.24416766432E+03  0.90744999452E+02 0.  0.
          5    1    3    3  502    0  0.18821173243E+03 -0.70881867553E+02  0.14954029911E+02  0.20171512284E+03  0.41800000000E+01 0. -1.
         -5    1    3    3    0  502 -0.17717555593E+02  0.11400502057E+00  0.14372270234E+02  0.23193950181E+02  0.41800000000E+01 0. -1.
        -11    1    4    4    0    0 -0.46830761495E+02  0.56165285458E+02  0.82724561035E+02  0.11041291823E+03  0.00000000000E+00 0.  1.
         11    1    4    4    0    0 -0.12366341535E+03  0.14602577074E+02  0.48830897499E+02  0.13375474609E+03  0.00000000000E+00 0. -1.
</event>
<event>
 8    1  0.6635152E-009  0.6484745E+02  0.7561462E-02  0.1378546E+00
          2   -1    0    0  501    0  0.00000000000E+00  0.00000000000E+00  0.33662413041E+03  0.33662413041E+03  0.00000000000E+00 0.  1.
         -2   -1    0    0    0  501 -0.00000000000E+00 -0.00000000000E+00 -0.35741799792E+02  0.35741799792E+02  0.00000000000E+00 0. -1.
         25    2    1    2    0    0 -0.28460204368E+01 -0.60304880311E+01  0.20565014312E+03  0.24079654513E+03  0.12508608302E+03 0.  0.
         23    2    1    2    0    0  0.28460204368E+01  0.60304880311E+01  0.95232187500E+02  0.13156938507E+03  0.90536550264E+02 0.  0.
          5    1    3    3  502    0  0.13514058497E+02  0.38215007450E+02  0.18447152879E+03  0.18891859068E+03  0.41800000000E+01 0.  1.
         -5    1    3    3    0  502 -0.16360078933E+02 -0.44245495481E+02  0.21178614331E+02  0.51877954451E+02  0.41800000000E+01 0.  1.
        -11    1    4    4    0    0  0.16963010171E+02 -0.10422003699E+02  0.10565550776E+03  0.10751487430E+03  0.00000000000E+00 0.  1.
         11    1    4    4    0    0 -0.14116989734E+02  0.16452491730E+02 -0.10423320261E+02  0.24054510773E+02  0.00000000000E+00 0. -1.
</event>
<event>
 8    1  0.6635152E-009  0.1022373E+03  0.7561462E-02  0.1275660E+00
          2   -1    0    0  501    0  0.00000000000E+00  0.00000000000E+00  0.12629637400E+04  0.12629637400E+04  0.00000000000E+00 0. -1.
         -2   -1    0    0    0  501 -0.00000000000E+00 -0.00000000000E+00 -0.16535637970E+02  0.16535637970E+02  0.00000000000E+00 0.  1.
         25    2    1    2    0    0  0.46223862663E+02  0.33983327128E+02  0.10211628963E+04  0.10303943770E+04  0.12508956531E+03 0.  0.
         23    2    1    2    0    0 -0.46223862663E+02 -0.33983327128E+02  0.22526520575E+03  0.24910500100E+03  0.89539804553E+02 0.  0.
          5    1    3    3  502    0  0.52775676803E+02 -0.17033111368E+02  0.19932784818E+03  0.20694072196E+03  0.41800000000E+01 0. -1.
         -5    1    3    3    0  502 -0.65518141402E+01  0.51016438495E+02  0.82183504809E+03  0.82345365500E+03  0.41800000000E+01 0. -1.
        -11    1    4    4    0    0 -0.25745042848E+02 -0.59327201607E+02  0.19174522782E+03  0.20235799088E+03  0.00000000000E+00 0. -1.
         11    1    4    4    0    0 -0.20478819815E+02  0.25343874479E+02  0.33519977932E+02  0.46747010120E+02  0.00000000000E+00 0.  1.
</event>
<event>
 8    1  0.6635152E-009  0.1375618E+03  0.7561462E-02  0.1216648E+00
          2   -1    0    0  501    0  0.00000000000E+00  0.00000000000E+00  0.17588685675E+04  0.17588685675E+04  0.00000000000E+00 0. -1.
         -2   -1    0    0    0  501 -0.00000000000E+00 -0.00000000000E+00 -0.18304380826E+02  0.18304380826E+02  0.00000000000E+00 0.  1.
         25    2    1    2    0    0 -0.10567314134E+01 -0.12070309254E+03  0.13072360054E+04  0.13187432011E+04  0.12508918179E+03 0.  0.
         23    2    1    2    0    0  0.10567314134E+01  0.12070309254E+03  0.43332818124E+03  0.45842974720E+03  0.88397778399E+02 0.  0.
          5    1    3    3  502    0 -0.11599760117E+02 -0.65672537640E+01  0.11934967034E+02  0.18373869894E+02  0.41800000000E+01 0.  1.
         -5    1    3    3    0  502  0.10543028703E+02 -0.11413583877E+03  0.12953010384E+04  0.13003693312E+04  0.41800000000E+01 0.  1.
        -11    1    4    4    0    0 -0.29619295506E+02  0.95093809963E+01  0.58529922703E+02  0.66283352698E+02  0.00000000000E+00 0.  1.
         11    1    4    4    0    0  0.30676026920E+02  0.11119371154E+03  0.37479825854E+03  0.39214639450E+03  0.00000000000E+00 0. -1.
</event>
<event>
 8    1  0.6635152E-009  0.9631792E+02  0.7561462E-02  0.1288235E+00
          1   -1    0    0  501    0  0.00000000000E+00  0.00000000000E+00  0.94338047938E+03  0.94338047938E+03  0.00000000000E+00 0. -1.
         -1   -1    0    0    0  501 -0.00000000000E+00 -0.00000000000E+00 -0.15668610742E+02  0.15668610742E+02  0.00000000000E+00 0.  1.
         25    2    1    2    0    0  0.27204842453E+02  0.47971715235E+02  0.46898032458E+03  0.48849862877E+03  0.12508787532E+03 0.  0.
         23    2    1    2    0    0 -0.27204842453E+02 -0.47971715235E+02  0.45873154406E+03  0.47055046135E+03  0.89116318649E+02 0.  0.
          5    1    3    3  502    0  0.34288799325E+02  0.67185822242E+02  0.14194831042E+03  0.16079941449E+03  0.41800000000E+01 0. -1.
         -5    1    3    3    0  502 -0.70839568717E+01 -0.19214107008E+02  0.32703201417E+03  0.32769921428E+03  0.41800000000E+01 0. -1.
        -11    1    4    4    0    0 -0.44240336015E+02 -0.60566863826E+02  0.41761250295E+03  0.42429442012E+03  0.00000000000E+00 0. -1.
         11    1    4    4    0    0  0.17035493562E+02  0.12595148591E+02  0.41119041111E+02  0.46256041235E+02  0.00000000000E+00 0.  1.
</event>
<event>
 8    1  0.6635152E-009  0.8568170E+02  0.7561462E-02  0.1313659E+00
         -1   -1    0    0    0  501 -0.00000000000E+00  0.00000000000E+00  0.16621096795E+03  0.16621096795E+03  0.00000000000E+00 0.  1.
          1   -1    0    0  501    0  0.00000000000E+00 -0.00000000000E+00 -0.85905051312E+02  0.85905051312E+02  0.00000000000E+00 0. -1.
         25    2    1    2    0    0 -0.48778278938E+02  0.10639623244E+02  0.41078549084E+02  0.14081028515E+03  0.12509023595E+03 0.  0.
         23    2    1    2    0    0  0.48778278938E+02 -0.10639623244E+02  0.39227367553E+02  0.11130573412E+03  0.91420227536E+02 0.  0.
          5    1    3    3  502    0 -0.12989472189E+02  0.27396144050E+02 -0.40089311867E+02  0.50437093716E+02  0.41800000000E+01 0. -1.
         -5    1    3    3    0  502 -0.35788806749E+02 -0.16756520806E+02  0.81167860951E+02  0.90373191431E+02  0.41800000000E+01 0. -1.
        -11    1    4    4    0    0  0.19001353040E+02  0.38858154448E+02  0.30403913086E+02  0.52871594598E+02  0.00000000000E+00 0.  1.
         11    1    4    4    0    0  0.29776925898E+02 -0.49497777692E+02  0.88234544674E+01  0.58434139517E+02  0.00000000000E+00 0. -1.
</event>
<event>
 8    1  0.6635152E-009  0.1114011E+03  0.7561462E-02  0.1257997E+00
          4   -1    0    0  501    0  0.00000000000E+00  0.00000000000E+00  0.12654433392E+03  0.12654433392E+03  0.00000000000E+00 0. -1.
         -4   -1    0    0    0  501 -0.00000000000E+00 -0.00000000000E+00 -0.13147100932E+03  0.13147100932E+03  0.00000000000E+00 0.  1.
         25    2    1    2    0    0 -0.61635796125E+01  0.31930888636E+02 -0.64325141576E+02  0.14436244276E+03  0.12508085257E+03 0.  0.
         23    2    1    2    0    0  0.61635796125E+01 -0.31930888636E+02  0.59398466175E+02  0.11365290048E+03  0.91275586226E+02 0.  0.
          5    1    3    3  502    0 -0.37269854756E+02 -0.35489410940E+02 -0.42452548857E+02  0.66844832761E+02  0.41800000000E+01 0. -1.
         -5    1    3    3    0  502  0.31106275143E+02  0.67420299577E+02 -0.21872592719E+02  0.77517610003E+02  0.41800000000E+01 0. -1.
        -11    1    4    4    0    0 -0.40050149848E+02 -0.30884619227E+02  0.28520106901E+02  0.58062644664E+02  0.00000000000E+00 0. -1.
         11    1    4    4    0    0  0.46213729461E+02 -0.10462694093E+01  0.30878359273E+02  0.55590255817E+02  0.00000000000E+00 0.  1.
</event>
<event>
 8    1  0.6635152E-009  0.1143317E+03  0.7561462E-02  0.1252752E+00
         -2   -1    0    0    0  501 -0.00000000000E+00  0.00000000000E+00  0.48915205800E+02  0.48915205800E+02  0.00000000000E+00 0.  1.
          2   -1    0    0  501    0  0.00000000000E+00 -0.00000000000E+00 -0.39095922795E+03  0.39095922795E+03  0.00000000000E+00 0. -1.
         25    2    1    2    0    0  0.52068272767E+02  0.57419106816E+02 -0.13242097247E+03  0.19796623650E+03  0.12508900027E+03 0.  0.
         23    2    1    2    0    0 -0.52068272767E+02 -0.57419106816E+02 -0.20962304969E+03  0.24190819725E+03  0.92572642183E+02 0.  0.
          5    1    3    3  502    0  0.65481976201E+02 -0.11478032723E+02 -0.28409177413E+02  0.72416767420E+02  0.41800000000E+01 0.  1.
         -5    1    3    3    0  502 -0.13413703434E+02  0.68897139539E+02 -0.10401179506E+03  0.12554946908E+03  0.41800000000E+01 0.  1.
        -11    1    4    4    0    0 -0.80701091680E+01 -0.45420415831E+02 -0.26520257830E+02  0.53211511082E+02  0.00000000000E+00 0.  1.
         11    1    4    4    0    0 -0.43998163599E+02 -0.11998690985E+02 -0.18310279186E+03  0.18869668617E+03  0.00000000000E+00 0. -1.
</event>
<event>
 8    1  0.6635152E-009  0.9747093E+02  0.7561462E-02  0.1285706E+00
         -1   -1    0    0    0  501 -0.00000000000E+00  0.00000000000E+00  0.55308752049E+02  0.55308752049E+02  0.00000000000E+00 0.  1.
          1   -1    0    0  501    0  0.00000000000E+00 -0.00000000000E+00 -0.27646367159E+03  0.27646367159E+03  0.00000000000E+00 0. -1.
         25    2    1    2    0    0  0.22133517560E+02 -0.13754081582E+02 -0.18688837707E+03  0.22639213693E+03  0.12508823614E+03 0.  0.
         23    2    1    2    0    0 -0.22133517560E+02  0.13754081582E+02 -0.34266542472E+02  0.10538028671E+03  0.96185973690E+02 0.  0.
          5    1    3    3  502    0 -0.37000146626E+02 -0.14034768951E+02 -0.11747718268E+02  0.41490563678E+02  0.41800000000E+01 0.  1.
         -5    1    3    3    0  502  0.59133664186E+02  0.28068736928E+00 -0.17514065880E+03  0.18490157325E+03  0.41800000000E+01 0.  1.
        -11    1    4    4    0    0 -0.52894070901E+02  0.30280557305E+02 -0.75520693804E+01  0.61414400910E+02  0.00000000000E+00 0.  1.
         11    1    4    4    0    0  0.30760553341E+02 -0.16526475724E+02 -0.26714473092E+02  0.43965885801E+02  0.00000000000E+00 0. -1.
</event>
<event>
 8    1  0.6635152E-009  0.1688437E+03  0.7561462E-02  0.1179059E+00
          1   -1    0    0  501    0  0.00000000000E+00  0.00000000000E+00  0.29534895535E+03  0.29534895535E+03  0.00000000000E+00 0. -1.
         -1   -1    0    0    0  501 -0.00000000000E+00 -0.00000000000E+00 -0.13385690953E+03  0.13385690953E+03  0.00000000000E+00 0.  1.
         25    2    1    2    0    0 -0.12997100308E+03  0.57302734303E+02  0.17568303545E+03  0.25823945287E+03  0.12508805328E+03 0.  0.
         23    2    1    2    0    0  0.12997100308E+03 -0.57302734303E+02 -0.14190989632E+02  0.17096641201E+03  0.94085412521E+02 0.  0.
          5    1    3    3  502    0 -0.70672277983E+02  0.77793134547E+02  0.47392406429E+02  0.11536834594E+03  0.41800000000E+01 0.  1.
         -5    1    3    3    0  502 -0.59298725101E+02 -0.20490400245E+02  0.12829062902E+03  0.14287110693E+03  0.41800000000E+01 0.  1.
        -11    1    4    4    0    0  0.81576247273E+02 -0.81677541523E+02 -0.21488415919E+01  0.11545788162E+03  0.00000000000E+00 0.  1.
         11    1    4    4    0    0  0.48394755810E+02  0.24374807220E+02 -0.12042148040E+02  0.55508530393E+02  0.00000000000E+00 0. -1.
</event>
<event>
 8    1  0.6635152E-009  0.1178648E+03  0.7561462E-02  0.1246662E+00
          2   -1    0    0  501    0  0.00000000000E+00  0.00000000000E+00  0.43416239395E+03  0.43416239395E+03  0.00000000000E+00 0. -1.
         -2   -1    0    0    0  501 -0.00000000000E+00 -0.00000000000E+00 -0.44866368834E+02  0.44866368834E+02  0.00000000000E+00 0.  1.
         25    2    1    2    0    0 -0.82672989938E+02  0.29555633953E+02  0.24005917443E+03  0.28457523949E+03  0.12508517475E+03 0.  0.
         23    2    1    2    0    0  0.82672989938E+02 -0.29555633953E+02  0.14923685069E+03  0.19445352330E+03  0.88499583921E+02 0.  0.
          5    1    3    3  502    0 -0.10029525765E+03  0.55677872792E+02  0.21636430767E+03  0.24492886776E+03  0.41800000000E+01 0.  1.
         -5    1    3    3    0  502  0.17622267713E+02 -0.26122238839E+02  0.23694866755E+02  0.39646371736E+02  0.41800000000E+01 0.  1.
        -11    1    4    4    0    0  0.40028289039E+02 -0.61199833514E+01  0.33111439722E+01  0.40628583460E+02  0.00000000000E+00 0.  1.
         11    1    4    4    0    0  0.42644700899E+02 -0.23435650602E+02  0.14592570672E+03  0.15382493983E+03  0.00000000000E+00 0. -1.
</event>
<event>
 8    1  0.6635152E-009  0.1103050E+03  0.7561462E-02  0.1260006E+00
         -1   -1    0    0    0  501 -0.00000000000E+00  0.00000000000E+00  0.90202737271E+02  0.90202737271E+02  0.00000000000E+00 0.  1.
          1   -1    0    0  501    0  0.00000000000E+00 -0.00000000000E+00 -0.16243439490E+03  0.16243439490E+03  0.00000000000E+00 0. -1.
         25    2    1    2    0    0  0.44678983596E+02  0.17069899536E+02 -0.14929871286E+02  0.13474988997E+03  0.12508812392E+03 0.  0.
         23    2    1    2    0    0 -0.44678983596E+02 -0.17069899536E+02 -0.57301786339E+02  0.11788724220E+03  0.91248638946E+02 0.  0.
          5    1    3    3  502    0 -0.33012850911E+02 -0.22963592323E+02 -0.23611969667E+02  0.46820640845E+02  0.41800000000E+01 0.  1.
         -5    1    3    3    0  502  0.77691834507E+02  0.40033491859E+02  0.86820983810E+01  0.87929249125E+02  0.41800000000E+01 0.  1.
        -11    1    4    4    0    0  0.22857808199E+02 -0.93756736391E+01  0.55357139097E+01  0.25318506677E+02  0.00000000000E+00 0.  1.
         11    1    4    4    0    0 -0.67536791795E+02 -0.76942258968E+01 -0.62837500249E+02  0.92568735519E+02  0.00000000000E+00 0. -1.
</event>
<event>
 8    1  0.6635152E-009  0.1083190E+03  0.7561462E-02  0.1263715E+00
          2   -1    0    0  501    0  0.00000000000E+00  0.00000000000E+00  0.10396439038E+03  0.10396439038E+03  0.00000000000E+00 0. -1.
         -2   -1    0    0    0  501 -0.00000000000E+00 -0.00000000000E+00 -0.18408482664E+03  0.18408482664E+03  0.00000000000E+00 0.  1.
         25    2    1    2    0    0  0.68805883612E+02 -0.42680586469E+01 -0.95767304414E+02  0.17196251916E+03  0.12508903012E+03 0.  0.
         23    2    1    2    0    0 -0.68805883612E+02  0.42680586469E+01  0.15646868156E+02  0.11608669786E+03  0.92080567943E+02 0.  0.
          5    1    3    3  502    0  0.74115443705E+02 -0.42592520643E+02 -0.10134625165E+03  0.13264899899E+03  0.41800000000E+01 0.  1.
         -5    1    3    3    0  502 -0.53095600936E+01  0.38324461997E+02  0.55789472317E+01  0.39313520167E+02  0.41800000000E+01 0.  1.
        -11    1    4    4    0    0 -0.67151172793E+02  0.24766572833E+02  0.41746900876E+02  0.82858112880E+02  0.00000000000E+00 0. -1.
         11    1    4    4    0    0 -0.16547108192E+01 -0.20498514186E+02 -0.26100032720E+02  0.33228584979E+02  0.00000000000E+00 0.  1.
</event>
<event>
 8    1  0.6635152E-009  0.1073214E+03  0.7561462E-02  0.1265612E+00
         -1   -1    0    0    0  501 -0.00000000000E+00  0.00000000000E+00  0.32663614309E+03  0.32663614309E+03  0.00000000000E+00 0.  1.
          1   -1    0    0  501    0  0.00000000000E+00 -0.00000000000E+00 -0.48576352985E+02  0.48576352985E+02  0.00000000000E+00 0. -1.
         25    2    1    2    0    0  0.75814309099E+01 -0.63689227103E+02  0.15782062251E+03  0.21134863309E+03  0.12508836907E+03 0.  0.
         23    2    1    2    0    0 -0.75814309099E+01  0.63689227103E+02  0.12023916759E+03  0.16386386298E+03  0.90995123075E+02 0.  0.
          5    1    3    3  502    0 -0.53809509479E+02 -0.29364612695E+01  0.63490636588E+02  0.83382368936E+02  0.41800000000E+01 0.  1.
         -5    1    3    3    0  502  0.61390940389E+02 -0.60752765834E+02  0.94329985922E+02  0.12796626416E+03  0.41800000000E+01 0.  1.
        -11    1    4    4    0    0 -0.22385943473E+02  0.45154150373E+02  0.10359050809E+02  0.51452285612E+02  0.00000000000E+00 0. -1.
         11    1    4    4    0    0  0.14804512564E+02  0.18535076730E+02  0.10988011678E+03  0.11241157737E+03  0.00000000000E+00 0.  1.
</event>
<event>
 8    1  0.6635152E-009  0.8970779E+02  0.7561462E-02  0.1303561E+00
          1   -1    0    0  501    0  0.00000000000E+00  0.00000000000E+00  0.84605154443E+03  0.84605154443E+03  0.00000000000E+00 0. -1.
         -1   -1    0    0    0  501 -0.00000000000E+00 -0.00000000000E+00 -0.16660991471E+02  0.16660991471E+02  0.00000000000E+00 0.  1.
         25    2    1    2    0    0  0.45836136036E+02 -0.59731552801E+01  0.42256928519E+03  0.44311268459E+03  0.12508964989E+03 0.  0.
         23    2    1    2    0    0 -0.45836136036E+02  0.59731552801E+01  0.40682126777E+03  0.41959985131E+03  0.91781595971E+02 0.  0.
          5    1    3    3  502    0  0.95260418441E+00 -0.29490612455E+02  0.16878909954E+02  0.34248703318E+02  0.41800000000E+01 0. -1.
         -5    1    3    3    0  502  0.44883531852E+02  0.23517457175E+02  0.40569037523E+03  0.40886398127E+03  0.41800000000E+01 0. -1.
        -11    1    4    4    0    0 -0.39266358666E+02  0.44696448798E+02  0.18509306008E+03  0.19441980442E+03  0.00000000000E+00 0.  1.
         11    1    4    4    0    0 -0.65697773708E+01 -0.38723293518E+02  0.22172820769E+03  0.22518004690E+03  0.00000000000E+00 0. -1.
</event>
<event>
 8    1  0.6635152E-009  0.9678109E+02  0.7561462E-02  0.1287214E+00
         -1   -1    0    0    0  501 -0.00000000000E+00  0.00000000000E+00  0.15510747261E+02  0.15510747261E+02  0.00000000000E+00 0.  1.
          1   -1    0    0  501    0  0.00000000000E+00 -0.00000000000E+00 -0.88685743882E+03  0.88685743882E+03  0.00000000000E+00 0. -1.
         25    2    1    2    0    0  0.97225193597E+01  0.77308377338E+00 -0.66549293598E+03  0.67721770916E+03  0.12509137745E+03 0.  0.
         23    2    1    2    0    0 -0.97225193597E+01 -0.77308377338E+00 -0.20585375558E+03  0.22515047692E+03  0.90674381898E+02 0.  0.
          5    1    3    3  502    0  0.21442625968E+02  0.58550367093E+02 -0.42494210882E+03  0.42951274712E+03  0.41800000000E+01 0. -1.
         -5    1    3    3    0  502 -0.11720106608E+02 -0.57777283319E+02 -0.24055082717E+03  0.24770496204E+03  0.41800000000E+01 0. -1.
        -11    1    4    4    0    0  0.22445769339E+02  0.22870075902E+02 -0.27022955971E+02  0.41917694144E+02  0.00000000000E+00 0.  1.
         11    1    4    4    0    0 -0.32168288699E+02 -0.23643159675E+02 -0.17883079961E+03  0.18323278278E+03  0.00000000000E+00 0. -1.
</event>
<event>
 7    1  0.6635152E-009  0.1409207E+03  0.7561462E-02  0.1212095E+00
         -2   -1    0    0    0  501 -0.00000000000E+00  0.00000000000E+00  0.16366097936E+03  0.16366097936E+03  0.00000000000E+00 0.  1.
          2   -1    0    0  501    0  0.00000000000E+00 -0.00000000000E+00 -0.16896271000E+03  0.16896271000E+03  0.00000000000E+00 0. -1.
         23    2    1    2    0    0 -0.10207307631E+03  0.67986678577E+02 -0.30815082918E+02  0.15550095937E+03  0.90497942847E+02 0.  0.
          5    1    1    2  502    0  0.34129879524E+02 -0.61451802026E+02  0.66949283158E+02  0.97164044604E+02  0.41800000000E+01 0. -1.
         -5    1    1    2    0  502  0.67943196786E+02 -0.65348765510E+01 -0.41435930877E+02  0.79958685386E+02  0.41800000000E+01 0. -1.
        -11    1    3    3    0    0 -0.22988669148E+02 -0.15745187335E+02  0.14884815299E+02  0.31590308006E+02  0.00000000000E+00 0.  1.
         11    1    3    3    0    0 -0.79084407162E+02  0.83731865912E+02 -0.45699898218E+02  0.12391065137E+03  0.00000000000E+00 0. -1.
</event>
<event>
 8    1  0.6635152E-009  0.6091961E+02  0.7561462E-02  0.1394013E+00
          3   -1    0    0  501    0  0.00000000000E+00  0.00000000000E+00  0.42020770567E+02  0.42020770567E+02  0.00000000000E+00 0. -1.
         -3   -1    0    0    0  501 -0.00000000000E+00 -0.00000000000E+00 -0.33046815149E+03  0.33046815149E+03  0.00000000000E+00 0.  1.
         25    2    1    2    0    0 -0.29970563777E+02 -0.19953187654E+02 -0.20329819770E+03  0.24140124402E+03  0.12509212219E+03 0.  0.
         23    2    1    2    0    0  0.29970563777E+02  0.19953187654E+02 -0.85149183223E+02  0.13108767804E+03  0.92936707175E+02 0.  0.
          5    1    3    3  502    0 -0.34799886077E+02 -0.14173733749E+02  0.11318125358E+00  0.37807565504E+02  0.41800000000E+01 0. -1.
         -5    1    3    3    0  502  0.48293223000E+01 -0.57794539044E+01 -0.20341137896E+03  0.20359367851E+03  0.41800000000E+01 0. -1.
        -11    1    4    4    0    0 -0.20692286187E+02  0.12593956786E+02 -0.75108092967E+02  0.78917704505E+02  0.00000000000E+00 0.  1.
         11    1    4    4    0    0  0.50662849964E+02  0.73592308677E+01 -0.10041090256E+02  0.52169973538E+02  0.00000000000E+00 0. -1.
</event>
<event>
 8    1  0.6635152E-009  0.1125864E+03  0.7561462E-02  0.1255854E+00
          1   -1    0    0  501    0  0.00000000000E+00  0.00000000000E+00  0.33997792860E+03  0.33997792860E+03  0.00000000000E+00 0. -1.
         -1   -1    0    0    0  501 -0.00000000000E+00 -0.00000000000E+00 -0.42008305556E+02  0.42008305556E+02  0.00000000000E+00 0.  1.
         25    2    1    2    0    0 -0.48053813763E+02  0.35445856441E+02  0.14403597103E+03  0.19989890994E+03  0.12509050918E+03 0.  0.
         23    2    1    2    0    0  0.48053813763E+02 -0.35445856441E+02  0.15393365202E+03  0.18208732422E+03  0.76776602317E+02 0.  0.
          5    1    3    3  502    0 -0.23930794103E+02 -0.42117334702E+02  0.89865238233E+02  0.10217527211E+03  0.41800000000E+01 0.  1.
         -5    1    3    3    0  502 -0.24123019660E+02  0.77563191143E+02  0.54170732799E+02  0.97723637825E+02  0.41800000000E+01 0.  1.
        -11    1    4    4    0    0 -0.48795620996E+01 -0.41637045832E+02  0.86612105356E+02  0.96224271917E+02  0.00000000000E+00 0.  1.
         11    1    4    4    0    0  0.52933375863E+02  0.61911893910E+01  0.67321546660E+02  0.85863052305E+02  0.00000000000E+00 0. -1.
</event>
<event>
 8    1  0.6635152E-009  0.8708874E+02  0.7561462E-02  0.1310059E+00
         -2   -1    0    0    0  501 -0.00000000000E+00  0.00000000000E+00  0.76150854975E+02  0.76150854975E+02  0.00000000000E+00 0.  1.
          2   -1    0    0  501    0  0.00000000000E+00 -0.00000000000E+00 -0.18457767406E+03  0.18457767406E+03  0.00000000000E+00 0. -1.
         25    2    1    2    0    0  0.43602445280E+02 -0.14881314765E+02 -0.40372349510E+02  0.13928281189E+03  0.12508856190E+03 0.  0.
         23    2    1    2    0    0 -0.43602445280E+02  0.14881314765E+02 -0.68054469570E+02  0.12144571714E+03  0.89414901555E+02 0.  0.
          5    1    3    3  502    0 -0.19877071452E+02 -0.23978548229E+02  0.30374744273E+02  0.43705448565E+02  0.41800000000E+01 0.  1.
         -5    1    3    3    0  502  0.63479516731E+02  0.90972334642E+01 -0.70747093783E+02  0.95577363323E+02  0.41800000000E+01 0.  1.
        -11    1    4    4    0    0  0.16592116419E+02  0.59911633498E+01  0.11672003178E+02  0.21152494504E+02  0.00000000000E+00 0.  1.
         11    1    4    4    0    0 -0.60194561699E+02  0.88901514152E+01 -0.79726472748E+02  0.10029322264E+03  0.00000000000E+00 0. -1.
</event>
<event>
 8    1  0.6635152E-009  0.9274643E+02  0.7561462E-02  0.1296334E+00
         -2   -1    0    0    0  501 -0.00000000000E+00  0.00000000000E+00  0.12557961020E+03  0.12557961020E+03  0.00000000000E+00 0.  1.
          2   -1    0    0  501    0  0.00000000000E+00 -0.00000000000E+00 -0.11389055553E+03  0.11389055553E+03  0.00000000000E+00 0. -1.
         25    2    1    2    0    0 -0.22237868735E+02  0.43268820318E+02  0.19244087216E+02  0.13554290708E+03  0.12503931841E+03 0.  0.
         23    2    1    2    0    0  0.22237868735E+02 -0.43268820318E+02 -0.75550325460E+01  0.10392725866E+03  0.91526405794E+02 0.  0.
          5    1    3    3  502    0  0.75754312069E+01  0.50548938437E+02  0.63438917771E+02  0.81575431492E+02  0.41800000000E+01 0.  1.
         -5    1    3    3    0  502 -0.29813299942E+02 -0.72801181191E+01 -0.44194830555E+02  0.53967475585E+02  0.41800000000E+01 0.  1.
        -11    1    4    4    0    0  0.41153118774E+02 -0.63417514785E+02 -0.13948292077E+01  0.75612868712E+02  0.00000000000E+00 0.  1.
         11    1    4    4    0    0 -0.18915250039E+02  0.20148694467E+02 -0.61602033383E+01  0.28314389945E+02  0.00000000000E+00 0. -1.
</event>
<event>
 8    1  0.6635152E-009  0.1091977E+03  0.7561462E-02  0.1262063E+00
          2   -1    0    0  501    0  0.00000000000E+00  0.00000000000E+00  0.40437829796E+03  0.40437829796E+03  0.00000000000E+00 0. -1.
         -2   -1    0    0    0  501 -0.00000000000E+00 -0.00000000000E+00 -0.37282655249E+02  0.37282655249E+02  0.00000000000E+00 0.  1.
         25    2    1    2    0    0  0.62370725805E+01 -0.16807673047E+02  0.30351397944E+03  0.32877010961E+03  0.12509056841E+03 0.  0.
         23    2    1    2    0    0 -0.62370725805E+01  0.16807673047E+02  0.63581663265E+02  0.11289084360E+03  0.91544064346E+02 0.  0.
          5    1    3    3  502    0  0.56623594731E+02 -0.40571488873E+02  0.15096840273E+03  0.16631659031E+03  0.41800000000E+01 0.  1.
         -5    1    3    3    0  502 -0.50386522151E+02  0.23763815826E+02  0.15254557671E+03  0.16245351930E+03  0.41800000000E+01 0.  1.
        -11    1    4    4    0    0  0.41620667241E+02 -0.11327554620E+01  0.34597351337E+02  0.54134460338E+02  0.00000000000E+00 0.  1.
         11    1    4    4    0    0 -0.47857739821E+02  0.17940428509E+02  0.28984311928E+02  0.58756383260E+02  0.00000000000E+00 0. -1.
</event>
<event>
 8    1  0.6635152E-009  0.1804145E+03  0.7561462E-02  0.1167402E+00
         -1   -1    0    0    0  501 -0.00000000000E+00  0.00000000000E+00  0.51302690350E+03  0.51302690350E+03  0.00000000000E+00 0.  1.
          1   -1    0    0  501    0  0.00000000000E+00 -0.00000000000E+00 -0.66957968327E+02  0.66957968327E+02  0.00000000000E+00 0. -1.
         25    2    1    2    0    0  0.84533122114E+02  0.11622983471E+03  0.30026581738E+03  0.35561468290E+03  0.12508804257E+03 0.  0.
         23    2    1    2    0    0 -0.84533122114E+02 -0.11622983471E+03  0.14580311779E+03  0.22437018893E+03  0.91805279321E+02 0.  0.
          5    1    3    3  502    0 -0.29084016808E+02  0.52576411542E+02  0.95612275442E+02  0.11300149866E+03  0.41800000000E+01 0.  1.
         -5    1    3    3    0  502  0.11361713892E+03  0.63653423166E+02  0.20465354194E+03  0.24261318424E+03  0.41800000000E+01 0.  1.
        -11    1    4    4    0    0 -0.22836360404E+02  0.13583160171E+02  0.27207313533E+02  0.38029455773E+02  0.00000000000E+00 0.  1.
         11    1    4    4    0    0 -0.61696761710E+02 -0.12981299488E+03  0.11859580425E+03  0.18634073315E+03  0.00000000000E+00 0. -1.
</event>
<event>
 8    1  0.6635152E-009  0.1165640E+03  0.7561462E-02  0.1248876E+00
          2   -1    0    0  501    0  0.00000000000E+00  0.00000000000E+00  0.12082518428E+04  0.12082518428E+04  0.00000000000E+00 0. -1.
         -2   -1    0    0    0  501 -0.00000000000E+00 -0.00000000000E+00 -0.18776588079E+02  0.18776588079E+02  0.00000000000E+00 0.  1.
         25    2    1    2    0    0 -0.46539139181E+02  0.56180123757E+02  0.95277818891E+03  0.96371956839E+03  0.12508809474E+03 0.  0.
         23    2    1    2    0    0  0.46539139181E+02 -0.56180123757E+02  0.23669706581E+03  0.26330886250E+03  0.89352998401E+02 0.  0.
          5    1    3    3  502    0 -0.79892560488E+02  0.62150060582E+02  0.83406208110E+03  0.84019192973E+03  0.41800000000E+01 0. -1.
         -5    1    3    3    0  502  0.33353421307E+02 -0.59699368254E+01  0.11871610781E+03  0.12352763865E+03  0.41800000000E+01 0. -1.
        -11    1    4    4    0    0 -0.48890582328E+01 -0.44727006146E+02  0.41793571249E+02  0.61409368723E+02  0.00000000000E+00 0.  1.
         11    1    4    4    0    0  0.51428197413E+02 -0.11453117610E+02  0.19490349457E+03  0.20189949377E+03  0.00000000000E+00 0. -1.
</event>
<event>
 8    1  0.6635152E-009  0.9748038E+02  0.7561462E-02  0.1285685E+00
         -2   -1    0    0    0  501 -0.00000000000E+00  0.00000000000E+00  0.27773903577E+02  0.27773903577E+02  0.00000000000E+00 0.  1.
          2   -1    0    0  501    0  0.00000000000E+00 -0.00000000000E+00 -0.47335242684E+03  0.47335242684E+03  0.00000000000E+00 0. -1.
         25    2    1    2    0    0  0.16607653042E+02 -0.12197791352E+02 -0.32137456064E+03  0.34547600970E+03  0.12508982691E+03 0.  0.
         23    2    1    2    0    0 -0.16607653042E+02  0.12197791352E+02 -0.12420396262E+03  0.15565032071E+03  0.91519384584E+02 0.  0.
          5    1    3    3  502    0 -0.45340445641E+02  0.27199735907E+02 -0.14441115288E+03  0.15384289103E+03  0.41800000000E+01 0.  1.
         -5    1    3    3    0  502  0.61948098683E+02 -0.39397527260E+02 -0.17696340776E+03  0.19163311867E+03  0.41800000000E+01 0.  1.
        -11    1    4    4    0    0 -0.41184108362E+02  0.54009919202E+00 -0.16175784630E+02  0.44250180758E+02  0.00000000000E+00 0.  1.
         11    1    4    4    0    0  0.24576455320E+02  0.11657692160E+02 -0.10802817799E+03  0.11140013995E+03  0.00000000000E+00 0. -1.
</event>
<event>
 8    1  0.6635152E-009  0.1356574E+03  0.7561462E-02  0.1219295E+00
         -1   -1    0    0    0  501 -0.00000000000E+00  0.00000000000E+00  0.42808358141E+02  0.42808358141E+02  0.00000000000E+00 0.  1.
          1   -1    0    0  501    0  0.00000000000E+00 -0.00000000000E+00 -0.62625412132E+03  0.62625412132E+03  0.00000000000E+00 0. -1.
         25    2    1    2    0    0 -0.11003296807E+03  0.34285187410E+02 -0.39685777497E+03  0.43177119685E+03  0.12509014644E+03 0.  0.
         23    2    1    2    0    0  0.11003296807E+03 -0.34285187410E+02 -0.18658798821E+03  0.23729128261E+03  0.90605448628E+02 0.  0.
          5    1    3    3  502    0 -0.59374039171E+02  0.71469661977E+02 -0.14584552603E+03  0.17297855061E+03  0.41800000000E+01 0.  1.
         -5    1    3    3    0  502 -0.50658928900E+02 -0.37184474567E+02 -0.25101224895E+03  0.25879264624E+03  0.41800000000E+01 0.  1.
        -11    1    4    4    0    0  0.83982050994E+02 -0.28007445377E+02 -0.19063736027E+03  0.21019040182E+03  0.00000000000E+00 0. -1.
         11    1    4    4    0    0  0.26050917077E+02 -0.62777420337E+01  0.40493720627E+01  0.27100880792E+02  0.00000000000E+00 0.  1.
</event>
<event>
 8    1  0.6635152E-009  0.1244997E+03  0.7561462E-02  0.1235853E+00
         -2   -1    0    0    0  501 -0.00000000000E+00  0.00000000000E+00  0.35935038414E+02  0.35935038414E+02  0.00000000000E+00 0.  1.
          2   -1    0    0  501    0  0.00000000000E+00 -0.00000000000E+00 -0.66127284299E+03  0.66127284299E+03  0.00000000000E+00 0. -1.
         25    2    1    2    0    0  0.89805968014E+02 -0.34105285098E+02 -0.44816647494E+03  0.47511510484E+03  0.12511151516E+03 0.  0.
         23    2    1    2    0    0 -0.89805968014E+02  0.34105285098E+02 -0.17717132964E+03  0.22209277657E+03  0.93312587545E+02 0.  0.
          5    1    3    3  502    0 -0.10811420678E+02 -0.97932134712E+01 -0.44988793837E-01  0.15174592949E+02  0.41800000000E+01 0. -1.
         -5    1    3    3    0  502  0.10061738869E+03 -0.24312071626E+02 -0.44812148614E+03  0.45994051189E+03  0.41800000000E+01 0. -1.
        -11    1    4    4    0    0 -0.36618465191E+02  0.60601379110E+02 -0.70092933253E+02  0.99631613632E+02  0.00000000000E+00 0.  1.
         11    1    4    4    0    0 -0.53187502823E+02 -0.26496094013E+02 -0.10707839639E+03  0.12246116294E+03  0.00000000000E+00 0. -1.
</event>
<event>
 8    1  0.6635152E-009  0.8610427E+02  0.7561462E-02  0.1312570E+00
         -2   -1    0    0    0  501 -0.00000000000E+00  0.00000000000E+00  0.40396149021E+02  0.40396149021E+02  0.00000000000E+00 0. -1.
          2   -1    0    0  501    0  0.00000000000E+00 -0.00000000000E+00 -0.40249552589E+03  0.40249552589E+03  0.00000000000E+00 0.  1.
         25    2    1    2    0    0  0.22414180446E+02  0.42936919762E+02 -0.25455345415E+03  0.28773164755E+03  0.12508423330E+03 0.  0.
         23    2    1    2    0    0 -0.22414180446E+02 -0.42936919762E+02 -0.10754592272E+03  0.15516002736E+03  0.10080939456E+03 0.  0.
          5    1    3    3  502    0 -0.11226510136E+02  0.17119997126E+02 -0.24256937842E+03  0.24346766639E+03  0.41800000000E+01 0. -1.
         -5    1    3    3    0  502  0.33640690582E+02  0.25816922636E+02 -0.11984075733E+02  0.44263981163E+02  0.41800000000E+01 0. -1.
        -11    1    4    4    0    0 -0.60498367399E+02 -0.17769450907E+02 -0.43878504749E+02  0.76818806437E+02  0.00000000000E+00 0.  1.
         11    1    4    4    0    0  0.38084186953E+02 -0.25167468855E+02 -0.63667417968E+02  0.78341220919E+02  0.00000000000E+00 0. -1.
</event>
<event>
 8    1  0.6635152E-009  0.1424251E+03  0.7561462E-02  0.1210103E+00
          1   -1    0    0  501    0  0.00000000000E+00  0.00000000000E+00  0.97324658005E+03  0.97324658005E+03  0.00000000000E+00 0. -1.
         -1   -1    0    0    0  501 -0.00000000000E+00 -0.00000000000E+00 -0.21740185509E+02  0.21740185509E+02  0.00000000000E+00 0.  1.
         25    2    1    2    0    0 -0.89579186736E+02 -0.13043866636E+02  0.54969613899E+03  0.57097100701E+03  0.12508985760E+03 0.  0.
         23    2    1    2    0    0  0.89579186736E+02  0.13043866636E+02  0.40181025556E+03  0.42401575855E+03  0.10071399544E+03 0.  0.
          5    1    3    3  502    0 -0.76774289796E+02 -0.63561989259E+02  0.40543875536E+03  0.41753140577E+03  0.41800000000E+01 0. -1.
         -5    1    3    3    0  502 -0.12804896941E+02  0.50518122623E+02  0.14425738362E+03  0.15343960124E+03  0.41800000000E+01 0. -1.
        -11    1    4    4    0    0  0.49754581976E+02  0.55540640366E+02  0.18354322379E+03  0.19811207979E+03  0.00000000000E+00 0.  1.
         11    1    4    4    0    0  0.39824604760E+02 -0.42496773730E+02  0.21826703177E+03  0.22590367876E+03  0.00000000000E+00 0. -1.
</event>
<event>
 8    1  0.6635152E-009  0.8081268E+02  0.7561462E-02  0.1326761E+00
          4   -1    0    0  501    0  0.00000000000E+00  0.00000000000E+00  0.25764439673E+03  0.25764439673E+03  0.00000000000E+00 0. -1.
         -4   -1    0    0    0  501 -0.00000000000E+00 -0.00000000000E+00 -0.49547621693E+02  0.49547621693E+02  0.00000000000E+00 0.  1.
         25    2    1    2    0    0 -0.13933829345E+02  0.25619580295E+02  0.10889339527E+03  0.16839549861E+03  0.12509499560E+03 0.  0.
         23    2    1    2    0    0  0.13933829345E+02 -0.25619580295E+02  0.99203379770E+02  0.13879651981E+03  0.92588600050E+02 0.  0.
          5    1    3    3  502    0  0.45176589052E+02 -0.52374666664E+01  0.86702859794E+02  0.97995987428E+02  0.41800000000E+01 0. -1.
         -5    1    3    3    0  502 -0.59110418397E+02  0.30857046961E+02  0.22190535472E+02  0.70399511183E+02  0.41800000000E+01 0. -1.
        -11    1    4    4    0    0 -0.47298885479E+01 -0.29670810826E+02 -0.70325931491E+01  0.30857514922E+02  0.00000000000E+00 0.  1.
         11    1    4    4    0    0  0.18663717893E+02  0.40512305312E+01  0.10623597292E+03  0.10793900489E+03  0.00000000000E+00 0. -1.
</event>
<event>
 8    1  0.6635152E-009  0.1344862E+03  0.7561462E-02  0.1220947E+00
          1   -1    0    0  501    0  0.00000000000E+00  0.00000000000E+00  0.13334339351E+04  0.13334339351E+04  0.00000000000E+00 0. -1.
         -1   -1    0    0    0  501 -0.00000000000E+00 -0.00000000000E+00 -0.14344964474E+02  0.14344964474E+02  0.00000000000E+00 0.  1.
         25    2    1    2    0    0  0.86734551394E+02  0.96056346983E+01  0.74215725092E+03  0.75766786182E+03  0.12509217850E+03 0.  0.
         23    2    1    2    0    0 -0.86734551394E+02 -0.96056346983E+01  0.57693171974E+03  0.59011103779E+03  0.88123078993E+02 0.  0.
          5    1    3    3  502    0  0.93009081720E+02  0.49305745314E+02  0.62299780385E+03  0.63184292495E+03  0.41800000000E+01 0.  1.
         -5    1    3    3    0  502 -0.62745303264E+01 -0.39700110615E+02  0.11915944707E+03  0.12582493688E+03  0.41800000000E+01 0.  1.
        -11    1    4    4    0    0 -0.34764321068E+02 -0.47520459814E+02  0.30949546726E+03  0.31504634004E+03  0.00000000000E+00 0. -1.
         11    1    4    4    0    0 -0.51970230326E+02  0.37914825116E+02  0.26743625249E+03  0.27506469775E+03  0.00000000000E+00 0.  1.
</event>
<event>
 8    1  0.6635152E-009  0.1239214E+03  0.7561462E-02  0.1236765E+00
          2   -1    0    0  501    0  0.00000000000E+00  0.00000000000E+00  0.23635696106E+03  0.23635696106E+03  0.00000000000E+00 0.  1.
         -2   -1    0    0    0  501 -0.00000000000E+00 -0.00000000000E+00 -0.77265208065E+02  0.77265208065E+02  0.00000000000E+00 0. -1.
         25    2    1    2    0    0 -0.54238354313E+02  0.31929502792E+02  0.30876168024E+02  0.14339378684E+03  0.12508856113E+03 0.  0.
         23    2    1    2    0    0  0.54238354313E+02 -0.31929502792E+02  0.12821558497E+03  0.17022838228E+03  0.92613031907E+02 0.  0.
          5    1    3    3  502    0  0.88597671057E+01  0.64210621961E+02  0.31949940346E+02  0.72386259290E+02  0.41800000000E+01 0. -1.
         -5    1    3    3    0  502 -0.63098121419E+02 -0.32281119169E+02 -0.10737723223E+01  0.71007527548E+02  0.41800000000E+01 0. -1.
        -11    1    4    4    0    0 -0.88660311131E+01 -0.46323797347E+02  0.57344484801E+02  0.74248842721E+02  0.00000000000E+00 0.  1.
         11    1    4    4    0    0  0.63104385426E+02  0.14394294555E+02  0.70871100166E+02  0.95979539562E+02  0.00000000000E+00 0. -1.
</event>
<event>
 8    1  0.6635152E-009  0.8360372E+02  0.7561462E-02  0.1319125E+00
          2   -1    0    0  501    0  0.00000000000E+00  0.00000000000E+00  0.41419948164E+03  0.41419948164E+03  0.00000000000E+00 0. -1.
         -2   -1    0    0    0  501 -0.00000000000E+00 -0.00000000000E+00 -0.28620196274E+02  0.28620196274E+02  0.00000000000E+00 0.  1.
         25    2    1    2    0    0  0.54145573285E+01 -0.19849615958E+02  0.23334431029E+03  0.26555673978E+03  0.12508992850E+03 0.  0.
         23    2    1    2    0    0 -0.54145573285E+01  0.19849615958E+02  0.15223497507E+03  0.17726293813E+03  0.88449629254E+02 0.  0.
          5    1    3    3  502    0  0.51716773222E+02  0.20818639015E+02  0.16100146881E+03  0.17043176266E+03  0.41800000000E+01 0.  1.
         -5    1    3    3    0  502 -0.46302215894E+02 -0.40668254973E+02  0.72342841482E+02  0.95124977125E+02  0.41800000000E+01 0.  1.
        -11    1    4    4    0    0  0.17674830953E+02 -0.19459259924E+01 -0.36709596227E+01  0.18156602704E+02  0.00000000000E+00 0.  1.
         11    1    4    4    0    0 -0.23089388282E+02  0.21795541950E+02  0.15590593470E+03  0.15910633543E+03  0.00000000000E+00 0. -1.
</event>
<event>
 8    1  0.6635152E-009  0.1294559E+03  0.7561462E-02  0.1228265E+00
          1   -1    0    0  501    0  0.00000000000E+00  0.00000000000E+00  0.42903283703E+02  0.42903283703E+02  0.00000000000E+00 0. -1.
         -1   -1    0    0    0  501 -0.00000000000E+00 -0.00000000000E+00 -0.46447503892E+03  0.46447503892E+03  0.00000000000E+00 0.  1.
         25    2    1    2    0    0 -0.89361279991E+02  0.37462818624E+01 -0.20314453590E+03  0.25478536985E+03  0.12509360188E+03 0.  0.
         23    2    1    2    0    0  0.89361279991E+02 -0.37462818624E+01 -0.21842721932E+03  0.25259295278E+03  0.89962640381E+02 0.  0.
          5    1    3    3  502    0 -0.25176597272E+02  0.50189883250E+02 -0.14749809655E+03  0.15787984773E+03  0.41800000000E+01 0. -1.
         -5    1    3    3    0  502 -0.64184682719E+02 -0.46443601388E+02 -0.55646439344E+02  0.96905522119E+02  0.41800000000E+01 0. -1.
        -11    1    4    4    0    0  0.86726645583E+02 -0.33815385237E+02 -0.13593877860E+03  0.16475540313E+03  0.00000000000E+00 0. -1.
         11    1    4    4    0    0  0.26346344081E+01  0.30069103375E+02 -0.82488440717E+02  0.87837549648E+02  0.00000000000E+00 0.  1.
</event>
<event>
 8    1  0.6635152E-009  0.1064288E+03  0.7561462E-02  0.1267330E+00
         -1   -1    0    0    0  501 -0.00000000000E+00  0.00000000000E+00  0.42390131964E+02  0.42390131964E+02  0.00000000000E+00 0.  1.
          1   -1    0    0  501    0  0.00000000000E+00 -0.00000000000E+00 -0.33252350887E+03  0.33252350887E+03  0.00000000000E+00 0. -1.
         25    2    1    2    0    0 -0.46317167404E+02  0.63286646266E+01 -0.14805380032E+03  0.19938094307E+03  0.12508997032E+03 0.  0.
         23    2    1    2    0    0  0.46317167404E+02 -0.63286646266E+01 -0.14207957658E+03  0.17553269777E+03  0.91868329207E+02 0.  0.
          5    1    3    3  502    0 -0.74443930879E+02  0.42408504350E+02 -0.11147970899E+03  0.14066121713E+03  0.41800000000E+01 0. -1.
         -5    1    3    3    0  502  0.28126763475E+02 -0.36079839723E+02 -0.36574091328E+02  0.58719725940E+02  0.41800000000E+01 0. -1.
        -11    1    4    4    0    0  0.59955140883E+02 -0.18621830857E+02 -0.14398178765E+03  0.15707369824E+03  0.00000000000E+00 0. -1.
         11    1    4    4    0    0 -0.13637973479E+02  0.12293166230E+02  0.19022110713E+01  0.18458999527E+02  0.00000000000E+00 0.  1.
</event>
<event>
 8    1  0.6635152E-009  0.6270028E+02  0.7561462E-02  0.1386837E+00
         -1   -1    0    0    0  501 -0.00000000000E+00  0.00000000000E+00  0.89839387954E+02  0.89839387954E+02  0.00000000000E+00 0.  1.
          1   -1    0    0  501    0  0.00000000000E+00 -0.00000000000E+00 -0.15804697874E+03  0.15804697874E+03  0.00000000000E+00 0. -1.
         25    2    1    2    0    0 -0.37449610062E+02  0.14476979706E+02 -0.68311695575E+02  0.14807527758E+03  0.12509094229E+03 0.  0.
         23    2    1    2    0    0  0.37449610062E+02 -0.14476979706E+02  0.10410479220E+00  0.99811089109E+02  0.91379354540E+02 0.  0.
          5    1    3    3  502    0 -0.33026180781E+02  0.42672494142E+02 -0.94639381783E+02  0.10902181138E+03  0.41800000000E+01 0.  1.
         -5    1    3    3    0  502 -0.44234292816E+01 -0.28195514437E+02  0.26327686208E+02  0.39053466197E+02  0.41800000000E+01 0.  1.
        -11    1    4    4    0    0  0.29432822458E+02 -0.47245249850E+01  0.44552064805E+02  0.53605024509E+02  0.00000000000E+00 0.  1.
         11    1    4    4    0    0  0.80167876042E+01 -0.97524547208E+01 -0.44447960013E+02  0.46206064600E+02  0.00000000000E+00 0. -1.
</event>
<event>
 8    1  0.6635152E-009  0.9037701E+02  0.7561462E-02  0.1301941E+00
          2   -1    0    0  501    0  0.00000000000E+00  0.00000000000E+00  0.31567713561E+02  0.31567713561E+02  0.00000000000E+00 0. -1.
         -2   -1    0    0    0  501 -0.00000000000E+00 -0.00000000000E+00 -0.42318966052E+03  0.42318966052E+03  0.00000000000E+00 0.  1.
         25    2    1    2    0    0 -0.17976792781E+02 -0.19188759159E+02 -0.16191028274E+03  0.20628392921E+03  0.12508695471E+03 0.  0.
         23    2    1    2    0    0  0.17976792781E+02  0.19188759159E+02 -0.22971166422E+03  0.24847344487E+03  0.90995772254E+02 0.  0.
          5    1    3    3  502    0  0.27192100863E+02 -0.33379667806E+02 -0.15159775237E+03  0.15764822706E+03  0.41800000000E+01 0.  1.
         -5    1    3    3    0  502 -0.45168893645E+02  0.14190908647E+02 -0.10312530369E+02  0.48635702153E+02  0.41800000000E+01 0.  1.
        -11    1    4    4    0    0  0.50298011208E+02 -0.35910325574E+01 -0.88798567461E+02  0.10211743744E+03  0.00000000000E+00 0.  1.
         11    1    4    4    0    0 -0.32321218427E+02  0.22779791716E+02 -0.14091309676E+03  0.14635600743E+03  0.00000000000E+00 0. -1.
</event>
<event>
 8    1  0.6635152E-009  0.5704507E+02  0.7561462E-02  0.1410668E+00
         -1   -1    0    0    0  501 -0.00000000000E+00  0.00000000000E+00  0.74566611860E+02  0.74566611860E+02  0.00000000000E+00 0.  1.
          1   -1    0    0  501    0  0.00000000000E+00 -0.00000000000E+00 -0.18498242311E+03  0.18498242311E+03  0.00000000000E+00 0. -1.
         25    2    1    2    0    0 -0.17697053721E+02 -0.33592629631E+02 -0.33259109405E+02  0.13488783576E+03  0.12508760690E+03 0.  0.
         23    2    1    2    0    0  0.17697053721E+02  0.33592629631E+02 -0.77156701850E+02  0.12466119922E+03  0.90253019197E+02 0.  0.
          5    1    3    3  502    0  0.18443588764E+01 -0.18002472935E+02  0.47098248271E+02  0.50628135278E+02  0.41800000000E+01 0.  1.
         -5    1    3    3    0  502 -0.19541412597E+02 -0.15590156696E+02 -0.80357357676E+02  0.84259700479E+02  0.41800000000E+01 0.  1.
        -11    1    4    4    0    0  0.45371739158E+01 -0.17155238350E+02  0.11866937499E+02  0.21347420350E+02  0.00000000000E+00 0.  1.
         11    1    4    4    0    0  0.13159879805E+02  0.50747867981E+02 -0.89023639349E+02  0.10331377887E+03  0.00000000000E+00 0. -1.
</event>
<event>
 8    1  0.6635152E-009  0.2649016E+03  0.7561462E-02  0.1104234E+00
          4   -1    0    0  501    0  0.00000000000E+00  0.00000000000E+00  0.88333477461E+03  0.88333477461E+03  0.00000000000E+00 0. -1.
         -4   -1    0    0    0  501 -0.00000000000E+00 -0.00000000000E+00 -0.11291801588E+03  0.11291801588E+03  0.00000000000E+00 0.  1.
         25    2    1    2    0    0  0.22734297423E+03  0.11623397114E+03  0.15328412705E+03  0.32302482545E+03  0.12511534788E+03 0.  0.
         23    2    1    2    0    0 -0.22734297423E+03 -0.11623397114E+03  0.61713263168E+03  0.67322796504E+03  0.84782332107E+02 0.  0.
          5    1    3    3  502    0  0.66763704239E+02  0.79333375344E+01 -0.11930139310E+02  0.68411480558E+02  0.41800000000E+01 0.  1.
         -5    1    3    3    0  502  0.16057926999E+03  0.10830063361E+03  0.16521426636E+03  0.25461334490E+03  0.41800000000E+01 0.  1.
        -11    1    4    4    0    0 -0.12373230500E+03 -0.16379715445E+02  0.30342010606E+03  0.32808800518E+03  0.00000000000E+00 0. -1.
         11    1    4    4    0    0 -0.10361066923E+03 -0.99854255694E+02  0.31371252562E+03  0.34513995986E+03  0.00000000000E+00 0.  1.
</event>
<event>
 8    1  0.6635152E-009  0.1129651E+03  0.7561462E-02  0.1255175E+00
          1   -1    0    0  501    0  0.00000000000E+00  0.00000000000E+00  0.50607828615E+02  0.50607828615E+02  0.00000000000E+00 0. -1.
         -1   -1    0    0    0  501 -0.00000000000E+00 -0.00000000000E+00 -0.30889058890E+03  0.30889058890E+03  0.00000000000E+00 0.  1.
         25    2    1    2    0    0 -0.40206473439E+02  0.53056671952E+02 -0.14569167806E+03  0.20323904999E+03  0.12509386652E+03 0.  0.
         23    2    1    2    0    0  0.40206473439E+02 -0.53056671952E+02 -0.11259108223E+03  0.15625936753E+03  0.85490743347E+02 0.  0.
          5    1    3    3  502    0 -0.66027177652E+02 -0.11155930876E+02 -0.44270999058E+02  0.80383062519E+02  0.41800000000E+01 0. -1.
         -5    1    3    3    0  502  0.25820704213E+02  0.64212602828E+02 -0.10142067900E+03  0.12285598747E+03  0.41800000000E+01 0. -1.
        -11    1    4    4    0    0 -0.75001521826E+01 -0.39074462021E+02 -0.81838070267E+01  0.40620691309E+02  0.00000000000E+00 0. -1.
         11    1    4    4    0    0  0.47706625622E+02 -0.13982209931E+02 -0.10440727520E+03  0.11563867622E+03  0.00000000000E+00 0.  1.
</event>
<event>
 8    1  0.6635152E-009  0.1253866E+03  0.7561462E-02  0.1234466E+00
          1   -1    0    0  501    0  0.00000000000E+00  0.00000000000E+00  0.64100695758E+02  0.64100695758E+02  0.00000000000E+00 0. -1.
         -1   -1    0    0    0  501 -0.00000000000E+00 -0.00000000000E+00 -0.29991610459E+03  0.29991610459E+03  0.00000000000E+00 0.  1.
         25    2    1    2    0    0 -0.40700800612E+02  0.58767837097E+02 -0.17885286066E+03  0.22966313285E+03  0.12508635008E+03 0.  0.
         23    2    1    2    0    0  0.40700800612E+02 -0.58767837097E+02 -0.56962548169E+02  0.13435366749E+03  0.98468077202E+02 0.  0.
          5    1    3    3  502    0 -0.41708934642E+02  0.89552948132E+02 -0.17111764791E+03  0.19763119079E+03  0.41800000000E+01 0.  1.
         -5    1    3    3    0  502  0.10081340299E+01 -0.30785111035E+02 -0.77352127486E+01  0.32031942057E+02  0.41800000000E+01 0.  1.
        -11    1    4    4    0    0  0.10273833386E+02 -0.81929942531E+02 -0.31319393048E+02  0.88311785830E+02  0.00000000000E+00 0.  1.
         11    1    4    4    0    0  0.30426967226E+02  0.23162105434E+02 -0.25643155121E+02  0.46041881665E+02  0.00000000000E+00 0. -1.
</event>
<event>
 8    1  0.6635152E-009  0.9795679E+02  0.7561462E-02  0.1284652E+00
         -1   -1    0    0    0  501 -0.00000000000E+00  0.00000000000E+00  0.10283757530E+03  0.10283757530E+03  0.00000000000E+00 0.  1.
          1   -1    0    0  501    0  0.00000000000E+00 -0.00000000000E+00 -0.12272108449E+03  0.12272108449E+03  0.00000000000E+00 0. -1.
         25    2    1    2    0    0  0.38495909414E+01  0.87994557301E+00 -0.39687495266E+02  0.13129375543E+03  0.12508940514E+03 0.  0.
         23    2    1    2    0    0 -0.38495909414E+01 -0.87994557301E+00  0.19803986074E+02  0.94264904359E+02  0.92076493607E+02 0.  0.
          5    1    3    3  502    0  0.30707961889E+02  0.49809245987E+02 -0.46568092180E+02  0.74899930030E+02  0.41800000000E+01 0. -1.
         -5    1    3    3    0  502 -0.26858370948E+02 -0.48929300414E+02  0.68805969143E+01  0.56393825396E+02  0.41800000000E+01 0. -1.
        -11    1    4    4    0    0 -0.24089004723E+02 -0.34474801560E+02 -0.12038081576E+02  0.43745942660E+02  0.00000000000E+00 0. -1.
         11    1    4    4    0    0  0.20239413782E+02  0.33594855987E+02  0.31842067649E+02  0.50518961700E+02  0.00000000000E+00 0.  1.
</event>
<event>
 8    1  0.6635152E-009  0.1251559E+03  0.7561462E-02  0.1234826E+00
         -2   -1    0    0    0  501 -0.00000000000E+00  0.00000000000E+00  0.20311947651E+02  0.20311947651E+02  0.00000000000E+00 0. -1.
          2   -1    0    0  501    0  0.00000000000E+00 -0.00000000000E+00 -0.12404971268E+04  0.12404971268E+04  0.00000000000E+00 0.  1.
         25    2    1    2    0    0 -0.63744728308E+01  0.10618767877E+03 -0.83563206469E+03  0.85162109292E+03  0.12514424214E+03 0.  0.
         23    2    1    2    0    0  0.63744728308E+01 -0.10618767877E+03 -0.38455311448E+03  0.40918798155E+03  0.90759293547E+02 0.  0.
          5    1    3    3  502    0 -0.10735592555E+01 -0.14090494485E+02 -0.11398386754E+02  0.18630356542E+02  0.41800000000E+01 0. -1.
         -5    1    3    3    0  502 -0.53009135753E+01  0.12027817325E+03 -0.82423367794E+03  0.83299073638E+03  0.41800000000E+01 0. -1.
        -11    1    4    4    0    0  0.25383997120E+02 -0.62997684390E+02 -0.33062515157E+03  0.33752932673E+03  0.00000000000E+00 0.  1.
         11    1    4    4    0    0 -0.19009524289E+02 -0.43189994378E+02 -0.53927962903E+02  0.71658654823E+02  0.00000000000E+00 0. -1.
</event>
<event>
 8    1  0.6635152E-009  0.3016420E+03  0.7561462E-02  0.1084423E+00
          1   -1    0    0  501    0  0.00000000000E+00  0.00000000000E+00  0.46693439383E+03  0.46693439383E+03  0.00000000000E+00 0. -1.
         -1   -1    0    0    0  501 -0.00000000000E+00 -0.00000000000E+00 -0.23436695401E+03  0.23436695401E+03  0.00000000000E+00 0.  1.
         25    2    1    2    0    0 -0.11180136266E+03 -0.26779116028E+03 -0.39457303396E+01  0.31602856626E+03  0.12508731225E+03 0.  0.
         23    2    1    2    0    0  0.11180136266E+03  0.26779116028E+03  0.23651317016E+03  0.38527278158E+03  0.91021900407E+02 0.  0.
          5    1    3    3  502    0 -0.53485622441E+02 -0.48682737518E+02 -0.45402083144E+02  0.85495861268E+02  0.41800000000E+01 0.  1.
         -5    1    3    3    0  502 -0.58315740217E+02 -0.21910842276E+03  0.41456352804E+02  0.23053270499E+03  0.41800000000E+01 0.  1.
        -11    1    4    4    0    0  0.78915233675E+02  0.25792989134E+03  0.21233896659E+03  0.34328308972E+03  0.00000000000E+00 0. -1.
         11    1    4    4    0    0  0.32886128983E+02  0.98612689343E+01  0.24174203566E+02  0.41989691861E+02  0.00000000000E+00 0.  1.
</event>
<event>
 8    1  0.6635152E-009  0.1350723E+03  0.7561462E-02  0.1220118E+00
          1   -1    0    0  501    0  0.00000000000E+00  0.00000000000E+00  0.47380862848E+02  0.47380862848E+02  0.00000000000E+00 0. -1.
         -1   -1    0    0    0  501 -0.00000000000E+00 -0.00000000000E+00 -0.60284635139E+03  0.60284635139E+03  0.00000000000E+00 0.  1.
         25    2    1    2    0    0 -0.10777268227E+03 -0.41575147336E+02 -0.18329274218E+03  0.25017553416E+03  0.12509246435E+03 0.  0.
         23    2    1    2    0    0  0.10777268227E+03  0.41575147336E+02 -0.37217274636E+03  0.40005168007E+03  0.90472922332E+02 0.  0.
          5    1    3    3  502    0 -0.10838670742E+03 -0.61562244447E+02 -0.87807466361E+02  0.15252938024E+03  0.41800000000E+01 0.  1.
         -5    1    3    3    0  502  0.61402514839E+00  0.19987097111E+02 -0.95485275818E+02  0.97646153922E+02  0.41800000000E+01 0.  1.
        -11    1    4    4    0    0  0.68468641476E+02  0.50021567200E+02 -0.33406646477E+03  0.34465999903E+03  0.00000000000E+00 0.  1.
         11    1    4    4    0    0  0.39304040799E+02 -0.84464198639E+01 -0.38106281590E+02  0.55391681038E+02  0.00000000000E+00 0. -1.
</event>
<event>
 8    1  0.6635152E-009  0.1425725E+03  0.7561462E-02  0.1209909E+00
          3   -1    0    0  501    0  0.00000000000E+00  0.00000000000E+00  0.23296737521E+02  0.23296737521E+02  0.00000000000E+00 0.  1.
         -3   -1    0    0    0  501 -0.00000000000E+00 -0.00000000000E+00 -0.12308281739E+04  0.12308281739E+04  0.00000000000E+00 0. -1.
         25    2    1    2    0    0  0.13629185676E+02  0.10469187941E+03 -0.92073600144E+03  0.93517265156E+03  0.12508780744E+03 0.  0.
         23    2    1    2    0    0 -0.13629185676E+02 -0.10469187941E+03 -0.28679543497E+03  0.31895225989E+03  0.91284052565E+02 0.  0.
          5    1    3    3  502    0 -0.13862853445E+02  0.11899507160E+03 -0.53953253714E+03  0.55268873410E+03  0.41800000000E+01 0.  1.
         -5    1    3    3    0  502  0.27492039121E+02 -0.14303192198E+02 -0.38120346430E+03  0.38248391746E+03  0.41800000000E+01 0.  1.
        -11    1    4    4    0    0 -0.51239003504E+01 -0.11805229836E+03 -0.21401858923E+03  0.24447199439E+03  0.00000000000E+00 0.  1.
         11    1    4    4    0    0 -0.85052853260E+01  0.13360418959E+02 -0.72776845738E+02  0.74480265499E+02  0.00000000000E+00 0. -1.
</event>
<event>
 8    1  0.6635152E-009  0.2503390E+03  0.7561462E-02  0.1113091E+00
         -1   -1    0    0    0  501 -0.00000000000E+00  0.00000000000E+00  0.14948823482E+03  0.14948823482E+03  0.00000000000E+00 0.  1.
          1   -1    0    0  501    0  0.00000000000E+00 -0.00000000000E+00 -0.43484885655E+03  0.43484885655E+03  0.00000000000E+00 0. -1.
         25    2    1    2    0    0  0.21590069122E+03 -0.69048846699E+02 -0.19293022327E+03  0.32287507152E+03  0.12508152964E+03 0.  0.
         23    2    1    2    0    0 -0.21590069122E+03  0.69048846699E+02 -0.92430398467E+02  0.26146201985E+03  0.91859444606E+02 0.  0.
          5    1    3    3  502    0  0.13549737491E+03  0.20927507289E+02 -0.11662207676E+03  0.18004355128E+03  0.41800000000E+01 0.  1.
         -5    1    3    3    0  502  0.80403316311E+02 -0.89976353988E+02 -0.76308146506E+02  0.14283152024E+03  0.41800000000E+01 0.  1.
        -11    1    4    4    0    0 -0.15592625210E+02  0.36690597140E+02 -0.27462488372E+02  0.48409897201E+02  0.00000000000E+00 0. -1.
         11    1    4    4    0    0 -0.20030806601E+03  0.32358249560E+02 -0.64967910094E+02  0.21305212265E+03  0.00000000000E+00 0.  1.
</event>
<event>
 8    1  0.6635152E-009  0.9449558E+02  0.7561462E-02  0.1292316E+00
          1   -1    0    0  501    0  0.00000000000E+00  0.00000000000E+00  0.61513411741E+02  0.61513411741E+02  0.00000000000E+00 0. -1.
         -1   -1    0    0    0  501 -0.00000000000E+00 -0.00000000000E+00 -0.23687117895E+03  0.23687117895E+03  0.00000000000E+00 0.  1.
         25    2    1    2    0    0  0.27188983158E+02  0.14761620338E+02 -0.22192653624E+02  0.13075849268E+03  0.12509245898E+03 0.  0.
         23    2    1    2    0    0 -0.27188983158E+02 -0.14761620338E+02 -0.15316511359E+03  0.16762609801E+03  0.60677924104E+02 0.  0.
          5    1    3    3  502    0  0.29184299749E+02 -0.50452762483E+02 -0.28614683450E+02  0.65065175808E+02  0.41800000000E+01 0.  1.
         -5    1    3    3    0  502 -0.19953165915E+01  0.65214382821E+02  0.64220298258E+01  0.65693316875E+02  0.41800000000E+01 0.  1.
        -11    1    4    4    0    0 -0.36824838010E+02 -0.29762317717E+02 -0.13027018812E+03  0.13860803066E+03  0.00000000000E+00 0.  1.
         11    1    4    4    0    0  0.96358548521E+01  0.15000697379E+02 -0.22894925465E+02  0.29018067348E+02  0.00000000000E+00 0. -1.
</event>
<event>
 8    1  0.6635152E-009  0.2005809E+03  0.7561462E-02  0.1149250E+00
          2   -1    0    0  501    0  0.00000000000E+00  0.00000000000E+00  0.11386178245E+03  0.11386178245E+03  0.00000000000E+00 0. -1.
         -2   -1    0    0    0  501 -0.00000000000E+00 -0.00000000000E+00 -0.36786160029E+03  0.36786160029E+03  0.00000000000E+00 0.  1.
         25    2    1    2    0    0 -0.96370525894E+02  0.14349702431E+03 -0.14631103024E+03  0.25871364016E+03  0.12508859176E+03 0.  0.
         23    2    1    2    0    0  0.96370525894E+02 -0.14349702431E+03 -0.10768878760E+03  0.22300974257E+03  0.90872416393E+02 0.  0.
          5    1    3    3  502    0 -0.84069862153E+02  0.16638840300E+03 -0.13420679904E+03  0.22974285557E+03  0.41800000000E+01 0.  1.
         -5    1    3    3    0  502 -0.12300663742E+02 -0.22891378694E+02 -0.12104231204E+02  0.28970784595E+02  0.41800000000E+01 0.  1.
        -11    1    4    4    0    0  0.44868164012E+02 -0.10969490815E+02 -0.53921327551E+02  0.70999939686E+02  0.00000000000E+00 0.  1.
         11    1    4    4    0    0  0.51502361882E+02 -0.13252753350E+03 -0.53767460047E+02  0.15200980289E+03  0.00000000000E+00 0. -1.
</event>
<event>
 8    1  0.6635152E-009  0.1471995E+03  0.7561462E-02  0.1203957E+00
         -1   -1    0    0    0  501 -0.00000000000E+00  0.00000000000E+00  0.36478394615E+02  0.36478394615E+02  0.00000000000E+00 0.  1.
          1   -1    0    0  501    0  0.00000000000E+00 -0.00000000000E+00 -0.99923195643E+03  0.99923195643E+03  0.00000000000E+00 0. -1.
         25    2    1    2    0    0  0.10053291834E+03  0.12196803686E+02 -0.79916418495E+03  0.81520905044E+03  0.12508705656E+03 0.  0.
         23    2    1    2    0    0 -0.10053291834E+03 -0.12196803686E+02 -0.16358937686E+03  0.22050130060E+03  0.10772051641E+03 0.  0.
          5    1    3    3  502    0  0.12124154801E+03  0.23221945621E+02 -0.75489810156E+03  0.76493619856E+03  0.41800000000E+01 0.  1.
         -5    1    3    3    0  502 -0.20708629672E+02 -0.11025141935E+02 -0.44266083387E+02  0.50272851879E+02  0.41800000000E+01 0.  1.
        -11    1    4    4    0    0 -0.70006758870E+01  0.39546884163E+02 -0.34879793014E+02  0.53193660060E+02  0.00000000000E+00 0.  1.
         11    1    4    4    0    0 -0.93532242451E+02 -0.51743687849E+02 -0.12870958385E+03  0.16730764054E+03  0.00000000000E+00 0. -1.
</event>
<event>
 8    1  0.6635152E-009  0.1318395E+03  0.7561462E-02  0.1224752E+00
         -2   -1    0    0    0  501 -0.00000000000E+00  0.00000000000E+00  0.10340207831E+02  0.10340207831E+02  0.00000000000E+00 0.  1.
          2   -1    0    0  501    0  0.00000000000E+00 -0.00000000000E+00 -0.21726985828E+04  0.21726985828E+04  0.00000000000E+00 0. -1.
         25    2    1    2    0    0  0.81902994812E+02 -0.37512381583E+01 -0.16154745496E+04  0.16223834377E+04  0.12509127109E+03 0.  0.
         23    2    1    2    0    0 -0.81902994812E+02  0.37512381583E+01 -0.54688382528E+03  0.56065535287E+03  0.92359807248E+02 0.  0.
          5    1    3    3  502    0  0.11549278397E+02 -0.58516666669E+02 -0.58293346601E+03  0.58599188075E+03  0.41800000000E+01 0. -1.
         -5    1    3    3    0  502  0.70353716415E+02  0.54765428511E+02 -0.10325410836E+04  0.10363915570E+04  0.41800000000E+01 0. -1.
        -11    1    4    4    0    0  0.18633142590E+01  0.27501450651E+02 -0.59751282156E+02  0.65802868078E+02  0.00000000000E+00 0.  1.
         11    1    4    4    0    0 -0.83766309071E+02 -0.23750212492E+02 -0.48713254313E+03  0.49485248479E+03  0.00000000000E+00 0. -1.
</event>
<event>
 8    1  0.6635152E-009  0.1036342E+03  0.7561462E-02  0.1272834E+00
          2   -1    0    0  501    0  0.00000000000E+00  0.00000000000E+00  0.14234156035E+03  0.14234156035E+03  0.00000000000E+00 0. -1.
         -2   -1    0    0    0  501 -0.00000000000E+00 -0.00000000000E+00 -0.97985980614E+02  0.97985980614E+02  0.00000000000E+00 0.  1.
         25    2    1    2    0    0  0.15274542585E+01  0.47263017858E+00  0.72840016522E+02  0.14475718136E+03  0.12508563888E+03 0.  0.
         23    2    1    2    0    0 -0.15274542585E+01 -0.47263017858E+00 -0.28484436787E+02  0.95570359599E+02  0.91212795150E+02 0.  0.
          5    1    3    3  502    0  0.23702762628E+02  0.54111272692E+02  0.61672248326E+02  0.85503154340E+02  0.41800000000E+01 0.  1.
         -5    1    3    3    0  502 -0.22175308370E+02 -0.53638642514E+02  0.11167768196E+02  0.59254027024E+02  0.41800000000E+01 0.  1.
        -11    1    4    4    0    0  0.28726396073E+02  0.33654272887E+02 -0.57741930972E+01  0.44622384750E+02  0.00000000000E+00 0.  1.
         11    1    4    4    0    0 -0.30253850332E+02 -0.34126903065E+02 -0.22710243690E+02  0.50947974849E+02  0.00000000000E+00 0. -1.
</event>
<event>
 8    1  0.6635152E-009  0.1223685E+03  0.7561462E-02  0.1239240E+00
          2   -1    0    0  501    0  0.00000000000E+00  0.00000000000E+00  0.45833285109E+03  0.45833285109E+03  0.00000000000E+00 0.  1.
         -2   -1    0    0    0  501 -0.00000000000E+00 -0.00000000000E+00 -0.59593209691E+02  0.59593209691E+02  0.00000000000E+00 0. -1.
         25    2    1    2    0    0 -0.34744949296E+02 -0.93059474581E+02  0.34156212782E+03  0.37706738035E+03  0.12509134603E+03 0.  0.
         23    2    1    2    0    0  0.34744949296E+02  0.93059474581E+02  0.57177513582E+02  0.14085868043E+03  0.81881759160E+02 0.  0.
          5    1    3    3  502    0 -0.46980239318E+02 -0.10853157821E+03  0.33588299602E+03  0.35611951051E+03  0.41800000000E+01 0.  1.
         -5    1    3    3    0  502  0.12235290022E+02  0.15472103628E+02  0.56791318011E+01  0.20947869835E+02  0.41800000000E+01 0.  1.
        -11    1    4    4    0    0  0.28634082563E+02  0.25324179550E+02  0.61826758278E+02  0.72689564542E+02  0.00000000000E+00 0.  1.
         11    1    4    4    0    0  0.61108667330E+01  0.67735295031E+02 -0.46492446964E+01  0.68169115891E+02  0.00000000000E+00 0. -1.
</event>
<event>
 8    1  0.6635152E-009  0.1815206E+03  0.7561462E-02  0.1166340E+00
          2   -1    0    0  501    0  0.00000000000E+00  0.00000000000E+00  0.74368375982E+03  0.74368375982E+03  0.00000000000E+00 0.  1.
         -2   -1    0    0    0  501 -0.00000000000E+00 -0.00000000000E+00 -0.56624484352E+02  0.56624484352E+02  0.00000000000E+00 0. -1.
         25    2    1    2    0    0 -0.50142671670E+02  0.16645509762E+03  0.34434899235E+03  0.40551841175E+03  0.12508943475E+03 0.  0.
         23    2    1    2    0    0  0.50142671670E+02 -0.16645509762E+03  0.34271028312E+03  0.39478983243E+03  0.90482520868E+02 0.  0.
          5    1    3    3  502    0 -0.57989920797E+02  0.15692763903E+03  0.20086878414E+03  0.26144761549E+03  0.41800000000E+01 0.  1.
         -5    1    3    3    0  502  0.78472491265E+01  0.95274585985E+01  0.14348020821E+03  0.14407079626E+03  0.41800000000E+01 0.  1.
        -11    1    4    4    0    0  0.55224269510E+02 -0.87044556354E+02  0.26153750386E+03  0.28111979770E+03  0.00000000000E+00 0.  1.
         11    1    4    4    0    0 -0.50815978400E+01 -0.79410541270E+02  0.81172779259E+02  0.11367003472E+03  0.00000000000E+00 0. -1.
</event>
<event>
 8    1  0.6635152E-009  0.9222156E+02  0.7561462E-02  0.1297559E+00
          1   -1    0    0  501    0  0.00000000000E+00  0.00000000000E+00  0.72855448861E+02  0.72855448861E+02  0.00000000000E+00 0. -1.
         -1   -1    0    0    0  501 -0.00000000000E+00 -0.00000000000E+00 -0.20360179002E+03  0.20360179002E+03  0.00000000000E+00 0.  1.
         25    2    1    2    0    0  0.45608051708E+02 -0.21003668008E+02 -0.40383116772E+02  0.14071191406E+03  0.12509115951E+03 0.  0.
         23    2    1    2    0    0 -0.45608051708E+02  0.21003668008E+02 -0.90363224385E+02  0.13574532482E+03  0.87977454151E+02 0.  0.
          5    1    3    3  502    0  0.62154759187E+02 -0.51519566392E+02  0.77614364571E+01  0.81210788117E+02  0.41800000000E+01 0.  1.
         -5    1    3    3    0  502 -0.16546707479E+02  0.30515898384E+02 -0.48144553229E+02  0.59501125940E+02  0.41800000000E+01 0.  1.
        -11    1    4    4    0    0 -0.27263989445E+02 -0.12846406992E+02 -0.92399295264E+02  0.97190457651E+02  0.00000000000E+00 0.  1.
         11    1    4    4    0    0 -0.18344062263E+02  0.33850075000E+02  0.20360708792E+01  0.38554867169E+02  0.00000000000E+00 0. -1.
</event>
<event>
 8    1  0.6635152E-009  0.1532465E+03  0.7561462E-02  0.1196540E+00
         -2   -1    0    0    0  501 -0.00000000000E+00  0.00000000000E+00  0.23411515456E+03  0.23411515456E+03  0.00000000000E+00 0.  1.
          2   -1    0    0  501    0  0.00000000000E+00 -0.00000000000E+00 -0.11972575893E+03  0.11972575893E+03  0.00000000000E+00 0. -1.
         25    2    1    2    0    0  0.92529731018E+02  0.88135150118E+02  0.53966629729E+02  0.18678617162E+03  0.12508845261E+03 0.  0.
         23    2    1    2    0    0 -0.92529731018E+02 -0.88135150118E+02  0.60422765897E+02  0.16705474187E+03  0.89032692492E+02 0.  0.
          5    1    3    3  502    0  0.31568777952E+02 -0.31217868806E+02  0.10278689724E+02  0.45763161348E+02  0.41800000000E+01 0.  1.
         -5    1    3    3    0  502  0.60960953066E+02  0.11935301892E+03  0.43687940005E+02  0.14102301027E+03  0.41800000000E+01 0.  1.
        -11    1    4    4    0    0 -0.70944436835E+02 -0.66032849064E+02 -0.25052220922E+01  0.96952186211E+02  0.00000000000E+00 0. -1.
         11    1    4    4    0    0 -0.21585294184E+02 -0.22102301054E+02  0.62927987990E+02  0.70102555654E+02  0.00000000000E+00 0.  1.
</event>
<event>
 8    1  0.6635152E-009  0.1569213E+03  0.7561462E-02  0.1192217E+00
         -2   -1    0    0    0  501 -0.00000000000E+00  0.00000000000E+00  0.18656806088E+02  0.18656806088E+02  0.00000000000E+00 0. -1.
          2   -1    0    0  501    0  0.00000000000E+00 -0.00000000000E+00 -0.14158585611E+04  0.14158585611E+04  0.00000000000E+00 0.  1.
         25    2    1    2    0    0 -0.69482546645E+02  0.95170816992E+02 -0.87130952576E+03  0.88809525339E+03  0.12509029027E+03 0.  0.
         23    2    1    2    0    0  0.69482546645E+02 -0.95170816992E+02 -0.52589222921E+03  0.54642011376E+03  0.90149849024E+02 0.  0.
          5    1    3    3  502    0 -0.98708300344E+02  0.36121040816E+02 -0.49732477128E+03  0.50832810141E+03  0.41800000000E+01 0.  1.
         -5    1    3    3    0  502  0.29225753698E+02  0.59049776176E+02 -0.37398475448E+03  0.37976715199E+03  0.41800000000E+01 0.  1.
        -11    1    4    4    0    0  0.14393253869E+02  0.14169019516E+02 -0.34243841815E+02  0.39756352615E+02  0.00000000000E+00 0. -1.
         11    1    4    4    0    0  0.55089292776E+02 -0.10933983651E+03 -0.49164838740E+03  0.50666376115E+03  0.00000000000E+00 0.  1.
</event>
<event>
 8    1  0.6635152E-009  0.1232604E+03  0.7561462E-02  0.1237813E+00
          1   -1    0    0  501    0  0.00000000000E+00  0.00000000000E+00  0.53934201227E+02  0.53934201227E+02  0.00000000000E+00 0. -1.
         -1   -1    0    0    0  501 -0.00000000000E+00 -0.00000000000E+00 -0.33387080239E+03  0.33387080239E+03  0.00000000000E+00 0.  1.
         25    2    1    2    0    0 -0.31355390765E+02  0.58044178379E+02 -0.21669696406E+03  0.25876392297E+03  0.12509558916E+03 0.  0.
         23    2    1    2    0    0  0.31355390765E+02 -0.58044178379E+02 -0.63239637104E+02  0.12904108064E+03  0.91104673964E+02 0.  0.
          5    1    3    3  502    0 -0.25924692205E+02 -0.35934005360E+02 -0.94498852424E+02  0.10445500427E+03  0.41800000000E+01 0.  1.
         -5    1    3    3    0  502 -0.54306985601E+01  0.93978183739E+02 -0.12219811163E+03  0.15430891871E+03  0.41800000000E+01 0.  1.
        -11    1    4    4    0    0 -0.28487344092E+02 -0.75081827709E+01 -0.18402432601E+01  0.29517589285E+02  0.00000000000E+00 0. -1.
         11    1    4    4    0    0  0.59842734857E+02 -0.50535995608E+02 -0.61399393844E+02  0.99523491356E+02  0.00000000000E+00 0.  1.
</event>
<event>
 8    1  0.6635152E-009  0.1276652E+03  0.7561462E-02  0.1230962E+00
         -2   -1    0    0    0  501 -0.00000000000E+00  0.00000000000E+00  0.13899992507E+04  0.13899992507E+04  0.00000000000E+00 0.  1.
          2   -1    0    0  501    0  0.00000000000E+00 -0.00000000000E+00 -0.13702113212E+02  0.13702113212E+02  0.00000000000E+00 0. -1.
         25    2    1    2    0    0 -0.36070377260E+02  0.59089242500E+02  0.95083959302E+03  0.96152791417E+03  0.12508951747E+03 0.  0.
         23    2    1    2    0    0  0.36070377260E+02 -0.59089242500E+02  0.42545754450E+03  0.44217344978E+03  0.98542512737E+02 0.  0.
          5    1    3    3  502    0  0.34187565987E+02  0.55615442587E+02  0.31009059598E+03  0.31691563110E+03  0.41800000000E+01 0. -1.
         -5    1    3    3    0  502 -0.70257943247E+02  0.34737999132E+01  0.64074899704E+03  0.64461228307E+03  0.41800000000E+01 0. -1.
        -11    1    4    4    0    0 -0.14629435468E+02 -0.66604387829E+02  0.21448740142E+03  0.22506667951E+03  0.00000000000E+00 0.  1.
         11    1    4    4    0    0  0.50699812729E+02  0.75151453293E+01  0.21097014309E+03  0.21710677026E+03  0.00000000000E+00 0. -1.
</event>
<event>
 8    1  0.6635152E-009  0.7587622E+02  0.7561462E-02  0.1341179E+00
         -2   -1    0    0    0  501 -0.00000000000E+00  0.00000000000E+00  0.82083567811E+02  0.82083567811E+02  0.00000000000E+00 0.  1.
          2   -1    0    0  501    0  0.00000000000E+00 -0.00000000000E+00 -0.14960802719E+03  0.14960802719E+03  0.00000000000E+00 0. -1.
         25    2    1    2    0    0  0.99347098708E+01  0.14862744909E+02 -0.23699384316E+02  0.12855885524E+03  0.12508444667E+03 0.  0.
         23    2    1    2    0    0 -0.99347098708E+01 -0.14862744909E+02 -0.43825075067E+02  0.10313273976E+03  0.91630372474E+02 0.  0.
          5    1    3    3  502    0 -0.11955480780E+02 -0.21167419272E+02 -0.64920457370E+02  0.69448767767E+02  0.41800000000E+01 0. -1.
         -5    1    3    3    0  502  0.21890190651E+02  0.36030164181E+02  0.41221073053E+02  0.59110087475E+02  0.41800000000E+01 0. -1.
        -11    1    4    4    0    0  0.28328112006E+02 -0.32049489376E+02 -0.43751739960E+02  0.61187142838E+02  0.00000000000E+00 0.  1.
         11    1    4    4    0    0 -0.38262821877E+02  0.17186744467E+02 -0.73335106481E-01  0.41945596925E+02  0.00000000000E+00 0. -1.
</event>
<event>
 8    1  0.6635152E-009  0.9813656E+02  0.7561462E-02  0.1284264E+00
          1   -1    0    0  501    0  0.00000000000E+00  0.00000000000E+00  0.22289914610E+03  0.22289914610E+03  0.00000000000E+00 0. -1.
         -1   -1    0    0    0  501 -0.00000000000E+00 -0.00000000000E+00 -0.14414026737E+03  0.14414026737E+03  0.00000000000E+00 0.  1.
         25    2    1    2    0    0  0.46194250594E+02  0.25904820557E+02 -0.93783676151E+02  0.16509193220E+03  0.12511994105E+03 0.  0.
         23    2    1    2    0    0 -0.46194250594E+02 -0.25904820557E+02  0.17254255488E+03  0.20194748127E+03  0.90591850809E+02 0.  0.
          5    1    3    3  502    0  0.14825580752E+02  0.74643288263E+02 -0.40785994766E+02  0.86442975981E+02  0.41800000000E+01 0. -1.
         -5    1    3    3    0  502  0.31368669842E+02 -0.48738467706E+02 -0.52997681384E+02  0.78648956218E+02  0.41800000000E+01 0. -1.
        -11    1    4    4    0    0 -0.10579120618E+02  0.76172535341E+01 -0.77315118769E+01  0.15156405259E+02  0.00000000000E+00 0.  1.
         11    1    4    4    0    0 -0.35615129975E+02 -0.33522074091E+02  0.18027406675E+03  0.18679107601E+03  0.00000000000E+00 0. -1.
</event>
<event>
 8    1  0.6635152E-009  0.1712383E+03  0.7561462E-02  0.1176563E+00
          2   -1    0    0  501    0  0.00000000000E+00  0.00000000000E+00  0.10167945290E+04  0.10167945290E+04  0.00000000000E+00 0. -1.
         -2   -1    0    0    0  501 -0.00000000000E+00 -0.00000000000E+00 -0.81963949460E+02  0.81963949460E+02  0.00000000000E+00 0.  1.
         25    2    1    2    0    0  0.14886042138E+03  0.61497720720E+01  0.89962957866E+03  0.92042273401E+03  0.12508951086E+03 0.  0.
         23    2    1    2    0    0 -0.14886042138E+03 -0.61497720720E+01  0.35201000912E+02  0.17833574448E+03  0.91472851418E+02 0.  0.
          5    1    3    3  502    0 -0.63691317212E+01 -0.23631860004E+02  0.46004101899E+02  0.52276958956E+02  0.41800000000E+01 0.  1.
         -5    1    3    3    0  502  0.15522955310E+03  0.29781632076E+02  0.85362547677E+03  0.86814577506E+03  0.41800000000E+01 0.  1.
        -11    1    4    4    0    0 -0.56307492351E+01  0.13813546103E+02 -0.18772555652E+02  0.23977661241E+02  0.00000000000E+00 0.  1.
         11    1    4    4    0    0 -0.14322967214E+03 -0.19963318175E+02  0.53973556564E+02  0.15435808324E+03  0.00000000000E+00 0. -1.
</event>
<event>
 8    1  0.6635152E-009  0.1059417E+03  0.7561462E-02  0.1268275E+00
          1   -1    0    0  501    0  0.00000000000E+00  0.00000000000E+00  0.83375336704E+03  0.83375336704E+03  0.00000000000E+00 0. -1.
         -1   -1    0    0    0  501 -0.00000000000E+00 -0.00000000000E+00 -0.16577820898E+02  0.16577820898E+02  0.00000000000E+00 0.  1.
         25    2    1    2    0    0  0.12283728544E+02  0.34523721155E+02  0.55271443667E+03  0.56787687226E+03  0.12509243077E+03 0.  0.
         23    2    1    2    0    0 -0.12283728544E+02 -0.34523721155E+02  0.26446110947E+03  0.28245431568E+03  0.92184514495E+02 0.  0.
          5    1    3    3  502    0 -0.53276772127E+02  0.32460177152E+02  0.21897551268E+03  0.22772752382E+03  0.41800000000E+01 0. -1.
         -5    1    3    3    0  502  0.65560500671E+02  0.20635440023E+01  0.33373892399E+03  0.34014934845E+03  0.41800000000E+01 0. -1.
        -11    1    4    4    0    0  0.18276160279E+02 -0.47147992518E+02  0.77132473762E+02  0.92229982878E+02  0.00000000000E+00 0.  1.
         11    1    4    4    0    0 -0.30559888823E+02  0.12624271364E+02  0.18732863571E+03  0.19022433280E+03  0.00000000000E+00 0. -1.
</event>
<event>
 8    1  0.6635152E-009  0.1628207E+03  0.7561462E-02  0.1185549E+00
         -1   -1    0    0    0  501 -0.00000000000E+00  0.00000000000E+00  0.15062637577E+04  0.15062637577E+04  0.00000000000E+00 0.  1.
          1   -1    0    0  501    0  0.00000000000E+00 -0.00000000000E+00 -0.17963775701E+02  0.17963775701E+02  0.00000000000E+00 0. -1.
         25    2    1    2    0    0  0.12601198695E+03 -0.24570431441E+01  0.76048430307E+03  0.78094069122E+03  0.12508768956E+03 0.  0.
         23    2    1    2    0    0 -0.12601198695E+03  0.24570431441E+01  0.72781567895E+03  0.74328684220E+03  0.82913263966E+02 0.  0.
          5    1    3    3  502    0  0.19285770026E+02 -0.53258601026E+02  0.18918254959E+03  0.19752450222E+03  0.41800000000E+01 0. -1.
         -5    1    3    3    0  502  0.10672621692E+03  0.50801557881E+02  0.57130175348E+03  0.58341618900E+03  0.41800000000E+01 0. -1.
        -11    1    4    4    0    0 -0.86591376530E+02 -0.37570163510E+02  0.47828713036E+03  0.48751221805E+03  0.00000000000E+00 0.  1.
         11    1    4    4    0    0 -0.39420610420E+02  0.40027206654E+02  0.24952854859E+03  0.25577462415E+03  0.00000000000E+00 0. -1.
</event>
<event>
 8    1  0.6635152E-009  0.8864801E+02  0.7561462E-02  0.1306159E+00
         -2   -1    0    0    0  501 -0.00000000000E+00  0.00000000000E+00  0.91307704569E+02  0.91307704569E+02  0.00000000000E+00 0.  1.
          2   -1    0    0  501    0  0.00000000000E+00 -0.00000000000E+00 -0.18278066781E+03  0.18278066781E+03  0.00000000000E+00 0. -1.
         25    2    1    2    0    0 -0.25650129318E+02  0.48034686196E+02 -0.98549289138E+02  0.16830062314E+03  0.12509147512E+03 0.  0.
         23    2    1    2    0    0  0.25650129318E+02 -0.48034686196E+02  0.70763258934E+01  0.10578774925E+03  0.90419651019E+02 0.  0.
          5    1    3    3  502    0 -0.32249775123E+02  0.77598296968E+02 -0.10743268926E+03  0.13645804780E+03  0.41800000000E+01 0.  1.
         -5    1    3    3    0  502  0.65996458056E+01 -0.29563610772E+02  0.88834001174E+01  0.31842575340E+02  0.41800000000E+01 0.  1.
        -11    1    4    4    0    0 -0.54588601148E+01 -0.19904351984E+02  0.44832608861E+02  0.49355295552E+02  0.00000000000E+00 0.  1.
         11    1    4    4    0    0  0.31108989432E+02 -0.28130334212E+02 -0.37756282968E+02  0.56432453694E+02  0.00000000000E+00 0. -1.
</event>
<event>
 8    1  0.6635152E-009  0.9846256E+02  0.7561462E-02  0.1283563E+00
          3   -1    0    0  501    0  0.00000000000E+00  0.00000000000E+00  0.29125467815E+02  0.29125467815E+02  0.00000000000E+00 0.  1.
         -3   -1    0    0    0  501 -0.00000000000E+00 -0.00000000000E+00 -0.78097078173E+03  0.78097078173E+03  0.00000000000E+00 0. -1.
         25    2    1    2    0    0 -0.31731193918E+02 -0.81633388049E+02 -0.59932992026E+03  0.61847931221E+03  0.12509767226E+03 0.  0.
         23    2    1    2    0    0  0.31731193918E+02  0.81633388049E+02 -0.15251539366E+03  0.19161693734E+03  0.76060677486E+02 0.  0.
          5    1    3    3  502    0 -0.87819708954E+01 -0.54958005267E+02 -0.56930297826E+03  0.57203221833E+03  0.41800000000E+01 0.  1.
         -5    1    3    3    0  502 -0.22949223023E+02 -0.26675382782E+02 -0.30026941996E+02  0.46447093876E+02  0.41800000000E+01 0.  1.
        -11    1    4    4    0    0  0.42128654241E+02  0.84900603345E+02 -0.15378409303E+03  0.18064463243E+03  0.00000000000E+00 0.  1.
         11    1    4    4    0    0 -0.10397460323E+02 -0.32672152959E+01  0.12686993679E+01  0.10972304910E+02  0.00000000000E+00 0. -1.
</event>
<event>
 8    1  0.6635152E-009  0.2096470E+03  0.7561462E-02  0.1141846E+00
          1   -1    0    0  501    0  0.00000000000E+00  0.00000000000E+00  0.17075868686E+04  0.17075868686E+04  0.00000000000E+00 0. -1.
         -1   -1    0    0    0  501 -0.00000000000E+00 -0.00000000000E+00 -0.28072561689E+02  0.28072561689E+02  0.00000000000E+00 0.  1.
         25    2    1    2    0    0  0.49426616438E+02 -0.18175887052E+03  0.96675618102E+03  0.99284732765E+03  0.12509606336E+03 0.  0.
         23    2    1    2    0    0 -0.49426616438E+02  0.18175887052E+03  0.71275812585E+03  0.74281210259E+03  0.90919724839E+02 0.  0.
          5    1    3    3  502    0 -0.32009429851E+02 -0.35059722117E+02  0.36587501997E+03  0.36896583900E+03  0.41800000000E+01 0. -1.
         -5    1    3    3    0  502  0.81436046289E+02 -0.14669914841E+03  0.60088116105E+03  0.62388148865E+03  0.41800000000E+01 0. -1.
        -11    1    4    4    0    0 -0.45179923897E+02  0.35452456397E+02  0.28431431049E+03  0.29005642440E+03  0.00000000000E+00 0. -1.
         11    1    4    4    0    0 -0.42466925411E+01  0.14630641413E+03  0.42844381537E+03  0.45275567819E+03  0.00000000000E+00 0.  1.
</event>
<event>
 8    1  0.6635152E-009  0.3541634E+03  0.7561462E-02  0.1060919E+00
         -2   -1    0    0    0  501 -0.00000000000E+00  0.00000000000E+00  0.45625032313E+02  0.45625032313E+02  0.00000000000E+00 0.  1.
          2   -1    0    0  501    0  0.00000000000E+00 -0.00000000000E+00 -0.29603231095E+04  0.29603231095E+04  0.00000000000E+00 0. -1.
         25    2    1    2    0    0 -0.30074228914E+03 -0.17687668895E+03 -0.16282070912E+04  0.16698618037E+04  0.12509526104E+03 0.  0.
         23    2    1    2    0    0  0.30074228914E+03  0.17687668895E+03 -0.12864909860E+04  0.13360863381E+04  0.91303658570E+02 0.  0.
          5    1    3    3  502    0 -0.13767092074E+03 -0.86448522706E+02 -0.10444303147E+04  0.10570140889E+04  0.41800000000E+01 0.  1.
         -5    1    3    3    0  502 -0.16307136840E+03 -0.90428166243E+02 -0.58377677645E+03  0.61284771482E+03  0.41800000000E+01 0.  1.
        -11    1    4    4    0    0  0.12628872341E+03  0.12380115410E+03 -0.57361355931E+03  0.60025668080E+03  0.00000000000E+00 0.  1.
         11    1    4    4    0    0  0.17445356573E+03  0.53075534853E+02 -0.71287742670E+03  0.73582965726E+03  0.00000000000E+00 0. -1.
</event>
<event>
 8    1  0.6635152E-009  0.9857975E+02  0.7561462E-02  0.1283311E+00
         -1   -1    0    0    0  501 -0.00000000000E+00  0.00000000000E+00  0.74241757003E+02  0.74241757003E+02  0.00000000000E+00 0.  1.
          1   -1    0    0  501    0  0.00000000000E+00 -0.00000000000E+00 -0.26404566166E+03  0.26404566166E+03  0.00000000000E+00 0. -1.
         25    2    1    2    0    0 -0.61877736589E+02  0.40573069464E+02 -0.16310721921E+03  0.21846492018E+03  0.12509167895E+03 0.  0.
         23    2    1    2    0    0  0.61877736589E+02 -0.40573069464E+02 -0.26696685448E+02  0.11982249848E+03  0.90386336782E+02 0.  0.
          5    1    3    3  502    0 -0.46376645399E+02  0.49528581469E+02 -0.15510164583E+02  0.69727406565E+02  0.41800000000E+01 0. -1.
         -5    1    3    3    0  502 -0.15501091190E+02 -0.89555120053E+01 -0.14759705463E+03  0.14873751362E+03  0.41800000000E+01 0. -1.
        -11    1    4    4    0    0  0.82225249260E+02 -0.27927683056E+02 -0.41708075321E+01  0.86938729760E+02  0.00000000000E+00 0.  1.
         11    1    4    4    0    0 -0.20347512671E+02 -0.12645386409E+02 -0.22525877916E+02  0.32883768719E+02  0.00000000000E+00 0. -1.
</event>
<event>
 7    1  0.6635152E-009  0.1144699E+03  0.7561462E-02  0.1252509E+00
          1   -1    0    0  501    0  0.00000000000E+00  0.00000000000E+00  0.38131666818E+02  0.38131666818E+02  0.00000000000E+00 0. -1.
         -1   -1    0    0    0  501 -0.00000000000E+00 -0.00000000000E+00 -0.54793028173E+03  0.54793028173E+03  0.00000000000E+00 0.  1.
         23    2    1    2    0    0  0.78986995695E+02  0.24362166150E+01 -0.36609253821E+03  0.37971499299E+03  0.62568752022E+02 0.  0.
          5    1    1    2  502    0 -0.10525285518E+03 -0.29675329767E+02 -0.11429674978E+03  0.15824034925E+03  0.41800000000E+01 0. -1.
         -5    1    1    2    0  502  0.26265859488E+02  0.27239113152E+02 -0.29409326920E+02  0.48106606302E+02  0.41800000000E+01 0. -1.
        -11    1    3    3    0    0  0.68721036394E+02 -0.47769010326E+01 -0.35848158371E+03  0.36504033405E+03  0.00000000000E+00 0.  1.
         11    1    3    3    0    0  0.10265959301E+02  0.72131176476E+01 -0.76109544997E+01  0.14674658938E+02  0.00000000000E+00 0. -1.
</event>
<event>
 8    1  0.6635152E-009  0.8596305E+02  0.7561462E-02  0.1312933E+00
          2   -1    0    0  501    0  0.00000000000E+00  0.00000000000E+00  0.10081390310E+04  0.10081390310E+04  0.00000000000E+00 0. -1.
         -2   -1    0    0    0  501 -0.00000000000E+00 -0.00000000000E+00 -0.15928772862E+02  0.15928772862E+02  0.00000000000E+00 0.  1.
         25    2    1    2    0    0 -0.63520348745E+02 -0.92959816386E+01  0.61533234790E+03  0.63118967613E+03  0.12508100934E+03 0.  0.
         23    2    1    2    0    0  0.63520348745E+02  0.92959816386E+01  0.37687791020E+03  0.39287812770E+03  0.90526316872E+02 0.  0.
          5    1    3    3  502    0 -0.42789340917E+02  0.21029640387E+01  0.52701333472E+02  0.68045963169E+02  0.41800000000E+01 0.  1.
         -5    1    3    3    0  502 -0.20731007828E+02 -0.11398945677E+02  0.56263101443E+03  0.56314371296E+03  0.41800000000E+01 0.  1.
        -11    1    4    4    0    0  0.18324431220E+02  0.44137617082E+02  0.10944147461E+03  0.11942089593E+03  0.00000000000E+00 0.  1.
         11    1    4    4    0    0  0.45195917525E+02 -0.34841635443E+02  0.26743643560E+03  0.27345723177E+03  0.00000000000E+00 0. -1.
</event>
<event>
 8    1  0.6635152E-009  0.1074294E+03  0.7561462E-02  0.1265406E+00
          1   -1    0    0  501    0  0.00000000000E+00  0.00000000000E+00  0.54159124015E+03  0.54159124015E+03  0.00000000000E+00 0. -1.
         -1   -1    0    0    0  501 -0.00000000000E+00 -0.00000000000E+00 -0.51363733512E+02  0.51363733512E+02  0.00000000000E+00 0.  1.
         25    2    1    2    0    0  0.17155765529E+02  0.64046407023E+01  0.38563909124E+02  0.13217261639E+03  0.12508831169E+03 0.  0.
         23    2    1    2    0    0 -0.17155765529E+02 -0.64046407023E+01  0.45166359752E+03  0.46078235728E+03  0.89359027207E+02 0.  0.
          5    1    3    3  502    0 -0.98918700372E+01  0.61414252768E+02  0.59982423553E+01  0.62633943251E+02  0.41800000000E+01 0.  1.
         -5    1    3    3    0  502  0.27047635566E+02 -0.55009612065E+02  0.32565666769E+02  0.69538673135E+02  0.41800000000E+01 0.  1.
        -11    1    4    4    0    0  0.29804357484E+02 -0.26603807142E+02  0.21112378745E+03  0.21487046308E+03  0.00000000000E+00 0. -1.
         11    1    4    4    0    0 -0.46960123012E+02  0.20199166440E+02  0.24053981007E+03  0.24591189419E+03  0.00000000000E+00 0.  1.
</event>
<event>
 8    1  0.6635152E-009  0.8076170E+02  0.7561462E-02  0.1326904E+00
         -2   -1    0    0    0  501 -0.00000000000E+00  0.00000000000E+00  0.20708903286E+03  0.20708903286E+03  0.00000000000E+00 0.  1.
          2   -1    0    0  501    0  0.00000000000E+00 -0.00000000000E+00 -0.60027444668E+02  0.60027444668E+02  0.00000000000E+00 0. -1.
         25    2    1    2    0    0  0.23956817261E+02  0.13718469674E+02  0.91750829052E+02  0.15757214971E+03  0.12509453317E+03 0.  0.
         23    2    1    2    0    0 -0.23956817261E+02 -0.13718469674E+02  0.55310759144E+02  0.10954432782E+03  0.90435359113E+02 0.  0.
          5    1    3    3  502    0  0.51218190640E+02  0.16467158037E+02 -0.75388668002E+01  0.54486486938E+02  0.41800000000E+01 0.  1.
         -5    1    3    3    0  502 -0.27261373379E+02 -0.27486883633E+01  0.99289695852E+02  0.10308566277E+03  0.41800000000E+01 0.  1.
        -11    1    4    4    0    0 -0.32164984622E+02 -0.40565771909E+02  0.51037214593E+01  0.52021303896E+02  0.00000000000E+00 0. -1.
         11    1    4    4    0    0  0.82081673612E+01  0.26847302236E+02  0.50207037685E+02  0.57523023928E+02  0.00000000000E+00 0.  1.
</event>
<event>
 8    1  0.6635152E-009  0.1064523E+03  0.7561462E-02  0.1267284E+00
         -1   -1    0    0    0  501 -0.00000000000E+00  0.00000000000E+00  0.23561998918E+03  0.23561998918E+03  0.00000000000E+00 0.  1.
          1   -1    0    0  501    0  0.00000000000E+00 -0.00000000000E+00 -0.90092270281E+02  0.90092270281E+02  0.00000000000E+00 0. -1.
         25    2    1    2    0    0 -0.28544320881E+02  0.73741989317E+02  0.14063963781E+03  0.20414998506E+03  0.12508017202E+03 0.  0.
         23    2    1    2    0    0  0.28544320881E+02 -0.73741989317E+02  0.48880810880E+01  0.12156227440E+03  0.92199967343E+02 0.  0.
          5    1    3    3  502    0 -0.61657805781E+02  0.67639839437E+02  0.14333310098E+03  0.17011373586E+03  0.41800000000E+01 0. -1.
         -5    1    3    3    0  502  0.33113484900E+02  0.61021498800E+01 -0.26934631698E+01  0.34036249195E+02  0.41800000000E+01 0. -1.
        -11    1    4    4    0    0 -0.90989203474E+01 -0.12329309528E+02  0.38970247423E+02  0.41874603391E+02  0.00000000000E+00 0.  1.
         11    1    4    4    0    0  0.37643241228E+02 -0.61412679789E+02 -0.34082166335E+02  0.79687671011E+02  0.00000000000E+00 0. -1.
</event>
<event>
 8    1  0.6635152E-009  0.9113704E+02  0.7561462E-02  0.1300121E+00
         -1   -1    0    0    0  501 -0.00000000000E+00  0.00000000000E+00  0.61632473488E+02  0.61632473488E+02  0.00000000000E+00 0.  1.
          1   -1    0    0  501    0  0.00000000000E+00 -0.00000000000E+00 -0.27807117447E+03  0.27807117447E+03  0.00000000000E+00 0. -1.
         25    2    1    2    0    0  0.39109684728E+02  0.25894805012E+02 -0.46945177461E+02  0.14160562428E+03  0.12509274470E+03 0.  0.
         23    2    1    2    0    0 -0.39109684728E+02 -0.25894805012E+02 -0.16949352352E+03  0.19809802368E+03  0.91184779991E+02 0.  0.
          5    1    3    3  502    0 -0.34974820898E+02  0.32099062355E+01  0.18664780514E+02  0.39992349600E+02  0.41800000000E+01 0.  1.
         -5    1    3    3    0  502  0.74084505627E+02  0.22684898776E+02 -0.65609957975E+02  0.10161327468E+03  0.41800000000E+01 0.  1.
        -11    1    4    4    0    0 -0.26152986655E+02  0.12357021080E+02 -0.15088148277E+03  0.15362908749E+03  0.00000000000E+00 0. -1.
         11    1    4    4    0    0 -0.12956698073E+02 -0.38251826091E+02 -0.18612040753E+02  0.44468936183E+02  0.00000000000E+00 0.  1.
</event>
<event>
 8    1  0.6635152E-009  0.1140929E+03  0.7561462E-02  0.1253173E+00
          1   -1    0    0  501    0  0.00000000000E+00  0.00000000000E+00  0.86257438417E+03  0.86257438417E+03  0.00000000000E+00 0. -1.
         -1   -1    0    0    0  501 -0.00000000000E+00 -0.00000000000E+00 -0.18751119610E+02  0.18751119610E+02  0.00000000000E+00 0.  1.
         25    2    1    2    0    0 -0.27067630575E+02 -0.22733806787E+02  0.27643015605E+03  0.30546783885E+03  0.12508991488E+03 0.  0.
         23    2    1    2    0    0  0.27067630575E+02  0.22733806787E+02  0.56739310851E+03  0.57585766493E+03  0.91802113642E+02 0.  0.
          5    1    3    3  502    0  0.36274124109E+01 -0.71723762330E+02  0.15867148949E+03  0.17421702035E+03  0.41800000000E+01 0. -1.
         -5    1    3    3    0  502 -0.30695042986E+02  0.48989955543E+02  0.11775866656E+03  0.13125081850E+03  0.41800000000E+01 0. -1.
        -11    1    4    4    0    0 -0.33765215821E+02  0.15058999788E+02  0.20188146211E+03  0.20523885602E+03  0.00000000000E+00 0.  1.
         11    1    4    4    0    0  0.60832846395E+02  0.76748069990E+01  0.36551164640E+03  0.37061880891E+03  0.00000000000E+00 0. -1.
</event>
<event>
 8    1  0.6635152E-009  0.1042241E+03  0.7561462E-02  0.1271656E+00
          3   -1    0    0  501    0  0.00000000000E+00  0.00000000000E+00  0.40911511532E+02  0.40911511532E+02  0.00000000000E+00 0. -1.
         -3   -1    0    0    0  501 -0.00000000000E+00 -0.00000000000E+00 -0.41609983787E+03  0.41609983787E+03  0.00000000000E+00 0.  1.
         25    2    1    2    0    0 -0.64269878142E+02  0.35598661819E+02 -0.21420313403E+03  0.25870675805E+03  0.12509325351E+03 0.  0.
         23    2    1    2    0    0  0.64269878142E+02 -0.35598661819E+02 -0.16098519232E+03  0.19830459136E+03  0.89501937687E+02 0.  0.
          5    1    3    3  502    0  0.22540024856E+02  0.41945713460E+02 -0.12579455210E+03  0.13457056638E+03  0.41800000000E+01 0.  1.
         -5    1    3    3    0  502 -0.86809902998E+02 -0.63470516406E+01 -0.88408581927E+02  0.12413619167E+03  0.41800000000E+01 0.  1.
        -11    1    4    4    0    0  0.22473800969E+02 -0.13686097081E+02 -0.14663780090E+03  0.14897995045E+03  0.00000000000E+00 0.  1.
         11    1    4    4    0    0  0.41796077173E+02 -0.21912564738E+02 -0.14347391416E+02  0.49324640910E+02  0.00000000000E+00 0. -1.
</event>
<event>
 8    1  0.6635152E-009  0.9260030E+02  0.7561462E-02  0.1296674E+00
         -1   -1    0    0    0  501 -0.00000000000E+00  0.00000000000E+00  0.29366213695E+03  0.29366213695E+03  0.00000000000E+00 0.  1.
          1   -1    0    0  501    0  0.00000000000E+00 -0.00000000000E+00 -0.56875697252E+02  0.56875697252E+02  0.00000000000E+00 0. -1.
         25    2    1    2    0    0 -0.51278487212E+02  0.35154417726E+01  0.19729496758E+03  0.23919627846E+03  0.12509082228E+03 0.  0.
         23    2    1    2    0    0  0.51278487212E+02 -0.35154417726E+01  0.39491472120E+02  0.11134155574E+03  0.90529133888E+02 0.  0.
          5    1    3    3  502    0  0.76478105578E+01 -0.17023008144E+02 -0.10760390320E+02  0.21943796673E+02  0.41800000000E+01 0.  1.
         -5    1    3    3    0  502 -0.58926297770E+02  0.20538449916E+02  0.20805535790E+03  0.21725248179E+03  0.41800000000E+01 0.  1.
        -11    1    4    4    0    0  0.50427651200E+02 -0.41641045785E+02  0.30500191426E+02  0.72160836862E+02  0.00000000000E+00 0.  1.
         11    1    4    4    0    0  0.85083601184E+00  0.38125604012E+02  0.89912806936E+01  0.39180718877E+02  0.00000000000E+00 0. -1.
</event>
<event>
 8    1  0.6635152E-009  0.1467556E+03  0.7561462E-02  0.1204517E+00
          2   -1    0    0  501    0  0.00000000000E+00  0.00000000000E+00  0.24232766116E+03  0.24232766116E+03  0.00000000000E+00 0. -1.
         -2   -1    0    0    0  501 -0.00000000000E+00 -0.00000000000E+00 -0.10849062748E+03  0.10849062748E+03  0.00000000000E+00 0.  1.
         25    2    1    2    0    0 -0.74509722466E+02 -0.72968774003E+02  0.12752675732E+03  0.20685526332E+03  0.12509950203E+03 0.  0.
         23    2    1    2    0    0  0.74509722466E+02  0.72968774003E+02  0.63102763593E+01  0.14396302532E+03  0.99042376532E+02 0.  0.
          5    1    3    3  502    0 -0.10662310287E+03 -0.63590537998E+02  0.11913227606E+03  0.17211105190E+03  0.41800000000E+01 0. -1.
         -5    1    3    3    0  502  0.32113380400E+02 -0.93782360054E+01  0.83944812591E+01  0.34744211416E+02  0.41800000000E+01 0. -1.
        -11    1    4    4    0    0  0.86517841445E+02  0.30962847157E+02  0.26783667909E+02  0.95715200773E+02  0.00000000000E+00 0. -1.
         11    1    4    4    0    0 -0.12008118980E+02  0.42005926846E+02 -0.20473391549E+02  0.48247824543E+02  0.00000000000E+00 0.  1.
</event>
<event>
 8    1  0.6635152E-009  0.2332379E+03  0.7561462E-02  0.1124381E+00
         -1   -1    0    0    0  501 -0.00000000000E+00  0.00000000000E+00  0.33104681070E+02  0.33104681070E+02  0.00000000000E+00 0.  1.
          1   -1    0    0  501    0  0.00000000000E+00 -0.00000000000E+00 -0.17981061638E+04  0.17981061638E+04  0.00000000000E+00 0. -1.
         25    2    1    2    0    0  0.21438010232E+03  0.42069493330E+02 -0.88244457546E+03  0.91765029868E+03  0.12507986000E+03 0.  0.
         23    2    1    2    0    0 -0.21438010232E+03 -0.42069493330E+02 -0.88255690731E+03  0.91356054623E+03  0.89204856597E+02 0.  0.
          5    1    3    3  502    0  0.54120719359E+02  0.64756696486E+02 -0.21903638787E+03  0.23476987374E+03  0.41800000000E+01 0.  1.
         -5    1    3    3    0  502  0.16025938296E+03 -0.22687203155E+02 -0.66340818759E+03  0.68288042494E+03  0.41800000000E+01 0.  1.
        -11    1    4    4    0    0 -0.13311442036E+03 -0.39133409230E+02 -0.70136747219E+03  0.71495958184E+03  0.00000000000E+00 0. -1.
         11    1    4    4    0    0 -0.81265681958E+02 -0.29360841003E+01 -0.18118943512E+03  0.19860096438E+03  0.00000000000E+00 0.  1.
</event>
<event>
 8    1  0.6635152E-009  0.1135407E+03  0.7561462E-02  0.1254150E+00
          3   -1    0    0  501    0  0.00000000000E+00  0.00000000000E+00  0.28651572317E+03  0.28651572317E+03  0.00000000000E+00 0. -1.
         -3   -1    0    0    0  501 -0.00000000000E+00 -0.00000000000E+00 -0.64725063626E+02  0.64725063626E+02  0.00000000000E+00 0.  1.
         25    2    1    2    0    0 -0.67585871213E+02 -0.20705659353E+02  0.68407900382E+02  0.15913373497E+03  0.12508928992E+03 0.  0.
         23    2    1    2    0    0  0.67585871213E+02  0.20705659353E+02  0.15338275916E+03  0.19210705183E+03  0.91554760864E+02 0.  0.
          5    1    3    3  502    0  0.71817251689E+01 -0.56293019070E+02  0.10147797079E+02  0.57800790288E+02  0.41800000000E+01 0. -1.
         -5    1    3    3    0  502 -0.74767596382E+02  0.35587359717E+02  0.58260103303E+02  0.10133294468E+03  0.41800000000E+01 0. -1.
        -11    1    4    4    0    0 -0.12955441143E+01 -0.11257592361E+02 -0.79190758592E+01  0.13824745306E+02  0.00000000000E+00 0.  1.
         11    1    4    4    0    0  0.68881415328E+02  0.31963251714E+02  0.16130183502E+03  0.17828230652E+03  0.00000000000E+00 0. -1.
</event>
<event>
 8    1  0.6635152E-009  0.1058498E+03  0.7561462E-02  0.1268454E+00
         -1   -1    0    0    0  501 -0.00000000000E+00  0.00000000000E+00  0.13776989766E+03  0.13776989766E+03  0.00000000000E+00 0.  1.
          1   -1    0    0  501    0  0.00000000000E+00 -0.00000000000E+00 -0.12125951370E+03  0.12125951370E+03  0.00000000000E+00 0. -1.
         25    2    1    2    0    0 -0.57216498779E+02 -0.12488492440E+02  0.47304084404E+02  0.14600013204E+03  0.12509465208E+03 0.  0.
         23    2    1    2    0    0  0.57216498779E+02  0.12488492440E+02 -0.30793700440E+02  0.11302927933E+03  0.91638833591E+02 0.  0.
          5    1    3    3  502    0 -0.45584546634E+02 -0.54080410254E+02  0.67752715453E+02  0.98033384703E+02  0.41800000000E+01 0. -1.
         -5    1    3    3    0  502 -0.11631952145E+02  0.41591917814E+02 -0.20448631049E+02  0.47966747335E+02  0.41800000000E+01 0. -1.
        -11    1    4    4    0    0 -0.17656221791E+02 -0.86449093546E+01  0.13175471313E+02  0.23665791134E+02  0.00000000000E+00 0. -1.
         11    1    4    4    0    0  0.74872720570E+02  0.21133401795E+02 -0.43969171753E+02  0.89363488191E+02  0.00000000000E+00 0.  1.
</event>
<event>
 8    1  0.6635152E-009  0.1546053E+03  0.7561462E-02  0.1194926E+00
          1   -1    0    0  501    0  0.00000000000E+00  0.00000000000E+00  0.11090500413E+04  0.11090500413E+04  0.00000000000E+00 0. -1.
         -1   -1    0    0    0  501 -0.00000000000E+00 -0.00000000000E+00 -0.21555717776E+02  0.21555717776E+02  0.00000000000E+00 0.  1.
         25    2    1    2    0    0 -0.82924627667E+02 -0.70928304841E+02  0.58493125562E+03  0.60802924043E+03  0.12509062762E+03 0.  0.
         23    2    1    2    0    0  0.82924627667E+02  0.70928304841E+02  0.50256306795E+03  0.52257651869E+03  0.92786110586E+02 0.  0.
          5    1    3    3  502    0  0.89740728502E+01  0.28715777552E+02  0.10500980309E+03  0.10931450502E+03  0.41800000000E+01 0.  1.
         -5    1    3    3    0  502 -0.91898700517E+02 -0.99644082393E+02  0.47992145253E+03  0.49871473540E+03  0.41800000000E+01 0.  1.
        -11    1    4    4    0    0  0.93353773052E+02  0.84627328052E+02  0.43955415247E+03  0.45725765663E+03  0.00000000000E+00 0.  1.
         11    1    4    4    0    0 -0.10429145385E+02 -0.13699023211E+02  0.63008915483E+02  0.65318862060E+02  0.00000000000E+00 0. -1.
</event>
<event>
 8    1  0.6635152E-009  0.8263312E+02  0.7561462E-02  0.1321741E+00
         -1   -1    0    0    0  501 -0.00000000000E+00  0.00000000000E+00  0.29376479328E+03  0.29376479328E+03  0.00000000000E+00 0.  1.
          1   -1    0    0  501    0  0.00000000000E+00 -0.00000000000E+00 -0.61216971571E+02  0.61216971571E+02  0.00000000000E+00 0. -1.
         25    2    1    2    0    0 -0.35991469854E+01  0.65040760789E+02  0.18269137624E+03  0.23079575278E+03  0.12508911273E+03 0.  0.
         23    2    1    2    0    0  0.35991469854E+01 -0.65040760789E+02  0.49856445466E+02  0.12418601207E+03  0.93237578353E+02 0.  0.
          5    1    3    3  502    0 -0.11024257056E+02  0.29831027635E+02  0.19096224026E+03  0.19363748103E+03  0.41800000000E+01 0.  1.
         -5    1    3    3    0  502  0.74251100702E+01  0.35209733154E+02 -0.82708640134E+01  0.37158271755E+02  0.41800000000E+01 0.  1.
        -11    1    4    4    0    0 -0.33980478771E+02 -0.35700521927E+02 -0.72240959574E+01  0.49813529947E+02  0.00000000000E+00 0. -1.
         11    1    4    4    0    0  0.37579625756E+02 -0.29340238862E+02  0.57080541424E+02  0.74372482126E+02  0.00000000000E+00 0.  1.
</event>
<event>
 8    1  0.6635152E-009  0.1135612E+03  0.7561462E-02  0.1254114E+00
          1   -1    0    0  501    0  0.00000000000E+00  0.00000000000E+00  0.37726882489E+03  0.37726882489E+03  0.00000000000E+00 0. -1.
         -1   -1    0    0    0  501 -0.00000000000E+00 -0.00000000000E+00 -0.42548541593E+02  0.42548541593E+02  0.00000000000E+00 0.  1.
         25    2    1    2    0    0 -0.58744837254E+02 -0.14496132094E+02  0.14707856058E+03  0.20233804994E+03  0.12508992653E+03 0.  0.
         23    2    1    2    0    0  0.58744837254E+02  0.14496132094E+02  0.18764172271E+03  0.21747931655E+03  0.91797294477E+02 0.  0.
          5    1    3    3  502    0 -0.89452533615E+02 -0.15630556815E+01  0.14269190542E+03  0.16847151447E+03  0.41800000000E+01 0.  1.
         -5    1    3    3    0  502  0.30707696360E+02 -0.12933076412E+02  0.43866551620E+01  0.33866535470E+02  0.41800000000E+01 0.  1.
        -11    1    4    4    0    0  0.45879487549E+02 -0.31867952777E+02  0.64822209990E+02  0.85571097340E+02  0.00000000000E+00 0.  1.
         11    1    4    4    0    0  0.12865349705E+02  0.46364084871E+02  0.12281951272E+03  0.13190821921E+03  0.00000000000E+00 0. -1.
</event>
<event>
 8    1  0.6635152E-009  0.1181516E+03  0.7561462E-02  0.1246178E+00
          1   -1    0    0  501    0  0.00000000000E+00  0.00000000000E+00  0.90967855586E+02  0.90967855586E+02  0.00000000000E+00 0. -1.
         -1   -1    0    0    0  501 -0.00000000000E+00 -0.00000000000E+00 -0.21751148110E+03  0.21751148110E+03  0.00000000000E+00 0.  1.
         25    2    1    2    0    0 -0.55424650685E+02  0.67736392155E+02 -0.85385028307E+02  0.17491846256E+03  0.12508299148E+03 0.  0.
         23    2    1    2    0    0  0.55424650685E+02 -0.67736392155E+02 -0.41158597212E+02  0.13356087414E+03  0.92110619636E+02 0.  0.
          5    1    3    3  502    0  0.23430015576E+02  0.35635763297E+02  0.12963783200E+02  0.44770585550E+02  0.41800000000E+01 0. -1.
         -5    1    3    3    0  502 -0.78854666261E+02  0.32100628858E+02 -0.98348811507E+02  0.13014787701E+03  0.41800000000E+01 0. -1.
        -11    1    4    4    0    0 -0.92998354489E+01 -0.33943995259E+02  0.18052602982E+02  0.39554749752E+02  0.00000000000E+00 0. -1.
         11    1    4    4    0    0  0.64724486134E+02 -0.33792396895E+02 -0.59211200194E+02  0.94006124384E+02  0.00000000000E+00 0.  1.
</event>
<event>
 8    1  0.6635152E-009  0.1054857E+03  0.7561462E-02  0.1269166E+00
          4   -1    0    0  501    0  0.00000000000E+00  0.00000000000E+00  0.15527292567E+03  0.15527292567E+03  0.00000000000E+00 0. -1.
         -4   -1    0    0    0  501 -0.00000000000E+00 -0.00000000000E+00 -0.94660954972E+02  0.94660954972E+02  0.00000000000E+00 0.  1.
         25    2    1    2    0    0 -0.48850342731E+02  0.19261847889E+02  0.59004745460E+02  0.14794032758E+03  0.12508959097E+03 0.  0.
         23    2    1    2    0    0  0.48850342731E+02 -0.19261847889E+02  0.16072252367E+01  0.10199355306E+03  0.87422691121E+02 0.  0.
          5    1    3    3  502    0  0.35713736087E+02  0.31468630504E+02  0.34566945605E+02  0.58975348914E+02  0.41800000000E+01 0.  1.
         -5    1    3    3    0  502 -0.84564078817E+02 -0.12206782615E+02  0.24437799855E+02  0.88964978670E+02  0.41800000000E+01 0.  1.
        -11    1    4    4    0    0  0.27208476442E+02 -0.39533974459E+02 -0.31609322600E+02  0.57466386715E+02  0.00000000000E+00 0.  1.
         11    1    4    4    0    0  0.21641866289E+02  0.20272126570E+02  0.33216547837E+02  0.44527166341E+02  0.00000000000E+00 0. -1.
</event>
<event>
 8    1  0.6635152E-009  0.9850441E+02  0.7561462E-02  0.1283473E+00
          3   -1    0    0  501    0  0.00000000000E+00  0.00000000000E+00  0.69155032537E+02  0.69155032537E+02  0.00000000000E+00 0. -1.
         -3   -1    0    0    0  501 -0.00000000000E+00 -0.00000000000E+00 -0.30357241830E+03  0.30357241830E+03  0.00000000000E+00 0.  1.
         25    2    1    2    0    0  0.53922589107E+02 -0.79935657147E+02 -0.12478678733E+03  0.20128745974E+03  0.12509014452E+03 0.  0.
         23    2    1    2    0    0 -0.53922589107E+02  0.79935657147E+02 -0.10963059843E+03  0.17143999109E+03  0.89863493894E+02 0.  0.
          5    1    3    3  502    0  0.39707618032E+02 -0.42760050583E+02 -0.14506937230E+03  0.15642158430E+03  0.41800000000E+01 0. -1.
         -5    1    3    3    0  502  0.14214971075E+02 -0.37175606564E+02  0.20282584967E+02  0.44865875441E+02  0.41800000000E+01 0. -1.
        -11    1    4    4    0    0 -0.28632354515E+02  0.25006972483E+02  0.82986454653E+01  0.38910511618E+02  0.00000000000E+00 0. -1.
         11    1    4    4    0    0 -0.25290234592E+02  0.54928684665E+02 -0.11792924389E+03  0.13252947947E+03  0.00000000000E+00 0.  1.
</event>
<event>
 8    1  0.6635152E-009  0.1182733E+03  0.7561462E-02  0.1245973E+00
          2   -1    0    0  501    0  0.00000000000E+00  0.00000000000E+00  0.60174845605E+03  0.60174845605E+03  0.00000000000E+00 0. -1.
         -2   -1    0    0    0  501 -0.00000000000E+00 -0.00000000000E+00 -0.44143732168E+02  0.44143732168E+02  0.00000000000E+00 0.  1.
         25    2    1    2    0    0  0.80189763969E+02  0.18236750333E+02  0.47995248178E+03  0.50275574370E+03  0.12508387482E+03 0.  0.
         23    2    1    2    0    0 -0.80189763969E+02 -0.18236750333E+02  0.77652242102E+02  0.14313644453E+03  0.87722253390E+02 0.  0.
          5    1    3    3  502    0 -0.23414136077E+02  0.87260282387E+01  0.23424694013E+02  0.34504405902E+02  0.41800000000E+01 0.  1.
         -5    1    3    3    0  502  0.10360390005E+03  0.95107220941E+01  0.45652778777E+03  0.46825133779E+03  0.41800000000E+01 0.  1.
        -11    1    4    4    0    0 -0.18437093006E+02 -0.38011574570E+02  0.36097798662E+00  0.42248508908E+02  0.00000000000E+00 0.  1.
         11    1    4    4    0    0 -0.61752670963E+02  0.19774824237E+02  0.77291264116E+02  0.10088793562E+03  0.00000000000E+00 0. -1.
</event>
<event>
 8    1  0.6635152E-009  0.1004270E+03  0.7561462E-02  0.1279400E+00
         -2   -1    0    0    0  501 -0.00000000000E+00  0.00000000000E+00  0.94576450481E+02  0.94576450481E+02  0.00000000000E+00 0. -1.
          2   -1    0    0  501    0  0.00000000000E+00 -0.00000000000E+00 -0.18365514801E+03  0.18365514801E+03  0.00000000000E+00 0.  1.
         25    2    1    2    0    0  0.54068569698E+01  0.75272966335E+02 -0.49319047242E+02  0.15419094390E+03  0.12508886919E+03 0.  0.
         23    2    1    2    0    0 -0.54068569698E+01 -0.75272966335E+02 -0.39759650288E+02  0.12404065459E+03  0.90055541959E+02 0.  0.
          5    1    3    3  502    0  0.16341507220E+02 -0.49670067942E+01  0.33780609389E+02  0.38083040653E+02  0.41800000000E+01 0.  1.
         -5    1    3    3    0  502 -0.10934650250E+02  0.80239973129E+02 -0.83099656631E+02  0.11610790325E+03  0.41800000000E+01 0.  1.
        -11    1    4    4    0    0  0.20443353636E+02 -0.73477494991E+02 -0.54951787872E+02  0.94003042336E+02  0.00000000000E+00 0.  1.
         11    1    4    4    0    0 -0.25850210606E+02 -0.17954713440E+01  0.15192137584E+02  0.30037612257E+02  0.00000000000E+00 0. -1.
</event>
<event>
 8    1  0.6635152E-009  0.1725705E+03  0.7561462E-02  0.1175193E+00
         -1   -1    0    0    0  501 -0.00000000000E+00  0.00000000000E+00  0.39338956438E+02  0.39338956438E+02  0.00000000000E+00 0.  1.
          1   -1    0    0  501    0  0.00000000000E+00 -0.00000000000E+00 -0.89244473889E+03  0.89244473889E+03  0.00000000000E+00 0. -1.
         25    2    1    2    0    0 -0.12950738801E+03 -0.63775439675E+02 -0.32901524208E+03  0.38044478485E+03  0.12509090512E+03 0.  0.
         23    2    1    2    0    0  0.12950738801E+03  0.63775439675E+02 -0.52409054038E+03  0.55133891048E+03  0.92001246967E+02 0.  0.
          5    1    3    3  502    0 -0.36625719892E+02 -0.87524935861E+02 -0.15801404371E+03  0.18435826036E+03  0.41800000000E+01 0.  1.
         -5    1    3    3    0  502 -0.92881668117E+02  0.23749496186E+02 -0.17100119837E+03  0.19608652449E+03  0.41800000000E+01 0.  1.
        -11    1    4    4    0    0  0.12317030932E+03  0.39847114699E+02 -0.50111422098E+03  0.51756562880E+03  0.00000000000E+00 0. -1.
         11    1    4    4    0    0  0.63370786888E+01  0.23928324976E+02 -0.22976319399E+02  0.33773281683E+02  0.00000000000E+00 0.  1.
</event>
<event>
 8    1  0.6635152E-009  0.6361090E+02  0.7561462E-02  0.1383274E+00
          2   -1    0    0  501    0  0.00000000000E+00  0.00000000000E+00  0.20433135873E+03  0.20433135873E+03  0.00000000000E+00 0.  1.
         -2   -1    0    0    0  501 -0.00000000000E+00 -0.00000000000E+00 -0.61007071102E+02  0.61007071102E+02  0.00000000000E+00 0. -1.
         25    2    1    2    0    0  0.19289586087E+02  0.25043879443E+02  0.10647332029E+03  0.16728268516E+03  0.12509054638E+03 0.  0.
         23    2    1    2    0    0 -0.19289586087E+02 -0.25043879443E+02  0.36850967345E+02  0.98055744671E+02  0.85191849608E+02 0.  0.
          5    1    3    3  502    0  0.39157146423E+02  0.83056635553E+01 -0.15031477741E+02  0.42961423232E+02  0.41800000000E+01 0. -1.
         -5    1    3    3    0  502 -0.19867560336E+02  0.16738215888E+02  0.12150479803E+03  0.12432126193E+03  0.41800000000E+01 0. -1.
        -11    1    4    4    0    0  0.11415136331E+02 -0.27584789209E+02 -0.18204270678E+02  0.34966003547E+02  0.00000000000E+00 0. -1.
         11    1    4    4    0    0 -0.30704722417E+02  0.25409097657E+01  0.55055238024E+02  0.63089741123E+02  0.00000000000E+00 0.  1.
</event>
<event>
 8    1  0.6635152E-009  0.4348264E+03  0.7561462E-02  0.1032346E+00
          2   -1    0    0  501    0  0.00000000000E+00  0.00000000000E+00  0.37868724477E+04  0.37868724477E+04  0.00000000000E+00 0. -1.
         -2   -1    0    0    0  501 -0.00000000000E+00 -0.00000000000E+00 -0.52227262739E+02  0.52227262739E+02  0.00000000000E+00 0.  1.
         25    2    1    2    0    0  0.25000995304E+03  0.34918098076E+03  0.20195768797E+04  0.20685189163E+04  0.12508956778E+03 0.  0.
         23    2    1    2    0    0 -0.25000995304E+03 -0.34918098076E+03  0.17150683052E+04  0.17705807942E+04  0.95208839134E+02 0.  0.
          5    1    3    3  502    0 -0.43221440465E+01 -0.34852726202E+00  0.12936883491E+03  0.12950895817E+03  0.41800000000E+01 0. -1.
         -5    1    3    3    0  502  0.25433209709E+03  0.34952950803E+03  0.18902080448E+04  0.19390099581E+04  0.41800000000E+01 0. -1.
        -11    1    4    4    0    0 -0.58479913819E+02 -0.11322459148E+03  0.67921804662E+03  0.69106936214E+03  0.00000000000E+00 0. -1.
         11    1    4    4    0    0 -0.19153003922E+03 -0.23595638928E+03  0.10358502586E+04  0.10795114320E+04  0.00000000000E+00 0.  1.
</event>
<event>
 8    1  0.6635152E-009  0.9856097E+02  0.7561462E-02  0.1283351E+00
          1   -1    0    0  501    0  0.00000000000E+00  0.00000000000E+00  0.65521789817E+02  0.65521789817E+02  0.00000000000E+00 0. -1.
         -1   -1    0    0    0  501 -0.00000000000E+00 -0.00000000000E+00 -0.18722032748E+03  0.18722032748E+03  0.00000000000E+00 0.  1.
         25    2    1    2    0    0  0.86983978731E+01  0.18122150016E+02 -0.57151438876E+02  0.13898906277E+03  0.12509035997E+03 0.  0.
         23    2    1    2    0    0 -0.86983978731E+01 -0.18122150016E+02 -0.64547098785E+02  0.11375305452E+03  0.91484178989E+02 0.  0.
          5    1    3    3  502    0  0.22219048101E+02  0.69046314047E+02 -0.42375502371E+02  0.84108472720E+02  0.41800000000E+01 0.  1.
         -5    1    3    3    0  502 -0.13520650228E+02 -0.50924164031E+02 -0.14775936505E+02  0.54880590052E+02  0.41800000000E+01 0.  1.
        -11    1    4    4    0    0 -0.33193582001E+02  0.96647947382E+01 -0.68269582761E+02  0.76524231938E+02  0.00000000000E+00 0.  1.
         11    1    4    4    0    0  0.24495184127E+02 -0.27786944754E+02  0.37224839761E+01  0.37228822586E+02  0.00000000000E+00 0. -1.
</event>
<event>
 8    1  0.6635152E-009  0.1136325E+03  0.7561462E-02  0.1253987E+00
         -1   -1    0    0    0  501 -0.00000000000E+00  0.00000000000E+00  0.61229736220E+03  0.61229736220E+03  0.00000000000E+00 0. -1.
          1   -1    0    0  501    0  0.00000000000E+00 -0.00000000000E+00 -0.65503525891E+02  0.65503525891E+02  0.00000000000E+00 0.  1.
         25    2    1    2    0    0 -0.20662066065E+02 -0.71931549839E+02  0.53976707518E+03  0.55910399955E+03  0.12509083912E+03 0.  0.
         23    2    1    2    0    0  0.20662066065E+02  0.71931549839E+02  0.70267611350E+01  0.11869688854E+03  0.91861347377E+02 0.  0.
          5    1    3    3  502    0 -0.47012693768E+02  0.12284365069E+02  0.10962791361E+03  0.11998687779E+03  0.41800000000E+01 0.  1.
         -5    1    3    3    0  502  0.26350627703E+02 -0.84215914907E+02  0.43013916157E+03  0.43911712176E+03  0.41800000000E+01 0.  1.
        -11    1    4    4    0    0  0.26258829072E+02  0.10202704951E+02 -0.34160364197E+02  0.44278118463E+02  0.00000000000E+00 0.  1.
         11    1    4    4    0    0 -0.55967630073E+01  0.61728844888E+02  0.41187125332E+02  0.74418770082E+02  0.00000000000E+00 0. -1.
</event>
<event>
 8    1  0.6635152E-009  0.1474650E+03  0.7561462E-02  0.1203623E+00
         -4   -1    0    0    0  501 -0.00000000000E+00  0.00000000000E+00  0.44122530394E+02  0.44122530394E+02  0.00000000000E+00 0. -1.
          4   -1    0    0  501    0  0.00000000000E+00 -0.00000000000E+00 -0.78765067977E+03  0.78765067977E+03  0.00000000000E+00 0.  1.
         25    2    1    2    0    0  0.10482023714E+03 -0.82925912837E+01 -0.14831774350E+03  0.22068710188E+03  0.12509434326E+03 0.  0.
         23    2    1    2    0    0 -0.10482023714E+03  0.82925912837E+01 -0.59521040588E+03  0.61108610828E+03  0.89970857979E+02 0.  0.
          5    1    3    3  502    0 -0.16297128082E+02 -0.30926665097E+02 -0.12749647747E+02  0.37444370944E+02  0.41800000000E+01 0. -1.
         -5    1    3    3    0  502  0.12111736522E+03  0.22634073813E+02 -0.13556809575E+03  0.18324273094E+03  0.41800000000E+01 0. -1.
        -11    1    4    4    0    0 -0.91103237106E+02  0.41797538580E+02 -0.38807125382E+03  0.40080685134E+03  0.00000000000E+00 0. -1.
         11    1    4    4    0    0 -0.13717000034E+02 -0.33504947296E+02 -0.20713915206E+03  0.21027925694E+03  0.00000000000E+00 0.  1.
</event>
<event>
 8    1  0.6635152E-009  0.2072410E+03  0.7561462E-02  0.1143770E+00
          2   -1    0    0  501    0  0.00000000000E+00  0.00000000000E+00  0.87921958374E+03  0.87921958374E+03  0.00000000000E+00 0. -1.
         -2   -1    0    0    0  501 -0.00000000000E+00 -0.00000000000E+00 -0.63139907445E+02  0.63139907445E+02  0.00000000000E+00 0.  1.
         25    2    1    2    0    0 -0.35085968885E+02 -0.19505074028E+03  0.55563399621E+03  0.60303606944E+03  0.12509015470E+03 0.  0.
         23    2    1    2    0    0  0.35085968885E+02  0.19505074028E+03  0.26044568009E+03  0.33932342175E+03  0.89624861381E+02 0.  0.
          5    1    3    3  502    0 -0.49645782264E+02 -0.10230724537E+03  0.43764885733E+03  0.45220069756E+03  0.41800000000E+01 0. -1.
         -5    1    3    3    0  502  0.14559813379E+02 -0.92743494904E+02  0.11798513889E+03  0.15083537188E+03  0.41800000000E+01 0. -1.
        -11    1    4    4    0    0 -0.16431738934E+02  0.37096390546E+02  0.10185993668E+03  0.10964301591E+03  0.00000000000E+00 0. -1.
         11    1    4    4    0    0  0.51517707820E+02  0.15795434973E+03  0.15858574340E+03  0.22968040584E+03  0.00000000000E+00 0.  1.
</event>
<event>
 8    1  0.6635152E-009  0.2935186E+03  0.7561462E-02  0.1088526E+00
         -1   -1    0    0    0  501 -0.00000000000E+00  0.00000000000E+00  0.11825736136E+03  0.11825736136E+03  0.00000000000E+00 0.  1.
          1   -1    0    0  501    0  0.00000000000E+00 -0.00000000000E+00 -0.79645707400E+03  0.79645707400E+03  0.00000000000E+00 0. -1.
         25    2    1    2    0    0 -0.28485237181E+03  0.21023679480E+02 -0.38331744919E+03  0.49412875220E+03  0.12509231817E+03 0.  0.
         23    2    1    2    0    0  0.28485237181E+03 -0.21023679480E+02 -0.29488226345E+03  0.42058568316E+03  0.91399664960E+02 0.  0.
          5    1    3    3  502    0 -0.18969577668E+02 -0.17015817861E+02 -0.10175867190E+03  0.10498420187E+03  0.41800000000E+01 0. -1.
         -5    1    3    3    0  502 -0.26588279415E+03  0.38039497340E+02 -0.28155877729E+03  0.38914455033E+03  0.41800000000E+01 0. -1.
        -11    1    4    4    0    0  0.23771129812E+03 -0.41303465180E+02 -0.20286229121E+03  0.31522332827E+03  0.00000000000E+00 0.  1.
         11    1    4    4    0    0  0.47141073693E+02  0.20279785700E+02 -0.92019972242E+02  0.10536235489E+03  0.00000000000E+00 0. -1.
</event>
<event>
 8    1  0.6635152E-009  0.1120793E+03  0.7561462E-02  0.1256767E+00
         -1   -1    0    0    0  501 -0.00000000000E+00  0.00000000000E+00  0.16575925110E+03  0.16575925110E+03  0.00000000000E+00 0.  1.
          1   -1    0    0  501    0  0.00000000000E+00 -0.00000000000E+00 -0.13292709061E+03  0.13292709061E+03  0.00000000000E+00 0. -1.
         25    2    1    2    0    0 -0.21836547714E+02 -0.37836393406E+02  0.10952545042E+03  0.17190469965E+03  0.12508786508E+03 0.  0.
         23    2    1    2    0    0  0.21836547714E+02  0.37836393406E+02 -0.76693289940E+02  0.12678164206E+03  0.91012617584E+02 0.  0.
          5    1    3    3  502    0 -0.58881191911E+02  0.13346102846E+02  0.84233915034E+02  0.10372048045E+03  0.41800000000E+01 0.  1.
         -5    1    3    3    0  502  0.37044644198E+02 -0.51182496252E+02  0.25291535387E+02  0.68184219205E+02  0.41800000000E+01 0.  1.
        -11    1    4    4    0    0  0.52870408765E+02  0.19931637188E+01 -0.47508124836E+02  0.71107487299E+02  0.00000000000E+00 0.  1.
         11    1    4    4    0    0 -0.31033861051E+02  0.35843229687E+02 -0.29185165104E+02  0.55674154760E+02  0.00000000000E+00 0. -1.
</event>
<event>
 8    1  0.6635152E-009  0.1175065E+03  0.7561462E-02  0.1247268E+00
          2   -1    0    0  501    0  0.00000000000E+00  0.00000000000E+00  0.28566249636E+03  0.28566249636E+03  0.00000000000E+00 0. -1.
         -2   -1    0    0    0  501 -0.00000000000E+00 -0.00000000000E+00 -0.64877728120E+02  0.64877728120E+02  0.00000000000E+00 0.  1.
         25    2    1    2    0    0  0.46092760628E+02  0.43977347050E+02  0.18695929288E+03  0.23379358387E+03  0.12508842084E+03 0.  0.
         23    2    1    2    0    0 -0.46092760628E+02 -0.43977347050E+02  0.33825475356E+02  0.11674664061E+03  0.91799050506E+02 0.  0.
          5    1    3    3  502    0 -0.31196704662E+02  0.47219389407E+02  0.46417313533E+02  0.73314013077E+02  0.41800000000E+01 0. -1.
         -5    1    3    3    0  502  0.77289465290E+02 -0.32420423564E+01  0.14054197935E+03  0.16047957079E+03  0.41800000000E+01 0. -1.
        -11    1    4    4    0    0 -0.11494379905E+02 -0.61113391828E+02 -0.44967648180E+01  0.62347320103E+02  0.00000000000E+00 0.  1.
         11    1    4    4    0    0 -0.34598380723E+02  0.17136044778E+02  0.38322240174E+02  0.54399320503E+02  0.00000000000E+00 0. -1.
</event>
<event>
 8    1  0.6635152E-009  0.9673614E+02  0.7561462E-02  0.1287313E+00
         -1   -1    0    0    0  501 -0.00000000000E+00  0.00000000000E+00  0.31590351170E+03  0.31590351170E+03  0.00000000000E+00 0.  1.
          1   -1    0    0  501    0  0.00000000000E+00 -0.00000000000E+00 -0.47751613389E+02  0.47751613389E+02  0.00000000000E+00 0. -1.
         25    2    1    2    0    0 -0.42927196987E+02 -0.27234905182E+02  0.12417506531E+03  0.18345335195E+03  0.12510476088E+03 0.  0.
         23    2    1    2    0    0  0.42927196987E+02  0.27234905182E+02  0.14397683300E+03  0.18020177314E+03  0.95701966022E+02 0.  0.
          5    1    3    3  502    0 -0.43375225426E+02  0.14472393008E+02  0.13292424998E+03  0.14063139398E+03  0.41800000000E+01 0. -1.
         -5    1    3    3    0  502  0.44802843901E+00 -0.41707298190E+02 -0.87491846702E+01  0.42821957968E+02  0.41800000000E+01 0. -1.
        -11    1    4    4    0    0  0.43001006514E+02 -0.27408728115E+02  0.89708712900E+02  0.10318904064E+03  0.00000000000E+00 0.  1.
         11    1    4    4    0    0 -0.73809526493E-01  0.54643633297E+02  0.54268120098E+02  0.77012732497E+02  0.00000000000E+00 0. -1.
</event>
<event>
 8    1  0.6635152E-009  0.1118472E+03  0.7561462E-02  0.1257187E+00
         -1   -1    0    0    0  501 -0.00000000000E+00  0.00000000000E+00  0.27582248937E+03  0.27582248937E+03  0.00000000000E+00 0.  1.
          1   -1    0    0  501    0  0.00000000000E+00 -0.00000000000E+00 -0.64005606946E+02  0.64005606946E+02  0.00000000000E+00 0. -1.
         25    2    1    2    0    0  0.73346844079E+02  0.54774195396E+01  0.13434366802E+03  0.19775248728E+03  0.12509221968E+03 0.  0.
         23    2    1    2    0    0 -0.73346844079E+02 -0.54774195396E+01  0.77473214402E+02  0.14207560904E+03  0.93667593508E+02 0.  0.
          5    1    3    3  502    0 -0.78499041674E+01  0.20114363219E+02 -0.15320000491E+02  0.26802675579E+02  0.41800000000E+01 0. -1.
         -5    1    3    3    0  502  0.81196748246E+02 -0.14636943679E+02  0.14966366851E+03  0.17094981170E+03  0.41800000000E+01 0. -1.
        -11    1    4    4    0    0 -0.41857578071E+02 -0.49588607777E+02  0.41665850521E+02  0.77117637171E+02  0.00000000000E+00 0.  1.
         11    1    4    4    0    0 -0.31489266008E+02  0.44111188237E+02  0.35807363881E+02  0.64957971870E+02  0.00000000000E+00 0. -1.
</event>
<event>
 8    1  0.6635152E-009  0.1037717E+03  0.7561462E-02  0.1272559E+00
          2   -1    0    0  501    0  0.00000000000E+00  0.00000000000E+00  0.12151956700E+03  0.12151956700E+03  0.00000000000E+00 0. -1.
         -2   -1    0    0    0  501 -0.00000000000E+00 -0.00000000000E+00 -0.22786858122E+03  0.22786858122E+03  0.00000000000E+00 0.  1.
         25    2    1    2    0    0 -0.61521020744E+02  0.56967579134E+01  0.58347755606E+02  0.15122389076E+03  0.12508763132E+03 0.  0.
         23    2    1    2    0    0  0.61521020744E+02 -0.56967579134E+01 -0.16469676983E+03  0.19816425746E+03  0.91251070670E+02 0.  0.
          5    1    3    3  502    0 -0.80487758919E+02  0.87353354264E+01  0.85421337754E+02  0.11776613590E+03  0.41800000000E+01 0. -1.
         -5    1    3    3    0  502  0.18966738175E+02 -0.30385775130E+01 -0.27073582148E+02  0.33457754866E+02  0.41800000000E+01 0. -1.
        -11    1    4    4    0    0  0.12379004870E+01 -0.38274383303E+02 -0.83880706550E+02  0.92208642470E+02  0.00000000000E+00 0.  1.
         11    1    4    4    0    0  0.60283120257E+02  0.32577625389E+02 -0.80816063275E+02  0.10595561499E+03  0.00000000000E+00 0. -1.
</event>
<event>
 8    1  0.6635152E-009  0.1679398E+03  0.7561462E-02  0.1180014E+00
         -1   -1    0    0    0  501 -0.00000000000E+00  0.00000000000E+00  0.11490121020E+03  0.11490121020E+03  0.00000000000E+00 0. -1.
          1   -1    0    0  501    0  0.00000000000E+00 -0.00000000000E+00 -0.31290581590E+03  0.31290581590E+03  0.00000000000E+00 0.  1.
         25    2    1    2    0    0 -0.92421825031E+02  0.92611677694E+02 -0.23652981506E+02  0.18255790920E+03  0.12509680288E+03 0.  0.
         23    2    1    2    0    0  0.92421825031E+02 -0.92611677694E+02 -0.17435162420E+03  0.24524911690E+03  0.11238293417E+03 0.  0.
          5    1    3    3  502    0 -0.11031929533E+03  0.10555365907E+03 -0.41468338383E+01  0.15279591125E+03  0.41800000000E+01 0. -1.
         -5    1    3    3    0  502  0.17897470298E+02 -0.12941981375E+02 -0.19506147667E+02  0.29761997947E+02  0.41800000000E+01 0. -1.
        -11    1    4    4    0    0  0.11079011264E+03 -0.68155758234E+02 -0.97577992978E+02  0.16260726046E+03  0.00000000000E+00 0. -1.
         11    1    4    4    0    0 -0.18368287609E+02 -0.24455919460E+02 -0.76773631217E+02  0.82641856444E+02  0.00000000000E+00 0.  1.
</event>
<event>
 8    1  0.6635152E-009  0.1697138E+03  0.7561462E-02  0.1178147E+00
          2   -1    0    0  501    0  0.00000000000E+00  0.00000000000E+00  0.38457391696E+03  0.38457391696E+03  0.00000000000E+00 0.  1.
         -2   -1    0    0    0  501 -0.00000000000E+00 -0.00000000000E+00 -0.90829627568E+02  0.90829627568E+02  0.00000000000E+00 0. -1.
         25    2    1    2    0    0  0.40872320965E+02 -0.13970193639E+03  0.20882586025E+03  0.28362805304E+03  0.12509778140E+03 0.  0.
         23    2    1    2    0    0 -0.40872320965E+02  0.13970193639E+03  0.84918429140E+02  0.19177549148E+03  0.91539728381E+02 0.  0.
          5    1    3    3  502    0 -0.24985749840E+02 -0.11988388608E+03  0.12373705556E+03  0.17414007338E+03  0.41800000000E+01 0. -1.
         -5    1    3    3    0  502  0.65858070805E+02 -0.19818050316E+02  0.85088804688E+02  0.10948797967E+03  0.41800000000E+01 0. -1.
        -11    1    4    4    0    0 -0.12532367976E+02  0.89265738231E+02  0.97273353459E+02  0.13261801372E+03  0.00000000000E+00 0.  1.
         11    1    4    4    0    0 -0.28339952989E+02  0.50436198164E+02 -0.12354924319E+02  0.59157477765E+02  0.00000000000E+00 0. -1.
</event>
<event>
 8    1  0.6635152E-009  0.1240359E+03  0.7561462E-02  0.1236584E+00
         -1   -1    0    0    0  501 -0.00000000000E+00  0.00000000000E+00  0.23210709443E+03  0.23210709443E+03  0.00000000000E+00 0.  1.
          1   -1    0    0  501    0  0.00000000000E+00 -0.00000000000E+00 -0.10493942706E+03  0.10493942706E+03  0.00000000000E+00 0. -1.
         25    2    1    2    0    0  0.83119887469E+02 -0.49055622694E+02  0.80715950131E+01  0.15820126396E+03  0.12508844656E+03 0.  0.
         23    2    1    2    0    0 -0.83119887469E+02  0.49055622694E+02  0.11909607236E+03  0.17884525753E+03  0.92121560344E+02 0.  0.
          5    1    3    3  502    0  0.48674497955E+01  0.32602750903E+02  0.27792701357E+02  0.43319026797E+02  0.41800000000E+01 0. -1.
         -5    1    3    3    0  502  0.78252437673E+02 -0.81658373597E+02 -0.19721106344E+02  0.11488223716E+03  0.41800000000E+01 0. -1.
        -11    1    4    4    0    0 -0.44440025387E+02  0.44208935341E+02  0.10620459280E+02  0.63577826132E+02  0.00000000000E+00 0. -1.
         11    1    4    4    0    0 -0.38679862082E+02  0.48466873527E+01  0.10847561308E+03  0.11526743140E+03  0.00000000000E+00 0.  1.
</event>
<event>
 8    1  0.6635152E-009  0.1319530E+03  0.7561462E-02  0.1224586E+00
          1   -1    0    0  501    0  0.00000000000E+00  0.00000000000E+00  0.33918206480E+02  0.33918206480E+02  0.00000000000E+00 0. -1.
         -1   -1    0    0    0  501 -0.00000000000E+00 -0.00000000000E+00 -0.59944104558E+03  0.59944104558E+03  0.00000000000E+00 0.  1.
         25    2    1    2    0    0 -0.69473532018E+02  0.71891660563E+02 -0.33138218611E+03  0.36804606699E+03  0.12509505045E+03 0.  0.
         23    2    1    2    0    0  0.69473532018E+02 -0.71891660563E+02 -0.23414065299E+03  0.26531318507E+03  0.74660955518E+02 0.  0.
          5    1    3    3  502    0 -0.40961183898E+02  0.10404450077E+03 -0.27601702733E+03  0.29783543863E+03  0.41800000000E+01 0.  1.
         -5    1    3    3    0  502 -0.28512348120E+02 -0.32152840205E+02 -0.55365158777E+02  0.70210628362E+02  0.41800000000E+01 0.  1.
        -11    1    4    4    0    0  0.21103008178E+02  0.12553231337E+01 -0.11748766481E+03  0.11937447036E+03  0.00000000000E+00 0.  1.
         11    1    4    4    0    0  0.48370523840E+02 -0.73146983696E+02 -0.11665298818E+03  0.14593871471E+03  0.00000000000E+00 0. -1.
</event>
<event>
 8    1  0.6635152E-009  0.8067696E+02  0.7561462E-02  0.1327141E+00
         -2   -1    0    0    0  501 -0.00000000000E+00  0.00000000000E+00  0.60304273435E+02  0.60304273435E+02  0.00000000000E+00 0.  1.
          2   -1    0    0  501    0  0.00000000000E+00 -0.00000000000E+00 -0.32838947522E+03  0.32838947522E+03  0.00000000000E+00 0. -1.
         25    2    1    2    0    0 -0.27539120160E+02 -0.51724571227E+02 -0.60476665121E+02  0.15079547747E+03  0.12509202450E+03 0.  0.
         23    2    1    2    0    0  0.27539120160E+02  0.51724571227E+02 -0.20760853667E+03  0.23789827119E+03  0.10030178727E+03 0.  0.
          5    1    3    3  502    0 -0.10707906630E+02 -0.65863852221E+02 -0.91017295726E+02  0.11293505574E+03  0.41800000000E+01 0. -1.
         -5    1    3    3    0  502 -0.16831213530E+02  0.14139280994E+02  0.30540630605E+02  0.37860421731E+02  0.41800000000E+01 0. -1.
        -11    1    4    4    0    0  0.16137446255E+02  0.57226902811E+02 -0.21511441495E+03  0.22318052580E+03  0.00000000000E+00 0. -1.
         11    1    4    4    0    0  0.11401673905E+02 -0.55023315844E+01  0.75058782784E+01  0.14717745392E+02  0.00000000000E+00 0.  1.
</event>
<event>
 8    1  0.6635152E-009  0.7552633E+02  0.7561462E-02  0.1342249E+00
         -2   -1    0    0    0  501 -0.00000000000E+00  0.00000000000E+00  0.27171057255E+03  0.27171057255E+03  0.00000000000E+00 0.  1.
          2   -1    0    0  501    0  0.00000000000E+00 -0.00000000000E+00 -0.49598473392E+02  0.49598473392E+02  0.00000000000E+00 0. -1.
         25    2    1    2    0    0 -0.31700555928E+02 -0.22565434826E+01  0.12693893260E+03  0.18102686144E+03  0.12508882731E+03 0.  0.
         23    2    1    2    0    0  0.31700555928E+02  0.22565434826E+01  0.95173166562E+02  0.14028218451E+03  0.98036434156E+02 0.  0.
          5    1    3    3  502    0 -0.53719951239E+02  0.24713828153E+02  0.13283973113E+03  0.14546639829E+03  0.41800000000E+01 0.  1.
         -5    1    3    3    0  502  0.22019395312E+02 -0.26970371636E+02 -0.59007985344E+01  0.35560463150E+02  0.41800000000E+01 0.  1.
        -11    1    4    4    0    0  0.30568313601E+02  0.21536043275E+02  0.10984070491E+03  0.11603104503E+03  0.00000000000E+00 0.  1.
         11    1    4    4    0    0  0.11322423269E+01 -0.19279499792E+02 -0.14667538344E+02  0.24251139478E+02  0.00000000000E+00 0. -1.
</event>
<event>
 8    1  0.6635152E-009  0.6851173E+02  0.7561462E-02  0.1365228E+00
          3   -1    0    0  501    0  0.00000000000E+00  0.00000000000E+00  0.67169360877E+02  0.67169360877E+02  0.00000000000E+00 0. -1.
         -3   -1    0    0    0  501 -0.00000000000E+00 -0.00000000000E+00 -0.20084823491E+03  0.20084823491E+03  0.00000000000E+00 0.  1.
         25    2    1    2    0    0  0.28814805255E+01  0.13167255719E+02 -0.14255326726E+03  0.19013338190E+03  0.12509032477E+03 0.  0.
         23    2    1    2    0    0 -0.28814805255E+01 -0.13167255719E+02  0.88743932329E+01  0.77884213888E+02  0.76193939158E+02 0.  0.
          5    1    3    3  502    0 -0.24077342521E+02  0.30491174448E+02 -0.15161560083E+03  0.15657008960E+03  0.41800000000E+01 0.  1.
         -5    1    3    3    0  502  0.26958823046E+02 -0.17323918729E+02  0.90623335664E+01  0.33563292297E+02  0.41800000000E+01 0.  1.
        -11    1    4    4    0    0 -0.18700386504E+02  0.20915420731E+02  0.24444239280E+02  0.37211290138E+02  0.00000000000E+00 0. -1.
         11    1    4    4    0    0  0.15818905979E+02 -0.34082676450E+02 -0.15569846048E+02  0.40672923749E+02  0.00000000000E+00 0.  1.
</event>
<event>
 8    1  0.6635152E-009  0.1156184E+03  0.7561462E-02  0.1250506E+00
          2   -1    0    0  501    0  0.00000000000E+00  0.00000000000E+00  0.27488376470E+02  0.27488376470E+02  0.00000000000E+00 0. -1.
         -2   -1    0    0    0  501 -0.00000000000E+00 -0.00000000000E+00 -0.54980526467E+03  0.54980526467E+03  0.00000000000E+00 0.  1.
         25    2    1    2    0    0  0.97424413171E+01  0.18416557697E+02 -0.30198782813E+03  0.32753515241E+03  0.12509413642E+03 0.  0.
         23    2    1    2    0    0 -0.97424413171E+01 -0.18416557697E+02 -0.22032906008E+03  0.24975848873E+03  0.11575976512E+03 0.  0.
          5    1    3    3  502    0  0.63480755512E+02  0.31880946496E+02 -0.16307395324E+03  0.17792354452E+03  0.41800000000E+01 0. -1.
         -5    1    3    3    0  502 -0.53738314195E+02 -0.13464388799E+02 -0.13891387489E+03  0.14961160789E+03  0.41800000000E+01 0. -1.
        -11    1    4    4    0    0 -0.40764975822E+02  0.27451500511E+02 -0.16217385264E+03  0.16945715274E+03  0.00000000000E+00 0.  1.
         11    1    4    4    0    0  0.31022534505E+02 -0.45868058208E+02 -0.58155207437E+02  0.80301335998E+02  0.00000000000E+00 0. -1.
</event>
<event>
 8    1  0.6635152E-009  0.1302732E+03  0.7561462E-02  0.1227051E+00
         -2   -1    0    0    0  501 -0.00000000000E+00  0.00000000000E+00  0.50082688811E+02  0.50082688811E+02  0.00000000000E+00 0.  1.
          2   -1    0    0  501    0  0.00000000000E+00 -0.00000000000E+00 -0.55935949228E+03  0.55935949228E+03  0.00000000000E+00 0. -1.
         25    2    1    2    0    0 -0.65376698130E+02  0.77126378946E+02 -0.41070582912E+03  0.44107731873E+03  0.12508929624E+03 0.  0.
         23    2    1    2    0    0  0.65376698130E+02 -0.77126378946E+02 -0.98570974347E+02  0.16836486236E+03  0.91694595845E+02 0.  0.
          5    1    3    3  502    0 -0.51740641627E+02 -0.13306683435E+02 -0.69257522952E+02  0.87568480091E+02  0.41800000000E+01 0. -1.
         -5    1    3    3    0  502 -0.13636056502E+02  0.90433062381E+02 -0.34144830617E+03  0.35350883864E+03  0.41800000000E+01 0. -1.
        -11    1    4    4    0    0  0.55175230337E+02 -0.22088093678E+02 -0.54064325858E+01  0.59677629295E+02  0.00000000000E+00 0.  1.
         11    1    4    4    0    0  0.10201467793E+02 -0.55038285268E+02 -0.93164541761E+02  0.10868723307E+03  0.00000000000E+00 0. -1.
</event>
<event>
 8    1  0.6635152E-009  0.1409121E+03  0.7561462E-02  0.1212107E+00
         -3   -1    0    0    0  501 -0.00000000000E+00  0.00000000000E+00  0.27208171939E+03  0.27208171939E+03  0.00000000000E+00 0.  1.
          3   -1    0    0  501    0  0.00000000000E+00 -0.00000000000E+00 -0.95082522360E+02  0.95082522360E+02  0.00000000000E+00 0. -1.
         25    2    1    2    0    0  0.35701187550E+02  0.10446224168E+03  0.11957230262E+03  0.20526074936E+03  0.12508998738E+03 0.  0.
         23    2    1    2    0    0 -0.35701187550E+02 -0.10446224168E+03  0.57426894410E+02  0.16190349239E+03  0.10357585586E+03 0.  0.
          5    1    3    3  502    0  0.35241578024E+02  0.12809683702E+03  0.12289171050E+03  0.18102655437E+03  0.41800000000E+01 0. -1.
         -5    1    3    3    0  502  0.45960952570E+00 -0.23634595344E+02 -0.33194078819E+01  0.24234194987E+02  0.41800000000E+01 0. -1.
        -11    1    4    4    0    0  0.16213037550E+02 -0.19877807094E+02 -0.22774843779E+02  0.34302817823E+02  0.00000000000E+00 0. -1.
         11    1    4    4    0    0 -0.51914225099E+02 -0.84584434586E+02  0.80201738188E+02  0.12760067457E+03  0.00000000000E+00 0.  1.
</event>
<event>
 8    1  0.6635152E-009  0.1847912E+03  0.7561462E-02  0.1163245E+00
          1   -1    0    0  501    0  0.00000000000E+00  0.00000000000E+00  0.19659487894E+03  0.19659487894E+03  0.00000000000E+00 0. -1.
         -1   -1    0    0    0  501 -0.00000000000E+00 -0.00000000000E+00 -0.22989230525E+03  0.22989230525E+03  0.00000000000E+00 0.  1.
         25    2    1    2    0    0  0.12720132163E+03 -0.93807508774E+02  0.77039516017E+02  0.21578603871E+03  0.12509397487E+03 0.  0.
         23    2    1    2    0    0 -0.12720132163E+03  0.93807508774E+02 -0.11033694232E+03  0.21070114548E+03  0.85092343604E+02 0.  0.
          5    1    3    3  502    0  0.40933692793E+02  0.29480955785E+02  0.13446688540E+02  0.52373464583E+02  0.41800000000E+01 0.  1.
         -5    1    3    3    0  502  0.86267628832E+02 -0.12328846456E+03  0.63592827477E+02  0.16341257413E+03  0.41800000000E+01 0.  1.
        -11    1    4    4    0    0 -0.79458397981E+02  0.90710136486E+02 -0.10944405630E+03  0.16284952358E+03  0.00000000000E+00 0.  1.
         11    1    4    4    0    0 -0.47742923644E+02  0.30973722877E+01 -0.89288602534E+00  0.47851621902E+02  0.00000000000E+00 0. -1.
</event>
<event>
 8    1  0.6635152E-009  0.1035483E+03  0.7561462E-02  0.1273006E+00
          2   -1    0    0  501    0  0.00000000000E+00  0.00000000000E+00  0.13923788760E+04  0.13923788760E+04  0.00000000000E+00 0. -1.
         -2   -1    0    0    0  501 -0.00000000000E+00 -0.00000000000E+00 -0.20422945552E+02  0.20422945552E+02  0.00000000000E+00 0.  1.
         25    2    1    2    0    0  0.73407000189E+02 -0.48495051088E+02  0.11190583301E+04  0.11294596056E+04  0.12508835646E+03 0.  0.
         23    2    1    2    0    0 -0.73407000189E+02  0.48495051088E+02  0.25289760035E+03  0.28334221593E+03  0.92656664122E+02 0.  0.
          5    1    3    3  502    0  0.73369919832E+02 -0.28389732097E+02  0.30086418675E+03  0.31100780262E+03  0.41800000000E+01 0.  1.
         -5    1    3    3    0  502  0.37080356365E-01 -0.20105318991E+02  0.81819414333E+03  0.81845180298E+03  0.41800000000E+01 0.  1.
        -11    1    4    4    0    0 -0.67509562966E+02  0.93046849107E+01  0.76084326377E+02  0.10214177879E+03  0.00000000000E+00 0.  1.
         11    1    4    4    0    0 -0.58974372227E+01  0.39190366177E+02  0.17681327398E+03  0.18120043714E+03  0.00000000000E+00 0. -1.
</event>
<event>
 8    1  0.6635152E-009  0.1542696E+03  0.7561462E-02  0.1195323E+00
         -2   -1    0    0    0  501 -0.00000000000E+00  0.00000000000E+00  0.33323673040E+03  0.33323673040E+03  0.00000000000E+00 0.  1.
          2   -1    0    0  501    0  0.00000000000E+00 -0.00000000000E+00 -0.99013286581E+02  0.99013286581E+02  0.00000000000E+00 0. -1.
         25    2    1    2    0    0 -0.12228027105E+03  0.79964773891E+02  0.11715216706E+03  0.22520429848E+03  0.12508203730E+03 0.  0.
         23    2    1    2    0    0  0.12228027105E+03 -0.79964773891E+02  0.11707127676E+03  0.20704571850E+03  0.88404841255E+02 0.  0.
          5    1    3    3  502    0  0.38148499417E+01 -0.70150168325E+01  0.61520532775E+02  0.62177261874E+02  0.41800000000E+01 0.  1.
         -5    1    3    3    0  502 -0.12609512099E+03  0.86979790724E+02  0.55631634287E+02  0.16302703661E+03  0.41800000000E+01 0.  1.
        -11    1    4    4    0    0  0.37824206842E+02 -0.20791416830E+02 -0.90820966188E+01  0.44107120922E+02  0.00000000000E+00 0. -1.
         11    1    4    4    0    0  0.84456064203E+02 -0.59173357061E+02  0.12615337338E+03  0.16293859758E+03  0.00000000000E+00 0.  1.
</event>
<event>
 8    1  0.6635152E-009  0.1040232E+03  0.7561462E-02  0.1272056E+00
         -2   -1    0    0    0  501 -0.00000000000E+00  0.00000000000E+00  0.20801892853E+02  0.20801892853E+02  0.00000000000E+00 0.  1.
          2   -1    0    0  501    0  0.00000000000E+00 -0.00000000000E+00 -0.98750934102E+03  0.98750934102E+03  0.00000000000E+00 0. -1.
         25    2    1    2    0    0  0.20840984287E+02 -0.93927931551E+02 -0.59424253698E+03  0.61484058480E+03  0.12509176236E+03 0.  0.
         23    2    1    2    0    0 -0.20840984287E+02  0.93927931551E+02 -0.37246491119E+03  0.39347064908E+03  0.82657356997E+02 0.  0.
          5    1    3    3  502    0  0.19017305618E+02 -0.54330777850E+02 -0.55797270466E+03  0.56094964380E+03  0.41800000000E+01 0.  1.
         -5    1    3    3    0  502  0.18236786686E+01 -0.39597153701E+02 -0.36269832314E+02  0.53890940994E+02  0.41800000000E+01 0.  1.
        -11    1    4    4    0    0  0.18119734924E+02  0.20582602906E+02 -0.28219046472E+02  0.39348226388E+02  0.00000000000E+00 0.  1.
         11    1    4    4    0    0 -0.38960719211E+02  0.73345328645E+02 -0.34424586472E+03  0.35412242269E+03  0.00000000000E+00 0. -1.
</event>
<event>
 8    1  0.6635152E-009  0.9706221E+02  0.7561462E-02  0.1286598E+00
          3   -1    0    0  501    0  0.00000000000E+00  0.00000000000E+00  0.97994027100E+02  0.97994027100E+02  0.00000000000E+00 0. -1.
         -3   -1    0    0    0  501 -0.00000000000E+00 -0.00000000000E+00 -0.20373208295E+03  0.20373208295E+03  0.00000000000E+00 0.  1.
         25    2    1    2    0    0 -0.69196988710E+02 -0.43847774201E+02 -0.10364545525E+03  0.18195903949E+03  0.12512338355E+03 0.  0.
         23    2    1    2    0    0  0.69196988710E+02  0.43847774201E+02 -0.20926006021E+01  0.11976707056E+03  0.87343698479E+02 0.  0.
          5    1    3    3  502    0 -0.65153525672E+02 -0.44584136897E+01  0.56050514087E+01  0.65679131856E+02  0.41800000000E+01 0.  1.
         -5    1    3    3    0  502 -0.40434630382E+01 -0.39389360512E+02 -0.10925050666E+03  0.11627990763E+03  0.41800000000E+01 0.  1.
        -11    1    4    4    0    0  0.28544003261E+02  0.38407916481E+02  0.38981524673E+02  0.61721045328E+02  0.00000000000E+00 0. -1.
         11    1    4    4    0    0  0.40652985449E+02  0.54398577208E+01 -0.41074125275E+02  0.58046025230E+02  0.00000000000E+00 0.  1.
</event>
<event>
 8    1  0.6635152E-009  0.9306768E+02  0.7561462E-02  0.1295588E+00
         -1   -1    0    0    0  501 -0.00000000000E+00  0.00000000000E+00  0.15142975833E+03  0.15142975833E+03  0.00000000000E+00 0.  1.
          1   -1    0    0  501    0  0.00000000000E+00 -0.00000000000E+00 -0.10801188073E+03  0.10801188073E+03  0.00000000000E+00 0. -1.
         25    2    1    2    0    0 -0.26707928882E+01 -0.58007056532E+02  0.61995012236E+02  0.15120540613E+03  0.12509093316E+03 0.  0.
         23    2    1    2    0    0  0.26707928882E+01  0.58007056532E+02 -0.18577134637E+02  0.10823623292E+03  0.89431652360E+02 0.  0.
          5    1    3    3  502    0  0.27305506543E+02 -0.11953456038E+02  0.85985314454E+02  0.91101166296E+02  0.41800000000E+01 0. -1.
         -5    1    3    3    0  502 -0.29976299431E+02 -0.46053600494E+02 -0.23990302218E+02  0.60104239838E+02  0.41800000000E+01 0. -1.
        -11    1    4    4    0    0  0.32403641295E+02 -0.35186485418E+01 -0.22792717494E+02  0.39772915753E+02  0.00000000000E+00 0. -1.
         11    1    4    4    0    0 -0.29732848406E+02  0.61525705073E+02  0.42155828571E+01  0.68463317170E+02  0.00000000000E+00 0.  1.
</event>
<event>
 8    1  0.6635152E-009  0.8777881E+02  0.7561462E-02  0.1308322E+00
         -2   -1    0    0    0  501 -0.00000000000E+00  0.00000000000E+00  0.20240771935E+02  0.20240771935E+02  0.00000000000E+00 0. -1.
          2   -1    0    0  501    0  0.00000000000E+00 -0.00000000000E+00 -0.59777939497E+03  0.59777939497E+03  0.00000000000E+00 0.  1.
         25    2    1    2    0    0  0.24076716394E+01  0.17159603022E+02 -0.30912947025E+03  0.33392907888E+03  0.12508937399E+03 0.  0.
         23    2    1    2    0    0 -0.24076716394E+01 -0.17159603022E+02 -0.26840915279E+03  0.28409108803E+03  0.91455038888E+02 0.  0.
          5    1    3    3  502    0 -0.46143617025E+01 -0.40697529466E+02 -0.23958127018E+03  0.24309306584E+03  0.41800000000E+01 0.  1.
         -5    1    3    3    0  502  0.70220333419E+01  0.57857132488E+02 -0.69548200073E+02  0.90836013042E+02  0.41800000000E+01 0.  1.
        -11    1    4    4    0    0  0.35741799928E+02 -0.63262438362E+01 -0.48195243393E+02  0.60334725564E+02  0.00000000000E+00 0. -1.
         11    1    4    4    0    0 -0.38149471567E+02 -0.10833359186E+02 -0.22021390939E+03  0.22375636246E+03  0.00000000000E+00 0.  1.
</event>
<event>
 8    1  0.6635152E-009  0.1686202E+03  0.7561462E-02  0.1179294E+00
         -1   -1    0    0    0  501 -0.00000000000E+00  0.00000000000E+00  0.66120612471E+02  0.66120612471E+02  0.00000000000E+00 0.  1.
          1   -1    0    0  501    0  0.00000000000E+00 -0.00000000000E+00 -0.48988403112E+03  0.48988403112E+03  0.00000000000E+00 0. -1.
         25    2    1    2    0    0 -0.21094287179E+02  0.12867975534E+03 -0.31218015215E+03  0.36070474764E+03  0.12509204285E+03 0.  0.
         23    2    1    2    0    0  0.21094287179E+02 -0.12867975534E+03 -0.11158326650E+03  0.19529989595E+03  0.93208237883E+02 0.  0.
          5    1    3    3  502    0 -0.65727914017E+02  0.11373778984E+03 -0.20423671713E+03  0.24287147330E+03  0.41800000000E+01 0.  1.
         -5    1    3    3    0  502  0.44633626838E+02  0.14941965507E+02 -0.10794343502E+03  0.11783327434E+03  0.41800000000E+01 0.  1.
        -11    1    4    4    0    0  0.54012590542E+02 -0.10476374636E+03 -0.69832531333E+02  0.13700140482E+03  0.00000000000E+00 0.  1.
         11    1    4    4    0    0 -0.32918303363E+02 -0.23916008979E+02 -0.41750735164E+02  0.58298491134E+02  0.00000000000E+00 0. -1.
</event>
<event>
 8    1  0.6635152E-009  0.1223647E+03  0.7561462E-02  0.1239246E+00
          2   -1    0    0  501    0  0.00000000000E+00  0.00000000000E+00  0.23392851371E+03  0.23392851371E+03  0.00000000000E+00 0. -1.
         -2   -1    0    0    0  501 -0.00000000000E+00 -0.00000000000E+00 -0.12309245827E+03  0.12309245827E+03  0.00000000000E+00 0.  1.
         25    2    1    2    0    0  0.11748485856E+03 -0.19768579820E+02  0.11516943421E+03  0.20758262270E+03  0.12503222758E+03 0.  0.
         23    2    1    2    0    0 -0.11748485856E+03  0.19768579820E+02 -0.43333787769E+01  0.14943834928E+03  0.90108564098E+02 0.  0.
          5    1    3    3  502    0  0.17143524960E+02 -0.58213047092E+01  0.10392015681E+03  0.10556826904E+03  0.41800000000E+01 0.  1.
         -5    1    3    3    0  502  0.10034133360E+03 -0.13947275111E+02  0.11249277402E+02  0.10201435367E+03  0.41800000000E+01 0.  1.
        -11    1    4    4    0    0 -0.55327273576E+02  0.28080018761E+02 -0.43251661940E+02  0.75632670953E+02  0.00000000000E+00 0.  1.
         11    1    4    4    0    0 -0.62157584985E+02 -0.83114389408E+01  0.38918283163E+02  0.73805678324E+02  0.00000000000E+00 0. -1.
</event>
<event>
 8    1  0.6635152E-009  0.1099302E+03  0.7561462E-02  0.1260699E+00
          2   -1    0    0  501    0  0.00000000000E+00  0.00000000000E+00  0.53575455028E+03  0.53575455028E+03  0.00000000000E+00 0. -1.
         -2   -1    0    0    0  501 -0.00000000000E+00 -0.00000000000E+00 -0.30431717235E+02  0.30431717235E+02  0.00000000000E+00 0.  1.
         25    2    1    2    0    0  0.65693475951E+02 -0.14791759852E+02  0.29185189210E+03  0.32459202072E+03  0.12509206232E+03 0.  0.
         23    2    1    2    0    0 -0.65693475951E+02  0.14791759852E+02  0.21347094095E+03  0.24159424679E+03  0.90903842115E+02 0.  0.
          5    1    3    3  502    0  0.81840989609E+01 -0.63877155067E+02  0.16029288277E+03  0.17279627045E+03  0.41800000000E+01 0.  1.
         -5    1    3    3    0  502  0.57509376991E+02  0.49085395216E+02  0.13155900933E+03  0.15179575027E+03  0.41800000000E+01 0.  1.
        -11    1    4    4    0    0 -0.35996594227E+02 -0.13634461643E+02  0.19187935370E+02  0.43009652452E+02  0.00000000000E+00 0.  1.
         11    1    4    4    0    0 -0.29696881724E+02  0.28426221495E+02  0.19428300558E+03  0.19858459434E+03  0.00000000000E+00 0. -1.
</event>
<event>
 8    1  0.6635152E-009  0.1127634E+03  0.7561462E-02  0.1255536E+00
         -1   -1    0    0    0  501 -0.00000000000E+00  0.00000000000E+00  0.13252205589E+02  0.13252205589E+02  0.00000000000E+00 0.  1.
          1   -1    0    0  501    0  0.00000000000E+00 -0.00000000000E+00 -0.98251898060E+03  0.98251898060E+03  0.00000000000E+00 0. -1.
         25    2    1    2    0    0  0.32683846276E+02  0.47278718919E+01 -0.61879989117E+03  0.63217972257E+03  0.12508920708E+03 0.  0.
         23    2    1    2    0    0 -0.32683846276E+02 -0.47278718919E+01 -0.35046688384E+03  0.36359146362E+03  0.91000709731E+02 0.  0.
          5    1    3    3  502    0  0.52522806509E+02  0.54244569702E+02 -0.38142249588E+03  0.38884664240E+03  0.41800000000E+01 0.  1.
         -5    1    3    3    0  502 -0.19838960234E+02 -0.49516697810E+02 -0.23737739530E+03  0.24333308016E+03  0.41800000000E+01 0.  1.
        -11    1    4    4    0    0  0.14489141173E+01 -0.44195292097E+02 -0.17751883184E+03  0.18294332142E+03  0.00000000000E+00 0.  1.
         11    1    4    4    0    0 -0.34132760393E+02  0.39467420205E+02 -0.17294805199E+03  0.18064814219E+03  0.00000000000E+00 0. -1.
</event>
<event>
 8    1  0.6635152E-009  0.4362568E+03  0.7561462E-02  0.1031902E+00
         -2   -1    0    0    0  501 -0.00000000000E+00  0.00000000000E+00  0.18623828635E+03  0.18623828635E+03  0.00000000000E+00 0.  1.
          2   -1    0    0  501    0  0.00000000000E+00 -0.00000000000E+00 -0.22128915059E+04  0.22128915059E+04  0.00000000000E+00 0. -1.
         25    2    1    2    0    0 -0.21922030062E+03 -0.37546103647E+03 -0.18766693411E+04  0.19304310375E+04  0.12509054671E+03 0.  0.
         23    2    1    2    0    0  0.21922030062E+03  0.37546103647E+03 -0.14998387853E+03  0.46869875476E+03  0.90304090615E+02 0.  0.
          5    1    3    3  502    0 -0.14824647804E+03 -0.21295163968E+03 -0.85629700598E+03  0.89475552748E+03  0.41800000000E+01 0. -1.
         -5    1    3    3    0  502 -0.70973822581E+02 -0.16250939679E+03 -0.10203723351E+04  0.10356755100E+04  0.41800000000E+01 0. -1.
        -11    1    4    4    0    0  0.11853064038E+03  0.22956035997E+03 -0.43753540653E+02  0.26203405103E+03  0.00000000000E+00 0.  1.
         11    1    4    4    0    0  0.10068966023E+03  0.14590067650E+03 -0.10623033788E+03  0.20666470373E+03  0.00000000000E+00 0. -1.
</event>
<event>
 8    1  0.6635152E-009  0.8613092E+02  0.7561462E-02  0.1312501E+00
          1   -1    0    0  501    0  0.00000000000E+00  0.00000000000E+00  0.22028692066E+03  0.22028692066E+03  0.00000000000E+00 0. -1.
         -1   -1    0    0    0  501 -0.00000000000E+00 -0.00000000000E+00 -0.63897169286E+02  0.63897169286E+02  0.00000000000E+00 0.  1.
         25    2    1    2    0    0  0.15775493919E+02  0.29301033687E+02  0.55244459479E+02  0.14076232255E+03  0.12511860119E+03 0.  0.
         23    2    1    2    0    0 -0.15775493919E+02 -0.29301033687E+02  0.10114529190E+03  0.14342176739E+03  0.96083383089E+02 0.  0.
          5    1    3    3  502    0  0.24770188103E+02 -0.12268009967E+02  0.84478508120E+02  0.88984026776E+02  0.41800000000E+01 0.  1.
         -5    1    3    3    0  502 -0.89946941832E+01  0.41569043654E+02 -0.29234048641E+02  0.51778295778E+02  0.41800000000E+01 0.  1.
        -11    1    4    4    0    0  0.37262836218E+02  0.61606300004E+01  0.40908647629E+02  0.55677551813E+02  0.00000000000E+00 0. -1.
         11    1    4    4    0    0 -0.53038330137E+02 -0.35461663688E+02  0.60236644270E+02  0.87744215582E+02  0.00000000000E+00 0.  1.
</event>
<event>
 8    1  0.6635152E-009  0.9850868E+02  0.7561462E-02  0.1283464E+00
          2   -1    0    0  501    0  0.00000000000E+00  0.00000000000E+00  0.20966039067E+03  0.20966039067E+03  0.00000000000E+00 0.  1.
         -2   -1    0    0    0  501 -0.00000000000E+00 -0.00000000000E+00 -0.88284894208E+02  0.88284894208E+02  0.00000000000E+00 0. -1.
         25    2    1    2    0    0  0.66353991086E+02 -0.23337075070E+02  0.11059394465E+03  0.18118018723E+03  0.12509104063E+03 0.  0.
         23    2    1    2    0    0 -0.66353991086E+02  0.23337075070E+02  0.10781551815E+02  0.11676509765E+03  0.92576319667E+02 0.  0.
          5    1    3    3  502    0 -0.95588234266E+01 -0.91236062339E+01 -0.22976082700E+02  0.26832518932E+02  0.41800000000E+01 0. -1.
         -5    1    3    3    0  502  0.75912814512E+02 -0.14213468836E+02  0.13357002735E+03  0.15434766830E+03  0.41800000000E+01 0. -1.
        -11    1    4    4    0    0 -0.35947824699E+02  0.52535743799E+02  0.30074940748E+02  0.70404208242E+02  0.00000000000E+00 0.  1.
         11    1    4    4    0    0 -0.30406166387E+02 -0.29198668729E+02 -0.19293388934E+02  0.46360889405E+02  0.00000000000E+00 0. -1.
</event>
<event>
 8    1  0.6635152E-009  0.1054211E+03  0.7561462E-02  0.1269292E+00
         -2   -1    0    0    0  501 -0.00000000000E+00  0.00000000000E+00  0.43099682602E+02  0.43099682602E+02  0.00000000000E+00 0.  1.
          2   -1    0    0  501    0  0.00000000000E+00 -0.00000000000E+00 -0.45191825334E+03  0.45191825334E+03  0.00000000000E+00 0. -1.
         25    2    1    2    0    0  0.20683000053E+02 -0.68071938299E+02 -0.31885640130E+03  0.34982654412E+03  0.12509049142E+03 0.  0.
         23    2    1    2    0    0 -0.20683000053E+02  0.68071938299E+02 -0.89962169436E+02  0.14519139183E+03  0.89026810881E+02 0.  0.
          5    1    3    3  502    0  0.22575523260E+01  0.20112008534E+02 -0.24403377566E+01  0.20809062404E+02  0.41800000000E+01 0. -1.
         -5    1    3    3    0  502  0.18425447727E+02 -0.88183946833E+02 -0.31641606355E+03  0.32901748171E+03  0.41800000000E+01 0. -1.
        -11    1    4    4    0    0 -0.19810765185E+02  0.82851055558E+02 -0.41963888335E+02  0.94961738340E+02  0.00000000000E+00 0.  1.
         11    1    4    4    0    0 -0.87223486782E+00 -0.14779117260E+02 -0.47998281101E+02  0.50229653486E+02  0.00000000000E+00 0. -1.
</event>
<event>
 8    1  0.6635152E-009  0.1675441E+03  0.7561462E-02  0.1180433E+00
          4   -1    0    0  501    0  0.00000000000E+00  0.00000000000E+00  0.78659343846E+03  0.78659343846E+03  0.00000000000E+00 0. -1.
         -4   -1    0    0    0  501 -0.00000000000E+00 -0.00000000000E+00 -0.51149256199E+02  0.51149256199E+02  0.00000000000E+00 0.  1.
         25    2    1    2    0    0 -0.15242793730E+03  0.59982648734E+02  0.46484644993E+03  0.50848969874E+03  0.12508939798E+03 0.  0.
         23    2    1    2    0    0  0.15242793730E+03 -0.59982648734E+02  0.27059773233E+03  0.32925299593E+03  0.91390417264E+02 0.  0.
          5    1    3    3  502    0 -0.15042718460E+03  0.55965556422E+02  0.27422240637E+03  0.31776702461E+03  0.41800000000E+01 0.  1.
         -5    1    3    3    0  502 -0.20007526944E+01  0.40170923119E+01  0.19062404356E+03  0.19072267413E+03  0.41800000000E+01 0.  1.
        -11    1    4    4    0    0  0.14824228607E+03 -0.48176792442E+02  0.27489311743E+03  0.31601108322E+03  0.00000000000E+00 0. -1.
         11    1    4    4    0    0  0.41856512299E+01 -0.11805856292E+02 -0.42953850990E+01  0.13241912707E+02  0.00000000000E+00 0.  1.
</event>
<event>
 8    1  0.6635152E-009  0.1719490E+03  0.7561462E-02  0.1175830E+00
         -1   -1    0    0    0  501 -0.00000000000E+00  0.00000000000E+00  0.26104488819E+03  0.26104488819E+03  0.00000000000E+00 0.  1.
          1   -1    0    0  501    0  0.00000000000E+00 -0.00000000000E+00 -0.16009123107E+03  0.16009123107E+03  0.00000000000E+00 0. -1.
         25    2    1    2    0    0 -0.13469942733E+03  0.11148213219E+02 -0.58506924930E+02  0.19323850083E+03  0.12509931877E+03 0.  0.
         23    2    1    2    0    0  0.13469942733E+03 -0.11148213219E+02  0.15946058206E+03  0.22789761843E+03  0.90782315877E+02 0.  0.
          5    1    3    3  502    0 -0.18734480373E+02 -0.48499768910E+02 -0.56496227373E+01  0.52465216823E+02  0.41800000000E+01 0. -1.
         -5    1    3    3    0  502 -0.11596494696E+03  0.59647982129E+02 -0.52857302193E+02  0.14077328401E+03  0.41800000000E+01 0. -1.
        -11    1    4    4    0    0  0.13676850057E+03 -0.31875956534E+02  0.12708646744E+03  0.18940081721E+03  0.00000000000E+00 0. -1.
         11    1    4    4    0    0 -0.20690732424E+01  0.20727743315E+02  0.32374114618E+02  0.38496801221E+02  0.00000000000E+00 0.  1.
</event>
<event>
 8    1  0.6635152E-009  0.1104173E+03  0.7561462E-02  0.1259799E+00
          2   -1    0    0  501    0  0.00000000000E+00  0.00000000000E+00  0.30536986649E+02  0.30536986649E+02  0.00000000000E+00 0. -1.
         -2   -1    0    0    0  501 -0.00000000000E+00 -0.00000000000E+00 -0.47004288924E+03  0.47004288924E+03  0.00000000000E+00 0.  1.
         25    2    1    2    0    0  0.21585871255E+02 -0.42884321165E+02 -0.21080347294E+03  0.24977791487E+03  0.12508352296E+03 0.  0.
         23    2    1    2    0    0 -0.21585871255E+02  0.42884321165E+02 -0.22870242966E+03  0.25080196102E+03  0.91059362394E+02 0.  0.
          5    1    3    3  502    0  0.71723527220E+02 -0.13422557206E+02 -0.92522064410E+02  0.11790773597E+03  0.41800000000E+01 0. -1.
         -5    1    3    3    0  502 -0.50137655965E+02 -0.29461763959E+02 -0.11828140853E+03  0.13187017890E+03  0.41800000000E+01 0. -1.
        -11    1    4    4    0    0 -0.49781998030E+02  0.22387656380E+02 -0.72463925137E+02  0.90721964993E+02  0.00000000000E+00 0. -1.
         11    1    4    4    0    0  0.28196126775E+02  0.20496664785E+02 -0.15623850452E+03  0.16007999603E+03  0.00000000000E+00 0.  1.
</event>
<event>
 8    1  0.6635152E-009  0.9901701E+02  0.7561462E-02  0.1282377E+00
          2   -1    0    0  501    0  0.00000000000E+00  0.00000000000E+00  0.62512850892E+03  0.62512850892E+03  0.00000000000E+00 0. -1.
         -2   -1    0    0    0  501 -0.00000000000E+00 -0.00000000000E+00 -0.35257685784E+02  0.35257685784E+02  0.00000000000E+00 0.  1.
         25    2    1    2    0    0  0.15012990944E+02  0.96864487172E+02  0.37235796198E+03  0.40485183686E+03  0.12508572736E+03 0.  0.
         23    2    1    2    0    0 -0.15012990944E+02 -0.96864487172E+02  0.21751286115E+03  0.25553435783E+03  0.91530565915E+02 0.  0.
          5    1    3    3  502    0  0.78598506900E+01  0.16510994328E+02 -0.46180769933E+01  0.19318106058E+02  0.41800000000E+01 0.  1.
         -5    1    3    3    0  502  0.71531402544E+01  0.80353492844E+02  0.37697603898E+03  0.38553373081E+03  0.41800000000E+01 0.  1.
        -11    1    4    4    0    0 -0.32141600723E+01 -0.52233844310E+02  0.25809483799E+02  0.58350962034E+02  0.00000000000E+00 0.  1.
         11    1    4    4    0    0 -0.11798830872E+02 -0.44630642862E+02  0.19170337735E+03  0.19718339580E+03  0.00000000000E+00 0. -1.
</event>
<event>
 8    1  0.6635152E-009  0.1340420E+03  0.7561462E-02  0.1221578E+00
          2   -1    0    0  501    0  0.00000000000E+00  0.00000000000E+00  0.11146221315E+03  0.11146221315E+03  0.00000000000E+00 0. -1.
         -2   -1    0    0    0  501 -0.00000000000E+00 -0.00000000000E+00 -0.17161199682E+03  0.17161199682E+03  0.00000000000E+00 0.  1.
         25    2    1    2    0    0  0.66447462624E+02  0.52831009752E+02 -0.23136751841E+02  0.15293244267E+03  0.12508653746E+03 0.  0.
         23    2    1    2    0    0 -0.66447462624E+02 -0.52831009752E+02 -0.37013031831E+02  0.13014176730E+03  0.91435956767E+02 0.  0.
          5    1    3    3  502    0  0.98437118579E+02  0.53426264632E+02  0.18938521429E+01  0.11209500945E+03  0.41800000000E+01 0. -1.
         -5    1    3    3    0  502 -0.31989655955E+02 -0.59525487968E+00 -0.25030603984E+02  0.40837433223E+02  0.41800000000E+01 0. -1.
        -11    1    4    4    0    0 -0.54861944309E+02  0.13421769440E+02 -0.86104791939E+01  0.57132452951E+02  0.00000000000E+00 0.  1.
         11    1    4    4    0    0 -0.11585518315E+02 -0.66252779192E+02 -0.28402552637E+02  0.73009314348E+02  0.00000000000E+00 0. -1.
</event>
<event>
 8    1  0.6635152E-009  0.1618753E+03  0.7561462E-02  0.1186596E+00
         -1   -1    0    0    0  501 -0.00000000000E+00  0.00000000000E+00  0.11067336622E+04  0.11067336622E+04  0.00000000000E+00 0.  1.
          1   -1    0    0  501    0  0.00000000000E+00 -0.00000000000E+00 -0.26466682185E+02  0.26466682185E+02  0.00000000000E+00 0. -1.
         25    2    1    2    0    0 -0.10921313286E+03 -0.65284617981E+02  0.76985953515E+03  0.79026623919E+03  0.12508970862E+03 0.  0.
         23    2    1    2    0    0  0.10921313286E+03  0.65284617981E+02  0.31040744483E+03  0.34293410516E+03  0.71143720347E+02 0.  0.
          5    1    3    3  502    0 -0.51137586449E+01 -0.73370343818E+02  0.33975268034E+03  0.34764739906E+03  0.41800000000E+01 0.  1.
         -5    1    3    3    0  502 -0.10409937421E+03  0.80857258368E+01  0.43010685482E+03  0.44261884012E+03  0.41800000000E+01 0.  1.
        -11    1    4    4    0    0  0.11091553419E+03  0.36521471508E+02  0.24174666814E+03  0.26847257805E+03  0.00000000000E+00 0.  1.
         11    1    4    4    0    0 -0.17024013279E+01  0.28763146473E+02  0.68660776684E+02  0.74461527114E+02  0.00000000000E+00 0. -1.
</event>
<event>
 8    1  0.6635152E-009  0.1414327E+03  0.7561462E-02  0.1211414E+00
          2   -1    0    0  501    0  0.00000000000E+00  0.00000000000E+00  0.21402062080E+03  0.21402062080E+03  0.00000000000E+00 0. -1.
         -2   -1    0    0    0  501 -0.00000000000E+00 -0.00000000000E+00 -0.98812185679E+02  0.98812185679E+02  0.00000000000E+00 0.  1.
         25    2    1    2    0    0  0.58220826090E+02  0.72816333897E+02  0.35210626442E+02  0.15993547489E+03  0.12509070645E+03 0.  0.
         23    2    1    2    0    0 -0.58220826090E+02 -0.72816333897E+02  0.79997808680E+02  0.15289733159E+03  0.91027806419E+02 0.  0.
          5    1    3    3  502    0 -0.20332381866E+02  0.72000220985E+02  0.31922534130E+01  0.75000669704E+02  0.41800000000E+01 0. -1.
         -5    1    3    3    0  502  0.78553207956E+02  0.81611291201E+00  0.32018373029E+02  0.84934805185E+02  0.41800000000E+01 0. -1.
        -11    1    4    4    0    0 -0.60528945221E+02 -0.42704015695E+01  0.27991368784E+02  0.66824443623E+02  0.00000000000E+00 0.  1.
         11    1    4    4    0    0  0.23081191311E+01 -0.68545932328E+02  0.52006439896E+02  0.86072887969E+02  0.00000000000E+00 0. -1.
</event>
<event>
 8    1  0.6635152E-009  0.9549210E+02  0.7561462E-02  0.1290072E+00
         -1   -1    0    0    0  501 -0.00000000000E+00  0.00000000000E+00  0.84412390629E+02  0.84412390629E+02  0.00000000000E+00 0.  1.
          1   -1    0    0  501    0  0.00000000000E+00 -0.00000000000E+00 -0.18007116414E+03  0.18007116414E+03  0.00000000000E+00 0. -1.
         25    2    1    2    0    0 -0.53498013795E+02  0.15494678137E+02 -0.35135084200E+02  0.14136742406E+03  0.12509257337E+03 0.  0.
         23    2    1    2    0    0  0.53498013795E+02 -0.15494678137E+02 -0.60523689314E+02  0.12311613072E+03  0.91609727342E+02 0.  0.
          5    1    3    3  502    0  0.17860133713E+01  0.53640422032E+02 -0.48843124068E+02  0.72688430223E+02  0.41800000000E+01 0.  1.
         -5    1    3    3    0  502 -0.55284027166E+02 -0.38145743895E+02  0.13708039868E+02  0.68678993834E+02  0.41800000000E+01 0.  1.
        -11    1    4    4    0    0  0.17055021882E+02 -0.26739979498E+02 -0.75694938690E+02  0.82070847554E+02  0.00000000000E+00 0. -1.
         11    1    4    4    0    0  0.36442991913E+02  0.11245301361E+02  0.15171249375E+02  0.41045283162E+02  0.00000000000E+00 0.  1.
</event>
<event>
 8    1  0.6635152E-009  0.8698720E+02  0.7561462E-02  0.1310316E+00
         -2   -1    0    0    0  501 -0.00000000000E+00  0.00000000000E+00  0.10294022860E+03  0.10294022860E+03  0.00000000000E+00 0.  1.
          2   -1    0    0  501    0  0.00000000000E+00 -0.00000000000E+00 -0.30821506266E+03  0.30821506266E+03  0.00000000000E+00 0. -1.
         25    2    1    2    0    0 -0.31362369808E+02 -0.27481758737E+02 -0.26275316766E+03  0.29398244639E+03  0.12509039280E+03 0.  0.
         23    2    1    2    0    0  0.31362369808E+02  0.27481758737E+02  0.57478333593E+02  0.11717284487E+03  0.93203387489E+02 0.  0.
          5    1    3    3  502    0  0.10906027153E+02  0.12539764703E+02  0.66119969019E+01  0.18367853171E+02  0.41800000000E+01 0. -1.
         -5    1    3    3    0  502 -0.42268396961E+02 -0.40021523440E+02 -0.26936516456E+03  0.27561459322E+03  0.41800000000E+01 0. -1.
        -11    1    4    4    0    0  0.38203759901E+02  0.56755656180E+02  0.53495285090E+02  0.86847436956E+02  0.00000000000E+00 0.  1.
         11    1    4    4    0    0 -0.68413900931E+01 -0.29273897443E+02  0.39830485028E+01  0.30325407916E+02  0.00000000000E+00 0. -1.
</event>
<event>
 8    1  0.6635152E-009  0.7173136E+02  0.7561462E-02  0.1354303E+00
         -1   -1    0    0    0  501 -0.00000000000E+00  0.00000000000E+00  0.79318865431E+02  0.79318865431E+02  0.00000000000E+00 0.  1.
          1   -1    0    0  501    0  0.00000000000E+00 -0.00000000000E+00 -0.19018660462E+03  0.19018660462E+03  0.00000000000E+00 0. -1.
         25    2    1    2    0    0  0.60182074805E+00  0.35681720924E+02 -0.90438931821E+01  0.13039434031E+03  0.12508934641E+03 0.  0.
         23    2    1    2    0    0 -0.60182074805E+00 -0.35681720924E+02 -0.10182384601E+03  0.13911112974E+03  0.87808105583E+02 0.  0.
          5    1    3    3  502    0  0.14940308533E+02  0.30189010787E+02  0.54875258856E+02  0.64524070128E+02  0.41800000000E+01 0.  1.
         -5    1    3    3    0  502 -0.14338487785E+02  0.54927101370E+01 -0.63919152038E+02  0.65870270182E+02  0.41800000000E+01 0.  1.
        -11    1    4    4    0    0 -0.21503755760E+02  0.22896815323E+02 -0.44910345232E+02  0.54805244025E+02  0.00000000000E+00 0.  1.
         11    1    4    4    0    0  0.20901935012E+02 -0.58578536247E+02 -0.56913500777E+02  0.84305885719E+02  0.00000000000E+00 0. -1.
</event>
<event>
 8    1  0.6635152E-009  0.9556090E+02  0.7561462E-02  0.1289918E+00
          3   -1    0    0  501    0  0.00000000000E+00  0.00000000000E+00  0.16224314851E+03  0.16224314851E+03  0.00000000000E+00 0. -1.
         -3   -1    0    0    0  501 -0.00000000000E+00 -0.00000000000E+00 -0.11474869899E+03  0.11474869899E+03  0.00000000000E+00 0.  1.
         25    2    1    2    0    0  0.48568338384E+02  0.37031644082E+02 -0.30341765642E+02  0.14247132590E+03  0.12508888762E+03 0.  0.
         23    2    1    2    0    0 -0.48568338384E+02 -0.37031644082E+02  0.77836215164E+02  0.13452052160E+03  0.91143119231E+02 0.  0.
          5    1    3    3  502    0  0.48591868818E+02  0.48596673371E+01 -0.73583431553E+02  0.88412554996E+02  0.41800000000E+01 0. -1.
         -5    1    3    3    0  502 -0.23530433571E-01  0.32171976745E+02  0.43241665911E+02  0.54058770908E+02  0.41800000000E+01 0. -1.
        -11    1    4    4    0    0  0.42937221938E+01  0.26598575636E+02  0.17426268552E+02  0.32087304527E+02  0.00000000000E+00 0.  1.
         11    1    4    4    0    0 -0.52862060578E+02 -0.63630219718E+02  0.60409946612E+02  0.10243321707E+03  0.00000000000E+00 0. -1.
</event>
<event>
 8    1  0.6635152E-009  0.2968101E+03  0.7561462E-02  0.1086846E+00
         -3   -1    0    0    0  501 -0.00000000000E+00  0.00000000000E+00  0.74124333792E+03  0.74124333792E+03  0.00000000000E+00 0.  1.
          3   -1    0    0  501    0  0.00000000000E+00 -0.00000000000E+00 -0.13565538778E+03  0.13565538778E+03  0.00000000000E+00 0. -1.
         25    2    1    2    0    0 -0.24368893623E+03  0.14279751218E+03  0.17828422847E+03  0.35667300738E+03  0.12511970645E+03 0.  0.
         23    2    1    2    0    0  0.24368893623E+03 -0.14279751218E+03  0.42730372166E+03  0.52022571832E+03  0.90944490409E+02 0.  0.
          5    1    3    3  502    0 -0.21121019553E+03  0.16461467821E+03  0.16746648551E+03  0.31586426697E+03  0.41800000000E+01 0. -1.
         -5    1    3    3    0  502 -0.32478740699E+02 -0.21817166028E+02  0.10817742962E+02  0.40808740408E+02  0.41800000000E+01 0. -1.
        -11    1    4    4    0    0  0.20249230870E+02 -0.29905851228E+02  0.11168592904E+03  0.11738031365E+03  0.00000000000E+00 0.  1.
         11    1    4    4    0    0  0.22343970536E+03 -0.11289166096E+03  0.31561779262E+03  0.40284540467E+03  0.00000000000E+00 0. -1.
</event>
<event>
 8    1  0.6635152E-009  0.2838555E+03  0.7561462E-02  0.1093602E+00
          2   -1    0    0  501    0  0.00000000000E+00  0.00000000000E+00  0.74627529293E+03  0.74627529293E+03  0.00000000000E+00 0. -1.
         -2   -1    0    0    0  501 -0.00000000000E+00 -0.00000000000E+00 -0.11116871296E+03  0.11116871296E+03  0.00000000000E+00 0.  1.
         25    2    1    2    0    0 -0.25295414544E+03 -0.74617187904E+02  0.37945049935E+03  0.47873135485E+03  0.12508998455E+03 0.  0.
         23    2    1    2    0    0  0.25295414544E+03  0.74617187904E+02  0.25565608061E+03  0.37871265104E+03  0.92248122351E+02 0.  0.
          5    1    3    3  502    0 -0.17059682877E+03  0.93179290385E+01  0.25934995036E+03  0.31059615410E+03  0.41800000000E+01 0. -1.
         -5    1    3    3    0  502 -0.82357316670E+02 -0.83935116943E+02  0.12010054899E+03  0.16813520076E+03  0.41800000000E+01 0. -1.
        -11    1    4    4    0    0  0.43824588413E+02  0.53189642382E+02  0.70218939286E+02  0.98389186604E+02  0.00000000000E+00 0. -1.
         11    1    4    4    0    0  0.20912955703E+03  0.21427545523E+02  0.18543714132E+03  0.28032346443E+03  0.00000000000E+00 0.  1.
</event>
<event>
 8    1  0.6635152E-009  0.1657900E+03  0.7561462E-02  0.1182311E+00
         -1   -1    0    0    0  501 -0.00000000000E+00  0.00000000000E+00  0.57169272425E+02  0.57169272425E+02  0.00000000000E+00 0.  1.
          1   -1    0    0  501    0  0.00000000000E+00 -0.00000000000E+00 -0.63191810024E+03  0.63191810024E+03  0.00000000000E+00 0. -1.
         25    2    1    2    0    0 -0.69090395578E+02 -0.14529073315E+03 -0.26159416738E+03  0.33160489731E+03  0.12508964630E+03 0.  0.
         23    2    1    2    0    0  0.69090395578E+02  0.14529073315E+03 -0.31315466043E+03  0.35748247535E+03  0.62008055386E+02 0.  0.
          5    1    3    3  502    0 -0.28697971341E+02 -0.11358289942E+03 -0.25371125951E+03  0.27948438991E+03  0.41800000000E+01 0.  1.
         -5    1    3    3    0  502 -0.40392424237E+02 -0.31707833726E+02 -0.78829078720E+01  0.52120507402E+02  0.41800000000E+01 0.  1.
        -11    1    4    4    0    0  0.16111809215E+02  0.62487212118E+02 -0.18524323793E+03  0.19616141127E+03  0.00000000000E+00 0. -1.
         11    1    4    4    0    0  0.52978586363E+02  0.82803521033E+02 -0.12791142250E+03  0.16132106407E+03  0.00000000000E+00 0.  1.
</event>
<event>
 8    1  0.6635152E-009  0.1653868E+03  0.7561462E-02  0.1182746E+00
         -1   -1    0    0    0  501 -0.00000000000E+00  0.00000000000E+00  0.26307547927E+03  0.26307547927E+03  0.00000000000E+00 0.  1.
          1   -1    0    0  501    0  0.00000000000E+00 -0.00000000000E+00 -0.15739996100E+03  0.15739996100E+03  0.00000000000E+00 0. -1.
         25    2    1    2    0    0  0.14712533210E+03  0.19648060662E+02  0.14450544553E+03  0.24199424103E+03  0.12508988476E+03 0.  0.
         23    2    1    2    0    0 -0.14712533210E+03 -0.19648060662E+02 -0.38829927259E+02  0.17848119924E+03  0.91191367992E+02 0.  0.
          5    1    3    3  502    0  0.72600484159E+02 -0.18819066439E+02  0.13880883168E+03  0.15783013563E+03  0.41800000000E+01 0. -1.
         -5    1    3    3    0  502  0.74524847941E+02  0.38467127101E+02  0.56966138526E+01  0.84164105398E+02  0.41800000000E+01 0. -1.
        -11    1    4    4    0    0 -0.93082694927E+02 -0.54036151961E+02 -0.95578096463E+01  0.10805390108E+03  0.00000000000E+00 0.  1.
         11    1    4    4    0    0 -0.54042637173E+02  0.34388091299E+02 -0.29272117612E+02  0.70427298154E+02  0.00000000000E+00 0. -1.
</event>
<event>
 8    1  0.6635152E-009  0.1061693E+03  0.7561462E-02  0.1267833E+00
         -1   -1    0    0    0  501 -0.00000000000E+00  0.00000000000E+00  0.58605044273E+02  0.58605044273E+02  0.00000000000E+00 0.  1.
          1   -1    0    0  501    0  0.00000000000E+00 -0.00000000000E+00 -0.33318607644E+03  0.33318607644E+03  0.00000000000E+00 0. -1.
         25    2    1    2    0    0  0.84549860716E+02  0.12067687461E+02 -0.12075031647E+03  0.19369232993E+03  0.12506706888E+03 0.  0.
         23    2    1    2    0    0 -0.84549860716E+02 -0.12067687461E+02 -0.15383071570E+03  0.19809879079E+03  0.91021611670E+02 0.  0.
          5    1    3    3  502    0  0.64207399074E+02  0.36540945137E+00 -0.14564506037E+03  0.15922524809E+03  0.41800000000E+01 0.  1.
         -5    1    3    3    0  502  0.20342461643E+02  0.11702278010E+02  0.24894743901E+02  0.34467081835E+02  0.41800000000E+01 0.  1.
        -11    1    4    4    0    0 -0.57628734051E+02 -0.50911076355E+02 -0.85197638552E+02  0.11476779295E+03  0.00000000000E+00 0.  1.
         11    1    4    4    0    0 -0.26921126665E+02  0.38843388894E+02 -0.68633077148E+02  0.83330997837E+02  0.00000000000E+00 0. -1.
</event>
<event>
 8    1  0.6635152E-009  0.1070031E+03  0.7561462E-02  0.1266222E+00
         -2   -1    0    0    0  501 -0.00000000000E+00  0.00000000000E+00  0.46019717530E+02  0.46019717530E+02  0.00000000000E+00 0. -1.
          2   -1    0    0  501    0  0.00000000000E+00 -0.00000000000E+00 -0.48874591615E+03  0.48874591615E+03  0.00000000000E+00 0.  1.
         25    2    1    2    0    0 -0.98775915897E+02 -0.34990903686E+02 -0.17730511600E+03  0.24096243373E+03  0.12507895669E+03 0.  0.
         23    2    1    2    0    0  0.98775915897E+02  0.34990903686E+02 -0.26542108261E+03  0.29380319994E+03  0.69935143516E+02 0.  0.
          5    1    3    3  502    0 -0.60954505441E+02 -0.90808275717E+01 -0.18432091865E+03  0.19439543877E+03  0.41800000000E+01 0.  1.
         -5    1    3    3    0  502 -0.37821410456E+02 -0.25910076114E+02  0.70158026462E+01  0.46566994963E+02  0.41800000000E+01 0.  1.
        -11    1    4    4    0    0  0.58895547787E+02  0.11790419672E+02 -0.22361748276E+03  0.23154368517E+03  0.00000000000E+00 0.  1.
         11    1    4    4    0    0  0.39880368110E+02  0.23200484014E+02 -0.41803599848E+02  0.62259514770E+02  0.00000000000E+00 0. -1.
</event>
<event>
 8    1  0.6635152E-009  0.9885902E+02  0.7561462E-02  0.1282714E+00
          1   -1    0    0  501    0  0.00000000000E+00  0.00000000000E+00  0.24460928271E+03  0.24460928271E+03  0.00000000000E+00 0. -1.
         -1   -1    0    0    0  501 -0.00000000000E+00 -0.00000000000E+00 -0.74515279562E+02  0.74515279562E+02  0.00000000000E+00 0.  1.
         25    2    1    2    0    0  0.27801478338E+02  0.44632714860E+02  0.16520966099E+03  0.21379200561E+03  0.12509111937E+03 0.  0.
         23    2    1    2    0    0 -0.27801478338E+02 -0.44632714860E+02  0.48843421619E+01  0.10533255667E+03  0.91137748832E+02 0.  0.
          5    1    3    3  502    0  0.53519335300E+02  0.13998342511E+02  0.16446399081E+03  0.17356886103E+03  0.41800000000E+01 0. -1.
         -5    1    3    3    0  502 -0.25717856962E+02  0.30634372349E+02  0.74567017649E+00  0.40223144581E+02  0.41800000000E+01 0. -1.
        -11    1    4    4    0    0 -0.12419720286E+01 -0.67176024974E+02 -0.90855438334E+01  0.67799026045E+02  0.00000000000E+00 0.  1.
         11    1    4    4    0    0 -0.26559506310E+02  0.22543310114E+02  0.13969885995E+02  0.37533530623E+02  0.00000000000E+00 0. -1.
</event>
<event>
 8    1  0.6635152E-009  0.1922231E+03  0.7561462E-02  0.1156471E+00
         -2   -1    0    0    0  501 -0.00000000000E+00  0.00000000000E+00  0.21014118784E+03  0.21014118784E+03  0.00000000000E+00 0.  1.
          2   -1    0    0  501    0  0.00000000000E+00 -0.00000000000E+00 -0.21913257509E+03  0.21913257509E+03  0.00000000000E+00 0. -1.
         25    2    1    2    0    0  0.15450977537E+03  0.75228939494E+02 -0.67718782012E+02  0.22308360202E+03  0.12509115089E+03 0.  0.
         23    2    1    2    0    0 -0.15450977537E+03 -0.75228939494E+02  0.58727394766E+02  0.20619016092E+03  0.97636118019E+02 0.  0.
          5    1    3    3  502    0  0.16930458674E+02  0.50983000055E+02  0.20676496168E+02  0.57713920498E+02  0.41800000000E+01 0. -1.
         -5    1    3    3    0  502  0.13757931669E+03  0.24245939440E+02 -0.88395278179E+02  0.16536968152E+03  0.41800000000E+01 0. -1.
        -11    1    4    4    0    0 -0.10235274792E+03 -0.38866310957E+01  0.45432288784E+01  0.10252722486E+03  0.00000000000E+00 0. -1.
         11    1    4    4    0    0 -0.52157027445E+02 -0.71342308399E+02  0.54184165888E+02  0.10366293606E+03  0.00000000000E+00 0.  1.
</event>
<event>
 8    1  0.6635152E-009  0.1810641E+03  0.7561462E-02  0.1166777E+00
         -1   -1    0    0    0  501 -0.00000000000E+00  0.00000000000E+00  0.25524486006E+03  0.25524486006E+03  0.00000000000E+00 0.  1.
          1   -1    0    0  501    0  0.00000000000E+00 -0.00000000000E+00 -0.19054267888E+03  0.19054267888E+03  0.00000000000E+00 0. -1.
         25    2    1    2    0    0  0.10203498314E+03 -0.12355899340E+03 -0.72510916199E+02  0.21583245080E+03  0.12509137146E+03 0.  0.
         23    2    1    2    0    0 -0.10203498314E+03  0.12355899340E+03  0.13721309738E+03  0.22995508815E+03  0.91509266409E+02 0.  0.
          5    1    3    3  502    0  0.67471292864E+02 -0.14461368335E+03 -0.72056376522E+02  0.17514304602E+03  0.41800000000E+01 0. -1.
         -5    1    3    3    0  502  0.34563690280E+02  0.21054689949E+02 -0.45453967750E+00  0.40689404775E+02  0.41800000000E+01 0. -1.
        -11    1    4    4    0    0 -0.80740803982E+02  0.11040360425E+03  0.14902470330E+03  0.20227801525E+03  0.00000000000E+00 0.  1.
         11    1    4    4    0    0 -0.21294179163E+02  0.13155389151E+02 -0.11811605923E+02  0.27677072902E+02  0.00000000000E+00 0. -1.
</event>
<event>
 8    1  0.6635152E-009  0.9801478E+02  0.7561462E-02  0.1284527E+00
         -2   -1    0    0    0  501 -0.00000000000E+00  0.00000000000E+00  0.60639867473E+02  0.60639867473E+02  0.00000000000E+00 0.  1.
          2   -1    0    0  501    0  0.00000000000E+00 -0.00000000000E+00 -0.28393056348E+03  0.28393056348E+03  0.00000000000E+00 0. -1.
         25    2    1    2    0    0  0.51290317420E+02 -0.27864174112E+02 -0.65804442728E+02  0.15292091110E+03  0.12508985375E+03 0.  0.
         23    2    1    2    0    0 -0.51290317420E+02  0.27864174112E+02 -0.15748625328E+03  0.19164951985E+03  0.92306606627E+02 0.  0.
          5    1    3    3  502    0  0.92288850466E+02 -0.27251494493E+02 -0.51971993198E+02  0.10944604310E+03  0.41800000000E+01 0.  1.
         -5    1    3    3    0  502 -0.40998533046E+02 -0.61267961860E+00 -0.13832449530E+02  0.43474868007E+02  0.41800000000E+01 0.  1.
        -11    1    4    4    0    0 -0.25030050627E+02  0.15768247946E+02  0.19176157855E+01  0.29644870180E+02  0.00000000000E+00 0.  1.
         11    1    4    4    0    0 -0.26260266793E+02  0.12095926165E+02 -0.15940386907E+03  0.16200464967E+03  0.00000000000E+00 0. -1.
</event>
<event>
 8    1  0.6635152E-009  0.1729711E+03  0.7561462E-02  0.1174784E+00
          2   -1    0    0  501    0  0.00000000000E+00  0.00000000000E+00  0.15911832876E+04  0.15911832876E+04  0.00000000000E+00 0. -1.
         -2   -1    0    0    0  501 -0.00000000000E+00 -0.00000000000E+00 -0.26946295332E+02  0.26946295332E+02  0.00000000000E+00 0.  1.
         25    2    1    2    0    0 -0.14594888016E+03  0.19714918303E+02  0.11958746847E+04  0.12113851275E+04  0.12509161423E+03 0.  0.
         23    2    1    2    0    0  0.14594888016E+03 -0.19714918303E+02  0.36836230753E+03  0.40674445542E+03  0.89780336252E+02 0.  0.
          5    1    3    3  502    0 -0.13912755624E+03  0.45975531069E+02  0.72279103682E+03  0.73750564857E+03  0.41800000000E+01 0. -1.
         -5    1    3    3    0  502 -0.68213239217E+01 -0.26260612766E+02  0.47308364789E+03  0.47387947893E+03  0.41800000000E+01 0. -1.
        -11    1    4    4    0    0  0.40047419850E+02 -0.47782355642E+02  0.14995672782E+03  0.16240064522E+03  0.00000000000E+00 0. -1.
         11    1    4    4    0    0  0.10590146031E+03  0.28067437339E+02  0.21840557971E+03  0.24434381020E+03  0.00000000000E+00 0.  1.
</event>
<event>
 8    1  0.6635152E-009  0.1817978E+03  0.7561462E-02  0.1166074E+00
          1   -1    0    0  501    0  0.00000000000E+00  0.00000000000E+00  0.13878429518E+03  0.13878429518E+03  0.00000000000E+00 0. -1.
         -1   -1    0    0    0  501 -0.00000000000E+00 -0.00000000000E+00 -0.26865600296E+03  0.26865600296E+03  0.00000000000E+00 0.  1.
         25    2    1    2    0    0  0.24826498048E+02 -0.15014857348E+03 -0.11628463132E+03  0.22876296580E+03  0.12509768151E+03 0.  0.
         23    2    1    2    0    0 -0.24826498048E+02  0.15014857348E+03 -0.13587076454E+02  0.17867733234E+03  0.92628458502E+02 0.  0.
          5    1    3    3  502    0  0.68527368065E+02 -0.80651264819E+02 -0.31106629718E+02  0.11038895553E+03  0.41800000000E+01 0. -1.
         -5    1    3    3    0  502 -0.43700870017E+02 -0.69497308656E+02 -0.85178001605E+02  0.11837401027E+03  0.41800000000E+01 0. -1.
        -11    1    4    4    0    0 -0.53286112245E+02  0.13031776023E+03  0.16262630777E+01  0.14080047273E+03  0.00000000000E+00 0.  1.
         11    1    4    4    0    0  0.28459614197E+02  0.19830813241E+02 -0.15213339531E+02  0.37876859608E+02  0.00000000000E+00 0. -1.
</event>
<event>
 8    1  0.6635152E-009  0.1205945E+03  0.7561462E-02  0.1242119E+00
          2   -1    0    0  501    0  0.00000000000E+00  0.00000000000E+00  0.34450314417E+03  0.34450314417E+03  0.00000000000E+00 0. -1.
         -2   -1    0    0    0  501 -0.00000000000E+00 -0.00000000000E+00 -0.66613330876E+02  0.66613330876E+02  0.00000000000E+00 0.  1.
         25    2    1    2    0    0 -0.89344063775E+02  0.43542850827E+02  0.10450673858E+03  0.19091422030E+03  0.12509292352E+03 0.  0.
         23    2    1    2    0    0  0.89344063775E+02 -0.43542850827E+02  0.17338307471E+03  0.22020225474E+03  0.92460806871E+02 0.  0.
          5    1    3    3  502    0 -0.41145386067E+02  0.12267022803E+01  0.11816929087E+03  0.12520343964E+03  0.41800000000E+01 0.  1.
         -5    1    3    3    0  502 -0.48198677707E+02  0.42316148547E+02 -0.13662552286E+02  0.65710780665E+02  0.41800000000E+01 0.  1.
        -11    1    4    4    0    0  0.10515522626E+03 -0.52323030259E+02  0.14589816433E+03  0.18730081543E+03  0.00000000000E+00 0. -1.
         11    1    4    4    0    0 -0.15811162489E+02  0.87801794313E+01  0.27484910381E+02  0.32901439311E+02  0.00000000000E+00 0.  1.
</event>
<event>
 7    1  0.6635152E-009  0.1427310E+03  0.7561462E-02  0.1209701E+00
          2   -1    0    0  501    0  0.00000000000E+00  0.00000000000E+00  0.84077683703E+03  0.84077683703E+03  0.00000000000E+00 0. -1.
         -2   -1    0    0    0  501 -0.00000000000E+00 -0.00000000000E+00 -0.32965561268E+02  0.32965561268E+02  0.00000000000E+00 0.  1.
         23    2    1    2    0    0  0.88885583711E+02 -0.88804601160E+02  0.34614797696E+03  0.37905571646E+03  0.89877194273E+02 0.  0.
          5    1    1    2  502    0 -0.76991654052E+02  0.11004538934E+03  0.44511738857E+03  0.46495662649E+03  0.41800000000E+01 0. -1.
         -5    1    1    2    0  502 -0.11893929659E+02 -0.21240788183E+02  0.16545910227E+02  0.29730055341E+02  0.41800000000E+01 0. -1.
        -11    1    3    3    0    0  0.56004524552E+02 -0.46373088363E+02  0.82373027638E+02  0.10987395404E+03  0.00000000000E+00 0.  1.
         11    1    3    3    0    0  0.32881059159E+02 -0.42431512797E+02  0.26377494932E+03  0.26918176242E+03  0.00000000000E+00 0. -1.
</event>
<event>
 8    1  0.6635152E-009  0.1133180E+03  0.7561462E-02  0.1254546E+00
          4   -1    0    0  501    0  0.00000000000E+00  0.00000000000E+00  0.91056552624E+02  0.91056552624E+02  0.00000000000E+00 0. -1.
         -4   -1    0    0    0  501 -0.00000000000E+00 -0.00000000000E+00 -0.20176226173E+03  0.20176226173E+03  0.00000000000E+00 0.  1.
         25    2    1    2    0    0 -0.63856094330E+02  0.38842657940E+02 -0.95324280563E+02  0.17413123179E+03  0.12509442258E+03 0.  0.
         23    2    1    2    0    0  0.63856094330E+02 -0.38842657940E+02 -0.15381428545E+02  0.11868758257E+03  0.90905451174E+02 0.  0.
          5    1    3    3  502    0 -0.27456516793E+02 -0.26552299785E+02 -0.91309410528E+02  0.99064452702E+02  0.41800000000E+01 0.  1.
         -5    1    3    3    0  502 -0.36399577537E+02  0.65394957725E+02 -0.40148700358E+01  0.75066779084E+02  0.41800000000E+01 0.  1.
        -11    1    4    4    0    0  0.40466961775E+02  0.23410951040E+02 -0.22354646924E+02  0.51820631635E+02  0.00000000000E+00 0. -1.
         11    1    4    4    0    0  0.23389132556E+02 -0.62253608980E+02  0.69732183792E+01  0.66866950935E+02  0.00000000000E+00 0.  1.
</event>
<event>
 8    1  0.6635152E-009  0.8017980E+02  0.7561462E-02  0.1328542E+00
         -2   -1    0    0    0  501 -0.00000000000E+00  0.00000000000E+00  0.32321440371E+03  0.32321440371E+03  0.00000000000E+00 0.  1.
          2   -1    0    0  501    0  0.00000000000E+00 -0.00000000000E+00 -0.42735424454E+02  0.42735424454E+02  0.00000000000E+00 0. -1.
         25    2    1    2    0    0 -0.39343269910E+02 -0.11507197820E+02  0.17784419544E+03  0.22126569848E+03  0.12509853310E+03 0.  0.
         23    2    1    2    0    0  0.39343269910E+02  0.11507197820E+02  0.10263478381E+03  0.14468412968E+03  0.93377138764E+02 0.  0.
          5    1    3    3  502    0 -0.60154725050E+02  0.29614101420E+02  0.15648850799E+03  0.17029888867E+03  0.41800000000E+01 0.  1.
         -5    1    3    3    0  502  0.20811455140E+02 -0.41121299240E+02  0.21355687452E+02  0.50966809816E+02  0.41800000000E+01 0.  1.
        -11    1    4    4    0    0  0.12739211708E+02 -0.69614454222E+01 -0.16060859416E+02  0.21649490583E+02  0.00000000000E+00 0. -1.
         11    1    4    4    0    0  0.26604058202E+02  0.18468643242E+02  0.11869564323E+03  0.12303463909E+03  0.00000000000E+00 0.  1.
</event>
<event>
 8    1  0.6635152E-009  0.1429105E+03  0.7561462E-02  0.1209465E+00
         -1   -1    0    0    0  501 -0.00000000000E+00  0.00000000000E+00  0.13990442363E+03  0.13990442363E+03  0.00000000000E+00 0.  1.
          1   -1    0    0  501    0  0.00000000000E+00 -0.00000000000E+00 -0.19695826000E+03  0.19695826000E+03  0.00000000000E+00 0. -1.
         25    2    1    2    0    0  0.85102830756E+02 -0.71365905519E+02  0.28512103784E+02  0.16969510443E+03  0.12509158298E+03 0.  0.
         23    2    1    2    0    0 -0.85102830756E+02  0.71365905519E+02 -0.85565940164E+02  0.16716757920E+03  0.91037822618E+02 0.  0.
          5    1    3    3  502    0  0.11992079614E+02 -0.88855954995E+02  0.17044316744E+01  0.89775097877E+02  0.41800000000E+01 0.  1.
         -5    1    3    3    0  502  0.73110751141E+02  0.17490049476E+02  0.26807672110E+02  0.79920006551E+02  0.41800000000E+01 0.  1.
        -11    1    4    4    0    0 -0.90505355288E+02  0.61184430710E+02 -0.34126287437E+02  0.11445242414E+03  0.00000000000E+00 0.  1.
         11    1    4    4    0    0  0.54025245327E+01  0.10181474809E+02 -0.51439652727E+02  0.52715155062E+02  0.00000000000E+00 0. -1.
</event>
<event>
 8    1  0.6635152E-009  0.1062559E+03  0.7561462E-02  0.1267665E+00
         -1   -1    0    0    0  501 -0.00000000000E+00  0.00000000000E+00  0.25384425839E+03  0.25384425839E+03  0.00000000000E+00 0.  1.
          1   -1    0    0  501    0  0.00000000000E+00 -0.00000000000E+00 -0.59653891201E+02  0.59653891201E+02  0.00000000000E+00 0. -1.
         25    2    1    2    0    0  0.66928713823E+02 -0.49113846118E+01  0.80842040722E+02  0.16336023008E+03  0.12509018663E+03 0.  0.
         23    2    1    2    0    0 -0.66928713823E+02  0.49113846118E+01  0.11334832647E+03  0.15013791951E+03  0.72041497268E+02 0.  0.
          5    1    3    3  502    0  0.17081357872E+02  0.54496975081E+02  0.97822462874E+01  0.58093526508E+02  0.41800000000E+01 0.  1.
         -5    1    3    3    0  502  0.49847355951E+02 -0.59408359692E+02  0.71059794435E+02  0.10526670358E+03  0.41800000000E+01 0.  1.
        -11    1    4    4    0    0 -0.19210764618E+02 -0.16461389723E+02  0.88879474300E+02  0.92409911701E+02  0.00000000000E+00 0.  1.
         11    1    4    4    0    0 -0.47717949205E+02  0.21372774335E+02  0.24468852170E+02  0.57728007809E+02  0.00000000000E+00 0. -1.
</event>
<event>
 8    1  0.6635152E-009  0.7987746E+02  0.7561462E-02  0.1329400E+00
         -1   -1    0    0    0  501 -0.00000000000E+00  0.00000000000E+00  0.42625419457E+03  0.42625419457E+03  0.00000000000E+00 0.  1.
          1   -1    0    0  501    0  0.00000000000E+00 -0.00000000000E+00 -0.28271393546E+02  0.28271393546E+02  0.00000000000E+00 0. -1.
         25    2    1    2    0    0  0.73513784587E+01 -0.16857917871E+02  0.24376788009E+03  0.27460093647E+03  0.12507862641E+03 0.  0.
         23    2    1    2    0    0 -0.73513784587E+01  0.16857917871E+02  0.15421492093E+03  0.17992465164E+03  0.90842755746E+02 0.  0.
          5    1    3    3  502    0  0.80417092255E+00 -0.55657905052E+02  0.22306320920E+03  0.22994155080E+03  0.41800000000E+01 0. -1.
         -5    1    3    3    0  502  0.65472075361E+01  0.38799987181E+02  0.20704670893E+02  0.44659385671E+02  0.41800000000E+01 0. -1.
        -11    1    4    4    0    0 -0.10014143730E+02  0.39916127204E+02  0.23964616341E+02  0.47622296479E+02  0.00000000000E+00 0. -1.
         11    1    4    4    0    0  0.26627652716E+01 -0.23058209333E+02  0.13025030459E+03  0.13230235516E+03  0.00000000000E+00 0.  1.
</event>
<event>
 8    1  0.6635152E-009  0.1158087E+03  0.7561462E-02  0.1250176E+00
         -4   -1    0    0    0  501 -0.00000000000E+00  0.00000000000E+00  0.10583082618E+03  0.10583082618E+03  0.00000000000E+00 0.  1.
          4   -1    0    0  501    0  0.00000000000E+00 -0.00000000000E+00 -0.23124641240E+03  0.23124641240E+03  0.00000000000E+00 0. -1.
         25    2    1    2    0    0  0.19615704890E+02 -0.58549810884E+02 -0.16795354962E+03  0.21832898554E+03  0.12508515044E+03 0.  0.
         23    2    1    2    0    0 -0.19615704890E+02  0.58549810884E+02  0.42537963411E+02  0.11874825305E+03  0.92080470447E+02 0.  0.
          5    1    3    3  502    0 -0.25286285373E+02 -0.83870875419E+02 -0.10915127739E+03  0.14001854780E+03  0.41800000000E+01 0. -1.
         -5    1    3    3    0  502  0.44901990263E+02  0.25321064536E+02 -0.58802272235E+02  0.78310437739E+02  0.41800000000E+01 0. -1.
        -11    1    4    4    0    0 -0.39838278963E+02  0.59892914082E+02  0.58685886475E+02  0.92834707407E+02  0.00000000000E+00 0.  1.
         11    1    4    4    0    0  0.20222574073E+02 -0.13431031981E+01 -0.16147923064E+02  0.25913545640E+02  0.00000000000E+00 0. -1.
</event>
<event>
 8    1  0.6635152E-009  0.1251175E+03  0.7561462E-02  0.1234886E+00
          2   -1    0    0  501    0  0.00000000000E+00  0.00000000000E+00  0.84168712385E+03  0.84168712385E+03  0.00000000000E+00 0. -1.
         -2   -1    0    0    0  501 -0.00000000000E+00 -0.00000000000E+00 -0.23702495818E+02  0.23702495818E+02  0.00000000000E+00 0.  1.
         25    2    1    2    0    0 -0.23495310606E+02  0.79934909947E+02  0.52919583020E+03  0.55012215770E+03  0.12507814451E+03 0.  0.
         23    2    1    2    0    0  0.23495310606E+02 -0.79934909947E+02  0.28878879782E+03  0.31526746197E+03  0.95147166943E+02 0.  0.
          5    1    3    3  502    0 -0.18099550423E+02  0.11400584360E+03  0.40214434304E+03  0.41840467390E+03  0.41800000000E+01 0. -1.
         -5    1    3    3    0  502 -0.53957601826E+01 -0.34070933652E+02  0.12705148716E+03  0.13171748380E+03  0.41800000000E+01 0. -1.
        -11    1    4    4    0    0  0.41307704421E+02 -0.47299625777E+02  0.26205425894E+03  0.26947358994E+03  0.00000000000E+00 0.  1.
         11    1    4    4    0    0 -0.17812393814E+02 -0.32635284170E+02  0.26734538880E+02  0.45793872029E+02  0.00000000000E+00 0. -1.
</event>
<event>
 8    1  0.6635152E-009  0.1263643E+03  0.7561462E-02  0.1232952E+00
         -1   -1    0    0    0  501 -0.00000000000E+00  0.00000000000E+00  0.16914512498E+03  0.16914512498E+03  0.00000000000E+00 0.  1.
          1   -1    0    0  501    0  0.00000000000E+00 -0.00000000000E+00 -0.98116152315E+02  0.98116152315E+02  0.00000000000E+00 0. -1.
         25    2    1    2    0    0  0.49397655739E+02 -0.34464239455E+02  0.18216197169E+02  0.14002536208E+03  0.12508940800E+03 0.  0.
         23    2    1    2    0    0 -0.49397655739E+02  0.34464239455E+02  0.52812775500E+02  0.12723591521E+03  0.98852803050E+02 0.  0.
          5    1    3    3  502    0  0.57080146380E+02  0.34937516888E+02 -0.24091144199E+01  0.67097313130E+02  0.41800000000E+01 0.  1.
         -5    1    3    3    0  502 -0.76824906405E+01 -0.69401756343E+02  0.20625311589E+02  0.72928048953E+02  0.41800000000E+01 0.  1.
        -11    1    4    4    0    0  0.18706063247E+02 -0.20832125992E+02  0.11472263095E+02  0.30257347803E+02  0.00000000000E+00 0. -1.
         11    1    4    4    0    0 -0.68103718986E+02  0.55296365447E+02  0.41340512405E+02  0.96978567412E+02  0.00000000000E+00 0.  1.
</event>
<event>
 8    1  0.6635152E-009  0.1061725E+03  0.7561462E-02  0.1267827E+00
         -1   -1    0    0    0  501 -0.00000000000E+00  0.00000000000E+00  0.91436078373E+02  0.91436078373E+02  0.00000000000E+00 0.  1.
          1   -1    0    0  501    0  0.00000000000E+00 -0.00000000000E+00 -0.19564611288E+03  0.19564611288E+03  0.00000000000E+00 0. -1.
         25    2    1    2    0    0 -0.76873070075E+02  0.18720055477E+01 -0.40645096534E+02  0.15234708726E+03  0.12507852660E+03 0.  0.
         23    2    1    2    0    0  0.76873070075E+02 -0.18720055477E+01 -0.63564937977E+02  0.13473510400E+03  0.90554257776E+02 0.  0.
          5    1    3    3  502    0 -0.72225203597E+02 -0.27347324428E+02  0.24124374868E+02  0.81017368821E+02  0.41800000000E+01 0.  1.
         -5    1    3    3    0  502 -0.46478664781E+01  0.29219329976E+02 -0.64769471401E+02  0.71329718439E+02  0.41800000000E+01 0.  1.
        -11    1    4    4    0    0  0.90986364546E+02 -0.12396612703E+01 -0.26052924700E+02  0.94650991430E+02  0.00000000000E+00 0.  1.
         11    1    4    4    0    0 -0.14113294471E+02 -0.63234427738E+00 -0.37512013277E+02  0.40084112566E+02  0.00000000000E+00 0. -1.
</event>
<event>
 8    1  0.6635152E-009  0.7860019E+02  0.7561462E-02  0.1333071E+00
          1   -1    0    0  501    0  0.00000000000E+00  0.00000000000E+00  0.75578302141E+02  0.75578302141E+02  0.00000000000E+00 0. -1.
         -1   -1    0    0    0  501 -0.00000000000E+00 -0.00000000000E+00 -0.24767832114E+03  0.24767832114E+03  0.00000000000E+00 0.  1.
         25    2    1    2    0    0 -0.21763721285E+01  0.61250233076E+02 -0.27958927257E+02  0.14207546369E+03  0.12508960038E+03 0.  0.
         23    2    1    2    0    0  0.21763721285E+01 -0.61250233076E+02 -0.14414109174E+03  0.18118115959E+03  0.91069372539E+02 0.  0.
          5    1    3    3  502    0 -0.74133911149E+01  0.67154817374E+02 -0.71011541037E+02  0.98106264962E+02  0.41800000000E+01 0. -1.
         -5    1    3    3    0  502  0.52370189864E+01 -0.59045842971E+01  0.43052613780E+02  0.43969198729E+02  0.41800000000E+01 0. -1.
        -11    1    4    4    0    0  0.18431732376E+02 -0.13168297406E+01  0.54061684204E+01  0.19253297275E+02  0.00000000000E+00 0. -1.
         11    1    4    4    0    0 -0.16255360248E+02 -0.59933403336E+02 -0.14954726017E+03  0.16192786232E+03  0.00000000000E+00 0.  1.
</event>
<event>
 8    1  0.6635152E-009  0.1310247E+03  0.7561462E-02  0.1225943E+00
         -1   -1    0    0    0  501 -0.00000000000E+00  0.00000000000E+00  0.63886621207E+02  0.63886621207E+02  0.00000000000E+00 0.  1.
          1   -1    0    0  501    0  0.00000000000E+00 -0.00000000000E+00 -0.34457863019E+03  0.34457863019E+03  0.00000000000E+00 0. -1.
         25    2    1    2    0    0 -0.87298886811E+01  0.97837860780E+02 -0.16065176425E+03  0.22606462723E+03  0.12509104033E+03 0.  0.
         23    2    1    2    0    0  0.87298886811E+01 -0.97837860780E+02 -0.12004024473E+03  0.18240062416E+03  0.95978483953E+02 0.  0.
          5    1    3    3  502    0  0.47472788509E+02  0.70164521757E+02 -0.48958910220E+02  0.97934534523E+02  0.41800000000E+01 0. -1.
         -5    1    3    3    0  502 -0.56202677190E+02  0.27673339023E+02 -0.11169285403E+03  0.12813009271E+03  0.41800000000E+01 0. -1.
        -11    1    4    4    0    0  0.31825620712E+02 -0.77080386869E+02 -0.32475105564E+02  0.89492394397E+02  0.00000000000E+00 0.  1.
         11    1    4    4    0    0 -0.23095732031E+02 -0.20757473912E+02 -0.87565139165E+02  0.92908229765E+02  0.00000000000E+00 0. -1.
</event>
<event>
 8    1  0.6635152E-009  0.1283210E+03  0.7561462E-02  0.1229969E+00
         -2   -1    0    0    0  501 -0.00000000000E+00  0.00000000000E+00  0.68058375540E+02  0.68058375540E+02  0.00000000000E+00 0.  1.
          2   -1    0    0  501    0  0.00000000000E+00 -0.00000000000E+00 -0.41720358475E+03  0.41720358475E+03  0.00000000000E+00 0. -1.
         25    2    1    2    0    0  0.69528360902E+02 -0.22241828325E+02 -0.33906512786E+03  0.36870265613E+03  0.12509035057E+03 0.  0.
         23    2    1    2    0    0 -0.69528360902E+02  0.22241828325E+02 -0.10080081353E+02  0.11655930417E+03  0.90308202567E+02 0.  0.
          5    1    3    3  502    0  0.38438065392E+02  0.51636781559E+02 -0.15643893012E+03  0.16921717802E+03  0.41800000000E+01 0. -1.
         -5    1    3    3    0  502  0.31090295511E+02 -0.73878609884E+02 -0.18262619774E+03  0.19948547811E+03  0.41800000000E+01 0. -1.
        -11    1    4    4    0    0 -0.59251721209E+01  0.44191337569E+02  0.11233535457E+02  0.45980151149E+02  0.00000000000E+00 0.  1.
         11    1    4    4    0    0 -0.63603188781E+02 -0.21949509244E+02 -0.21313616809E+02  0.70579153018E+02  0.00000000000E+00 0. -1.
</event>
<event>
 8    1  0.6635152E-009  0.1004785E+03  0.7561462E-02  0.1279293E+00
         -1   -1    0    0    0  501 -0.00000000000E+00  0.00000000000E+00  0.13523340830E+03  0.13523340830E+03  0.00000000000E+00 0.  1.
          1   -1    0    0  501    0  0.00000000000E+00 -0.00000000000E+00 -0.16603579123E+03  0.16603579123E+03  0.00000000000E+00 0. -1.
         25    2    1    2    0    0 -0.59835511926E+02  0.31725901206E+02  0.62190860607E+02  0.15524675440E+03  0.12508809022E+03 0.  0.
         23    2    1    2    0    0  0.59835511926E+02 -0.31725901206E+02 -0.92993243533E+02  0.14602244513E+03  0.89933252156E+02 0.  0.
          5    1    3    3  502    0 -0.71564533927E+02  0.53824188756E+01  0.89851499362E+02  0.11507048834E+03  0.41800000000E+01 0.  1.
         -5    1    3    3    0  502  0.11729022001E+02  0.26343482330E+02 -0.27660638755E+02  0.40176266062E+02  0.41800000000E+01 0.  1.
        -11    1    4    4    0    0  0.36474579402E+02 -0.55620810536E+02 -0.26488461513E+02  0.71594050735E+02  0.00000000000E+00 0.  1.
         11    1    4    4    0    0  0.23360932524E+02  0.23894909331E+02 -0.66504782020E+02  0.74428394392E+02  0.00000000000E+00 0. -1.
</event>
<event>
 8    1  0.6635152E-009  0.9818091E+02  0.7561462E-02  0.1284168E+00
          2   -1    0    0  501    0  0.00000000000E+00  0.00000000000E+00  0.27249497008E+03  0.27249497008E+03  0.00000000000E+00 0. -1.
         -2   -1    0    0    0  501 -0.00000000000E+00 -0.00000000000E+00 -0.48029424204E+02  0.48029424204E+02  0.00000000000E+00 0.  1.
         25    2    1    2    0    0  0.14689874286E+02  0.32945426023E+02  0.13022075065E+03  0.18413695096E+03  0.12509108404E+03 0.  0.
         23    2    1    2    0    0 -0.14689874286E+02 -0.32945426023E+02  0.94244795226E+02  0.13638744332E+03  0.91751075019E+02 0.  0.
          5    1    3    3  502    0  0.57260704608E+02  0.36749114397E+02  0.12294843848E+03  0.14058121007E+03  0.41800000000E+01 0.  1.
         -5    1    3    3    0  502 -0.42570830323E+02 -0.38036883738E+01  0.72723121683E+01  0.43555740883E+02  0.41800000000E+01 0.  1.
        -11    1    4    4    0    0  0.10343396372E+02  0.22308728633E+02  0.33805626186E+00  0.24592265121E+02  0.00000000000E+00 0.  1.
         11    1    4    4    0    0 -0.25033270658E+02 -0.55254154657E+02  0.93906738964E+02  0.11179517820E+03  0.00000000000E+00 0. -1.
</event>
<event>
 8    1  0.6635152E-009  0.1491819E+03  0.7561462E-02  0.1201482E+00
          1   -1    0    0  501    0  0.00000000000E+00  0.00000000000E+00  0.11457051621E+04  0.11457051621E+04  0.00000000000E+00 0. -1.
         -1   -1    0    0    0  501 -0.00000000000E+00 -0.00000000000E+00 -0.35550963151E+02  0.35550963151E+02  0.00000000000E+00 0.  1.
         25    2    1    2    0    0  0.12490575810E+03 -0.31505408892E+02  0.90386811075E+03  0.92153149818E+03  0.12509476932E+03 0.  0.
         23    2    1    2    0    0 -0.12490575810E+03  0.31505408892E+02  0.20628608822E+03  0.25972462709E+03  0.91153126820E+02 0.  0.
          5    1    3    3  502    0  0.27061313853E+02  0.16549200523E+02  0.55690483691E+03  0.55782314448E+03  0.41800000000E+01 0.  1.
         -5    1    3    3    0  502  0.97844444248E+02 -0.48054609415E+02  0.34696327384E+03  0.36370835370E+03  0.41800000000E+01 0.  1.
        -11    1    4    4    0    0 -0.67583335272E+02 -0.29348131285E+02  0.86110028474E+02  0.11333030054E+03  0.00000000000E+00 0. -1.
         11    1    4    4    0    0 -0.57322422829E+02  0.60853540177E+02  0.12017605975E+03  0.14639432656E+03  0.00000000000E+00 0.  1.
</event>
<event>
 8    1  0.6635152E-009  0.1312042E+03  0.7561462E-02  0.1225680E+00
          3   -1    0    0  501    0  0.00000000000E+00  0.00000000000E+00  0.35696589720E+02  0.35696589720E+02  0.00000000000E+00 0. -1.
         -3   -1    0    0    0  501 -0.00000000000E+00 -0.00000000000E+00 -0.74446863314E+03  0.74446863314E+03  0.00000000000E+00 0.  1.
         25    2    1    2    0    0  0.66422386490E+02  0.10043223898E+03 -0.33220581891E+03  0.37484185418E+03  0.12508853455E+03 0.  0.
         23    2    1    2    0    0 -0.66422386490E+02 -0.10043223898E+03 -0.37656622451E+03  0.40532336868E+03  0.89366345460E+02 0.  0.
          5    1    3    3  502    0  0.25104261395E+02  0.95250670173E+02 -0.10586507092E+03  0.14466443844E+03  0.41800000000E+01 0.  1.
         -5    1    3    3    0  502  0.41318125096E+02  0.51815688054E+01 -0.22634074799E+03  0.23017741574E+03  0.41800000000E+01 0.  1.
        -11    1    4    4    0    0 -0.50576021045E+02 -0.59606470251E+02 -0.33815042789E+03  0.34706854811E+03  0.00000000000E+00 0.  1.
         11    1    4    4    0    0 -0.15846365445E+02 -0.40825768728E+02 -0.38415796617E+02  0.58254820571E+02  0.00000000000E+00 0. -1.
</event>
<event>
 8    1  0.6635152E-009  0.5355202E+02  0.7561462E-02  0.1427073E+00
          1   -1    0    0  501    0  0.00000000000E+00  0.00000000000E+00  0.11655648371E+03  0.11655648371E+03  0.00000000000E+00 0. -1.
         -1   -1    0    0    0  501 -0.00000000000E+00 -0.00000000000E+00 -0.11676506509E+03  0.11676506509E+03  0.00000000000E+00 0.  1.
         25    2    1    2    0    0  0.32290240749E+01  0.24259501272E+02 -0.28780441584E+02  0.13067372269E+03  0.12509339705E+03 0.  0.
         23    2    1    2    0    0 -0.32290240749E+01 -0.24259501272E+02  0.28571860210E+02  0.10264782611E+03  0.95505366401E+02 0.  0.
          5    1    3    3  502    0  0.19581906195E+02  0.10795051639E+02  0.46818390044E+02  0.52052072355E+02  0.41800000000E+01 0.  1.
         -5    1    3    3    0  502 -0.16352882120E+02  0.13464449633E+02 -0.75598831628E+02  0.78621650333E+02  0.41800000000E+01 0.  1.
        -11    1    4    4    0    0  0.25077019959E+02  0.61216493617E+00 -0.26131511695E+02  0.36222749473E+02  0.00000000000E+00 0.  1.
         11    1    4    4    0    0 -0.28306044034E+02 -0.24871666208E+02  0.54703371905E+02  0.66425076639E+02  0.00000000000E+00 0. -1.
</event>
<event>
 8    1  0.6635152E-009  0.2953808E+03  0.7561462E-02  0.1087573E+00
          1   -1    0    0  501    0  0.00000000000E+00  0.00000000000E+00  0.23359283349E+03  0.23359283349E+03  0.00000000000E+00 0. -1.
         -1   -1    0    0    0  501 -0.00000000000E+00 -0.00000000000E+00 -0.63277500697E+03  0.63277500697E+03  0.00000000000E+00 0.  1.
         25    2    1    2    0    0  0.26160577680E+03  0.11469615766E+03 -0.46442630999E+03  0.55940323771E+03  0.12508954358E+03 0.  0.
         23    2    1    2    0    0 -0.26160577680E+03 -0.11469615766E+03  0.65244136507E+02  0.30696460275E+03  0.91529661615E+02 0.  0.
          5    1    3    3  502    0 -0.85861427055E+01  0.51143088832E+01  0.22158761281E+00  0.10835105121E+02  0.41800000000E+01 0. -1.
         -5    1    3    3    0  502  0.27019191951E+03  0.10958184878E+03 -0.46464789760E+03  0.54856813259E+03  0.41800000000E+01 0. -1.
        -11    1    4    4    0    0 -0.14376648254E+02 -0.17583094425E+02 -0.17592525467E+02  0.28728908383E+02  0.00000000000E+00 0.  1.
         11    1    4    4    0    0 -0.24722912855E+03 -0.97113063236E+02  0.82836661974E+02  0.27823569437E+03  0.00000000000E+00 0. -1.
</event>
<event>
 8    1  0.6635152E-009  0.1552082E+03  0.7561462E-02  0.1194215E+00
         -2   -1    0    0    0  501 -0.00000000000E+00  0.00000000000E+00  0.37670685905E+02  0.37670685905E+02  0.00000000000E+00 0. -1.
          2   -1    0    0  501    0  0.00000000000E+00 -0.00000000000E+00 -0.76769141181E+03  0.76769141181E+03  0.00000000000E+00 0.  1.
         25    2    1    2    0    0  0.86967724263E+02 -0.80548538373E+02 -0.26455506863E+03  0.31573523143E+03  0.12509156619E+03 0.  0.
         23    2    1    2    0    0 -0.86967724263E+02  0.80548538373E+02 -0.46546565728E+03  0.48962686629E+03  0.94998620970E+02 0.  0.
          5    1    3    3  502    0 -0.32253505559E+02 -0.22660586241E+02 -0.65448838611E+02  0.76516754147E+02  0.41800000000E+01 0. -1.
         -5    1    3    3    0  502  0.11922122982E+03 -0.57887952132E+02 -0.19910623002E+03  0.23921847728E+03  0.41800000000E+01 0. -1.
        -11    1    4    4    0    0 -0.55142096516E+02  0.40099941585E+01 -0.29427541237E+03  0.29942402907E+03  0.00000000000E+00 0.  1.
         11    1    4    4    0    0 -0.31825627747E+02  0.76538544215E+02 -0.17119024491E+03  0.19020283722E+03  0.00000000000E+00 0. -1.
</event>
<event>
 8    1  0.6635152E-009  0.8465161E+02  0.7561462E-02  0.1316346E+00
         -2   -1    0    0    0  501 -0.00000000000E+00  0.00000000000E+00  0.15627816165E+03  0.15627816165E+03  0.00000000000E+00 0.  1.
          2   -1    0    0  501    0  0.00000000000E+00 -0.00000000000E+00 -0.10512836330E+03  0.10512836330E+03  0.00000000000E+00 0. -1.
         25    2    1    2    0    0 -0.13230465637E+02  0.15988289622E+02  0.98332800743E+02  0.16046031111E+03  0.12508997208E+03 0.  0.
         23    2    1    2    0    0  0.13230465637E+02 -0.15988289622E+02 -0.47183002390E+02  0.10094621383E+03  0.86794191893E+02 0.  0.
          5    1    3    3  502    0  0.26448962379E+02  0.41957255505E+02 -0.15658301720E+01  0.49798424921E+02  0.41800000000E+01 0. -1.
         -5    1    3    3    0  502 -0.39679428016E+02 -0.25968965884E+02  0.99898630915E+02  0.11066188619E+03  0.41800000000E+01 0. -1.
        -11    1    4    4    0    0  0.41621243627E+02 -0.11494976546E+02 -0.56152813499E+02  0.70835025734E+02  0.00000000000E+00 0. -1.
         11    1    4    4    0    0 -0.28390777990E+02 -0.44933130758E+01  0.89698111092E+01  0.30111188097E+02  0.00000000000E+00 0.  1.
</event>
<event>
 8    1  0.6635152E-009  0.9673264E+02  0.7561462E-02  0.1287321E+00
         -1   -1    0    0    0  501 -0.00000000000E+00  0.00000000000E+00  0.53954368741E+02  0.53954368741E+02  0.00000000000E+00 0.  1.
          1   -1    0    0  501    0  0.00000000000E+00 -0.00000000000E+00 -0.37623695676E+03  0.37623695676E+03  0.00000000000E+00 0. -1.
         25    2    1    2    0    0  0.84791851498E+02  0.37231292046E-01 -0.22312555024E+03  0.26948580919E+03  0.12509168925E+03 0.  0.
         23    2    1    2    0    0 -0.84791851498E+02 -0.37231292046E-01 -0.99157037781E+02  0.16070551631E+03  0.93832219226E+02 0.  0.
          5    1    3    3  502    0 -0.11009419861E+02 -0.17869410575E+01  0.11164104244E+02  0.16325137292E+02  0.41800000000E+01 0.  1.
         -5    1    3    3    0  502  0.95801271359E+02  0.18241723496E+01 -0.23428965448E+03  0.25316067190E+03  0.41800000000E+01 0.  1.
        -11    1    4    4    0    0 -0.12272076981E+02  0.42781655131E+01  0.18391102201E+02  0.22519751636E+02  0.00000000000E+00 0.  1.
         11    1    4    4    0    0 -0.72519774517E+02 -0.43153968052E+01 -0.11754813998E+03  0.13818576468E+03  0.00000000000E+00 0. -1.
</event>
<event>
 8    1  0.6635152E-009  0.9598221E+02  0.7561462E-02  0.1288979E+00
         -3   -1    0    0    0  501 -0.00000000000E+00  0.00000000000E+00  0.15577247871E+02  0.15577247871E+02  0.00000000000E+00 0.  1.
          3   -1    0    0  501    0  0.00000000000E+00 -0.00000000000E+00 -0.10862089444E+04  0.10862089444E+04  0.00000000000E+00 0. -1.
         25    2    1    2    0    0  0.13796557827E+02  0.13041658076E+02 -0.98491760465E+03  0.99301070554E+03  0.12508854270E+03 0.  0.
         23    2    1    2    0    0 -0.13796557827E+02 -0.13041658076E+02 -0.85714091894E+02  0.10877548674E+03  0.64224380995E+02 0.  0.
          5    1    3    3  502    0  0.54472693615E+01 -0.55484462484E+02 -0.51611626470E+03  0.51913550197E+03  0.41800000000E+01 0.  1.
         -5    1    3    3    0  502  0.83492884654E+01  0.68526120560E+02 -0.46880133995E+03  0.47387520356E+03  0.41800000000E+01 0.  1.
        -11    1    4    4    0    0  0.19088450544E+02 -0.25394613771E+02 -0.38152210702E+02  0.49647220810E+02  0.00000000000E+00 0.  1.
         11    1    4    4    0    0 -0.32885008371E+02  0.12352955694E+02 -0.47561881192E+02  0.59128265935E+02  0.00000000000E+00 0. -1.
</event>
<event>
 8    1  0.6635152E-009  0.9398638E+02  0.7561462E-02  0.1293475E+00
         -2   -1    0    0    0  501 -0.00000000000E+00  0.00000000000E+00  0.19889956722E+02  0.19889956722E+02  0.00000000000E+00 0.  1.
          2   -1    0    0  501    0  0.00000000000E+00 -0.00000000000E+00 -0.61954887840E+03  0.61954887840E+03  0.00000000000E+00 0. -1.
         25    2    1    2    0    0 -0.13682441138E+02  0.33734405101E+02 -0.39407427791E+03  0.41505130201E+03  0.12509127669E+03 0.  0.
         23    2    1    2    0    0  0.13682441138E+02 -0.33734405101E+02 -0.20558464377E+03  0.22438753312E+03  0.82216178348E+02 0.  0.
          5    1    3    3  502    0  0.38489662422E+02  0.52700674951E+01 -0.30741027505E+03  0.30988348993E+03  0.41800000000E+01 0.  1.
         -5    1    3    3    0  502 -0.52172103560E+02  0.28464337606E+02 -0.86664002863E+02  0.10516781208E+03  0.41800000000E+01 0.  1.
        -11    1    4    4    0    0 -0.10788054773E+02  0.24164559690E+02 -0.73233502775E+02  0.77868183486E+02  0.00000000000E+00 0.  1.
         11    1    4    4    0    0  0.24470495911E+02 -0.57898964791E+02 -0.13235114099E+03  0.14651934963E+03  0.00000000000E+00 0. -1.
</event>
<event>
 8    1  0.6635152E-009  0.1627568E+03  0.7561462E-02  0.1185619E+00
          2   -1    0    0  501    0  0.00000000000E+00  0.00000000000E+00  0.26196659844E+03  0.26196659844E+03  0.00000000000E+00 0.  1.
         -2   -1    0    0    0  501 -0.00000000000E+00 -0.00000000000E+00 -0.11239742340E+03  0.11239742340E+03  0.00000000000E+00 0. -1.
         25    2    1    2    0    0 -0.69338154349E+02 -0.10944961241E+03  0.10167805861E+03  0.20681260342E+03  0.12508408382E+03 0.  0.
         23    2    1    2    0    0  0.69338154349E+02  0.10944961241E+03  0.47891116428E+02  0.16755141842E+03  0.94831015367E+02 0.  0.
          5    1    3    3  502    0 -0.89383757307E+02 -0.24624082425E+02  0.54016787397E+02  0.10738290006E+03  0.41800000000E+01 0. -1.
         -5    1    3    3    0  502  0.20045602958E+02 -0.84825529988E+02  0.47661271216E+02  0.99429703357E+02  0.41800000000E+01 0. -1.
        -11    1    4    4    0    0  0.69666781478E+02  0.49425273756E+02 -0.76653628956E+01  0.85761739230E+02  0.00000000000E+00 0. -1.
         11    1    4    4    0    0 -0.32862712864E+00  0.60024338657E+02  0.55556479324E+02  0.81789679189E+02  0.00000000000E+00 0.  1.
</event>
<event>
 8    1  0.6635152E-009  0.1644497E+03  0.7561462E-02  0.1183763E+00
         -1   -1    0    0    0  501 -0.00000000000E+00  0.00000000000E+00  0.62403909006E+02  0.62403909006E+02  0.00000000000E+00 0.  1.
          1   -1    0    0  501    0  0.00000000000E+00 -0.00000000000E+00 -0.51540331092E+03  0.51540331092E+03  0.00000000000E+00 0. -1.
         25    2    1    2    0    0  0.13287608393E+03 -0.10928751877E+02 -0.32073851656E+03  0.36918333606E+03  0.12509056048E+03 0.  0.
         23    2    1    2    0    0 -0.13287608393E+03  0.10928751877E+02 -0.13226088536E+03  0.20862388387E+03  0.90859737099E+02 0.  0.
          5    1    3    3  502    0  0.78646250832E+02 -0.67862706551E+02 -0.17587835250E+03  0.20430674729E+03  0.41800000000E+01 0.  1.
         -5    1    3    3    0  502  0.54229833100E+02  0.56933954674E+02 -0.14486016406E+03  0.16487658877E+03  0.41800000000E+01 0.  1.
        -11    1    4    4    0    0 -0.10459656447E+03  0.33699316057E+02 -0.54195774728E+02  0.12252863829E+03  0.00000000000E+00 0.  1.
         11    1    4    4    0    0 -0.28279519460E+02 -0.22770564180E+02 -0.78065110629E+02  0.86095245580E+02  0.00000000000E+00 0. -1.
</event>
<event>
 8    1  0.6635152E-009  0.2477669E+03  0.7561462E-02  0.1114724E+00
          1   -1    0    0  501    0  0.00000000000E+00  0.00000000000E+00  0.14711195394E+03  0.14711195394E+03  0.00000000000E+00 0. -1.
         -1   -1    0    0    0  501 -0.00000000000E+00 -0.00000000000E+00 -0.45339545559E+03  0.45339545559E+03  0.00000000000E+00 0.  1.
         25    2    1    2    0    0  0.75367160573E+02  0.21921077295E+03 -0.19713255374E+03  0.32900382692E+03  0.12509477412E+03 0.  0.
         23    2    1    2    0    0 -0.75367160573E+02 -0.21921077295E+03 -0.10915094791E+03  0.27150358261E+03  0.89814776455E+02 0.  0.
          5    1    3    3  502    0  0.10535335527E+03  0.12075892838E+03 -0.12425758360E+03  0.20282866595E+03  0.41800000000E+01 0.  1.
         -5    1    3    3    0  502 -0.29986194693E+02  0.98451844574E+02 -0.72874970141E+02  0.12617516097E+03  0.41800000000E+01 0.  1.
        -11    1    4    4    0    0 -0.14608668545E+02 -0.61504756765E+02  0.10967644288E+02  0.64160248773E+02  0.00000000000E+00 0.  1.
         11    1    4    4    0    0 -0.60758492028E+02 -0.15770601618E+03 -0.12011859220E+03  0.20734333384E+03  0.00000000000E+00 0. -1.
</event>
<event>
 8    1  0.6635152E-009  0.1116342E+03  0.7561462E-02  0.1257573E+00
         -2   -1    0    0    0  501 -0.00000000000E+00  0.00000000000E+00  0.37419470847E+02  0.37419470847E+02  0.00000000000E+00 0. -1.
          2   -1    0    0  501    0  0.00000000000E+00 -0.00000000000E+00 -0.36533599326E+03  0.36533599326E+03  0.00000000000E+00 0.  1.
         25    2    1    2    0    0  0.15000013732E+02 -0.43223204007E+02 -0.17880659576E+03  0.22296375782E+03  0.12509113812E+03 0.  0.
         23    2    1    2    0    0 -0.15000013732E+02  0.43223204007E+02 -0.14910992665E+03  0.17979170629E+03  0.89431770904E+02 0.  0.
          5    1    3    3  502    0 -0.46912423076E+02 -0.46965922813E+02 -0.63455047741E+02  0.91927084303E+02  0.41800000000E+01 0.  1.
         -5    1    3    3    0  502  0.61912436808E+02  0.37427188068E+01 -0.11535154802E+03  0.13103667351E+03  0.41800000000E+01 0.  1.
        -11    1    4    4    0    0  0.31083254247E+00  0.66623734727E+02 -0.12951106116E+03  0.14564317220E+03  0.00000000000E+00 0.  1.
         11    1    4    4    0    0 -0.15310846275E+02 -0.23400530720E+02 -0.19598865489E+02  0.34148534084E+02  0.00000000000E+00 0. -1.
</event>
<event>
 8    1  0.6635152E-009  0.9302539E+02  0.7561462E-02  0.1295686E+00
         -1   -1    0    0    0  501 -0.00000000000E+00  0.00000000000E+00  0.51593617667E+02  0.51593617667E+02  0.00000000000E+00 0.  1.
          1   -1    0    0  501    0  0.00000000000E+00 -0.00000000000E+00 -0.38607662113E+03  0.38607662113E+03  0.00000000000E+00 0. -1.
         25    2    1    2    0    0  0.49793370213E+02 -0.18332045292E+02 -0.29331302577E+03  0.32325839667E+03  0.12509203145E+03 0.  0.
         23    2    1    2    0    0 -0.49793370213E+02  0.18332045292E+02 -0.41169977696E+02  0.11441184212E+03  0.92626448453E+02 0.  0.
          5    1    3    3  502    0  0.83670034333E+02 -0.25540699222E+02 -0.26245682055E+03  0.27668403823E+03  0.41800000000E+01 0.  1.
         -5    1    3    3    0  502 -0.33876664120E+02  0.72086539296E+01 -0.30856205219E+02  0.46574358438E+02  0.41800000000E+01 0.  1.
        -11    1    4    4    0    0 -0.30925661149E+01  0.16562495334E+02  0.26960986270E+02  0.31792687799E+02  0.00000000000E+00 0.  1.
         11    1    4    4    0    0 -0.46700804098E+02  0.17695499580E+01 -0.68130963966E+02  0.82619154325E+02  0.00000000000E+00 0. -1.
</event>
<event>
 8    1  0.6635152E-009  0.8977978E+02  0.7561462E-02  0.1303386E+00
         -2   -1    0    0    0  501 -0.00000000000E+00  0.00000000000E+00  0.13763814412E+03  0.13763814412E+03  0.00000000000E+00 0.  1.
          2   -1    0    0  501    0  0.00000000000E+00 -0.00000000000E+00 -0.96521544713E+02  0.96521544713E+02  0.00000000000E+00 0. -1.
         25    2    1    2    0    0 -0.68169028967E+00 -0.32999791219E+02  0.83370564588E+01  0.12964470836E+03  0.12509513569E+03 0.  0.
         23    2    1    2    0    0  0.68169028967E+00  0.32999791219E+02  0.32779542952E+02  0.10451498047E+03  0.93591836101E+02 0.  0.
          5    1    3    3  502    0  0.32289589434E+02 -0.38718431595E+02  0.53270394054E+02  0.73463881014E+02  0.41800000000E+01 0.  1.
         -5    1    3    3    0  502 -0.32971279724E+02  0.57186403762E+01 -0.44933337595E+02  0.56180827350E+02  0.41800000000E+01 0.  1.
        -11    1    4    4    0    0 -0.38995722075E+02 -0.61839582290E+01  0.28286552723E+02  0.48569916043E+02  0.00000000000E+00 0.  1.
         11    1    4    4    0    0  0.39677412364E+02  0.39183749448E+02  0.44929902287E+01  0.55945064428E+02  0.00000000000E+00 0. -1.
</event>
<event>
 8    1  0.6635152E-009  0.1164940E+03  0.7561462E-02  0.1248996E+00
         -1   -1    0    0    0  501 -0.00000000000E+00  0.00000000000E+00  0.58909282682E+03  0.58909282682E+03  0.00000000000E+00 0.  1.
          1   -1    0    0  501    0  0.00000000000E+00 -0.00000000000E+00 -0.23955157294E+02  0.23955157294E+02  0.00000000000E+00 0. -1.
         25    2    1    2    0    0  0.39730345956E+02 -0.21991948687E+02  0.36900764418E+03  0.39226948349E+03  0.12508621035E+03 0.  0.
         23    2    1    2    0    0 -0.39730345956E+02  0.21991948687E+02  0.19613002535E+03  0.22077850062E+03  0.90631193845E+02 0.  0.
          5    1    3    3  502    0  0.29430265975E+02  0.50767282998E+02  0.18322682486E+03  0.19243959917E+03  0.41800000000E+01 0. -1.
         -5    1    3    3    0  502  0.10300079981E+02 -0.72759231685E+02  0.18578081932E+03  0.19982988433E+03  0.41800000000E+01 0. -1.
        -11    1    4    4    0    0 -0.20302159658E+02  0.57005210372E+02  0.13140308338E+03  0.14466700390E+03  0.00000000000E+00 0.  1.
         11    1    4    4    0    0 -0.19428186298E+02 -0.35013261685E+02  0.64726941970E+02  0.76111496723E+02  0.00000000000E+00 0. -1.
</event>
<event>
 8    1  0.6635152E-009  0.1358867E+03  0.7561462E-02  0.1218973E+00
         -1   -1    0    0    0  501 -0.00000000000E+00  0.00000000000E+00  0.39242131904E+02  0.39242131904E+02  0.00000000000E+00 0.  1.
          1   -1    0    0  501    0  0.00000000000E+00 -0.00000000000E+00 -0.74273419668E+03  0.74273419668E+03  0.00000000000E+00 0. -1.
         25    2    1    2    0    0  0.11933868766E+03 -0.94447812090E+00 -0.50149846447E+03  0.53046375076E+03  0.12509383115E+03 0.  0.
         23    2    1    2    0    0 -0.11933868766E+03  0.94447812090E+00 -0.20199360030E+03  0.25151257782E+03  0.90634142735E+02 0.  0.
          5    1    3    3  502    0  0.65976522478E+02  0.13826640774E+02 -0.77310536990E+02  0.10265704575E+03  0.41800000000E+01 0. -1.
         -5    1    3    3    0  502  0.53362165180E+02 -0.14771118895E+02 -0.42418792748E+03  0.42780670500E+03  0.41800000000E+01 0. -1.
        -11    1    4    4    0    0 -0.10863499114E+03 -0.32661319361E+02 -0.14001295657E+03  0.18019975331E+03  0.00000000000E+00 0.  1.
         11    1    4    4    0    0 -0.10703696513E+02  0.33605797482E+02 -0.61980643729E+02  0.71312824516E+02  0.00000000000E+00 0. -1.
</event>
<event>
 8    1  0.6635152E-009  0.9691784E+02  0.7561462E-02  0.1286914E+00
         -1   -1    0    0    0  501 -0.00000000000E+00  0.00000000000E+00  0.31457662067E+03  0.31457662067E+03  0.00000000000E+00 0.  1.
          1   -1    0    0  501    0  0.00000000000E+00 -0.00000000000E+00 -0.41076233896E+02  0.41076233896E+02  0.00000000000E+00 0. -1.
         25    2    1    2    0    0  0.11194775082E+02  0.42589958276E+01  0.21280737203E+03  0.24713969646E+03  0.12509032713E+03 0.  0.
         23    2    1    2    0    0 -0.11194775082E+02 -0.42589958276E+01  0.60693014745E+02  0.10851315811E+03  0.89151564255E+02 0.  0.
          5    1    3    3  502    0 -0.51504070274E+02  0.27587418409E+02  0.10297451230E+03  0.11846922593E+03  0.41800000000E+01 0.  1.
         -5    1    3    3    0  502  0.62698845356E+02 -0.23328422582E+02  0.10983285972E+03  0.12867047052E+03  0.41800000000E+01 0.  1.
        -11    1    4    4    0    0  0.27285702603E+02  0.69383557096E+01 -0.77489109297E+01  0.29200958325E+02  0.00000000000E+00 0. -1.
         11    1    4    4    0    0 -0.38480477685E+02 -0.11197351537E+02  0.68441925675E+02  0.79312199783E+02  0.00000000000E+00 0.  1.
</event>
<event>
 8    1  0.6635152E-009  0.1770126E+03  0.7561462E-02  0.1170726E+00
         -1   -1    0    0    0  501 -0.00000000000E+00  0.00000000000E+00  0.92827968564E+02  0.92827968564E+02  0.00000000000E+00 0.  1.
          1   -1    0    0  501    0  0.00000000000E+00 -0.00000000000E+00 -0.39578856702E+03  0.39578856702E+03  0.00000000000E+00 0. -1.
         25    2    1    2    0    0 -0.97708769987E+02  0.11478423316E+03 -0.10191568996E+03  0.22080845702E+03  0.12508854030E+03 0.  0.
         23    2    1    2    0    0  0.97708769987E+02 -0.11478423316E+03 -0.20104490850E+03  0.26780807857E+03  0.92626604169E+02 0.  0.
          5    1    3    3  502    0  0.13732311181E+02  0.63578878453E+02 -0.66433083741E+02  0.93068131877E+02  0.41800000000E+01 0. -1.
         -5    1    3    3    0  502 -0.11144108117E+03  0.51205354707E+02 -0.35482606220E+02  0.12774032514E+03  0.41800000000E+01 0. -1.
        -11    1    4    4    0    0  0.85103586120E+02 -0.47066244312E+02 -0.70204439392E+02  0.11994379948E+03  0.00000000000E+00 0.  1.
         11    1    4    4    0    0  0.12605183867E+02 -0.67717988848E+02 -0.13084046911E+03  0.14786427909E+03  0.00000000000E+00 0. -1.
</event>
<event>
 8    1  0.6635152E-009  0.1511223E+03  0.7561462E-02  0.1199101E+00
         -1   -1    0    0    0  501 -0.00000000000E+00  0.00000000000E+00  0.11231292206E+02  0.11231292206E+02  0.00000000000E+00 0.  1.
          1   -1    0    0  501    0  0.00000000000E+00 -0.00000000000E+00 -0.24242429077E+04  0.24242429077E+04  0.00000000000E+00 0. -1.
         25    2    1    2    0    0 -0.78858597207E+02 -0.77658882330E+02 -0.17272788918E+04  0.17353355516E+04  0.12509007328E+03 0.  0.
         23    2    1    2    0    0  0.78858597207E+02  0.77658882330E+02 -0.68573272369E+03  0.70013864824E+03  0.87836086362E+02 0.  0.
          5    1    3    3  502    0 -0.63127606093E+02 -0.10882097682E+03 -0.11225035976E+04  0.11295392417E+04  0.41800000000E+01 0.  1.
         -5    1    3    3    0  502 -0.15730991114E+02  0.31162094487E+02 -0.60477529421E+03  0.60579630991E+03  0.41800000000E+01 0.  1.
        -11    1    4    4    0    0 -0.59010762427E+01  0.52453394806E+02 -0.26813046405E+03  0.27327664935E+03  0.00000000000E+00 0. -1.
         11    1    4    4    0    0  0.84759673449E+02  0.25205487524E+02 -0.41760225964E+03  0.42686199890E+03  0.00000000000E+00 0.  1.
</event>
<event>
 8    1  0.6635152E-009  0.1201649E+03  0.7561462E-02  0.1242825E+00
          1   -1    0    0  501    0  0.00000000000E+00  0.00000000000E+00  0.20623015940E+03  0.20623015940E+03  0.00000000000E+00 0. -1.
         -1   -1    0    0    0  501 -0.00000000000E+00 -0.00000000000E+00 -0.11506531048E+03  0.11506531048E+03  0.00000000000E+00 0.  1.
         25    2    1    2    0    0  0.77118949434E+02  0.68442554603E+02  0.14409057920E+02  0.16274856823E+03  0.12509100635E+03 0.  0.
         23    2    1    2    0    0 -0.77118949434E+02 -0.68442554603E+02  0.76755791003E+02  0.15854690165E+03  0.92811383606E+02 0.  0.
          5    1    3    3  502    0  0.24083684654E+02 -0.93614377609E+01  0.54394319857E+02  0.60364516201E+02  0.41800000000E+01 0.  1.
         -5    1    3    3    0  502  0.53035264779E+02  0.77803992364E+02 -0.39985261937E+02  0.10238405203E+03  0.41800000000E+01 0.  1.
        -11    1    4    4    0    0  0.36201586813E+01 -0.30460116875E+02 -0.11770545871E+02  0.32855289057E+02  0.00000000000E+00 0.  1.
         11    1    4    4    0    0 -0.80739108115E+02 -0.37982437728E+02  0.88526336874E+02  0.12569161259E+03  0.00000000000E+00 0. -1.
</event>
<event>
 8    1  0.6635152E-009  0.1216644E+03  0.7561462E-02  0.1240376E+00
         -2   -1    0    0    0  501 -0.00000000000E+00  0.00000000000E+00  0.47425880555E+02  0.47425880555E+02  0.00000000000E+00 0.  1.
          2   -1    0    0  501    0  0.00000000000E+00 -0.00000000000E+00 -0.32196684006E+03  0.32196684006E+03  0.00000000000E+00 0. -1.
         25    2    1    2    0    0 -0.55599719404E+02 -0.13550195665E+02 -0.13676400732E+03  0.19397961541E+03  0.12509500748E+03 0.  0.
         23    2    1    2    0    0  0.55599719404E+02  0.13550195665E+02 -0.13777695218E+03  0.17541310520E+03  0.92262301742E+02 0.  0.
          5    1    3    3  502    0 -0.33751672287E+02 -0.67977358399E+02 -0.57602496339E+02  0.95370942229E+02  0.41800000000E+01 0.  1.
         -5    1    3    3    0  502 -0.21848047117E+02  0.54427162734E+02 -0.79161510980E+02  0.98608673182E+02  0.41800000000E+01 0.  1.
        -11    1    4    4    0    0  0.75723966239E+02  0.31059277251E+02 -0.10163266913E+03  0.13049136830E+03  0.00000000000E+00 0. -1.
         11    1    4    4    0    0 -0.20124246835E+02 -0.17509081586E+02 -0.36144283050E+02  0.44921736898E+02  0.00000000000E+00 0.  1.
</event>
<event>
 8    1  0.6635152E-009  0.1598042E+03  0.7561462E-02  0.1188918E+00
          3   -1    0    0  501    0  0.00000000000E+00  0.00000000000E+00  0.41818282496E+03  0.41818282496E+03  0.00000000000E+00 0. -1.
         -3   -1    0    0    0  501 -0.00000000000E+00 -0.00000000000E+00 -0.76753077509E+02  0.76753077509E+02  0.00000000000E+00 0.  1.
         25    2    1    2    0    0  0.11184155197E+03 -0.81402024891E+02  0.22634406520E+03  0.29327965406E+03  0.12508595936E+03 0.  0.
         23    2    1    2    0    0 -0.11184155197E+03  0.81402024891E+02  0.11508568226E+03  0.20165624841E+03  0.91025852704E+02 0.  0.
          5    1    3    3  502    0  0.45826600919E+02 -0.74626277364E+02  0.41812202422E+02  0.97133368604E+02  0.41800000000E+01 0. -1.
         -5    1    3    3    0  502  0.66014951053E+02 -0.67757475275E+01  0.18453186278E+03  0.19614628545E+03  0.41800000000E+01 0. -1.
        -11    1    4    4    0    0 -0.69012568919E+02  0.97700227959E+02  0.87001284650E+02  0.14790974526E+03  0.00000000000E+00 0. -1.
         11    1    4    4    0    0 -0.42828983053E+02 -0.16298203067E+02  0.28084397606E+02  0.53746503155E+02  0.00000000000E+00 0.  1.
</event>
<event>
 8    1  0.6635152E-009  0.1210320E+03  0.7561462E-02  0.1241404E+00
          2   -1    0    0  501    0  0.00000000000E+00  0.00000000000E+00  0.10594962490E+03  0.10594962490E+03  0.00000000000E+00 0. -1.
         -2   -1    0    0    0  501 -0.00000000000E+00 -0.00000000000E+00 -0.16599221098E+03  0.16599221098E+03  0.00000000000E+00 0.  1.
         25    2    1    2    0    0  0.18483709736E+02  0.64791362156E+02 -0.38241103488E+02  0.14713539572E+03  0.12508746756E+03 0.  0.
         23    2    1    2    0    0 -0.18483709736E+02 -0.64791362156E+02 -0.21801482583E+02  0.12480644017E+03  0.10277049542E+03 0.  0.
          5    1    3    3  502    0  0.15962847657E+02 -0.33878198779E+02  0.72503504536E+01  0.38374273147E+02  0.41800000000E+01 0.  1.
         -5    1    3    3    0  502  0.25208620792E+01  0.98669560935E+02 -0.45491453942E+02  0.10876112257E+03  0.41800000000E+01 0.  1.
        -11    1    4    4    0    0 -0.46935002396E+02 -0.16898636551E+02 -0.42344216211E+02  0.65433103348E+02  0.00000000000E+00 0. -1.
         11    1    4    4    0    0  0.28451292660E+02 -0.47892725606E+02  0.20542733628E+02  0.59373336818E+02  0.00000000000E+00 0.  1.
</event>
<event>
 8    1  0.6635152E-009  0.1556942E+03  0.7561462E-02  0.1193646E+00
          2   -1    0    0  501    0  0.00000000000E+00  0.00000000000E+00  0.64743556063E+03  0.64743556063E+03  0.00000000000E+00 0.  1.
         -2   -1    0    0    0  501 -0.00000000000E+00 -0.00000000000E+00 -0.55695036029E+02  0.55695036029E+02  0.00000000000E+00 0. -1.
         25    2    1    2    0    0  0.13639498809E+03  0.43664732303E+02  0.41801036208E+03  0.45922743533E+03  0.12508786082E+03 0.  0.
         23    2    1    2    0    0 -0.13639498809E+03 -0.43664732303E+02  0.17373016252E+03  0.24390316133E+03  0.93789024511E+02 0.  0.
          5    1    3    3  502    0  0.78452007357E+02  0.66278112729E+02  0.13635781876E+03  0.17075840484E+03  0.41800000000E+01 0. -1.
         -5    1    3    3    0  502  0.57942980728E+02 -0.22613380425E+02  0.28165254333E+03  0.28846903049E+03  0.41800000000E+01 0. -1.
        -11    1    4    4    0    0 -0.51205549169E+02 -0.31734556842E+02  0.13039919808E+02  0.61637081957E+02  0.00000000000E+00 0. -1.
         11    1    4    4    0    0 -0.85189438916E+02 -0.11930175462E+02  0.16069024271E+03  0.18226607938E+03  0.00000000000E+00 0.  1.
</event>
<event>
 8    1  0.6635152E-009  0.9152889E+02  0.7561462E-02  0.1299191E+00
          2   -1    0    0  501    0  0.00000000000E+00  0.00000000000E+00  0.53929990275E+03  0.53929990275E+03  0.00000000000E+00 0. -1.
         -2   -1    0    0    0  501 -0.00000000000E+00 -0.00000000000E+00 -0.26082752505E+02  0.26082752505E+02  0.00000000000E+00 0.  1.
         25    2    1    2    0    0 -0.81653608439E+00 -0.13378832845E+02  0.17341000443E+03  0.21423822628E+03  0.12508928037E+03 0.  0.
         23    2    1    2    0    0  0.81653608439E+00  0.13378832845E+02  0.33980714581E+03  0.35114442898E+03  0.87486306101E+02 0.  0.
          5    1    3    3  502    0 -0.34965924642E+01 -0.53911739120E+02  0.23849133043E+02  0.59202663122E+02  0.41800000000E+01 0. -1.
         -5    1    3    3    0  502  0.26800563799E+01  0.40532906275E+02  0.14956087139E+03  0.15503556316E+03  0.41800000000E+01 0. -1.
        -11    1    4    4    0    0 -0.99136143768E+01 -0.36084531759E+02  0.12681295800E+03  0.13221913439E+03  0.00000000000E+00 0.  1.
         11    1    4    4    0    0  0.10730150461E+02  0.49463364604E+02  0.21299418782E+03  0.21892529459E+03  0.00000000000E+00 0. -1.
</event>
<event>
 8    1  0.6635152E-009  0.8547884E+02  0.7561462E-02  0.1314185E+00
          1   -1    0    0  501    0  0.00000000000E+00  0.00000000000E+00  0.43825990828E+03  0.43825990828E+03  0.00000000000E+00 0. -1.
         -1   -1    0    0    0  501 -0.00000000000E+00 -0.00000000000E+00 -0.37457269909E+02  0.37457269909E+02  0.00000000000E+00 0.  1.
         25    2    1    2    0    0  0.34895862840E+01  0.28183620626E+01  0.35233124920E+03  0.37390543024E+03  0.12509133151E+03 0.  0.
         23    2    1    2    0    0 -0.34895862840E+01 -0.28183620626E+01  0.48471389171E+02  0.10181174796E+03  0.89420557348E+02 0.  0.
          5    1    3    3  502    0 -0.26580376783E+02 -0.48000211104E+02  0.94390707520E+02  0.10925939210E+03  0.41800000000E+01 0.  1.
         -5    1    3    3    0  502  0.30069963067E+02  0.50818573167E+02  0.25794054168E+03  0.26464603814E+03  0.41800000000E+01 0.  1.
        -11    1    4    4    0    0 -0.12095485314E+02 -0.27796929087E+02 -0.14440043461E+02  0.33578041735E+02  0.00000000000E+00 0.  1.
         11    1    4    4    0    0  0.86058990299E+01  0.24978567024E+02  0.62911432633E+02  0.68233706220E+02  0.00000000000E+00 0. -1.
</event>
<event>
 8    1  0.6635152E-009  0.1621321E+03  0.7561462E-02  0.1186310E+00
         -2   -1    0    0    0  501 -0.00000000000E+00  0.00000000000E+00  0.19900421031E+02  0.19900421031E+02  0.00000000000E+00 0.  1.
          2   -1    0    0  501    0  0.00000000000E+00 -0.00000000000E+00 -0.14417457448E+04  0.14417457448E+04  0.00000000000E+00 0. -1.
         25    2    1    2    0    0  0.10538106558E+03 -0.69895725374E+02 -0.62237447350E+03  0.64729351860E+03  0.12509329535E+03 0.  0.
         23    2    1    2    0    0 -0.10538106558E+03  0.69895725374E+02 -0.79947085025E+03  0.81435264722E+03  0.89588013830E+02 0.  0.
          5    1    3    3  502    0  0.10626835630E+03 -0.96316236582E+02 -0.43588194793E+03  0.45889032013E+03  0.41800000000E+01 0. -1.
         -5    1    3    3    0  502 -0.88729071505E+00  0.26420511208E+02 -0.18649252558E+03  0.18840319847E+03  0.41800000000E+01 0. -1.
        -11    1    4    4    0    0  0.10168705374E+02  0.30157671656E+02 -0.13141496030E+03  0.13521382888E+03  0.00000000000E+00 0. -1.
         11    1    4    4    0    0 -0.11554977096E+03  0.39738053718E+02 -0.66805588995E+03  0.67913881834E+03  0.00000000000E+00 0.  1.
</event>
<event>
 8    1  0.6635152E-009  0.1222338E+03  0.7561462E-02  0.1239457E+00
         -1   -1    0    0    0  501 -0.00000000000E+00  0.00000000000E+00  0.51844694780E+02  0.51844694780E+02  0.00000000000E+00 0.  1.
          1   -1    0    0  501    0  0.00000000000E+00 -0.00000000000E+00 -0.37643533666E+03  0.37643533666E+03  0.00000000000E+00 0. -1.
         25    2    1    2    0    0  0.58188050729E+02 -0.15240273835E+02 -0.81329332562E+02  0.16086918167E+03  0.12508524327E+03 0.  0.
         23    2    1    2    0    0 -0.58188050729E+02  0.15240273835E+02 -0.24326130932E+03  0.26741084977E+03  0.93350858416E+02 0.  0.
          5    1    3    3  502    0  0.46571964211E+02 -0.67673912836E+02 -0.33446737584E+02  0.88796750977E+02  0.41800000000E+01 0. -1.
         -5    1    3    3    0  502  0.11616086518E+02  0.52433639001E+02 -0.47882594978E+02  0.72072430698E+02  0.41800000000E+01 0. -1.
        -11    1    4    4    0    0 -0.68386374223E+02  0.41623633413E+02 -0.20291563955E+03  0.21813752500E+03  0.00000000000E+00 0. -1.
         11    1    4    4    0    0  0.10198323494E+02 -0.26383359578E+02 -0.40345669765E+02  0.49273324766E+02  0.00000000000E+00 0.  1.
</event>
<event>
 8    1  0.6635152E-009  0.8812706E+02  0.7561462E-02  0.1307452E+00
          2   -1    0    0  501    0  0.00000000000E+00  0.00000000000E+00  0.11979848319E+04  0.11979848319E+04  0.00000000000E+00 0.  1.
         -2   -1    0    0    0  501 -0.00000000000E+00 -0.00000000000E+00 -0.15659107294E+02  0.15659107294E+02  0.00000000000E+00 0. -1.
         25    2    1    2    0    0 -0.19223534933E+02  0.61312233583E+02  0.86625009464E+03  0.87759101244E+03  0.12509206355E+03 0.  0.
         23    2    1    2    0    0  0.19223534933E+02 -0.61312233583E+02  0.31607562998E+03  0.33605292677E+03  0.94334677834E+02 0.  0.
          5    1    3    3  502    0 -0.83587078625E+01  0.11749034203E+02  0.75604656963E+03  0.75619560674E+03  0.41800000000E+01 0.  1.
         -5    1    3    3    0  502 -0.10864827070E+02  0.49563199379E+02  0.11020352502E+03  0.12139540570E+03  0.41800000000E+01 0.  1.
        -11    1    4    4    0    0 -0.35296931349E+02 -0.13422430472E+02  0.15245618835E+03  0.15706344059E+03  0.00000000000E+00 0.  1.
         11    1    4    4    0    0  0.54520466282E+02 -0.47889803111E+02  0.16361944162E+03  0.17898948618E+03  0.00000000000E+00 0. -1.
</event>
<event>
 8    1  0.6635152E-009  0.1070645E+03  0.7561462E-02  0.1266105E+00
         -2   -1    0    0    0  501 -0.00000000000E+00  0.00000000000E+00  0.63932411328E+03  0.63932411328E+03  0.00000000000E+00 0. -1.
          2   -1    0    0  501    0  0.00000000000E+00 -0.00000000000E+00 -0.22637893499E+02  0.22637893499E+02  0.00000000000E+00 0.  1.
         25    2    1    2    0    0 -0.20690993075E+02 -0.18731981437E+01  0.47722741839E+03  0.49378374669E+03  0.12507898931E+03 0.  0.
         23    2    1    2    0    0  0.20690993075E+02  0.18731981437E+01  0.13945880140E+03  0.16817826010E+03  0.91670844963E+02 0.  0.
          5    1    3    3  502    0 -0.70478223036E+01  0.58517018133E+02  0.16041237193E+03  0.17094886569E+03  0.41800000000E+01 0.  1.
         -5    1    3    3    0  502 -0.13643170771E+02 -0.60390216276E+02  0.31681504645E+03  0.32283488100E+03  0.41800000000E+01 0.  1.
        -11    1    4    4    0    0 -0.36119956482E+02  0.20275289554E+01  0.66566115890E+02  0.75761533212E+02  0.00000000000E+00 0. -1.
         11    1    4    4    0    0  0.56810949557E+02 -0.15433081172E+00  0.72892685506E+02  0.92416726883E+02  0.00000000000E+00 0.  1.
</event>
<event>
 8    1  0.6635152E-009  0.1438565E+03  0.7561462E-02  0.1208232E+00
          2   -1    0    0  501    0  0.00000000000E+00  0.00000000000E+00  0.82668296568E+02  0.82668296568E+02  0.00000000000E+00 0.  1.
         -2   -1    0    0    0  501 -0.00000000000E+00 -0.00000000000E+00 -0.39131419285E+03  0.39131419285E+03  0.00000000000E+00 0. -1.
         25    2    1    2    0    0  0.22018980193E+02  0.11552186492E+03 -0.59692880512E+02  0.18176952973E+03  0.12508711041E+03 0.  0.
         23    2    1    2    0    0 -0.22018980193E+02 -0.11552186492E+03 -0.24895301577E+03  0.29221295970E+03  0.97880912278E+02 0.  0.
          5    1    3    3  502    0  0.32601668201E+01 -0.22898020382E+02  0.10077619427E+02  0.25573009960E+02  0.41800000000E+01 0.  1.
         -5    1    3    3    0  502  0.18758813373E+02  0.13841988530E+03 -0.69770499939E+02  0.15619651977E+03  0.41800000000E+01 0.  1.
        -11    1    4    4    0    0  0.11359069629E+01 -0.89977030654E+02 -0.24040202475E+03  0.25669103964E+03  0.00000000000E+00 0. -1.
         11    1    4    4    0    0 -0.23154887156E+02 -0.25544834264E+02 -0.85509910274E+01  0.35521920054E+02  0.00000000000E+00 0.  1.
</event>
<event>
 8    1  0.6635152E-009  0.1211422E+03  0.7561462E-02  0.1241225E+00
          1   -1    0    0  501    0  0.00000000000E+00  0.00000000000E+00  0.53583721569E+02  0.53583721569E+02  0.00000000000E+00 0. -1.
         -1   -1    0    0    0  501 -0.00000000000E+00 -0.00000000000E+00 -0.34003443368E+03  0.34003443368E+03  0.00000000000E+00 0.  1.
         25    2    1    2    0    0  0.49176924277E+02  0.60828538219E+02 -0.16598432988E+03  0.22207336151E+03  0.12508916494E+03 0.  0.
         23    2    1    2    0    0 -0.49176924277E+02 -0.60828538219E+02 -0.12046638223E+03  0.17154479373E+03  0.93792249499E+02 0.  0.
          5    1    3    3  502    0 -0.18158586197E+02  0.55406220064E+02 -0.21078011269E+02  0.62139668759E+02  0.41800000000E+01 0. -1.
         -5    1    3    3    0  502  0.67335510473E+02  0.54223181548E+01 -0.14490631861E+03  0.15993369275E+03  0.41800000000E+01 0. -1.
        -11    1    4    4    0    0 -0.72680345572E+02 -0.33290665717E+02 -0.55989571109E+02  0.97598837746E+02  0.00000000000E+00 0.  1.
         11    1    4    4    0    0  0.23503421296E+02 -0.27537872502E+02 -0.64476811120E+02  0.73945955987E+02  0.00000000000E+00 0. -1.
</event>
<event>
 8    1  0.6635152E-009  0.1216433E+03  0.7561462E-02  0.1240410E+00
         -2   -1    0    0    0  501 -0.00000000000E+00  0.00000000000E+00  0.52254832381E+02  0.52254832381E+02  0.00000000000E+00 0. -1.
          2   -1    0    0  501    0  0.00000000000E+00 -0.00000000000E+00 -0.49304216587E+03  0.49304216587E+03  0.00000000000E+00 0.  1.
         25    2    1    2    0    0  0.57091627180E+02 -0.69172529111E+01 -0.41061786198E+03  0.43308441969E+03  0.12509110170E+03 0.  0.
         23    2    1    2    0    0 -0.57091627180E+02  0.69172529111E+01 -0.30169471508E+02  0.11221257856E+03  0.91510455650E+02 0.  0.
          5    1    3    3  502    0  0.96508941596E+02 -0.62801201960E+01 -0.26350451220E+03  0.28072320186E+03  0.41800000000E+01 0. -1.
         -5    1    3    3    0  502 -0.39417314416E+02 -0.63713271508E+00 -0.14711334978E+03  0.15236121783E+03  0.41800000000E+01 0. -1.
        -11    1    4    4    0    0 -0.73515262177E+02  0.29248048386E+02 -0.14718352414E+02  0.80477152069E+02  0.00000000000E+00 0.  1.
         11    1    4    4    0    0  0.16423634998E+02 -0.22330795475E+02 -0.15451119094E+02  0.31735426487E+02  0.00000000000E+00 0. -1.
</event>
<event>
 8    1  0.6635152E-009  0.2252075E+03  0.7561462E-02  0.1130059E+00
          3   -1    0    0  501    0  0.00000000000E+00  0.00000000000E+00  0.17883647111E+04  0.17883647111E+04  0.00000000000E+00 0. -1.
         -3   -1    0    0    0  501 -0.00000000000E+00 -0.00000000000E+00 -0.31064909984E+02  0.31064909984E+02  0.00000000000E+00 0.  1.
         25    2    1    2    0    0  0.13052138973E+03  0.16141930657E+03  0.97262398117E+03  0.10023644571E+04  0.12508025564E+03 0.  0.
         23    2    1    2    0    0 -0.13052138973E+03 -0.16141930657E+03  0.78467581998E+03  0.81706516404E+03  0.93740674851E+02 0.  0.
          5    1    3    3  502    0  0.13668901300E+03  0.12180968115E+03  0.59372493904E+03  0.62132782035E+03  0.41800000000E+01 0.  1.
         -5    1    3    3    0  502 -0.61676232738E+01  0.39609625415E+02  0.37889904213E+03  0.38103663673E+03  0.41800000000E+01 0.  1.
        -11    1    4    4    0    0 -0.39683695710E+02 -0.12138256086E+03  0.40728767591E+03  0.42683928209E+03  0.00000000000E+00 0.  1.
         11    1    4    4    0    0 -0.90837694017E+02 -0.40036745703E+02  0.37738814407E+03  0.39022588195E+03  0.00000000000E+00 0. -1.
</event>
<event>
 8    1  0.6635152E-009  0.1454946E+03  0.7561462E-02  0.1206121E+00
          1   -1    0    0  501    0  0.00000000000E+00  0.00000000000E+00  0.42502439579E+03  0.42502439579E+03  0.00000000000E+00 0. -1.
         -1   -1    0    0    0  501 -0.00000000000E+00 -0.00000000000E+00 -0.81264905885E+02  0.81264905885E+02  0.00000000000E+00 0.  1.
         25    2    1    2    0    0  0.11512323002E+03  0.79221840359E+02  0.10478971930E+03  0.21484277163E+03  0.12508826151E+03 0.  0.
         23    2    1    2    0    0 -0.11512323002E+03 -0.79221840359E+02  0.23896977061E+03  0.29144653005E+03  0.91132159722E+02 0.  0.
          5    1    3    3  502    0  0.44400428198E+02  0.36587612083E+02  0.11777600633E+03  0.13114385784E+03  0.41800000000E+01 0. -1.
         -5    1    3    3    0  502  0.70722801824E+02  0.42634228275E+02 -0.12986287026E+02  0.83698913788E+02  0.41800000000E+01 0. -1.
        -11    1    4    4    0    0 -0.82977439410E+02 -0.23417991498E+02  0.71457937004E+02  0.11198167054E+03  0.00000000000E+00 0.  1.
         11    1    4    4    0    0 -0.32145790612E+02 -0.55803848861E+02  0.16751183360E+03  0.17946485951E+03  0.00000000000E+00 0. -1.
</event>
<event>
 8    1  0.6635152E-009  0.1303323E+03  0.7561462E-02  0.1226963E+00
         -1   -1    0    0    0  501 -0.00000000000E+00  0.00000000000E+00  0.21088253594E+03  0.21088253594E+03  0.00000000000E+00 0.  1.
          1   -1    0    0  501    0  0.00000000000E+00 -0.00000000000E+00 -0.18628954377E+03  0.18628954377E+03  0.00000000000E+00 0. -1.
         25    2    1    2    0    0  0.50597426375E+02  0.66521151658E+02  0.15604864254E+03  0.21675762213E+03  0.12509006652E+03 0.  0.
         23    2    1    2    0    0 -0.50597426375E+02 -0.66521151658E+02 -0.13145565037E+03  0.18041445758E+03  0.91014423665E+02 0.  0.
          5    1    3    3  502    0  0.29732663959E+02  0.10345758136E+03  0.10843192541E+03  0.15284782398E+03  0.41800000000E+01 0.  1.
         -5    1    3    3    0  502  0.20864762416E+02 -0.36936429704E+02  0.47616717125E+02  0.63909798151E+02  0.41800000000E+01 0.  1.
        -11    1    4    4    0    0 -0.37221775950E+02  0.49941248697E+01 -0.87977124426E+02  0.95657599334E+02  0.00000000000E+00 0. -1.
         11    1    4    4    0    0 -0.13375650425E+02 -0.71515276528E+02 -0.43478525948E+02  0.84756858246E+02  0.00000000000E+00 0.  1.
</event>
<event>
 8    1  0.6635152E-009  0.1140368E+03  0.7561462E-02  0.1253272E+00
          1   -1    0    0  501    0  0.00000000000E+00  0.00000000000E+00  0.19429702684E+03  0.19429702684E+03  0.00000000000E+00 0. -1.
         -1   -1    0    0    0  501 -0.00000000000E+00 -0.00000000000E+00 -0.13036758606E+03  0.13036758606E+03  0.00000000000E+00 0.  1.
         25    2    1    2    0    0  0.40503508083E+01  0.68151973673E+02  0.13037649844E+03  0.19315316876E+03  0.12509603671E+03 0.  0.
         23    2    1    2    0    0 -0.40503508083E+01 -0.68151973673E+02 -0.66447057653E+02  0.13151144414E+03  0.90658433759E+02 0.  0.
          5    1    3    3  502    0  0.51396709497E+02  0.22023777593E+02  0.11064546795E+03  0.12404257537E+03  0.41800000000E+01 0.  1.
         -5    1    3    3    0  502 -0.47346358689E+02  0.46128196080E+02  0.19731030491E+02  0.69110593391E+02  0.41800000000E+01 0.  1.
        -11    1    4    4    0    0  0.29988894846E+02 -0.45330896455E+00 -0.42549892136E+02  0.52057973682E+02  0.00000000000E+00 0.  1.
         11    1    4    4    0    0 -0.34039245654E+02 -0.67698664708E+02 -0.23897165517E+02  0.79453470457E+02  0.00000000000E+00 0. -1.
</event>
<event>
 8    1  0.6635152E-009  0.2741157E+03  0.7561462E-02  0.1098947E+00
          2   -1    0    0  501    0  0.00000000000E+00  0.00000000000E+00  0.38257104328E+03  0.38257104328E+03  0.00000000000E+00 0. -1.
         -2   -1    0    0    0  501 -0.00000000000E+00 -0.00000000000E+00 -0.45828872822E+03  0.45828872822E+03  0.00000000000E+00 0.  1.
         25    2    1    2    0    0 -0.75498453920E+02 -0.24365841511E+03 -0.35310100933E+03  0.45320850272E+03  0.12509270303E+03 0.  0.
         23    2    1    2    0    0  0.75498453920E+02  0.24365841511E+03  0.27738332439E+03  0.38765126878E+03  0.90898612447E+02 0.  0.
          5    1    3    3  502    0  0.45947250343E+01 -0.18340525016E+03 -0.21850665285E+03  0.28534405027E+03  0.41800000000E+01 0.  1.
         -5    1    3    3    0  502 -0.80093178954E+02 -0.60253164953E+02 -0.13459435647E+03  0.16786445245E+03  0.41800000000E+01 0.  1.
        -11    1    4    4    0    0  0.10670759113E+02  0.15069530304E+03  0.11610936658E+03  0.19053693727E+03  0.00000000000E+00 0. -1.
         11    1    4    4    0    0  0.64827694807E+02  0.92963112066E+02  0.16127395781E+03  0.19711433151E+03  0.00000000000E+00 0.  1.
</event>
<event>
 8    1  0.6635152E-009  0.1110617E+03  0.7561462E-02  0.1258616E+00
          2   -1    0    0  501    0  0.00000000000E+00  0.00000000000E+00  0.47997552731E+03  0.47997552731E+03  0.00000000000E+00 0.  1.
         -2   -1    0    0    0  501 -0.00000000000E+00 -0.00000000000E+00 -0.39191354412E+02  0.39191354412E+02  0.00000000000E+00 0. -1.
         25    2    1    2    0    0  0.61940360354E+02 -0.23064184230E+02  0.32552077414E+03  0.35493682614E+03  0.12509121199E+03 0.  0.
         23    2    1    2    0    0 -0.61940360354E+02  0.23064184230E+02  0.11526339876E+03  0.16423005559E+03  0.96526137543E+02 0.  0.
          5    1    3    3  502    0  0.50871158068E+02  0.43267449275E+02  0.21809638766E+03  0.22813034344E+03  0.41800000000E+01 0.  1.
         -5    1    3    3    0  502  0.11069202286E+02 -0.66331633505E+02  0.10742438648E+03  0.12680648270E+03  0.41800000000E+01 0.  1.
        -11    1    4    4    0    0 -0.57072537745E+02 -0.68873670120E+01  0.12043171681E+03  0.13344852492E+03  0.00000000000E+00 0.  1.
         11    1    4    4    0    0 -0.48678226087E+01  0.29951551242E+02 -0.51683180499E+01  0.30781530668E+02  0.00000000000E+00 0. -1.
</event>
<event>
 8    1  0.6635152E-009  0.1477613E+03  0.7561462E-02  0.1203251E+00
         -2   -1    0    0    0  501 -0.00000000000E+00  0.00000000000E+00  0.11360316811E+04  0.11360316811E+04  0.00000000000E+00 0.  1.
          2   -1    0    0  501    0  0.00000000000E+00 -0.00000000000E+00 -0.27868840934E+02  0.27868840934E+02  0.00000000000E+00 0. -1.
         25    2    1    2    0    0  0.10169283189E+03 -0.53116528730E+01  0.90365414542E+03  0.91793664190E+03  0.12508884163E+03 0.  0.
         23    2    1    2    0    0 -0.10169283189E+03  0.53116528730E+01  0.20450869473E+03  0.24596388011E+03  0.91130556818E+02 0.  0.
          5    1    3    3  502    0 -0.18377601067E+02  0.29207856844E+02  0.14911998021E+03  0.15311785011E+03  0.41800000000E+01 0.  1.
         -5    1    3    3    0  502  0.12007043296E+03 -0.34519509717E+02  0.75453416520E+03  0.76481879180E+03  0.41800000000E+01 0. -1.
        -11    1    4    4    0    0  0.49347440065E+01 -0.24539483910E+02  0.27596707957E+02  0.37257432266E+02  0.00000000000E+00 0. -1.
         11    1    4    4    0    0 -0.10662757590E+03  0.29851136783E+02  0.17691198677E+03  0.20870644785E+03  0.00000000000E+00 0.  1.
</event>
<event>
 8    1  0.6635152E-009  0.1295277E+03  0.7561462E-02  0.1228158E+00
          2   -1    0    0  501    0  0.00000000000E+00  0.00000000000E+00  0.69693185130E+02  0.69693185130E+02  0.00000000000E+00 0. -1.
         -2   -1    0    0    0  501 -0.00000000000E+00 -0.00000000000E+00 -0.40551867082E+03  0.40551867082E+03  0.00000000000E+00 0.  1.
         25    2    1    2    0    0 -0.10055454469E+02  0.11938348461E+03 -0.24192916133E+03  0.29754269451E+03  0.12509359451E+03 0.  0.
         23    2    1    2    0    0  0.10055454469E+02 -0.11938348461E+03 -0.93896324356E+02  0.17766916144E+03  0.91631231781E+02 0.  0.
          5    1    3    3  502    0 -0.74821949563E+01  0.96021976892E+02 -0.58920364729E+02  0.11298356105E+03  0.41800000000E+01 0.  1.
         -5    1    3    3    0  502 -0.25732595130E+01  0.23361507721E+02 -0.18300879661E+03  0.18455913346E+03  0.41800000000E+01 0.  1.
        -11    1    4    4    0    0  0.39075461074E+02 -0.86537349569E+02 -0.94323277549E+02  0.13383753291E+03  0.00000000000E+00 0.  1.
         11    1    4    4    0    0 -0.29020006605E+02 -0.32846135044E+02  0.42695319332E+00  0.43831628531E+02  0.00000000000E+00 0. -1.
</event>
<event>
 8    1  0.6635152E-009  0.9578462E+02  0.7561462E-02  0.1289419E+00
          1   -1    0    0  501    0  0.00000000000E+00  0.00000000000E+00  0.14511125327E+03  0.14511125327E+03  0.00000000000E+00 0. -1.
         -1   -1    0    0    0  501 -0.00000000000E+00 -0.00000000000E+00 -0.93712319510E+02  0.93712319510E+02  0.00000000000E+00 0.  1.
         25    2    1    2    0    0  0.76127431868E+01  0.35319543212E+02  0.29589962950E+02  0.13352419912E+03  0.12509085439E+03 0.  0.
         23    2    1    2    0    0 -0.76127431868E+01 -0.35319543212E+02  0.21808970815E+02  0.10529937366E+03  0.96472290810E+02 0.  0.
          5    1    3    3  502    0 -0.50627841588E+02 -0.71550563372E+01 -0.83209694717E+01  0.51971955015E+02  0.41800000000E+01 0. -1.
         -5    1    3    3    0  502  0.58240584775E+02  0.42474599549E+02  0.37910932422E+02  0.81552244107E+02  0.41800000000E+01 0. -1.
        -11    1    4    4    0    0 -0.29161159708E+02 -0.31327703035E+01 -0.29109629256E+02  0.41322608833E+02  0.00000000000E+00 0.  1.
         11    1    4    4    0    0  0.21548416522E+02 -0.32186772908E+02  0.50918600071E+02  0.63976764830E+02  0.00000000000E+00 0. -1.
</event>
<event>
 8    1  0.6635152E-009  0.1204686E+03  0.7561462E-02  0.1242326E+00
         -1   -1    0    0    0  501 -0.00000000000E+00  0.00000000000E+00  0.81419998021E+02  0.81419998021E+02  0.00000000000E+00 0.  1.
          1   -1    0    0  501    0  0.00000000000E+00 -0.00000000000E+00 -0.21611250846E+03  0.21611250846E+03  0.00000000000E+00 0. -1.
         25    2    1    2    0    0  0.79824917435E+02 -0.87434132768E+01 -0.11220794987E+03  0.18624297831E+03  0.12508940098E+03 0.  0.
         23    2    1    2    0    0 -0.79824917435E+02  0.87434132768E+01 -0.22484560575E+02  0.11128952817E+03  0.73697617992E+02 0.  0.
          5    1    3    3  502    0  0.38166639031E+02 -0.65033145806E+02 -0.76607111629E+02  0.10757380880E+03  0.41800000000E+01 0. -1.
         -5    1    3    3    0  502  0.41658278404E+02  0.56289732529E+02 -0.35600838240E+02  0.78669169508E+02  0.41800000000E+01 0. -1.
        -11    1    4    4    0    0 -0.98337510951E+01  0.21936032032E+02 -0.31361296186E+02  0.39514846076E+02  0.00000000000E+00 0. -1.
         11    1    4    4    0    0 -0.69991166339E+02 -0.13192618755E+02  0.88767356118E+01  0.71774682098E+02  0.00000000000E+00 0.  1.
</event>
