<event>
 7    1  0.1446636E-005  0.1456015E+03  0.7546771E-02  0.1215940E+00
         -4   -1    0    0    0  501 -0.00000000000E+00  0.00000000000E+00  0.62435911359E+02  0.62435911359E+02  0.00000000000E+00 0.  1.
          4   -1    0    0  501    0  0.00000000000E+00 -0.00000000000E+00 -0.28390161278E+03  0.28390161278E+03  0.00000000000E+00 0. -1.
         23    2    1    2    0    0 -0.18060195424E+01  0.74642613543E+02 -0.73860275858E+02  0.13900410610E+03  0.91060527668E+02 0.  0.
          5    1    1    2  502    0  0.34863786366E+02  0.22501307179E+02 -0.54791176785E+02  0.68890895466E+02  0.47000000000E+01 0.  1.
         -5    1    1    2    0  502 -0.33057766823E+02 -0.97143920722E+02 -0.92814248777E+02  0.13844252257E+03  0.47000000000E+01 0.  1.
        -11    1    3    3    0    0 -0.32084732775E+02  0.34238370758E+02 -0.75036752056E+02  0.88499775528E+02  0.00000000000E+00 0. -1.
         11    1    3    3    0    0  0.30278713233E+02  0.40404242785E+02  0.11764761979E+01  0.50504330570E+02  0.00000000000E+00 0.  1.
<mgrwt>
<rscale>  0 0.13807700E+03</rscale>
<asrwt>0</asrwt>
<pdfrwt beam="2">  1        4 0.43677171E-01 0.14560146E+03</pdfrwt>
<pdfrwt beam="1">  1       -4 0.96055249E-02 0.14560146E+03</pdfrwt>
<totfact> 0.69600197E+02</totfact>
</mgrwt>
</event>
<event>
 7    1  0.1446636E-005  0.1322941E+03  0.7546771E-02  0.1241989E+00
         -2   -1    0    0    0  501 -0.00000000000E+00  0.00000000000E+00  0.22809886924E+02  0.22809886924E+02  0.00000000000E+00 0.  1.
          2   -1    0    0  501    0  0.00000000000E+00 -0.00000000000E+00 -0.54935872650E+03  0.54935872650E+03  0.00000000000E+00 0. -1.
         23    2    1    2    0    0  0.17963983341E+02  0.39437183327E+02 -0.21444172636E+03  0.23318104080E+03  0.80685486057E+02 0.  0.
          5    1    1    2  502    0 -0.66968874063E+01 -0.55491696899E+02 -0.31377563118E+03  0.31874976619E+03  0.47000000000E+01 0. -1.
         -5    1    1    2    0  502 -0.11267095935E+02  0.16054513573E+02  0.16685179611E+01  0.20237806429E+02  0.47000000000E+01 0. -1.
        -11    1    3    3    0    0 -0.51640834866E+01  0.55199057546E+02 -0.90604672228E+02  0.10622057400E+03  0.00000000000E+00 0.  1.
         11    1    3    3    0    0  0.23128066828E+02 -0.15761874220E+02 -0.12383705413E+03  0.12696046680E+03  0.00000000000E+00 0. -1.
<mgrwt>
<rscale>  0 0.12067396E+03</rscale>
<asrwt>0</asrwt>
<pdfrwt beam="2">  1        2 0.84516728E-01 0.13229408E+03</pdfrwt>
<pdfrwt beam="1">  1       -2 0.35092133E-02 0.13229408E+03</pdfrwt>
<totfact> 0.17637246E+04</totfact>
</mgrwt>
</event>
<event>
 7    1  0.1446636E-005  0.1354130E+03  0.7546771E-02  0.1246707E+00
         -4   -1    0    0    0  501 -0.00000000000E+00  0.00000000000E+00  0.11134468104E+03  0.11134468104E+03  0.00000000000E+00 0.  1.
          4   -1    0    0  501    0  0.00000000000E+00 -0.00000000000E+00 -0.10203708762E+03  0.10203708762E+03  0.00000000000E+00 0. -1.
         23    2    1    2    0    0  0.39547374223E+02 -0.33819227777E+02  0.57375829365E-01  0.77653174951E+02  0.57639199445E+02 0.  0.
          5    1    1    2  502    0 -0.50659977171E+02 -0.28880777086E+02  0.33514886843E+02  0.67423068843E+02  0.47000000000E+01 0. -1.
         -5    1    1    2    0  502  0.11112602948E+02  0.62700004863E+02 -0.24264669249E+02  0.68305524871E+02  0.47000000000E+01 0. -1.
        -11    1    3    3    0    0  0.11691658095E+02  0.76859992159E+01  0.19515697692E+02  0.24013161170E+02  0.00000000000E+00 0.  1.
         11    1    3    3    0    0  0.27855716128E+02 -0.41505226993E+02 -0.19458321863E+02  0.53640013781E+02  0.00000000000E+00 0. -1.
<mgrwt>
<rscale>  0 0.11783792E+03</rscale>
<asrwt>0</asrwt>
<pdfrwt beam="2">  1        4 0.15698014E-01 0.13541301E+03</pdfrwt>
<pdfrwt beam="1">  1       -4 0.17129951E-01 0.13541301E+03</pdfrwt>
<totfact> 0.17042246E+03</totfact>
</mgrwt>
</event>
<event>
 7    1  0.1446636E-005  0.1390314E+03  0.7546771E-02  0.1225172E+00
         -2   -1    0    0    0  501 -0.00000000000E+00  0.00000000000E+00  0.10717697677E+03  0.10717697677E+03  0.00000000000E+00 0.  1.
          2   -1    0    0  501    0  0.00000000000E+00 -0.00000000000E+00 -0.17213000794E+03  0.17213000794E+03  0.00000000000E+00 0. -1.
         23    2    1    2    0    0 -0.60860757760E+02 -0.88279829021E+00 -0.83214272049E+02  0.13908147842E+03  0.93350047661E+02 0.  0.
          5    1    1    2  502    0  0.12202485136E+02 -0.31114051645E+02  0.59711779899E+02  0.68589879078E+02  0.47000000000E+01 0. -1.
         -5    1    1    2    0  502  0.48658272624E+02  0.31996849935E+02 -0.41450539025E+02  0.71635627211E+02  0.47000000000E+01 0. -1.
        -11    1    3    3    0    0  0.45384305721E+01  0.25548293853E+02  0.46962568067E+01  0.26369821744E+02  0.00000000000E+00 0.  1.
         11    1    3    3    0    0 -0.65399188332E+02 -0.26431092143E+02 -0.87910528856E+02  0.11271165667E+03  0.00000000000E+00 0. -1.
<mgrwt>
<rscale>  0 0.13155144E+03</rscale>
<asrwt>0</asrwt>
<pdfrwt beam="2">  1        2 0.26481540E-01 0.13903136E+03</pdfrwt>
<pdfrwt beam="1">  1       -2 0.16488766E-01 0.13903136E+03</pdfrwt>
<totfact> 0.56212797E+03</totfact>
</mgrwt>
</event>
<event>
 7    1  0.1446636E-005  0.2658941E+03  0.7546771E-02  0.1105870E+00
         -1   -1    0    0    0  501 -0.00000000000E+00  0.00000000000E+00  0.21885832293E+03  0.21885832293E+03  0.00000000000E+00 0.  1.
          1   -1    0    0  501    0  0.00000000000E+00 -0.00000000000E+00 -0.34687981996E+03  0.34687981996E+03  0.00000000000E+00 0. -1.
         23    2    1    2    0    0  0.22338580530E+03  0.71925249248E+02  0.35399412303E+02  0.25363869924E+03  0.89470731937E+02 0.  0.
          5    1    1    2  502    0 -0.18201067196E+03 -0.10624330334E+03 -0.14131585954E+03  0.25378689164E+03  0.47000000000E+01 0.  1.
         -5    1    1    2    0  502 -0.41375133339E+02  0.34318054090E+02 -0.22105049803E+02  0.58312552012E+02  0.47000000000E+01 0.  1.
        -11    1    3    3    0    0  0.20128261729E+03  0.44310108533E+02  0.36907310894E+01  0.20613514799E+03  0.00000000000E+00 0.  1.
         11    1    3    3    0    0  0.22103188003E+02  0.27615140715E+02  0.31708681214E+02  0.47503551245E+02  0.00000000000E+00 0. -1.
<mgrwt>
<rscale>  0 0.26213048E+03</rscale>
<asrwt>0</asrwt>
<pdfrwt beam="2">  1        1 0.53366126E-01 0.26589409E+03</pdfrwt>
<pdfrwt beam="1">  1       -1 0.33670511E-01 0.26589409E+03</pdfrwt>
<totfact> 0.61174113E+02</totfact>
</mgrwt>
</event>
<event>
 7    1  0.1446636E-005  0.2794689E+03  0.7546771E-02  0.1095979E+00
          3   -1    0    0  501    0  0.00000000000E+00  0.00000000000E+00  0.20752000124E+02  0.20752000124E+02  0.00000000000E+00 0. -1.
         -3   -1    0    0    0  501 -0.00000000000E+00 -0.00000000000E+00 -0.94090752412E+03  0.94090752412E+03  0.00000000000E+00 0.  1.
         23    2    1    2    0    0  0.31755733272E+02  0.33716439610E+02 -0.15801258151E+03  0.18794629613E+03  0.90612413160E+02 0.  0.
          5    1    1    2  502    0 -0.17493665106E+02 -0.15543067097E+02 -0.74289639864E+03  0.74327973494E+03  0.47000000000E+01 0.  1.
         -5    1    1    2    0  502 -0.14262068165E+02 -0.18173372513E+02 -0.19246543840E+02  0.30433493172E+02  0.47000000000E+01 0.  1.
        -11    1    3    3    0    0  0.54971114431E+02  0.11205427999E+02 -0.14024391384E+03  0.15104880141E+03  0.00000000000E+00 0. -1.
         11    1    3    3    0    0 -0.23215381160E+02  0.22511011611E+02 -0.17768667676E+02  0.36897494727E+02  0.00000000000E+00 0.  1.
<mgrwt>
<rscale>  0 0.27946888E+03</rscale>
<asrwt>0</asrwt>
<pdfrwt beam="1">  1        3 0.31926149E-02 0.27946888E+03</pdfrwt>
<pdfrwt beam="2">  1       -3 0.14475503E+00 0.27946888E+03</pdfrwt>
<totfact> 0.43898311E+02</totfact>
</mgrwt>
</event>
<event>
 7    1  0.1446636E-005  0.1365187E+03  0.7546771E-02  0.1228982E+00
         -2   -1    0    0    0  501 -0.00000000000E+00  0.00000000000E+00  0.33515580503E+03  0.33515580503E+03  0.00000000000E+00 0.  1.
          2   -1    0    0  501    0  0.00000000000E+00 -0.00000000000E+00 -0.45909694215E+02  0.45909694215E+02  0.00000000000E+00 0. -1.
         23    2    1    2    0    0 -0.38843941287E+02  0.38777948970E+02  0.10020943604E+03  0.14788696111E+03  0.93893775577E+02 0.  0.
          5    1    1    2  502    0  0.63182249587E+02 -0.68531996820E+02  0.10399538354E+03  0.13973460935E+03  0.47000000000E+01 0.  1.
         -5    1    1    2    0  502 -0.24338308299E+02  0.29754047850E+02  0.85041291233E+02  0.93443928797E+02  0.47000000000E+01 0.  1.
        -11    1    3    3    0    0 -0.41159789418E+02 -0.22856810967E+02  0.43091908772E+02  0.63823778282E+02  0.00000000000E+00 0. -1.
         11    1    3    3    0    0  0.23158481307E+01  0.61634759937E+02  0.57117527270E+02  0.84063182824E+02  0.00000000000E+00 0.  1.
<mgrwt>
<rscale>  0 0.12897661E+03</rscale>
<asrwt>0</asrwt>
<pdfrwt beam="2">  1        2 0.70630301E-02 0.13651874E+03</pdfrwt>
<pdfrwt beam="1">  1       -2 0.51562430E-01 0.13651874E+03</pdfrwt>
<totfact> 0.34457645E+03</totfact>
</mgrwt>
</event>
<event>
 7    1  0.1446636E-005  0.1372073E+03  0.7546771E-02  0.1228660E+00
         -1   -1    0    0    0  501 -0.00000000000E+00  0.00000000000E+00  0.11491802919E+04  0.11491802919E+04  0.00000000000E+00 0.  1.
          1   -1    0    0  501    0  0.00000000000E+00 -0.00000000000E+00 -0.15551567897E+02  0.15551567897E+02  0.00000000000E+00 0. -1.
         23    2    1    2    0    0  0.10765342272E+02  0.55855695199E+02  0.27826219434E+03  0.29843067759E+03  0.91625701891E+02 0.  0.
          5    1    1    2  502    0  0.21320805342E+02 -0.16203986574E+02  0.34917094533E+02  0.44254258688E+02  0.47000000000E+01 0.  1.
         -5    1    1    2    0  502 -0.32086147614E+02 -0.39651708625E+02  0.82044943516E+03  0.82204692355E+03  0.47000000000E+01 0.  1.
        -11    1    3    3    0    0 -0.36924240219E+02  0.27149713758E+02  0.76947045814E+02  0.89562013892E+02  0.00000000000E+00 0.  1.
         11    1    3    3    0    0  0.47689582490E+02  0.28705981440E+02  0.20131514852E+03  0.20886866369E+03  0.00000000000E+00 0. -1.
<mgrwt>
<rscale>  0 0.12919184E+03</rscale>
<asrwt>0</asrwt>
<pdfrwt beam="2">  1        1 0.23925498E-02 0.13720728E+03</pdfrwt>
<pdfrwt beam="1">  1       -1 0.17679690E+00 0.13720728E+03</pdfrwt>
<totfact> 0.11073318E+03</totfact>
</mgrwt>
</event>
<event>
 7    1  0.1446636E-005  0.1354119E+03  0.7546771E-02  0.1231897E+00
         -3   -1    0    0    0  501 -0.00000000000E+00  0.00000000000E+00  0.11544327411E+03  0.11544327411E+03  0.00000000000E+00 0.  1.
          3   -1    0    0  501    0  0.00000000000E+00 -0.00000000000E+00 -0.13024589204E+03  0.13024589204E+03  0.00000000000E+00 0. -1.
         23    2    1    2    0    0  0.51660961181E+02 -0.65150532738E+01 -0.30715447769E+02  0.10934551639E+03  0.91113678410E+02 0.  0.
          5    1    1    2  502    0  0.20411428936E+01  0.74086794612E+01 -0.50218381082E+02  0.51019903902E+02  0.47000000000E+01 0.  1.
         -5    1    1    2    0  502 -0.53702104075E+02 -0.89362618740E+00  0.66131210923E+02  0.85323745862E+02  0.47000000000E+01 0.  1.
        -11    1    3    3    0    0  0.12657483333E+02 -0.24533856949E+02  0.26182595028E+02  0.38047999993E+02  0.00000000000E+00 0.  1.
         11    1    3    3    0    0  0.39003477848E+02  0.18018803675E+02 -0.56898042797E+02  0.71297516396E+02  0.00000000000E+00 0. -1.
<mgrwt>
<rscale>  0 0.12705178E+03</rscale>
<asrwt>0</asrwt>
<pdfrwt beam="2">  1        3 0.20037830E-01 0.13541186E+03</pdfrwt>
<pdfrwt beam="1">  1       -3 0.17760504E-01 0.13541186E+03</pdfrwt>
<totfact> 0.14224114E+03</totfact>
</mgrwt>
</event>
<event>
 7    1  0.1446636E-005  0.1449093E+03  0.7546771E-02  0.1217052E+00
          4   -1    0    0  501    0  0.00000000000E+00  0.00000000000E+00  0.71519180673E+02  0.71519180673E+02  0.00000000000E+00 0. -1.
         -4   -1    0    0    0  501 -0.00000000000E+00 -0.00000000000E+00 -0.43182513969E+03  0.43182513969E+03  0.00000000000E+00 0.  1.
         23    2    1    2    0    0 -0.15189434964E+02  0.71741544659E+02 -0.18379437110E+01  0.11669458100E+03  0.90756151488E+02 0.  0.
          5    1    1    2  502    0  0.41881238500E+02 -0.11347856018E+02 -0.28265180029E+03  0.28600164717E+03  0.47000000000E+01 0.  1.
         -5    1    1    2    0  502 -0.26691803537E+02 -0.60393688641E+02 -0.75816215019E+02  0.10064809220E+03  0.47000000000E+01 0.  1.
        -11    1    3    3    0    0  0.34204291339E+02  0.65123943326E+01 -0.19634380252E+01  0.34874057906E+02  0.00000000000E+00 0.  1.
         11    1    3    3    0    0 -0.49393726303E+02  0.65229150326E+02  0.12549431420E+00  0.81820523093E+02  0.00000000000E+00 0. -1.
<mgrwt>
<rscale>  0 0.13726866E+03</rscale>
<asrwt>0</asrwt>
<pdfrwt beam="1">  1        4 0.11002951E-01 0.14490929E+03</pdfrwt>
<pdfrwt beam="2">  1       -4 0.66434637E-01 0.14490929E+03</pdfrwt>
<totfact> 0.23234062E+02</totfact>
</mgrwt>
</event>
<event>
 7    1  0.1446636E-005  0.1670717E+03  0.7546771E-02  0.1187689E+00
          1   -1    0    0  501    0  0.00000000000E+00  0.00000000000E+00  0.31666534980E+03  0.31666534980E+03  0.00000000000E+00 0. -1.
         -1   -1    0    0    0  501 -0.00000000000E+00 -0.00000000000E+00 -0.14636641265E+03  0.14636641265E+03  0.00000000000E+00 0.  1.
         23    2    1    2    0    0  0.40106482095E+02 -0.10334443359E+03  0.24181813961E+03  0.28129579313E+03  0.91447847025E+02 0.  0.
          5    1    1    2  502    0 -0.34346397809E+02  0.77567095958E+02  0.19224854590E+02  0.87109209914E+02  0.47000000000E+01 0.  1.
         -5    1    1    2    0  502 -0.57600842862E+01  0.25777337630E+02 -0.90744057053E+02  0.94626759411E+02  0.47000000000E+01 0.  1.
        -11    1    3    3    0    0  0.25631257873E+02 -0.87598880561E+02  0.24329980546E+03  0.25985634607E+03  0.00000000000E+00 0. -1.
         11    1    3    3    0    0  0.14475224223E+02 -0.15745553027E+02 -0.14816658479E+01  0.21439447057E+02  0.00000000000E+00 0.  1.
<mgrwt>
<rscale>  0 0.16089617E+03</rscale>
<asrwt>0</asrwt>
<pdfrwt beam="1">  1        1 0.48717746E-01 0.16707174E+03</pdfrwt>
<pdfrwt beam="2">  1       -1 0.22517910E-01 0.16707174E+03</pdfrwt>
<totfact> 0.13447517E+03</totfact>
</mgrwt>
</event>
<event>
 7    1  0.1446636E-005  0.1490873E+03  0.7546771E-02  0.1221604E+00
         -1   -1    0    0    0  501 -0.00000000000E+00  0.00000000000E+00  0.13961026771E+03  0.13961026771E+03  0.00000000000E+00 0.  1.
          1   -1    0    0  501    0  0.00000000000E+00 -0.00000000000E+00 -0.12299528313E+03  0.12299528313E+03  0.00000000000E+00 0. -1.
         23    2    1    2    0    0  0.26884656592E+02 -0.14626483833E+02 -0.37017118657E+02  0.10416495365E+03  0.92430253192E+02 0.  0.
          5    1    1    2  502    0  0.95810188560E+01  0.72954583380E+02  0.46766506607E+01  0.73879146042E+02  0.47000000000E+01 0. -1.
         -5    1    1    2    0  502 -0.36465675448E+02 -0.58328099547E+02  0.48955452577E+02  0.84561451145E+02  0.47000000000E+01 0.  1.
        -11    1    3    3    0    0 -0.92255861992E+01 -0.30585453869E+02  0.17830873956E+02  0.36585810024E+02  0.00000000000E+00 0.  1.
         11    1    3    3    0    0  0.36110242792E+02  0.15958970036E+02 -0.54847992613E+02  0.67579143623E+02  0.00000000000E+00 0. -1.
<mgrwt>
<rscale>  0 0.13402380E+03</rscale>
<asrwt>0</asrwt>
<pdfrwt beam="2">  1        1 0.18922351E-01 0.14908729E+03</pdfrwt>
<pdfrwt beam="1">  1       -1 0.21478503E-01 0.14908729E+03</pdfrwt>
<totfact> 0.47318150E+03</totfact>
</mgrwt>
</event>
<event>
 7    1  0.1446636E-005  0.1263162E+03  0.7546771E-02  0.1247601E+00
          1   -1    0    0  501    0  0.00000000000E+00  0.00000000000E+00  0.17681380016E+03  0.17681380016E+03  0.00000000000E+00 0. -1.
         -1   -1    0    0    0  501 -0.00000000000E+00 -0.00000000000E+00 -0.68705267626E+02  0.68705267626E+02  0.00000000000E+00 0.  1.
         23    2    1    2    0    0  0.87069385382E+01 -0.16376498784E+02  0.50663760511E+02  0.10675425805E+03  0.92117612278E+02 0.  0.
          5    1    1    2  502    0 -0.43545756892E+02 -0.39695590523E+02  0.35933332402E+02  0.69175625966E+02  0.47000000000E+01 0. -1.
         -5    1    1    2    0  502  0.34838818354E+02  0.56072089307E+02  0.21511439626E+02  0.69589183774E+02  0.47000000000E+01 0. -1.
        -11    1    3    3    0    0 -0.76150800854E+00 -0.51093202695E+02  0.48898987422E+02  0.70726276779E+02  0.00000000000E+00 0. -1.
         11    1    3    3    0    0  0.94684465467E+01  0.34716703911E+02  0.17647730885E+01  0.36027981272E+02  0.00000000000E+00 0.  1.
<mgrwt>
<rscale>  0 0.11731057E+03</rscale>
<asrwt>0</asrwt>
<pdfrwt beam="1">  1        1 0.27202123E-01 0.12631615E+03</pdfrwt>
<pdfrwt beam="2">  1       -1 0.10570041E-01 0.12631615E+03</pdfrwt>
<totfact> 0.90067894E+03</totfact>
</mgrwt>
</event>
<event>
 7    1  0.1446636E-005  0.1256752E+03  0.7546771E-02  0.1250304E+00
         -1   -1    0    0    0  501 -0.00000000000E+00  0.00000000000E+00  0.33164412383E+03  0.33164412383E+03  0.00000000000E+00 0.  1.
          1   -1    0    0  501    0  0.00000000000E+00 -0.00000000000E+00 -0.36712834049E+02  0.36712834049E+02  0.00000000000E+00 0. -1.
         23    2    1    2    0    0 -0.82487045173E+01  0.99908520730E+01  0.87356589895E+02  0.12570182543E+03  0.89453434074E+02 0.  0.
          5    1    1    2  502    0 -0.30415707519E+02  0.43135401561E+02  0.54529788360E+02  0.76035294110E+02  0.47000000000E+01 0. -1.
         -5    1    1    2    0  502  0.38664412036E+02 -0.53126253634E+02  0.15304491153E+03  0.16661983834E+03  0.47000000000E+01 0. -1.
        -11    1    3    3    0    0 -0.29911773770E+00  0.25282172269E+02  0.10075062682E+03  0.10387476359E+03  0.00000000000E+00 0.  1.
         11    1    3    3    0    0 -0.79495867796E+01 -0.15291320196E+02 -0.13394036929E+02  0.21827061840E+02  0.00000000000E+00 0. -1.
<mgrwt>
<rscale>  0 0.11573467E+03</rscale>
<asrwt>0</asrwt>
<pdfrwt beam="2">  1        1 0.56481285E-02 0.12567521E+03</pdfrwt>
<pdfrwt beam="1">  1       -1 0.51022171E-01 0.12567521E+03</pdfrwt>
<totfact> 0.52683661E+03</totfact>
</mgrwt>
</event>
<event>
 7    1  0.1446636E-005  0.1392128E+03  0.7546771E-02  0.1225804E+00
         -2   -1    0    0    0  501 -0.00000000000E+00  0.00000000000E+00  0.30905683264E+02  0.30905683264E+02  0.00000000000E+00 0.  1.
          2   -1    0    0  501    0  0.00000000000E+00 -0.00000000000E+00 -0.50158461597E+03  0.50158461597E+03  0.00000000000E+00 0. -1.
         23    2    1    2    0    0  0.61256659852E+02 -0.15403020496E+01 -0.21905651815E+03  0.24492456969E+03  0.90815944576E+02 0.  0.
          5    1    1    2  502    0 -0.45077348701E+02  0.61645594044E+02 -0.12948745556E+03  0.15040358300E+03  0.47000000000E+01 0. -1.
         -5    1    1    2    0  502 -0.16179311151E+02 -0.60105291994E+02 -0.12213495899E+03  0.13716214654E+03  0.47000000000E+01 0. -1.
        -11    1    3    3    0    0 -0.45933737870E+01 -0.32236704361E+02 -0.39276767023E+02  0.51019296532E+02  0.00000000000E+00 0.  1.
         11    1    3    3    0    0  0.65850033639E+02  0.30696402311E+02 -0.17977975113E+03  0.19390527316E+03  0.00000000000E+00 0. -1.
<mgrwt>
<rscale>  0 0.13111954E+03</rscale>
<asrwt>0</asrwt>
<pdfrwt beam="2">  1        2 0.77166854E-01 0.13921282E+03</pdfrwt>
<pdfrwt beam="1">  1       -2 0.47547211E-02 0.13921282E+03</pdfrwt>
<totfact> 0.12463903E+04</totfact>
</mgrwt>
</event>
<event>
 7    1  0.1446636E-005  0.1559410E+03  0.7546771E-02  0.1201422E+00
          1   -1    0    0  501    0  0.00000000000E+00  0.00000000000E+00  0.66531502637E+03  0.66531502637E+03  0.00000000000E+00 0. -1.
         -1   -1    0    0    0  501 -0.00000000000E+00 -0.00000000000E+00 -0.40323788890E+02  0.40323788890E+02  0.00000000000E+00 0.  1.
         23    2    1    2    0    0  0.33363385712E+02  0.87054409378E+02  0.46162478556E+03  0.47979332358E+03  0.91720254116E+02 0.  0.
          5    1    1    2  502    0 -0.11133929549E+02 -0.11699300446E+03  0.11396564341E+03  0.16377296894E+03  0.47000000000E+01 0. -1.
         -5    1    1    2    0  502 -0.22229456163E+02  0.29938595080E+02  0.49400808518E+02  0.62072522737E+02  0.47000000000E+01 0. -1.
        -11    1    3    3    0    0 -0.13889543862E+02  0.33393488770E+02  0.48356479639E+02  0.60385376077E+02  0.00000000000E+00 0.  1.
         11    1    3    3    0    0  0.47252929574E+02  0.53660920608E+02  0.41326830592E+03  0.41940794751E+03  0.00000000000E+00 0. -1.
<mgrwt>
<rscale>  0 0.14923064E+03</rscale>
<asrwt>0</asrwt>
<pdfrwt beam="1">  1        1 0.10235615E+00 0.15594098E+03</pdfrwt>
<pdfrwt beam="2">  1       -1 0.62036603E-02 0.15594098E+03</pdfrwt>
<totfact> 0.37748063E+03</totfact>
</mgrwt>
</event>
<event>
 7    1  0.1446636E-005  0.1260168E+03  0.7546771E-02  0.1246433E+00
          1   -1    0    0  501    0  0.00000000000E+00  0.00000000000E+00  0.33886544092E+03  0.33886544092E+03  0.00000000000E+00 0. -1.
         -1   -1    0    0    0  501 -0.00000000000E+00 -0.00000000000E+00 -0.44639355998E+02  0.44639355998E+02  0.00000000000E+00 0.  1.
         23    2    1    2    0    0 -0.12638562302E+02 -0.97413435800E+01  0.21185159138E+03  0.23295316825E+03  0.95558645839E+02 0.  0.
          5    1    1    2  502    0  0.76139177938E+01 -0.76960443423E+01  0.11355679292E+03  0.11416845475E+03  0.47000000000E+01 0. -1.
         -5    1    1    2    0  502  0.50246445079E+01  0.17437387922E+02 -0.31182299376E+02  0.36383173918E+02  0.47000000000E+01 0. -1.
        -11    1    3    3    0    0  0.15612901093E+02  0.34664053235E+02  0.50342531546E+02  0.63085099268E+02  0.00000000000E+00 0.  1.
         11    1    3    3    0    0 -0.28251463395E+02 -0.44405396815E+02  0.16150905984E+03  0.16986806898E+03  0.00000000000E+00 0. -1.
<mgrwt>
<rscale>  0 0.11799997E+03</rscale>
<asrwt>0</asrwt>
<pdfrwt beam="1">  1        1 0.52133143E-01 0.12601681E+03</pdfrwt>
<pdfrwt beam="2">  1       -1 0.68675935E-02 0.12601681E+03</pdfrwt>
<totfact> 0.77262468E+03</totfact>
</mgrwt>
</event>
<event>
 7    1  0.1446636E-005  0.1461934E+03  0.7546771E-02  0.1216400E+00
         -2   -1    0    0    0  501 -0.00000000000E+00  0.00000000000E+00  0.10456028174E+03  0.10456028174E+03  0.00000000000E+00 0.  1.
          2   -1    0    0  501    0  0.00000000000E+00 -0.00000000000E+00 -0.21095968307E+03  0.21095968307E+03  0.00000000000E+00 0. -1.
         23    2    1    2    0    0 -0.60393642401E+02 -0.45774575172E+02 -0.12283244989E+03  0.16840584539E+03  0.86775654664E+02 0.  0.
          5    1    1    2  502    0  0.46429543497E+02  0.50953323181E+02  0.65752862807E+02  0.95380672150E+02  0.47000000000E+01 0. -1.
         -5    1    1    2    0  502  0.13964098904E+02 -0.51787480087E+01 -0.49319814244E+02  0.51733447268E+02  0.47000000000E+01 0. -1.
        -11    1    3    3    0    0 -0.10399871699E+00 -0.39174172305E+02 -0.10197311537E+02  0.40479769690E+02  0.00000000000E+00 0.  1.
         11    1    3    3    0    0 -0.60289643684E+02 -0.66004028668E+01 -0.11263513835E+03  0.12792607570E+03  0.00000000000E+00 0. -1.
<mgrwt>
<rscale>  0 0.13774184E+03</rscale>
<asrwt>0</asrwt>
<pdfrwt beam="2">  1        2 0.32455336E-01 0.14619343E+03</pdfrwt>
<pdfrwt beam="1">  1       -2 0.16086197E-01 0.14619343E+03</pdfrwt>
<totfact> 0.47079258E+03</totfact>
</mgrwt>
</event>
<event>
 7    1  0.1446636E-005  0.1281343E+03  0.7546771E-02  0.1244620E+00
         -2   -1    0    0    0  501 -0.00000000000E+00  0.00000000000E+00  0.28996071058E+02  0.28996071058E+02  0.00000000000E+00 0.  1.
          2   -1    0    0  501    0  0.00000000000E+00 -0.00000000000E+00 -0.43865142940E+03  0.43865142940E+03  0.00000000000E+00 0. -1.
         23    2    1    2    0    0  0.21426514223E+02  0.18298698412E+02 -0.20500820108E+03  0.22619593349E+03  0.91336191861E+02 0.  0.
          5    1    1    2  502    0 -0.69649142264E+00  0.71735788813E+01  0.16084117142E+02  0.18241002125E+02  0.47000000000E+01 0. -1.
         -5    1    1    2    0  502 -0.20730022800E+02 -0.25472277293E+02 -0.22073127440E+03  0.22321056484E+03  0.47000000000E+01 0. -1.
        -11    1    3    3    0    0 -0.21307132949E+02  0.24260454916E+02 -0.16231915348E+03  0.16549945974E+03  0.00000000000E+00 0. -1.
         11    1    3    3    0    0  0.42733647172E+02 -0.59617565046E+01 -0.42689047598E+02  0.60696473753E+02  0.00000000000E+00 0.  1.
<mgrwt>
<rscale>  0 0.11908169E+03</rscale>
<asrwt>0</asrwt>
<pdfrwt beam="2">  1        2 0.67484831E-01 0.12813431E+03</pdfrwt>
<pdfrwt beam="1">  1       -2 0.44609343E-02 0.12813431E+03</pdfrwt>
<totfact> 0.15759444E+04</totfact>
</mgrwt>
</event>
<event>
 7    1  0.1446636E-005  0.1282375E+03  0.7546771E-02  0.1242119E+00
         -1   -1    0    0    0  501 -0.00000000000E+00  0.00000000000E+00  0.37719703164E+02  0.37719703164E+02  0.00000000000E+00 0.  1.
          1   -1    0    0  501    0  0.00000000000E+00 -0.00000000000E+00 -0.34758076968E+03  0.34758076968E+03  0.00000000000E+00 0. -1.
         23    2    1    2    0    0  0.13809296600E+02 -0.25084555757E+02 -0.14834873557E+03  0.17906980274E+03  0.96118236023E+02 0.  0.
          5    1    1    2  502    0  0.28912337956E+02  0.62192617877E+02 -0.10912420786E+03  0.12897297293E+03  0.47000000000E+01 0. -1.
         -5    1    1    2    0  502 -0.42721634555E+02 -0.37108062121E+02 -0.52388123086E+02  0.77257697183E+02  0.47000000000E+01 0. -1.
        -11    1    3    3    0    0 -0.15330220505E+02 -0.45301035153E+02 -0.13126138876E+03  0.13970236801E+03  0.00000000000E+00 0.  1.
         11    1    3    3    0    0  0.29139517105E+02  0.20216479396E+02 -0.17087346811E+02  0.39367434731E+02  0.00000000000E+00 0. -1.
<mgrwt>
<rscale>  0 0.12059484E+03</rscale>
<asrwt>0</asrwt>
<pdfrwt beam="2">  1        1 0.53473966E-01 0.12823750E+03</pdfrwt>
<pdfrwt beam="1">  1       -1 0.58030311E-02 0.12823750E+03</pdfrwt>
<totfact> 0.96342855E+03</totfact>
</mgrwt>
</event>
<event>
 7    1  0.1446636E-005  0.1340576E+03  0.7546771E-02  0.1233461E+00
          3   -1    0    0  501    0  0.00000000000E+00  0.00000000000E+00  0.15734289405E+03  0.15734289405E+03  0.00000000000E+00 0. -1.
         -3   -1    0    0    0  501 -0.00000000000E+00 -0.00000000000E+00 -0.98333930798E+02  0.98333930798E+02  0.00000000000E+00 0.  1.
         23    2    1    2    0    0  0.42231534334E+02  0.23720001090E+02  0.61767839789E+02  0.12159080239E+03  0.92859658888E+02 0.  0.
          5    1    1    2  502    0  0.13247396999E+01  0.38767312312E+02  0.31735522429E+02  0.50337787228E+02  0.47000000000E+01 0.  1.
         -5    1    1    2    0  502 -0.43556274034E+02 -0.62487313401E+02 -0.34494398970E+02  0.83748235230E+02  0.47000000000E+01 0.  1.
        -11    1    3    3    0    0 -0.52242862448E+01  0.41680255075E+02  0.56746157663E+02  0.70602147556E+02  0.00000000000E+00 0. -1.
         11    1    3    3    0    0  0.47455820579E+02 -0.17960253986E+02  0.50216821253E+01  0.50988654830E+02  0.00000000000E+00 0.  1.
<mgrwt>
<rscale>  0 0.12603461E+03</rscale>
<asrwt>0</asrwt>
<pdfrwt beam="1">  1        3 0.24206599E-01 0.13405764E+03</pdfrwt>
<pdfrwt beam="2">  1       -3 0.15128297E-01 0.13405764E+03</pdfrwt>
<totfact> 0.13377851E+03</totfact>
</mgrwt>
</event>
<event>
 7    1  0.1446636E-005  0.1617578E+03  0.7546771E-02  0.1192506E+00
         -2   -1    0    0    0  501 -0.00000000000E+00  0.00000000000E+00  0.23386285719E+02  0.23386285719E+02  0.00000000000E+00 0.  1.
          2   -1    0    0  501    0  0.00000000000E+00 -0.00000000000E+00 -0.10432488456E+04  0.10432488456E+04  0.00000000000E+00 0. -1.
         23    2    1    2    0    0  0.95959850755E+02  0.36516890260E+02 -0.60086476815E+03  0.61749735943E+03  0.98603970843E+02 0.  0.
          5    1    1    2  502    0 -0.93830865482E+02 -0.46827537514E+02 -0.16949170891E+03  0.19936544077E+03  0.47000000000E+01 0.  1.
         -5    1    1    2    0  502 -0.21289852734E+01  0.10310647255E+02 -0.24950608278E+03  0.24977233107E+03  0.47000000000E+01 0.  1.
        -11    1    3    3    0    0  0.40189219033E+02  0.64576848466E+02 -0.39950306399E+03  0.40667928497E+03  0.00000000000E+00 0. -1.
         11    1    3    3    0    0  0.55770631722E+02 -0.28059958206E+02 -0.20136170416E+03  0.21081807446E+03  0.00000000000E+00 0.  1.
<mgrwt>
<rscale>  0 0.15667185E+03</rscale>
<asrwt>0</asrwt>
<pdfrwt beam="2">  1        2 0.16049978E+00 0.16175781E+03</pdfrwt>
<pdfrwt beam="1">  1       -2 0.35978911E-02 0.16175781E+03</pdfrwt>
<totfact> 0.77879455E+03</totfact>
</mgrwt>
</event>
<event>
 7    1  0.1446636E-005  0.1786925E+03  0.7546771E-02  0.1174355E+00
          2   -1    0    0  501    0  0.00000000000E+00  0.00000000000E+00  0.54485912377E+03  0.54485912377E+03  0.00000000000E+00 0.  1.
         -2   -1    0    0    0  501 -0.00000000000E+00 -0.00000000000E+00 -0.59082226714E+02  0.59082226714E+02  0.00000000000E+00 0. -1.
         23    2    1    2    0    0  0.99540412108E+02  0.79981847409E+02  0.33331569608E+03  0.36904688229E+03  0.93759578289E+02 0.  0.
          5    1    1    2  502    0 -0.34645742417E+02 -0.67938807248E+02  0.90343415792E+01  0.76939705781E+02  0.47000000000E+01 0. -1.
         -5    1    1    2    0  502 -0.64894669691E+02 -0.12043040161E+02  0.14342685940E+03  0.15795476241E+03  0.47000000000E+01 0. -1.
        -11    1    3    3    0    0  0.12484088929E+02  0.46797482553E+02  0.45224241535E+02  0.66265291610E+02  0.00000000000E+00 0.  1.
         11    1    3    3    0    0  0.87056323179E+02  0.33184364856E+02  0.28809145454E+03  0.30278159068E+03  0.00000000000E+00 0. -1.
<mgrwt>
<rscale>  0 0.17339268E+03</rscale>
<asrwt>0</asrwt>
<pdfrwt beam="1">  1        2 0.83824477E-01 0.17869245E+03</pdfrwt>
<pdfrwt beam="2">  1       -2 0.90895737E-02 0.17869245E+03</pdfrwt>
<totfact> 0.42744034E+03</totfact>
</mgrwt>
</event>
<event>
 7    1  0.1446636E-005  0.1691733E+03  0.7546771E-02  0.1185238E+00
          1   -1    0    0  501    0  0.00000000000E+00  0.00000000000E+00  0.16311313343E+04  0.16311313343E+04  0.00000000000E+00 0. -1.
         -1   -1    0    0    0  501 -0.00000000000E+00 -0.00000000000E+00 -0.16183951935E+02  0.16183951935E+02  0.00000000000E+00 0.  1.
         23    2    1    2    0    0  0.72600761320E+02  0.87891440753E+02  0.55366769330E+03  0.57263663796E+03  0.91482395217E+02 0.  0.
          5    1    1    2  502    0  0.24524191002E+02 -0.62713806995E+02  0.49139014977E+03  0.49600486572E+03  0.47000000000E+01 0. -1.
         -5    1    1    2    0  502 -0.97124952323E+02 -0.25177633758E+02  0.56988953930E+03  0.57867378255E+03  0.47000000000E+01 0. -1.
        -11    1    3    3    0    0  0.71165446841E+02  0.47587308503E+02  0.48890051661E+03  0.49633938782E+03  0.00000000000E+00 0. -1.
         11    1    3    3    0    0  0.14353144791E+01  0.40304132250E+02  0.64767176684E+02  0.76297250145E+02  0.00000000000E+00 0.  1.
<mgrwt>
<rscale>  0 0.16310276E+03</rscale>
<asrwt>0</asrwt>
<pdfrwt beam="1">  1        1 0.25094315E+00 0.16917334E+03</pdfrwt>
<pdfrwt beam="2">  1       -1 0.24898400E-02 0.16917334E+03</pdfrwt>
<totfact> 0.29031267E+03</totfact>
</mgrwt>
</event>
<event>
 7    1  0.1446636E-005  0.2690606E+03  0.7546771E-02  0.1103854E+00
         -4   -1    0    0    0  501 -0.00000000000E+00  0.00000000000E+00  0.18033799012E+03  0.18033799012E+03  0.00000000000E+00 0.  1.
          4   -1    0    0  501    0  0.00000000000E+00 -0.00000000000E+00 -0.44290005573E+03  0.44290005573E+03  0.00000000000E+00 0. -1.
         23    2    1    2    0    0  0.23811191483E+03 -0.81250191354E+01 -0.24463776348E+03  0.35358105399E+03  0.91698563256E+02 0.  0.
          5    1    1    2  502    0 -0.95517411849E+02  0.40513569755E+02  0.41369027313E+02  0.11179629565E+03  0.47000000000E+01 0. -1.
         -5    1    1    2    0  502 -0.14259450298E+03 -0.32388550620E+02 -0.59293329445E+02  0.15786069621E+03  0.47000000000E+01 0. -1.
        -11    1    3    3    0    0  0.19265433943E+03 -0.11213541750E+02 -0.13690640764E+03  0.23661107851E+03  0.00000000000E+00 0.  1.
         11    1    3    3    0    0  0.45457575393E+02  0.30885226149E+01 -0.10773135585E+03  0.11696997548E+03  0.00000000000E+00 0. -1.
<mgrwt>
<rscale>  0 0.26554930E+03</rscale>
<asrwt>0</asrwt>
<pdfrwt beam="2">  1        4 0.68138470E-01 0.26906061E+03</pdfrwt>
<pdfrwt beam="1">  1       -4 0.27744306E-01 0.26906061E+03</pdfrwt>
<totfact> 0.45731708E+01</totfact>
</mgrwt>
</event>
<event>
 7    1  0.1446636E-005  0.1261929E+03  0.7546771E-02  0.1248838E+00
         -1   -1    0    0    0  501 -0.00000000000E+00  0.00000000000E+00  0.48224133768E+02  0.48224133768E+02  0.00000000000E+00 0.  1.
          1   -1    0    0  501    0  0.00000000000E+00 -0.00000000000E+00 -0.24691013518E+03  0.24691013518E+03  0.00000000000E+00 0. -1.
         23    2    1    2    0    0 -0.17223440918E+02  0.14194909043E+01 -0.88399865573E+02  0.12754047847E+03  0.90296043894E+02 0.  0.
          5    1    1    2  502    0  0.18037927665E+02  0.25579826220E+01  0.25486573725E+02  0.31679102730E+02  0.47000000000E+01 0. -1.
         -5    1    1    2    0  502 -0.81448674648E+00 -0.39774735263E+01 -0.13577270956E+03  0.13591468775E+03  0.47000000000E+01 0. -1.
        -11    1    3    3    0    0 -0.21525536951E+02 -0.32837405886E+02 -0.84015132108E+02  0.92737189894E+02  0.00000000000E+00 0. -1.
         11    1    3    3    0    0  0.43020960331E+01  0.34256896790E+02 -0.43847334646E+01  0.34803288573E+02  0.00000000000E+00 0.  1.
<mgrwt>
<rscale>  0 0.11658599E+03</rscale>
<asrwt>0</asrwt>
<pdfrwt beam="2">  1        1 0.37986174E-01 0.12619290E+03</pdfrwt>
<pdfrwt beam="1">  1       -1 0.74190977E-02 0.12619290E+03</pdfrwt>
<totfact> 0.10175796E+04</totfact>
</mgrwt>
</event>
<event>
 7    1  0.1446636E-005  0.1476841E+03  0.7546771E-02  0.1212478E+00
         -2   -1    0    0    0  501 -0.00000000000E+00  0.00000000000E+00  0.24994149536E+03  0.24994149536E+03  0.00000000000E+00 0.  1.
          2   -1    0    0  501    0  0.00000000000E+00 -0.00000000000E+00 -0.76962752039E+02  0.76962752039E+02  0.00000000000E+00 0. -1.
         23    2    1    2    0    0  0.78172356337E+02  0.87189100998E+01  0.39125990612E+02  0.12758750408E+03  0.92524544681E+02 0.  0.
          5    1    1    2  502    0 -0.16807709591E+02  0.24192207080E+02 -0.16114748632E+02  0.33904824267E+02  0.47000000000E+01 0. -1.
         -5    1    1    2    0  502 -0.61364646746E+02 -0.32911117180E+02  0.14996750134E+03  0.16541191905E+03  0.47000000000E+01 0. -1.
        -11    1    3    3    0    0  0.64907683266E+02  0.43742456624E+02  0.76108385085E+01  0.78640541207E+02  0.00000000000E+00 0. -1.
         11    1    3    3    0    0  0.13264673071E+02 -0.35023546524E+02  0.31515152103E+02  0.48946962877E+02  0.00000000000E+00 0.  1.
<mgrwt>
<rscale>  0 0.14063423E+03</rscale>
<asrwt>0</asrwt>
<pdfrwt beam="2">  1        2 0.11840424E-01 0.14768414E+03</pdfrwt>
<pdfrwt beam="1">  1       -2 0.38452537E-01 0.14768414E+03</pdfrwt>
<totfact> 0.32190151E+03</totfact>
</mgrwt>
</event>
<event>
 7    1  0.1446636E-005  0.1293218E+03  0.7546771E-02  0.1248900E+00
          1   -1    0    0  501    0  0.00000000000E+00  0.00000000000E+00  0.38787880768E+02  0.38787880768E+02  0.00000000000E+00 0. -1.
         -1   -1    0    0    0  501 -0.00000000000E+00 -0.00000000000E+00 -0.37531324024E+03  0.37531324024E+03  0.00000000000E+00 0.  1.
         23    2    1    2    0    0 -0.32053207693E+02  0.84646921172E+01 -0.47933575037E+02  0.97858591973E+02  0.78610541730E+02 0.  0.
          5    1    1    2  502    0  0.53930579714E+02 -0.24673539313E+02 -0.54995453379E+02  0.81017781152E+02  0.47000000000E+01 0.  1.
         -5    1    1    2    0  502 -0.21877372021E+02  0.16208847196E+02 -0.23359633105E+03  0.23522474788E+03  0.47000000000E+01 0.  1.
        -11    1    3    3    0    0 -0.44421794876E+02 -0.50709425449E+00  0.31524434236E+01  0.44536399766E+02  0.00000000000E+00 0. -1.
         11    1    3    3    0    0  0.12368587183E+02  0.89717863717E+01 -0.51086018461E+02  0.53322192207E+02  0.00000000000E+00 0.  1.
<mgrwt>
<rscale>  0 0.11654946E+03</rscale>
<asrwt>0</asrwt>
<pdfrwt beam="1">  1        1 0.59673661E-02 0.12932177E+03</pdfrwt>
<pdfrwt beam="2">  1       -1 0.57740500E-01 0.12932177E+03</pdfrwt>
<totfact> 0.38952930E+03</totfact>
</mgrwt>
</event>
<event>
 7    1  0.1446636E-005  0.4238215E+03  0.7546771E-02  0.1036564E+00
         -1   -1    0    0    0  501 -0.00000000000E+00  0.00000000000E+00  0.14138264329E+03  0.14138264329E+03  0.00000000000E+00 0.  1.
          1   -1    0    0  501    0  0.00000000000E+00 -0.00000000000E+00 -0.12968133017E+04  0.12968133017E+04  0.00000000000E+00 0. -1.
         23    2    1    2    0    0  0.47884703874E+02  0.40213078346E+03 -0.71743648556E+03  0.82871781141E+03  0.89755157236E+02 0.  0.
          5    1    1    2  502    0 -0.16830868367E+02 -0.36162752351E+03 -0.32973366669E+03  0.48969799350E+03  0.47000000000E+01 0. -1.
         -5    1    1    2    0  502 -0.31053835507E+02 -0.40503259950E+02 -0.10826050614E+03  0.11978014007E+03  0.47000000000E+01 0. -1.
        -11    1    3    3    0    0  0.37198022012E+02  0.11477381391E+03 -0.28403218679E+03  0.30859521113E+03  0.00000000000E+00 0.  1.
         11    1    3    3    0    0  0.10686681862E+02  0.28735696955E+03 -0.43340429877E+03  0.52012260027E+03  0.00000000000E+00 0. -1.
<mgrwt>
<rscale>  0 0.42154764E+03</rscale>
<asrwt>0</asrwt>
<pdfrwt beam="2">  1        1 0.19950974E+00 0.42382154E+03</pdfrwt>
<pdfrwt beam="1">  1       -1 0.21751176E-01 0.42382154E+03</pdfrwt>
<totfact> 0.16952404E+02</totfact>
</mgrwt>
</event>
<event>
 7    1  0.1446636E-005  0.1481089E+03  0.7546771E-02  0.1212384E+00
          2   -1    0    0  501    0  0.00000000000E+00  0.00000000000E+00  0.66590512136E+03  0.66590512136E+03  0.00000000000E+00 0. -1.
         -2   -1    0    0    0  501 -0.00000000000E+00 -0.00000000000E+00 -0.30217606228E+02  0.30217606228E+02  0.00000000000E+00 0.  1.
         23    2    1    2    0    0 -0.54895406104E+02 -0.57437766452E+02  0.39968829260E+03  0.41749776412E+03  0.90780224610E+02 0.  0.
          5    1    1    2  502    0 -0.30027611648E+02  0.12016694965E+01  0.12175433560E+03  0.12549625377E+03  0.47000000000E+01 0. -1.
         -5    1    1    2    0  502  0.84923017752E+02  0.56236096955E+02  0.11424488693E+03  0.15312870970E+03  0.47000000000E+01 0. -1.
        -11    1    3    3    0    0  0.99135380446E+01 -0.45841323736E+02  0.97153583033E+02  0.10788199059E+03  0.00000000000E+00 0.  1.
         11    1    3    3    0    0 -0.64808944148E+02 -0.11596442716E+02  0.30253470957E+03  0.30961577353E+03  0.00000000000E+00 0. -1.
<mgrwt>
<rscale>  0 0.14070428E+03</rscale>
<asrwt>0</asrwt>
<pdfrwt beam="1">  1        2 0.10244693E+00 0.14810887E+03</pdfrwt>
<pdfrwt beam="2">  1       -2 0.46488630E-02 0.14810887E+03</pdfrwt>
<totfact> 0.93911339E+03</totfact>
</mgrwt>
</event>
<event>
 7    1  0.1446636E-005  0.1334114E+03  0.7546771E-02  0.1235263E+00
         -1   -1    0    0    0  501 -0.00000000000E+00  0.00000000000E+00  0.13800621265E+03  0.13800621265E+03  0.00000000000E+00 0. -1.
          1   -1    0    0  501    0  0.00000000000E+00 -0.00000000000E+00 -0.13594300829E+03  0.13594300829E+03  0.00000000000E+00 0.  1.
         23    2    1    2    0    0  0.21829309901E+02  0.41186536625E+02 -0.68322884367E+02  0.12310893312E+03  0.91186311011E+02 0.  0.
          5    1    1    2  502    0 -0.69772919531E+02 -0.27351812957E+02  0.15799790346E+02  0.76733990818E+02  0.47000000000E+01 0.  1.
         -5    1    1    2    0  502  0.47943609630E+02 -0.13834723668E+02  0.54586298383E+02  0.74106296996E+02  0.47000000000E+01 0.  1.
        -11    1    3    3    0    0  0.81493279023E+01  0.34728668778E+02 -0.89921990082E+02  0.96739114533E+02  0.00000000000E+00 0.  1.
         11    1    3    3    0    0  0.13679981999E+02  0.64578678475E+01  0.21599105715E+02  0.26369818587E+02  0.00000000000E+00 0. -1.
<mgrwt>
<rscale>  0 0.12487633E+03</rscale>
<asrwt>0</asrwt>
<pdfrwt beam="2">  1        1 0.20914309E-01 0.13341136E+03</pdfrwt>
<pdfrwt beam="1">  1       -1 0.21231725E-01 0.13341136E+03</pdfrwt>
<totfact> 0.42170950E+03</totfact>
</mgrwt>
</event>
<event>
 7    1  0.1446636E-005  0.1710056E+03  0.7546771E-02  0.1183358E+00
          1   -1    0    0  501    0  0.00000000000E+00  0.00000000000E+00  0.23207469916E+03  0.23207469916E+03  0.00000000000E+00 0. -1.
         -1   -1    0    0    0  501 -0.00000000000E+00 -0.00000000000E+00 -0.10950902254E+03  0.10950902254E+03  0.00000000000E+00 0.  1.
         23    2    1    2    0    0 -0.66197607160E+02 -0.96112047361E+02  0.50028903483E+02  0.15582984397E+03  0.90334933696E+02 0.  0.
          5    1    1    2  502    0  0.87894514102E+01  0.69709380615E+02 -0.20362381610E+02  0.73303265866E+02  0.47000000000E+01 0.  1.
         -5    1    1    2    0  502  0.57408155750E+02  0.26402666746E+02  0.92899154739E+02  0.11245061187E+03  0.47000000000E+01 0.  1.
        -11    1    3    3    0    0  0.12718410573E+02 -0.58781744149E+02  0.17095697846E+02  0.62524509574E+02  0.00000000000E+00 0. -1.
         11    1    3    3    0    0 -0.78916017733E+02 -0.37330303212E+02  0.32933205638E+02  0.93305334394E+02  0.00000000000E+00 0.  1.
<mgrwt>
<rscale>  0 0.16482198E+03</rscale>
<asrwt>0</asrwt>
<pdfrwt beam="1">  1        1 0.35703800E-01 0.17100561E+03</pdfrwt>
<pdfrwt beam="2">  1       -1 0.16847542E-01 0.17100561E+03</pdfrwt>
<totfact> 0.31622098E+03</totfact>
</mgrwt>
</event>
<event>
 7    1  0.2207944E-005  0.2062855E+03  0.7546771E-02  0.1148292E+00
          2   -1    0    0  501    0  0.00000000000E+00  0.00000000000E+00  0.45197081855E+03  0.45197081855E+03  0.00000000000E+00 0.  1.
         -2   -1    0    0    0  501 -0.00000000000E+00 -0.00000000000E+00 -0.94430842570E+02  0.94430842570E+02  0.00000000000E+00 0. -1.
         23    2    1    2    0    0  0.54246326253E+02 -0.15487440932E+03  0.25171752237E+03  0.31455665832E+03  0.93034583073E+02 0.  0.
          5    1    1    2  502    0  0.14113036980E+02  0.91155335156E+02  0.24217452944E+01  0.92392790793E+02  0.47000000000E+01 0.  1.
         -5    1    1    2    0  502 -0.68359363233E+02  0.63719074169E+02  0.10340070831E+03  0.13945221201E+03  0.47000000000E+01 0.  1.
        -11    1    3    3    0    0  0.73476024819E+01 -0.82862993520E+02  0.54559707104E+02  0.99483790622E+02  0.00000000000E+00 0.  1.
         11    1    3    3    0    0  0.46898723772E+02 -0.72011415805E+02  0.19715781527E+03  0.21507286770E+03  0.00000000000E+00 0. -1.
<mgrwt>
<rscale>  0 0.20172451E+03</rscale>
<asrwt>0</asrwt>
<pdfrwt beam="1">  1        2 0.69533971E-01 0.20628551E+03</pdfrwt>
<pdfrwt beam="2">  1       -2 0.14527822E-01 0.20628551E+03</pdfrwt>
<totfact> 0.24917165E+03</totfact>
</mgrwt>
</event>
<event>
 7    1  0.1446636E-005  0.1467913E+03  0.7546771E-02  0.1214755E+00
         -4   -1    0    0    0  501 -0.00000000000E+00  0.00000000000E+00  0.27137480547E+03  0.27137480547E+03  0.00000000000E+00 0. -1.
          4   -1    0    0  501    0  0.00000000000E+00 -0.00000000000E+00 -0.64646295995E+02  0.64646295995E+02  0.00000000000E+00 0.  1.
         23    2    1    2    0    0 -0.34047124816E+02  0.68966175631E+02  0.84472903915E+02  0.14498678354E+03  0.89274609030E+02 0.  0.
          5    1    1    2  502    0 -0.19443117464E+02 -0.87546591707E+02  0.70389809878E+02  0.11410195384E+03  0.47000000000E+01 0. -1.
         -5    1    1    2    0  502  0.53490242280E+02  0.18580416077E+02  0.51865795685E+02  0.76932364079E+02  0.47000000000E+01 0. -1.
        -11    1    3    3    0    0 -0.50722783091E+02  0.69249152153E+02  0.34862411028E+02  0.92647900684E+02  0.00000000000E+00 0.  1.
         11    1    3    3    0    0  0.16675658276E+02 -0.28297652214E+00  0.49610492886E+02  0.52338882860E+02  0.00000000000E+00 0. -1.
<mgrwt>
<rscale>  0 0.13894578E+03</rscale>
<asrwt>0</asrwt>
<pdfrwt beam="2">  1        4 0.99455841E-02 0.14679127E+03</pdfrwt>
<pdfrwt beam="1">  1       -4 0.41749969E-01 0.14679127E+03</pdfrwt>
<totfact> 0.71921771E+02</totfact>
</mgrwt>
</event>
<event>
 7    1  0.1446636E-005  0.1399859E+03  0.7546771E-02  0.1227911E+00
         -1   -1    0    0    0  501 -0.00000000000E+00  0.00000000000E+00  0.11137004874E+03  0.11137004874E+03  0.00000000000E+00 0.  1.
          1   -1    0    0  501    0  0.00000000000E+00 -0.00000000000E+00 -0.14032000760E+03  0.14032000760E+03  0.00000000000E+00 0. -1.
         23    2    1    2    0    0  0.63008414206E+02 -0.17925469513E+00 -0.41429821614E+02  0.11114893508E+03  0.81655148381E+02 0.  0.
          5    1    1    2  502    0 -0.39628801038E+01  0.15387225820E+02  0.60537333456E+02  0.62764081122E+02  0.47000000000E+01 0. -1.
         -5    1    1    2    0  502 -0.59045534102E+02 -0.15207971125E+02 -0.48057470694E+02  0.77777040138E+02  0.47000000000E+01 0. -1.
        -11    1    3    3    0    0  0.33971292110E+02  0.23009721394E+02 -0.57520298022E+02  0.70654657672E+02  0.00000000000E+00 0. -1.
         11    1    3    3    0    0  0.29037122096E+02 -0.23188976089E+02  0.16090476408E+02  0.40494277407E+02  0.00000000000E+00 0.  1.
<mgrwt>
<rscale>  0 0.12969374E+03</rscale>
<asrwt>0</asrwt>
<pdfrwt beam="2">  1        1 0.21587693E-01 0.13998593E+03</pdfrwt>
<pdfrwt beam="1">  1       -1 0.17133854E-01 0.13998593E+03</pdfrwt>
<totfact> 0.57247253E+03</totfact>
</mgrwt>
</event>
<event>
 7    1  0.1446636E-005  0.1267244E+03  0.7546771E-02  0.1247624E+00
         -2   -1    0    0    0  501 -0.00000000000E+00  0.00000000000E+00  0.18574248279E+02  0.18574248279E+02  0.00000000000E+00 0.  1.
          2   -1    0    0  501    0  0.00000000000E+00 -0.00000000000E+00 -0.65710220614E+03  0.65710220614E+03  0.00000000000E+00 0. -1.
         23    2    1    2    0    0 -0.20813110933E+02  0.91706635142E+00 -0.30574085509E+03  0.31957770639E+03  0.90655465106E+02 0.  0.
          5    1    1    2  502    0  0.51600229827E+02  0.44103225568E+02 -0.13950846346E+03  0.15521720137E+03  0.47000000000E+01 0.  1.
         -5    1    1    2    0  502 -0.30787118895E+02 -0.45020291919E+02 -0.19327863931E+03  0.20088154666E+03  0.47000000000E+01 0.  1.
        -11    1    3    3    0    0 -0.65239346894E+01  0.44837878726E+02 -0.12266987149E+03  0.13077038833E+03  0.00000000000E+00 0. -1.
         11    1    3    3    0    0 -0.14289176243E+02 -0.43920812374E+02 -0.18307098360E+03  0.18880731806E+03  0.00000000000E+00 0.  1.
<mgrwt>
<rscale>  0 0.11729713E+03</rscale>
<asrwt>0</asrwt>
<pdfrwt beam="2">  1        2 0.10109263E+00 0.12672436E+03</pdfrwt>
<pdfrwt beam="1">  1       -2 0.28575770E-02 0.12672436E+03</pdfrwt>
<totfact> 0.19393496E+04</totfact>
</mgrwt>
</event>
<event>
 7    1  0.1446636E-005  0.1353545E+03  0.7546771E-02  0.1231850E+00
         -4   -1    0    0    0  501 -0.00000000000E+00  0.00000000000E+00  0.36735531525E+03  0.36735531525E+03  0.00000000000E+00 0.  1.
          4   -1    0    0  501    0  0.00000000000E+00 -0.00000000000E+00 -0.42762380642E+02  0.42762380642E+02  0.00000000000E+00 0. -1.
         23    2    1    2    0    0  0.15428554789E+02 -0.49588782738E+02  0.86241347711E+02  0.13601496134E+03  0.91462626117E+02 0.  0.
          5    1    1    2  502    0 -0.70322416398E+02  0.24437836965E+02  0.13882015458E+03  0.15759306914E+03  0.47000000000E+01 0.  1.
         -5    1    1    2    0  502  0.54893861609E+02  0.25150945773E+02  0.99531432309E+02  0.11650966541E+03  0.47000000000E+01 0.  1.
        -11    1    3    3    0    0 -0.19368673259E+02  0.10163113055E+02  0.56793017980E+02  0.60859520718E+02  0.00000000000E+00 0.  1.
         11    1    3    3    0    0  0.34797228049E+02 -0.59751895793E+02  0.29448329731E+02  0.75155440619E+02  0.00000000000E+00 0. -1.
<mgrwt>
<rscale>  0 0.12708260E+03</rscale>
<asrwt>0</asrwt>
<pdfrwt beam="2">  1        4 0.65788280E-02 0.13535446E+03</pdfrwt>
<pdfrwt beam="1">  1       -4 0.56516200E-01 0.13535446E+03</pdfrwt>
<totfact> 0.76002467E+02</totfact>
</mgrwt>
</event>
<event>
 7    1  0.1530614E-005  0.2835647E+03  0.7546771E-02  0.1095541E+00
         -2   -1    0    0    0  501 -0.00000000000E+00  0.00000000000E+00  0.37932617486E+03  0.37932617486E+03  0.00000000000E+00 0.  1.
          2   -1    0    0  501    0  0.00000000000E+00 -0.00000000000E+00 -0.22024908921E+03  0.22024908921E+03  0.00000000000E+00 0. -1.
         23    2    1    2    0    0  0.52473047770E+01 -0.25447328348E+03 -0.74625663443E+01  0.27072210170E+03  0.91927037596E+02 0.  0.
          5    1    1    2  502    0  0.29806110110E+02  0.16621706233E+03  0.45534556312E+02  0.17496285843E+03  0.47000000000E+01 0.  1.
         -5    1    1    2    0  502 -0.35053414887E+02  0.88256221142E+02  0.12100509569E+03  0.15389030394E+03  0.47000000000E+01 0.  1.
        -11    1    3    3    0    0  0.35882895464E+02 -0.58754029797E+02  0.17550726955E+02  0.71046788956E+02  0.00000000000E+00 0.  1.
         11    1    3    3    0    0 -0.30635590687E+02 -0.19571925368E+03 -0.25013293299E+02  0.19967531274E+03  0.00000000000E+00 0. -1.
<mgrwt>
<rscale>  0 0.28027141E+03</rscale>
<asrwt>0</asrwt>
<pdfrwt beam="2">  1        2 0.33884475E-01 0.28356471E+03</pdfrwt>
<pdfrwt beam="1">  1       -2 0.58357873E-01 0.28356471E+03</pdfrwt>
<totfact> 0.43119348E+02</totfact>
</mgrwt>
</event>
<event>
 7    1  0.1446636E-005  0.1783037E+03  0.7546771E-02  0.1175074E+00
          1   -1    0    0  501    0  0.00000000000E+00  0.00000000000E+00  0.25840567123E+03  0.25840567123E+03  0.00000000000E+00 0. -1.
         -1   -1    0    0    0  501 -0.00000000000E+00 -0.00000000000E+00 -0.10869206073E+03  0.10869206073E+03  0.00000000000E+00 0.  1.
         23    2    1    2    0    0 -0.12542498949E+03 -0.20854163718E+02  0.69798904858E+02  0.17170439063E+03  0.91892254902E+02 0.  0.
          5    1    1    2  502    0  0.31312168147E+02  0.29592947953E+02  0.90328696271E+02  0.10018761307E+03  0.47000000000E+01 0.  1.
         -5    1    1    2    0  502  0.94112821341E+02 -0.87387842353E+01 -0.10413990627E+02  0.95205728249E+02  0.47000000000E+01 0.  1.
        -11    1    3    3    0    0 -0.62151009687E+02 -0.52040343532E+02  0.15136924156E+02  0.82462548063E+02  0.00000000000E+00 0.  1.
         11    1    3    3    0    0 -0.63273979801E+02  0.31186179814E+02  0.54661980702E+02  0.89241842571E+02  0.00000000000E+00 0. -1.
<mgrwt>
<rscale>  0 0.17268725E+03</rscale>
<asrwt>0</asrwt>
<pdfrwt beam="1">  1        1 0.39754719E-01 0.17830367E+03</pdfrwt>
<pdfrwt beam="2">  1       -1 0.16721856E-01 0.17830367E+03</pdfrwt>
<totfact> 0.28036275E+03</totfact>
</mgrwt>
</event>
<event>
 7    1  0.1446636E-005  0.1913860E+03  0.7546771E-02  0.1159483E+00
         -1   -1    0    0    0  501 -0.00000000000E+00  0.00000000000E+00  0.22103044846E+02  0.22103044846E+02  0.00000000000E+00 0.  1.
          1   -1    0    0  501    0  0.00000000000E+00 -0.00000000000E+00 -0.16095051739E+04  0.16095051739E+04  0.00000000000E+00 0. -1.
         23    2    1    2    0    0  0.14966434367E+03 -0.44863937220E+02 -0.89617771033E+03  0.91437757229E+03  0.92410321946E+02 0.  0.
          5    1    1    2  502    0 -0.16720275294E+03  0.43114749818E+02 -0.61018408841E+03  0.63416271886E+03  0.47000000000E+01 0. -1.
         -5    1    1    2    0  502  0.17538409269E+02  0.17491874022E+01 -0.81040330280E+02  0.83067927554E+02  0.47000000000E+01 0.  1.
        -11    1    3    3    0    0  0.45386433994E+02 -0.60511467066E+02 -0.40607966950E+03  0.41306447925E+03  0.00000000000E+00 0.  1.
         11    1    3    3    0    0  0.10427790968E+03  0.15647529846E+02 -0.49009804083E+03  0.50131309305E+03  0.00000000000E+00 0. -1.
<mgrwt>
<rscale>  0 0.18887202E+03</rscale>
<asrwt>0</asrwt>
<pdfrwt beam="2">  1        1 0.24761617E+00 0.19138601E+03</pdfrwt>
<pdfrwt beam="1">  1       -1 0.34004685E-02 0.19138601E+03</pdfrwt>
<totfact> 0.18998847E+03</totfact>
</mgrwt>
</event>
<event>
 7    1  0.1446636E-005  0.1470442E+03  0.7546771E-02  0.1213922E+00
         -1   -1    0    0    0  501 -0.00000000000E+00  0.00000000000E+00  0.12582035768E+03  0.12582035768E+03  0.00000000000E+00 0. -1.
          1   -1    0    0  501    0  0.00000000000E+00 -0.00000000000E+00 -0.14109922520E+03  0.14109922520E+03  0.00000000000E+00 0.  1.
         23    2    1    2    0    0 -0.36990185044E+02  0.68037761642E+02 -0.28666986787E+01  0.11935244424E+03  0.90771015120E+02 0.  0.
          5    1    1    2  502    0  0.40384638275E+02 -0.88723863619E+02 -0.45844844660E+02  0.10782709662E+03  0.47000000000E+01 0.  1.
         -5    1    1    2    0  502 -0.33944532313E+01  0.20686101977E+02  0.33432675810E+02  0.39740042017E+02  0.47000000000E+01 0.  1.
        -11    1    3    3    0    0 -0.10428141006E+02  0.17798802209E+02 -0.44403995051E+02  0.48961804107E+02  0.00000000000E+00 0.  1.
         11    1    3    3    0    0 -0.26562044038E+02  0.50238959433E+02  0.41537296373E+02  0.70390640133E+02  0.00000000000E+00 0. -1.
<mgrwt>
<rscale>  0 0.13956048E+03</rscale>
<asrwt>0</asrwt>
<pdfrwt beam="2">  1        1 0.21707573E-01 0.14704421E+03</pdfrwt>
<pdfrwt beam="1">  1       -1 0.19356978E-01 0.14704421E+03</pdfrwt>
<totfact> 0.46941591E+03</totfact>
</mgrwt>
</event>
<event>
 7    1  0.1446636E-005  0.1611621E+03  0.7546771E-02  0.1195123E+00
          1   -1    0    0  501    0  0.00000000000E+00  0.00000000000E+00  0.66238108444E+03  0.66238108444E+03  0.00000000000E+00 0. -1.
         -1   -1    0    0    0  501 -0.00000000000E+00 -0.00000000000E+00 -0.53126589117E+02  0.53126589117E+02  0.00000000000E+00 0.  1.
         23    2    1    2    0    0  0.10154734009E+03 -0.58720065964E+01  0.50640444122E+03  0.52432358255E+03  0.90130008276E+02 0.  0.
          5    1    1    2  502    0 -0.83965034362E+02  0.28616777515E+02  0.12586765488E+03  0.15405779271E+03  0.47000000000E+01 0. -1.
         -5    1    1    2    0  502 -0.17582305730E+02 -0.22744770918E+02 -0.23017600780E+02  0.37126298288E+02  0.47000000000E+01 0. -1.
        -11    1    3    3    0    0  0.10723987303E+03 -0.21276111470E+02  0.48592723003E+03  0.49807462912E+03  0.00000000000E+00 0.  1.
         11    1    3    3    0    0 -0.56925329405E+01  0.15404104874E+02  0.20477211192E+02  0.26248953435E+02  0.00000000000E+00 0. -1.
<mgrwt>
<rscale>  0 0.15443824E+03</rscale>
<asrwt>0</asrwt>
<pdfrwt beam="1">  1        1 0.10190478E+00 0.16116210E+03</pdfrwt>
<pdfrwt beam="2">  1       -1 0.81733218E-02 0.16116210E+03</pdfrwt>
<totfact> 0.25099601E+03</totfact>
</mgrwt>
</event>
<event>
 7    1  0.1446636E-005  0.1324734E+03  0.7546771E-02  0.1236830E+00
          2   -1    0    0  501    0  0.00000000000E+00  0.00000000000E+00  0.29840231860E+03  0.29840231860E+03  0.00000000000E+00 0. -1.
         -2   -1    0    0    0  501 -0.00000000000E+00 -0.00000000000E+00 -0.51724912684E+02  0.51724912684E+02  0.00000000000E+00 0.  1.
         23    2    1    2    0    0 -0.36886007906E+01 -0.43704306817E+02  0.16762863100E+03  0.19586153779E+03  0.91316547495E+02 0.  0.
          5    1    1    2  502    0  0.13736299990E+02  0.51423283030E+02  0.10900794165E+03  0.12139959356E+03  0.47000000000E+01 0.  1.
         -5    1    1    2    0  502 -0.10047699200E+02 -0.77189762128E+01 -0.29959166732E+02  0.32866099925E+02  0.47000000000E+01 0.  1.
        -11    1    3    3    0    0 -0.45207813557E+02 -0.14827593745E+02  0.10564151195E+03  0.11586083458E+03  0.00000000000E+00 0. -1.
         11    1    3    3    0    0  0.41519212766E+02 -0.28876713072E+02  0.61987119051E+02  0.80000703214E+02  0.00000000000E+00 0.  1.
<mgrwt>
<rscale>  0 0.12388037E+03</rscale>
<asrwt>0</asrwt>
<pdfrwt beam="1">  1        2 0.45908048E-01 0.13247338E+03</pdfrwt>
<pdfrwt beam="2">  1       -2 0.79576791E-02 0.13247338E+03</pdfrwt>
<totfact> 0.99047206E+03</totfact>
</mgrwt>
</event>
<event>
 7    1  0.1446636E-005  0.1666732E+03  0.7546771E-02  0.1188197E+00
         -2   -1    0    0    0  501 -0.00000000000E+00  0.00000000000E+00  0.59257955467E+02  0.59257955467E+02  0.00000000000E+00 0.  1.
          2   -1    0    0  501    0  0.00000000000E+00 -0.00000000000E+00 -0.47970795052E+03  0.47970795052E+03  0.00000000000E+00 0. -1.
         23    2    1    2    0    0  0.94630159346E+02 -0.56550393445E+02 -0.30290394522E+03  0.33501244103E+03  0.91267308260E+02 0.  0.
          5    1    1    2  502    0 -0.11288461046E+03  0.47519689386E+02 -0.13076092941E+03  0.17922490569E+03  0.47000000000E+01 0. -1.
         -5    1    1    2    0  502  0.18254451113E+02  0.90307040592E+01  0.13214879580E+02  0.24728559270E+02  0.47000000000E+01 0. -1.
        -11    1    3    3    0    0  0.70919756336E+00 -0.28706598424E+02 -0.18373255192E+02  0.34090295696E+02  0.00000000000E+00 0.  1.
         11    1    3    3    0    0  0.93920961783E+02 -0.27843795020E+02 -0.28453069003E+03  0.30092214533E+03  0.00000000000E+00 0. -1.
<mgrwt>
<rscale>  0 0.16044353E+03</rscale>
<asrwt>0</asrwt>
<pdfrwt beam="2">  1        2 0.73801223E-01 0.16667316E+03</pdfrwt>
<pdfrwt beam="1">  1       -2 0.91166085E-02 0.16667316E+03</pdfrwt>
<totfact> 0.48870537E+03</totfact>
</mgrwt>
</event>
<event>
 7    1  0.1446636E-005  0.1542607E+03  0.7546771E-02  0.1203255E+00
         -2   -1    0    0    0  501 -0.00000000000E+00  0.00000000000E+00  0.50901026174E+02  0.50901026174E+02  0.00000000000E+00 0. -1.
          2   -1    0    0  501    0  0.00000000000E+00 -0.00000000000E+00 -0.41833759416E+03  0.41833759416E+03  0.00000000000E+00 0.  1.
         23    2    1    2    0    0 -0.21251828653E+02  0.87853061093E+02 -0.22223442495E+03  0.25738952380E+03  0.93227821815E+02 0.  0.
          5    1    1    2  502    0  0.70289896801E+02 -0.67710569046E+02 -0.11404138638E+03  0.15017629160E+03  0.47000000000E+01 0.  1.
         -5    1    1    2    0  502 -0.49038068148E+02 -0.20142492047E+02 -0.31160756657E+02  0.61672804939E+02  0.47000000000E+01 0.  1.
        -11    1    3    3    0    0 -0.43153966405E+02  0.59192655122E+02 -0.20444105517E+03  0.21716855269E+03  0.00000000000E+00 0.  1.
         11    1    3    3    0    0  0.21902137752E+02  0.28660405971E+02 -0.17793369781E+02  0.40220971106E+02  0.00000000000E+00 0. -1.
<mgrwt>
<rscale>  0 0.14775858E+03</rscale>
<asrwt>0</asrwt>
<pdfrwt beam="2">  1        2 0.64359630E-01 0.15426074E+03</pdfrwt>
<pdfrwt beam="1">  1       -2 0.78309271E-02 0.15426074E+03</pdfrwt>
<totfact> 0.71566829E+03</totfact>
</mgrwt>
</event>
<event>
 7    1  0.1446636E-005  0.2231420E+03  0.7546771E-02  0.1134567E+00
         -1   -1    0    0    0  501 -0.00000000000E+00  0.00000000000E+00  0.49615525383E+02  0.49615525383E+02  0.00000000000E+00 0.  1.
          1   -1    0    0  501    0  0.00000000000E+00 -0.00000000000E+00 -0.10712335788E+04  0.10712335788E+04  0.00000000000E+00 0. -1.
         23    2    1    2    0    0  0.76306361648E+02 -0.16833512577E+03 -0.69509485860E+03  0.72536240484E+03  0.93991385320E+02 0.  0.
          5    1    1    2  502    0  0.11399548228E+02 -0.15218120935E+02 -0.25943584829E+02  0.32506930006E+02  0.47000000000E+01 0.  1.
         -5    1    1    2    0  502 -0.87705909876E+02  0.18355324670E+03 -0.30057960996E+03  0.36297976931E+03  0.47000000000E+01 0.  1.
        -11    1    3    3    0    0 -0.15520295724E+02 -0.65174919612E+02 -0.27961500019E+03  0.28752947337E+03  0.00000000000E+00 0. -1.
         11    1    3    3    0    0  0.91826657372E+02 -0.10316020615E+03 -0.41547985842E+03  0.43783293148E+03  0.00000000000E+00 0.  1.
<mgrwt>
<rscale>  0 0.21908447E+03</rscale>
<asrwt>0</asrwt>
<pdfrwt beam="2">  1        1 0.16480516E+00 0.22314196E+03</pdfrwt>
<pdfrwt beam="1">  1       -1 0.76331581E-02 0.22314196E+03</pdfrwt>
<totfact> 0.13118978E+03</totfact>
</mgrwt>
</event>
<event>
 7    1  0.1446636E-005  0.1477521E+03  0.7546771E-02  0.1222645E+00
         -1   -1    0    0    0  501 -0.00000000000E+00  0.00000000000E+00  0.24143875011E+02  0.24143875011E+02  0.00000000000E+00 0.  1.
          1   -1    0    0  501    0  0.00000000000E+00 -0.00000000000E+00 -0.62495177752E+03  0.62495177752E+03  0.00000000000E+00 0. -1.
         23    2    1    2    0    0 -0.67804721510E+02  0.40113360794E+02 -0.24557465788E+03  0.26436022913E+03  0.58076296183E+02 0.  0.
          5    1    1    2  502    0  0.80507589549E+02  0.62301793011E+01 -0.30297890648E+03  0.31358985136E+03  0.47000000000E+01 0. -1.
         -5    1    1    2    0  502 -0.12702868038E+02 -0.46343540095E+02 -0.52254338149E+02  0.71145572036E+02  0.47000000000E+01 0. -1.
        -11    1    3    3    0    0 -0.55846960671E+02  0.54922160323E+02 -0.18603948076E+03  0.20185642202E+03  0.00000000000E+00 0.  1.
         11    1    3    3    0    0 -0.11957760839E+02 -0.14808799529E+02 -0.59535177122E+02  0.62503807106E+02  0.00000000000E+00 0. -1.
<mgrwt>
<rscale>  0 0.13329617E+03</rscale>
<asrwt>0</asrwt>
<pdfrwt beam="2">  1        1 0.96146428E-01 0.14775212E+03</pdfrwt>
<pdfrwt beam="1">  1       -1 0.37144423E-02 0.14775212E+03</pdfrwt>
<totfact> 0.87851837E+03</totfact>
</mgrwt>
</event>
<event>
 7    1  0.1446636E-005  0.1315592E+03  0.7546771E-02  0.1237757E+00
          2   -1    0    0  501    0  0.00000000000E+00  0.00000000000E+00  0.58736455534E+02  0.58736455534E+02  0.00000000000E+00 0.  1.
         -2   -1    0    0    0  501 -0.00000000000E+00 -0.00000000000E+00 -0.29313515684E+03  0.29313515684E+03  0.00000000000E+00 0. -1.
         23    2    1    2    0    0 -0.23766651439E+02 -0.33429375219E+02 -0.24917906193E+02  0.10450542787E+03  0.92833752252E+02 0.  0.
          5    1    1    2  502    0  0.62173717620E+02  0.53792609341E+02 -0.16799438972E+03  0.18709201202E+03  0.47000000000E+01 0.  1.
         -5    1    1    2    0  502 -0.38407066181E+02 -0.20363234122E+02 -0.41486405390E+02  0.60274172485E+02  0.47000000000E+01 0.  1.
        -11    1    3    3    0    0 -0.79488445278E+00  0.22660245256E+02 -0.36333779906E+02  0.42828286431E+02  0.00000000000E+00 0. -1.
         11    1    3    3    0    0 -0.22971766986E+02 -0.56089620475E+02  0.11415873713E+02  0.61677141440E+02  0.00000000000E+00 0.  1.
<mgrwt>
<rscale>  0 0.12329576E+03</rscale>
<asrwt>0</asrwt>
<pdfrwt beam="1">  1        2 0.90363779E-02 0.13155921E+03</pdfrwt>
<pdfrwt beam="2">  1       -2 0.45097716E-01 0.13155921E+03</pdfrwt>
<totfact> 0.32822652E+03</totfact>
</mgrwt>
</event>
<event>
 7    1  0.1446636E-005  0.1835437E+03  0.7546771E-02  0.1167339E+00
          2   -1    0    0  501    0  0.00000000000E+00  0.00000000000E+00  0.26655300640E+03  0.26655300640E+03  0.00000000000E+00 0. -1.
         -2   -1    0    0    0  501 -0.00000000000E+00 -0.00000000000E+00 -0.12025776413E+03  0.12025776413E+03  0.00000000000E+00 0.  1.
         23    2    1    2    0    0  0.78634709223E+02  0.10899020532E+03  0.95443797216E+02  0.19635303962E+03  0.10668980921E+03 0.  0.
          5    1    1    2  502    0 -0.11142331058E+03 -0.69386771732E+02  0.29690737738E+02  0.13465997230E+03  0.47000000000E+01 0. -1.
         -5    1    1    2    0  502  0.32788601362E+02 -0.39603433587E+02  0.21160707323E+02  0.55797758607E+02  0.47000000000E+01 0. -1.
        -11    1    3    3    0    0  0.16565620520E+02  0.49972832136E+02  0.97360665724E+02  0.11068334547E+03  0.00000000000E+00 0. -1.
         11    1    3    3    0    0  0.62069088703E+02  0.59017373184E+02 -0.19168685086E+01  0.85669694145E+02  0.00000000000E+00 0.  1.
<mgrwt>
<rscale>  0 0.18048079E+03</rscale>
<asrwt>0</asrwt>
<pdfrwt beam="1">  1        2 0.41008155E-01 0.18354367E+03</pdfrwt>
<pdfrwt beam="2">  1       -2 0.18501195E-01 0.18354367E+03</pdfrwt>
<totfact> 0.29320137E+03</totfact>
</mgrwt>
</event>
<event>
 7    1  0.1446636E-005  0.1332651E+03  0.7546771E-02  0.1235007E+00
         -1   -1    0    0    0  501 -0.00000000000E+00  0.00000000000E+00  0.38770358995E+03  0.38770358995E+03  0.00000000000E+00 0.  1.
          1   -1    0    0  501    0  0.00000000000E+00 -0.00000000000E+00 -0.40479205182E+02  0.40479205182E+02  0.00000000000E+00 0. -1.
         23    2    1    2    0    0 -0.34384144921E+02 -0.30847853048E+02  0.83949540182E+02  0.13310106740E+03  0.92382408432E+02 0.  0.
          5    1    1    2  502    0  0.22030864826E-01 -0.27042180618E+02  0.20222972612E+03  0.20408388507E+03  0.47000000000E+01 0. -1.
         -5    1    1    2    0  502  0.34362114056E+02  0.57890033666E+02  0.61045118466E+02  0.90997842660E+02  0.47000000000E+01 0. -1.
        -11    1    3    3    0    0 -0.23791009058E+02 -0.19289117979E-01  0.95575550720E+02  0.98492123439E+02  0.00000000000E+00 0.  1.
         11    1    3    3    0    0 -0.10593135863E+02 -0.30828563930E+02 -0.11626010538E+02  0.34608943965E+02  0.00000000000E+00 0. -1.
<mgrwt>
<rscale>  0 0.12504016E+03</rscale>
<asrwt>0</asrwt>
<pdfrwt beam="2">  1        1 0.62275703E-02 0.13326508E+03</pdfrwt>
<pdfrwt beam="1">  1       -1 0.59646704E-01 0.13326508E+03</pdfrwt>
<totfact> 0.34640332E+03</totfact>
</mgrwt>
</event>
<event>
 7    1  0.1446636E-005  0.1557603E+03  0.7546771E-02  0.1201679E+00
         -3   -1    0    0    0  501 -0.00000000000E+00  0.00000000000E+00  0.36928680414E+03  0.36928680414E+03  0.00000000000E+00 0.  1.
          3   -1    0    0  501    0  0.00000000000E+00 -0.00000000000E+00 -0.68338785728E+02  0.68338785728E+02  0.00000000000E+00 0. -1.
         23    2    1    2    0    0  0.84823920005E+02  0.37884169954E+02  0.45079331449E+02  0.13807584869E+03  0.91665075847E+02 0.  0.
          5    1    1    2  502    0 -0.68241993980E+02 -0.45853829832E+02  0.57889318923E+02  0.10066184331E+03  0.47000000000E+01 0.  1.
         -5    1    1    2    0  502 -0.16581926025E+02  0.79696598786E+01  0.19797936804E+03  0.19888789787E+03  0.47000000000E+01 0.  1.
        -11    1    3    3    0    0  0.36608353172E+02  0.46920349069E+02 -0.14148838252E+02  0.61170910591E+02  0.00000000000E+00 0. -1.
         11    1    3    3    0    0  0.48215566834E+02 -0.90361791153E+01  0.59228169701E+02  0.76904938101E+02  0.00000000000E+00 0.  1.
<mgrwt>
<rscale>  0 0.14902299E+03</rscale>
<asrwt>0</asrwt>
<pdfrwt beam="2">  1        3 0.10513660E-01 0.15576027E+03</pdfrwt>
<pdfrwt beam="1">  1       -3 0.56813353E-01 0.15576027E+03</pdfrwt>
<totfact> 0.49440355E+02</totfact>
</mgrwt>
</event>
<event>
 7    1  0.1446636E-005  0.2198650E+03  0.7546771E-02  0.1133984E+00
          1   -1    0    0  501    0  0.00000000000E+00  0.00000000000E+00  0.46988245899E+02  0.46988245899E+02  0.00000000000E+00 0. -1.
         -1   -1    0    0    0  501 -0.00000000000E+00 -0.00000000000E+00 -0.25719515371E+03  0.25719515371E+03  0.00000000000E+00 0.  1.
         23    2    1    2    0    0 -0.35814383897E+01  0.17928580002E+02 -0.92271921086E+02  0.13136074343E+03  0.91691203571E+02 0.  0.
          5    1    1    2  502    0  0.92823395072E+01 -0.70759409582E+02 -0.54373335039E+02  0.89842113925E+02  0.47000000000E+01 0. -1.
         -5    1    1    2    0  502 -0.57009011175E+01  0.52830829580E+02 -0.63561651688E+02  0.82980542255E+02  0.47000000000E+01 0. -1.
        -11    1    3    3    0    0  0.35747217540E+02 -0.10747659301E+02 -0.66562867739E+02  0.76315077828E+02  0.00000000000E+00 0.  1.
         11    1    3    3    0    0 -0.39328655930E+02  0.28676239303E+02 -0.25709053347E+02  0.55045665604E+02  0.00000000000E+00 0. -1.
<mgrwt>
<rscale>  0 0.21986495E+03</rscale>
<asrwt>0</asrwt>
<pdfrwt beam="1">  1        1 0.72289609E-02 0.21986495E+03</pdfrwt>
<pdfrwt beam="2">  1       -1 0.39568485E-01 0.21986495E+03</pdfrwt>
<totfact> 0.61708904E+03</totfact>
</mgrwt>
</event>
<event>
 7    1  0.1446636E-005  0.2137848E+03  0.7546771E-02  0.1141636E+00
         -2   -1    0    0    0  501 -0.00000000000E+00  0.00000000000E+00  0.11325777686E+04  0.11325777686E+04  0.00000000000E+00 0.  1.
          2   -1    0    0  501    0  0.00000000000E+00 -0.00000000000E+00 -0.37904316380E+02  0.37904316380E+02  0.00000000000E+00 0. -1.
         23    2    1    2    0    0 -0.16691068181E+03  0.51106818513E+02  0.47159237989E+03  0.51174545831E+03  0.94936603703E+02 0.  0.
          5    1    1    2  502    0  0.14526276029E+02  0.12865452804E+02  0.74815140832E+01  0.21321248183E+02  0.47000000000E+01 0. -1.
         -5    1    1    2    0  502  0.15238440579E+03 -0.63972271317E+02  0.61559955822E+03  0.63741537846E+03  0.47000000000E+01 0. -1.
        -11    1    3    3    0    0 -0.12082653795E+03  0.78927852056E+02  0.32588403561E+03  0.35641136734E+03  0.00000000000E+00 0.  1.
         11    1    3    3    0    0 -0.46084143860E+02 -0.27821033543E+02  0.14570834429E+03  0.15533409097E+03  0.00000000000E+00 0. -1.
<mgrwt>
<rscale>  0 0.20991102E+03</rscale>
<asrwt>0</asrwt>
<pdfrwt beam="2">  1        2 0.58314341E-02 0.21378475E+03</pdfrwt>
<pdfrwt beam="1">  1       -2 0.17424271E+00 0.21378475E+03</pdfrwt>
<totfact> 0.27211960E+02</totfact>
</mgrwt>
</event>
<event>
 7    1  0.1446636E-005  0.1460122E+03  0.7546771E-02  0.1215975E+00
         -2   -1    0    0    0  501 -0.00000000000E+00  0.00000000000E+00  0.34665533555E+02  0.34665533555E+02  0.00000000000E+00 0.  1.
          2   -1    0    0  501    0  0.00000000000E+00 -0.00000000000E+00 -0.50523629416E+03  0.50523629416E+03  0.00000000000E+00 0. -1.
         23    2    1    2    0    0  0.12750381803E+02  0.74377012808E+02 -0.24224953758E+03  0.26888496726E+03  0.88993117103E+02 0.  0.
          5    1    1    2  502    0  0.56517811771E+01  0.31364654372E+02 -0.23998146461E+02  0.40170700864E+02  0.47000000000E+01 0. -1.
         -5    1    1    2    0  502 -0.18402162980E+02 -0.10574166718E+03 -0.20432307657E+03  0.23084615959E+03  0.47000000000E+01 0. -1.
        -11    1    3    3    0    0 -0.36784792212E+02  0.36943047419E+02 -0.13835666760E+03  0.14785289027E+03  0.00000000000E+00 0.  1.
         11    1    3    3    0    0  0.49535174015E+02  0.37433965388E+02 -0.10389286998E+03  0.12103207700E+03  0.00000000000E+00 0. -1.
<mgrwt>
<rscale>  0 0.13805152E+03</rscale>
<asrwt>0</asrwt>
<pdfrwt beam="2">  1        2 0.77728656E-01 0.14601218E+03</pdfrwt>
<pdfrwt beam="1">  1       -2 0.53331593E-02 0.14601218E+03</pdfrwt>
<totfact> 0.10439016E+04</totfact>
</mgrwt>
</event>
<event>
 7    1  0.1446636E-005  0.1543905E+03  0.7546771E-02  0.1203301E+00
          2   -1    0    0  501    0  0.00000000000E+00  0.00000000000E+00  0.50627330129E+02  0.50627330129E+02  0.00000000000E+00 0. -1.
         -2   -1    0    0    0  501 -0.00000000000E+00 -0.00000000000E+00 -0.40342961078E+03  0.40342961078E+03  0.00000000000E+00 0.  1.
         23    2    1    2    0    0  0.25387700596E+01  0.90566916735E+02 -0.13408618607E+03  0.18633852059E+03  0.92380339899E+02 0.  0.
          5    1    1    2  502    0  0.29073310400E+02 -0.21516617969E+02 -0.34918323649E+00  0.36475116934E+02  0.47000000000E+01 0. -1.
         -5    1    1    2    0  502 -0.31612080460E+02 -0.69050298766E+02 -0.21836691135E+03  0.23124330339E+03  0.47000000000E+01 0. -1.
        -11    1    3    3    0    0 -0.28089011757E+02  0.15654856716E+01 -0.60987250604E+02  0.67163145125E+02  0.00000000000E+00 0.  1.
         11    1    3    3    0    0  0.30627781817E+02  0.89001431064E+02 -0.73098935465E+02  0.11917537546E+03  0.00000000000E+00 0. -1.
<mgrwt>
<rscale>  0 0.14772172E+03</rscale>
<asrwt>0</asrwt>
<pdfrwt beam="1">  1        2 0.77888198E-02 0.15439049E+03</pdfrwt>
<pdfrwt beam="2">  1       -2 0.62066096E-01 0.15439049E+03</pdfrwt>
<totfact> 0.21042556E+03</totfact>
</mgrwt>
</event>
<event>
 7    1  0.1446636E-005  0.1491108E+03  0.7546771E-02  0.1209262E+00
          2   -1    0    0  501    0  0.00000000000E+00  0.00000000000E+00  0.28612219957E+03  0.28612219957E+03  0.00000000000E+00 0. -1.
         -2   -1    0    0    0  501 -0.00000000000E+00 -0.00000000000E+00 -0.79765183659E+02  0.79765183659E+02  0.00000000000E+00 0.  1.
         23    2    1    2    0    0  0.68329057945E+01 -0.81017853545E+02  0.17103445993E+03  0.21264994680E+03  0.96729686232E+02 0.  0.
          5    1    1    2  502    0  0.32033776761E+02  0.10030315313E+03  0.27102871689E+02  0.10882803423E+03  0.47000000000E+01 0.  1.
         -5    1    1    2    0  502 -0.38866682555E+02 -0.19285299584E+02  0.82196842921E+01  0.44409402189E+02  0.47000000000E+01 0.  1.
        -11    1    3    3    0    0 -0.30528958772E+02 -0.40209048348E+02  0.14084709918E+03  0.14962182408E+03  0.00000000000E+00 0. -1.
         11    1    3    3    0    0  0.37361864566E+02 -0.40808805197E+02  0.30187360746E+02  0.63028122725E+02  0.00000000000E+00 0.  1.
<mgrwt>
<rscale>  0 0.14306568E+03</rscale>
<asrwt>0</asrwt>
<pdfrwt beam="1">  1        2 0.44018799E-01 0.14911079E+03</pdfrwt>
<pdfrwt beam="2">  1       -2 0.12271567E-01 0.14911079E+03</pdfrwt>
<totfact> 0.52832354E+03</totfact>
</mgrwt>
</event>
<event>
 7    1  0.1446636E-005  0.1396977E+03  0.7546771E-02  0.1225013E+00
         -1   -1    0    0    0  501 -0.00000000000E+00  0.00000000000E+00  0.76542319428E+02  0.76542319428E+02  0.00000000000E+00 0.  1.
          1   -1    0    0  501    0  0.00000000000E+00 -0.00000000000E+00 -0.20989565320E+03  0.20989565320E+03  0.00000000000E+00 0. -1.
         23    2    1    2    0    0  0.53022540894E+00  0.62409687893E+02 -0.82880533071E+02  0.13790193121E+03  0.90843324391E+02 0.  0.
          5    1    1    2  502    0  0.41411370813E+02  0.14144154504E+02 -0.41786157146E+02  0.60688810075E+02  0.47000000000E+01 0.  1.
         -5    1    1    2    0  502 -0.41941596222E+02 -0.76553842397E+02 -0.86866435555E+01  0.87847231349E+02  0.47000000000E+01 0.  1.
        -11    1    3    3    0    0  0.30768505741E+02  0.21628371761E+02  0.34314472844E+01  0.37765887267E+02  0.00000000000E+00 0.  1.
         11    1    3    3    0    0 -0.30238280332E+02  0.40781316132E+02 -0.86311980355E+02  0.10013604394E+03  0.00000000000E+00 0. -1.
<mgrwt>
<rscale>  0 0.13166005E+03</rscale>
<asrwt>0</asrwt>
<pdfrwt beam="2">  1        1 0.32291639E-01 0.13969772E+03</pdfrwt>
<pdfrwt beam="1">  1       -1 0.11775742E-01 0.13969772E+03</pdfrwt>
<totfact> 0.62092536E+03</totfact>
</mgrwt>
</event>
<event>
 7    1  0.1446636E-005  0.1467249E+03  0.7546771E-02  0.1214191E+00
          2   -1    0    0  501    0  0.00000000000E+00  0.00000000000E+00  0.54003415581E+03  0.54003415581E+03  0.00000000000E+00 0. -1.
         -2   -1    0    0    0  501 -0.00000000000E+00 -0.00000000000E+00 -0.32808738586E+02  0.32808738586E+02  0.00000000000E+00 0.  1.
         23    2    1    2    0    0  0.18583999032E+02 -0.74540061204E+02  0.23447092196E+03  0.26312817834E+03  0.91423406474E+02 0.  0.
          5    1    1    2  502    0  0.29613130930E+02 -0.17334006531E+02  0.30546617451E+02  0.46179986397E+02  0.47000000000E+01 0.  1.
         -5    1    1    2    0  502 -0.48197129961E+02  0.91874067735E+02  0.24220787782E+03  0.26353472966E+03  0.47000000000E+01 0.  1.
        -11    1    3    3    0    0  0.37456149276E+02 -0.46317949428E+02  0.57023453825E+02  0.82462050932E+02  0.00000000000E+00 0.  1.
         11    1    3    3    0    0 -0.18872150244E+02 -0.28222111776E+02  0.17744746813E+03  0.18066612741E+03  0.00000000000E+00 0. -1.
<mgrwt>
<rscale>  0 0.13936127E+03</rscale>
<asrwt>0</asrwt>
<pdfrwt beam="1">  1        2 0.83082172E-01 0.14672488E+03</pdfrwt>
<pdfrwt beam="2">  1       -2 0.50474986E-02 0.14672488E+03</pdfrwt>
<totfact> 0.10537581E+04</totfact>
</mgrwt>
</event>
<event>
 7    1  0.1446636E-005  0.1262921E+03  0.7546771E-02  0.1248319E+00
         -2   -1    0    0    0  501 -0.00000000000E+00  0.00000000000E+00  0.20112434975E+02  0.20112434975E+02  0.00000000000E+00 0.  1.
          2   -1    0    0  501    0  0.00000000000E+00 -0.00000000000E+00 -0.59663316489E+03  0.59663316489E+03  0.00000000000E+00 0. -1.
         23    2    1    2    0    0 -0.11558827083E+02 -0.13862591209E+02 -0.25405913922E+03  0.27043478336E+03  0.90901858683E+02 0.  0.
          5    1    1    2  502    0 -0.61555137258E+01  0.15077796055E+01  0.10211329324E+02  0.12904456405E+02  0.47000000000E+01 0. -1.
         -5    1    1    2    0  502  0.17714340809E+02  0.12354811603E+02 -0.33267292002E+03  0.33340636010E+03  0.47000000000E+01 0. -1.
        -11    1    3    3    0    0  0.24894828125E+01 -0.51490075240E+02 -0.12319099264E+03  0.13354192615E+03  0.00000000000E+00 0.  1.
         11    1    3    3    0    0 -0.14048309895E+02  0.37627484032E+02 -0.13086814658E+03  0.13689285721E+03  0.00000000000E+00 0. -1.
<mgrwt>
<rscale>  0 0.11688926E+03</rscale>
<asrwt>0</asrwt>
<pdfrwt beam="2">  1        2 0.91789721E-01 0.12629214E+03</pdfrwt>
<pdfrwt beam="1">  1       -2 0.30942206E-02 0.12629214E+03</pdfrwt>
<totfact> 0.19272637E+04</totfact>
</mgrwt>
</event>
<event>
 7    1  0.1446636E-005  0.1649614E+03  0.7546771E-02  0.1197782E+00
         -1   -1    0    0    0  501 -0.00000000000E+00  0.00000000000E+00  0.58820914137E+02  0.58820914137E+02  0.00000000000E+00 0.  1.
          1   -1    0    0  501    0  0.00000000000E+00 -0.00000000000E+00 -0.43217246438E+03  0.43217246438E+03  0.00000000000E+00 0. -1.
         23    2    1    2    0    0 -0.19363029755E+02  0.74885761775E+02 -0.27266410090E+03  0.29773132040E+03  0.91188941164E+02 0.  0.
          5    1    1    2  502    0 -0.51462524705E+02 -0.27741438559E+02 -0.89941938262E+02  0.10737607332E+03  0.47000000000E+01 0. -1.
         -5    1    1    2    0  502  0.70825554460E+02 -0.47144323215E+02 -0.10745511077E+02  0.85885984795E+02  0.47000000000E+01 0.  1.
        -11    1    3    3    0    0 -0.89071997863E+01  0.57751072440E+01  0.47625274615E+01  0.11634936164E+02  0.00000000000E+00 0.  1.
         11    1    3    3    0    0 -0.10455829969E+02  0.69110654531E+02 -0.27742662836E+03  0.28609638424E+03  0.00000000000E+00 0. -1.
<mgrwt>
<rscale>  0 0.15221134E+03</rscale>
<asrwt>0</asrwt>
<pdfrwt beam="2">  1        1 0.66488073E-01 0.16496139E+03</pdfrwt>
<pdfrwt beam="1">  1       -1 0.90493712E-02 0.16496139E+03</pdfrwt>
<totfact> 0.38072104E+03</totfact>
</mgrwt>
</event>
<event>
 7    1  0.1446636E-005  0.1332153E+03  0.7546771E-02  0.1235181E+00
          2   -1    0    0  501    0  0.00000000000E+00  0.00000000000E+00  0.27494230689E+03  0.27494230689E+03  0.00000000000E+00 0.  1.
         -2   -1    0    0    0  501 -0.00000000000E+00 -0.00000000000E+00 -0.56194796316E+02  0.56194796316E+02  0.00000000000E+00 0. -1.
         23    2    1    2    0    0  0.22114686359E+01 -0.46017469830E+02  0.14790877044E+03  0.18025824050E+03  0.92160353573E+02 0.  0.
          5    1    1    2  502    0 -0.53816627452E+02  0.57891696565E+02  0.33842897679E+02  0.86111030912E+02  0.47000000000E+01 0. -1.
         -5    1    1    2    0  502  0.51605158816E+02 -0.11874226734E+02  0.36995842454E+02  0.64767831798E+02  0.47000000000E+01 0. -1.
        -11    1    3    3    0    0 -0.29097443718E+02  0.29941811453E+01  0.10215272540E+03  0.10625820278E+03  0.00000000000E+00 0.  1.
         11    1    3    3    0    0  0.31308912354E+02 -0.49011650976E+02  0.45756045041E+02  0.74000037715E+02  0.00000000000E+00 0. -1.
<mgrwt>
<rscale>  0 0.12492827E+03</rscale>
<asrwt>0</asrwt>
<pdfrwt beam="1">  1        2 0.42298816E-01 0.13321525E+03</pdfrwt>
<pdfrwt beam="2">  1       -2 0.86453534E-02 0.13321525E+03</pdfrwt>
<totfact> 0.95055623E+03</totfact>
</mgrwt>
</event>
<event>
 7    1  0.1446636E-005  0.1256871E+03  0.7546771E-02  0.1248401E+00
         -1   -1    0    0    0  501 -0.00000000000E+00  0.00000000000E+00  0.13308529908E+03  0.13308529908E+03  0.00000000000E+00 0.  1.
          1   -1    0    0  501    0  0.00000000000E+00 -0.00000000000E+00 -0.95120852692E+02  0.95120852692E+02  0.00000000000E+00 0. -1.
         23    2    1    2    0    0 -0.11037973116E+02  0.68112204104E+01 -0.83959328444E+01  0.94241530764E+02  0.92966364124E+02 0.  0.
          5    1    1    2  502    0  0.39127116078E+02 -0.44983950558E+02  0.59703229389E+02  0.84504749097E+02  0.47000000000E+01 0. -1.
         -5    1    1    2    0  502 -0.28089142962E+02  0.38172730148E+02 -0.13342850157E+02  0.49459871912E+02  0.47000000000E+01 0. -1.
        -11    1    3    3    0    0  0.36277301162E+02 -0.49847703392E+01 -0.23116798157E+02  0.43304467113E+02  0.00000000000E+00 0.  1.
         11    1    3    3    0    0 -0.47315274278E+02  0.11795990750E+02  0.14720865313E+02  0.50937063651E+02  0.00000000000E+00 0. -1.
<mgrwt>
<rscale>  0 0.11684117E+03</rscale>
<asrwt>0</asrwt>
<pdfrwt beam="2">  1        1 0.14633977E-01 0.12568705E+03</pdfrwt>
<pdfrwt beam="1">  1       -1 0.20474661E-01 0.12568705E+03</pdfrwt>
<totfact> 0.70336030E+03</totfact>
</mgrwt>
</event>
<event>
 7    1  0.1446636E-005  0.1373137E+03  0.7546771E-02  0.1228685E+00
         -2   -1    0    0    0  501 -0.00000000000E+00  0.00000000000E+00  0.10589462728E+03  0.10589462728E+03  0.00000000000E+00 0.  1.
          2   -1    0    0  501    0  0.00000000000E+00 -0.00000000000E+00 -0.22159080413E+03  0.22159080413E+03  0.00000000000E+00 0. -1.
         23    2    1    2    0    0 -0.47607904449E+02 -0.31041068710E+02 -0.15130603652E+03  0.18562944712E+03  0.91294657229E+02 0.  0.
          5    1    1    2  502    0  0.53653297188E+02 -0.37676400715E+02  0.30683357511E+02  0.72537892844E+02  0.47000000000E+01 0. -1.
         -5    1    1    2    0  502 -0.60453927390E+01  0.68717469425E+02  0.49265021623E+01  0.69318091442E+02  0.47000000000E+01 0. -1.
        -11    1    3    3    0    0  0.20307802872E+02 -0.15124171259E+02 -0.85211876649E+01  0.26716250728E+02  0.00000000000E+00 0. -1.
         11    1    3    3    0    0 -0.67915707321E+02 -0.15916897451E+02 -0.14278484886E+03  0.15891319640E+03  0.00000000000E+00 0.  1.
<mgrwt>
<rscale>  0 0.12917474E+03</rscale>
<asrwt>0</asrwt>
<pdfrwt beam="2">  1        2 0.34090892E-01 0.13731372E+03</pdfrwt>
<pdfrwt beam="1">  1       -2 0.16291481E-01 0.13731372E+03</pdfrwt>
<totfact> 0.43574277E+03</totfact>
</mgrwt>
</event>
<event>
 7    1  0.1446636E-005  0.1545321E+03  0.7546771E-02  0.1203558E+00
          2   -1    0    0  501    0  0.00000000000E+00  0.00000000000E+00  0.85813317324E+02  0.85813317324E+02  0.00000000000E+00 0. -1.
         -2   -1    0    0    0  501 -0.00000000000E+00 -0.00000000000E+00 -0.24717993992E+03  0.24717993992E+03  0.00000000000E+00 0.  1.
         23    2    1    2    0    0 -0.63043635624E+02  0.65427521056E+02 -0.34036740002E+02  0.13276068755E+03  0.90618099649E+02 0.  0.
          5    1    1    2  502    0  0.91307888551E+02 -0.10782102842E+02 -0.66334584209E+02  0.11347136782E+03  0.47000000000E+01 0.  1.
         -5    1    1    2    0  502 -0.28264252927E+02 -0.54645418214E+02 -0.60995298381E+02  0.86761201869E+02  0.47000000000E+01 0.  1.
        -11    1    3    3    0    0  0.21629559167E+02  0.56008673190E+00 -0.48227340674E+01  0.22167775955E+02  0.00000000000E+00 0.  1.
         11    1    3    3    0    0 -0.84673194791E+02  0.64867434325E+02 -0.29214005934E+02  0.11059291159E+03  0.00000000000E+00 0. -1.
<mgrwt>
<rscale>  0 0.14751650E+03</rscale>
<asrwt>0</asrwt>
<pdfrwt beam="1">  1        2 0.13202049E-01 0.15453214E+03</pdfrwt>
<pdfrwt beam="2">  1       -2 0.38027683E-01 0.15453214E+03</pdfrwt>
<totfact> 0.28917924E+03</totfact>
</mgrwt>
</event>
<event>
 7    1  0.1446636E-005  0.1421836E+03  0.7546771E-02  0.1222158E+00
          2   -1    0    0  501    0  0.00000000000E+00  0.00000000000E+00  0.61041628514E+03  0.61041628514E+03  0.00000000000E+00 0.  1.
         -2   -1    0    0    0  501 -0.00000000000E+00 -0.00000000000E+00 -0.30506617371E+02  0.30506617371E+02  0.00000000000E+00 0. -1.
         23    2    1    2    0    0 -0.67353647566E+02  0.77834740668E+01  0.37818524968E+03  0.39412555534E+03  0.87828093393E+02 0.  0.
          5    1    1    2  502    0  0.58581120251E+02  0.18283128315E+02  0.20907290505E+03  0.21794400670E+03  0.47000000000E+01 0.  1.
         -5    1    1    2    0  502  0.87725273146E+01 -0.26066602382E+02 -0.73484869651E+01  0.28853340463E+02  0.47000000000E+01 0.  1.
        -11    1    3    3    0    0  0.90146329443E+01  0.27828055986E+02  0.67518495528E+02  0.73582685093E+02  0.00000000000E+00 0.  1.
         11    1    3    3    0    0 -0.76368280510E+02 -0.20044581919E+02  0.31066675415E+03  0.32054287025E+03  0.00000000000E+00 0. -1.
<mgrwt>
<rscale>  0 0.13363596E+03</rscale>
<asrwt>0</asrwt>
<pdfrwt beam="1">  1        2 0.93910188E-01 0.14218365E+03</pdfrwt>
<pdfrwt beam="2">  1       -2 0.46933262E-02 0.14218365E+03</pdfrwt>
<totfact> 0.10214059E+04</totfact>
</mgrwt>
</event>
<event>
 7    1  0.1446636E-005  0.2491623E+03  0.7546771E-02  0.1116389E+00
          2   -1    0    0  501    0  0.00000000000E+00  0.00000000000E+00  0.27581174222E+03  0.27581174222E+03  0.00000000000E+00 0. -1.
         -2   -1    0    0    0  501 -0.00000000000E+00 -0.00000000000E+00 -0.21441948346E+03  0.21441948346E+03  0.00000000000E+00 0.  1.
         23    2    1    2    0    0 -0.12935413380E+03 -0.17241222365E+03  0.59462227705E+02  0.24106149030E+03  0.90091169297E+02 0.  0.
          5    1    1    2  502    0  0.78969863876E+02  0.17728339430E+03  0.20127719307E+02  0.19517391316E+03  0.47000000000E+01 0.  1.
         -5    1    1    2    0  502  0.50384269925E+02 -0.48711706479E+01 -0.18197688253E+02  0.53995822219E+02  0.47000000000E+01 0.  1.
        -11    1    3    3    0    0 -0.10425028886E+03 -0.13601654886E+03  0.57185296581E+01  0.17146814827E+03  0.00000000000E+00 0.  1.
         11    1    3    3    0    0 -0.25103844940E+02 -0.36395674794E+02  0.53743698047E+02  0.69593342025E+02  0.00000000000E+00 0. -1.
<mgrwt>
<rscale>  0 0.24518043E+03</rscale>
<asrwt>0</asrwt>
<pdfrwt beam="1">  1        2 0.42432576E-01 0.24916226E+03</pdfrwt>
<pdfrwt beam="2">  1       -2 0.32987613E-01 0.24916226E+03</pdfrwt>
<totfact> 0.10280328E+03</totfact>
</mgrwt>
</event>
<event>
 7    1  0.1446636E-005  0.1909511E+03  0.7546771E-02  0.1162374E+00
         -1   -1    0    0    0  501 -0.00000000000E+00  0.00000000000E+00  0.71624219300E+02  0.71624219300E+02  0.00000000000E+00 0.  1.
          1   -1    0    0  501    0  0.00000000000E+00 -0.00000000000E+00 -0.50542508216E+03  0.50542508216E+03  0.00000000000E+00 0. -1.
         23    2    1    2    0    0  0.10938932659E+03  0.94191540277E+02 -0.29520615570E+03  0.34110269745E+03  0.91467506851E+02 0.  0.
          5    1    1    2  502    0 -0.12133300313E+03 -0.45839778544E+02 -0.13262514536E+03  0.18556535810E+03  0.47000000000E+01 0. -1.
         -5    1    1    2    0  502  0.11943676536E+02 -0.48351761733E+02 -0.59695618027E+01  0.50381245916E+02  0.47000000000E+01 0. -1.
        -11    1    3    3    0    0  0.48324258924E+02  0.12316776495E+02 -0.18164303971E+03  0.18836435666E+03  0.00000000000E+00 0. -1.
         11    1    3    3    0    0  0.61065067669E+02  0.81874763781E+02 -0.11356311599E+03  0.15273834079E+03  0.00000000000E+00 0.  1.
<mgrwt>
<rscale>  0 0.18572593E+03</rscale>
<asrwt>0</asrwt>
<pdfrwt beam="2">  1        1 0.77757709E-01 0.19095106E+03</pdfrwt>
<pdfrwt beam="1">  1       -1 0.11019110E-01 0.19095106E+03</pdfrwt>
<totfact> 0.23064412E+03</totfact>
</mgrwt>
</event>
<event>
 7    1  0.1446636E-005  0.1576794E+03  0.7546771E-02  0.1198104E+00
         -2   -1    0    0    0  501 -0.00000000000E+00  0.00000000000E+00  0.72248268357E+02  0.72248268357E+02  0.00000000000E+00 0.  1.
          2   -1    0    0  501    0  0.00000000000E+00 -0.00000000000E+00 -0.29858197332E+03  0.29858197332E+03  0.00000000000E+00 0. -1.
         23    2    1    2    0    0 -0.38516110320E+02  0.89416479086E+02 -0.10985927889E+03  0.17479688323E+03  0.94900430678E+02 0.  0.
          5    1    1    2  502    0  0.68235809489E+02 -0.79916372957E+02 -0.12497896201E+03  0.16335416526E+03  0.47000000000E+01 0. -1.
         -5    1    1    2    0  502 -0.29719699169E+02 -0.95001061284E+01  0.85045359445E+01  0.32679193178E+02  0.47000000000E+01 0.  1.
        -11    1    3    3    0    0 -0.10061575863E+02 -0.20053457825E+02 -0.13321315416E+02  0.26092794484E+02  0.00000000000E+00 0.  1.
         11    1    3    3    0    0 -0.28454534457E+02  0.10946993691E+03 -0.96537963478E+02  0.14870408875E+03  0.00000000000E+00 0. -1.
<mgrwt>
<rscale>  0 0.15194390E+03</rscale>
<asrwt>0</asrwt>
<pdfrwt beam="2">  1        2 0.45935688E-01 0.15767938E+03</pdfrwt>
<pdfrwt beam="1">  1       -2 0.11115118E-01 0.15767938E+03</pdfrwt>
<totfact> 0.59332739E+03</totfact>
</mgrwt>
</event>
<event>
 7    1  0.1446636E-005  0.1380219E+03  0.7546771E-02  0.1228055E+00
          1   -1    0    0  501    0  0.00000000000E+00  0.00000000000E+00  0.49863594511E+02  0.49863594511E+02  0.00000000000E+00 0. -1.
         -1   -1    0    0    0  501 -0.00000000000E+00 -0.00000000000E+00 -0.31040162872E+03  0.31040162872E+03  0.00000000000E+00 0.  1.
         23    2    1    2    0    0  0.60759262865E+01  0.58226332034E+02 -0.14433869858E+03  0.17984255311E+03  0.89902510402E+02 0.  0.
          5    1    1    2  502    0  0.81464399976E+01 -0.66243540674E+02 -0.13765555657E+03  0.15305460928E+03  0.47000000000E+01 0. -1.
         -5    1    1    2    0  502 -0.14222366284E+02  0.80172086400E+01  0.21456220948E+02  0.27368060846E+02  0.47000000000E+01 0. -1.
        -11    1    3    3    0    0 -0.23955596842E+01  0.52011742508E+02 -0.15581446517E+03  0.16428361946E+03  0.00000000000E+00 0.  1.
         11    1    3    3    0    0  0.84714859707E+01  0.62145895258E+01  0.11475766588E+02  0.15558933650E+02  0.00000000000E+00 0. -1.
<mgrwt>
<rscale>  0 0.12959672E+03</rscale>
<asrwt>0</asrwt>
<pdfrwt beam="1">  1        1 0.76713220E-02 0.13802193E+03</pdfrwt>
<pdfrwt beam="2">  1       -1 0.47754098E-01 0.13802193E+03</pdfrwt>
<totfact> 0.39535526E+03</totfact>
</mgrwt>
</event>
<event>
 7    1  0.1446636E-005  0.1495286E+03  0.7546771E-02  0.1210010E+00
         -1   -1    0    0    0  501 -0.00000000000E+00  0.00000000000E+00  0.15579325406E+02  0.15579325406E+02  0.00000000000E+00 0.  1.
          1   -1    0    0  501    0  0.00000000000E+00 -0.00000000000E+00 -0.12798913890E+04  0.12798913890E+04  0.00000000000E+00 0. -1.
         23    2    1    2    0    0  0.81833088146E+02  0.61523594169E+01 -0.40901501525E+03  0.42720126217E+03  0.92049605430E+02 0.  0.
          5    1    1    2  502    0 -0.11358444725E+03  0.18556115544E+01 -0.58415728029E+03  0.59511905369E+03  0.47000000000E+01 0.  1.
         -5    1    1    2    0  502  0.31751359100E+02 -0.80079709713E+01 -0.27113976807E+03  0.27315039856E+03  0.47000000000E+01 0.  1.
        -11    1    3    3    0    0 -0.93605771469E+01 -0.12809492189E+02 -0.13393153722E+02  0.20762467610E+02  0.00000000000E+00 0.  1.
         11    1    3    3    0    0  0.91193665293E+02  0.18961851606E+02 -0.39562186153E+03  0.40643879456E+03  0.00000000000E+00 0. -1.
<mgrwt>
<rscale>  0 0.14249542E+03</rscale>
<asrwt>0</asrwt>
<pdfrwt beam="2">  1        1 0.19690638E+00 0.14952860E+03</pdfrwt>
<pdfrwt beam="1">  1       -1 0.23968192E-02 0.14952860E+03</pdfrwt>
<totfact> 0.52057694E+03</totfact>
</mgrwt>
</event>
<event>
 7    1  0.1446636E-005  0.2118136E+03  0.7546771E-02  0.1144500E+00
         -1   -1    0    0    0  501 -0.00000000000E+00  0.00000000000E+00  0.12199269062E+04  0.12199269062E+04  0.00000000000E+00 0. -1.
          1   -1    0    0  501    0  0.00000000000E+00 -0.00000000000E+00 -0.36515205234E+02  0.36515205234E+02  0.00000000000E+00 0.  1.
         23    2    1    2    0    0  0.16327210911E+03 -0.50829864341E+02  0.37473765745E+03  0.42048833260E+03  0.84502480540E+02 0.  0.
          5    1    1    2  502    0 -0.14470444118E+03 -0.88540878495E+01  0.63376627448E+03  0.65015348252E+03  0.47000000000E+01 0. -1.
         -5    1    1    2    0  502 -0.18567667929E+02  0.59683952191E+02  0.17490776904E+03  0.18580029632E+03  0.47000000000E+01 0. -1.
        -11    1    3    3    0    0  0.10670952775E+03 -0.25470800861E+02  0.31823263133E+03  0.33661208037E+03  0.00000000000E+00 0. -1.
         11    1    3    3    0    0  0.56562581360E+02 -0.25359063481E+02  0.56505026123E+02  0.83876252228E+02  0.00000000000E+00 0.  1.
<mgrwt>
<rscale>  0 0.20633668E+03</rscale>
<asrwt>0</asrwt>
<pdfrwt beam="2">  1        1 0.56177248E-02 0.21181362E+03</pdfrwt>
<pdfrwt beam="1">  1       -1 0.18768103E+00 0.21181362E+03</pdfrwt>
<totfact> 0.28713459E+02</totfact>
</mgrwt>
</event>
<event>
 7    1  0.1446636E-005  0.1438376E+03  0.7546771E-02  0.1218626E+00
         -4   -1    0    0    0  501 -0.00000000000E+00  0.00000000000E+00  0.95689017914E+03  0.95689017914E+03  0.00000000000E+00 0.  1.
          4   -1    0    0  501    0  0.00000000000E+00 -0.00000000000E+00 -0.20099918091E+02  0.20099918091E+02  0.00000000000E+00 0. -1.
         23    2    1    2    0    0 -0.67778349949E+02  0.21710951561E+02  0.25080318203E+03  0.27608530884E+03  0.90860285601E+02 0.  0.
          5    1    1    2  502    0  0.74334180531E+02 -0.55224873465E+02  0.31620302322E+03  0.32951752448E+03  0.47000000000E+01 0. -1.
         -5    1    1    2    0  502 -0.65558305824E+01  0.33513921904E+02  0.36978405580E+03  0.37138726391E+03  0.47000000000E+01 0. -1.
        -11    1    3    3    0    0  0.21094155528E+02  0.14068954284E+02  0.42536356264E+02  0.49520101740E+02  0.00000000000E+00 0.  1.
         11    1    3    3    0    0 -0.88872505477E+02  0.76419972765E+01  0.20826682577E+03  0.22656520710E+03  0.00000000000E+00 0. -1.
<mgrwt>
<rscale>  0 0.13613532E+03</rscale>
<asrwt>0</asrwt>
<pdfrwt beam="2">  1        4 0.30922958E-02 0.14383758E+03</pdfrwt>
<pdfrwt beam="1">  1       -4 0.14721384E+00 0.14383758E+03</pdfrwt>
<totfact> 0.28983226E+02</totfact>
</mgrwt>
</event>
<event>
 7    1  0.1446636E-005  0.1412348E+03  0.7546771E-02  0.1222582E+00
         -1   -1    0    0    0  501 -0.00000000000E+00  0.00000000000E+00  0.75014777457E+02  0.75014777457E+02  0.00000000000E+00 0.  1.
          1   -1    0    0  501    0  0.00000000000E+00 -0.00000000000E+00 -0.28914200272E+03  0.28914200272E+03  0.00000000000E+00 0. -1.
         23    2    1    2    0    0  0.31652840902E+02 -0.57628439875E+02 -0.19031280327E+03  0.22092829108E+03  0.90925284116E+02 0.  0.
          5    1    1    2  502    0 -0.58087809459E+02  0.73596160081E+02 -0.46364233364E+02  0.10470110086E+03  0.47000000000E+01 0.  1.
         -5    1    1    2    0  502  0.26434968557E+02 -0.15967720206E+02  0.22549811371E+02  0.38527388233E+02  0.47000000000E+01 0.  1.
        -11    1    3    3    0    0  0.52327268286E+02 -0.19019442527E+02 -0.15491342924E+03  0.16461486191E+03  0.00000000000E+00 0. -1.
         11    1    3    3    0    0 -0.20674427384E+02 -0.38608997349E+02 -0.35399374027E+02  0.56313429175E+02  0.00000000000E+00 0.  1.
<mgrwt>
<rscale>  0 0.13334018E+03</rscale>
<asrwt>0</asrwt>
<pdfrwt beam="2">  1        1 0.44483386E-01 0.14123482E+03</pdfrwt>
<pdfrwt beam="1">  1       -1 0.11540735E-01 0.14123482E+03</pdfrwt>
<totfact> 0.43104544E+03</totfact>
</mgrwt>
</event>
<event>
 7    1  0.1446636E-005  0.1299434E+03  0.7546771E-02  0.1243458E+00
         -1   -1    0    0    0  501 -0.00000000000E+00  0.00000000000E+00  0.31085650940E+02  0.31085650940E+02  0.00000000000E+00 0.  1.
          1   -1    0    0  501    0  0.00000000000E+00 -0.00000000000E+00 -0.45577318784E+03  0.45577318784E+03  0.00000000000E+00 0. -1.
         23    2    1    2    0    0  0.24961482210E+02 -0.10661287330E+02 -0.26418003916E+03  0.28034505471E+03  0.89808228835E+02 0.  0.
          5    1    1    2  502    0  0.36222917522E+02  0.24803015632E+02 -0.12842423616E+02  0.45981596129E+02  0.47000000000E+01 0. -1.
         -5    1    1    2    0  502 -0.61184399732E+02 -0.14141728302E+02 -0.14766507412E+03  0.16053218794E+03  0.47000000000E+01 0.  1.
        -11    1    3    3    0    0 -0.33147780345E+02 -0.13061264913E+02 -0.96755753775E+02  0.10310697295E+03  0.00000000000E+00 0. -1.
         11    1    3    3    0    0  0.58109262556E+02  0.23999775836E+01 -0.16742428539E+03  0.17723808176E+03  0.00000000000E+00 0.  1.
<mgrwt>
<rscale>  0 0.11978155E+03</rscale>
<asrwt>0</asrwt>
<pdfrwt beam="2">  1        1 0.70118947E-01 0.12994340E+03</pdfrwt>
<pdfrwt beam="1">  1       -1 0.47824081E-02 0.12994340E+03</pdfrwt>
<totfact> 0.91273880E+03</totfact>
</mgrwt>
</event>
<event>
 7    1  0.1446636E-005  0.1716813E+03  0.7546771E-02  0.1196044E+00
          1   -1    0    0  501    0  0.00000000000E+00  0.00000000000E+00  0.11165835928E+04  0.11165835928E+04  0.00000000000E+00 0. -1.
         -1   -1    0    0    0  501 -0.00000000000E+00 -0.00000000000E+00 -0.18933713662E+02  0.18933713662E+02  0.00000000000E+00 0.  1.
         23    2    1    2    0    0  0.52629300308E+01 -0.63020692790E+02  0.57284561590E+03  0.58334525306E+03  0.90223491726E+02 0.  0.
          5    1    1    2  502    0  0.22308254868E+01  0.52174204899E+02  0.37014831247E+02  0.64181866375E+02  0.47000000000E+01 0.  1.
         -5    1    1    2    0  502 -0.74937555176E+01  0.10846487891E+02  0.48778943199E+03  0.48799018702E+03  0.47000000000E+01 0. -1.
        -11    1    3    3    0    0 -0.21146958233E+02 -0.77291726161E+02  0.41077752174E+03  0.41852046203E+03  0.00000000000E+00 0. -1.
         11    1    3    3    0    0  0.26409888264E+02  0.14271033371E+02  0.16206809416E+03  0.16482479103E+03  0.00000000000E+00 0.  1.
<mgrwt>
<rscale>  0 0.15366243E+03</rscale>
<asrwt>0</asrwt>
<pdfrwt beam="1">  1        1 0.17178204E+00 0.17168128E+03</pdfrwt>
<pdfrwt beam="2">  1       -1 0.29128799E-02 0.17168128E+03</pdfrwt>
<totfact> 0.51000004E+03</totfact>
</mgrwt>
</event>
<event>
 7    1  0.1446636E-005  0.1771106E+03  0.7546771E-02  0.1176098E+00
         -1   -1    0    0    0  501 -0.00000000000E+00  0.00000000000E+00  0.46256342074E+03  0.46256342074E+03  0.00000000000E+00 0.  1.
          1   -1    0    0  501    0  0.00000000000E+00 -0.00000000000E+00 -0.73885241305E+02  0.73885241305E+02  0.00000000000E+00 0. -1.
         23    2    1    2    0    0 -0.55443479055E+02 -0.11255677380E+03  0.68907113062E+02  0.17090565459E+03  0.93367798737E+02 0.  0.
          5    1    1    2  502    0  0.30985776603E+02  0.53985435082E+02  0.30729279702E+02  0.69576750310E+02  0.47000000000E+01 0. -1.
         -5    1    1    2    0  502  0.24457702451E+02  0.58571338717E+02  0.28904178668E+03  0.29596625715E+03  0.47000000000E+01 0. -1.
        -11    1    3    3    0    0 -0.80151180956E+02 -0.66659226162E+02  0.44486991491E+02  0.11334353380E+03  0.00000000000E+00 0.  1.
         11    1    3    3    0    0  0.24707701902E+02 -0.45897547637E+02  0.24420121571E+02  0.57562120790E+02  0.00000000000E+00 0. -1.
<mgrwt>
<rscale>  0 0.17168868E+03</rscale>
<asrwt>0</asrwt>
<pdfrwt beam="2">  1        1 0.11366960E-01 0.17711057E+03</pdfrwt>
<pdfrwt beam="1">  1       -1 0.71163602E-01 0.17711057E+03</pdfrwt>
<totfact> 0.11088819E+03</totfact>
</mgrwt>
</event>
<event>
 7    1  0.1446636E-005  0.1371039E+03  0.7546771E-02  0.1229099E+00
          2   -1    0    0  501    0  0.00000000000E+00  0.00000000000E+00  0.30762103010E+02  0.30762103010E+02  0.00000000000E+00 0. -1.
         -2   -1    0    0    0  501 -0.00000000000E+00 -0.00000000000E+00 -0.51267317695E+03  0.51267317695E+03  0.00000000000E+00 0.  1.
         23    2    1    2    0    0 -0.53821186250E+02  0.16831104000E+02 -0.27598906302E+03  0.29604619942E+03  0.91068013799E+02 0.  0.
          5    1    1    2  502    0 -0.79946910315E-01  0.19439695694E+02 -0.17346171977E+03  0.17461089996E+03  0.47000000000E+01 0.  1.
         -5    1    1    2    0  502  0.53901133160E+02 -0.36270799694E+02 -0.32460291160E+02  0.72778180580E+02  0.47000000000E+01 0.  1.
        -11    1    3    3    0    0 -0.61757749273E+02  0.38593825857E+01 -0.27377270527E+03  0.28067847901E+03  0.00000000000E+00 0.  1.
         11    1    3    3    0    0  0.79365630235E+01  0.12971721414E+02 -0.22163577486E+01  0.15367720414E+02  0.00000000000E+00 0. -1.
<mgrwt>
<rscale>  0 0.12889879E+03</rscale>
<asrwt>0</asrwt>
<pdfrwt beam="1">  1        2 0.47326312E-02 0.13710391E+03</pdfrwt>
<pdfrwt beam="2">  1       -2 0.78872797E-01 0.13710391E+03</pdfrwt>
<totfact> 0.23848150E+03</totfact>
</mgrwt>
</event>
<event>
 7    1  0.1446636E-005  0.1743360E+03  0.7546771E-02  0.1179288E+00
         -3   -1    0    0    0  501 -0.00000000000E+00  0.00000000000E+00  0.16740836309E+03  0.16740836309E+03  0.00000000000E+00 0.  1.
          3   -1    0    0  501    0  0.00000000000E+00 -0.00000000000E+00 -0.15961524077E+03  0.15961524077E+03  0.00000000000E+00 0. -1.
         23    2    1    2    0    0  0.10763803989E+03  0.56408873645E+02  0.40319601644E+01  0.15264700892E+03  0.92287290416E+02 0.  0.
          5    1    1    2  502    0 -0.72718370294E+02 -0.25628985190E+02 -0.58213733949E+02  0.96725048878E+02  0.47000000000E+01 0. -1.
         -5    1    1    2    0  502 -0.34919669593E+02 -0.30779888455E+02  0.61974896104E+02  0.77651546056E+02  0.47000000000E+01 0. -1.
        -11    1    3    3    0    0  0.10140482938E+03  0.21464110769E+02 -0.25191305279E+02  0.10666887706E+03  0.00000000000E+00 0.  1.
         11    1    3    3    0    0  0.62332105091E+01  0.34944762876E+02  0.29223265443E+02  0.45978131855E+02  0.00000000000E+00 0. -1.
<mgrwt>
<rscale>  0 0.16862600E+03</rscale>
<asrwt>0</asrwt>
<pdfrwt beam="2">  1        3 0.24556191E-01 0.17433603E+03</pdfrwt>
<pdfrwt beam="1">  1       -3 0.25755133E-01 0.17433603E+03</pdfrwt>
<totfact> 0.52991198E+02</totfact>
</mgrwt>
</event>
<event>
 7    1  0.1446636E-005  0.1679797E+03  0.7546771E-02  0.1189907E+00
          1   -1    0    0  501    0  0.00000000000E+00  0.00000000000E+00  0.27927352840E+03  0.27927352840E+03  0.00000000000E+00 0. -1.
         -1   -1    0    0    0  501 -0.00000000000E+00 -0.00000000000E+00 -0.82981986125E+02  0.82981986125E+02  0.00000000000E+00 0.  1.
         23    2    1    2    0    0 -0.10442320057E+03 -0.41068935817E+02  0.67515578092E+02  0.15059436543E+03  0.74360253561E+02 0.  0.
          5    1    1    2  502    0  0.51150179684E+02  0.83694502239E+02  0.62344444117E+02  0.11631865843E+03  0.47000000000E+01 0.  1.
         -5    1    1    2    0  502  0.53273020884E+02 -0.42625566423E+02  0.66431520066E+02  0.95342490660E+02  0.47000000000E+01 0.  1.
        -11    1    3    3    0    0 -0.15456129338E+02 -0.10660853794E+01 -0.15933048915E+02  0.22223647762E+02  0.00000000000E+00 0.  1.
         11    1    3    3    0    0 -0.88967071230E+02 -0.40002850437E+02  0.83448627007E+02  0.12837071767E+03  0.00000000000E+00 0. -1.
<mgrwt>
<rscale>  0 0.15893274E+03</rscale>
<asrwt>0</asrwt>
<pdfrwt beam="1">  1        1 0.42965158E-01 0.16797974E+03</pdfrwt>
<pdfrwt beam="2">  1       -1 0.12766460E-01 0.16797974E+03</pdfrwt>
<totfact> 0.38824846E+03</totfact>
</mgrwt>
</event>
<event>
 7    1  0.1446636E-005  0.1981324E+03  0.7546771E-02  0.1155864E+00
         -1   -1    0    0    0  501 -0.00000000000E+00  0.00000000000E+00  0.23185784295E+03  0.23185784295E+03  0.00000000000E+00 0.  1.
          1   -1    0    0  501    0  0.00000000000E+00 -0.00000000000E+00 -0.17906427549E+03  0.17906427549E+03  0.00000000000E+00 0. -1.
         23    2    1    2    0    0 -0.12736575612E+03 -0.85473858869E+02 -0.53719211296E+02  0.18597450842E+03  0.90404356846E+02 0.  0.
          5    1    1    2  502    0  0.11307522771E+03  0.51038919598E+02  0.13069485579E+03  0.18026151493E+03  0.47000000000E+01 0.  1.
         -5    1    1    2    0  502  0.14290528410E+02  0.34434939270E+02 -0.24182077031E+02  0.44686095089E+02  0.47000000000E+01 0.  1.
        -11    1    3    3    0    0 -0.83964381647E+02 -0.20881041589E+02  0.76621985262E+01  0.86860489116E+02  0.00000000000E+00 0.  1.
         11    1    3    3    0    0 -0.43401374473E+02 -0.64592817280E+02 -0.61381409822E+02  0.99114019301E+02  0.00000000000E+00 0. -1.
<mgrwt>
<rscale>  0 0.19290806E+03</rscale>
<asrwt>0</asrwt>
<pdfrwt beam="2">  1        1 0.27548350E-01 0.19813242E+03</pdfrwt>
<pdfrwt beam="1">  1       -1 0.35670437E-01 0.19813242E+03</pdfrwt>
<totfact> 0.12700372E+03</totfact>
</mgrwt>
</event>
<event>
 7    1  0.1446636E-005  0.1361228E+03  0.7546771E-02  0.1226193E+00
          1   -1    0    0  501    0  0.00000000000E+00  0.00000000000E+00  0.84359922518E+02  0.84359922518E+02  0.00000000000E+00 0. -1.
         -1   -1    0    0    0  501 -0.00000000000E+00 -0.00000000000E+00 -0.25967842592E+03  0.25967842592E+03  0.00000000000E+00 0.  1.
         23    2    1    2    0    0  0.31039673070E+02 -0.65113054820E+02  0.70641025921E+01  0.11645797356E+03  0.91155838256E+02 0.  0.
          5    1    1    2  502    0 -0.28046443612E+02  0.98294285337E+01  0.64249400541E+01  0.30766711220E+02  0.47000000000E+01 0. -1.
         -5    1    1    2    0  502 -0.29932294575E+01  0.55283626286E+02 -0.18880754605E+03  0.19681366366E+03  0.47000000000E+01 0.  1.
        -11    1    3    3    0    0 -0.28889950551E+00 -0.18596330337E+02  0.45038854199E+02  0.48727870387E+02  0.00000000000E+00 0. -1.
         11    1    3    3    0    0  0.31328572575E+02 -0.46516724483E+02 -0.37974751607E+02  0.67730103173E+02  0.00000000000E+00 0.  1.
<mgrwt>
<rscale>  0 0.13085500E+03</rscale>
<asrwt>0</asrwt>
<pdfrwt beam="1">  1        1 0.12978450E-01 0.13612278E+03</pdfrwt>
<pdfrwt beam="2">  1       -1 0.39950526E-01 0.13612278E+03</pdfrwt>
<totfact> 0.27030889E+03</totfact>
</mgrwt>
</event>
<event>
 7    1  0.1446636E-005  0.4371587E+03  0.7546771E-02  0.1072326E+00
         -2   -1    0    0    0  501 -0.00000000000E+00  0.00000000000E+00  0.44988369025E+03  0.44988369025E+03  0.00000000000E+00 0.  1.
          2   -1    0    0  501    0  0.00000000000E+00 -0.00000000000E+00 -0.19198723348E+03  0.19198723348E+03  0.00000000000E+00 0. -1.
         23    2    1    2    0    0 -0.88894853813E+02 -0.50852232943E+02  0.64568071890E+01  0.13755989388E+03  0.91612168494E+02 0.  0.
          5    1    1    2  502    0  0.16724635467E+03  0.18289946837E+03  0.53213044447E+02  0.25352963689E+03  0.47000000000E+01 0. -1.
         -5    1    1    2    0  502 -0.78351500854E+02 -0.13204723543E+03  0.19822660514E+03  0.25078139296E+03  0.47000000000E+01 0.  1.
        -11    1    3    3    0    0  0.21347748722E+01 -0.35390348238E+02  0.25000578010E+02  0.43382749026E+02  0.00000000000E+00 0.  1.
         11    1    3    3    0    0 -0.91029628685E+02 -0.15461884705E+02 -0.18543770821E+02  0.94177144857E+02  0.00000000000E+00 0. -1.
<mgrwt>
<rscale>  0 0.32732755E+03</rscale>
<asrwt>0</asrwt>
<pdfrwt beam="2">  1        2 0.29536498E-01 0.43715869E+03</pdfrwt>
<pdfrwt beam="1">  1       -2 0.69212875E-01 0.43715869E+03</pdfrwt>
<totfact> 0.34949752E+02</totfact>
</mgrwt>
</event>
<event>
 7    1  0.1446636E-005  0.1470229E+03  0.7546771E-02  0.1213840E+00
         -1   -1    0    0    0  501 -0.00000000000E+00  0.00000000000E+00  0.69295498172E+02  0.69295498172E+02  0.00000000000E+00 0.  1.
          1   -1    0    0  501    0  0.00000000000E+00 -0.00000000000E+00 -0.25643757681E+03  0.25643757681E+03  0.00000000000E+00 0. -1.
         23    2    1    2    0    0 -0.35727559573E+02 -0.68666670142E+02 -0.82593499933E+02  0.14532758793E+03  0.91141930427E+02 0.  0.
          5    1    1    2  502    0 -0.46642452338E+02  0.31805456653E+02 -0.41265420719E+02  0.70085878607E+02  0.47000000000E+01 0.  1.
         -5    1    1    2    0  502  0.82370011911E+02  0.36861213489E+02 -0.63283157989E+02  0.11031960844E+03  0.47000000000E+01 0.  1.
        -11    1    3    3    0    0 -0.37489298810E+02  0.83380630522E+01 -0.10470256596E+02  0.39806998052E+02  0.00000000000E+00 0.  1.
         11    1    3    3    0    0  0.17617392375E+01 -0.77004733194E+02 -0.72123243337E+02  0.10552058988E+03  0.00000000000E+00 0. -1.
<mgrwt>
<rscale>  0 0.13962068E+03</rscale>
<asrwt>0</asrwt>
<pdfrwt beam="2">  1        1 0.39451935E-01 0.14702290E+03</pdfrwt>
<pdfrwt beam="1">  1       -1 0.10660846E-01 0.14702290E+03</pdfrwt>
<totfact> 0.56623628E+03</totfact>
</mgrwt>
</event>
<event>
 7    1  0.1446636E-005  0.1303669E+03  0.7546771E-02  0.1240748E+00
         -3   -1    0    0    0  501 -0.00000000000E+00  0.00000000000E+00  0.32169387401E+03  0.32169387401E+03  0.00000000000E+00 0.  1.
          3   -1    0    0  501    0  0.00000000000E+00 -0.00000000000E+00 -0.50693180965E+02  0.50693180965E+02  0.00000000000E+00 0. -1.
         23    2    1    2    0    0  0.25005101311E+02  0.27170363230E+02  0.37709829026E+02  0.10514157853E+03  0.90935342969E+02 0.  0.
          5    1    1    2  502    0 -0.11977369866E+02  0.39367631452E+02  0.16789601598E+03  0.17292897379E+03  0.47000000000E+01 0. -1.
         -5    1    1    2    0  502 -0.13027731446E+02 -0.66537994682E+02  0.65394848044E+02  0.94316502658E+02  0.47000000000E+01 0. -1.
        -11    1    3    3    0    0  0.34750037029E+02  0.36796364065E+01 -0.21272548045E+02  0.40909975530E+02  0.00000000000E+00 0. -1.
         11    1    3    3    0    0 -0.97449357171E+01  0.23490726824E+02  0.58982377071E+02  0.64231602999E+02  0.00000000000E+00 0.  1.
<mgrwt>
<rscale>  0 0.12143504E+03</rscale>
<asrwt>0</asrwt>
<pdfrwt beam="2">  1        3 0.77989511E-02 0.13036686E+03</pdfrwt>
<pdfrwt beam="1">  1       -3 0.49491364E-01 0.13036686E+03</pdfrwt>
<totfact> 0.10390119E+03</totfact>
</mgrwt>
</event>
<event>
 7    1  0.1446636E-005  0.1400396E+03  0.7546771E-02  0.1224208E+00
         -2   -1    0    0    0  501 -0.00000000000E+00  0.00000000000E+00  0.84325222631E+02  0.84325222631E+02  0.00000000000E+00 0.  1.
          2   -1    0    0  501    0  0.00000000000E+00 -0.00000000000E+00 -0.23592572455E+03  0.23592572455E+03  0.00000000000E+00 0. -1.
         23    2    1    2    0    0 -0.62662860795E+02  0.76466677775E+01 -0.14127979480E+03  0.17983150446E+03  0.91620324861E+02 0.  0.
          5    1    1    2  502    0  0.37799888846E+02  0.57185807227E+02 -0.16141746548E+02  0.70581117351E+02  0.47000000000E+01 0. -1.
         -5    1    1    2    0  502  0.24862971949E+02 -0.64832475004E+02  0.58210394331E+01  0.69838325362E+02  0.47000000000E+01 0. -1.
        -11    1    3    3    0    0 -0.84579935305E+02  0.23639389712E+01 -0.88509332385E+02  0.12244695008E+03  0.00000000000E+00 0.  1.
         11    1    3    3    0    0  0.21917074510E+02  0.52827288063E+01 -0.52770462415E+02  0.57384554387E+02  0.00000000000E+00 0. -1.
<mgrwt>
<rscale>  0 0.13221346E+03</rscale>
<asrwt>0</asrwt>
<pdfrwt beam="2">  1        2 0.36296265E-01 0.14003965E+03</pdfrwt>
<pdfrwt beam="1">  1       -2 0.12973111E-01 0.14003965E+03</pdfrwt>
<totfact> 0.59121263E+03</totfact>
</mgrwt>
</event>
<event>
 7    1  0.1446636E-005  0.1256220E+03  0.7546771E-02  0.1249834E+00
         -2   -1    0    0    0  501 -0.00000000000E+00  0.00000000000E+00  0.22368902645E+02  0.22368902645E+02  0.00000000000E+00 0.  1.
          2   -1    0    0  501    0  0.00000000000E+00 -0.00000000000E+00 -0.56762818516E+03  0.56762818516E+03  0.00000000000E+00 0. -1.
         23    2    1    2    0    0 -0.82735753378E+01  0.93649001084E+01 -0.31151922468E+03  0.32463825875E+03  0.90496509877E+02 0.  0.
          5    1    1    2  502    0  0.14723074055E+01 -0.17054818656E+02 -0.24717377730E+03  0.24781041284E+03  0.47000000000E+01 0. -1.
         -5    1    1    2    0  502  0.68012679322E+01  0.76899185477E+01  0.13433719464E+02  0.17548416208E+02  0.47000000000E+01 0. -1.
        -11    1    3    3    0    0 -0.46668464659E+02  0.89014164149E+01 -0.22530824217E+03  0.23026286022E+03  0.00000000000E+00 0.  1.
         11    1    3    3    0    0  0.38394889321E+02  0.46348369351E+00 -0.86210982508E+02  0.94375398532E+02  0.00000000000E+00 0. -1.
<mgrwt>
<rscale>  0 0.11600659E+03</rscale>
<asrwt>0</asrwt>
<pdfrwt beam="2">  1        2 0.87327413E-01 0.12562203E+03</pdfrwt>
<pdfrwt beam="1">  1       -2 0.34413696E-02 0.12562203E+03</pdfrwt>
<totfact> 0.17425217E+04</totfact>
</mgrwt>
</event>
<event>
 7    1  0.1446636E-005  0.1290770E+03  0.7546771E-02  0.1243444E+00
          1   -1    0    0  501    0  0.00000000000E+00  0.00000000000E+00  0.17452524668E+03  0.17452524668E+03  0.00000000000E+00 0. -1.
         -1   -1    0    0    0  501 -0.00000000000E+00 -0.00000000000E+00 -0.79870677578E+02  0.79870677578E+02  0.00000000000E+00 0.  1.
         23    2    1    2    0    0 -0.28411772396E+02 -0.15072761970E+02  0.79464902696E+02  0.12442823454E+03  0.90184798204E+02 0.  0.
          5    1    1    2  502    0 -0.28516978037E+02 -0.38095349639E+02 -0.81660234881E+01  0.48510283859E+02  0.47000000000E+01 0.  1.
         -5    1    1    2    0  502  0.56928750433E+02  0.53168111609E+02  0.23355689893E+02  0.81457405853E+02  0.47000000000E+01 0.  1.
        -11    1    3    3    0    0  0.17400153929E+02  0.18233117405E+02  0.59081628574E+02  0.64232785725E+02  0.00000000000E+00 0. -1.
         11    1    3    3    0    0 -0.45811926324E+02 -0.33305879375E+02  0.20383274122E+02  0.60195448818E+02  0.00000000000E+00 0.  1.
<mgrwt>
<rscale>  0 0.11978965E+03</rscale>
<asrwt>0</asrwt>
<pdfrwt beam="1">  1        1 0.26850038E-01 0.12907701E+03</pdfrwt>
<pdfrwt beam="2">  1       -1 0.12287797E-01 0.12907701E+03</pdfrwt>
<totfact> 0.72765941E+03</totfact>
</mgrwt>
</event>
<event>
 7    1  0.1446636E-005  0.1259851E+03  0.7546771E-02  0.1248614E+00
          3   -1    0    0  501    0  0.00000000000E+00  0.00000000000E+00  0.89238436155E+02  0.89238436155E+02  0.00000000000E+00 0. -1.
         -3   -1    0    0    0  501 -0.00000000000E+00 -0.00000000000E+00 -0.13662785040E+03  0.13662785040E+03  0.00000000000E+00 0.  1.
         23    2    1    2    0    0 -0.15668500069E+02  0.19461090975E-01 -0.49929127504E+01  0.92938866502E+02  0.91472408167E+02 0.  0.
          5    1    1    2  502    0  0.44631233274E+02  0.53487408670E+01  0.30257213921E+02  0.54388831636E+02  0.47000000000E+01 0. -1.
         -5    1    1    2    0  502 -0.28962733205E+02 -0.53682019580E+01 -0.72653715418E+02  0.78538588420E+02  0.47000000000E+01 0. -1.
        -11    1    3    3    0    0 -0.75242546057E+01 -0.71169677156E+01 -0.47735407007E+02  0.48846030739E+02  0.00000000000E+00 0.  1.
         11    1    3    3    0    0 -0.81442454636E+01  0.71364288066E+01  0.42742494257E+02  0.44092835763E+02  0.00000000000E+00 0. -1.
<mgrwt>
<rscale>  0 0.11671636E+03</rscale>
<asrwt>0</asrwt>
<pdfrwt beam="1">  1        3 0.13728990E-01 0.12598506E+03</pdfrwt>
<pdfrwt beam="2">  1       -3 0.21019669E-01 0.12598506E+03</pdfrwt>
<totfact> 0.20079341E+03</totfact>
</mgrwt>
</event>
<event>
 7    1  0.1446636E-005  0.1470538E+03  0.7546771E-02  0.1213925E+00
         -1   -1    0    0    0  501 -0.00000000000E+00  0.00000000000E+00  0.16674872506E+03  0.16674872506E+03  0.00000000000E+00 0.  1.
          1   -1    0    0  501    0  0.00000000000E+00 -0.00000000000E+00 -0.12181126083E+03  0.12181126083E+03  0.00000000000E+00 0. -1.
         23    2    1    2    0    0 -0.46941962670E+02  0.61619593566E+02 -0.30731342553E+02  0.12317984313E+03  0.90710176755E+02 0.  0.
          5    1    1    2  502    0  0.70245931240E+02 -0.84426755826E+01  0.80083970096E+02  0.10696402149E+03  0.47000000000E+01 0. -1.
         -5    1    1    2    0  502 -0.23303968569E+02 -0.53176917984E+02 -0.44151633083E+01  0.58416121271E+02  0.47000000000E+01 0. -1.
        -11    1    3    3    0    0  0.11960867899E+02  0.56602066739E+02 -0.31274338178E+01  0.57936492492E+02  0.00000000000E+00 0.  1.
         11    1    3    3    0    0 -0.58902830569E+02  0.50175268272E+01 -0.27603908735E+02  0.65243350634E+02  0.00000000000E+00 0. -1.
<mgrwt>
<rscale>  0 0.13955759E+03</rscale>
<asrwt>0</asrwt>
<pdfrwt beam="2">  1        1 0.18740194E-01 0.14705381E+03</pdfrwt>
<pdfrwt beam="1">  1       -1 0.25653650E-01 0.14705381E+03</pdfrwt>
<totfact> 0.35802691E+03</totfact>
</mgrwt>
</event>
<event>
 7    1  0.1446636E-005  0.1627929E+03  0.7546771E-02  0.1193215E+00
          1   -1    0    0  501    0  0.00000000000E+00  0.00000000000E+00  0.51713065181E+03  0.51713065181E+03  0.00000000000E+00 0. -1.
         -1   -1    0    0    0  501 -0.00000000000E+00 -0.00000000000E+00 -0.43761628561E+02  0.43761628561E+02  0.00000000000E+00 0.  1.
         23    2    1    2    0    0  0.16211676508E+02 -0.10303035000E+03  0.23414382284E+03  0.27153052672E+03  0.89595902208E+02 0.  0.
          5    1    1    2  502    0 -0.30825416472E+01  0.13064228704E+03  0.20570918071E+03  0.24375246922E+03  0.47000000000E+01 0. -1.
         -5    1    1    2    0  502 -0.13129134861E+02 -0.27611937035E+02  0.33516019708E+02  0.45609284428E+02  0.47000000000E+01 0. -1.
        -11    1    3    3    0    0 -0.26157522269E+02 -0.84743756738E+02  0.12731497020E+03  0.15516063262E+03  0.00000000000E+00 0. -1.
         11    1    3    3    0    0  0.42369198777E+02 -0.18286593266E+02  0.10682885264E+03  0.11636989411E+03  0.00000000000E+00 0.  1.
<mgrwt>
<rscale>  0 0.15606306E+03</rscale>
<asrwt>0</asrwt>
<pdfrwt beam="1">  1        1 0.79558557E-01 0.16279290E+03</pdfrwt>
<pdfrwt beam="2">  1       -1 0.67325586E-02 0.16279290E+03</pdfrwt>
<totfact> 0.47152741E+03</totfact>
</mgrwt>
</event>
<event>
 7    1  0.1446636E-005  0.1447845E+03  0.7546771E-02  0.1217557E+00
          1   -1    0    0  501    0  0.00000000000E+00  0.00000000000E+00  0.16841368162E+03  0.16841368162E+03  0.00000000000E+00 0. -1.
         -1   -1    0    0    0  501 -0.00000000000E+00 -0.00000000000E+00 -0.11512961088E+03  0.11512961088E+03  0.00000000000E+00 0.  1.
         23    2    1    2    0    0  0.25385041744E+02  0.68510196941E+02  0.73863922849E+02  0.13730350411E+03  0.89768177614E+02 0.  0.
          5    1    1    2  502    0 -0.74974928912E+02 -0.50839384034E+02 -0.22110341537E+02  0.93364019500E+02  0.47000000000E+01 0. -1.
         -5    1    1    2    0  502  0.49589887168E+02 -0.17670812907E+02  0.15304894326E+01  0.52875768893E+02  0.47000000000E+01 0. -1.
        -11    1    3    3    0    0  0.48389564047E+01  0.70737084760E+02  0.11785228986E+02  0.71875185437E+02  0.00000000000E+00 0.  1.
         11    1    3    3    0    0  0.20546085340E+02 -0.22268878184E+01  0.62078693863E+02  0.65428318669E+02  0.00000000000E+00 0. -1.
<mgrwt>
<rscale>  0 0.13690361E+03</rscale>
<asrwt>0</asrwt>
<pdfrwt beam="1">  1        1 0.25909797E-01 0.14478448E+03</pdfrwt>
<pdfrwt beam="2">  1       -1 0.17712248E-01 0.14478448E+03</pdfrwt>
<totfact> 0.43233629E+03</totfact>
</mgrwt>
</event>
<event>
 7    1  0.1446636E-005  0.1254322E+03  0.7546771E-02  0.1249878E+00
          2   -1    0    0  501    0  0.00000000000E+00  0.00000000000E+00  0.15443712392E+03  0.15443712392E+03  0.00000000000E+00 0. -1.
         -2   -1    0    0    0  501 -0.00000000000E+00 -0.00000000000E+00 -0.76757479289E+02  0.76757479289E+02  0.00000000000E+00 0.  1.
         23    2    1    2    0    0  0.48365996892E+01  0.92953227287E+01  0.41535785735E+02  0.10065868359E+03  0.91088711507E+02 0.  0.
          5    1    1    2  502    0 -0.35484429112E+02  0.48231880568E+02  0.16195440442E+02  0.62208048544E+02  0.47000000000E+01 0. -1.
         -5    1    1    2    0  502  0.30647829423E+02 -0.57527203296E+02  0.19948418458E+02  0.68327871081E+02  0.47000000000E+01 0. -1.
        -11    1    3    3    0    0  0.36489032667E+00  0.45033835005E+02 -0.84165050512E+00  0.45043177238E+02  0.00000000000E+00 0. -1.
         11    1    3    3    0    0  0.44717093625E+01 -0.35738512276E+02  0.42377436240E+02  0.55615506350E+02  0.00000000000E+00 0.  1.
<mgrwt>
<rscale>  0 0.11598096E+03</rscale>
<asrwt>0</asrwt>
<pdfrwt beam="1">  1        2 0.23759557E-01 0.12543224E+03</pdfrwt>
<pdfrwt beam="2">  1       -2 0.11808843E-01 0.12543224E+03</pdfrwt>
<totfact> 0.10799491E+04</totfact>
</mgrwt>
</event>
<event>
 7    1  0.1446636E-005  0.1559192E+03  0.7546771E-02  0.1202446E+00
          1   -1    0    0  501    0  0.00000000000E+00  0.00000000000E+00  0.68427286143E+02  0.68427286143E+02  0.00000000000E+00 0. -1.
         -1   -1    0    0    0  501 -0.00000000000E+00 -0.00000000000E+00 -0.86864753696E+03  0.86864753696E+03  0.00000000000E+00 0.  1.
         23    2    1    2    0    0 -0.69507136455E+01  0.92942907648E+02 -0.64427532022E+01  0.12812888729E+03  0.87685838010E+02 0.  0.
          5    1    1    2  502    0  0.24290815943E+02 -0.78712266049E+02 -0.77482517341E+03  0.77920588032E+03  0.47000000000E+01 0.  1.
         -5    1    1    2    0  502 -0.17340102297E+02 -0.14230641599E+02 -0.18952324196E+02  0.29740055488E+02  0.47000000000E+01 0.  1.
        -11    1    3    3    0    0 -0.45031500073E+02  0.29069567257E+02 -0.31957534312E+01  0.53694399888E+02  0.00000000000E+00 0.  1.
         11    1    3    3    0    0  0.38080786427E+02  0.63873340391E+02 -0.32469997709E+01  0.74434487404E+02  0.00000000000E+00 0. -1.
<mgrwt>
<rscale>  0 0.14840520E+03</rscale>
<asrwt>0</asrwt>
<pdfrwt beam="1">  1        1 0.10527275E-01 0.15591925E+03</pdfrwt>
<pdfrwt beam="2">  1       -1 0.13363809E+00 0.15591925E+03</pdfrwt>
<totfact> 0.30606973E+02</totfact>
</mgrwt>
</event>
<event>
 7    1  0.1446636E-005  0.1291287E+03  0.7546771E-02  0.1243498E+00
         -2   -1    0    0    0  501 -0.00000000000E+00  0.00000000000E+00  0.39095218100E+02  0.39095218100E+02  0.00000000000E+00 0.  1.
          2   -1    0    0  501    0  0.00000000000E+00 -0.00000000000E+00 -0.53029933627E+03  0.53029933627E+03  0.00000000000E+00 0. -1.
         23    2    1    2    0    0 -0.24999095463E+02  0.20569313834E+02 -0.40014016858E+03  0.41138547209E+03  0.89876585885E+02 0.  0.
          5    1    1    2  502    0 -0.12584121368E+02  0.43974672576E+02 -0.88309066749E+01  0.46821008655E+02  0.47000000000E+01 0. -1.
         -5    1    1    2    0  502  0.37583216831E+02 -0.64543986411E+02 -0.82233042917E+02  0.11118807363E+03  0.47000000000E+01 0. -1.
        -11    1    3    3    0    0  0.23402931776E+02  0.31185032910E+02 -0.10282106631E+03  0.10996533622E+03  0.00000000000E+00 0.  1.
         11    1    3    3    0    0 -0.48402027240E+02 -0.10615719075E+02 -0.29731910226E+03  0.30142013586E+03  0.00000000000E+00 0. -1.
<mgrwt>
<rscale>  0 0.11975711E+03</rscale>
<asrwt>0</asrwt>
<pdfrwt beam="2">  1        2 0.81584511E-01 0.12912872E+03</pdfrwt>
<pdfrwt beam="1">  1       -2 0.60146491E-02 0.12912872E+03</pdfrwt>
<totfact> 0.81840263E+03</totfact>
</mgrwt>
</event>
<event>
 7    1  0.1446636E-005  0.2506252E+03  0.7546771E-02  0.1115430E+00
          1   -1    0    0  501    0  0.00000000000E+00  0.00000000000E+00  0.54454074714E+03  0.54454074714E+03  0.00000000000E+00 0. -1.
         -1   -1    0    0    0  501 -0.00000000000E+00 -0.00000000000E+00 -0.11112715429E+03  0.11112715429E+03  0.00000000000E+00 0.  1.
         23    2    1    2    0    0  0.28432588862E+02 -0.21540326096E+03  0.15810948264E+03  0.28337049732E+03  0.89962510590E+02 0.  0.
          5    1    1    2  502    0 -0.68512712923E+02  0.18263352318E+03  0.18963086882E+03  0.27208629519E+03  0.47000000000E+01 0. -1.
         -5    1    1    2    0  502  0.40080124061E+02  0.32769737776E+02  0.85673241390E+02  0.10021110891E+03  0.47000000000E+01 0. -1.
        -11    1    3    3    0    0  0.18270050590E+02 -0.22150713460E+03  0.14351117364E+03  0.26456504378E+03  0.00000000000E+00 0.  1.
         11    1    3    3    0    0  0.10162538272E+02  0.61038736422E+01  0.14598308996E+02  0.18805453547E+02  0.00000000000E+00 0. -1.
<mgrwt>
<rscale>  0 0.24666609E+03</rscale>
<asrwt>0</asrwt>
<pdfrwt beam="1">  1        1 0.83775498E-01 0.25062523E+03</pdfrwt>
<pdfrwt beam="2">  1       -1 0.17096486E-01 0.25062523E+03</pdfrwt>
<totfact> 0.10487252E+03</totfact>
</mgrwt>
</event>
<event>
 7    1  0.1495739E-005  0.2130268E+03  0.7546771E-02  0.1139191E+00
          1   -1    0    0  501    0  0.00000000000E+00  0.00000000000E+00  0.31607156520E+03  0.31607156520E+03  0.00000000000E+00 0.  1.
         -1   -1    0    0    0  501 -0.00000000000E+00 -0.00000000000E+00 -0.35894090581E+02  0.35894090581E+02  0.00000000000E+00 0. -1.
         23    2    1    2    0    0  0.40161702179E+01  0.20538944182E+02  0.11473235436E+03  0.14355541117E+03  0.83705824699E+02 0.  0.
          5    1    1    2  502    0 -0.49319934278E+02 -0.49105821120E+02  0.11604358264E+03  0.13539586647E+03  0.47000000000E+01 0. -1.
         -5    1    1    2    0  502  0.45303764060E+02  0.28566876938E+02  0.49401537623E+02  0.73014378142E+02  0.47000000000E+01 0. -1.
        -11    1    3    3    0    0 -0.19580287899E+02  0.21778429254E+02  0.11624564599E+03  0.11987801244E+03  0.00000000000E+00 0.  1.
         11    1    3    3    0    0  0.23596458117E+02 -0.12394850723E+01 -0.15132916359E+01  0.23677398727E+02  0.00000000000E+00 0. -1.
<mgrwt>
<rscale>  0 0.21302677E+03</rscale>
<asrwt>0</asrwt>
<pdfrwt beam="1">  1        1 0.48626393E-01 0.21302677E+03</pdfrwt>
<pdfrwt beam="2">  1       -1 0.55221680E-02 0.21302677E+03</pdfrwt>
<totfact> 0.12115662E+04</totfact>
</mgrwt>
</event>
<event>
 7    1  0.1446636E-005  0.1745214E+03  0.7546771E-02  0.1190000E+00
          2   -1    0    0  501    0  0.00000000000E+00  0.00000000000E+00  0.27979692994E+03  0.27979692994E+03  0.00000000000E+00 0. -1.
         -2   -1    0    0    0  501 -0.00000000000E+00 -0.00000000000E+00 -0.80282837081E+02  0.80282837081E+02  0.00000000000E+00 0.  1.
         23    2    1    2    0    0  0.74160214545E+02  0.25432511159E+02  0.11545046482E+03  0.16636754805E+03  0.90569316940E+02 0.  0.
          5    1    1    2  502    0 -0.61574107652E+02 -0.85880138523E+02  0.78134962839E+02  0.13150639279E+03  0.47000000000E+01 0. -1.
         -5    1    1    2    0  502 -0.12586106893E+02  0.60447627365E+02  0.59286651999E+01  0.62205826188E+02  0.47000000000E+01 0.  1.
        -11    1    3    3    0    0 -0.58136786864E+01  0.19173686921E+02 -0.59118486999E+01  0.20889688486E+02  0.00000000000E+00 0.  1.
         11    1    3    3    0    0  0.79973893231E+02  0.62588242379E+01  0.12136231352E+03  0.14547785956E+03  0.00000000000E+00 0. -1.
<mgrwt>
<rscale>  0 0.15885124E+03</rscale>
<asrwt>0</asrwt>
<pdfrwt beam="1">  1        2 0.43045681E-01 0.17452143E+03</pdfrwt>
<pdfrwt beam="2">  1       -2 0.12351206E-01 0.17452143E+03</pdfrwt>
<totfact> 0.54019065E+03</totfact>
</mgrwt>
</event>
<event>
 7    1  0.1446636E-005  0.1447831E+03  0.7546771E-02  0.1216879E+00
          2   -1    0    0  501    0  0.00000000000E+00  0.00000000000E+00  0.10141238566E+03  0.10141238566E+03  0.00000000000E+00 0. -1.
         -2   -1    0    0    0  501 -0.00000000000E+00 -0.00000000000E+00 -0.17333691764E+03  0.17333691764E+03  0.00000000000E+00 0.  1.
         23    2    1    2    0    0 -0.70507907892E+02 -0.19134032902E+02 -0.11892698930E+02  0.11801393435E+03  0.91915048398E+02 0.  0.
          5    1    1    2  502    0  0.97916613987E+02 -0.16261892493E+02 -0.46654398232E+02  0.10977629670E+03  0.47000000000E+01 0. -1.
         -5    1    1    2    0  502 -0.27408706095E+02  0.35395925396E+02 -0.13377434823E+02  0.46959072253E+02  0.47000000000E+01 0. -1.
        -11    1    3    3    0    0 -0.90844230656E+02 -0.88099815802E+01 -0.20660819918E+02  0.93579695974E+02  0.00000000000E+00 0.  1.
         11    1    3    3    0    0  0.20336322764E+02 -0.10324051322E+02  0.87681209872E+01  0.24434238374E+02  0.00000000000E+00 0. -1.
<mgrwt>
<rscale>  0 0.13739397E+03</rscale>
<asrwt>0</asrwt>
<pdfrwt beam="1">  1        2 0.15601906E-01 0.14478313E+03</pdfrwt>
<pdfrwt beam="2">  1       -2 0.26667218E-01 0.14478313E+03</pdfrwt>
<totfact> 0.45140614E+03</totfact>
</mgrwt>
</event>
<event>
 7    1  0.1446636E-005  0.2008114E+03  0.7546771E-02  0.1153329E+00
         -1   -1    0    0    0  501 -0.00000000000E+00  0.00000000000E+00  0.20572936843E+03  0.20572936843E+03  0.00000000000E+00 0.  1.
          1   -1    0    0  501    0  0.00000000000E+00 -0.00000000000E+00 -0.27790674577E+03  0.27790674577E+03  0.00000000000E+00 0. -1.
         23    2    1    2    0    0 -0.14966399921E+03  0.47944805803E+02 -0.18006568083E+03  0.25567755303E+03  0.90825902969E+02 0.  0.
          5    1    1    2  502    0 -0.61405473467E+01 -0.19916832883E+02  0.58159288725E+02  0.61959498213E+02  0.47000000000E+01 0.  1.
         -5    1    1    2    0  502  0.15580454655E+03 -0.28027972920E+02  0.49729014771E+02  0.16599906296E+03  0.47000000000E+01 0.  1.
        -11    1    3    3    0    0 -0.39025902283E+02  0.57692079862E+02 -0.81220678624E+02  0.10699624182E+03  0.00000000000E+00 0. -1.
         11    1    3    3    0    0 -0.11063809692E+03 -0.97472740591E+01 -0.98845002206E+02  0.14868131121E+03  0.00000000000E+00 0.  1.
<mgrwt>
<rscale>  0 0.19580278E+03</rscale>
<asrwt>0</asrwt>
<pdfrwt beam="2">  1        1 0.42754884E-01 0.20081140E+03</pdfrwt>
<pdfrwt beam="1">  1       -1 0.31650672E-01 0.20081140E+03</pdfrwt>
<totfact> 0.89934800E+02</totfact>
</mgrwt>
</event>
<event>
 7    1  0.1446636E-005  0.1935927E+03  0.7546771E-02  0.1159824E+00
          2   -1    0    0  501    0  0.00000000000E+00  0.00000000000E+00  0.77834231285E+03  0.77834231285E+03  0.00000000000E+00 0. -1.
         -2   -1    0    0    0  501 -0.00000000000E+00 -0.00000000000E+00 -0.43721844588E+02  0.43721844588E+02  0.00000000000E+00 0.  1.
         23    2    1    2    0    0  0.14201160034E+03  0.41061511249E+02  0.38301434119E+03  0.42068528516E+03  0.91775711670E+02 0.  0.
          5    1    1    2  502    0 -0.66819218174E+01  0.34978047895E+02  0.93381268787E+02  0.10005130321E+03  0.47000000000E+01 0.  1.
         -5    1    1    2    0  502 -0.13532967853E+03 -0.76039559144E+02  0.25822485828E+03  0.30132756907E+03  0.47000000000E+01 0.  1.
        -11    1    3    3    0    0  0.61190099909E+02 -0.20353553572E+02  0.91010654962E+02  0.11154117978E+03  0.00000000000E+00 0. -1.
         11    1    3    3    0    0  0.80821500436E+02  0.61415064821E+02  0.29200368623E+03  0.30914410538E+03  0.00000000000E+00 0.  1.
<mgrwt>
<rscale>  0 0.18849692E+03</rscale>
<asrwt>0</asrwt>
<pdfrwt beam="1">  1        2 0.11974496E+00 0.19359269E+03</pdfrwt>
<pdfrwt beam="2">  1       -2 0.67264382E-02 0.19359269E+03</pdfrwt>
<totfact> 0.44934050E+03</totfact>
</mgrwt>
</event>
<event>
 7    1  0.1446636E-005  0.1569414E+03  0.7546771E-02  0.1199669E+00
         -1   -1    0    0    0  501 -0.00000000000E+00  0.00000000000E+00  0.85857132973E+02  0.85857132973E+02  0.00000000000E+00 0. -1.
          1   -1    0    0  501    0  0.00000000000E+00 -0.00000000000E+00 -0.29600770913E+03  0.29600770913E+03  0.00000000000E+00 0.  1.
         23    2    1    2    0    0 -0.92131540204E+02 -0.22731325230E+02 -0.17682531607E+03  0.22142429837E+03  0.93576672599E+02 0.  0.
          5    1    1    2  502    0  0.32922741680E+02  0.55132261857E+02  0.26977465933E+02  0.69809361015E+02  0.47000000000E+01 0.  1.
         -5    1    1    2    0  502  0.59208798524E+02 -0.32400936627E+02 -0.60302726017E+02  0.90631182724E+02  0.47000000000E+01 0.  1.
        -11    1    3    3    0    0 -0.64105734811E+00 -0.19022218048E+02 -0.10030381881E+03  0.10209364231E+03  0.00000000000E+00 0.  1.
         11    1    3    3    0    0 -0.91490482856E+02 -0.37091071821E+01 -0.76521497269E+02  0.11933065605E+03  0.00000000000E+00 0. -1.
<mgrwt>
<rscale>  0 0.15065659E+03</rscale>
<asrwt>0</asrwt>
<pdfrwt beam="2">  1        1 0.45539647E-01 0.15694137E+03</pdfrwt>
<pdfrwt beam="1">  1       -1 0.13208790E-01 0.15694137E+03</pdfrwt>
<totfact> 0.34142323E+03</totfact>
</mgrwt>
</event>
<event>
 7    1  0.1446636E-005  0.1781768E+03  0.7546771E-02  0.1175038E+00
          2   -1    0    0  501    0  0.00000000000E+00  0.00000000000E+00  0.10510758193E+03  0.10510758193E+03  0.00000000000E+00 0. -1.
         -2   -1    0    0    0  501 -0.00000000000E+00 -0.00000000000E+00 -0.28236186270E+03  0.28236186270E+03  0.00000000000E+00 0.  1.
         23    2    1    2    0    0  0.60552162407E+02  0.11159910223E+03 -0.39430010557E+02  0.16220849084E+03  0.92929784133E+02 0.  0.
          5    1    1    2  502    0  0.22516287389E+02  0.14296673513E+02 -0.24808151556E+02  0.36727543546E+02  0.47000000000E+01 0. -1.
         -5    1    1    2    0  502 -0.83068449797E+02 -0.12589577574E+03 -0.11301611866E+03  0.18853341024E+03  0.47000000000E+01 0. -1.
        -11    1    3    3    0    0  0.31239968237E+01  0.56649337445E+02  0.22918565738E+02  0.61189602422E+02  0.00000000000E+00 0. -1.
         11    1    3    3    0    0  0.57428165583E+02  0.54949764782E+02 -0.62348576295E+02  0.10101888842E+03  0.00000000000E+00 0.  1.
<mgrwt>
<rscale>  0 0.17272305E+03</rscale>
<asrwt>0</asrwt>
<pdfrwt beam="1">  1        2 0.16170397E-01 0.17817679E+03</pdfrwt>
<pdfrwt beam="2">  1       -2 0.43440286E-01 0.17817679E+03</pdfrwt>
<totfact> 0.17775901E+03</totfact>
</mgrwt>
</event>
<event>
 7    1  0.1446636E-005  0.1269443E+03  0.7546771E-02  0.1246488E+00
          3   -1    0    0  501    0  0.00000000000E+00  0.00000000000E+00  0.25436719303E+02  0.25436719303E+02  0.00000000000E+00 0. -1.
         -3   -1    0    0    0  501 -0.00000000000E+00 -0.00000000000E+00 -0.11491463263E+04  0.11491463263E+04  0.00000000000E+00 0.  1.
         23    2    1    2    0    0 -0.16347948389E+02  0.14346163792E+02 -0.82230683630E+02  0.12539612362E+03  0.92137042809E+02 0.  0.
          5    1    1    2  502    0 -0.52456622280E+02 -0.22823049393E+02 -0.45499657664E+03  0.45860283859E+03  0.47000000000E+01 0. -1.
         -5    1    1    2    0  502  0.68804570669E+02  0.84768856005E+01 -0.58648234667E+03  0.59058408334E+03  0.47000000000E+01 0. -1.
        -11    1    3    3    0    0  0.26635993567E+01 -0.26255014785E+02 -0.75603747452E+02  0.80077132764E+02  0.00000000000E+00 0.  1.
         11    1    3    3    0    0 -0.19011547746E+02  0.40601178577E+02 -0.66269361782E+01  0.45318990861E+02  0.00000000000E+00 0. -1.
<mgrwt>
<rscale>  0 0.11796748E+03</rscale>
<asrwt>0</asrwt>
<pdfrwt beam="1">  1        3 0.39133426E-02 0.12694428E+03</pdfrwt>
<pdfrwt beam="2">  1       -3 0.17679169E+00 0.12694428E+03</pdfrwt>
<totfact> 0.17536692E+02</totfact>
</mgrwt>
</event>
<event>
 7    1  0.1446636E-005  0.1368225E+03  0.7546771E-02  0.1229513E+00
         -2   -1    0    0    0  501 -0.00000000000E+00  0.00000000000E+00  0.52095186717E+02  0.52095186717E+02  0.00000000000E+00 0.  1.
          2   -1    0    0  501    0  0.00000000000E+00 -0.00000000000E+00 -0.29762979996E+03  0.29762979996E+03  0.00000000000E+00 0. -1.
         23    2    1    2    0    0 -0.39742248446E+02  0.38920448287E+02 -0.14412832045E+03  0.17942049168E+03  0.91238656682E+02 0.  0.
          5    1    1    2  502    0  0.84348616876E+01 -0.10329407661E+01 -0.11786192264E+03  0.11826130672E+03  0.47000000000E+01 0.  1.
         -5    1    1    2    0  502  0.31307386759E+02 -0.37887507521E+02  0.16455629852E+02  0.52043188273E+02  0.47000000000E+01 0.  1.
        -11    1    3    3    0    0 -0.23430939681E+02  0.97717139123E+01  0.56120983252E+01  0.25999826436E+02  0.00000000000E+00 0.  1.
         11    1    3    3    0    0 -0.16311308766E+02  0.29148734375E+02 -0.14974041878E+03  0.15342066525E+03  0.00000000000E+00 0. -1.
<mgrwt>
<rscale>  0 0.12862350E+03</rscale>
<asrwt>0</asrwt>
<pdfrwt beam="2">  1        2 0.45789198E-01 0.13682246E+03</pdfrwt>
<pdfrwt beam="1">  1       -2 0.80146444E-02 0.13682246E+03</pdfrwt>
<totfact> 0.98463921E+03</totfact>
</mgrwt>
</event>
<event>
 7    1  0.1446636E-005  0.1257977E+03  0.7546771E-02  0.1241546E+00
         -2   -1    0    0    0  501 -0.00000000000E+00  0.00000000000E+00  0.57404069841E+02  0.57404069841E+02  0.00000000000E+00 0. -1.
          2   -1    0    0  501    0  0.00000000000E+00 -0.00000000000E+00 -0.31387096627E+03  0.31387096627E+03  0.00000000000E+00 0.  1.
         23    2    1    2    0    0 -0.10358989553E+02 -0.96214931142E+01 -0.21228498209E+03  0.23794427700E+03  0.10654897251E+03 0.  0.
          5    1    1    2  502    0 -0.57286542800E+02  0.72066422592E+01 -0.19255722753E+02  0.61045528398E+02  0.47000000000E+01 0.  1.
         -5    1    1    2    0  502  0.67645532353E+02  0.24148508550E+01 -0.24926191587E+02  0.72285230712E+02  0.47000000000E+01 0.  1.
        -11    1    3    3    0    0 -0.18326305475E+02 -0.54141438090E+02 -0.81389320817E+02  0.99455368553E+02  0.00000000000E+00 0. -1.
         11    1    3    3    0    0  0.79673159221E+01  0.44519944976E+02 -0.13089566127E+03  0.13848890845E+03  0.00000000000E+00 0.  1.
<mgrwt>
<rscale>  0 0.12094536E+03</rscale>
<asrwt>0</asrwt>
<pdfrwt beam="2">  1        2 0.48287841E-01 0.12579765E+03</pdfrwt>
<pdfrwt beam="1">  1       -2 0.88313954E-02 0.12579765E+03</pdfrwt>
<totfact> 0.79607087E+03</totfact>
</mgrwt>
</event>
<event>
 7    1  0.1446636E-005  0.1346736E+03  0.7546771E-02  0.1233182E+00
          2   -1    0    0  501    0  0.00000000000E+00  0.00000000000E+00  0.30205659022E+02  0.30205659022E+02  0.00000000000E+00 0. -1.
         -2   -1    0    0    0  501 -0.00000000000E+00 -0.00000000000E+00 -0.69066111706E+03  0.69066111706E+03  0.00000000000E+00 0.  1.
         23    2    1    2    0    0  0.29037427250E+02  0.40963486715E+02 -0.99091385956E+02  0.14357430221E+03  0.90957671794E+02 0.  0.
          5    1    1    2  502    0 -0.25986533458E+02  0.42992639636E+02 -0.21984903289E+03  0.22556452346E+03  0.47000000000E+01 0.  1.
         -5    1    1    2    0  502 -0.30508937914E+01 -0.83956126351E+02 -0.34151503920E+03  0.35172795042E+03  0.47000000000E+01 0.  1.
        -11    1    3    3    0    0 -0.19238071350E+02  0.81835385089E+01  0.73719649560E+01  0.22167985003E+02  0.00000000000E+00 0. -1.
         11    1    3    3    0    0  0.48275498599E+02  0.32779948206E+02 -0.10646335091E+03  0.12140631720E+03  0.00000000000E+00 0.  1.
<mgrwt>
<rscale>  0 0.12621532E+03</rscale>
<asrwt>0</asrwt>
<pdfrwt beam="1">  1        2 0.46470249E-02 0.13467360E+03</pdfrwt>
<pdfrwt beam="2">  1       -2 0.10625555E+00 0.13467360E+03</pdfrwt>
<totfact> 0.12456972E+03</totfact>
</mgrwt>
</event>
<event>
 7    1  0.1446636E-005  0.1587193E+03  0.7546771E-02  0.1195826E+00
         -1   -1    0    0    0  501 -0.00000000000E+00  0.00000000000E+00  0.12781940243E+03  0.12781940243E+03  0.00000000000E+00 0.  1.
          1   -1    0    0  501    0  0.00000000000E+00 -0.00000000000E+00 -0.18349860701E+03  0.18349860701E+03  0.00000000000E+00 0. -1.
         23    2    1    2    0    0 -0.68129859648E+02  0.70157598584E+02 -0.60309234543E+02  0.15253119977E+03  0.10032346045E+03 0.  0.
          5    1    1    2  502    0  0.62387797622E+02 -0.36067627000E+02  0.59630994135E+02  0.93653918610E+02  0.47000000000E+01 0.  1.
         -5    1    1    2    0  502  0.57420620260E+01 -0.34089971584E+02 -0.55000964168E+02  0.65132891064E+02  0.47000000000E+01 0.  1.
        -11    1    3    3    0    0  0.46947083978E+01  0.32037225755E+02 -0.62406048676E+02  0.70306038378E+02  0.00000000000E+00 0. -1.
         11    1    3    3    0    0 -0.72824568046E+02  0.38120372830E+02  0.20968141329E+01  0.82225161387E+02  0.00000000000E+00 0.  1.
<mgrwt>
<rscale>  0 0.15384499E+03</rscale>
<asrwt>0</asrwt>
<pdfrwt beam="2">  1        1 0.28230555E-01 0.15871929E+03</pdfrwt>
<pdfrwt beam="1">  1       -1 0.19664524E-01 0.15871929E+03</pdfrwt>
<totfact> 0.33001652E+03</totfact>
</mgrwt>
</event>
<event>
 7    1  0.1446636E-005  0.1940686E+03  0.7546771E-02  0.1159990E+00
          4   -1    0    0  501    0  0.00000000000E+00  0.00000000000E+00  0.12147133102E+04  0.12147133102E+04  0.00000000000E+00 0. -1.
         -4   -1    0    0    0  501 -0.00000000000E+00 -0.00000000000E+00 -0.30204165679E+02  0.30204165679E+02  0.00000000000E+00 0.  1.
         23    2    1    2    0    0 -0.14306612346E+03 -0.39629583432E+02  0.74260349428E+03  0.76227553901E+03  0.86980619059E+02 0.  0.
          5    1    1    2  502    0  0.28398175423E+02  0.37925741184E+01  0.27723409687E+03  0.27875020081E+03  0.47000000000E+01 0. -1.
         -5    1    1    2    0  502  0.11466794803E+03  0.35837009314E+02  0.16467155338E+03  0.20389173606E+03  0.47000000000E+01 0. -1.
        -11    1    3    3    0    0 -0.10036080959E+03  0.11019081224E+02  0.35614568759E+03  0.37018031153E+03  0.00000000000E+00 0.  1.
         11    1    3    3    0    0 -0.42705313866E+02 -0.50648664656E+02  0.38645780669E+03  0.39209522748E+03  0.00000000000E+00 0. -1.
<mgrwt>
<rscale>  0 0.18831521E+03</rscale>
<asrwt>0</asrwt>
<pdfrwt beam="1">  1        4 0.18687893E+00 0.19406864E+03</pdfrwt>
<pdfrwt beam="2">  1       -4 0.46467957E-02 0.19406864E+03</pdfrwt>
<totfact> 0.83951374E+01</totfact>
</mgrwt>
</event>
<event>
 7    1  0.1446636E-005  0.1998341E+03  0.7546771E-02  0.1154339E+00
          1   -1    0    0  501    0  0.00000000000E+00  0.00000000000E+00  0.84593989975E+02  0.84593989975E+02  0.00000000000E+00 0. -1.
         -1   -1    0    0    0  501 -0.00000000000E+00 -0.00000000000E+00 -0.45719797258E+03  0.45719797258E+03  0.00000000000E+00 0.  1.
         23    2    1    2    0    0  0.84354885269E+02 -0.13112263607E+03 -0.10657654426E+03  0.20906945415E+03  0.89680457817E+02 0.  0.
          5    1    1    2  502    0 -0.24460909933E+02  0.54190318895E+02 -0.12339881611E+02  0.60903936284E+02  0.47000000000E+01 0.  1.
         -5    1    1    2    0  502 -0.59893975336E+02  0.76932317173E+02 -0.25368755674E+03  0.27181857212E+03  0.47000000000E+01 0.  1.
        -11    1    3    3    0    0  0.17646125045E+02 -0.24686428072E+02 -0.72985336782E+02  0.79042171309E+02  0.00000000000E+00 0.  1.
         11    1    3    3    0    0  0.66708760223E+02 -0.10643620800E+03 -0.33591207475E+02  0.13002728284E+03  0.00000000000E+00 0. -1.
<mgrwt>
<rscale>  0 0.19464308E+03</rscale>
<asrwt>0</asrwt>
<pdfrwt beam="1">  1        1 0.13014460E-01 0.19983411E+03</pdfrwt>
<pdfrwt beam="2">  1       -1 0.70338150E-01 0.19983411E+03</pdfrwt>
<totfact> 0.95117660E+02</totfact>
</mgrwt>
</event>
<event>
 7    1  0.1446636E-005  0.1318886E+03  0.7546771E-02  0.1237641E+00
         -1   -1    0    0    0  501 -0.00000000000E+00  0.00000000000E+00  0.36619689200E+03  0.36619689200E+03  0.00000000000E+00 0.  1.
          1   -1    0    0  501    0  0.00000000000E+00 -0.00000000000E+00 -0.55335576423E+02  0.55335576423E+02  0.00000000000E+00 0. -1.
         23    2    1    2    0    0  0.33979348552E+02 -0.24796207660E+02  0.21078678698E+02  0.10314812424E+03  0.91792030129E+02 0.  0.
          5    1    1    2  502    0 -0.58163189262E+02  0.47464845412E+02  0.26820831079E+03  0.27855637870E+03  0.47000000000E+01 0.  1.
         -5    1    1    2    0  502  0.24183840710E+02 -0.22668637752E+02  0.21574326086E+02  0.39827965490E+02  0.47000000000E+01 0.  1.
        -11    1    3    3    0    0  0.22085962689E+02 -0.28940732122E+02 -0.32076800178E+02  0.48520890690E+02  0.00000000000E+00 0. -1.
         11    1    3    3    0    0  0.11893385863E+02  0.41445244618E+01  0.53155478876E+02  0.54627233546E+02  0.00000000000E+00 0.  1.
<mgrwt>
<rscale>  0 0.12336875E+03</rscale>
<asrwt>0</asrwt>
<pdfrwt beam="2">  1        1 0.85131658E-02 0.13188864E+03</pdfrwt>
<pdfrwt beam="1">  1       -1 0.56337982E-01 0.13188864E+03</pdfrwt>
<totfact> 0.25309916E+03</totfact>
</mgrwt>
</event>
<event>
 7    1  0.1446636E-005  0.1382846E+03  0.7546771E-02  0.1227559E+00
          3   -1    0    0  501    0  0.00000000000E+00  0.00000000000E+00  0.11743806684E+03  0.11743806684E+03  0.00000000000E+00 0. -1.
         -3   -1    0    0    0  501 -0.00000000000E+00 -0.00000000000E+00 -0.14846737919E+03  0.14846737919E+03  0.00000000000E+00 0.  1.
         23    2    1    2    0    0 -0.13971019509E+02  0.57455350666E+02  0.34112550066E+02  0.11304574627E+03  0.90107535604E+02 0.  0.
          5    1    1    2  502    0 -0.47711237160E+02 -0.49045741673E+02 -0.95145656676E+01  0.69242067325E+02  0.47000000000E+01 0. -1.
         -5    1    1    2    0  502  0.61682256668E+02 -0.84096089930E+01 -0.55627296748E+02  0.83617632438E+02  0.47000000000E+01 0. -1.
        -11    1    3    3    0    0  0.33277069515E+02  0.35010780104E+02 -0.37872090016E+01  0.48450604031E+02  0.00000000000E+00 0.  1.
         11    1    3    3    0    0 -0.47248089024E+02  0.22444570562E+02  0.37899759068E+02  0.64595142244E+02  0.00000000000E+00 0. -1.
<mgrwt>
<rscale>  0 0.12993043E+03</rscale>
<asrwt>0</asrwt>
<pdfrwt beam="1">  1        3 0.18067395E-01 0.13828458E+03</pdfrwt>
<pdfrwt beam="2">  1       -3 0.22841135E-01 0.13828458E+03</pdfrwt>
<totfact> 0.10980298E+03</totfact>
</mgrwt>
</event>
<event>
 7    1  0.1446636E-005  0.1432717E+03  0.7546771E-02  0.1219385E+00
          1   -1    0    0  501    0  0.00000000000E+00  0.00000000000E+00  0.59916792791E+02  0.59916792791E+02  0.00000000000E+00 0. -1.
         -1   -1    0    0    0  501 -0.00000000000E+00 -0.00000000000E+00 -0.27983608187E+03  0.27983608187E+03  0.00000000000E+00 0.  1.
         23    2    1    2    0    0 -0.48649039218E+02  0.50362623489E+02 -0.11091534409E+03  0.15972886793E+03  0.91148092870E+02 0.  0.
          5    1    1    2  502    0  0.66607452994E+00  0.38706669126E+02 -0.47789611214E+02  0.61681332914E+02  0.47000000000E+01 0.  1.
         -5    1    1    2    0  502  0.47982964689E+02 -0.89069292615E+02 -0.61214333780E+02  0.11834267382E+03  0.47000000000E+01 0.  1.
        -11    1    3    3    0    0 -0.24464221702E+02  0.11277667394E+02  0.11257636727E+02  0.29196203691E+02  0.00000000000E+00 0. -1.
         11    1    3    3    0    0 -0.24184817517E+02  0.39084956096E+02 -0.12217298082E+03  0.13053266424E+03  0.00000000000E+00 0.  1.
<mgrwt>
<rscale>  0 0.13559313E+03</rscale>
<asrwt>0</asrwt>
<pdfrwt beam="1">  1        1 0.92179682E-02 0.14327171E+03</pdfrwt>
<pdfrwt beam="2">  1       -1 0.43051705E-01 0.14327171E+03</pdfrwt>
<totfact> 0.37313757E+03</totfact>
</mgrwt>
</event>
<event>
 7    1  0.1446636E-005  0.1995532E+03  0.7546771E-02  0.1154510E+00
         -1   -1    0    0    0  501 -0.00000000000E+00  0.00000000000E+00  0.11199191863E+03  0.11199191863E+03  0.00000000000E+00 0.  1.
          1   -1    0    0  501    0  0.00000000000E+00 -0.00000000000E+00 -0.33678548029E+03  0.33678548029E+03  0.00000000000E+00 0. -1.
         23    2    1    2    0    0 -0.12453141628E+03 -0.92955399636E+02 -0.15470759360E+03  0.23727437515E+03  0.90641654993E+02 0.  0.
          5    1    1    2  502    0 -0.19665270282E+02  0.22629636588E+02  0.10235127758E+02  0.32026101037E+02  0.47000000000E+01 0.  1.
         -5    1    1    2    0  502  0.14419668657E+03  0.70325763048E+02 -0.80321095815E+02  0.17947692274E+03  0.47000000000E+01 0.  1.
        -11    1    3    3    0    0 -0.90306969672E+01 -0.26984778603E+02  0.55662977534E+01  0.28995093286E+02  0.00000000000E+00 0.  1.
         11    1    3    3    0    0 -0.11550071932E+03 -0.65970621033E+02 -0.16027389136E+03  0.20827928186E+03  0.00000000000E+00 0. -1.
<mgrwt>
<rscale>  0 0.19444778E+03</rscale>
<asrwt>0</asrwt>
<pdfrwt beam="2">  1        1 0.51813151E-01 0.19955322E+03</pdfrwt>
<pdfrwt beam="1">  1       -1 0.17229526E-01 0.19955322E+03</pdfrwt>
<totfact> 0.19260280E+03</totfact>
</mgrwt>
</event>
<event>
 7    1  0.1446636E-005  0.1338684E+03  0.7546771E-02  0.1234236E+00
          1   -1    0    0  501    0  0.00000000000E+00  0.00000000000E+00  0.31908903793E+03  0.31908903793E+03  0.00000000000E+00 0.  1.
         -1   -1    0    0    0  501 -0.00000000000E+00 -0.00000000000E+00 -0.44563108920E+02  0.44563108920E+02  0.00000000000E+00 0. -1.
         23    2    1    2    0    0 -0.46807420299E+02 -0.10257946934E+02  0.13720514919E+03  0.17187693203E+03  0.91762011364E+02 0.  0.
          5    1    1    2  502    0  0.25001840423E+02  0.53174325633E+02  0.13015359607E+03  0.14287984288E+03  0.47000000000E+01 0. -1.
         -5    1    1    2    0  502  0.21805579877E+02 -0.42916378699E+02  0.71671837520E+01  0.48895371942E+02  0.47000000000E+01 0. -1.
        -11    1    3    3    0    0 -0.74023978849E+02 -0.82419159675E+01  0.11334315664E+03  0.13562503376E+03  0.00000000000E+00 0.  1.
         11    1    3    3    0    0  0.27216558550E+02 -0.20160309667E+01  0.23861992543E+02  0.36251898271E+02  0.00000000000E+00 0. -1.
<mgrwt>
<rscale>  0 0.12553496E+03</rscale>
<asrwt>0</asrwt>
<pdfrwt beam="1">  1        1 0.49090620E-01 0.13386835E+03</pdfrwt>
<pdfrwt beam="2">  1       -1 0.68558631E-02 0.13386835E+03</pdfrwt>
<totfact> 0.83819536E+03</totfact>
</mgrwt>
</event>
<event>
 7    1  0.1446636E-005  0.3653347E+03  0.7546771E-02  0.1057519E+00
         -1   -1    0    0    0  501 -0.00000000000E+00  0.00000000000E+00  0.24730276483E+03  0.24730276483E+03  0.00000000000E+00 0.  1.
          1   -1    0    0  501    0  0.00000000000E+00 -0.00000000000E+00 -0.62503955787E+03  0.62503955787E+03  0.00000000000E+00 0. -1.
         23    2    1    2    0    0  0.34186891064E+03  0.31129176251E+02 -0.36156693251E+03  0.50664998245E+03  0.90112043339E+02 0.  0.
          5    1    1    2  502    0 -0.32474988336E+03  0.30489441772E+01 -0.26322458332E+02  0.32586307648E+03  0.47000000000E+01 0. -1.
         -5    1    1    2    0  502 -0.17119027282E+02 -0.34178120428E+02  0.10152597794E+02  0.39829263777E+02  0.47000000000E+01 0. -1.
        -11    1    3    3    0    0  0.10995869663E+03  0.48800351774E+02 -0.14958166826E+03  0.19195589279E+03  0.00000000000E+00 0. -1.
         11    1    3    3    0    0  0.23191021401E+03 -0.17671175523E+02 -0.21198526425E+03  0.31469408965E+03  0.00000000000E+00 0.  1.
<mgrwt>
<rscale>  0 0.36270103E+03</rscale>
<asrwt>0</asrwt>
<pdfrwt beam="2">  1        1 0.96159931E-01 0.36533467E+03</pdfrwt>
<pdfrwt beam="1">  1       -1 0.38046580E-01 0.36533467E+03</pdfrwt>
<totfact> 0.22393423E+02</totfact>
</mgrwt>
</event>
<event>
 7    1  0.1446636E-005  0.1519671E+03  0.7546771E-02  0.1207202E+00
         -2   -1    0    0    0  501 -0.00000000000E+00  0.00000000000E+00  0.30373931139E+02  0.30373931139E+02  0.00000000000E+00 0.  1.
          2   -1    0    0  501    0  0.00000000000E+00 -0.00000000000E+00 -0.63074339085E+03  0.63074339085E+03  0.00000000000E+00 0. -1.
         23    2    1    2    0    0 -0.59873667441E+02  0.62322807215E+02 -0.26162804499E+03  0.28984955558E+03  0.89969675956E+02 0.  0.
          5    1    1    2  502    0  0.53185377406E+02 -0.81659589896E+02 -0.33625954480E+03  0.35012789729E+03  0.47000000000E+01 0.  1.
         -5    1    1    2    0  502  0.66882900344E+01  0.19336782681E+02 -0.24818699179E+01  0.21139869118E+02  0.47000000000E+01 0.  1.
        -11    1    3    3    0    0 -0.48962930641E+02  0.65303794785E+02 -0.26560258830E+03  0.27786091683E+03  0.00000000000E+00 0. -1.
         11    1    3    3    0    0 -0.10910736800E+02 -0.29809875695E+01  0.39745433133E+01  0.11988638745E+02  0.00000000000E+00 0.  1.
<mgrwt>
<rscale>  0 0.14465244E+03</rscale>
<asrwt>0</asrwt>
<pdfrwt beam="2">  1        2 0.97037439E-01 0.15196713E+03</pdfrwt>
<pdfrwt beam="1">  1       -2 0.46729128E-02 0.15196713E+03</pdfrwt>
<totfact> 0.99427116E+03</totfact>
</mgrwt>
</event>
<event>
 7    1  0.1446636E-005  0.1599220E+03  0.7546771E-02  0.1196387E+00
          1   -1    0    0  501    0  0.00000000000E+00  0.00000000000E+00  0.47500903409E+03  0.47500903409E+03  0.00000000000E+00 0. -1.
         -1   -1    0    0    0  501 -0.00000000000E+00 -0.00000000000E+00 -0.65093254409E+02  0.65093254409E+02  0.00000000000E+00 0.  1.
         23    2    1    2    0    0  0.82252859489E+02  0.56428326743E+02  0.33930597948E+03  0.36528584470E+03  0.91408487962E+02 0.  0.
          5    1    1    2  502    0  0.22965069918E+01 -0.22490546938E+02 -0.30745967676E+02  0.38451309136E+02  0.47000000000E+01 0.  1.
         -5    1    1    2    0  502 -0.84549366481E+02 -0.33937779805E+02  0.10135576787E+03  0.13636513466E+03  0.47000000000E+01 0.  1.
        -11    1    3    3    0    0  0.58251875116E+02  0.19921212098E+02  0.30084255426E+03  0.30707715333E+03  0.00000000000E+00 0. -1.
         11    1    3    3    0    0  0.24000984373E+02  0.36507114645E+02  0.38463425222E+02  0.58208691365E+02  0.00000000000E+00 0.  1.
<mgrwt>
<rscale>  0 0.15337443E+03</rscale>
<asrwt>0</asrwt>
<pdfrwt beam="1">  1        1 0.73078311E-01 0.15992200E+03</pdfrwt>
<pdfrwt beam="2">  1       -1 0.10014347E-01 0.15992200E+03</pdfrwt>
<totfact> 0.28831267E+03</totfact>
</mgrwt>
</event>
<event>
 7    1  0.1446636E-005  0.1796960E+03  0.7546771E-02  0.1173206E+00
          1   -1    0    0  501    0  0.00000000000E+00  0.00000000000E+00  0.19033571548E+02  0.19033571548E+02  0.00000000000E+00 0. -1.
         -1   -1    0    0    0  501 -0.00000000000E+00 -0.00000000000E+00 -0.16814256594E+04  0.16814256594E+04  0.00000000000E+00 0.  1.
         23    2    1    2    0    0 -0.12667552949E+03  0.24726428462E+02 -0.52027174590E+03  0.54428903336E+03  0.94391610921E+02 0.  0.
          5    1    1    2  502    0  0.89373096459E+02 -0.50797022907E+02 -0.10292188494E+04  0.10343507228E+04  0.47000000000E+01 0.  1.
         -5    1    1    2    0  502  0.37302433034E+02  0.26070594445E+02 -0.11290149255E+03  0.12181947473E+03  0.47000000000E+01 0.  1.
        -11    1    3    3    0    0 -0.12968233934E+03  0.12832244867E+01 -0.48338279717E+03  0.50047785606E+03  0.00000000000E+00 0.  1.
         11    1    3    3    0    0  0.30068098434E+01  0.23443203975E+02 -0.36888948726E+02  0.43811177297E+02  0.00000000000E+00 0. -1.
<mgrwt>
<rscale>  0 0.17452820E+03</rscale>
<asrwt>0</asrwt>
<pdfrwt beam="1">  1        1 0.29282406E-02 0.17969599E+03</pdfrwt>
<pdfrwt beam="2">  1       -1 0.25868098E+00 0.17969599E+03</pdfrwt>
<totfact> 0.24771384E+02</totfact>
</mgrwt>
</event>
<event>
 7    1  0.1446636E-005  0.2977750E+03  0.7546771E-02  0.1095204E+00
          2   -1    0    0  501    0  0.00000000000E+00  0.00000000000E+00  0.77749317597E+03  0.77749317597E+03  0.00000000000E+00 0. -1.
         -2   -1    0    0    0  501 -0.00000000000E+00 -0.00000000000E+00 -0.96586742566E+02  0.96586742566E+02  0.00000000000E+00 0.  1.
         23    2    1    2    0    0  0.19346170817E+03 -0.10071212245E+03  0.40228440336E+03  0.46628073701E+03  0.89524412195E+02 0.  0.
          5    1    1    2  502    0 -0.22873527515E+03  0.59075518575E+02  0.25645117189E+03  0.34871053405E+03  0.47000000000E+01 0. -1.
         -5    1    1    2    0  502  0.35273566975E+02  0.41636603877E+02  0.22170858149E+02  0.59088647477E+02  0.47000000000E+01 0.  1.
        -11    1    3    3    0    0  0.16996286695E+03 -0.53445014380E+02  0.26624696300E+03  0.32036103230E+03  0.00000000000E+00 0.  1.
         11    1    3    3    0    0  0.23498841220E+02 -0.47267108072E+02  0.13603744036E+03  0.14591970471E+03  0.00000000000E+00 0. -1.
<mgrwt>
<rscale>  0 0.28088971E+03</rscale>
<asrwt>0</asrwt>
<pdfrwt beam="1">  1        2 0.11961433E+00 0.29777498E+03</pdfrwt>
<pdfrwt beam="2">  1       -2 0.14859499E-01 0.29777498E+03</pdfrwt>
<totfact> 0.12805009E+03</totfact>
</mgrwt>
</event>
<event>
 7    1  0.1446636E-005  0.1322178E+03  0.7546771E-02  0.1237176E+00
          1   -1    0    0  501    0  0.00000000000E+00  0.00000000000E+00  0.19595601628E+03  0.19595601628E+03  0.00000000000E+00 0. -1.
         -1   -1    0    0    0  501 -0.00000000000E+00 -0.00000000000E+00 -0.69897733066E+02  0.69897733066E+02  0.00000000000E+00 0.  1.
         23    2    1    2    0    0  0.40716382048E+02 -0.14101023075E+02  0.44685128311E+02  0.11060189839E+03  0.91538825734E+02 0.  0.
          5    1    1    2  502    0  0.15576735003E+02 -0.46401831923E+02  0.25556693057E+02  0.55416597145E+02  0.47000000000E+01 0.  1.
         -5    1    1    2    0  502 -0.56293117051E+02  0.60502854998E+02  0.55816461848E+02  0.99835253811E+02  0.47000000000E+01 0.  1.
        -11    1    3    3    0    0  0.59106545953E+02  0.18640965065E+02  0.18014075908E+02  0.64541275815E+02  0.00000000000E+00 0. -1.
         11    1    3    3    0    0 -0.18390163905E+02 -0.32741988140E+02  0.26671052403E+02  0.46060622576E+02  0.00000000000E+00 0.  1.
<mgrwt>
<rscale>  0 0.12366131E+03</rscale>
<asrwt>0</asrwt>
<pdfrwt beam="1">  1        1 0.30147079E-01 0.13221780E+03</pdfrwt>
<pdfrwt beam="2">  1       -1 0.10753497E-01 0.13221780E+03</pdfrwt>
<totfact> 0.77465818E+03</totfact>
</mgrwt>
</event>
<event>
 7    1  0.1446636E-005  0.1559233E+03  0.7546771E-02  0.1200769E+00
          1   -1    0    0  501    0  0.00000000000E+00  0.00000000000E+00  0.13099082567E+03  0.13099082567E+03  0.00000000000E+00 0. -1.
         -1   -1    0    0    0  501 -0.00000000000E+00 -0.00000000000E+00 -0.18015172336E+03  0.18015172336E+03  0.00000000000E+00 0.  1.
         23    2    1    2    0    0 -0.93182629688E+02 -0.19155559231E+01  0.30346865478E+02  0.13611806220E+03  0.94448519221E+02 0.  0.
          5    1    1    2  502    0  0.46839073931E+02 -0.33631341524E+01  0.29987628159E+02  0.55915627159E+02  0.47000000000E+01 0. -1.
         -5    1    1    2    0  502  0.46343555757E+02  0.52786900755E+01 -0.10949539133E+03  0.11910885967E+03  0.47000000000E+01 0. -1.
        -11    1    3    3    0    0 -0.94216397942E+02 -0.20363581990E+02 -0.46918665486E+01  0.96506055377E+02  0.00000000000E+00 0.  1.
         11    1    3    3    0    0  0.10337682547E+01  0.18448026067E+02  0.35038732027E+02  0.39612006824E+02  0.00000000000E+00 0. -1.
<mgrwt>
<rscale>  0 0.14975958E+03</rscale>
<asrwt>0</asrwt>
<pdfrwt beam="1">  1        1 0.20152435E-01 0.15592334E+03</pdfrwt>
<pdfrwt beam="2">  1       -1 0.27715650E-01 0.15592334E+03</pdfrwt>
<totfact> 0.28784246E+03</totfact>
</mgrwt>
</event>
<event>
 7    1  0.1446636E-005  0.1255639E+03  0.7546771E-02  0.1249601E+00
         -1   -1    0    0    0  501 -0.00000000000E+00  0.00000000000E+00  0.17249020887E+03  0.17249020887E+03  0.00000000000E+00 0.  1.
          1   -1    0    0  501    0  0.00000000000E+00 -0.00000000000E+00 -0.73834024393E+02  0.73834024393E+02  0.00000000000E+00 0. -1.
         23    2    1    2    0    0  0.55759467089E+01 -0.10674863546E+02  0.96504220144E+01  0.92414102924E+02  0.91116364505E+02 0.  0.
          5    1    1    2  502    0  0.51003981736E+01 -0.39988196403E+02  0.93299403966E+02  0.10174447746E+03  0.47000000000E+01 0.  1.
         -5    1    1    2    0  502 -0.10676344882E+02  0.50663059949E+02 -0.42936414997E+01  0.52165652884E+02  0.47000000000E+01 0.  1.
        -11    1    3    3    0    0  0.15250974680E+02 -0.17164144850E+02  0.47528999621E+02  0.52784523320E+02  0.00000000000E+00 0.  1.
         11    1    3    3    0    0 -0.96750279708E+01  0.64892813047E+01 -0.37878577606E+02  0.39629579604E+02  0.00000000000E+00 0. -1.
<mgrwt>
<rscale>  0 0.11614166E+03</rscale>
<asrwt>0</asrwt>
<pdfrwt beam="2">  1        1 0.11359081E-01 0.12556394E+03</pdfrwt>
<pdfrwt beam="1">  1       -1 0.26536955E-01 0.12556394E+03</pdfrwt>
<totfact> 0.64157649E+03</totfact>
</mgrwt>
</event>
<event>
 7    1  0.1446636E-005  0.1330823E+03  0.7546771E-02  0.1238345E+00
         -4   -1    0    0    0  501 -0.00000000000E+00  0.00000000000E+00  0.80751750457E+03  0.80751750457E+03  0.00000000000E+00 0.  1.
          4   -1    0    0  501    0  0.00000000000E+00 -0.00000000000E+00 -0.16423317558E+02  0.16423317558E+02  0.00000000000E+00 0. -1.
         23    2    1    2    0    0 -0.42635227178E+02  0.16532070430E+02  0.35626611421E+03  0.36920314598E+03  0.85406948882E+02 0.  0.
          5    1    1    2  502    0 -0.22145512600E+02  0.12360379994E+02  0.31012538209E+03  0.31119615251E+03  0.47000000000E+01 0. -1.
         -5    1    1    2    0  502  0.64780739777E+02 -0.28892450424E+02  0.12470269072E+03  0.14354152364E+03  0.47000000000E+01 0. -1.
        -11    1    3    3    0    0 -0.39972777598E+02  0.38296111001E+02  0.33164819359E+03  0.33623643375E+03  0.00000000000E+00 0.  1.
         11    1    3    3    0    0 -0.26624495797E+01 -0.21764040571E+02  0.24617920615E+02  0.32966712228E+02  0.00000000000E+00 0. -1.
<mgrwt>
<rscale>  0 0.12292691E+03</rscale>
<asrwt>0</asrwt>
<pdfrwt beam="2">  1        4 0.25266649E-02 0.13308231E+03</pdfrwt>
<pdfrwt beam="1">  1       -4 0.12423343E+00 0.13308231E+03</pdfrwt>
<totfact> 0.59657852E+02</totfact>
</mgrwt>
</event>
<event>
 7    1  0.1446636E-005  0.1308741E+03  0.7546771E-02  0.1239412E+00
         -4   -1    0    0    0  501 -0.00000000000E+00  0.00000000000E+00  0.24532282730E+03  0.24532282730E+03  0.00000000000E+00 0.  1.
          4   -1    0    0  501    0  0.00000000000E+00 -0.00000000000E+00 -0.54450848169E+02  0.54450848169E+02  0.00000000000E+00 0. -1.
         23    2    1    2    0    0  0.35169891273E+02 -0.16297676816E+02  0.71873520446E+02  0.12288763043E+03  0.91831537340E+02 0.  0.
          5    1    1    2  502    0  0.12386087156E+02 -0.24992872964E+02  0.10940960118E+03  0.11300712227E+03  0.47000000000E+01 0. -1.
         -5    1    1    2    0  502 -0.47555978428E+02  0.41290549780E+02  0.95888575074E+01  0.63878922765E+02  0.47000000000E+01 0. -1.
        -11    1    3    3    0    0 -0.16338786866E+02  0.23812832911E+02  0.42298769077E+02  0.51217114649E+02  0.00000000000E+00 0.  1.
         11    1    3    3    0    0  0.51508678139E+02 -0.40110509727E+02  0.29574751369E+02  0.71670515783E+02  0.00000000000E+00 0. -1.
<mgrwt>
<rscale>  0 0.12226143E+03</rscale>
<asrwt>0</asrwt>
<pdfrwt beam="2">  1        4 0.83770537E-02 0.13087414E+03</pdfrwt>
<pdfrwt beam="1">  1       -4 0.37741973E-01 0.13087414E+03</pdfrwt>
<totfact> 0.11419200E+03</totfact>
</mgrwt>
</event>
<event>
 7    1  0.1446636E-005  0.1265788E+03  0.7546771E-02  0.1242549E+00
         -1   -1    0    0    0  501 -0.00000000000E+00  0.00000000000E+00  0.38314340701E+03  0.38314340701E+03  0.00000000000E+00 0.  1.
          1   -1    0    0  501    0  0.00000000000E+00 -0.00000000000E+00 -0.58149049414E+02  0.58149049414E+02  0.00000000000E+00 0. -1.
         23    2    1    2    0    0  0.19937495997E+02 -0.83668402416E+00  0.12501786034E+02  0.10413699924E+03  0.10143971692E+03 0.  0.
          5    1    1    2  502    0  0.42967885176E+02 -0.90176054176E+01  0.22235697507E+03  0.22669863415E+03  0.47000000000E+01 0.  1.
         -5    1    1    2    0  502 -0.62905381173E+02  0.98542894417E+01  0.90135596500E+02  0.11045682305E+03  0.47000000000E+01 0.  1.
        -11    1    3    3    0    0 -0.20512867371E+02 -0.39417381144E+02  0.18053680115E+02  0.47962933915E+02  0.00000000000E+00 0.  1.
         11    1    3    3    0    0  0.40450363367E+02  0.38580697120E+02 -0.55518940808E+01  0.56174065321E+02  0.00000000000E+00 0. -1.
<mgrwt>
<rscale>  0 0.12033277E+03</rscale>
<asrwt>0</asrwt>
<pdfrwt beam="2">  1        1 0.89460078E-02 0.12657881E+03</pdfrwt>
<pdfrwt beam="1">  1       -1 0.58945138E-01 0.12657881E+03</pdfrwt>
<totfact> 0.21715100E+03</totfact>
</mgrwt>
</event>
<event>
 7    1  0.1446636E-005  0.1457216E+03  0.7546771E-02  0.1215321E+00
          1   -1    0    0  501    0  0.00000000000E+00  0.00000000000E+00  0.81759046060E+03  0.81759046060E+03  0.00000000000E+00 0.  1.
         -1   -1    0    0    0  501 -0.00000000000E+00 -0.00000000000E+00 -0.23175642937E+02  0.23175642937E+02  0.00000000000E+00 0. -1.
         23    2    1    2    0    0 -0.49970278853E+02 -0.55769028823E+02  0.47497150138E+03  0.48965527082E+03  0.92504831094E+02 0.  0.
          5    1    1    2  502    0  0.66416360035E+02  0.49730379340E+02  0.96171799538E+02  0.12710369206E+03  0.47000000000E+01 0.  1.
         -5    1    1    2    0  502 -0.16446081182E+02  0.60386494838E+01  0.22327151674E+03  0.22400714065E+03  0.47000000000E+01 0.  1.
        -11    1    3    3    0    0  0.18684362843E+01 -0.59998056999E+02  0.33494528723E+03  0.34028165295E+03  0.00000000000E+00 0.  1.
         11    1    3    3    0    0 -0.51838715137E+02  0.42290281761E+01  0.14002621415E+03  0.14937361787E+03  0.00000000000E+00 0. -1.
<mgrwt>
<rscale>  0 0.13852959E+03</rscale>
<asrwt>0</asrwt>
<pdfrwt beam="1">  1        1 0.12578313E+00 0.14572160E+03</pdfrwt>
<pdfrwt beam="2">  1       -1 0.35654842E-02 0.14572160E+03</pdfrwt>
<totfact> 0.63183013E+03</totfact>
</mgrwt>
</event>
<event>
 7    1  0.1446636E-005  0.1290040E+03  0.7546771E-02  0.1242415E+00
          4   -1    0    0  501    0  0.00000000000E+00  0.00000000000E+00  0.85064694831E+02  0.85064694831E+02  0.00000000000E+00 0.  1.
         -4   -1    0    0    0  501 -0.00000000000E+00 -0.00000000000E+00 -0.15173134775E+03  0.15173134775E+03  0.00000000000E+00 0. -1.
         23    2    1    2    0    0  0.23648052648E+01 -0.31120242189E+02 -0.22882996873E+02  0.10056448239E+03  0.92819835133E+02 0.  0.
          5    1    1    2  502    0  0.30272849941E+02  0.33638111139E+02  0.30597943782E+02  0.54829664673E+02  0.47000000000E+01 0. -1.
         -5    1    1    2    0  502 -0.32637655205E+02 -0.25178689501E+01 -0.74381599831E+02  0.81401895523E+02  0.47000000000E+01 0. -1.
        -11    1    3    3    0    0  0.39745860709E+02 -0.40285186447E+02 -0.16674453885E+01  0.56616340969E+02  0.00000000000E+00 0. -1.
         11    1    3    3    0    0 -0.37381055444E+02  0.91649442584E+01 -0.21215551485E+02  0.43948141419E+02  0.00000000000E+00 0.  1.
<mgrwt>
<rscale>  0 0.12041409E+03</rscale>
<asrwt>0</asrwt>
<pdfrwt beam="1">  1        4 0.13086876E-01 0.12900399E+03</pdfrwt>
<pdfrwt beam="2">  1       -4 0.23343284E-01 0.12900399E+03</pdfrwt>
<totfact> 0.13257721E+03</totfact>
</mgrwt>
</event>
<event>
 7    1  0.1662596E-005  0.1289856E+03  0.7546771E-02  0.1242908E+00
          2   -1    0    0  501    0  0.00000000000E+00  0.00000000000E+00  0.18647647942E+03  0.18647647942E+03  0.00000000000E+00 0. -1.
         -2   -1    0    0    0  501 -0.00000000000E+00 -0.00000000000E+00 -0.70073437105E+02  0.70073437105E+02  0.00000000000E+00 0.  1.
         23    2    1    2    0    0 -0.14803031006E+02  0.28169518726E+02  0.69397048134E+02  0.11926613525E+03  0.91628648449E+02 0.  0.
          5    1    1    2  502    0  0.58917080615E+02  0.32546717500E+01 -0.82512997146E+01  0.59766121033E+02  0.47000000000E+01 0. -1.
         -5    1    1    2    0  502 -0.44114049609E+02 -0.31424190476E+02  0.55257293898E+02  0.77517660239E+02  0.47000000000E+01 0. -1.
        -11    1    3    3    0    0 -0.41249328898E+02  0.28171149266E+02  0.56730991117E+01  0.50272306879E+02  0.00000000000E+00 0.  1.
         11    1    3    3    0    0  0.26446297892E+02 -0.16305393688E-02  0.63723949022E+02  0.68993828375E+02  0.00000000000E+00 0. -1.
<mgrwt>
<rscale>  0 0.12011455E+03</rscale>
<asrwt>0</asrwt>
<pdfrwt beam="1">  1        2 0.28688689E-01 0.12898555E+03</pdfrwt>
<pdfrwt beam="2">  1       -2 0.10780529E-01 0.12898555E+03</pdfrwt>
<totfact> 0.10171912E+04</totfact>
</mgrwt>
</event>
<event>
 7    1  0.1446636E-005  0.2188251E+03  0.7546771E-02  0.1138302E+00
          2   -1    0    0  501    0  0.00000000000E+00  0.00000000000E+00  0.41432778103E+03  0.41432778103E+03  0.00000000000E+00 0. -1.
         -2   -1    0    0    0  501 -0.00000000000E+00 -0.00000000000E+00 -0.11911316480E+03  0.11911316480E+03  0.00000000000E+00 0.  1.
         23    2    1    2    0    0  0.18581701692E+02 -0.17864705554E+03  0.22952651987E+03  0.30496913711E+03  0.89798113421E+02 0.  0.
          5    1    1    2  502    0  0.44389799935E+02  0.11444329068E+03  0.11513577922E+02  0.12337898361E+03  0.47000000000E+01 0. -1.
         -5    1    1    2    0  502 -0.62971501628E+02  0.64203764862E+02  0.54174518441E+02  0.10509282510E+03  0.47000000000E+01 0. -1.
        -11    1    3    3    0    0 -0.14956490679E+02 -0.26926447401E+01  0.46313665205E+02  0.48743230646E+02  0.00000000000E+00 0. -1.
         11    1    3    3    0    0  0.33538192371E+02 -0.17595441080E+03  0.18321285467E+03  0.25622590646E+03  0.00000000000E+00 0.  1.
<mgrwt>
<rscale>  0 0.21417463E+03</rscale>
<asrwt>0</asrwt>
<pdfrwt beam="1">  1        2 0.63742735E-01 0.21882514E+03</pdfrwt>
<pdfrwt beam="2">  1       -2 0.18325102E-01 0.21882514E+03</pdfrwt>
<totfact> 0.18639087E+03</totfact>
</mgrwt>
</event>
<event>
 7    1  0.1446636E-005  0.3103798E+03  0.7546771E-02  0.1081601E+00
          2   -1    0    0  501    0  0.00000000000E+00  0.00000000000E+00  0.78459923532E+03  0.78459923532E+03  0.00000000000E+00 0. -1.
         -2   -1    0    0    0  501 -0.00000000000E+00 -0.00000000000E+00 -0.11976877063E+03  0.11976877063E+03  0.00000000000E+00 0.  1.
         23    2    1    2    0    0  0.14179427400E+03  0.24618492268E+03  0.37826261555E+03  0.48192661778E+03  0.91967528527E+02 0.  0.
          5    1    1    2  502    0  0.19664102484E+02 -0.23353938115E+02  0.53584970187E+02  0.61850807447E+02  0.47000000000E+01 0. -1.
         -5    1    1    2    0  502 -0.16145837649E+03 -0.22283098457E+03  0.23298287896E+03  0.36059058073E+03  0.47000000000E+01 0. -1.
        -11    1    3    3    0    0  0.18010811771E+02  0.10085140072E+02  0.19171132068E+01  0.20731008513E+02  0.00000000000E+00 0.  1.
         11    1    3    3    0    0  0.12378346223E+03  0.23609978261E+03  0.37634550234E+03  0.46119560926E+03  0.00000000000E+00 0. -1.
<mgrwt>
<rscale>  0 0.30739570E+03</rscale>
<asrwt>0</asrwt>
<pdfrwt beam="1">  1        2 0.12070757E+00 0.31037976E+03</pdfrwt>
<pdfrwt beam="2">  1       -2 0.18425965E-01 0.31037976E+03</pdfrwt>
<totfact> 0.88141980E+02</totfact>
</mgrwt>
</event>
<event>
 7    1  0.1446636E-005  0.2170186E+03  0.7546771E-02  0.1139823E+00
         -2   -1    0    0    0  501 -0.00000000000E+00  0.00000000000E+00  0.53162913377E+02  0.53162913377E+02  0.00000000000E+00 0.  1.
          2   -1    0    0  501    0  0.00000000000E+00 -0.00000000000E+00 -0.81170131386E+03  0.81170131386E+03  0.00000000000E+00 0. -1.
         23    2    1    2    0    0 -0.17326376985E+03 -0.38113016434E+02 -0.36516968102E+03  0.41560259832E+03  0.88902687436E+02 0.  0.
          5    1    1    2  502    0  0.78061896893E+02  0.33424701453E+02 -0.31345636361E+03  0.32478893500E+03  0.47000000000E+01 0. -1.
         -5    1    1    2    0  502  0.95201872953E+02  0.46883149804E+01 -0.79912355852E+02  0.12447269391E+03  0.47000000000E+01 0. -1.
        -11    1    3    3    0    0 -0.27972230090E+02  0.26853189545E+02 -0.60323040941E+02  0.71710589967E+02  0.00000000000E+00 0.  1.
         11    1    3    3    0    0 -0.14529153975E+03 -0.64966205978E+02 -0.30484664008E+03  0.34389200836E+03  0.00000000000E+00 0. -1.
<mgrwt>
<rscale>  0 0.21221569E+03</rscale>
<asrwt>0</asrwt>
<pdfrwt beam="2">  1        2 0.12487712E+00 0.21701857E+03</pdfrwt>
<pdfrwt beam="1">  1       -2 0.81789099E-02 0.21701857E+03</pdfrwt>
<totfact> 0.31566172E+03</totfact>
</mgrwt>
</event>
<event>
 7    1  0.1446636E-005  0.1311841E+03  0.7546771E-02  0.1241323E+00
         -1   -1    0    0    0  501 -0.00000000000E+00  0.00000000000E+00  0.29600303186E+03  0.29600303186E+03  0.00000000000E+00 0.  1.
          1   -1    0    0  501    0  0.00000000000E+00 -0.00000000000E+00 -0.59982813744E+02  0.59982813744E+02  0.00000000000E+00 0. -1.
         23    2    1    2    0    0  0.21470744723E+02  0.33535298930E+02  0.11431152537E+02  0.95890617485E+02  0.86479651480E+02 0.  0.
          5    1    1    2  502    0 -0.26018474050E+02 -0.30171110374E+02  0.50503005125E+01  0.40433308402E+02  0.47000000000E+01 0. -1.
         -5    1    1    2    0  502  0.45477293263E+01 -0.33641885558E+01  0.21953876506E+03  0.21966191971E+03  0.47000000000E+01 0. -1.
        -11    1    3    3    0    0  0.13450088748E+02  0.22504532420E+02 -0.37128530436E+02  0.45452025688E+02  0.00000000000E+00 0. -1.
         11    1    3    3    0    0  0.80206559753E+01  0.11030766509E+02  0.48559682973E+02  0.50438591798E+02  0.00000000000E+00 0.  1.
<mgrwt>
<rscale>  0 0.12108156E+03</rscale>
<asrwt>0</asrwt>
<pdfrwt beam="2">  1        1 0.92281254E-02 0.13118414E+03</pdfrwt>
<pdfrwt beam="1">  1       -1 0.45538927E-01 0.13118414E+03</pdfrwt>
<totfact> 0.33538273E+03</totfact>
</mgrwt>
</event>
<event>
 7    1  0.1446636E-005  0.1478103E+03  0.7546771E-02  0.1212105E+00
         -2   -1    0    0    0  501 -0.00000000000E+00  0.00000000000E+00  0.56243350568E+02  0.56243350568E+02  0.00000000000E+00 0.  1.
          2   -1    0    0  501    0  0.00000000000E+00 -0.00000000000E+00 -0.32446515899E+03  0.32446515899E+03  0.00000000000E+00 0. -1.
         23    2    1    2    0    0  0.77116131763E+02 -0.16621257765E+02 -0.12988262474E+03  0.17825948116E+03  0.93186814652E+02 0.  0.
          5    1    1    2  502    0 -0.78929330365E+02 -0.17208151818E+02 -0.25962795005E+02  0.84983035986E+02  0.47000000000E+01 0.  1.
         -5    1    1    2    0  502  0.18131986024E+01  0.33829409583E+02 -0.11237638868E+03  0.11746599242E+03  0.47000000000E+01 0.  1.
        -11    1    3    3    0    0  0.64312862872E+02  0.23939515321E+02 -0.11359461495E+03  0.13271390760E+03  0.00000000000E+00 0.  1.
         11    1    3    3    0    0  0.12803268891E+02 -0.40560773086E+02 -0.16288009787E+02  0.45545573555E+02  0.00000000000E+00 0. -1.
<mgrwt>
<rscale>  0 0.14091333E+03</rscale>
<asrwt>0</asrwt>
<pdfrwt beam="2">  1        2 0.49917719E-01 0.14781028E+03</pdfrwt>
<pdfrwt beam="1">  1       -2 0.86528229E-02 0.14781028E+03</pdfrwt>
<totfact> 0.80211831E+03</totfact>
</mgrwt>
</event>
<event>
 7    1  0.1446636E-005  0.1294619E+03  0.7546771E-02  0.1243123E+00
          2   -1    0    0  501    0  0.00000000000E+00  0.00000000000E+00  0.56217587904E+03  0.56217587904E+03  0.00000000000E+00 0. -1.
         -2   -1    0    0    0  501 -0.00000000000E+00 -0.00000000000E+00 -0.22868421558E+02  0.22868421558E+02  0.00000000000E+00 0.  1.
         23    2    1    2    0    0  0.29241031625E+02  0.16731386351E+02  0.26589231476E+03  0.28252782227E+03  0.89377122850E+02 0.  0.
          5    1    1    2  502    0 -0.36068817105E+02  0.49051671259E+02  0.15832804401E+03  0.16969645118E+03  0.47000000000E+01 0.  1.
         -5    1    1    2    0  502  0.68277854795E+01 -0.65783057610E+02  0.11508709871E+03  0.13282002715E+03  0.47000000000E+01 0.  1.
        -11    1    3    3    0    0 -0.20717374448E+02 -0.10558109141E+02  0.21759132157E+02  0.31845613590E+02  0.00000000000E+00 0.  1.
         11    1    3    3    0    0  0.49958406074E+02  0.27289495491E+02  0.24413318260E+03  0.25068220868E+03  0.00000000000E+00 0. -1.
<mgrwt>
<rscale>  0 0.11998449E+03</rscale>
<asrwt>0</asrwt>
<pdfrwt beam="1">  1        2 0.86488586E-01 0.12946188E+03</pdfrwt>
<pdfrwt beam="2">  1       -2 0.35182191E-02 0.12946188E+03</pdfrwt>
<totfact> 0.17092799E+04</totfact>
</mgrwt>
</event>
<event>
 7    1  0.1446636E-005  0.1323222E+03  0.7546771E-02  0.1238194E+00
          1   -1    0    0  501    0  0.00000000000E+00  0.00000000000E+00  0.42743053951E+03  0.42743053951E+03  0.00000000000E+00 0. -1.
         -1   -1    0    0    0  501 -0.00000000000E+00 -0.00000000000E+00 -0.31595364946E+02  0.31595364946E+02  0.00000000000E+00 0.  1.
         23    2    1    2    0    0 -0.37373587472E+02  0.22049977567E+02  0.19297299589E+03  0.21682303570E+03  0.88829415831E+02 0.  0.
          5    1    1    2  502    0 -0.23419923836E+02 -0.50861664883E+02  0.50365827986E+02  0.75459978902E+02  0.47000000000E+01 0.  1.
         -5    1    1    2    0  502  0.60793511308E+02  0.28811687316E+02  0.15249635069E+03  0.16674288985E+03  0.47000000000E+01 0.  1.
        -11    1    3    3    0    0  0.21459941618E+02 -0.17209321696E+02  0.65508802556E+02  0.71049933567E+02  0.00000000000E+00 0. -1.
         11    1    3    3    0    0 -0.58833529090E+02  0.39259299263E+02  0.12746419333E+03  0.14577310213E+03  0.00000000000E+00 0.  1.
<mgrwt>
<rscale>  0 0.12302168E+03</rscale>
<asrwt>0</asrwt>
<pdfrwt beam="1">  1        1 0.65758540E-01 0.13232221E+03</pdfrwt>
<pdfrwt beam="2">  1       -1 0.48608257E-02 0.13232221E+03</pdfrwt>
<totfact> 0.96838031E+03</totfact>
</mgrwt>
</event>
<event>
 7    1  0.1446636E-005  0.1713856E+03  0.7546771E-02  0.1182805E+00
          2   -1    0    0  501    0  0.00000000000E+00  0.00000000000E+00  0.10141852005E+04  0.10141852005E+04  0.00000000000E+00 0. -1.
         -2   -1    0    0    0  501 -0.00000000000E+00 -0.00000000000E+00 -0.36528845979E+02  0.36528845979E+02  0.00000000000E+00 0.  1.
         23    2    1    2    0    0 -0.11560231131E+03 -0.19598690430E+02  0.75649774668E+03  0.77092101390E+03  0.91007504587E+02 0.  0.
          5    1    1    2  502    0  0.12766237093E+03  0.47235052129E+02  0.15138633347E+03  0.20363875629E+03  0.47000000000E+01 0. -1.
         -5    1    1    2    0  502 -0.12060059619E+02 -0.27636361699E+02  0.69772274343E+02  0.76154276262E+02  0.47000000000E+01 0. -1.
        -11    1    3    3    0    0 -0.12790676375E+03 -0.25138067334E+02  0.72544019332E+03  0.73705870643E+03  0.00000000000E+00 0. -1.
         11    1    3    3    0    0  0.12304452438E+02  0.55393769036E+01  0.31057553357E+02  0.33862307464E+02  0.00000000000E+00 0.  1.
<mgrwt>
<rscale>  0 0.16533256E+03</rscale>
<asrwt>0</asrwt>
<pdfrwt beam="1">  1        2 0.15602847E+00 0.17138556E+03</pdfrwt>
<pdfrwt beam="2">  1       -2 0.56198232E-02 0.17138556E+03</pdfrwt>
<totfact> 0.41565550E+03</totfact>
</mgrwt>
</event>
<event>
 7    1  0.1446636E-005  0.1777622E+03  0.7546771E-02  0.1176151E+00
         -2   -1    0    0    0  501 -0.00000000000E+00  0.00000000000E+00  0.21998114183E+03  0.21998114183E+03  0.00000000000E+00 0.  1.
          2   -1    0    0  501    0  0.00000000000E+00 -0.00000000000E+00 -0.13373588143E+03  0.13373588143E+03  0.00000000000E+00 0. -1.
         23    2    1    2    0    0 -0.18005339024E+02 -0.12509955174E+03 -0.35944170077E+01  0.15454234696E+03  0.88861280053E+02 0.  0.
          5    1    1    2  502    0 -0.27430117575E+02  0.99509933975E+02  0.10152085820E+02  0.10382578271E+03  0.47000000000E+01 0.  1.
         -5    1    1    2    0  502  0.45435456599E+02  0.25589617766E+02  0.79687591586E+02  0.95348893578E+02  0.47000000000E+01 0.  1.
        -11    1    3    3    0    0 -0.51371877202E+01 -0.11289795593E+03  0.29671569423E+02  0.11684494504E+03  0.00000000000E+00 0.  1.
         11    1    3    3    0    0 -0.12868151304E+02 -0.12201595814E+02 -0.33265986431E+02  0.37697401921E+02  0.00000000000E+00 0. -1.
<mgrwt>
<rscale>  0 0.17163742E+03</rscale>
<asrwt>0</asrwt>
<pdfrwt beam="2">  1        2 0.20574751E-01 0.17776216E+03</pdfrwt>
<pdfrwt beam="1">  1       -2 0.33843253E-01 0.17776216E+03</pdfrwt>
<totfact> 0.21575112E+03</totfact>
</mgrwt>
</event>
<event>
 7    1  0.1446636E-005  0.1763809E+03  0.7546771E-02  0.1177240E+00
          2   -1    0    0  501    0  0.00000000000E+00  0.00000000000E+00  0.96402833766E+02  0.96402833766E+02  0.00000000000E+00 0. -1.
         -2   -1    0    0    0  501 -0.00000000000E+00 -0.00000000000E+00 -0.33993393069E+03  0.33993393069E+03  0.00000000000E+00 0.  1.
         23    2    1    2    0    0  0.11448949600E+03  0.48760042799E+02 -0.26332317963E+02  0.15654124229E+03  0.91249016983E+02 0.  0.
          5    1    1    2  502    0 -0.12326113862E+03 -0.83527900343E+01 -0.11260652794E+03  0.16722857869E+03  0.47000000000E+01 0.  1.
         -5    1    1    2    0  502  0.87716426222E+01 -0.40407252765E+02 -0.10459225102E+03  0.11256694348E+03  0.47000000000E+01 0.  1.
        -11    1    3    3    0    0  0.91976043000E+02  0.21380455108E+02 -0.56460289496E+02  0.11002036465E+03  0.00000000000E+00 0.  1.
         11    1    3    3    0    0  0.22513452999E+02  0.27379587692E+02  0.30127971534E+02  0.46520877645E+02  0.00000000000E+00 0. -1.
<mgrwt>
<rscale>  0 0.17058374E+03</rscale>
<asrwt>0</asrwt>
<pdfrwt beam="1">  1        2 0.14831205E-01 0.17638091E+03</pdfrwt>
<pdfrwt beam="2">  1       -2 0.52297527E-01 0.17638091E+03</pdfrwt>
<totfact> 0.13649994E+03</totfact>
</mgrwt>
</event>
<event>
 7    1  0.1446636E-005  0.1529912E+03  0.7546771E-02  0.1205295E+00
          1   -1    0    0  501    0  0.00000000000E+00  0.00000000000E+00  0.17011593408E+03  0.17011593408E+03  0.00000000000E+00 0. -1.
         -1   -1    0    0    0  501 -0.00000000000E+00 -0.00000000000E+00 -0.12733026470E+03  0.12733026470E+03  0.00000000000E+00 0.  1.
         23    2    1    2    0    0 -0.71552410998E+02 -0.51615893178E+02 -0.25499776388E+02  0.12990748728E+03  0.91879098312E+02 0.  0.
          5    1    1    2  502    0  0.85744772905E+02  0.90200122347E+01  0.83286956327E+02  0.11996805323E+03  0.47000000000E+01 0. -1.
         -5    1    1    2    0  502 -0.14192361907E+02  0.42595880943E+02 -0.15001510556E+02  0.47570658276E+02  0.47000000000E+01 0. -1.
        -11    1    3    3    0    0  0.16864663315E+02 -0.21034850108E+02 -0.24372821318E+02  0.36344410943E+02  0.00000000000E+00 0. -1.
         11    1    3    3    0    0 -0.88417074313E+02 -0.30581043070E+02 -0.11269550696E+01  0.93563076334E+02  0.00000000000E+00 0.  1.
<mgrwt>
<rscale>  0 0.14614212E+03</rscale>
<asrwt>0</asrwt>
<pdfrwt beam="1">  1        1 0.26171682E-01 0.15299123E+03</pdfrwt>
<pdfrwt beam="2">  1       -1 0.19589272E-01 0.15299123E+03</pdfrwt>
<totfact> 0.36448545E+03</totfact>
</mgrwt>
</event>
<event>
 7    1  0.1446636E-005  0.2270553E+03  0.7546771E-02  0.1128730E+00
          3   -1    0    0  501    0  0.00000000000E+00  0.00000000000E+00  0.55828001800E+02  0.55828001800E+02  0.00000000000E+00 0. -1.
         -3   -1    0    0    0  501 -0.00000000000E+00 -0.00000000000E+00 -0.23086136067E+03  0.23086136067E+03  0.00000000000E+00 0.  1.
         23    2    1    2    0    0 -0.35414825062E+01 -0.33762731118E+02 -0.80966248898E+02  0.12660948096E+03  0.91224794310E+02 0.  0.
          5    1    1    2  502    0  0.42632468229E+01 -0.47067981138E+02 -0.44856299120E+02  0.65328000831E+02  0.47000000000E+01 0. -1.
         -5    1    1    2    0  502 -0.72176431664E+00  0.80830712256E+02 -0.49210810849E+02  0.94751880677E+02  0.47000000000E+01 0. -1.
        -11    1    3    3    0    0  0.26475442609E+02 -0.24396051114E+02 -0.87390359530E+02  0.94515561206E+02  0.00000000000E+00 0.  1.
         11    1    3    3    0    0 -0.30016925115E+02 -0.93666800036E+01  0.64241106320E+01  0.32093919752E+02  0.00000000000E+00 0. -1.
<mgrwt>
<rscale>  0 0.22705531E+03</rscale>
<asrwt>0</asrwt>
<pdfrwt beam="1">  1        3 0.85889234E-02 0.22705531E+03</pdfrwt>
<pdfrwt beam="2">  1       -3 0.35517132E-01 0.22705531E+03</pdfrwt>
<totfact> 0.18433322E+03</totfact>
</mgrwt>
</event>
<event>
 7    1  0.1446636E-005  0.1337455E+03  0.7546771E-02  0.1239387E+00
         -1   -1    0    0    0  501 -0.00000000000E+00  0.00000000000E+00  0.93654044344E+02  0.93654044344E+02  0.00000000000E+00 0.  1.
          1   -1    0    0  501    0  0.00000000000E+00 -0.00000000000E+00 -0.20016251494E+03  0.20016251494E+03  0.00000000000E+00 0. -1.
         23    2    1    2    0    0  0.13026325103E+02  0.18366295581E+02 -0.12787197167E+03  0.15837556462E+03  0.90689428105E+02 0.  0.
          5    1    1    2  502    0 -0.58112403398E+02 -0.27163511512E+02 -0.25924207469E+02  0.69347403118E+02  0.47000000000E+01 0. -1.
         -5    1    1    2    0  502  0.45086078295E+02  0.87972159313E+01  0.47287708545E+02  0.66093591547E+02  0.47000000000E+01 0.  1.
        -11    1    3    3    0    0 -0.25789920165E+02 -0.15293568571E+02 -0.89100263417E+02  0.94009947148E+02  0.00000000000E+00 0. -1.
         11    1    3    3    0    0  0.38816245268E+02  0.33659864152E+02 -0.38771708255E+02  0.64365617471E+02  0.00000000000E+00 0.  1.
<mgrwt>
<rscale>  0 0.12227735E+03</rscale>
<asrwt>0</asrwt>
<pdfrwt beam="2">  1        1 0.30794233E-01 0.13374552E+03</pdfrwt>
<pdfrwt beam="1">  1       -1 0.14408314E-01 0.13374552E+03</pdfrwt>
<totfact> 0.48031876E+03</totfact>
</mgrwt>
</event>
<event>
 7    1  0.1446636E-005  0.1651613E+03  0.7546771E-02  0.1190017E+00
          2   -1    0    0  501    0  0.00000000000E+00  0.00000000000E+00  0.41142321110E+03  0.41142321110E+03  0.00000000000E+00 0. -1.
         -2   -1    0    0    0  501 -0.00000000000E+00 -0.00000000000E+00 -0.57300158819E+02  0.57300158819E+02  0.00000000000E+00 0.  1.
         23    2    1    2    0    0  0.93271812951E+02  0.54352195378E+02  0.17843259040E+03  0.22758978083E+03  0.91132468350E+02 0.  0.
          5    1    1    2  502    0  0.84797530441E+01 -0.14634713302E+02 -0.13824016491E+02  0.22344450699E+02  0.47000000000E+01 0. -1.
         -5    1    1    2    0  502 -0.10175156599E+03 -0.39717482076E+02  0.18951447838E+03  0.21878913839E+03  0.47000000000E+01 0. -1.
        -11    1    3    3    0    0  0.83973653263E+02 -0.15305730053E+01  0.11699491343E+03  0.14401988358E+03  0.00000000000E+00 0.  1.
         11    1    3    3    0    0  0.92981596877E+01  0.55882768383E+02  0.61437676962E+02  0.83569897249E+02  0.00000000000E+00 0. -1.
<mgrwt>
<rscale>  0 0.15883581E+03</rscale>
<asrwt>0</asrwt>
<pdfrwt beam="1">  1        2 0.63295877E-01 0.16516134E+03</pdfrwt>
<pdfrwt beam="2">  1       -2 0.88154093E-02 0.16516134E+03</pdfrwt>
<totfact> 0.60850309E+03</totfact>
</mgrwt>
</event>
<event>
 7    1  0.1446636E-005  0.1768029E+03  0.7546771E-02  0.1177196E+00
          1   -1    0    0  501    0  0.00000000000E+00  0.00000000000E+00  0.36746214600E+03  0.36746214600E+03  0.00000000000E+00 0. -1.
         -1   -1    0    0    0  501 -0.00000000000E+00 -0.00000000000E+00 -0.74961699979E+02  0.74961699979E+02  0.00000000000E+00 0.  1.
         23    2    1    2    0    0 -0.73635402195E+02 -0.10106005334E+03  0.11319670040E+03  0.19061219753E+03  0.88793074206E+02 0.  0.
          5    1    1    2  502    0 -0.17663150892E+02  0.50938450108E+02  0.12054500451E+03  0.13213591757E+03  0.47000000000E+01 0.  1.
         -5    1    1    2    0  502  0.91298553086E+02  0.50121603230E+02  0.58758741109E+02  0.11967573088E+03  0.47000000000E+01 0.  1.
        -11    1    3    3    0    0 -0.32549522979E+01 -0.65025125395E+02  0.84106758978E+02  0.10636168743E+03  0.00000000000E+00 0. -1.
         11    1    3    3    0    0 -0.70380449897E+02 -0.36034927943E+02  0.29089941423E+02  0.84250510097E+02  0.00000000000E+00 0.  1.
<mgrwt>
<rscale>  0 0.17062616E+03</rscale>
<asrwt>0</asrwt>
<pdfrwt beam="1">  1        1 0.56532637E-01 0.17680292E+03</pdfrwt>
<pdfrwt beam="2">  1       -1 0.11532569E-01 0.17680292E+03</pdfrwt>
<totfact> 0.32320031E+03</totfact>
</mgrwt>
</event>
<event>
 7    1  0.1446636E-005  0.1268860E+03  0.7546771E-02  0.1246727E+00
          2   -1    0    0  501    0  0.00000000000E+00  0.00000000000E+00  0.66617152967E+02  0.66617152967E+02  0.00000000000E+00 0. -1.
         -2   -1    0    0    0  501 -0.00000000000E+00 -0.00000000000E+00 -0.18449426531E+03  0.18449426531E+03  0.00000000000E+00 0.  1.
         23    2    1    2    0    0 -0.58963932578E+01  0.20991018508E+02 -0.58580334712E+02  0.11105371161E+03  0.91792597391E+02 0.  0.
          5    1    1    2  502    0 -0.46179943504E+01  0.42050021511E+02  0.11971013033E+02  0.44214537586E+02  0.47000000000E+01 0. -1.
         -5    1    1    2    0  502  0.10514387608E+02 -0.63041040019E+02 -0.71267790663E+02  0.95843169080E+02  0.47000000000E+01 0. -1.
        -11    1    3    3    0    0  0.12687686291E+02 -0.33175911436E+02 -0.32438606113E+02  0.48102823718E+02  0.00000000000E+00 0.  1.
         11    1    3    3    0    0 -0.18584079549E+02  0.54166929944E+02 -0.26141728599E+02  0.62950887892E+02  0.00000000000E+00 0. -1.
<mgrwt>
<rscale>  0 0.11782617E+03</rscale>
<asrwt>0</asrwt>
<pdfrwt beam="1">  1        2 0.10248793E-01 0.12688599E+03</pdfrwt>
<pdfrwt beam="2">  1       -2 0.28383733E-01 0.12688599E+03</pdfrwt>
<totfact> 0.66151739E+03</totfact>
</mgrwt>
</event>
<event>
 7    1  0.1446636E-005  0.1418756E+03  0.7546771E-02  0.1222569E+00
         -2   -1    0    0    0  501 -0.00000000000E+00  0.00000000000E+00  0.10398227166E+03  0.10398227166E+03  0.00000000000E+00 0.  1.
          2   -1    0    0  501    0  0.00000000000E+00 -0.00000000000E+00 -0.15345612461E+03  0.15345612461E+03  0.00000000000E+00 0. -1.
         23    2    1    2    0    0 -0.65010244291E+02  0.16797533721E+02 -0.23967318802E+02  0.11328824837E+03  0.88041500704E+02 0.  0.
          5    1    1    2  502    0  0.46531004899E+02  0.49929522225E+02  0.44635323613E+01  0.68557309805E+02  0.47000000000E+01 0.  1.
         -5    1    1    2    0  502  0.18479239391E+02 -0.66727055946E+02 -0.29970066511E+02  0.75592838090E+02  0.47000000000E+01 0.  1.
        -11    1    3    3    0    0 -0.83902516132E+02  0.11728748782E+02 -0.34022445663E+02  0.91294701764E+02  0.00000000000E+00 0.  1.
         11    1    3    3    0    0  0.18892271841E+02  0.50687849393E+01  0.10055126861E+02  0.21993546605E+02  0.00000000000E+00 0. -1.
<mgrwt>
<rscale>  0 0.13334943E+03</rscale>
<asrwt>0</asrwt>
<pdfrwt beam="2">  1        2 0.23608634E-01 0.14187559E+03</pdfrwt>
<pdfrwt beam="1">  1       -2 0.15997273E-01 0.14187559E+03</pdfrwt>
<totfact> 0.67169188E+03</totfact>
</mgrwt>
</event>
<event>
 7    1  0.1446636E-005  0.1826319E+03  0.7546771E-02  0.1170845E+00
          2   -1    0    0  501    0  0.00000000000E+00  0.00000000000E+00  0.94060966342E+03  0.94060966342E+03  0.00000000000E+00 0.  1.
         -2   -1    0    0    0  501 -0.00000000000E+00 -0.00000000000E+00 -0.35660231589E+02  0.35660231589E+02  0.00000000000E+00 0. -1.
         23    2    1    2    0    0 -0.13240450383E+03 -0.14083551378E+02  0.59679179919E+03  0.61805829959E+03  0.90035054566E+02 0.  0.
          5    1    1    2  502    0  0.10627244433E+03  0.54255768826E+02  0.14365373153E+03  0.18680472547E+03  0.47000000000E+01 0. -1.
         -5    1    1    2    0  502  0.26132059498E+02 -0.40172217449E+02  0.16450390111E+03  0.17140686995E+03  0.47000000000E+01 0. -1.
        -11    1    3    3    0    0 -0.75967862517E+02  0.36677666774E+02  0.33761182175E+03  0.34799153663E+03  0.00000000000E+00 0.  1.
         11    1    3    3    0    0 -0.56436641309E+02 -0.50761218152E+02  0.25917997744E+03  0.27006676296E+03  0.00000000000E+00 0. -1.
<mgrwt>
<rscale>  0 0.17689268E+03</rscale>
<asrwt>0</asrwt>
<pdfrwt beam="1">  1        2 0.14470916E+00 0.18263193E+03</pdfrwt>
<pdfrwt beam="2">  1       -2 0.54861902E-02 0.18263193E+03</pdfrwt>
<totfact> 0.47909700E+03</totfact>
</mgrwt>
</event>
<event>
 7    1  0.1446636E-005  0.1872187E+03  0.7546771E-02  0.1165963E+00
          1   -1    0    0  501    0  0.00000000000E+00  0.00000000000E+00  0.97367833727E+03  0.97367833727E+03  0.00000000000E+00 0. -1.
         -1   -1    0    0    0  501 -0.00000000000E+00 -0.00000000000E+00 -0.32194900378E+02  0.32194900378E+02  0.00000000000E+00 0.  1.
         23    2    1    2    0    0  0.13280759171E+03 -0.42296664930E+02  0.44445351738E+03  0.47475216635E+03  0.91781403669E+02 0.  0.
          5    1    1    2  502    0 -0.13358491342E+03  0.55483259261E+02  0.29483269252E+03  0.32843831648E+03  0.47000000000E+01 0.  1.
         -5    1    1    2    0  502  0.77732171079E+00 -0.13186594332E+02  0.20219722699E+03  0.20268275482E+03  0.47000000000E+01 0.  1.
        -11    1    3    3    0    0  0.43240878309E+02  0.13768773253E+02  0.55448579688E+02  0.71651222343E+02  0.00000000000E+00 0.  1.
         11    1    3    3    0    0  0.89566713403E+02 -0.56065438183E+02  0.38900493769E+03  0.40310094401E+03  0.00000000000E+00 0. -1.
<mgrwt>
<rscale>  0 0.18191414E+03</rscale>
<asrwt>0</asrwt>
<pdfrwt beam="1">  1        1 0.14979664E+00 0.18721873E+03</pdfrwt>
<pdfrwt beam="2">  1       -1 0.49530623E-02 0.18721873E+03</pdfrwt>
<totfact> 0.29651187E+03</totfact>
</mgrwt>
</event>
<event>
 7    1  0.1446636E-005  0.1216949E+03  0.7546771E-02  0.1251562E+00
         -1   -1    0    0    0  501 -0.00000000000E+00  0.00000000000E+00  0.17418725395E+03  0.17418725395E+03  0.00000000000E+00 0.  1.
          1   -1    0    0  501    0  0.00000000000E+00 -0.00000000000E+00 -0.10610702915E+03  0.10610702915E+03  0.00000000000E+00 0. -1.
         23    2    1    2    0    0 -0.20786863865E+02 -0.16573446765E+02 -0.51315873774E+02  0.10980944741E+03  0.93370353926E+02 0.  0.
          5    1    1    2  502    0 -0.28665736622E+02 -0.27116113245E+00 -0.10110461000E+02  0.30758891497E+02  0.47000000000E+01 0. -1.
         -5    1    1    2    0  502  0.49452600487E+02  0.16844607897E+02  0.12950655957E+03  0.13972594420E+03  0.47000000000E+01 0.  1.
        -11    1    3    3    0    0 -0.17616753295E+02 -0.52308301672E+02 -0.11808741888E+02  0.56444262822E+02  0.00000000000E+00 0. -1.
         11    1    3    3    0    0 -0.31701105698E+01  0.35734854908E+02 -0.39507131887E+02  0.53365184589E+02  0.00000000000E+00 0.  1.
<mgrwt>
<rscale>  0 0.11501071E+03</rscale>
<asrwt>0</asrwt>
<pdfrwt beam="2">  1        1 0.16324158E-01 0.12169491E+03</pdfrwt>
<pdfrwt beam="1">  1       -1 0.26798039E-01 0.12169491E+03</pdfrwt>
<totfact> 0.39338711E+03</totfact>
</mgrwt>
</event>
<event>
 7    1  0.1446636E-005  0.1674469E+03  0.7546771E-02  0.1187048E+00
         -1   -1    0    0    0  501 -0.00000000000E+00  0.00000000000E+00  0.60269429469E+02  0.60269429469E+02  0.00000000000E+00 0.  1.
          1   -1    0    0  501    0  0.00000000000E+00 -0.00000000000E+00 -0.45533607843E+03  0.45533607843E+03  0.00000000000E+00 0. -1.
         23    2    1    2    0    0 -0.76496168132E+02 -0.81011491034E+02 -0.27083413427E+03  0.30710565696E+03  0.92456643007E+02 0.  0.
          5    1    1    2  502    0  0.15331605752E+02  0.96758899652E+02 -0.47409911632E+02  0.10893636912E+03  0.47000000000E+01 0.  1.
         -5    1    1    2    0  502  0.61164562381E+02 -0.15747408618E+02 -0.76822603061E+02  0.99563481812E+02  0.47000000000E+01 0.  1.
        -11    1    3    3    0    0 -0.55232776884E+02  0.49701158119E+01 -0.89335651964E+02  0.10514856350E+03  0.00000000000E+00 0.  1.
         11    1    3    3    0    0 -0.21263391248E+02 -0.85981606846E+02 -0.18149848230E+03  0.20195709347E+03  0.00000000000E+00 0. -1.
<mgrwt>
<rscale>  0 0.16146891E+03</rscale>
<asrwt>0</asrwt>
<pdfrwt beam="2">  1        1 0.70051705E-01 0.16744692E+03</pdfrwt>
<pdfrwt beam="1">  1       -1 0.92722198E-02 0.16744692E+03</pdfrwt>
<totfact> 0.34321343E+03</totfact>
</mgrwt>
</event>
<event>
 7    1  0.1446636E-005  0.1537852E+03  0.7546771E-02  0.1204593E+00
         -1   -1    0    0    0  501 -0.00000000000E+00  0.00000000000E+00  0.69948152463E+02  0.69948152463E+02  0.00000000000E+00 0.  1.
          1   -1    0    0  501    0  0.00000000000E+00 -0.00000000000E+00 -0.35155136588E+03  0.35155136588E+03  0.00000000000E+00 0. -1.
         23    2    1    2    0    0 -0.27309868496E+02 -0.85310307770E+02 -0.22326354113E+03  0.25702036732E+03  0.90494104175E+02 0.  0.
          5    1    1    2  502    0  0.37120750062E+02 -0.10361979874E+02  0.16837192200E+02  0.42319047168E+02  0.47000000000E+01 0.  1.
         -5    1    1    2    0  502 -0.98108815662E+01  0.95672287644E+02 -0.75176864488E+02  0.12216010386E+03  0.47000000000E+01 0.  1.
        -11    1    3    3    0    0  0.31684553515E+02 -0.25999131324E+02 -0.99763461533E+02  0.10785459665E+03  0.00000000000E+00 0. -1.
         11    1    3    3    0    0 -0.58994422010E+02 -0.59311176446E+02 -0.12350007960E+03  0.14916577067E+03  0.00000000000E+00 0.  1.
<mgrwt>
<rscale>  0 0.14669600E+03</rscale>
<asrwt>0</asrwt>
<pdfrwt beam="2">  1        1 0.54084826E-01 0.15378515E+03</pdfrwt>
<pdfrwt beam="1">  1       -1 0.10761254E-01 0.15378515E+03</pdfrwt>
<totfact> 0.37798286E+03</totfact>
</mgrwt>
</event>
<event>
 7    1  0.1446636E-005  0.1280249E+03  0.7546771E-02  0.1246689E+00
          1   -1    0    0  501    0  0.00000000000E+00  0.00000000000E+00  0.18272675359E+03  0.18272675359E+03  0.00000000000E+00 0. -1.
         -1   -1    0    0    0  501 -0.00000000000E+00 -0.00000000000E+00 -0.67247902838E+02  0.67247902838E+02  0.00000000000E+00 0.  1.
         23    2    1    2    0    0  0.25542079958E+02 -0.10606739339E+02  0.63904504809E+02  0.11195186201E+03  0.87661467618E+02 0.  0.
          5    1    1    2  502    0  0.32663671888E+02  0.33044819192E+02 -0.12632446197E+02  0.48379171485E+02  0.47000000000E+01 0. -1.
         -5    1    1    2    0  502 -0.58205751846E+02 -0.22438079853E+02  0.64206792139E+02  0.89643622932E+02  0.47000000000E+01 0. -1.
        -11    1    3    3    0    0  0.28504214895E+02  0.22564974681E+02  0.69258773201E+02  0.78220496127E+02  0.00000000000E+00 0. -1.
         11    1    3    3    0    0 -0.29621349364E+01 -0.33171714020E+02 -0.53542683917E+01  0.33731365884E+02  0.00000000000E+00 0.  1.
<mgrwt>
<rscale>  0 0.11784857E+03</rscale>
<asrwt>0</asrwt>
<pdfrwt beam="1">  1        1 0.28111808E-01 0.12802491E+03</pdfrwt>
<pdfrwt beam="2">  1       -1 0.10345831E-01 0.12802491E+03</pdfrwt>
<totfact> 0.89425111E+03</totfact>
</mgrwt>
</event>
<event>
 7    1  0.1446636E-005  0.1298744E+03  0.7546771E-02  0.1240997E+00
         -2   -1    0    0    0  501 -0.00000000000E+00  0.00000000000E+00  0.44597357428E+03  0.44597357428E+03  0.00000000000E+00 0.  1.
          2   -1    0    0  501    0  0.00000000000E+00 -0.00000000000E+00 -0.29707461849E+02  0.29707461849E+02  0.00000000000E+00 0. -1.
         23    2    1    2    0    0 -0.30027073169E+02 -0.18421607077E+02  0.15276974627E+03  0.18191633821E+03  0.92271219798E+02 0.  0.
          5    1    1    2  502    0  0.58166792381E+02 -0.82444979250E+01  0.24223309154E+03  0.24929963522E+03  0.47000000000E+01 0. -1.
         -5    1    1    2    0  502 -0.28139719212E+02  0.26666105002E+02  0.21263274619E+02  0.44465062699E+02  0.47000000000E+01 0. -1.
        -11    1    3    3    0    0 -0.30775058871E+02  0.17295532845E+02  0.13935311752E+03  0.14375510797E+03  0.00000000000E+00 0.  1.
         11    1    3    3    0    0  0.74798570179E+00 -0.35717139922E+02  0.13416628753E+02  0.38161230246E+02  0.00000000000E+00 0. -1.
<mgrwt>
<rscale>  0 0.12128187E+03</rscale>
<asrwt>0</asrwt>
<pdfrwt beam="2">  1        2 0.45703791E-02 0.12987441E+03</pdfrwt>
<pdfrwt beam="1">  1       -2 0.68611314E-01 0.12987441E+03</pdfrwt>
<totfact> 0.33547253E+03</totfact>
</mgrwt>
</event>
<event>
 7    1  0.1446636E-005  0.1654154E+03  0.7546771E-02  0.1189917E+00
         -2   -1    0    0    0  501 -0.00000000000E+00  0.00000000000E+00  0.49867321834E+02  0.49867321834E+02  0.00000000000E+00 0.  1.
          2   -1    0    0  501    0  0.00000000000E+00 -0.00000000000E+00 -0.55177170361E+03  0.55177170361E+03  0.00000000000E+00 0. -1.
         23    2    1    2    0    0 -0.12934790727E+02  0.10756410179E+03 -0.34898296427E+03  0.37636763375E+03  0.90145113976E+02 0.  0.
          5    1    1    2  502    0 -0.36098766852E+02 -0.68516257044E+02 -0.22969132916E+02  0.80915199527E+02  0.47000000000E+01 0.  1.
         -5    1    1    2    0  502  0.49033557579E+02 -0.39047844751E+02 -0.12995228458E+03  0.14435619217E+03  0.47000000000E+01 0.  1.
        -11    1    3    3    0    0  0.46367871504E+01  0.10533407860E+03 -0.34102025479E+03  0.35694759011E+03  0.00000000000E+00 0. -1.
         11    1    3    3    0    0 -0.17571577877E+02  0.22300231908E+01 -0.79627094867E+01  0.19420043638E+02  0.00000000000E+00 0.  1.
<mgrwt>
<rscale>  0 0.15892375E+03</rscale>
<asrwt>0</asrwt>
<pdfrwt beam="2">  1        2 0.84887952E-01 0.16541536E+03</pdfrwt>
<pdfrwt beam="1">  1       -2 0.76718959E-02 0.16541536E+03</pdfrwt>
<totfact> 0.54697497E+03</totfact>
</mgrwt>
</event>
<event>
 7    1  0.1446636E-005  0.1784569E+03  0.7546771E-02  0.1176625E+00
          2   -1    0    0  501    0  0.00000000000E+00  0.00000000000E+00  0.63775042412E+03  0.63775042412E+03  0.00000000000E+00 0. -1.
         -2   -1    0    0    0  501 -0.00000000000E+00 -0.00000000000E+00 -0.42834994040E+02  0.42834994040E+02  0.00000000000E+00 0.  1.
         23    2    1    2    0    0 -0.60615855709E+02 -0.11200985603E+03  0.29966120937E+03  0.33558986396E+03  0.81260239857E+02 0.  0.
          5    1    1    2  502    0  0.93097553325E+02  0.66139839022E+02  0.14585074914E+03  0.18530019905E+03  0.47000000000E+01 0.  1.
         -5    1    1    2    0  502 -0.32481697616E+02  0.45870017010E+02  0.14940347157E+03  0.15969535515E+03  0.47000000000E+01 0.  1.
        -11    1    3    3    0    0 -0.74770148147E+02 -0.11431431266E+03  0.27519470741E+03  0.30723031119E+03  0.00000000000E+00 0. -1.
         11    1    3    3    0    0  0.14154292438E+02  0.23044566287E+01  0.24466501961E+02  0.28359552764E+02  0.00000000000E+00 0.  1.
<mgrwt>
<rscale>  0 0.17117817E+03</rscale>
<asrwt>0</asrwt>
<pdfrwt beam="1">  1        2 0.98115443E-01 0.17845693E+03</pdfrwt>
<pdfrwt beam="2">  1       -2 0.65899995E-02 0.17845693E+03</pdfrwt>
<totfact> 0.58772447E+03</totfact>
</mgrwt>
</event>
<event>
 7    1  0.1446636E-005  0.1562881E+03  0.7546771E-02  0.1200676E+00
         -3   -1    0    0    0  501 -0.00000000000E+00  0.00000000000E+00  0.40016101432E+03  0.40016101432E+03  0.00000000000E+00 0.  1.
          3   -1    0    0  501    0  0.00000000000E+00 -0.00000000000E+00 -0.66821522520E+02  0.66821522520E+02  0.00000000000E+00 0. -1.
         23    2    1    2    0    0 -0.49935430412E+02  0.79420905421E+02  0.45865657189E+02  0.13977134509E+03  0.92903944862E+02 0.  0.
          5    1    1    2  502    0 -0.35676363136E+02 -0.15929450067E+01  0.39051795298E+02  0.53126952448E+02  0.47000000000E+01 0.  1.
         -5    1    1    2    0  502  0.85611793548E+02 -0.77827960415E+02  0.24842203931E+03  0.27408423930E+03  0.47000000000E+01 0.  1.
        -11    1    3    3    0    0 -0.62695496104E+02  0.82663182034E+02  0.60488566031E+02  0.12009493543E+03  0.00000000000E+00 0.  1.
         11    1    3    3    0    0  0.12760065692E+02 -0.32422766127E+01 -0.14622908843E+02  0.19676409660E+02  0.00000000000E+00 0. -1.
<mgrwt>
<rscale>  0 0.14983522E+03</rscale>
<asrwt>0</asrwt>
<pdfrwt beam="2">  1        3 0.10280234E-01 0.15628806E+03</pdfrwt>
<pdfrwt beam="1">  1       -3 0.61563231E-01 0.15628806E+03</pdfrwt>
<totfact> 0.43516973E+02</totfact>
</mgrwt>
</event>
<event>
 7    1  0.1446636E-005  0.1250628E+03  0.7546771E-02  0.1247441E+00
         -1   -1    0    0    0  501 -0.00000000000E+00  0.00000000000E+00  0.80894229377E+03  0.80894229377E+03  0.00000000000E+00 0.  1.
          1   -1    0    0  501    0  0.00000000000E+00 -0.00000000000E+00 -0.15257715881E+02  0.15257715881E+02  0.00000000000E+00 0. -1.
         23    2    1    2    0    0 -0.18775231133E+02 -0.24893560333E+02  0.34566823938E+03  0.35905558770E+03  0.91990133665E+02 0.  0.
          5    1    1    2  502    0  0.81161685602E+01  0.53890877402E+02  0.41882268751E+03  0.42237972541E+03  0.47000000000E+01 0. -1.
         -5    1    1    2    0  502  0.10659062573E+02 -0.28997317069E+02  0.29193650993E+02  0.42764696543E+02  0.47000000000E+01 0.  1.
        -11    1    3    3    0    0  0.19750149006E+02  0.26324050291E+02  0.10856519475E+03  0.11344349043E+03  0.00000000000E+00 0.  1.
         11    1    3    3    0    0 -0.38525380139E+02 -0.51217610624E+02  0.23710304463E+03  0.24561209727E+03  0.00000000000E+00 0. -1.
<mgrwt>
<rscale>  0 0.11740462E+03</rscale>
<asrwt>0</asrwt>
<pdfrwt beam="2">  1        1 0.23473415E-02 0.12506276E+03</pdfrwt>
<pdfrwt beam="1">  1       -1 0.12445263E+00 0.12506276E+03</pdfrwt>
<totfact> 0.28017387E+03</totfact>
</mgrwt>
</event>
<event>
 7    1  0.1446636E-005  0.1307072E+03  0.7546771E-02  0.1236969E+00
         -1   -1    0    0    0  501 -0.00000000000E+00  0.00000000000E+00  0.43506165321E+02  0.43506165321E+02  0.00000000000E+00 0.  1.
          1   -1    0    0  501    0  0.00000000000E+00 -0.00000000000E+00 -0.33467378441E+03  0.33467378441E+03  0.00000000000E+00 0. -1.
         23    2    1    2    0    0  0.37007143954E+02 -0.44025123085E+02 -0.17029209368E+03  0.20014833261E+03  0.88046679157E+02 0.  0.
          5    1    1    2  502    0  0.20953714722E+02 -0.26706452542E+02 -0.13293230432E+02  0.36757213488E+02  0.47000000000E+01 0. -1.
         -5    1    1    2    0  502 -0.57960858676E+02  0.70731575628E+02 -0.10758229498E+03  0.14127440363E+03  0.47000000000E+01 0.  1.
        -11    1    3    3    0    0  0.45143785155E+02 -0.56210614565E+02 -0.17089910870E+03  0.18548342212E+03  0.00000000000E+00 0. -1.
         11    1    3    3    0    0 -0.81366412011E+01  0.12185491480E+02  0.60701501116E+00  0.14664910496E+02  0.00000000000E+00 0.  1.
<mgrwt>
<rscale>  0 0.12379233E+03</rscale>
<asrwt>0</asrwt>
<pdfrwt beam="2">  1        1 0.51488274E-01 0.13070717E+03</pdfrwt>
<pdfrwt beam="1">  1       -1 0.66932563E-02 0.13070717E+03</pdfrwt>
<totfact> 0.81753052E+03</totfact>
</mgrwt>
</event>
<event>
 7    1  0.1446636E-005  0.1444780E+03  0.7546771E-02  0.1217459E+00
         -3   -1    0    0    0  501 -0.00000000000E+00  0.00000000000E+00  0.33707853535E+02  0.33707853535E+02  0.00000000000E+00 0.  1.
          3   -1    0    0  501    0  0.00000000000E+00 -0.00000000000E+00 -0.58157361779E+03  0.58157361779E+03  0.00000000000E+00 0. -1.
         23    2    1    2    0    0 -0.15517031268E+02  0.70761005078E+02 -0.35895396904E+03  0.37745471727E+03  0.91521656474E+02 0.  0.
          5    1    1    2  502    0 -0.25070060579E+02 -0.43911853250E+02 -0.18138575201E+03  0.18836039878E+03  0.47000000000E+01 0. -1.
         -5    1    1    2    0  502  0.40587091847E+02 -0.26849151828E+02 -0.75260432069E+01  0.49466355282E+02  0.47000000000E+01 0. -1.
        -11    1    3    3    0    0 -0.44187723278E+02  0.92831459375E+01 -0.99255678913E+02  0.10904320925E+03  0.00000000000E+00 0. -1.
         11    1    3    3    0    0  0.28670692010E+02  0.61477859141E+02 -0.25969829013E+03  0.26841150802E+03  0.00000000000E+00 0.  1.
<mgrwt>
<rscale>  0 0.13697454E+03</rscale>
<asrwt>0</asrwt>
<pdfrwt beam="2">  1        3 0.89472862E-01 0.14447802E+03</pdfrwt>
<pdfrwt beam="1">  1       -3 0.51858238E-02 0.14447802E+03</pdfrwt>
<totfact> 0.58636271E+02</totfact>
</mgrwt>
</event>
<event>
 7    1  0.1446636E-005  0.1291285E+03  0.7546771E-02  0.1243186E+00
          1   -1    0    0  501    0  0.00000000000E+00  0.00000000000E+00  0.71189160851E+02  0.71189160851E+02  0.00000000000E+00 0. -1.
         -1   -1    0    0    0  501 -0.00000000000E+00 -0.00000000000E+00 -0.18895152057E+03  0.18895152057E+03  0.00000000000E+00 0.  1.
         23    2    1    2    0    0 -0.25477522978E+02 -0.20001342768E+02 -0.20034189117E+02  0.98199473437E+02  0.90513037514E+02 0.  0.
          5    1    1    2  502    0  0.51347638949E+02 -0.35720701466E+02 -0.27426450963E+02  0.68460563475E+02  0.47000000000E+01 0. -1.
         -5    1    1    2    0  502 -0.25870115970E+02  0.55722044234E+02 -0.70301719641E+02  0.93480644512E+02  0.47000000000E+01 0. -1.
        -11    1    3    3    0    0 -0.59440968335E+02 -0.81285194998E+01 -0.15266161050E+02  0.61906035401E+02  0.00000000000E+00 0.  1.
         11    1    3    3    0    0  0.33963445356E+02 -0.11872823268E+02 -0.47680280669E+01  0.36293438036E+02  0.00000000000E+00 0. -1.
<mgrwt>
<rscale>  0 0.11994603E+03</rscale>
<asrwt>0</asrwt>
<pdfrwt beam="1">  1        1 0.10952179E-01 0.12912846E+03</pdfrwt>
<pdfrwt beam="2">  1       -1 0.29069465E-01 0.12912846E+03</pdfrwt>
<totfact> 0.57973946E+03</totfact>
</mgrwt>
</event>
<event>
 7    1  0.1446636E-005  0.1668901E+03  0.7546771E-02  0.1187945E+00
         -1   -1    0    0    0  501 -0.00000000000E+00  0.00000000000E+00  0.22024871591E+02  0.22024871591E+02  0.00000000000E+00 0.  1.
          1   -1    0    0  501    0  0.00000000000E+00 -0.00000000000E+00 -0.10952224391E+04  0.10952224391E+04  0.00000000000E+00 0. -1.
         23    2    1    2    0    0 -0.11660536135E+02 -0.10995571431E+03 -0.52346351740E+03  0.54273896134E+03  0.91243075931E+02 0.  0.
          5    1    1    2  502    0 -0.56275741220E+02  0.39828361044E+02 -0.23350458022E+03  0.24351537195E+03  0.47000000000E+01 0.  1.
         -5    1    1    2    0  502  0.67936277354E+02  0.70127353262E+02 -0.31622946994E+03  0.33099297744E+03  0.47000000000E+01 0.  1.
        -11    1    3    3    0    0 -0.30203600976E+02 -0.15417554709E+01 -0.72472424161E+02  0.78529528113E+02  0.00000000000E+00 0.  1.
         11    1    3    3    0    0  0.18543064841E+02 -0.10841395883E+03 -0.45099109323E+03  0.46420943323E+03  0.00000000000E+00 0. -1.
<mgrwt>
<rscale>  0 0.16066768E+03</rscale>
<asrwt>0</asrwt>
<pdfrwt beam="2">  1        1 0.16849574E+00 0.16689014E+03</pdfrwt>
<pdfrwt beam="1">  1       -1 0.33884421E-02 0.16689014E+03</pdfrwt>
<totfact> 0.42270236E+03</totfact>
</mgrwt>
</event>
<event>
 7    1  0.1446636E-005  0.1267680E+03  0.7546771E-02  0.1245827E+00
         -2   -1    0    0    0  501 -0.00000000000E+00  0.00000000000E+00  0.45885444520E+02  0.45885444520E+02  0.00000000000E+00 0. -1.
          2   -1    0    0  501    0  0.00000000000E+00 -0.00000000000E+00 -0.27940591745E+03  0.27940591745E+03  0.00000000000E+00 0.  1.
         23    2    1    2    0    0  0.20617401012E+02 -0.45538056597E+01 -0.12892759928E+03  0.16094477443E+03  0.93995107267E+02 0.  0.
          5    1    1    2  502    0  0.64511153094E+01  0.15437353220E+02 -0.12641988804E+03  0.12760880398E+03  0.47000000000E+01 0.  1.
         -5    1    1    2    0  502 -0.27068516321E+02 -0.10883547561E+02  0.21827014387E+02  0.36737783553E+02  0.47000000000E+01 0.  1.
        -11    1    3    3    0    0 -0.27593450601E+02  0.27013458383E+02 -0.48232250545E+02  0.61785721995E+02  0.00000000000E+00 0. -1.
         11    1    3    3    0    0  0.48210851613E+02 -0.31567264043E+02 -0.80695348736E+02  0.99159052436E+02  0.00000000000E+00 0.  1.
<mgrwt>
<rscale>  0 0.11836029E+03</rscale>
<asrwt>0</asrwt>
<pdfrwt beam="2">  1        2 0.42985526E-01 0.12676802E+03</pdfrwt>
<pdfrwt beam="1">  1       -2 0.70592991E-02 0.12676802E+03</pdfrwt>
<totfact> 0.12717997E+04</totfact>
</mgrwt>
</event>
<event>
 7    1  0.1446636E-005  0.1728110E+03  0.7546771E-02  0.1181469E+00
          4   -1    0    0  501    0  0.00000000000E+00  0.00000000000E+00  0.94594044397E+02  0.94594044397E+02  0.00000000000E+00 0. -1.
         -4   -1    0    0    0  501 -0.00000000000E+00 -0.00000000000E+00 -0.38041899416E+03  0.38041899416E+03  0.00000000000E+00 0.  1.
         23    2    1    2    0    0  0.72056584947E+02 -0.95110502197E+02 -0.99858308994E+01  0.14951208303E+03  0.89532045055E+02 0.  0.
          5    1    1    2  502    0 -0.78622321495E+02  0.27392067257E+02 -0.22639612484E+03  0.24126560080E+03  0.47000000000E+01 0.  1.
         -5    1    1    2    0  502  0.65657365479E+01  0.67718434941E+02 -0.49442994018E+02  0.84235354719E+02  0.47000000000E+01 0.  1.
        -11    1    3    3    0    0  0.48606039721E+02 -0.91073951484E+02 -0.40433778900E+02  0.11086885141E+03  0.00000000000E+00 0.  1.
         11    1    3    3    0    0  0.23450545226E+02 -0.40365507133E+01  0.30447948000E+02  0.38643231626E+02  0.00000000000E+00 0. -1.
<mgrwt>
<rscale>  0 0.16657314E+03</rscale>
<asrwt>0</asrwt>
<pdfrwt beam="1">  1        4 0.14552930E-01 0.17281103E+03</pdfrwt>
<pdfrwt beam="2">  1       -4 0.58525999E-01 0.17281103E+03</pdfrwt>
<totfact> 0.19324866E+02</totfact>
</mgrwt>
</event>
<event>
 7    1  0.1446636E-005  0.1432572E+03  0.7546771E-02  0.1220585E+00
         -2   -1    0    0    0  501 -0.00000000000E+00  0.00000000000E+00  0.10449601742E+03  0.10449601742E+03  0.00000000000E+00 0. -1.
          2   -1    0    0  501    0  0.00000000000E+00 -0.00000000000E+00 -0.20187479533E+03  0.20187479533E+03  0.00000000000E+00 0.  1.
         23    2    1    2    0    0  0.36897492571E+02 -0.59467512640E+02 -0.11668668628E+03  0.16181836076E+03  0.87587608186E+02 0.  0.
          5    1    1    2  502    0 -0.12764920454E+02 -0.28686965749E+02 -0.27279270479E+02  0.41858497297E+02  0.47000000000E+01 0.  1.
         -5    1    1    2    0  502 -0.24132572116E+02  0.88154478389E+02  0.46587178842E+02  0.10269395469E+03  0.47000000000E+01 0.  1.
        -11    1    3    3    0    0  0.49133611063E+02 -0.61649795993E+01 -0.85654650053E+02  0.98938555605E+02  0.00000000000E+00 0. -1.
         11    1    3    3    0    0 -0.12236118492E+02 -0.53302533041E+02 -0.31032036223E+02  0.62879805156E+02  0.00000000000E+00 0.  1.
<mgrwt>
<rscale>  0 0.13474156E+03</rscale>
<asrwt>0</asrwt>
<pdfrwt beam="2">  1        2 0.31057660E-01 0.14325717E+03</pdfrwt>
<pdfrwt beam="1">  1       -2 0.16076311E-01 0.14325717E+03</pdfrwt>
<totfact> 0.49363842E+03</totfact>
</mgrwt>
</event>
<event>
 7    1  0.1446636E-005  0.1312475E+03  0.7546771E-02  0.1225910E+00
          2   -1    0    0  501    0  0.00000000000E+00  0.00000000000E+00  0.35815015953E+03  0.35815015953E+03  0.00000000000E+00 0. -1.
         -2   -1    0    0    0  501 -0.00000000000E+00 -0.00000000000E+00 -0.47813415395E+02  0.47813415395E+02  0.00000000000E+00 0.  1.
         23    2    1    2    0    0  0.30397355555E+02 -0.25901040053E+02  0.15193128976E+03  0.20024973534E+03  0.12418525113E+03 0.  0.
          5    1    1    2  502    0 -0.42613513574E+00  0.47846189867E+02  0.56181591421E+01  0.48405507828E+02  0.47000000000E+01 0. -1.
         -5    1    1    2    0  502 -0.29971220419E+02 -0.21945149814E+02  0.15278729523E+03  0.15730833175E+03  0.47000000000E+01 0. -1.
        -11    1    3    3    0    0  0.63868333312E+02 -0.32315045643E+02  0.14989589501E+03  0.16610901697E+03  0.00000000000E+00 0. -1.
         11    1    3    3    0    0 -0.33470977757E+02  0.64140055896E+01  0.20353947443E+01  0.34140718380E+02  0.00000000000E+00 0.  1.
<mgrwt>
<rscale>  0 0.13104729E+03</rscale>
<asrwt>0</asrwt>
<pdfrwt beam="1">  1        2 0.55100023E-01 0.13124746E+03</pdfrwt>
<pdfrwt beam="2">  1       -2 0.73559103E-02 0.13124746E+03</pdfrwt>
<totfact> 0.92063581E+03</totfact>
</mgrwt>
</event>
<event>
 7    1  0.1446636E-005  0.1459291E+03  0.7546771E-02  0.1215578E+00
         -3   -1    0    0    0  501 -0.00000000000E+00  0.00000000000E+00  0.20789432298E+02  0.20789432298E+02  0.00000000000E+00 0.  1.
          3   -1    0    0  501    0  0.00000000000E+00 -0.00000000000E+00 -0.83686524913E+03  0.83686524913E+03  0.00000000000E+00 0. -1.
         23    2    1    2    0    0  0.74631314599E+02  0.10013489513E+02 -0.36101536566E+03  0.37976837781E+03  0.90674271151E+02 0.  0.
          5    1    1    2  502    0 -0.67432062257E+02 -0.55254522138E+02 -0.19324222061E+03  0.21204902985E+03  0.47000000000E+01 0.  1.
         -5    1    1    2    0  502 -0.71992523417E+01  0.45241032625E+02 -0.26181823056E+03  0.26583727376E+03  0.47000000000E+01 0.  1.
        -11    1    3    3    0    0  0.74399913927E+02  0.38738067314E+02 -0.21164794224E+03  0.22766386737E+03  0.00000000000E+00 0.  1.
         11    1    3    3    0    0  0.23140067147E+00 -0.28724577801E+02 -0.14936742342E+03  0.15210451044E+03  0.00000000000E+00 0. -1.
<mgrwt>
<rscale>  0 0.13834127E+03</rscale>
<asrwt>0</asrwt>
<pdfrwt beam="2">  1        3 0.12874847E+00 0.14592911E+03</pdfrwt>
<pdfrwt beam="1">  1       -3 0.31983750E-02 0.14592911E+03</pdfrwt>
<totfact> 0.54178574E+02</totfact>
</mgrwt>
</event>
<event>
 7    1  0.1452497E-005  0.1996417E+03  0.7546771E-02  0.1154455E+00
          1   -1    0    0  501    0  0.00000000000E+00  0.00000000000E+00  0.13253465272E+04  0.13253465272E+04  0.00000000000E+00 0. -1.
         -1   -1    0    0    0  501 -0.00000000000E+00 -0.00000000000E+00 -0.36344935723E+02  0.36344935723E+02  0.00000000000E+00 0.  1.
         23    2    1    2    0    0  0.15516382158E+03  0.12461399401E+02  0.96113456268E+03  0.97782481694E+03  0.90169989643E+02 0.  0.
          5    1    1    2  502    0 -0.13956832148E+03  0.14407930801E+02  0.15903074996E+03  0.21213150229E+03  0.47000000000E+01 0. -1.
         -5    1    1    2    0  502 -0.15595500094E+02 -0.26869330202E+02  0.16883627888E+03  0.17173514374E+03  0.47000000000E+01 0. -1.
        -11    1    3    3    0    0  0.95557939182E+02 -0.36874846266E+02  0.56297501688E+03  0.57221669292E+03  0.00000000000E+00 0.  1.
         11    1    3    3    0    0  0.59605882396E+02  0.49336245667E+02  0.39815954580E+03  0.40560812401E+03  0.00000000000E+00 0. -1.
<mgrwt>
<rscale>  0 0.19451022E+03</rscale>
<asrwt>0</asrwt>
<pdfrwt beam="1">  1        1 0.20389943E+00 0.19964171E+03</pdfrwt>
<pdfrwt beam="2">  1       -1 0.55915296E-02 0.19964171E+03</pdfrwt>
<totfact> 0.13972791E+03</totfact>
</mgrwt>
</event>
<event>
 7    1  0.1446636E-005  0.1430187E+03  0.7546771E-02  0.1226322E+00
          3   -1    0    0  501    0  0.00000000000E+00  0.00000000000E+00  0.27774551725E+03  0.27774551725E+03  0.00000000000E+00 0. -1.
         -3   -1    0    0    0  501 -0.00000000000E+00 -0.00000000000E+00 -0.53149529371E+02  0.53149529371E+02  0.00000000000E+00 0.  1.
         23    2    1    2    0    0  0.55276779419E+02 -0.42115830065E+02  0.90171228381E+02  0.13461882313E+03  0.71847836632E+02 0.  0.
          5    1    1    2  502    0 -0.39652687278E+02  0.34451659709E+02  0.15801705789E+03  0.16658551272E+03  0.47000000000E+01 0.  1.
         -5    1    1    2    0  502 -0.15624092141E+02  0.76641703558E+01 -0.23592298391E+02  0.29690710767E+02  0.47000000000E+01 0.  1.
        -11    1    3    3    0    0  0.12000742886E+02 -0.64373897398E+01 -0.11944245292E+02  0.18114160540E+02  0.00000000000E+00 0.  1.
         11    1    3    3    0    0  0.43276036533E+02 -0.35678440325E+02  0.10211547367E+03  0.11650466259E+03  0.00000000000E+00 0. -1.
<mgrwt>
<rscale>  0 0.13076687E+03</rscale>
<asrwt>0</asrwt>
<pdfrwt beam="1">  1        3 0.42730079E-01 0.14301867E+03</pdfrwt>
<pdfrwt beam="2">  1       -3 0.81768509E-02 0.14301867E+03</pdfrwt>
<totfact> 0.13044231E+03</totfact>
</mgrwt>
</event>
<event>
 7    1  0.1446636E-005  0.1413379E+03  0.7546771E-02  0.1222179E+00
         -2   -1    0    0    0  501 -0.00000000000E+00  0.00000000000E+00  0.20619879415E+02  0.20619879415E+02  0.00000000000E+00 0. -1.
          2   -1    0    0  501    0  0.00000000000E+00 -0.00000000000E+00 -0.78522296092E+03  0.78522296092E+03  0.00000000000E+00 0.  1.
         23    2    1    2    0    0  0.90250189838E+01 -0.65349090537E+02 -0.35707427234E+03  0.37450060923E+03  0.91633595097E+02 0.  0.
          5    1    1    2  502    0  0.34307155601E+02  0.81184687367E+01 -0.29917699747E+03  0.30128368073E+03  0.47000000000E+01 0.  1.
         -5    1    1    2    0  502 -0.43332174585E+02  0.57230621800E+02 -0.10835181170E+03  0.13005855037E+03  0.47000000000E+01 0.  1.
        -11    1    3    3    0    0 -0.30604228349E+02 -0.34892560566E+02 -0.76260477171E+02  0.89273568059E+02  0.00000000000E+00 0. -1.
         11    1    3    3    0    0  0.39629247333E+02 -0.30456529971E+02 -0.28081379517E+03  0.28522704117E+03  0.00000000000E+00 0.  1.
<mgrwt>
<rscale>  0 0.13362170E+03</rscale>
<asrwt>0</asrwt>
<pdfrwt beam="2">  1        2 0.12080354E+00 0.14133786E+03</pdfrwt>
<pdfrwt beam="1">  1       -2 0.31722890E-02 0.14133786E+03</pdfrwt>
<totfact> 0.13549757E+04</totfact>
</mgrwt>
</event>
<event>
 7    1  0.1446636E-005  0.1292150E+03  0.7546771E-02  0.1241562E+00
         -2   -1    0    0    0  501 -0.00000000000E+00  0.00000000000E+00  0.57144055291E+02  0.57144055291E+02  0.00000000000E+00 0.  1.
          2   -1    0    0  501    0  0.00000000000E+00 -0.00000000000E+00 -0.24881054470E+03  0.24881054470E+03  0.00000000000E+00 0. -1.
         23    2    1    2    0    0  0.76077314276E+01  0.31856914212E+02 -0.12799704958E+03  0.16190491355E+03  0.93579996624E+02 0.  0.
          5    1    1    2  502    0 -0.12738851817E+01 -0.16743285321E+02 -0.10127248008E+03  0.10276266641E+03  0.47000000000E+01 0. -1.
         -5    1    1    2    0  502 -0.63338462460E+01 -0.15113628892E+02  0.37603040256E+02  0.41287020030E+02  0.47000000000E+01 0. -1.
        -11    1    3    3    0    0  0.25678358013E+02 -0.42511377185E+01  0.16849757909E+01  0.26082357745E+02  0.00000000000E+00 0.  1.
         11    1    3    3    0    0 -0.18070626585E+02  0.36108051931E+02 -0.12968202537E+03  0.13582255580E+03  0.00000000000E+00 0. -1.
<mgrwt>
<rscale>  0 0.12093545E+03</rscale>
<asrwt>0</asrwt>
<pdfrwt beam="2">  1        2 0.38278544E-01 0.12921499E+03</pdfrwt>
<pdfrwt beam="1">  1       -2 0.87913934E-02 0.12921499E+03</pdfrwt>
<totfact> 0.10273035E+04</totfact>
</mgrwt>
</event>
<event>
 7    1  0.1446636E-005  0.1694317E+03  0.7546771E-02  0.1185272E+00
          1   -1    0    0  501    0  0.00000000000E+00  0.00000000000E+00  0.12781595496E+03  0.12781595496E+03  0.00000000000E+00 0. -1.
         -1   -1    0    0    0  501 -0.00000000000E+00 -0.00000000000E+00 -0.26122481832E+03  0.26122481832E+03  0.00000000000E+00 0.  1.
         23    2    1    2    0    0  0.97011964528E+02 -0.60588853998E+02  0.35645368752E+02  0.14969495930E+03  0.89753317686E+02 0.  0.
          5    1    1    2  502    0 -0.32183346196E+02 -0.22075574625E+02  0.10940392138E+01  0.39324110787E+02  0.47000000000E+01 0.  1.
         -5    1    1    2    0  502 -0.64828618331E+02  0.82664428623E+02 -0.17014827133E+03  0.20002170320E+03  0.47000000000E+01 0.  1.
        -11    1    3    3    0    0 -0.97807878137E+01 -0.28009079727E+02 -0.64685277146E+01  0.30364686862E+02  0.00000000000E+00 0. -1.
         11    1    3    3    0    0  0.10679275234E+03 -0.32579774271E+02  0.42113896467E+02  0.11933027244E+03  0.00000000000E+00 0.  1.
<mgrwt>
<rscale>  0 0.16307180E+03</rscale>
<asrwt>0</asrwt>
<pdfrwt beam="1">  1        1 0.19663993E-01 0.16943165E+03</pdfrwt>
<pdfrwt beam="2">  1       -1 0.40188433E-01 0.16943165E+03</pdfrwt>
<totfact> 0.15762400E+03</totfact>
</mgrwt>
</event>
<event>
 7    1  0.1446636E-005  0.1337293E+03  0.7546771E-02  0.1236639E+00
         -4   -1    0    0    0  501 -0.00000000000E+00  0.00000000000E+00  0.97842316758E+02  0.97842316758E+02  0.00000000000E+00 0.  1.
          4   -1    0    0  501    0  0.00000000000E+00 -0.00000000000E+00 -0.13882019666E+03  0.13882019666E+03  0.00000000000E+00 0. -1.
         23    2    1    2    0    0  0.14531974056E+02 -0.45243662898E+02 -0.97866775005E+01  0.99343846596E+02  0.86690561756E+02 0.  0.
          5    1    1    2  502    0  0.22248869472E+02  0.43694242805E+02 -0.68712444408E+02  0.84544006669E+02  0.47000000000E+01 0. -1.
         -5    1    1    2    0  502 -0.36780843528E+02  0.15494200925E+01  0.37521242003E+02  0.52774660157E+02  0.47000000000E+01 0. -1.
        -11    1    3    3    0    0 -0.17415406139E+02 -0.24767966977E+02 -0.40471373573E+02  0.50543848667E+02  0.00000000000E+00 0. -1.
         11    1    3    3    0    0  0.31947380195E+02 -0.20475695920E+02  0.30684696072E+02  0.48799997929E+02  0.00000000000E+00 0.  1.
<mgrwt>
<rscale>  0 0.12400116E+03</rscale>
<asrwt>0</asrwt>
<pdfrwt beam="2">  1        4 0.21356953E-01 0.13372930E+03</pdfrwt>
<pdfrwt beam="1">  1       -4 0.15052664E-01 0.13372930E+03</pdfrwt>
<totfact> 0.12325918E+03</totfact>
</mgrwt>
</event>
<event>
 7    1  0.1446636E-005  0.1317913E+03  0.7546771E-02  0.1238855E+00
         -3   -1    0    0    0  501 -0.00000000000E+00  0.00000000000E+00  0.97785442528E+03  0.97785442528E+03  0.00000000000E+00 0.  1.
          3   -1    0    0  501    0  0.00000000000E+00 -0.00000000000E+00 -0.17336689622E+02  0.17336689622E+02  0.00000000000E+00 0. -1.
         23    2    1    2    0    0 -0.41179422504E+02  0.70135276765E+01  0.19667014985E+03  0.22005753094E+03  0.89449620870E+02 0.  0.
          5    1    1    2  502    0 -0.50035716517E+01  0.42861640254E+02  0.11852068030E+03  0.12621964028E+03  0.47000000000E+01 0. -1.
         -5    1    1    2    0  502  0.46182994156E+02 -0.49875167930E+02  0.64532690551E+03  0.64891394368E+03  0.47000000000E+01 0. -1.
        -11    1    3    3    0    0  0.22030800366E+02  0.10076556411E+02  0.11062229072E+03  0.11324391532E+03  0.00000000000E+00 0. -1.
         11    1    3    3    0    0 -0.63210222871E+02 -0.30630287349E+01  0.86047859133E+02  0.10681361562E+03  0.00000000000E+00 0.  1.
<mgrwt>
<rscale>  0 0.12260812E+03</rscale>
<asrwt>0</asrwt>
<pdfrwt beam="2">  1        3 0.26671838E-02 0.13179127E+03</pdfrwt>
<pdfrwt beam="1">  1       -3 0.15043910E+00 0.13179127E+03</pdfrwt>
<totfact> 0.48184961E+02</totfact>
</mgrwt>
</event>
<event>
 7    1  0.1446636E-005  0.1713646E+03  0.7546771E-02  0.1182694E+00
         -1   -1    0    0    0  501 -0.00000000000E+00  0.00000000000E+00  0.64174644501E+02  0.64174644501E+02  0.00000000000E+00 0.  1.
          1   -1    0    0  501    0  0.00000000000E+00 -0.00000000000E+00 -0.42075842884E+03  0.42075842884E+03  0.00000000000E+00 0. -1.
         23    2    1    2    0    0  0.18515107019E+02 -0.11575118810E+03 -0.22083749109E+03  0.26631727771E+03  0.91730846514E+02 0.  0.
          5    1    1    2  502    0 -0.32852097012E+02  0.74622861669E+02 -0.15145893748E+03  0.17207478462E+03  0.47000000000E+01 0.  1.
         -5    1    1    2    0  502  0.14336989993E+02  0.41128326430E+02  0.15712644226E+02  0.46541011007E+02  0.47000000000E+01 0.  1.
        -11    1    3    3    0    0  0.32280218187E+01  0.12561095506E+02 -0.34439766611E+01  0.13418726482E+02  0.00000000000E+00 0.  1.
         11    1    3    3    0    0  0.15287085201E+02 -0.12831228360E+03 -0.21739351443E+03  0.25289855123E+03  0.00000000000E+00 0. -1.
<mgrwt>
<rscale>  0 0.16543463E+03</rscale>
<asrwt>0</asrwt>
<pdfrwt beam="2">  1        1 0.64732065E-01 0.17136455E+03</pdfrwt>
<pdfrwt beam="1">  1       -1 0.98730224E-02 0.17136455E+03</pdfrwt>
<totfact> 0.34537066E+03</totfact>
</mgrwt>
</event>
<event>
 7    1  0.1446636E-005  0.6886583E+03  0.7546771E-02  0.1014432E+00
          2   -1    0    0  501    0  0.00000000000E+00  0.00000000000E+00  0.10732687321E+04  0.10732687321E+04  0.00000000000E+00 0.  1.
         -2   -1    0    0    0  501 -0.00000000000E+00 -0.00000000000E+00 -0.18803353769E+03  0.18803353769E+03  0.00000000000E+00 0. -1.
         23    2    1    2    0    0  0.77209289289E+02  0.14462339088E+03  0.31759323491E+03  0.36885191065E+03  0.91154098033E+02 0.  0.
          5    1    1    2  502    0  0.90896425496E+02 -0.38454978739E+03  0.34252166172E+03  0.52295686046E+03  0.47000000000E+01 0.  1.
         -5    1    1    2    0  502 -0.16810571478E+03  0.23992639651E+03  0.22512029773E+03  0.36949349864E+03  0.47000000000E+01 0. -1.
        -11    1    3    3    0    0  0.61776679511E+02  0.25832206318E+02  0.13090483340E+03  0.14703651391E+03  0.00000000000E+00 0. -1.
         11    1    3    3    0    0  0.15432609778E+02  0.11879118456E+03  0.18668840151E+03  0.22181539674E+03  0.00000000000E+00 0.  1.
<mgrwt>
<rscale>  0 0.49750734E+03</rscale>
<asrwt>0</asrwt>
<pdfrwt beam="1">  1        2 0.16511826E+00 0.68865830E+03</pdfrwt>
<pdfrwt beam="2">  1       -2 0.28928237E-01 0.68865830E+03</pdfrwt>
<totfact> 0.25150296E+02</totfact>
</mgrwt>
</event>
<event>
 7    1  0.1446636E-005  0.1795430E+03  0.7546771E-02  0.1173750E+00
          2   -1    0    0  501    0  0.00000000000E+00  0.00000000000E+00  0.62967270091E+03  0.62967270091E+03  0.00000000000E+00 0. -1.
         -2   -1    0    0    0  501 -0.00000000000E+00 -0.00000000000E+00 -0.63584678647E+02  0.63584678647E+02  0.00000000000E+00 0.  1.
         23    2    1    2    0    0 -0.69179696600E+02  0.10873928975E+03  0.45586374782E+03  0.48257967315E+03  0.91985438000E+02 0.  0.
          5    1    1    2  502    0  0.55589392143E+02 -0.12791178509E+03  0.54131111672E+02  0.14967923214E+03  0.47000000000E+01 0.  1.
         -5    1    1    2    0  502  0.13590304457E+02  0.19172495343E+02  0.56093162775E+02  0.60998474268E+02  0.47000000000E+01 0.  1.
        -11    1    3    3    0    0 -0.70359821767E+02  0.25568344549E+02  0.20118883942E+03  0.21466530663E+03  0.00000000000E+00 0.  1.
         11    1    3    3    0    0  0.11801251664E+01  0.83170945199E+02  0.25467490840E+03  0.26791436652E+03  0.00000000000E+00 0. -1.
<mgrwt>
<rscale>  0 0.17398978E+03</rscale>
<asrwt>0</asrwt>
<pdfrwt beam="1">  1        2 0.96872719E-01 0.17954305E+03</pdfrwt>
<pdfrwt beam="2">  1       -2 0.97822587E-02 0.17954305E+03</pdfrwt>
<totfact> 0.32273550E+03</totfact>
</mgrwt>
</event>
<event>
 7    1  0.1446636E-005  0.1252049E+03  0.7546771E-02  0.1249696E+00
         -2   -1    0    0    0  501 -0.00000000000E+00  0.00000000000E+00  0.53005715822E+02  0.53005715822E+02  0.00000000000E+00 0.  1.
          2   -1    0    0  501    0  0.00000000000E+00 -0.00000000000E+00 -0.27363900402E+03  0.27363900402E+03  0.00000000000E+00 0. -1.
         23    2    1    2    0    0  0.46679104040E+01  0.52955099729E+01 -0.16598762717E+03  0.19003426241E+03  0.92256689204E+02 0.  0.
          5    1    1    2  502    0 -0.46840487707E+02  0.40877693734E+02 -0.30563103243E+02  0.69434936548E+02  0.47000000000E+01 0. -1.
         -5    1    1    2    0  502  0.42172577303E+02 -0.46173203706E+02 -0.24082557791E+02  0.67175520889E+02  0.47000000000E+01 0. -1.
        -11    1    3    3    0    0  0.47688324171E+01 -0.36590038795E+02 -0.12893755153E+03  0.13411362681E+03  0.00000000000E+00 0. -1.
         11    1    3    3    0    0 -0.10092201308E+00  0.41885548768E+02 -0.37050075635E+02  0.55920635595E+02  0.00000000000E+00 0.  1.
<mgrwt>
<rscale>  0 0.11608668E+03</rscale>
<asrwt>0</asrwt>
<pdfrwt beam="2">  1        2 0.42098308E-01 0.12520491E+03</pdfrwt>
<pdfrwt beam="1">  1       -2 0.81547256E-02 0.12520491E+03</pdfrwt>
<totfact> 0.10407400E+04</totfact>
</mgrwt>
</event>
<event>
 7    1  0.1446636E-005  0.2878767E+03  0.7546771E-02  0.1137206E+00
         -2   -1    0    0    0  501 -0.00000000000E+00  0.00000000000E+00  0.69219221835E+02  0.69219221835E+02  0.00000000000E+00 0.  1.
          2   -1    0    0  501    0  0.00000000000E+00 -0.00000000000E+00 -0.56384279874E+03  0.56384279874E+03  0.00000000000E+00 0. -1.
         23    2    1    2    0    0  0.11663050277E+02  0.55738155867E+01 -0.20783520743E+03  0.22671169997E+03  0.89641660486E+02 0.  0.
          5    1    1    2  502    0 -0.95426451702E+02 -0.10890424916E+02 -0.30545974411E+03  0.32023827740E+03  0.47000000000E+01 0. -1.
         -5    1    1    2    0  502  0.83763401425E+02  0.53166093291E+01  0.18671374640E+02  0.86112043199E+02  0.47000000000E+01 0.  1.
        -11    1    3    3    0    0  0.34655196683E+02 -0.30731507062E+02 -0.88747012054E+02  0.10010714426E+03  0.00000000000E+00 0.  1.
         11    1    3    3    0    0 -0.22992146407E+02  0.36305322648E+02 -0.11908819537E+03  0.12660455571E+03  0.00000000000E+00 0. -1.
<mgrwt>
<rscale>  0 0.21560045E+03</rscale>
<asrwt>0</asrwt>
<pdfrwt beam="2">  1        2 0.86745044E-01 0.28787673E+03</pdfrwt>
<pdfrwt beam="1">  1       -2 0.10649111E-01 0.28787673E+03</pdfrwt>
<totfact> 0.32480464E+03</totfact>
</mgrwt>
</event>
<event>
 7    1  0.1446636E-005  0.1467706E+03  0.7546771E-02  0.1224000E+00
          2   -1    0    0  501    0  0.00000000000E+00  0.00000000000E+00  0.66145254211E+03  0.66145254211E+03  0.00000000000E+00 0.  1.
         -2   -1    0    0    0  501 -0.00000000000E+00 -0.00000000000E+00 -0.23345585638E+02  0.23345585638E+02  0.00000000000E+00 0. -1.
         23    2    1    2    0    0  0.67866127062E+02 -0.36210887198E+02  0.32134551979E+03  0.33568578532E+03  0.59202734965E+02 0.  0.
          5    1    1    2  502    0 -0.21264122369E+02  0.69267411819E+02  0.92254926552E+02  0.11740186844E+03  0.47000000000E+01 0.  1.
         -5    1    1    2    0  502 -0.46602004693E+02 -0.33056524621E+02  0.22450651013E+03  0.23171047398E+03  0.47000000000E+01 0.  1.
        -11    1    3    3    0    0 -0.19981410912E+01  0.11936007135E+02  0.34945705775E+02  0.36981930537E+02  0.00000000000E+00 0.  1.
         11    1    3    3    0    0  0.69864268153E+02 -0.48146894333E+02  0.28639981401E+03  0.29870385479E+03  0.00000000000E+00 0. -1.
<mgrwt>
<rscale>  0 0.13235711E+03</rscale>
<asrwt>0</asrwt>
<pdfrwt beam="1">  1        2 0.10176192E+00 0.14677064E+03</pdfrwt>
<pdfrwt beam="2">  1       -2 0.35916291E-02 0.14677064E+03</pdfrwt>
<totfact> 0.13896621E+04</totfact>
</mgrwt>
</event>
<event>
 7    1  0.1446636E-005  0.1288953E+03  0.7546771E-02  0.1245982E+00
         -1   -1    0    0    0  501 -0.00000000000E+00  0.00000000000E+00  0.67342122140E+02  0.67342122140E+02  0.00000000000E+00 0.  1.
          1   -1    0    0  501    0  0.00000000000E+00 -0.00000000000E+00 -0.30925236364E+03  0.30925236364E+03  0.00000000000E+00 0. -1.
         23    2    1    2    0    0  0.47654405042E+01  0.31074937367E+02 -0.22960413373E+03  0.24711301749E+03  0.85781256863E+02 0.  0.
          5    1    1    2  502    0 -0.25789609628E+02 -0.15044318922E+01  0.50430279649E+02  0.56856577329E+02  0.47000000000E+01 0.  1.
         -5    1    1    2    0  502  0.21024169124E+02 -0.29570505475E+02 -0.62736387412E+02  0.72624890960E+02  0.47000000000E+01 0.  1.
        -11    1    3    3    0    0  0.20861834877E+02 -0.21230953146E+02 -0.40579861715E+02  0.50325885017E+02  0.00000000000E+00 0.  1.
         11    1    3    3    0    0 -0.16096394373E+02  0.52305890513E+02 -0.18902427202E+03  0.19678713247E+03  0.00000000000E+00 0. -1.
<mgrwt>
<rscale>  0 0.11826816E+03</rscale>
<asrwt>0</asrwt>
<pdfrwt beam="2">  1        1 0.47577287E-01 0.12889535E+03</pdfrwt>
<pdfrwt beam="1">  1       -1 0.10360326E-01 0.12889535E+03</pdfrwt>
<totfact> 0.46569436E+03</totfact>
</mgrwt>
</event>
<event>
 7    1  0.1446636E-005  0.2389683E+03  0.7546771E-02  0.1123237E+00
         -2   -1    0    0    0  501 -0.00000000000E+00  0.00000000000E+00  0.13406559651E+04  0.13406559651E+04  0.00000000000E+00 0.  1.
          2   -1    0    0  501    0  0.00000000000E+00 -0.00000000000E+00 -0.39899563466E+02  0.39899563466E+02  0.00000000000E+00 0. -1.
         23    2    1    2    0    0 -0.68183222050E+02 -0.19186302378E+03  0.65982352256E+03  0.69652278676E+03  0.91195065040E+02 0.  0.
          5    1    1    2  502    0  0.50336840909E+02  0.20781568413E+03  0.55791797130E+03  0.59750791528E+03  0.47000000000E+01 0. -1.
         -5    1    1    2    0  502  0.17846381141E+02 -0.15952660354E+02  0.83014907730E+02  0.86524826481E+02  0.47000000000E+01 0. -1.
        -11    1    3    3    0    0 -0.21627159127E+02 -0.80903782237E+02  0.14158344545E+03  0.16449628573E+03  0.00000000000E+00 0. -1.
         11    1    3    3    0    0 -0.46556062923E+02 -0.11095924154E+03  0.51824007711E+03  0.53202650103E+03  0.00000000000E+00 0.  1.
<mgrwt>
<rscale>  0 0.23490036E+03</rscale>
<asrwt>0</asrwt>
<pdfrwt beam="2">  1        2 0.61383954E-02 0.23896827E+03</pdfrwt>
<pdfrwt beam="1">  1       -2 0.20625473E+00 0.23896827E+03</pdfrwt>
<totfact> 0.15780814E+02</totfact>
</mgrwt>
</event>
<event>
 7    1  0.1446636E-005  0.1934330E+03  0.7546771E-02  0.1159998E+00
         -1   -1    0    0    0  501 -0.00000000000E+00  0.00000000000E+00  0.39459979380E+03  0.39459979380E+03  0.00000000000E+00 0.  1.
          1   -1    0    0  501    0  0.00000000000E+00 -0.00000000000E+00 -0.99742195138E+02  0.99742195138E+02  0.00000000000E+00 0. -1.
         23    2    1    2    0    0  0.13605012010E+03 -0.57279598871E+02  0.47065431319E+02  0.17998980237E+03  0.91600144687E+02 0.  0.
          5    1    1    2  502    0 -0.92194665022E+02 -0.24894372083E+02  0.15928279920E+03  0.18577590301E+03  0.47000000000E+01 0.  1.
         -5    1    1    2    0  502 -0.43855455079E+02  0.82173970954E+02  0.88509368142E+02  0.12857628355E+03  0.47000000000E+01 0.  1.
        -11    1    3    3    0    0  0.60254545368E+01  0.14173316437E+02 -0.12777503090E+02  0.20011336448E+02  0.00000000000E+00 0. -1.
         11    1    3    3    0    0  0.13002466556E+03 -0.71452915308E+02  0.59842934409E+02  0.15997846592E+03  0.00000000000E+00 0.  1.
<mgrwt>
<rscale>  0 0.18830637E+03</rscale>
<asrwt>0</asrwt>
<pdfrwt beam="2">  1        1 0.15344953E-01 0.19343303E+03</pdfrwt>
<pdfrwt beam="1">  1       -1 0.60707660E-01 0.19343303E+03</pdfrwt>
<totfact> 0.10215077E+03</totfact>
</mgrwt>
</event>
<event>
 7    1  0.1446636E-005  0.2765451E+03  0.7546771E-02  0.1114692E+00
         -2   -1    0    0    0  501 -0.00000000000E+00  0.00000000000E+00  0.15763826422E+03  0.15763826422E+03  0.00000000000E+00 0.  1.
          2   -1    0    0  501    0  0.00000000000E+00 -0.00000000000E+00 -0.54232984117E+03  0.54232984117E+03  0.00000000000E+00 0. -1.
         23    2    1    2    0    0 -0.58596150575E+02 -0.14087446038E+03 -0.38403750689E+03  0.42342222418E+03  0.92317120753E+02 0.  0.
          5    1    1    2  502    0 -0.61908020657E+01  0.25848212740E+02 -0.10486872929E+03  0.10828664052E+03  0.47000000000E+01 0. -1.
         -5    1    1    2    0  502  0.64786952641E+02  0.11502624764E+03  0.10421465923E+03  0.16825924069E+03  0.47000000000E+01 0.  1.
        -11    1    3    3    0    0  0.11752397521E+02  0.73024633388E+01 -0.38958795156E+02  0.41342865628E+02  0.00000000000E+00 0.  1.
         11    1    3    3    0    0 -0.70348548096E+02 -0.14817692372E+03 -0.34507871173E+03  0.38207935855E+03  0.00000000000E+00 0. -1.
<mgrwt>
<rscale>  0 0.24781669E+03</rscale>
<asrwt>0</asrwt>
<pdfrwt beam="2">  1        2 0.83435363E-01 0.27654511E+03</pdfrwt>
<pdfrwt beam="1">  1       -2 0.24252040E-01 0.27654511E+03</pdfrwt>
<totfact> 0.85355306E+02</totfact>
</mgrwt>
</event>
<event>
 7    1  0.1446636E-005  0.1289189E+03  0.7546771E-02  0.1250369E+00
          1   -1    0    0  501    0  0.00000000000E+00  0.00000000000E+00  0.48791090049E+03  0.48791090049E+03  0.00000000000E+00 0. -1.
         -1   -1    0    0    0  501 -0.00000000000E+00 -0.00000000000E+00 -0.29375761385E+02  0.29375761385E+02  0.00000000000E+00 0.  1.
         23    2    1    2    0    0 -0.17939237862E+02  0.25963071141E+02  0.30771591933E+03  0.31887667144E+03  0.77442541673E+02 0.  0.
          5    1    1    2  502    0 -0.36953664060E+02 -0.36929346308E+02  0.12697754999E+03  0.13738536352E+03  0.47000000000E+01 0.  1.
         -5    1    1    2    0  502  0.54892901922E+02  0.10966275167E+02  0.23841669779E+02  0.61024626917E+02  0.47000000000E+01 0.  1.
        -11    1    3    3    0    0 -0.43581000728E+02 -0.43201868989E+01  0.17094949786E+03  0.17647010642E+03  0.00000000000E+00 0.  1.
         11    1    3    3    0    0  0.25641762866E+02  0.30283258040E+02  0.13676642147E+03  0.14240656503E+03  0.00000000000E+00 0. -1.
<mgrwt>
<rscale>  0 0.11569706E+03</rscale>
<asrwt>0</asrwt>
<pdfrwt beam="1">  1        1 0.75063209E-01 0.12891892E+03</pdfrwt>
<pdfrwt beam="2">  1       -1 0.45193483E-02 0.12891892E+03</pdfrwt>
<totfact> 0.90823808E+03</totfact>
</mgrwt>
</event>
<event>
 7    1  0.1446636E-005  0.1341695E+03  0.7546771E-02  0.1234438E+00
         -1   -1    0    0    0  501 -0.00000000000E+00  0.00000000000E+00  0.76032638669E+03  0.76032638669E+03  0.00000000000E+00 0.  1.
          1   -1    0    0  501    0  0.00000000000E+00 -0.00000000000E+00 -0.18413699587E+02  0.18413699587E+02  0.00000000000E+00 0. -1.
         23    2    1    2    0    0  0.14790439338E+02  0.46487402471E+02  0.31129763566E+03  0.32770707209E+03  0.90032613219E+02 0.  0.
          5    1    1    2  502    0  0.26798502756E+02 -0.76694299579E+02  0.29170478382E+03  0.30284310499E+03  0.47000000000E+01 0.  1.
         -5    1    1    2    0  502 -0.41588942094E+02  0.30206897107E+02  0.13891026762E+03  0.14818990919E+03  0.47000000000E+01 0.  1.
        -11    1    3    3    0    0  0.43229102487E+02  0.29568737018E+02  0.26875215709E+03  0.27380793898E+03  0.00000000000E+00 0.  1.
         11    1    3    3    0    0 -0.28438663148E+02  0.16918665453E+02  0.42545478578E+02  0.53899133108E+02  0.00000000000E+00 0. -1.
<mgrwt>
<rscale>  0 0.12540507E+03</rscale>
<asrwt>0</asrwt>
<pdfrwt beam="2">  1        1 0.28328774E-02 0.13416951E+03</pdfrwt>
<pdfrwt beam="1">  1       -1 0.11697327E+00 0.13416951E+03</pdfrwt>
<totfact> 0.25079873E+03</totfact>
</mgrwt>
</event>
<event>
 7    1  0.1446636E-005  0.1291367E+03  0.7546771E-02  0.1241754E+00
          1   -1    0    0  501    0  0.00000000000E+00  0.00000000000E+00  0.11603452093E+03  0.11603452093E+03  0.00000000000E+00 0. -1.
         -1   -1    0    0    0  501 -0.00000000000E+00 -0.00000000000E+00 -0.12137104628E+03  0.12137104628E+03  0.00000000000E+00 0.  1.
         23    2    1    2    0    0 -0.30815696593E+02  0.10199246807E+02  0.30237548193E+02  0.10345852349E+03  0.93465100278E+02 0.  0.
          5    1    1    2  502    0  0.81332880250E+01 -0.32383674733E+02 -0.75527378317E+02  0.82712318543E+02  0.47000000000E+01 0. -1.
         -5    1    1    2    0  502  0.22682408568E+02  0.22184427926E+02  0.39953304784E+02  0.51234725177E+02  0.47000000000E+01 0. -1.
        -11    1    3    3    0    0  0.76200657858E+01 -0.36787732037E+02  0.17440272739E+02  0.41419388506E+02  0.00000000000E+00 0. -1.
         11    1    3    3    0    0 -0.38435762379E+02  0.46986978844E+02  0.12797275453E+02  0.62039134984E+02  0.00000000000E+00 0.  1.
<mgrwt>
<rscale>  0 0.12081799E+03</rscale>
<asrwt>0</asrwt>
<pdfrwt beam="1">  1        1 0.17851465E-01 0.12913673E+03</pdfrwt>
<pdfrwt beam="2">  1       -1 0.18672469E-01 0.12913673E+03</pdfrwt>
<totfact> 0.63250346E+03</totfact>
</mgrwt>
</event>
<event>
 7    1  0.1446636E-005  0.1615243E+03  0.7546771E-02  0.1190711E+00
          1   -1    0    0  501    0  0.00000000000E+00  0.00000000000E+00  0.64679973844E+02  0.64679973844E+02  0.00000000000E+00 0. -1.
         -1   -1    0    0    0  501 -0.00000000000E+00 -0.00000000000E+00 -0.37557677437E+03  0.37557677437E+03  0.00000000000E+00 0.  1.
         23    2    1    2    0    0 -0.31074653122E+02 -0.11261868886E+03 -0.12787001349E+03  0.19614837641E+03  0.92058905455E+02 0.  0.
          5    1    1    2  502    0  0.21130461627E+02 -0.15515067568E+02 -0.98375945050E+01  0.28391583187E+02  0.47000000000E+01 0. -1.
         -5    1    1    2    0  502  0.99441914946E+01  0.12813375642E+03 -0.17318919254E+03  0.21571678862E+03  0.47000000000E+01 0.  1.
        -11    1    3    3    0    0 -0.14992575058E+02 -0.12575550289E+03 -0.11822440892E+03  0.17325193990E+03  0.00000000000E+00 0. -1.
         11    1    3    3    0    0 -0.16082078064E+02  0.13136814029E+02 -0.96456045672E+01  0.22896436517E+02  0.00000000000E+00 0.  1.
<mgrwt>
<rscale>  0 0.15822859E+03</rscale>
<asrwt>0</asrwt>
<pdfrwt beam="1">  1        1 0.99507652E-02 0.16152428E+03</pdfrwt>
<pdfrwt beam="2">  1       -1 0.57781042E-01 0.16152428E+03</pdfrwt>
<totfact> 0.19775005E+03</totfact>
</mgrwt>
</event>
<event>
 7    1  0.1446636E-005  0.1690227E+03  0.7546771E-02  0.1185587E+00
          2   -1    0    0  501    0  0.00000000000E+00  0.00000000000E+00  0.31732842501E+03  0.31732842501E+03  0.00000000000E+00 0. -1.
         -2   -1    0    0    0  501 -0.00000000000E+00 -0.00000000000E+00 -0.79834933609E+02  0.79834933609E+02  0.00000000000E+00 0.  1.
         23    2    1    2    0    0 -0.10921091847E+03  0.31957184586E+02  0.14090839354E+03  0.20249094888E+03  0.90549006876E+02 0.  0.
          5    1    1    2  502    0  0.52421836417E+01 -0.30574299921E+02  0.84198301355E+02  0.89853838294E+02  0.47000000000E+01 0. -1.
         -5    1    1    2    0  502  0.10396873483E+03 -0.13828846645E+01  0.12386796503E+02  0.10481857145E+03  0.47000000000E+01 0. -1.
        -11    1    3    3    0    0 -0.76579961330E+02  0.18704894426E+01  0.13821673254E+03  0.15802485362E+03  0.00000000000E+00 0. -1.
         11    1    3    3    0    0 -0.32630957143E+02  0.30086695143E+02  0.26916610074E+01  0.44466095260E+02  0.00000000000E+00 0.  1.
<mgrwt>
<rscale>  0 0.16278556E+03</rscale>
<asrwt>0</asrwt>
<pdfrwt beam="1">  1        2 0.48819757E-01 0.16902268E+03</pdfrwt>
<pdfrwt beam="2">  1       -2 0.12282298E-01 0.16902268E+03</pdfrwt>
<totfact> 0.47573496E+03</totfact>
</mgrwt>
</event>
<event>
 7    1  0.1446636E-005  0.1839264E+03  0.7546771E-02  0.1169714E+00
         -2   -1    0    0    0  501 -0.00000000000E+00  0.00000000000E+00  0.12005409891E+03  0.12005409891E+03  0.00000000000E+00 0. -1.
          2   -1    0    0  501    0  0.00000000000E+00 -0.00000000000E+00 -0.31123435235E+03  0.31123435235E+03  0.00000000000E+00 0.  1.
         23    2    1    2    0    0 -0.29906502852E+02 -0.13153985154E+03 -0.18732515838E+03  0.24732169319E+03  0.88770341337E+02 0.  0.
          5    1    1    2  502    0 -0.55027875878E+01  0.81239714247E+02  0.55263590380E+02  0.98520689522E+02  0.47000000000E+01 0. -1.
         -5    1    1    2    0  502  0.35409290440E+02  0.50300137296E+02 -0.59118685444E+02  0.85446068547E+02  0.47000000000E+01 0. -1.
        -11    1    3    3    0    0 -0.39366928293E+02 -0.31713220640E+02 -0.10876303356E+03  0.11993698711E+03  0.00000000000E+00 0.  1.
         11    1    3    3    0    0  0.94604254401E+01 -0.99826630904E+02 -0.78562124821E+02  0.12738470608E+03  0.00000000000E+00 0. -1.
<mgrwt>
<rscale>  0 0.17803928E+03</rscale>
<asrwt>0</asrwt>
<pdfrwt beam="2">  1        2 0.47882207E-01 0.18392636E+03</pdfrwt>
<pdfrwt beam="1">  1       -2 0.18469862E-01 0.18392636E+03</pdfrwt>
<totfact> 0.24912267E+03</totfact>
</mgrwt>
</event>
<event>
 7    1  0.1446636E-005  0.2317154E+03  0.7546771E-02  0.1128416E+00
         -1   -1    0    0    0  501 -0.00000000000E+00  0.00000000000E+00  0.47838603495E+02  0.47838603495E+02  0.00000000000E+00 0.  1.
          1   -1    0    0  501    0  0.00000000000E+00 -0.00000000000E+00 -0.10481660339E+04  0.10481660339E+04  0.00000000000E+00 0. -1.
         23    2    1    2    0    0 -0.10172860198E+03 -0.16649295004E+03 -0.51560568825E+03  0.55874567404E+03  0.90988414781E+02 0.  0.
          5    1    1    2  502    0  0.52334221993E+01  0.12597244116E+03 -0.24269559334E+03  0.27353187322E+03  0.47000000000E+01 0. -1.
         -5    1    1    2    0  502  0.96495179784E+02  0.40520508885E+02 -0.24202614877E+03  0.26372709009E+03  0.47000000000E+01 0. -1.
        -11    1    3    3    0    0 -0.48309807862E+02 -0.13819010618E+03 -0.42769802742E+03  0.45205745834E+03  0.00000000000E+00 0. -1.
         11    1    3    3    0    0 -0.53418794121E+02 -0.28302843862E+02 -0.87907660829E+02  0.10668821570E+03  0.00000000000E+00 0.  1.
<mgrwt>
<rscale>  0 0.22749375E+03</rscale>
<asrwt>0</asrwt>
<pdfrwt beam="2">  1        1 0.16125629E+00 0.23171540E+03</pdfrwt>
<pdfrwt beam="1">  1       -1 0.73597862E-02 0.23171540E+03</pdfrwt>
<totfact> 0.14414828E+03</totfact>
</mgrwt>
</event>
<event>
 7    1  0.1446636E-005  0.2489201E+03  0.7546771E-02  0.1115626E+00
          1   -1    0    0  501    0  0.00000000000E+00  0.00000000000E+00  0.75783735795E+02  0.75783735795E+02  0.00000000000E+00 0. -1.
         -1   -1    0    0    0  501 -0.00000000000E+00 -0.00000000000E+00 -0.81512860829E+03  0.81512860829E+03  0.00000000000E+00 0.  1.
         23    2    1    2    0    0  0.45769916090E+02 -0.21033756040E+03 -0.27647298579E+03  0.36535399704E+03  0.10348650515E+03 0.  0.
          5    1    1    2  502    0  0.20880954175E+02 -0.56173371522E+01 -0.30809599524E+02  0.37932705503E+02  0.47000000000E+01 0. -1.
         -5    1    1    2    0  502 -0.66650870264E+02  0.21595489755E+03 -0.43206228719E+03  0.48762564155E+03  0.47000000000E+01 0. -1.
        -11    1    3    3    0    0  0.37477563026E+02 -0.21625076789E+03 -0.27888410249E+03  0.35488773572E+03  0.00000000000E+00 0.  1.
         11    1    3    3    0    0  0.82923530640E+01  0.59132074926E+01  0.24111167029E+01  0.10466261316E+02  0.00000000000E+00 0. -1.
<mgrwt>
<rscale>  0 0.24636175E+03</rscale>
<asrwt>0</asrwt>
<pdfrwt beam="1">  1        1 0.11659036E-01 0.24892005E+03</pdfrwt>
<pdfrwt beam="2">  1       -1 0.12540440E+00 0.24892005E+03</pdfrwt>
<totfact> 0.31094841E+02</totfact>
</mgrwt>
</event>
<event>
 7    1  0.1446636E-005  0.2046447E+03  0.7546771E-02  0.1149989E+00
         -2   -1    0    0    0  501 -0.00000000000E+00  0.00000000000E+00  0.24972341112E+03  0.24972341112E+03  0.00000000000E+00 0.  1.
          2   -1    0    0  501    0  0.00000000000E+00 -0.00000000000E+00 -0.15244958755E+03  0.15244958755E+03  0.00000000000E+00 0. -1.
         23    2    1    2    0    0  0.10495898277E+03 -0.12344400460E+03  0.46867787554E+02  0.19141193186E+03  0.90482748703E+02 0.  0.
          5    1    1    2  502    0 -0.67700233292E+02  0.11146345711E+03 -0.18077293103E+02  0.13174332007E+03  0.47000000000E+01 0.  1.
         -5    1    1    2    0  502 -0.37258749475E+02  0.11980547493E+02  0.68483329126E+02  0.79017746734E+02  0.47000000000E+01 0.  1.
        -11    1    3    3    0    0  0.10279688120E+03 -0.13461665298E+03  0.54242549734E+02  0.17785133186E+03  0.00000000000E+00 0.  1.
         11    1    3    3    0    0  0.21621015672E+01  0.11172648381E+02 -0.73747621802E+01  0.13560599996E+02  0.00000000000E+00 0. -1.
<mgrwt>
<rscale>  0 0.19970381E+03</rscale>
<asrwt>0</asrwt>
<pdfrwt beam="2">  1        2 0.23453783E-01 0.20464471E+03</pdfrwt>
<pdfrwt beam="1">  1       -2 0.38418986E-01 0.20464471E+03</pdfrwt>
<totfact> 0.14753882E+03</totfact>
</mgrwt>
</event>
<event>
 7    1  0.1446636E-005  0.2773467E+03  0.7546771E-02  0.1099040E+00
          2   -1    0    0  501    0  0.00000000000E+00  0.00000000000E+00  0.48703957448E+03  0.48703957448E+03  0.00000000000E+00 0. -1.
         -2   -1    0    0    0  501 -0.00000000000E+00 -0.00000000000E+00 -0.15056901823E+03  0.15056901823E+03  0.00000000000E+00 0.  1.
         23    2    1    2    0    0  0.24761335388E+03  0.10562303082E+01  0.15441991772E+03  0.30585017857E+03  0.91571458989E+02 0.  0.
          5    1    1    2  502    0 -0.12092393679E+03 -0.90688935577E+01  0.15570497365E+02  0.12234939194E+03  0.47000000000E+01 0. -1.
         -5    1    1    2    0  502 -0.12668941708E+03  0.80126632495E+01  0.16648014117E+03  0.20940902220E+03  0.47000000000E+01 0. -1.
        -11    1    3    3    0    0  0.79691992738E+02  0.31186232027E+01  0.10290581710E+03  0.13019272910E+03  0.00000000000E+00 0. -1.
         11    1    3    3    0    0  0.16792136114E+03 -0.20623928944E+01  0.51514100618E+02  0.17565744947E+03  0.00000000000E+00 0.  1.
<mgrwt>
<rscale>  0 0.27394947E+03</rscale>
<asrwt>0</asrwt>
<pdfrwt beam="1">  1        2 0.74929165E-01 0.27734673E+03</pdfrwt>
<pdfrwt beam="2">  1       -2 0.23164465E-01 0.27734673E+03</pdfrwt>
<totfact> 0.10450464E+03</totfact>
</mgrwt>
</event>
<event>
 7    1  0.1446636E-005  0.1466585E+03  0.7546771E-02  0.1214477E+00
         -1   -1    0    0    0  501 -0.00000000000E+00  0.00000000000E+00  0.12061141561E+04  0.12061141561E+04  0.00000000000E+00 0. -1.
          1   -1    0    0  501    0  0.00000000000E+00 -0.00000000000E+00 -0.14805316099E+02  0.14805316099E+02  0.00000000000E+00 0.  1.
         23    2    1    2    0    0  0.32450260236E+02 -0.69507498129E+02  0.46478153054E+03  0.47973754130E+03  0.90785052266E+02 0.  0.
          5    1    1    2  502    0  0.14228892883E+02 -0.29968736178E+02  0.24329236542E+03  0.24558878560E+03  0.47000000000E+01 0. -1.
         -5    1    1    2    0  502 -0.46679153119E+02  0.99476234307E+02  0.48323494409E+03  0.49559314535E+03  0.47000000000E+01 0. -1.
        -11    1    3    3    0    0 -0.17461685468E+02  0.13228992576E+02  0.72987153714E+02  0.76203945509E+02  0.00000000000E+00 0.  1.
         11    1    3    3    0    0  0.49911945704E+02 -0.82736490705E+02  0.39179437682E+03  0.40353359579E+03  0.00000000000E+00 0. -1.
<mgrwt>
<rscale>  0 0.13915019E+03</rscale>
<asrwt>0</asrwt>
<pdfrwt beam="2">  1        1 0.22777419E-02 0.14665853E+03</pdfrwt>
<pdfrwt beam="1">  1       -1 0.18555595E+00 0.14665853E+03</pdfrwt>
<totfact> 0.10350793E+03</totfact>
</mgrwt>
</event>
<event>
 7    1  0.1446636E-005  0.1281024E+03  0.7546771E-02  0.1247149E+00
         -1   -1    0    0    0  501 -0.00000000000E+00  0.00000000000E+00  0.23602913171E+03  0.23602913171E+03  0.00000000000E+00 0.  1.
          1   -1    0    0  501    0  0.00000000000E+00 -0.00000000000E+00 -0.52154082853E+02  0.52154082853E+02  0.00000000000E+00 0. -1.
         23    2    1    2    0    0  0.19901289183E+02 -0.19692730929E+02  0.53885361450E+02  0.10567964823E+03  0.86490987441E+02 0.  0.
          5    1    1    2  502    0  0.44338473992E+02 -0.18048062165E+02  0.77608226168E+02  0.91305857385E+02  0.47000000000E+01 0. -1.
         -5    1    1    2    0  502 -0.64239763175E+02  0.37740793094E+02  0.52381461238E+02  0.91197708949E+02  0.47000000000E+01 0. -1.
        -11    1    3    3    0    0  0.45976984814E+02  0.13831298736E+02  0.23477143249E+02  0.53444964332E+02  0.00000000000E+00 0.  1.
         11    1    3    3    0    0 -0.26075695631E+02 -0.33524029666E+02  0.30408218201E+02  0.52234683897E+02  0.00000000000E+00 0. -1.
<mgrwt>
<rscale>  0 0.11757648E+03</rscale>
<asrwt>0</asrwt>
<pdfrwt beam="2">  1        1 0.80237052E-02 0.12810243E+03</pdfrwt>
<pdfrwt beam="1">  1       -1 0.36312174E-01 0.12810243E+03</pdfrwt>
<totfact> 0.60060414E+03</totfact>
</mgrwt>
</event>
<event>
 7    1  0.1446636E-005  0.1271104E+03  0.7546771E-02  0.1247159E+00
          2   -1    0    0  501    0  0.00000000000E+00  0.00000000000E+00  0.19662851565E+03  0.19662851565E+03  0.00000000000E+00 0. -1.
         -2   -1    0    0    0  501 -0.00000000000E+00 -0.00000000000E+00 -0.61883672495E+02  0.61883672495E+02  0.00000000000E+00 0.  1.
         23    2    1    2    0    0  0.22974716581E+02  0.16979060129E+01  0.65331231677E+02  0.11368361908E+03  0.90139197514E+02 0.  0.
          5    1    1    2  502    0  0.26260757110E+02 -0.16048722676E+02 -0.23222215788E+02  0.38840058826E+02  0.47000000000E+01 0.  1.
         -5    1    1    2    0  502 -0.49235473691E+02  0.14350816663E+02  0.92635827263E+02  0.10598851023E+03  0.47000000000E+01 0.  1.
        -11    1    3    3    0    0 -0.58520897453E+01  0.21579261423E+02 -0.14404645801E+02  0.26597091920E+02  0.00000000000E+00 0.  1.
         11    1    3    3    0    0  0.28826806326E+02 -0.19881355410E+02  0.79735877478E+02  0.87086527162E+02  0.00000000000E+00 0. -1.
<mgrwt>
<rscale>  0 0.11757075E+03</rscale>
<asrwt>0</asrwt>
<pdfrwt beam="1">  1        2 0.30250541E-01 0.12711044E+03</pdfrwt>
<pdfrwt beam="2">  1       -2 0.95205651E-02 0.12711044E+03</pdfrwt>
<totfact> 0.11660888E+04</totfact>
</mgrwt>
</event>
<event>
 7    1  0.2106264E-005  0.4877043E+03  0.7546771E-02  0.1017541E+00
         -1   -1    0    0    0  501 -0.00000000000E+00  0.00000000000E+00  0.17321706666E+03  0.17321706666E+03  0.00000000000E+00 0.  1.
          1   -1    0    0  501    0  0.00000000000E+00 -0.00000000000E+00 -0.14979523486E+04  0.14979523486E+04  0.00000000000E+00 0. -1.
         23    2    1    2    0    0 -0.41423075350E+03  0.22504279291E+03 -0.91823635177E+03  0.10362703149E+04  0.92015173323E+02 0.  0.
          5    1    1    2  502    0  0.13409781030E+02  0.12885669462E+02 -0.53574778624E+01  0.19916206310E+02  0.47000000000E+01 0.  1.
         -5    1    1    2    0  502  0.40082097247E+03 -0.23792846237E+03 -0.40114145236E+03  0.61498289406E+03  0.47000000000E+01 0.  1.
        -11    1    3    3    0    0 -0.89921522799E+02  0.31734967170E+02 -0.12020425691E+03  0.15343419366E+03  0.00000000000E+00 0.  1.
         11    1    3    3    0    0 -0.32430923070E+03  0.19330782574E+03 -0.79803209486E+03  0.88283612128E+03  0.00000000000E+00 0. -1.
<mgrwt>
<rscale>  0 0.48584525E+03</rscale>
<asrwt>0</asrwt>
<pdfrwt beam="2">  1        1 0.23045421E+00 0.48770430E+03</pdfrwt>
<pdfrwt beam="1">  1       -1 0.26648779E-01 0.48770430E+03</pdfrwt>
<totfact> 0.86940315E+01</totfact>
</mgrwt>
</event>
<event>
 7    1  0.1446636E-005  0.1400815E+03  0.7546771E-02  0.1225511E+00
         -2   -1    0    0    0  501 -0.00000000000E+00  0.00000000000E+00  0.14893057763E+02  0.14893057763E+02  0.00000000000E+00 0.  1.
          2   -1    0    0  501    0  0.00000000000E+00 -0.00000000000E+00 -0.10347099970E+04  0.10347099970E+04  0.00000000000E+00 0. -1.
         23    2    1    2    0    0  0.45606248628E+02  0.43786014397E+02 -0.44054632487E+03  0.45363555509E+03  0.87789563830E+02 0.  0.
          5    1    1    2  502    0  0.15675158145E+02  0.30628321908E+02 -0.76440417296E+02  0.83958514054E+02  0.47000000000E+01 0. -1.
         -5    1    1    2    0  502 -0.61281406773E+02 -0.74414336305E+02 -0.50283019703E+03  0.51200898558E+03  0.47000000000E+01 0. -1.
        -11    1    3    3    0    0  0.59863553921E+02  0.53714652838E+02 -0.41512311581E+03  0.42284289080E+03  0.00000000000E+00 0. -1.
         11    1    3    3    0    0 -0.14257305293E+02 -0.99286384412E+01 -0.25423209057E+02  0.30792664293E+02  0.00000000000E+00 0.  1.
<mgrwt>
<rscale>  0 0.13131913E+03</rscale>
<asrwt>0</asrwt>
<pdfrwt beam="2">  1        2 0.15918618E+00 0.14008146E+03</pdfrwt>
<pdfrwt beam="1">  1       -2 0.22912393E-02 0.14008146E+03</pdfrwt>
<totfact> 0.15187662E+04</totfact>
</mgrwt>
</event>
<event>
 7    1  0.1446636E-005  0.1389086E+03  0.7546771E-02  0.1227220E+00
         -2   -1    0    0    0  501 -0.00000000000E+00  0.00000000000E+00  0.17303949824E+02  0.17303949824E+02  0.00000000000E+00 0.  1.
          2   -1    0    0  501    0  0.00000000000E+00 -0.00000000000E+00 -0.87892020722E+03  0.87892020722E+03  0.00000000000E+00 0. -1.
         23    2    1    2    0    0  0.54408521074E+02 -0.26643643898E+02 -0.40783467247E+03  0.42165770449E+03  0.88294556804E+02 0.  0.
          5    1    1    2  502    0  0.24764805492E+02  0.32116571733E+02 -0.28603550795E+03  0.28893454549E+03  0.47000000000E+01 0.  1.
         -5    1    1    2    0  502 -0.79173326566E+02 -0.54729278353E+01 -0.16774607698E+03  0.18563190707E+03  0.47000000000E+01 0.  1.
        -11    1    3    3    0    0  0.86832107497E+01  0.31547070580E+02 -0.14133783660E+03  0.14507584177E+03  0.00000000000E+00 0.  1.
         11    1    3    3    0    0  0.45725310324E+02 -0.58190714478E+02 -0.26649683587E+03  0.27658186272E+03  0.00000000000E+00 0. -1.
<mgrwt>
<rscale>  0 0.13015886E+03</rscale>
<asrwt>0</asrwt>
<pdfrwt beam="2">  1        2 0.13521850E+00 0.13890857E+03</pdfrwt>
<pdfrwt beam="1">  1       -2 0.26621459E-02 0.13890857E+03</pdfrwt>
<totfact> 0.15184047E+04</totfact>
</mgrwt>
</event>
<event>
 7    1  0.1446636E-005  0.1403129E+03  0.7546771E-02  0.1223959E+00
          2   -1    0    0  501    0  0.00000000000E+00  0.00000000000E+00  0.83629291352E+03  0.83629291352E+03  0.00000000000E+00 0.  1.
         -2   -1    0    0    0  501 -0.00000000000E+00 -0.00000000000E+00 -0.23283985908E+02  0.23283985908E+02  0.00000000000E+00 0. -1.
         23    2    1    2    0    0 -0.47834287250E+02 -0.42116608154E+02  0.55356296783E+03  0.56461942040E+03  0.91110936864E+02 0.  0.
          5    1    1    2  502    0  0.27756055598E+02  0.41903088960E+01 -0.33332734654E+01  0.28655854952E+02  0.47000000000E+01 0.  1.
         -5    1    1    2    0  502  0.20078231651E+02  0.37926299258E+02  0.26277923325E+03  0.26630162408E+03  0.47000000000E+01 0.  1.
        -11    1    3    3    0    0  0.23563101293E+01  0.26235977115E+02  0.13832317428E+03  0.14080901689E+03  0.00000000000E+00 0.  1.
         11    1    3    3    0    0 -0.50190597379E+02 -0.68352585270E+02  0.41523979355E+03  0.42381040351E+03  0.00000000000E+00 0. -1.
<mgrwt>
<rscale>  0 0.13238514E+03</rscale>
<asrwt>0</asrwt>
<pdfrwt beam="1">  1        2 0.12866043E+00 0.14031289E+03</pdfrwt>
<pdfrwt beam="2">  1       -2 0.35821523E-02 0.14031289E+03</pdfrwt>
<totfact> 0.10459408E+04</totfact>
</mgrwt>
</event>
<event>
 7    1  0.1446636E-005  0.1715123E+03  0.7546771E-02  0.1183282E+00
          3   -1    0    0  501    0  0.00000000000E+00  0.00000000000E+00  0.62002040491E+02  0.62002040491E+02  0.00000000000E+00 0. -1.
         -3   -1    0    0    0  501 -0.00000000000E+00 -0.00000000000E+00 -0.45483635600E+03  0.45483635600E+03  0.00000000000E+00 0.  1.
         23    2    1    2    0    0 -0.52531859168E+02  0.10503332866E+03 -0.99743515369E+02  0.17725232385E+03  0.87624317942E+02 0.  0.
          5    1    1    2  502    0  0.70489969552E+02 -0.16463834463E+02 -0.79526942379E+02  0.10764069034E+03  0.47000000000E+01 0.  1.
         -5    1    1    2    0  502 -0.17958110384E+02 -0.88569494194E+02 -0.21356385776E+03  0.23194538230E+03  0.47000000000E+01 0.  1.
        -11    1    3    3    0    0  0.23980719712E+02  0.34785275539E+02 -0.34930057135E+02  0.54819697224E+02  0.00000000000E+00 0.  1.
         11    1    3    3    0    0 -0.76512578880E+02  0.70248053117E+02 -0.64813458234E+02  0.12243262662E+03  0.00000000000E+00 0. -1.
<mgrwt>
<rscale>  0 0.16489199E+03</rscale>
<asrwt>0</asrwt>
<pdfrwt beam="1">  1        3 0.95387754E-02 0.17151234E+03</pdfrwt>
<pdfrwt beam="2">  1       -3 0.69974824E-01 0.17151234E+03</pdfrwt>
<totfact> 0.38094003E+02</totfact>
</mgrwt>
</event>
<event>
 7    1  0.1446636E-005  0.2660763E+03  0.7546771E-02  0.1106008E+00
         -2   -1    0    0    0  501 -0.00000000000E+00  0.00000000000E+00  0.36112591702E+03  0.36112591702E+03  0.00000000000E+00 0. -1.
          2   -1    0    0  501    0  0.00000000000E+00 -0.00000000000E+00 -0.18634809948E+03  0.18634809948E+03  0.00000000000E+00 0.  1.
         23    2    1    2    0    0  0.20767581385E+03  0.10973081808E+03  0.55282321784E+02  0.25579649722E+03  0.84885904541E+02 0.  0.
          5    1    1    2  502    0 -0.67849563755E+02  0.23879606350E+02  0.24300794815E+02  0.76068505505E+02  0.47000000000E+01 0. -1.
         -5    1    1    2    0  502 -0.13982625010E+03 -0.13361042443E+03  0.95194700937E+02  0.21560901377E+03  0.47000000000E+01 0. -1.
        -11    1    3    3    0    0  0.19908068090E+03  0.12201641753E+03  0.57916411113E+02  0.24057313718E+03  0.00000000000E+00 0. -1.
         11    1    3    3    0    0  0.85951329483E+01 -0.12285599448E+02 -0.26340893292E+01  0.15223360036E+02  0.00000000000E+00 0.  1.
<mgrwt>
<rscale>  0 0.26189765E+03</rscale>
<asrwt>0</asrwt>
<pdfrwt beam="2">  1        2 0.28668939E-01 0.26607631E+03</pdfrwt>
<pdfrwt beam="1">  1       -2 0.55557833E-01 0.26607631E+03</pdfrwt>
<totfact> 0.57344601E+02</totfact>
</mgrwt>
</event>
<event>
 7    1  0.1446636E-005  0.1711073E+03  0.7546771E-02  0.1185319E+00
         -1   -1    0    0    0  501 -0.00000000000E+00  0.00000000000E+00  0.15004084955E+04  0.15004084955E+04  0.00000000000E+00 0.  1.
          1   -1    0    0  501    0  0.00000000000E+00 -0.00000000000E+00 -0.17113289459E+02  0.17113289459E+02  0.00000000000E+00 0. -1.
         23    2    1    2    0    0 -0.23905521361E+02 -0.11437414768E+03  0.50237768355E+03  0.52179245416E+03  0.78937371918E+02 0.  0.
          5    1    1    2  502    0 -0.45664613282E+02  0.81603774375E+02  0.57307403324E+03  0.58067234347E+03  0.47000000000E+01 0. -1.
         -5    1    1    2    0  502  0.69570134642E+02  0.32770373308E+02  0.40784348925E+03  0.41505698732E+03  0.47000000000E+01 0. -1.
        -11    1    3    3    0    0  0.96346138577E+01 -0.48773450693E+02  0.89398865325E+02  0.10229287560E+03  0.00000000000E+00 0. -1.
         11    1    3    3    0    0 -0.33540135218E+02 -0.65600696990E+02  0.41297881822E+03  0.41949957857E+03  0.00000000000E+00 0.  1.
<mgrwt>
<rscale>  0 0.16302886E+03</rscale>
<asrwt>0</asrwt>
<pdfrwt beam="2">  1        1 0.26328149E-02 0.17110732E+03</pdfrwt>
<pdfrwt beam="1">  1       -1 0.23083197E+00 0.17110732E+03</pdfrwt>
<totfact> 0.42944576E+02</totfact>
</mgrwt>
</event>
<event>
 7    1  0.1446636E-005  0.1290828E+03  0.7546771E-02  0.1242440E+00
         -2   -1    0    0    0  501 -0.00000000000E+00  0.00000000000E+00  0.10367438163E+03  0.10367438163E+03  0.00000000000E+00 0.  1.
          2   -1    0    0  501    0  0.00000000000E+00 -0.00000000000E+00 -0.12459581926E+03  0.12459581926E+03  0.00000000000E+00 0. -1.
         23    2    1    2    0    0 -0.18415958305E+02 -0.26584954555E+02 -0.13169805820E+01  0.97707207429E+02  0.92190328217E+02 0.  0.
          5    1    1    2  502    0  0.23583910901E+02 -0.45494772986E+02  0.98342126154E+01  0.52390619009E+02  0.47000000000E+01 0.  1.
         -5    1    1    2    0  502 -0.51679525958E+01  0.72079727541E+02 -0.29438669666E+02  0.78172374456E+02  0.47000000000E+01 0.  1.
        -11    1    3    3    0    0 -0.34048065992E+02 -0.32059601595E+02 -0.36168164464E+02  0.59120427712E+02  0.00000000000E+00 0.  1.
         11    1    3    3    0    0  0.15632107687E+02  0.54746470394E+01  0.34851183882E+02  0.38586779717E+02  0.00000000000E+00 0. -1.
<mgrwt>
<rscale>  0 0.12039903E+03</rscale>
<asrwt>0</asrwt>
<pdfrwt beam="2">  1        2 0.19168588E-01 0.12908277E+03</pdfrwt>
<pdfrwt beam="1">  1       -2 0.15949905E-01 0.12908277E+03</pdfrwt>
<totfact> 0.84696187E+03</totfact>
</mgrwt>
</event>
<event>
 7    1  0.1446636E-005  0.1917621E+03  0.7546771E-02  0.1157260E+00
         -1   -1    0    0    0  501 -0.00000000000E+00  0.00000000000E+00  0.25589356200E+02  0.25589356200E+02  0.00000000000E+00 0.  1.
          1   -1    0    0  501    0  0.00000000000E+00 -0.00000000000E+00 -0.14516508971E+04  0.14516508971E+04  0.00000000000E+00 0. -1.
         23    2    1    2    0    0  0.14300764995E+03 -0.71034936025E+01 -0.81734711972E+03  0.83954095200E+03  0.12755801977E+03 0.  0.
          5    1    1    2  502    0 -0.37779715472E+02 -0.98167561472E+01 -0.41240106372E+03  0.41427092942E+03  0.47000000000E+01 0.  1.
         -5    1    1    2    0  502 -0.10522793448E+03  0.16920249750E+02 -0.19631335749E+03  0.22342837191E+03  0.47000000000E+01 0.  1.
        -11    1    3    3    0    0  0.10715818181E+02  0.44998023900E+02 -0.27516619965E+03  0.27902703874E+03  0.00000000000E+00 0. -1.
         11    1    3    3    0    0  0.13229183177E+03 -0.52101517503E+02 -0.54218092007E+03  0.56051391326E+03  0.00000000000E+00 0.  1.
<mgrwt>
<rscale>  0 0.19133802E+03</rscale>
<asrwt>0</asrwt>
<pdfrwt beam="2">  1        1 0.22333091E+00 0.19176208E+03</pdfrwt>
<pdfrwt beam="1">  1       -1 0.39368241E-02 0.19176208E+03</pdfrwt>
<totfact> 0.19412539E+03</totfact>
</mgrwt>
</event>
<event>
 7    1  0.3180772E-005  0.1462140E+03  0.7546771E-02  0.1214732E+00
          2   -1    0    0  501    0  0.00000000000E+00  0.00000000000E+00  0.98596621358E+03  0.98596621358E+03  0.00000000000E+00 0.  1.
         -2   -1    0    0    0  501 -0.00000000000E+00 -0.00000000000E+00 -0.18144690493E+02  0.18144690493E+02  0.00000000000E+00 0. -1.
         23    2    1    2    0    0 -0.70622959362E+02  0.27672275142E+02  0.49652695142E+03  0.51065664499E+03  0.92075177877E+02 0.  0.
          5    1    1    2  502    0  0.86865288711E+02 -0.54723509696E+02  0.42488529410E+03  0.43713824362E+03  0.47000000000E+01 0. -1.
         -5    1    1    2    0  502 -0.16242329348E+02  0.27051234554E+02  0.46409277572E+02  0.56316015469E+02  0.47000000000E+01 0. -1.
        -11    1    3    3    0    0  0.94046965776E+01  0.36566995031E+02  0.19108675898E+03  0.19478126938E+03  0.00000000000E+00 0.  1.
         11    1    3    3    0    0 -0.80027655940E+02 -0.88947198887E+01  0.30544019244E+03  0.31587537561E+03  0.00000000000E+00 0. -1.
<mgrwt>
<rscale>  0 0.13896226E+03</rscale>
<asrwt>0</asrwt>
<pdfrwt beam="1">  1        2 0.15168707E+00 0.14621400E+03</pdfrwt>
<pdfrwt beam="2">  1       -2 0.27914916E-02 0.14621400E+03</pdfrwt>
<totfact> 0.12194291E+04</totfact>
</mgrwt>
</event>
<event>
 7    1  0.1446636E-005  0.2181631E+03  0.7546771E-02  0.1135260E+00
          2   -1    0    0  501    0  0.00000000000E+00  0.00000000000E+00  0.22436246277E+02  0.22436246277E+02  0.00000000000E+00 0. -1.
         -2   -1    0    0    0  501 -0.00000000000E+00 -0.00000000000E+00 -0.53033740420E+03  0.53033740420E+03  0.00000000000E+00 0.  1.
         23    2    1    2    0    0  0.80846579891E+00  0.14612659651E+02 -0.20215745201E+03  0.22214474679E+03  0.90920128048E+02 0.  0.
          5    1    1    2  502    0  0.46392197938E+02  0.34162691553E+02 -0.14077728066E+03  0.15218297629E+03  0.47000000000E+01 0. -1.
         -5    1    1    2    0  502 -0.47200663737E+02 -0.48775351204E+02 -0.16496642525E+03  0.17844592739E+03  0.47000000000E+01 0. -1.
        -11    1    3    3    0    0  0.91904030351E+01  0.48236844226E+02 -0.16110271319E+03  0.16842013195E+03  0.00000000000E+00 0.  1.
         11    1    3    3    0    0 -0.83819372362E+01 -0.33624184575E+02 -0.41054738819E+02  0.53724614839E+02  0.00000000000E+00 0. -1.
<mgrwt>
<rscale>  0 0.21816306E+03</rscale>
<asrwt>0</asrwt>
<pdfrwt beam="1">  1        2 0.34517305E-02 0.21816306E+03</pdfrwt>
<pdfrwt beam="2">  1       -2 0.81590363E-01 0.21816306E+03</pdfrwt>
<totfact> 0.34736585E+03</totfact>
</mgrwt>
</event>
<event>
 7    1  0.1446636E-005  0.1269888E+03  0.7546771E-02  0.1247154E+00
          2   -1    0    0  501    0  0.00000000000E+00  0.00000000000E+00  0.10318509660E+03  0.10318509660E+03  0.00000000000E+00 0. -1.
         -2   -1    0    0    0  501 -0.00000000000E+00 -0.00000000000E+00 -0.12279278066E+03  0.12279278066E+03  0.00000000000E+00 0.  1.
         23    2    1    2    0    0 -0.60667560107E+01  0.21552877934E+02  0.14630380869E+02  0.94454502776E+02  0.90588481468E+02 0.  0.
          5    1    1    2  502    0 -0.52643621675E+02  0.90080012883E+01 -0.36947884172E+02  0.65113217821E+02  0.47000000000E+01 0. -1.
         -5    1    1    2    0  502  0.58710377685E+02 -0.30560879222E+02  0.27098192443E+01  0.66410156656E+02  0.47000000000E+01 0. -1.
        -11    1    3    3    0    0 -0.21973251879E+02 -0.85457225523E+00 -0.32888259163E+02  0.39562503493E+02  0.00000000000E+00 0.  1.
         11    1    3    3    0    0  0.15906495869E+02  0.22407450189E+02  0.47518640032E+02  0.54891999283E+02  0.00000000000E+00 0. -1.
<mgrwt>
<rscale>  0 0.11757402E+03</rscale>
<asrwt>0</asrwt>
<pdfrwt beam="1">  1        2 0.15874630E-01 0.12698879E+03</pdfrwt>
<pdfrwt beam="2">  1       -2 0.18891197E-01 0.12698879E+03</pdfrwt>
<totfact> 0.79306882E+03</totfact>
</mgrwt>
</event>
<event>
 7    1  0.1446636E-005  0.1745305E+03  0.7546771E-02  0.1179384E+00
         -2   -1    0    0    0  501 -0.00000000000E+00  0.00000000000E+00  0.31359248076E+02  0.31359248076E+02  0.00000000000E+00 0.  1.
          2   -1    0    0  501    0  0.00000000000E+00 -0.00000000000E+00 -0.85859728341E+03  0.85859728341E+03  0.00000000000E+00 0. -1.
         23    2    1    2    0    0 -0.69971901796E+02 -0.99701220679E+02 -0.43265172512E+03  0.45849478309E+03  0.90518232530E+02 0.  0.
          5    1    1    2  502    0  0.29315072763E+02 -0.10344103845E+02 -0.21243987913E+03  0.21475373389E+03  0.47000000000E+01 0.  1.
         -5    1    1    2    0  502  0.40656829034E+02  0.11004532452E+03 -0.18214643108E+03  0.21670801451E+03  0.47000000000E+01 0.  1.
        -11    1    3    3    0    0 -0.88772337877E+02 -0.71808867518E+02 -0.37214117564E+03  0.38926353032E+03  0.00000000000E+00 0.  1.
         11    1    3    3    0    0  0.18800436080E+02 -0.27892353161E+02 -0.60510549481E+02  0.69231252770E+02  0.00000000000E+00 0. -1.
<mgrwt>
<rscale>  0 0.16853498E+03</rscale>
<asrwt>0</asrwt>
<pdfrwt beam="2">  1        2 0.13209186E+00 0.17453047E+03</pdfrwt>
<pdfrwt beam="1">  1       -2 0.48245007E-02 0.17453047E+03</pdfrwt>
<totfact> 0.65544604E+03</totfact>
</mgrwt>
</event>
<event>
 7    1  0.1446636E-005  0.2954237E+03  0.7546771E-02  0.1092772E+00
          4   -1    0    0  501    0  0.00000000000E+00  0.00000000000E+00  0.33797341072E+03  0.33797341072E+03  0.00000000000E+00 0. -1.
         -4   -1    0    0    0  501 -0.00000000000E+00 -0.00000000000E+00 -0.25970231775E+03  0.25970231775E+03  0.00000000000E+00 0.  1.
         23    2    1    2    0    0  0.19581958221E+03 -0.14150023046E+03  0.14418766531E+03  0.29498750456E+03  0.88656195621E+02 0.  0.
          5    1    1    2  502    0 -0.16792779626E+03  0.18531550946E+02 -0.31808140320E+02  0.17197968173E+03  0.47000000000E+01 0. -1.
         -5    1    1    2    0  502 -0.27891785950E+02  0.12296867952E+03 -0.34108432013E+02  0.13070854219E+03  0.47000000000E+01 0.  1.
        -11    1    3    3    0    0  0.19759799694E+03 -0.12187009806E+03  0.14742674551E+03  0.27501260787E+03  0.00000000000E+00 0.  1.
         11    1    3    3    0    0 -0.17784147353E+01 -0.19630132405E+02 -0.32390801994E+01  0.19974896689E+02  0.00000000000E+00 0. -1.
<mgrwt>
<rscale>  0 0.28540649E+03</rscale>
<asrwt>0</asrwt>
<pdfrwt beam="1">  1        4 0.51995909E-01 0.29542371E+03</pdfrwt>
<pdfrwt beam="2">  1       -4 0.39954203E-01 0.29542371E+03</pdfrwt>
<totfact> 0.40379281E+01</totfact>
</mgrwt>
</event>
<event>
 7    1  0.1446636E-005  0.4559098E+03  0.7546771E-02  0.1029526E+00
          2   -1    0    0  501    0  0.00000000000E+00  0.00000000000E+00  0.23367385252E+04  0.23367385252E+04  0.00000000000E+00 0. -1.
         -2   -1    0    0    0  501 -0.00000000000E+00 -0.00000000000E+00 -0.93791482274E+02  0.93791482274E+02  0.00000000000E+00 0.  1.
         23    2    1    2    0    0  0.20754444047E+03  0.34311687398E+03  0.15321320379E+04  0.15860705657E+04  0.85949834140E+02 0.  0.
          5    1    1    2  502    0 -0.12274832310E+02  0.28719058560E+02  0.85784364305E+02  0.91413910276E+02  0.47000000000E+01 0. -1.
         -5    1    1    2    0  502 -0.19526960816E+03 -0.37183593254E+03  0.62503064073E+03  0.75304553146E+03  0.47000000000E+01 0.  1.
        -11    1    3    3    0    0  0.14096947887E+03  0.15153767653E+03  0.74223460173E+03  0.77055062480E+03  0.00000000000E+00 0. -1.
         11    1    3    3    0    0  0.66574961605E+02  0.19157919744E+03  0.78989743617E+03  0.81551994094E+03  0.00000000000E+00 0.  1.
<mgrwt>
<rscale>  0 0.44400172E+03</rscale>
<asrwt>0</asrwt>
<pdfrwt beam="1">  1        2 0.35949819E+00 0.45590983E+03</pdfrwt>
<pdfrwt beam="2">  1       -2 0.14429461E-01 0.45590983E+03</pdfrwt>
<totfact> 0.17340729E+02</totfact>
</mgrwt>
</event>
<event>
 7    1  0.1446636E-005  0.1298156E+03  0.7546771E-02  0.1242406E+00
          1   -1    0    0  501    0  0.00000000000E+00  0.00000000000E+00  0.59681555173E+02  0.59681555173E+02  0.00000000000E+00 0. -1.
         -1   -1    0    0    0  501 -0.00000000000E+00 -0.00000000000E+00 -0.21437878891E+03  0.21437878891E+03  0.00000000000E+00 0.  1.
         23    2    1    2    0    0 -0.30738892145E+02 -0.16948154802E+02 -0.58987287208E+02  0.11277651719E+03  0.89481413349E+02 0.  0.
          5    1    1    2  502    0  0.46141599585E+01 -0.21361244013E+02 -0.11022513759E+03  0.11246894760E+03  0.47000000000E+01 0.  1.
         -5    1    1    2    0  502  0.26124732187E+02  0.38309398815E+02  0.14515191058E+02  0.48814879298E+02  0.47000000000E+01 0.  1.
        -11    1    3    3    0    0 -0.33924229032E+02  0.28510094379E+02 -0.49112432148E+02  0.66149148055E+02  0.00000000000E+00 0.  1.
         11    1    3    3    0    0  0.31853368863E+01 -0.45458249180E+02 -0.98748550600E+01  0.46627369131E+02  0.00000000000E+00 0. -1.
<mgrwt>
<rscale>  0 0.12041995E+03</rscale>
<asrwt>0</asrwt>
<pdfrwt beam="1">  1        1 0.91817778E-02 0.12981556E+03</pdfrwt>
<pdfrwt beam="2">  1       -1 0.32981352E-01 0.12981556E+03</pdfrwt>
<totfact> 0.59207204E+03</totfact>
</mgrwt>
</event>
<event>
 7    1  0.1446636E-005  0.1436185E+03  0.7546771E-02  0.1218633E+00
          1   -1    0    0  501    0  0.00000000000E+00  0.00000000000E+00  0.80594438789E+03  0.80594438789E+03  0.00000000000E+00 0. -1.
         -1   -1    0    0    0  501 -0.00000000000E+00 -0.00000000000E+00 -0.22604594986E+02  0.22604594986E+02  0.00000000000E+00 0.  1.
         23    2    1    2    0    0  0.44332440433E+02  0.55110039947E+02  0.46633314612E+03  0.48052674434E+03  0.91852420129E+02 0.  0.
          5    1    1    2  502    0 -0.26753928286E+02 -0.18707316832E+02  0.30328654573E+03  0.30507467152E+03  0.47000000000E+01 0. -1.
         -5    1    1    2    0  502 -0.17578512147E+02 -0.36402723115E+02  0.13720101059E+02  0.42947567015E+02  0.47000000000E+01 0. -1.
        -11    1    3    3    0    0  0.55799588420E+02  0.19398506710E+01  0.31034147808E+03  0.31532394471E+03  0.00000000000E+00 0. -1.
         11    1    3    3    0    0 -0.11467147987E+02  0.53170189276E+02  0.15599166803E+03  0.16520279963E+03  0.00000000000E+00 0.  1.
<mgrwt>
<rscale>  0 0.13613036E+03</rscale>
<asrwt>0</asrwt>
<pdfrwt beam="1">  1        1 0.12399142E+00 0.14361847E+03</pdfrwt>
<pdfrwt beam="2">  1       -1 0.34776306E-02 0.14361847E+03</pdfrwt>
<totfact> 0.66932084E+03</totfact>
</mgrwt>
</event>
<event>
 7    1  0.1446636E-005  0.1496306E+03  0.7546771E-02  0.1210350E+00
          2   -1    0    0  501    0  0.00000000000E+00  0.00000000000E+00  0.26529704376E+03  0.26529704376E+03  0.00000000000E+00 0. -1.
         -2   -1    0    0    0  501 -0.00000000000E+00 -0.00000000000E+00 -0.71904915116E+02  0.71904915116E+02  0.00000000000E+00 0.  1.
         23    2    1    2    0    0  0.98932005800E+01  0.81646467406E+02  0.11714850226E+03  0.16926627882E+03  0.90350874413E+02 0.  0.
          5    1    1    2  502    0  0.23831174297E+02 -0.88239087871E+02  0.86069803036E+01  0.91925141319E+02  0.47000000000E+01 0. -1.
         -5    1    1    2    0  502 -0.33724374877E+02  0.65926204646E+01  0.67636646084E+02  0.76010538736E+02  0.47000000000E+01 0. -1.
        -11    1    3    3    0    0 -0.30705792473E+02  0.74864373346E+02  0.74396982532E+02  0.10992011234E+03  0.00000000000E+00 0.  1.
         11    1    3    3    0    0  0.40598993053E+02  0.67820940604E+01  0.42751519725E+02  0.59346166477E+02  0.00000000000E+00 0. -1.
<mgrwt>
<rscale>  0 0.14223709E+03</rscale>
<asrwt>0</asrwt>
<pdfrwt beam="1">  1        2 0.40814929E-01 0.14963055E+03</pdfrwt>
<pdfrwt beam="2">  1       -2 0.11062295E-01 0.14963055E+03</pdfrwt>
<totfact> 0.67578729E+03</totfact>
</mgrwt>
</event>
<event>
 7    1  0.1446636E-005  0.1299864E+03  0.7546771E-02  0.1241434E+00
         -4   -1    0    0    0  501 -0.00000000000E+00  0.00000000000E+00  0.12980284074E+03  0.12980284074E+03  0.00000000000E+00 0.  1.
          4   -1    0    0  501    0  0.00000000000E+00 -0.00000000000E+00 -0.10105359866E+03  0.10105359866E+03  0.00000000000E+00 0. -1.
         23    2    1    2    0    0  0.34196847131E+02 -0.10256427164E+02 -0.38332299761E+00  0.97645405759E+02  0.90883770154E+02 0.  0.
          5    1    1    2  502    0 -0.44072916525E+02 -0.48479147214E+02 -0.22496680143E+01  0.65725190694E+02  0.47000000000E+01 0. -1.
         -5    1    1    2    0  502  0.98760693940E+01  0.58735574377E+02  0.31382233093E+02  0.67485842945E+02  0.47000000000E+01 0. -1.
        -11    1    3    3    0    0 -0.56632199831E+01 -0.23304685581E+02  0.35233537099E+02  0.42621386265E+02  0.00000000000E+00 0.  1.
         11    1    3    3    0    0  0.39860067114E+02  0.13048258417E+02 -0.35616860097E+02  0.55024019494E+02  0.00000000000E+00 0. -1.
<mgrwt>
<rscale>  0 0.12101401E+03</rscale>
<asrwt>0</asrwt>
<pdfrwt beam="2">  1        4 0.15546707E-01 0.12998643E+03</pdfrwt>
<pdfrwt beam="1">  1       -4 0.19969668E-01 0.12998643E+03</pdfrwt>
<totfact> 0.13068762E+03</totfact>
</mgrwt>
</event>
<event>
 7    1  0.1446636E-005  0.1563912E+03  0.7546771E-02  0.1200970E+00
         -2   -1    0    0    0  501 -0.00000000000E+00  0.00000000000E+00  0.50326355240E+02  0.50326355240E+02  0.00000000000E+00 0.  1.
          2   -1    0    0  501    0  0.00000000000E+00 -0.00000000000E+00 -0.41168525027E+03  0.41168525027E+03  0.00000000000E+00 0. -1.
         23    2    1    2    0    0  0.48137811422E+02 -0.80719815602E+02 -0.17902852445E+03  0.22179800451E+03  0.91160324242E+02 0.  0.
          5    1    1    2  502    0  0.39066772638E+02  0.22611925464E+02 -0.88576401548E+02  0.99525779619E+02  0.47000000000E+01 0. -1.
         -5    1    1    2    0  502 -0.87204584060E+02  0.58107890138E+02 -0.93753969026E+02  0.14068782138E+03  0.47000000000E+01 0. -1.
        -11    1    3    3    0    0  0.68612420384E+02 -0.52652734807E+02 -0.16075562874E+03  0.18254409573E+03  0.00000000000E+00 0. -1.
         11    1    3    3    0    0 -0.20474608963E+02 -0.28067080795E+02 -0.18272895711E+02  0.39253908776E+02  0.00000000000E+00 0.  1.
<mgrwt>
<rscale>  0 0.14959620E+03</rscale>
<asrwt>0</asrwt>
<pdfrwt beam="2">  1        2 0.63336194E-01 0.15639121E+03</pdfrwt>
<pdfrwt beam="1">  1       -2 0.77425160E-02 0.15639121E+03</pdfrwt>
<totfact> 0.74165620E+03</totfact>
</mgrwt>
</event>
<event>
 7    1  0.1446636E-005  0.2261850E+03  0.7546771E-02  0.1132220E+00
         -1   -1    0    0    0  501 -0.00000000000E+00  0.00000000000E+00  0.61595854707E+02  0.61595854707E+02  0.00000000000E+00 0.  1.
          1   -1    0    0  501    0  0.00000000000E+00 -0.00000000000E+00 -0.77528856106E+03  0.77528856106E+03  0.00000000000E+00 0. -1.
         23    2    1    2    0    0  0.15094847842E+02  0.18789759821E+03 -0.34980219698E+03  0.40842676636E+03  0.94432434136E+02 0.  0.
          5    1    1    2  502    0 -0.33498849363E+02 -0.90663119316E+02 -0.73163490109E+02  0.12131347987E+03  0.47000000000E+01 0. -1.
         -5    1    1    2    0  502  0.18404001521E+02 -0.97234478892E+02 -0.29072701926E+03  0.30714416954E+03  0.47000000000E+01 0. -1.
        -11    1    3    3    0    0 -0.38720228080E+02  0.56738425332E+02 -0.10300838349E+03  0.12381127590E+03  0.00000000000E+00 0. -1.
         11    1    3    3    0    0  0.53815075922E+02  0.13115917288E+03 -0.24679381349E+03  0.28461549045E+03  0.00000000000E+00 0.  1.
<mgrwt>
<rscale>  0 0.22224544E+03</rscale>
<asrwt>0</asrwt>
<pdfrwt beam="2">  1        1 0.11927517E+00 0.22618500E+03</pdfrwt>
<pdfrwt beam="1">  1       -1 0.94762851E-02 0.22618500E+03</pdfrwt>
<totfact> 0.16002577E+03</totfact>
</mgrwt>
</event>
<event>
 7    1  0.1446636E-005  0.1308328E+03  0.7546771E-02  0.1239534E+00
         -1   -1    0    0    0  501 -0.00000000000E+00  0.00000000000E+00  0.25102979236E+02  0.25102979236E+02  0.00000000000E+00 0.  1.
          1   -1    0    0  501    0  0.00000000000E+00 -0.00000000000E+00 -0.55086248803E+03  0.55086248803E+03  0.00000000000E+00 0. -1.
         23    2    1    2    0    0  0.38149394229E+02  0.61506397608E+01 -0.28614485299E+03  0.30295921287E+03  0.91718052320E+02 0.  0.
          5    1    1    2  502    0 -0.19399872811E+02 -0.57219650903E+02 -0.60017229195E+02  0.85291273380E+02  0.47000000000E+01 0.  1.
         -5    1    1    2    0  502 -0.18749521418E+02  0.51069011143E+02 -0.17959742660E+03  0.18771498101E+03  0.47000000000E+01 0.  1.
        -11    1    3    3    0    0  0.87214412763E+01 -0.38287924503E+02 -0.69224476893E+02  0.79586788488E+02  0.00000000000E+00 0.  1.
         11    1    3    3    0    0  0.29427952953E+02  0.44438564264E+02 -0.21692037610E+03  0.22337242439E+03  0.00000000000E+00 0. -1.
<mgrwt>
<rscale>  0 0.12218605E+03</rscale>
<asrwt>0</asrwt>
<pdfrwt beam="2">  1        1 0.84748073E-01 0.13083284E+03</pdfrwt>
<pdfrwt beam="1">  1       -1 0.38619969E-02 0.13083284E+03</pdfrwt>
<totfact> 0.97669177E+03</totfact>
</mgrwt>
</event>
<event>
 7    1  0.1446636E-005  0.1819954E+03  0.7546771E-02  0.1171292E+00
          1   -1    0    0  501    0  0.00000000000E+00  0.00000000000E+00  0.10792067729E+03  0.10792067729E+03  0.00000000000E+00 0. -1.
         -1   -1    0    0    0  501 -0.00000000000E+00 -0.00000000000E+00 -0.41741898073E+03  0.41741898073E+03  0.00000000000E+00 0.  1.
         23    2    1    2    0    0 -0.33338686582E+02 -0.12800602656E+03  0.62471595575E+01  0.16089829802E+03  0.91390505218E+02 0.  0.
          5    1    1    2  502    0 -0.34773962091E+02  0.99094773174E+02 -0.15337376910E+03  0.18594247916E+03  0.47000000000E+01 0.  1.
         -5    1    1    2    0  502  0.68112648673E+02  0.28911253386E+02 -0.16237169390E+03  0.17849888084E+03  0.47000000000E+01 0.  1.
        -11    1    3    3    0    0 -0.84921331480E+00 -0.43965442026E+02  0.44907882162E+02  0.62852200726E+02  0.00000000000E+00 0. -1.
         11    1    3    3    0    0 -0.32489473267E+02 -0.84040584534E+02 -0.38660722605E+02  0.98046097293E+02  0.00000000000E+00 0.  1.
<mgrwt>
<rscale>  0 0.17644168E+03</rscale>
<asrwt>0</asrwt>
<pdfrwt beam="1">  1        1 0.16603181E-01 0.18199535E+03</pdfrwt>
<pdfrwt beam="2">  1       -1 0.64218305E-01 0.18199535E+03</pdfrwt>
<totfact> 0.82619188E+02</totfact>
</mgrwt>
</event>
<event>
 7    1  0.1446636E-005  0.1301629E+03  0.7546771E-02  0.1240954E+00
         -2   -1    0    0    0  501 -0.00000000000E+00  0.00000000000E+00  0.42864314317E+03  0.42864314317E+03  0.00000000000E+00 0. -1.
          2   -1    0    0  501    0  0.00000000000E+00 -0.00000000000E+00 -0.32048593582E+02  0.32048593582E+02  0.00000000000E+00 0.  1.
         23    2    1    2    0    0  0.59036138980E+00  0.36310231772E+02  0.12043968764E+03  0.15539861788E+03  0.91237221695E+02 0.  0.
          5    1    1    2  502    0 -0.20065986057E+02 -0.76337777882E+02  0.21806530801E+03  0.23195833394E+03  0.47000000000E+01 0. -1.
         -5    1    1    2    0  502  0.19475624667E+02  0.40027546110E+02  0.58089553940E+02  0.73334784930E+02  0.47000000000E+01 0. -1.
        -11    1    3    3    0    0  0.13424703648E+02  0.51385820842E+02  0.26423894770E+02  0.59320717009E+02  0.00000000000E+00 0.  1.
         11    1    3    3    0    0 -0.12834342258E+02 -0.15075589071E+02  0.94015792870E+02  0.96077900872E+02  0.00000000000E+00 0. -1.
<mgrwt>
<rscale>  0 0.12130871E+03</rscale>
<asrwt>0</asrwt>
<pdfrwt beam="2">  1        2 0.49305532E-02 0.13016290E+03</pdfrwt>
<pdfrwt beam="1">  1       -2 0.65945095E-01 0.13016290E+03</pdfrwt>
<totfact> 0.33024377E+03</totfact>
</mgrwt>
</event>
<event>
 7    1  0.1446636E-005  0.1447203E+03  0.7546771E-02  0.1217372E+00
          1   -1    0    0  501    0  0.00000000000E+00  0.00000000000E+00  0.91502978553E+02  0.91502978553E+02  0.00000000000E+00 0. -1.
         -1   -1    0    0    0  501 -0.00000000000E+00 -0.00000000000E+00 -0.18756279016E+03  0.18756279016E+03  0.00000000000E+00 0.  1.
         23    2    1    2    0    0 -0.58322860376E+02  0.43793720597E+02 -0.31096807829E+02  0.12043365491E+03  0.90652125024E+02 0.  0.
          5    1    1    2  502    0 -0.16624939877E+02 -0.15071644758E+02  0.27695918035E+02  0.35954095419E+02  0.47000000000E+01 0.  1.
         -5    1    1    2    0  502  0.74947800253E+02 -0.28722075839E+02 -0.92658921809E+02  0.12267801838E+03  0.47000000000E+01 0.  1.
        -11    1    3    3    0    0 -0.23554553117E+02  0.51376302659E+02 -0.53956240242E+02  0.78138449617E+02  0.00000000000E+00 0.  1.
         11    1    3    3    0    0 -0.34768307259E+02 -0.75825820625E+01  0.22859432413E+02  0.42295205292E+02  0.00000000000E+00 0. -1.
<mgrwt>
<rscale>  0 0.13703716E+03</rscale>
<asrwt>0</asrwt>
<pdfrwt beam="1">  1        1 0.14077381E-01 0.14472027E+03</pdfrwt>
<pdfrwt beam="2">  1       -1 0.28855814E-01 0.14472027E+03</pdfrwt>
<totfact> 0.42558088E+03</totfact>
</mgrwt>
</event>
<event>
 7    1  0.1446636E-005  0.1254289E+03  0.7546771E-02  0.1249957E+00
          1   -1    0    0  501    0  0.00000000000E+00  0.00000000000E+00  0.74812555959E+02  0.74812555959E+02  0.00000000000E+00 0. -1.
         -1   -1    0    0    0  501 -0.00000000000E+00 -0.00000000000E+00 -0.18301621811E+03  0.18301621811E+03  0.00000000000E+00 0.  1.
         23    2    1    2    0    0 -0.10329846139E+02 -0.78779766294E+00  0.94496772741E+00  0.91558388452E+02  0.90965483484E+02 0.  0.
          5    1    1    2  502    0  0.55366724767E+02  0.21766882675E+02 -0.98614165901E+02  0.11526541159E+03  0.47000000000E+01 0. -1.
         -5    1    1    2    0  502 -0.45036878628E+02 -0.20979085012E+02 -0.10534463982E+02  0.51004974031E+02  0.47000000000E+01 0. -1.
        -11    1    3    3    0    0  0.76504525215E+00  0.26052957045E+02 -0.36074768210E+02  0.44505401542E+02  0.00000000000E+00 0.  1.
         11    1    3    3    0    0 -0.11094891391E+02 -0.26840754708E+02  0.37019735937E+02  0.47052986910E+02  0.00000000000E+00 0. -1.
<mgrwt>
<rscale>  0 0.11593566E+03</rscale>
<asrwt>0</asrwt>
<pdfrwt beam="1">  1        1 0.11509624E-01 0.12542893E+03</pdfrwt>
<pdfrwt beam="2">  1       -1 0.28156341E-01 0.12542893E+03</pdfrwt>
<totfact> 0.57159238E+03</totfact>
</mgrwt>
</event>
<event>
 7    1  0.1446636E-005  0.1265654E+03  0.7546771E-02  0.1255999E+00
          1   -1    0    0  501    0  0.00000000000E+00  0.00000000000E+00  0.56183769161E+02  0.56183769161E+02  0.00000000000E+00 0. -1.
         -1   -1    0    0    0  501 -0.00000000000E+00 -0.00000000000E+00 -0.23900853354E+03  0.23900853354E+03  0.00000000000E+00 0.  1.
         23    2    1    2    0    0 -0.82393965253E+00  0.19736146140E+02 -0.80902635583E+01  0.79435647828E+02  0.76513890506E+02 0.  0.
          5    1    1    2  502    0 -0.50298585688E+02 -0.34043595585E+02 -0.13851645766E+03  0.15132023383E+03  0.47000000000E+01 0.  1.
         -5    1    1    2    0  502  0.51122525341E+02  0.14307449445E+02 -0.36218043160E+02  0.64436421046E+02  0.47000000000E+01 0.  1.
        -11    1    3    3    0    0  0.69998436569E+01  0.12172027887E+02 -0.41756595801E+02  0.44054164014E+02  0.00000000000E+00 0.  1.
         11    1    3    3    0    0 -0.78237833094E+01  0.75641182537E+01  0.33666332242E+02  0.35381483814E+02  0.00000000000E+00 0. -1.
<mgrwt>
<rscale>  0 0.11250555E+03</rscale>
<asrwt>0</asrwt>
<pdfrwt beam="1">  1        1 0.86436567E-02 0.12656535E+03</pdfrwt>
<pdfrwt beam="2">  1       -1 0.36770544E-01 0.12656535E+03</pdfrwt>
<totfact> 0.53166118E+03</totfact>
</mgrwt>
</event>
<event>
 7    1  0.1446636E-005  0.1927137E+03  0.7546771E-02  0.1159104E+00
          2   -1    0    0  501    0  0.00000000000E+00  0.00000000000E+00  0.81872876291E+03  0.81872876291E+03  0.00000000000E+00 0. -1.
         -2   -1    0    0    0  501 -0.00000000000E+00 -0.00000000000E+00 -0.46661154973E+02  0.46661154973E+02  0.00000000000E+00 0.  1.
         23    2    1    2    0    0 -0.97586875722E+02  0.10948804687E+03  0.50606155023E+03  0.53691194357E+03  0.10327299647E+03 0.  0.
          5    1    1    2  502    0 -0.28677119953E+02 -0.35861322678E+02  0.55983077612E+02  0.72557609194E+02  0.47000000000E+01 0.  1.
         -5    1    1    2    0  502  0.12626399568E+03 -0.73626724187E+02  0.21002298009E+03  0.25592036512E+03  0.47000000000E+01 0.  1.
        -11    1    3    3    0    0 -0.84122044680E+02  0.32933700205E+02  0.36327542488E+03  0.37433966037E+03  0.00000000000E+00 0. -1.
         11    1    3    3    0    0 -0.13464831042E+02  0.76554346661E+02  0.14278612536E+03  0.16257228319E+03  0.00000000000E+00 0.  1.
<mgrwt>
<rscale>  0 0.18928933E+03</rscale>
<asrwt>0</asrwt>
<pdfrwt beam="1">  1        2 0.12595826E+00 0.19271367E+03</pdfrwt>
<pdfrwt beam="2">  1       -2 0.71786398E-02 0.19271367E+03</pdfrwt>
<totfact> 0.38124704E+03</totfact>
</mgrwt>
</event>
<event>
 7    1  0.1446636E-005  0.2417564E+03  0.7546771E-02  0.1121388E+00
          1   -1    0    0  501    0  0.00000000000E+00  0.00000000000E+00  0.64392351671E+03  0.64392351671E+03  0.00000000000E+00 0. -1.
         -1   -1    0    0    0  501 -0.00000000000E+00 -0.00000000000E+00 -0.12022639618E+03  0.12022639618E+03  0.00000000000E+00 0.  1.
         23    2    1    2    0    0 -0.15359978225E+03 -0.13757195523E+03  0.46275021321E+03  0.51482944675E+03  0.91611480964E+02 0.  0.
          5    1    1    2  502    0  0.10728067966E+03  0.16127679814E+02  0.47640978721E+02  0.11857908390E+03  0.47000000000E+01 0. -1.
         -5    1    1    2    0  502  0.46319102591E+02  0.12144427541E+03  0.13305928597E+02  0.13074138225E+03  0.47000000000E+01 0. -1.
        -11    1    3    3    0    0 -0.10022600110E+03 -0.28778252851E+02  0.22428268944E+03  0.24733815702E+03  0.00000000000E+00 0.  1.
         11    1    3    3    0    0 -0.53373781147E+02 -0.10879370238E+03  0.23846752377E+03  0.26749128973E+03  0.00000000000E+00 0. -1.
<mgrwt>
<rscale>  0 0.23762143E+03</rscale>
<asrwt>0</asrwt>
<pdfrwt beam="1">  1        1 0.99065155E-01 0.24175643E+03</pdfrwt>
<pdfrwt beam="2">  1       -1 0.18496369E-01 0.24175643E+03</pdfrwt>
<totfact> 0.73233483E+02</totfact>
</mgrwt>
</event>
<event>
 7    1  0.1446636E-005  0.1291558E+03  0.7546771E-02  0.1242913E+00
         -2   -1    0    0    0  501 -0.00000000000E+00  0.00000000000E+00  0.14443304334E+03  0.14443304334E+03  0.00000000000E+00 0.  1.
          2   -1    0    0  501    0  0.00000000000E+00 -0.00000000000E+00 -0.10611288816E+03  0.10611288816E+03  0.00000000000E+00 0. -1.
         23    2    1    2    0    0  0.32437610982E+02 -0.19250479568E+01 -0.34130625799E+02  0.10245702476E+03  0.90976029200E+02 0.  0.
          5    1    1    2  502    0  0.17713827757E+02  0.53725618487E+02  0.35270003226E+02  0.66830269363E+02  0.47000000000E+01 0. -1.
         -5    1    1    2    0  502 -0.50151438740E+02 -0.51800570530E+02  0.37180777750E+02  0.81258637381E+02  0.47000000000E+01 0. -1.
        -11    1    3    3    0    0 -0.13558921269E+02  0.13057023300E+02  0.21605640324E+02  0.28655433992E+02  0.00000000000E+00 0.  1.
         11    1    3    3    0    0  0.45996532251E+02 -0.14982071257E+02 -0.55736266123E+02  0.73801590766E+02  0.00000000000E+00 0. -1.
<mgrwt>
<rscale>  0 0.12011170E+03</rscale>
<asrwt>0</asrwt>
<pdfrwt beam="2">  1        2 0.16325060E-01 0.12915575E+03</pdfrwt>
<pdfrwt beam="1">  1       -2 0.22220468E-01 0.12915575E+03</pdfrwt>
<totfact> 0.58379004E+03</totfact>
</mgrwt>
</event>
<event>
 7    1  0.1446636E-005  0.2106754E+03  0.7546771E-02  0.1144753E+00
          1   -1    0    0  501    0  0.00000000000E+00  0.00000000000E+00  0.64557830340E+02  0.64557830340E+02  0.00000000000E+00 0. -1.
         -1   -1    0    0    0  501 -0.00000000000E+00 -0.00000000000E+00 -0.63311954419E+03  0.63311954419E+03  0.00000000000E+00 0.  1.
         23    2    1    2    0    0 -0.30221062039E+02 -0.16687143212E+03 -0.24734795727E+03  0.31353886589E+03  0.91467048779E+02 0.  0.
          5    1    1    2  502    0  0.41886295091E+02  0.68345241813E+02 -0.24819573469E+03  0.26086154664E+03  0.47000000000E+01 0.  1.
         -5    1    1    2    0  502 -0.11665233052E+02  0.98526190308E+02 -0.73018021891E+02  0.12327696200E+03  0.47000000000E+01 0.  1.
        -11    1    3    3    0    0  0.12335087873E+02 -0.14361430819E+03 -0.18783982110E+03  0.23677208936E+03  0.00000000000E+00 0. -1.
         11    1    3    3    0    0 -0.42556149912E+02 -0.23257123929E+02 -0.59508136172E+02  0.76766776534E+02  0.00000000000E+00 0.  1.
<mgrwt>
<rscale>  0 0.20602482E+03</rscale>
<asrwt>0</asrwt>
<pdfrwt beam="1">  1        1 0.99319741E-02 0.21067538E+03</pdfrwt>
<pdfrwt beam="2">  1       -1 0.97403005E-01 0.21067538E+03</pdfrwt>
<totfact> 0.69069973E+02</totfact>
</mgrwt>
</event>
<event>
 7    1  0.1446636E-005  0.1436732E+03  0.7546771E-02  0.1218144E+00
         -2   -1    0    0    0  501 -0.00000000000E+00  0.00000000000E+00  0.56037877127E+02  0.56037877127E+02  0.00000000000E+00 0. -1.
          2   -1    0    0  501    0  0.00000000000E+00 -0.00000000000E+00 -0.37488234708E+03  0.37488234708E+03  0.00000000000E+00 0.  1.
         23    2    1    2    0    0 -0.67388471726E+02 -0.21652798115E+02 -0.24008996302E+03  0.26707805066E+03  0.93152804627E+02 0.  0.
          5    1    1    2  502    0  0.81789605780E+02  0.60011866704E+02 -0.64013595672E+02  0.12004496737E+03  0.47000000000E+01 0.  1.
         -5    1    1    2    0  502 -0.14401134054E+02 -0.38359068589E+02 -0.14740911258E+02  0.43797206187E+02  0.47000000000E+01 0.  1.
        -11    1    3    3    0    0 -0.84396374611E+02  0.41079993969E+01 -0.15457240366E+03  0.17615973342E+03  0.00000000000E+00 0. -1.
         11    1    3    3    0    0  0.17007902885E+02 -0.25760797511E+02 -0.85517559363E+02  0.90918317233E+02  0.00000000000E+00 0.  1.
<mgrwt>
<rscale>  0 0.13648103E+03</rscale>
<asrwt>0</asrwt>
<pdfrwt beam="2">  1        2 0.57674208E-01 0.14367319E+03</pdfrwt>
<pdfrwt beam="1">  1       -2 0.86212118E-02 0.14367319E+03</pdfrwt>
<totfact> 0.69042373E+03</totfact>
</mgrwt>
</event>
<event>
 7    1  0.1446636E-005  0.1526393E+03  0.7546771E-02  0.1206091E+00
         -1   -1    0    0    0  501 -0.00000000000E+00  0.00000000000E+00  0.42549005043E+02  0.42549005043E+02  0.00000000000E+00 0.  1.
          1   -1    0    0  501    0  0.00000000000E+00 -0.00000000000E+00 -0.51126843697E+03  0.51126843697E+03  0.00000000000E+00 0. -1.
         23    2    1    2    0    0  0.64660745684E+02 -0.59094307036E+02 -0.30471999141E+03  0.32977596601E+03  0.90690492530E+02 0.  0.
          5    1    1    2  502    0  0.16927065476E+01 -0.24141684255E+02  0.41255935595E+01  0.24995933596E+02  0.47000000000E+01 0.  1.
         -5    1    1    2    0  502 -0.66353452231E+02  0.83235991292E+02 -0.16812503408E+03  0.19904554241E+03  0.47000000000E+01 0.  1.
        -11    1    3    3    0    0 -0.23256558839E+02 -0.10214505345E+02 -0.66689983793E+02  0.71363559235E+02  0.00000000000E+00 0.  1.
         11    1    3    3    0    0  0.87917304522E+02 -0.48879801692E+02 -0.23803000762E+03  0.25841240677E+03  0.00000000000E+00 0. -1.
<mgrwt>
<rscale>  0 0.14551822E+03</rscale>
<asrwt>0</asrwt>
<pdfrwt beam="2">  1        1 0.78656683E-01 0.15263933E+03</pdfrwt>
<pdfrwt beam="1">  1       -1 0.65460008E-02 0.15263933E+03</pdfrwt>
<totfact> 0.49775659E+03</totfact>
</mgrwt>
</event>
<event>
 7    1  0.4127178E-005  0.3479139E+03  0.7546771E-02  0.1064652E+00
          2   -1    0    0  501    0  0.00000000000E+00  0.00000000000E+00  0.92390601181E+03  0.92390601181E+03  0.00000000000E+00 0.  1.
         -2   -1    0    0    0  501 -0.00000000000E+00 -0.00000000000E+00 -0.13020722397E+03  0.13020722397E+03  0.00000000000E+00 0. -1.
         23    2    1    2    0    0 -0.32377164315E+03  0.24304574425E+02  0.30569028251E+03  0.45478329360E+03  0.89232875512E+02 0.  0.
          5    1    1    2  502    0  0.73342320290E+02  0.47133097002E+02  0.11513661062E+03  0.14449620716E+03  0.47000000000E+01 0. -1.
         -5    1    1    2    0  502  0.25042932286E+03 -0.71437671427E+02  0.37287189471E+03  0.45483373502E+03  0.47000000000E+01 0. -1.
        -11    1    3    3    0    0 -0.95761913436E+02  0.59115185991E+01  0.39366849755E+02  0.10370650402E+03  0.00000000000E+00 0. -1.
         11    1    3    3    0    0 -0.22800972972E+03  0.18393055826E+02  0.26632343275E+03  0.35107678958E+03  0.00000000000E+00 0.  1.
<mgrwt>
<rscale>  0 0.34508136E+03</rscale>
<asrwt>0</asrwt>
<pdfrwt beam="1">  1        2 0.14213938E+00 0.34791389E+03</pdfrwt>
<pdfrwt beam="2">  1       -2 0.20031881E-01 0.34791389E+03</pdfrwt>
<totfact> 0.61431928E+02</totfact>
</mgrwt>
</event>
<event>
 7    1  0.1508149E-005  0.2186857E+03  0.7546771E-02  0.1138502E+00
         -3   -1    0    0    0  501 -0.00000000000E+00  0.00000000000E+00  0.45107146167E+02  0.45107146167E+02  0.00000000000E+00 0.  1.
          3   -1    0    0  501    0  0.00000000000E+00 -0.00000000000E+00 -0.11394489851E+04  0.11394489851E+04  0.00000000000E+00 0. -1.
         23    2    1    2    0    0  0.85688768460E+02  0.15765765509E+03 -0.75304434785E+03  0.77920763994E+03  0.88827107618E+02 0.  0.
          5    1    1    2  502    0 -0.82419087642E+02 -0.12507202656E+03 -0.34076241982E+03  0.37225936469E+03  0.47000000000E+01 0. -1.
         -5    1    1    2    0  502 -0.32696808183E+01 -0.32585628528E+02 -0.53507123443E+00  0.33089126620E+02  0.47000000000E+01 0. -1.
        -11    1    3    3    0    0  0.47393039642E+02  0.23843396367E+02 -0.12268327663E+03  0.13366298711E+03  0.00000000000E+00 0.  1.
         11    1    3    3    0    0  0.38295728819E+02  0.13381425873E+03 -0.63036107122E+03  0.64554465283E+03  0.00000000000E+00 0. -1.
<mgrwt>
<rscale>  0 0.21391590E+03</rscale>
<asrwt>0</asrwt>
<pdfrwt beam="2">  1        3 0.17529986E+00 0.21868567E+03</pdfrwt>
<pdfrwt beam="1">  1       -3 0.69395604E-02 0.21868567E+03</pdfrwt>
<totfact> 0.76191354E+01</totfact>
</mgrwt>
</event>
<event>
 7    1  0.1446636E-005  0.1814473E+03  0.7546771E-02  0.1175998E+00
          2   -1    0    0  501    0  0.00000000000E+00  0.00000000000E+00  0.43351195520E+03  0.43351195520E+03  0.00000000000E+00 0. -1.
         -2   -1    0    0    0  501 -0.00000000000E+00 -0.00000000000E+00 -0.62918586386E+02  0.62918586386E+02  0.00000000000E+00 0.  1.
         23    2    1    2    0    0 -0.11076123420E+03 -0.29823355475E+02  0.19909713560E+03  0.24676257022E+03  0.89970067937E+02 0.  0.
          5    1    1    2  502    0 -0.82886853783E+01 -0.23674346177E+02  0.94878074014E+02  0.98250271760E+02  0.47000000000E+01 0. -1.
         -5    1    1    2    0  502  0.11904991958E+03  0.53497701652E+02  0.76618159194E+02  0.15141769960E+03  0.47000000000E+01 0.  1.
        -11    1    3    3    0    0 -0.22981881615E+02  0.22096097984E+02  0.12755067047E+02  0.34337969714E+02  0.00000000000E+00 0.  1.
         11    1    3    3    0    0 -0.87779352585E+02 -0.51919453460E+02  0.18634206856E+03  0.21242460051E+03  0.00000000000E+00 0. -1.
<mgrwt>
<rscale>  0 0.17178616E+03</rscale>
<asrwt>0</asrwt>
<pdfrwt beam="1">  1        2 0.66694145E-01 0.18144734E+03</pdfrwt>
<pdfrwt beam="2">  1       -2 0.96797828E-02 0.18144734E+03</pdfrwt>
<totfact> 0.49880497E+03</totfact>
</mgrwt>
</event>
<event>
 7    1  0.1446636E-005  0.1326348E+03  0.7546771E-02  0.1236707E+00
         -1   -1    0    0    0  501 -0.00000000000E+00  0.00000000000E+00  0.42109739741E+03  0.42109739741E+03  0.00000000000E+00 0.  1.
          1   -1    0    0  501    0  0.00000000000E+00 -0.00000000000E+00 -0.32496140755E+02  0.32496140755E+02  0.00000000000E+00 0. -1.
         23    2    1    2    0    0  0.32176355832E+02 -0.30501459319E+02  0.17585796377E+03  0.20289111314E+03  0.90956712091E+02 0.  0.
          5    1    1    2  502    0  0.14012927198E+02  0.43757645949E+02  0.19314976811E+03  0.19859510727E+03  0.47000000000E+01 0. -1.
         -5    1    1    2    0  502 -0.46189283029E+02 -0.13256186631E+02  0.19593524767E+02  0.52107317754E+02  0.47000000000E+01 0. -1.
        -11    1    3    3    0    0  0.19922015663E+02 -0.49665887814E+02  0.17159791952E+03  0.17974824924E+03  0.00000000000E+00 0.  1.
         11    1    3    3    0    0  0.12254340169E+02  0.19164428495E+02  0.42600442486E+01  0.23142863900E+02  0.00000000000E+00 0. -1.
<mgrwt>
<rscale>  0 0.12395790E+03</rscale>
<asrwt>0</asrwt>
<pdfrwt beam="2">  1        1 0.49994066E-02 0.13263483E+03</pdfrwt>
<pdfrwt beam="1">  1       -1 0.64784211E-01 0.13263483E+03</pdfrwt>
<totfact> 0.39861987E+03</totfact>
</mgrwt>
</event>
<event>
 7    1  0.1446636E-005  0.1789717E+03  0.7546771E-02  0.1175104E+00
         -3   -1    0    0    0  501 -0.00000000000E+00  0.00000000000E+00  0.10187636990E+04  0.10187636990E+04  0.00000000000E+00 0.  1.
          3   -1    0    0  501    0  0.00000000000E+00 -0.00000000000E+00 -0.27375942306E+02  0.27375942306E+02  0.00000000000E+00 0. -1.
         23    2    1    2    0    0  0.47652408032E+02 -0.11889012817E+03  0.45597271696E+03  0.48160431566E+03  0.87326878354E+02 0.  0.
          5    1    1    2  502    0 -0.87612664132E+02  0.63071975530E+02  0.28358755588E+03  0.30347659689E+03  0.47000000000E+01 0.  1.
         -5    1    1    2    0  502  0.39960256100E+02  0.55818152642E+02  0.25182748384E+03  0.26105872873E+03  0.47000000000E+01 0.  1.
        -11    1    3    3    0    0  0.37605497954E+01 -0.63452089872E+02  0.33910013558E+03  0.34500610341E+03  0.00000000000E+00 0.  1.
         11    1    3    3    0    0  0.43891858237E+02 -0.55438038301E+02  0.11687258138E+03  0.13659821225E+03  0.00000000000E+00 0. -1.
<mgrwt>
<rscale>  0 0.17265776E+03</rscale>
<asrwt>0</asrwt>
<pdfrwt beam="2">  1        3 0.42116842E-02 0.17897170E+03</pdfrwt>
<pdfrwt beam="1">  1       -3 0.15673285E+00 0.17897170E+03</pdfrwt>
<totfact> 0.22160518E+02</totfact>
</mgrwt>
</event>
<event>
 7    1  0.1446636E-005  0.1419053E+03  0.7546771E-02  0.1222895E+00
          2   -1    0    0  501    0  0.00000000000E+00  0.00000000000E+00  0.66787950530E+02  0.66787950530E+02  0.00000000000E+00 0. -1.
         -2   -1    0    0    0  501 -0.00000000000E+00 -0.00000000000E+00 -0.24298602242E+03  0.24298602242E+03  0.00000000000E+00 0.  1.
         23    2    1    2    0    0 -0.58787128827E+02  0.32581162519E+02 -0.53753987852E+02  0.12234487517E+03  0.86955842839E+02 0.  0.
          5    1    1    2  502    0 -0.22662735996E+02 -0.52161016259E+02 -0.39157770263E+02  0.69208324586E+02  0.47000000000E+01 0.  1.
         -5    1    1    2    0  502  0.81449864823E+02  0.19579853741E+02 -0.83286313777E+02  0.11822077320E+03  0.47000000000E+01 0.  1.
        -11    1    3    3    0    0 -0.26209051956E+02  0.15338991258E+02  0.22402820426E+02  0.37737056327E+02  0.00000000000E+00 0. -1.
         11    1    3    3    0    0 -0.32578076871E+02  0.17242171261E+02 -0.76156808278E+02  0.84607818844E+02  0.00000000000E+00 0.  1.
<mgrwt>
<rscale>  0 0.13312261E+03</rscale>
<asrwt>0</asrwt>
<pdfrwt beam="1">  1        2 0.10275069E-01 0.14190530E+03</pdfrwt>
<pdfrwt beam="2">  1       -2 0.37382465E-01 0.14190530E+03</pdfrwt>
<totfact> 0.40228905E+03</totfact>
</mgrwt>
</event>
<event>
 7    1  0.1446636E-005  0.1322655E+03  0.7546771E-02  0.1237459E+00
         -1   -1    0    0    0  501 -0.00000000000E+00  0.00000000000E+00  0.90949012801E+03  0.90949012801E+03  0.00000000000E+00 0.  1.
          1   -1    0    0  501    0  0.00000000000E+00 -0.00000000000E+00 -0.20601237596E+02  0.20601237596E+02  0.00000000000E+00 0. -1.
         23    2    1    2    0    0 -0.43207843210E+02  0.12181021047E+01  0.15738688406E+03  0.18672782881E+03  0.90709697881E+02 0.  0.
          5    1    1    2  502    0  0.67727662162E+02 -0.41765578382E+02  0.35356033294E+03  0.36243399232E+03  0.47000000000E+01 0.  1.
         -5    1    1    2    0  502 -0.24519818952E+02  0.40547476277E+02  0.37794167341E+03  0.38092954448E+03  0.47000000000E+01 0.  1.
        -11    1    3    3    0    0  0.40605633242E+00  0.27542595022E+02  0.76878612084E+01  0.28598297716E+02  0.00000000000E+00 0. -1.
         11    1    3    3    0    0 -0.43613899542E+02 -0.26324492918E+02  0.14969902285E+03  0.15812953109E+03  0.00000000000E+00 0.  1.
<mgrwt>
<rscale>  0 0.12348298E+03</rscale>
<asrwt>0</asrwt>
<pdfrwt beam="2">  1        1 0.31694219E-02 0.13226550E+03</pdfrwt>
<pdfrwt beam="1">  1       -1 0.13992153E+00 0.13226550E+03</pdfrwt>
<totfact> 0.13925339E+03</totfact>
</mgrwt>
</event>
<event>
 7    1  0.1446636E-005  0.1351539E+03  0.7546771E-02  0.1231834E+00
         -1   -1    0    0    0  501 -0.00000000000E+00  0.00000000000E+00  0.58847040866E+02  0.58847040866E+02  0.00000000000E+00 0.  1.
          1   -1    0    0  501    0  0.00000000000E+00 -0.00000000000E+00 -0.28112961682E+03  0.28112961682E+03  0.00000000000E+00 0. -1.
         23    2    1    2    0    0 -0.50382093104E+02  0.10136391404E+02 -0.15856585293E+03  0.19055641880E+03  0.92344557475E+02 0.  0.
          5    1    1    2  502    0  0.57333171295E+02 -0.44466698258E+02  0.42311626536E+01  0.72831123306E+02  0.47000000000E+01 0. -1.
         -5    1    1    2    0  502 -0.69510781902E+01  0.34330306854E+02 -0.67947885681E+02  0.76589115579E+02  0.47000000000E+01 0. -1.
        -11    1    3    3    0    0 -0.43729676163E+02 -0.26519457126E+02 -0.13976180107E+03  0.14882515655E+03  0.00000000000E+00 0. -1.
         11    1    3    3    0    0 -0.66524169415E+01  0.36655848531E+02 -0.18804051852E+02  0.41731262247E+02  0.00000000000E+00 0.  1.
<mgrwt>
<rscale>  0 0.12709295E+03</rscale>
<asrwt>0</asrwt>
<pdfrwt beam="2">  1        1 0.43250711E-01 0.13515394E+03</pdfrwt>
<pdfrwt beam="1">  1       -1 0.90533908E-02 0.13515394E+03</pdfrwt>
<totfact> 0.64520623E+03</totfact>
</mgrwt>
</event>
<event>
 7    1  0.1446636E-005  0.1251806E+03  0.7546771E-02  0.1255166E+00
          2   -1    0    0  501    0  0.00000000000E+00  0.00000000000E+00  0.71037798710E+03  0.71037798710E+03  0.00000000000E+00 0. -1.
         -2   -1    0    0    0  501 -0.00000000000E+00 -0.00000000000E+00 -0.17205247007E+02  0.17205247007E+02  0.00000000000E+00 0.  1.
         23    2    1    2    0    0  0.65642851183E+01 -0.13318599434E+01  0.40455021042E+03  0.41298326313E+03  0.82761338732E+02 0.  0.
          5    1    1    2  502    0  0.13369711246E+02  0.58575300542E+02  0.10370269116E+03  0.11994229098E+03  0.47000000000E+01 0. -1.
         -5    1    1    2    0  502 -0.19933996364E+02 -0.57243440599E+02  0.18491983852E+03  0.19465767999E+03  0.47000000000E+01 0. -1.
        -11    1    3    3    0    0 -0.11127526251E+02 -0.38885325224E+02  0.16661599038E+03  0.17145488797E+03  0.00000000000E+00 0.  1.
         11    1    3    3    0    0  0.17691811369E+02  0.37553465281E+02  0.23793422004E+03  0.24152837517E+03  0.00000000000E+00 0. -1.
<mgrwt>
<rscale>  0 0.11297023E+03</rscale>
<asrwt>0</asrwt>
<pdfrwt beam="1">  1        2 0.10928890E+00 0.12518058E+03</pdfrwt>
<pdfrwt beam="2">  1       -2 0.26469616E-02 0.12518058E+03</pdfrwt>
<totfact> 0.19772540E+04</totfact>
</mgrwt>
</event>
<event>
 7    1  0.1446636E-005  0.1532426E+03  0.7546771E-02  0.1206510E+00
          2   -1    0    0  501    0  0.00000000000E+00  0.00000000000E+00  0.14449483364E+03  0.14449483364E+03  0.00000000000E+00 0. -1.
         -2   -1    0    0    0  501 -0.00000000000E+00 -0.00000000000E+00 -0.13676446822E+03  0.13676446822E+03  0.00000000000E+00 0.  1.
         23    2    1    2    0    0  0.62601882551E+02  0.61551884007E+02  0.28175492677E+02  0.12665881011E+03  0.86838733675E+02 0.  0.
          5    1    1    2  502    0  0.28942508938E+01 -0.58482589823E+00  0.43923670805E+02  0.44272989131E+02  0.47000000000E+01 0. -1.
         -5    1    1    2    0  502 -0.65496133445E+02 -0.60967058109E+02 -0.64368798064E+02  0.11032750262E+03  0.47000000000E+01 0.  1.
        -11    1    3    3    0    0  0.66936967608E+02  0.19622582826E+02 -0.91552363261E+01  0.70352126773E+02  0.00000000000E+00 0.  1.
         11    1    3    3    0    0 -0.43350850575E+01  0.41929301182E+02  0.37330729003E+02  0.56306683333E+02  0.00000000000E+00 0. -1.
<mgrwt>
<rscale>  0 0.14519059E+03</rscale>
<asrwt>0</asrwt>
<pdfrwt beam="1">  1        2 0.22229974E-01 0.15324265E+03</pdfrwt>
<pdfrwt beam="2">  1       -2 0.21040688E-01 0.15324265E+03</pdfrwt>
<totfact> 0.45594299E+03</totfact>
</mgrwt>
</event>
<event>
 7    1  0.1446636E-005  0.1313284E+03  0.7546771E-02  0.1238835E+00
         -2   -1    0    0    0  501 -0.00000000000E+00  0.00000000000E+00  0.21150796972E+03  0.21150796972E+03  0.00000000000E+00 0.  1.
          2   -1    0    0  501    0  0.00000000000E+00 -0.00000000000E+00 -0.63224293164E+02  0.63224293164E+02  0.00000000000E+00 0. -1.
         23    2    1    2    0    0  0.66985388835E+01  0.39713837244E+02  0.68744577623E+02  0.12119522022E+03  0.91325818689E+02 0.  0.
          5    1    1    2  502    0  0.19203406827E+02 -0.54086628913E+02 -0.10586589508E+02  0.58551687749E+02  0.47000000000E+01 0.  1.
         -5    1    1    2    0  502 -0.25901945710E+02  0.14372791668E+02  0.90125688445E+02  0.94985354921E+02  0.47000000000E+01 0.  1.
        -11    1    3    3    0    0  0.25244881327E+02  0.59738387619E+02  0.67889546240E+02  0.93888068876E+02  0.00000000000E+00 0.  1.
         11    1    3    3    0    0 -0.18546342443E+02 -0.20024550375E+02  0.85503138304E+00  0.27307151342E+02  0.00000000000E+00 0. -1.
<mgrwt>
<rscale>  0 0.12262101E+03</rscale>
<asrwt>0</asrwt>
<pdfrwt beam="2">  1        2 0.97268145E-02 0.13132842E+03</pdfrwt>
<pdfrwt beam="1">  1       -2 0.32539687E-01 0.13132842E+03</pdfrwt>
<totfact> 0.55293629E+03</totfact>
</mgrwt>
</event>
<event>
 7    1  0.1446636E-005  0.1317611E+03  0.7546771E-02  0.1233082E+00
          2   -1    0    0  501    0  0.00000000000E+00  0.00000000000E+00  0.18180786636E+03  0.18180786636E+03  0.00000000000E+00 0. -1.
         -2   -1    0    0    0  501 -0.00000000000E+00 -0.00000000000E+00 -0.26264220881E+03  0.26264220881E+03  0.00000000000E+00 0.  1.
         23    2    1    2    0    0 -0.21544302575E+02 -0.35786742352E+02  0.14516748377E+03  0.18284383980E+03  0.10302147109E+03 0.  0.
          5    1    1    2  502    0  0.40099543077E+02 -0.37407490299E+02 -0.11186084198E+03  0.12466848701E+03  0.47000000000E+01 0. -1.
         -5    1    1    2    0  502 -0.18555240502E+02  0.73194232651E+02 -0.11414098423E+03  0.13693774836E+03  0.47000000000E+01 0. -1.
        -11    1    3    3    0    0  0.21220517536E+02  0.12178820210E+02  0.10327411786E+03  0.10613282926E+03  0.00000000000E+00 0. -1.
         11    1    3    3    0    0 -0.42764820111E+02 -0.47965562562E+02  0.41893365910E+02  0.76711010541E+02  0.00000000000E+00 0.  1.
<mgrwt>
<rscale>  0 0.12628019E+03</rscale>
<asrwt>0</asrwt>
<pdfrwt beam="1">  1        2 0.27970441E-01 0.13176114E+03</pdfrwt>
<pdfrwt beam="2">  1       -2 0.40406493E-01 0.13176114E+03</pdfrwt>
<totfact> 0.10895113E+03</totfact>
</mgrwt>
</event>
<event>
 7    1  0.1446636E-005  0.1536452E+03  0.7546771E-02  0.1204735E+00
          3   -1    0    0  501    0  0.00000000000E+00  0.00000000000E+00  0.47804278675E+03  0.47804278675E+03  0.00000000000E+00 0. -1.
         -3   -1    0    0    0  501 -0.00000000000E+00 -0.00000000000E+00 -0.41771113019E+02  0.41771113019E+02  0.00000000000E+00 0.  1.
         23    2    1    2    0    0  0.84638898087E+02  0.28602764659E+02  0.16968840297E+03  0.21212333779E+03  0.90665843164E+02 0.  0.
          5    1    1    2  502    0 -0.72624112541E+01  0.58438959585E+01 -0.12334060248E+02  0.16158984479E+02  0.47000000000E+01 0.  1.
         -5    1    1    2    0  502 -0.77376486833E+02 -0.34446660617E+02  0.27891733101E+03  0.29153157750E+03  0.47000000000E+01 0.  1.
        -11    1    3    3    0    0  0.40452868443E+02 -0.12613282794E+02  0.13704145358E+03  0.14344298334E+03  0.00000000000E+00 0. -1.
         11    1    3    3    0    0  0.44186029645E+02  0.41216047453E+02  0.32646949384E+02  0.68680354451E+02  0.00000000000E+00 0.  1.
<mgrwt>
<rscale>  0 0.14658374E+03</rscale>
<asrwt>0</asrwt>
<pdfrwt beam="1">  1        3 0.73545040E-01 0.15364518E+03</pdfrwt>
<pdfrwt beam="2">  1       -3 0.64263254E-02 0.15364518E+03</pdfrwt>
<totfact> 0.64365280E+02</totfact>
</mgrwt>
</event>
<event>
 7    1  0.1446636E-005  0.1389068E+03  0.7546771E-02  0.1226020E+00
          1   -1    0    0  501    0  0.00000000000E+00  0.00000000000E+00  0.10294464388E+03  0.10294464388E+03  0.00000000000E+00 0. -1.
         -1   -1    0    0    0  501 -0.00000000000E+00 -0.00000000000E+00 -0.19326217643E+03  0.19326217643E+03  0.00000000000E+00 0.  1.
         23    2    1    2    0    0  0.15514294863E+02  0.58554739307E+02  0.28489414210E+02  0.11342224772E+03  0.91562048447E+02 0.  0.
          5    1    1    2  502    0  0.25762011025E+02  0.19801838098E+02 -0.79043007696E+02  0.85590192603E+02  0.47000000000E+01 0.  1.
         -5    1    1    2    0  502 -0.41276305888E+02 -0.78356577406E+02 -0.39763939064E+02  0.97194379984E+02  0.47000000000E+01 0.  1.
        -11    1    3    3    0    0 -0.54787699125E+01 -0.87105813120E+01 -0.23632096116E+02  0.25775319850E+02  0.00000000000E+00 0.  1.
         11    1    3    3    0    0  0.20993064775E+02  0.67265320619E+02  0.52121510326E+02  0.87646927872E+02  0.00000000000E+00 0. -1.
<mgrwt>
<rscale>  0 0.13097229E+03</rscale>
<asrwt>0</asrwt>
<pdfrwt beam="1">  1        1 0.15837638E-01 0.13890684E+03</pdfrwt>
<pdfrwt beam="2">  1       -1 0.29732642E-01 0.13890684E+03</pdfrwt>
<totfact> 0.34662942E+03</totfact>
</mgrwt>
</event>
<event>
 7    1  0.1446636E-005  0.1358824E+03  0.7546771E-02  0.1232612E+00
         -1   -1    0    0    0  501 -0.00000000000E+00  0.00000000000E+00  0.20462041263E+02  0.20462041263E+02  0.00000000000E+00 0.  1.
          1   -1    0    0  501    0  0.00000000000E+00 -0.00000000000E+00 -0.73014758665E+03  0.73014758665E+03  0.00000000000E+00 0. -1.
         23    2    1    2    0    0  0.43337219331E+02  0.31021891197E+02 -0.39084142915E+03  0.40401821879E+03  0.87368335579E+02 0.  0.
          5    1    1    2  502    0 -0.79139562178E+02  0.10165993425E+02 -0.16629149738E+03  0.18450303473E+03  0.47000000000E+01 0. -1.
         -5    1    1    2    0  502  0.35802342847E+02 -0.41187884622E+02 -0.15255261886E+03  0.16208837440E+03  0.47000000000E+01 0. -1.
        -11    1    3    3    0    0 -0.20221557436E+02 -0.11904548932E+02 -0.13135098759E+03  0.13343054977E+03  0.00000000000E+00 0.  1.
         11    1    3    3    0    0  0.63558776767E+02  0.42926440129E+02 -0.25949044156E+03  0.27058766902E+03  0.00000000000E+00 0. -1.
<mgrwt>
<rscale>  0 0.12658580E+03</rscale>
<asrwt>0</asrwt>
<pdfrwt beam="2">  1        1 0.11233039E+00 0.13588243E+03</pdfrwt>
<pdfrwt beam="1">  1       -1 0.31480064E-02 0.13588243E+03</pdfrwt>
<totfact> 0.89344865E+03</totfact>
</mgrwt>
</event>
<event>
 7    1  0.1446636E-005  0.2315554E+03  0.7546771E-02  0.1129268E+00
          1   -1    0    0  501    0  0.00000000000E+00  0.00000000000E+00  0.24110097020E+03  0.24110097020E+03  0.00000000000E+00 0. -1.
         -1   -1    0    0    0  501 -0.00000000000E+00 -0.00000000000E+00 -0.20589472211E+03  0.20589472211E+03  0.00000000000E+00 0.  1.
         23    2    1    2    0    0  0.98454892603E+02  0.16822496321E+03 -0.81654352750E+01  0.21141340615E+03  0.81461339571E+02 0.  0.
          5    1    1    2  502    0  0.92290911782E+01  0.13811400277E+02  0.13530376896E+02  0.21933809531E+02  0.47000000000E+01 0.  1.
         -5    1    1    2    0  502 -0.10768398378E+03 -0.18203636348E+03  0.29841306465E+02  0.21364847663E+03  0.47000000000E+01 0.  1.
        -11    1    3    3    0    0  0.62571812671E+02  0.16216902670E+03  0.12432489532E+01  0.17382626565E+03  0.00000000000E+00 0.  1.
         11    1    3    3    0    0  0.35883079932E+02  0.60559365080E+01 -0.94086842282E+01  0.37587140505E+02  0.00000000000E+00 0. -1.
<mgrwt>
<rscale>  0 0.22630456E+03</rscale>
<asrwt>0</asrwt>
<pdfrwt beam="1">  1        1 0.37092457E-01 0.23155542E+03</pdfrwt>
<pdfrwt beam="2">  1       -1 0.31676111E-01 0.23155542E+03</pdfrwt>
<totfact> 0.10748099E+03</totfact>
</mgrwt>
</event>
<event>
 7    1  0.1446636E-005  0.1278075E+03  0.7546771E-02  0.1245315E+00
          1   -1    0    0  501    0  0.00000000000E+00  0.00000000000E+00  0.14328795055E+03  0.14328795055E+03  0.00000000000E+00 0. -1.
         -1   -1    0    0    0  501 -0.00000000000E+00 -0.00000000000E+00 -0.96347070861E+02  0.96347070861E+02  0.00000000000E+00 0.  1.
         23    2    1    2    0    0  0.11173260521E+02  0.24269832640E+02  0.58101599249E+02  0.11134115057E+03  0.91143784468E+02 0.  0.
          5    1    1    2  502    0  0.42698274446E+02 -0.27702120533E+02  0.30875121066E+02  0.59715267927E+02  0.47000000000E+01 0.  1.
         -5    1    1    2    0  502 -0.53871534967E+02  0.34322878926E+01 -0.42035840631E+02  0.68578602913E+02  0.47000000000E+01 0.  1.
        -11    1    3    3    0    0  0.38415892713E+02 -0.73130613920E+01 -0.86390633402E+00  0.39115316872E+02  0.00000000000E+00 0.  1.
         11    1    3    3    0    0 -0.27242632192E+02  0.31582894032E+02  0.58965505583E+02  0.72225833695E+02  0.00000000000E+00 0. -1.
<mgrwt>
<rscale>  0 0.11866548E+03</rscale>
<asrwt>0</asrwt>
<pdfrwt beam="1">  1        1 0.22044300E-01 0.12780749E+03</pdfrwt>
<pdfrwt beam="2">  1       -1 0.14822626E-01 0.12780749E+03</pdfrwt>
<totfact> 0.69599420E+03</totfact>
</mgrwt>
</event>
<event>
 7    1  0.1446636E-005  0.2033818E+03  0.7546771E-02  0.1150984E+00
         -2   -1    0    0    0  501 -0.00000000000E+00  0.00000000000E+00  0.45893780635E+02  0.45893780635E+02  0.00000000000E+00 0.  1.
          2   -1    0    0  501    0  0.00000000000E+00 -0.00000000000E+00 -0.82350381704E+03  0.82350381704E+03  0.00000000000E+00 0. -1.
         23    2    1    2    0    0 -0.10835122799E+03 -0.11832519726E+03 -0.39738081734E+03  0.43819181145E+03  0.91431442707E+02 0.  0.
          5    1    1    2  502    0  0.80433379913E+02  0.93337953375E+02 -0.37287838664E+03  0.39273640443E+03  0.47000000000E+01 0. -1.
         -5    1    1    2    0  502  0.27917848079E+02  0.24987243884E+02 -0.73508324258E+01  0.38469381794E+02  0.47000000000E+01 0. -1.
        -11    1    3    3    0    0 -0.63656458794E+02 -0.32866934850E+02 -0.84483336404E+02  0.11076919374E+03  0.00000000000E+00 0.  1.
         11    1    3    3    0    0 -0.44694769199E+02 -0.85458262410E+02 -0.31289748094E+03  0.32742261771E+03  0.00000000000E+00 0. -1.
<mgrwt>
<rscale>  0 0.19853144E+03</rscale>
<asrwt>0</asrwt>
<pdfrwt beam="2">  1        2 0.12669288E+00 0.20338184E+03</pdfrwt>
<pdfrwt beam="1">  1       -2 0.70605825E-02 0.20338184E+03</pdfrwt>
<totfact> 0.38884896E+03</totfact>
</mgrwt>
</event>
<event>
 7    1  0.1446636E-005  0.1564638E+03  0.7546771E-02  0.1201001E+00
         -4   -1    0    0    0  501 -0.00000000000E+00  0.00000000000E+00  0.12096280350E+03  0.12096280350E+03  0.00000000000E+00 0.  1.
          4   -1    0    0  501    0  0.00000000000E+00 -0.00000000000E+00 -0.17168916112E+03  0.17168916112E+03  0.00000000000E+00 0. -1.
         23    2    1    2    0    0  0.93864279313E+02  0.85076013567E+01 -0.35808041268E+02  0.13547857962E+03  0.90495013696E+02 0.  0.
          5    1    1    2  502    0 -0.62859259721E+02 -0.17494929989E+02 -0.68324548440E+02  0.94592246128E+02  0.47000000000E+01 0. -1.
         -5    1    1    2    0  502 -0.31005019592E+02  0.89873286322E+01  0.53406232091E+02  0.62581138868E+02  0.47000000000E+01 0. -1.
        -11    1    3    3    0    0  0.10724394492E+02  0.12720018271E+02  0.26642702886E+02  0.31410907645E+02  0.00000000000E+00 0.  1.
         11    1    3    3    0    0  0.83139884821E+02 -0.42124169141E+01 -0.62450744154E+02  0.10406767197E+03  0.00000000000E+00 0. -1.
<mgrwt>
<rscale>  0 0.14957075E+03</rscale>
<asrwt>0</asrwt>
<pdfrwt beam="2">  1        4 0.26413717E-01 0.15646379E+03</pdfrwt>
<pdfrwt beam="1">  1       -4 0.18609662E-01 0.15646379E+03</pdfrwt>
<totfact> 0.59167772E+02</totfact>
</mgrwt>
</event>
<event>
 7    1  0.1446636E-005  0.1350021E+03  0.7546771E-02  0.1233299E+00
          1   -1    0    0  501    0  0.00000000000E+00  0.00000000000E+00  0.30588846625E+02  0.30588846625E+02  0.00000000000E+00 0. -1.
         -1   -1    0    0    0  501 -0.00000000000E+00 -0.00000000000E+00 -0.54077841006E+03  0.54077841006E+03  0.00000000000E+00 0.  1.
         23    2    1    2    0    0 -0.42955673916E+02  0.27622179150E+02 -0.11783065760E+03  0.15643222698E+03  0.89324146025E+02 0.  0.
          5    1    1    2  502    0 -0.37547087160E+02  0.18276729135E+02 -0.11226675418E+03  0.11987383650E+03  0.47000000000E+01 0.  1.
         -5    1    1    2    0  502  0.80502761076E+02 -0.45898908285E+02 -0.28009215165E+03  0.29506119321E+03  0.47000000000E+01 0.  1.
        -11    1    3    3    0    0  0.14987749457E+02  0.16734047567E+02  0.23317146338E+01  0.22585346463E+02  0.00000000000E+00 0. -1.
         11    1    3    3    0    0 -0.57943423373E+02  0.10888131583E+02 -0.12016237224E+03  0.13384688051E+03  0.00000000000E+00 0.  1.
<mgrwt>
<rscale>  0 0.12613973E+03</rscale>
<asrwt>0</asrwt>
<pdfrwt beam="1">  1        1 0.47059767E-02 0.13500210E+03</pdfrwt>
<pdfrwt beam="2">  1       -1 0.83196674E-01 0.13500210E+03</pdfrwt>
<totfact> 0.26289740E+03</totfact>
</mgrwt>
</event>
<event>
 7    1  0.1446636E-005  0.1258386E+03  0.7546771E-02  0.1249402E+00
         -2   -1    0    0    0  501 -0.00000000000E+00  0.00000000000E+00  0.69951624209E+02  0.69951624209E+02  0.00000000000E+00 0.  1.
          2   -1    0    0  501    0  0.00000000000E+00 -0.00000000000E+00 -0.26788638213E+03  0.26788638213E+03  0.00000000000E+00 0. -1.
         23    2    1    2    0    0  0.10039427319E+02 -0.10543669284E+02 -0.19093796649E+03  0.21180507775E+03  0.90510357688E+02 0.  0.
          5    1    1    2  502    0 -0.26571158902E+02  0.60389583504E+02  0.16711152192E+02  0.68222290263E+02  0.47000000000E+01 0.  1.
         -5    1    1    2    0  502  0.16531731582E+02 -0.49845914220E+02 -0.23707943625E+02  0.57810638333E+02  0.47000000000E+01 0.  1.
        -11    1    3    3    0    0  0.11971965849E+02  0.34138450463E+02 -0.38020675183E+02  0.52481744518E+02  0.00000000000E+00 0.  1.
         11    1    3    3    0    0 -0.19325385298E+01 -0.44682119746E+02 -0.15291729131E+03  0.15932333323E+03  0.00000000000E+00 0. -1.
<mgrwt>
<rscale>  0 0.11625767E+03</rscale>
<asrwt>0</asrwt>
<pdfrwt beam="2">  1        2 0.41213290E-01 0.12583856E+03</pdfrwt>
<pdfrwt beam="1">  1       -2 0.10761788E-01 0.12583856E+03</pdfrwt>
<totfact> 0.69073923E+03</totfact>
</mgrwt>
</event>
<event>
 7    1  0.1446636E-005  0.2359121E+03  0.7546771E-02  0.1125425E+00
         -1   -1    0    0    0  501 -0.00000000000E+00  0.00000000000E+00  0.73913305088E+02  0.73913305088E+02  0.00000000000E+00 0.  1.
          1   -1    0    0  501    0  0.00000000000E+00 -0.00000000000E+00 -0.92464413126E+03  0.92464413126E+03  0.00000000000E+00 0. -1.
         23    2    1    2    0    0  0.59932635006E+02  0.19089460432E+03 -0.65875160013E+03  0.69440200113E+03  0.90596897272E+02 0.  0.
          5    1    1    2  502    0  0.10939643132E+02 -0.90781946862E+02 -0.14747733023E+03  0.17358770290E+03  0.47000000000E+01 0. -1.
         -5    1    1    2    0  502 -0.70872278138E+02 -0.10011265746E+03 -0.44501895812E+02  0.13056773232E+03  0.47000000000E+01 0. -1.
        -11    1    3    3    0    0  0.66761583478E+01  0.59367960519E+02 -0.34391053978E+03  0.34906100498E+03  0.00000000000E+00 0. -1.
         11    1    3    3    0    0  0.53256476658E+02  0.13152664380E+03 -0.31484106035E+03  0.34534099615E+03  0.00000000000E+00 0.  1.
<mgrwt>
<rscale>  0 0.23173363E+03</rscale>
<asrwt>0</asrwt>
<pdfrwt beam="2">  1        1 0.14225295E+00 0.23591207E+03</pdfrwt>
<pdfrwt beam="1">  1       -1 0.11371278E-01 0.23591207E+03</pdfrwt>
<totfact> 0.91361239E+02</totfact>
</mgrwt>
</event>
<event>
 7    1  0.1446636E-005  0.1797717E+03  0.7546771E-02  0.1178265E+00
          2   -1    0    0  501    0  0.00000000000E+00  0.00000000000E+00  0.17229360472E+03  0.17229360472E+03  0.00000000000E+00 0. -1.
         -2   -1    0    0    0  501 -0.00000000000E+00 -0.00000000000E+00 -0.16448198400E+03  0.16448198400E+03  0.00000000000E+00 0.  1.
         23    2    1    2    0    0  0.83264606065E+02 -0.71905220627E+02  0.52074174297E+02  0.15163498940E+03  0.90432820402E+02 0.  0.
          5    1    1    2  502    0  0.23522023488E+02  0.66878564049E+02 -0.52539553027E+01  0.71244101262E+02  0.47000000000E+01 0. -1.
         -5    1    1    2    0  502 -0.10678662955E+03  0.50266565781E+01 -0.39008598275E+02  0.11389649805E+03  0.47000000000E+01 0.  1.
        -11    1    3    3    0    0  0.32017692794E+02  0.19161628572E+02  0.19953653111E+02  0.42313696764E+02  0.00000000000E+00 0. -1.
         11    1    3    3    0    0  0.51246913272E+02 -0.91066849199E+02  0.32120521186E+02  0.10932129264E+03  0.00000000000E+00 0.  1.
<mgrwt>
<rscale>  0 0.16960099E+03</rscale>
<asrwt>0</asrwt>
<pdfrwt beam="1">  1        2 0.26506708E-01 0.17977171E+03</pdfrwt>
<pdfrwt beam="2">  1       -2 0.25304921E-01 0.17977171E+03</pdfrwt>
<totfact> 0.27441333E+03</totfact>
</mgrwt>
</event>
<event>
 7    1  0.1446636E-005  0.1333109E+03  0.7546771E-02  0.1235485E+00
          2   -1    0    0  501    0  0.00000000000E+00  0.00000000000E+00  0.29281823166E+03  0.29281823166E+03  0.00000000000E+00 0. -1.
         -2   -1    0    0    0  501 -0.00000000000E+00 -0.00000000000E+00 -0.65080056876E+02  0.65080056876E+02  0.00000000000E+00 0.  1.
         23    2    1    2    0    0  0.24523108335E+02  0.39303539443E+02  0.19573648896E+03  0.22080009563E+03  0.91070072276E+02 0.  0.
          5    1    1    2  502    0  0.51035491744E+02 -0.10905920931E+02  0.10637990117E+02  0.53467909653E+02  0.47000000000E+01 0. -1.
         -5    1    1    2    0  502 -0.75558600079E+02 -0.28397618512E+02  0.21363695707E+02  0.83630283255E+02  0.47000000000E+01 0. -1.
        -11    1    3    3    0    0  0.22096231468E+02  0.60698557219E+02  0.18650127983E+03  0.19737093422E+03  0.00000000000E+00 0. -1.
         11    1    3    3    0    0  0.24268768665E+01 -0.21395017775E+02  0.92352091263E+01  0.23429161414E+02  0.00000000000E+00 0.  1.
<mgrwt>
<rscale>  0 0.12473445E+03</rscale>
<asrwt>0</asrwt>
<pdfrwt beam="1">  1        2 0.45048958E-01 0.13331094E+03</pdfrwt>
<pdfrwt beam="2">  1       -2 0.10012317E-01 0.13331094E+03</pdfrwt>
<totfact> 0.70709621E+03</totfact>
</mgrwt>
</event>
<event>
 7    1  0.1446636E-005  0.1327021E+03  0.7546771E-02  0.1236271E+00
         -1   -1    0    0    0  501 -0.00000000000E+00  0.00000000000E+00  0.37267173235E+03  0.37267173235E+03  0.00000000000E+00 0.  1.
          1   -1    0    0  501    0  0.00000000000E+00 -0.00000000000E+00 -0.54395874121E+02  0.54395874121E+02  0.00000000000E+00 0. -1.
         23    2    1    2    0    0 -0.19721301524E+02  0.39950631817E+02  0.24690338857E+02  0.10488394065E+03  0.91684488642E+02 0.  0.
          5    1    1    2  502    0  0.39474414850E+02 -0.26164704539E+02  0.29381086065E+03  0.29764027453E+03  0.47000000000E+01 0.  1.
         -5    1    1    2    0  502 -0.19753113325E+02 -0.13785927277E+02 -0.22534127525E+00  0.24543391282E+02  0.47000000000E+01 0.  1.
        -11    1    3    3    0    0  0.17495888870E+02  0.57401399904E+02  0.21149128933E+02  0.63626350618E+02  0.00000000000E+00 0.  1.
         11    1    3    3    0    0 -0.37217190395E+02 -0.17450768088E+02  0.35412099243E+01  0.41257590035E+02  0.00000000000E+00 0. -1.
<mgrwt>
<rscale>  0 0.12423408E+03</rscale>
<asrwt>0</asrwt>
<pdfrwt beam="2">  1        1 0.83685962E-02 0.13270214E+03</pdfrwt>
<pdfrwt beam="1">  1       -1 0.57334111E-01 0.13270214E+03</pdfrwt>
<totfact> 0.25067177E+03</totfact>
</mgrwt>
</event>
<event>
 7    1  0.1446636E-005  0.1371084E+03  0.7546771E-02  0.1229279E+00
          2   -1    0    0  501    0  0.00000000000E+00  0.00000000000E+00  0.81945964125E+02  0.81945964125E+02  0.00000000000E+00 0. -1.
         -2   -1    0    0    0  501 -0.00000000000E+00 -0.00000000000E+00 -0.20448254458E+03  0.20448254458E+03  0.00000000000E+00 0.  1.
         23    2    1    2    0    0 -0.56012971034E+02  0.55365687118E+01 -0.66627520575E+01  0.10691403958E+03  0.90653808945E+02 0.  0.
          5    1    1    2  502    0 -0.15736125603E+02 -0.46740893846E+02 -0.21748855248E+02  0.54105817720E+02  0.47000000000E+01 0.  1.
         -5    1    1    2    0  502  0.71749096637E+02  0.41204325134E+02 -0.94124973148E+02  0.12540865141E+03  0.47000000000E+01 0.  1.
        -11    1    3    3    0    0 -0.18440543622E+02  0.28731612465E+02 -0.39261389720E+02  0.52028991213E+02  0.00000000000E+00 0.  1.
         11    1    3    3    0    0 -0.37572427413E+02 -0.23195043753E+02  0.32598637662E+02  0.54885048363E+02  0.00000000000E+00 0. -1.
<mgrwt>
<rscale>  0 0.12877910E+03</rscale>
<asrwt>0</asrwt>
<pdfrwt beam="1">  1        2 0.12607071E-01 0.13710835E+03</pdfrwt>
<pdfrwt beam="2">  1       -2 0.31458853E-01 0.13710835E+03</pdfrwt>
<totfact> 0.43054292E+03</totfact>
</mgrwt>
</event>
<event>
 7    1  0.1446636E-005  0.1386785E+03  0.7546771E-02  0.1238133E+00
          3   -1    0    0  501    0  0.00000000000E+00  0.00000000000E+00  0.19868596731E+02  0.19868596731E+02  0.00000000000E+00 0. -1.
         -3   -1    0    0    0  501 -0.00000000000E+00 -0.00000000000E+00 -0.73551473551E+03  0.73551473551E+03  0.00000000000E+00 0.  1.
         23    2    1    2    0    0  0.51454589858E+01  0.59839276501E+02 -0.14917009928E+03  0.17217939540E+03  0.61537069498E+02 0.  0.
          5    1    1    2  502    0 -0.49090869210E+02 -0.51331018508E+02 -0.17169601015E+03  0.18586661024E+03  0.47000000000E+01 0.  1.
         -5    1    1    2    0  502  0.43945410224E+02 -0.85082579934E+01 -0.39478002935E+03  0.39733732659E+03  0.47000000000E+01 0.  1.
        -11    1    3    3    0    0 -0.13293244642E+02  0.26203401763E+02 -0.12118868374E+03  0.12469974211E+03  0.00000000000E+00 0.  1.
         11    1    3    3    0    0  0.18438703628E+02  0.33635874738E+02 -0.27981415539E+02  0.47479653289E+02  0.00000000000E+00 0. -1.
<mgrwt>
<rscale>  0 0.12306002E+03</rscale>
<asrwt>0</asrwt>
<pdfrwt beam="1">  1        3 0.30567069E-02 0.13867851E+03</pdfrwt>
<pdfrwt beam="2">  1       -3 0.11315613E+00 0.13867851E+03</pdfrwt>
<totfact> 0.78041131E+02</totfact>
</mgrwt>
</event>
<event>
 7    1  0.1446636E-005  0.1608922E+03  0.7546771E-02  0.1195187E+00
          2   -1    0    0  501    0  0.00000000000E+00  0.00000000000E+00  0.11094733720E+03  0.11094733720E+03  0.00000000000E+00 0. -1.
         -2   -1    0    0    0  501 -0.00000000000E+00 -0.00000000000E+00 -0.19916482507E+03  0.19916482507E+03  0.00000000000E+00 0.  1.
         23    2    1    2    0    0 -0.56207819438E+02  0.84290334040E+02 -0.39225989747E+02  0.14192632815E+03  0.91324832176E+02 0.  0.
          5    1    1    2  502    0 -0.16460015272E+02  0.11651455129E+02 -0.42839606533E+02  0.47581618270E+02  0.47000000000E+01 0.  1.
         -5    1    1    2    0  502  0.72667834710E+02 -0.95941789169E+02 -0.61518915914E+01  0.12060421585E+03  0.47000000000E+01 0.  1.
        -11    1    3    3    0    0 -0.42102948334E+02  0.88281810401E+02  0.23561644341E+01  0.97836025149E+02  0.00000000000E+00 0. -1.
         11    1    3    3    0    0 -0.14104871105E+02 -0.39914763608E+01 -0.41582154182E+02  0.44090303002E+02  0.00000000000E+00 0.  1.
<mgrwt>
<rscale>  0 0.15438435E+03</rscale>
<asrwt>0</asrwt>
<pdfrwt beam="1">  1        2 0.17068821E-01 0.16089222E+03</pdfrwt>
<pdfrwt beam="2">  1       -2 0.30640742E-01 0.16089222E+03</pdfrwt>
<totfact> 0.31911940E+03</totfact>
</mgrwt>
</event>
<event>
 7    1  0.1446636E-005  0.1486756E+03  0.7546771E-02  0.1216157E+00
         -2   -1    0    0    0  501 -0.00000000000E+00  0.00000000000E+00  0.51907757958E+02  0.51907757958E+02  0.00000000000E+00 0.  1.
          2   -1    0    0  501    0  0.00000000000E+00 -0.00000000000E+00 -0.33654593273E+03  0.33654593273E+03  0.00000000000E+00 0. -1.
         23    2    1    2    0    0 -0.80236001584E+02  0.72945022796E+01 -0.82744896260E+02  0.13772411324E+03  0.75034577345E+02 0.  0.
          5    1    1    2  502    0  0.28415820452E-01  0.49817471897E+02 -0.64600044852E+02  0.81713139143E+02  0.47000000000E+01 0.  1.
         -5    1    1    2    0  502  0.80207585764E+02 -0.57111974176E+02 -0.13729323366E+03  0.16901643831E+03  0.47000000000E+01 0.  1.
        -11    1    3    3    0    0 -0.53352079522E+02  0.49263717659E+00 -0.31618620586E+01  0.53447960226E+02  0.00000000000E+00 0.  1.
         11    1    3    3    0    0 -0.26883922063E+02  0.68018651030E+01 -0.79583034201E+02  0.84276153015E+02  0.00000000000E+00 0. -1.
<mgrwt>
<rscale>  0 0.13791864E+03</rscale>
<asrwt>0</asrwt>
<pdfrwt beam="2">  1        2 0.51776299E-01 0.14867557E+03</pdfrwt>
<pdfrwt beam="1">  1       -2 0.79858086E-02 0.14867557E+03</pdfrwt>
<totfact> 0.87415095E+03</totfact>
</mgrwt>
</event>
<event>
 7    1  0.1446636E-005  0.1274118E+03  0.7546771E-02  0.1249429E+00
         -1   -1    0    0    0  501 -0.00000000000E+00  0.00000000000E+00  0.33906268321E+02  0.33906268321E+02  0.00000000000E+00 0.  1.
          1   -1    0    0  501    0  0.00000000000E+00 -0.00000000000E+00 -0.34493674572E+03  0.34493674572E+03  0.00000000000E+00 0. -1.
         23    2    1    2    0    0 -0.24389691964E+02  0.33801150827E+01 -0.11349506534E+03  0.14378132734E+03  0.84768260466E+02 0.  0.
          5    1    1    2  502    0 -0.33816930323E+02 -0.31640853798E+02 -0.14275280924E+03  0.15015053430E+03  0.47000000000E+01 0. -1.
         -5    1    1    2    0  502  0.58206622287E+02  0.28260738715E+02 -0.54782602826E+02  0.84911152407E+02  0.47000000000E+01 0. -1.
        -11    1    3    3    0    0 -0.13043625415E+02 -0.40596664175E+02 -0.49961326656E+02  0.65683783899E+02  0.00000000000E+00 0.  1.
         11    1    3    3    0    0 -0.11346066549E+02  0.43976779258E+02 -0.63533738683E+02  0.78097543438E+02  0.00000000000E+00 0. -1.
<mgrwt>
<rscale>  0 0.11624194E+03</rscale>
<asrwt>0</asrwt>
<pdfrwt beam="2">  1        1 0.53067190E-01 0.12741176E+03</pdfrwt>
<pdfrwt beam="1">  1       -1 0.52163491E-02 0.12741176E+03</pdfrwt>
<totfact> 0.11385015E+04</totfact>
</mgrwt>
</event>
<event>
 7    1  0.1446636E-005  0.1535063E+03  0.7546771E-02  0.1205225E+00
          4   -1    0    0  501    0  0.00000000000E+00  0.00000000000E+00  0.11968397761E+03  0.11968397761E+03  0.00000000000E+00 0. -1.
         -4   -1    0    0    0  501 -0.00000000000E+00 -0.00000000000E+00 -0.18133377184E+03  0.18133377184E+03  0.00000000000E+00 0.  1.
         23    2    1    2    0    0 -0.71568274162E+02 -0.53082259785E+02  0.18836571647E+02  0.12769081736E+03  0.89500749925E+02 0.  0.
          5    1    1    2  502    0  0.56252710598E+02  0.71566423111E+02 -0.20579839659E+01  0.91172614663E+02  0.47000000000E+01 0.  1.
         -5    1    1    2    0  502  0.15315563564E+02 -0.18484163326E+02 -0.78428381912E+02  0.82154317418E+02  0.47000000000E+01 0.  1.
        -11    1    3    3    0    0 -0.21821058966E+01  0.23108278716E+02  0.23508762997E+01  0.23329825347E+02  0.00000000000E+00 0.  1.
         11    1    3    3    0    0 -0.69386168265E+02 -0.76190538501E+02  0.16485695348E+02  0.10436099202E+03  0.00000000000E+00 0. -1.
<mgrwt>
<rscale>  0 0.14619755E+03</rscale>
<asrwt>0</asrwt>
<pdfrwt beam="1">  1        4 0.18412920E-01 0.15350625E+03</pdfrwt>
<pdfrwt beam="2">  1       -4 0.27897503E-01 0.15350625E+03</pdfrwt>
<totfact> 0.54245553E+02</totfact>
</mgrwt>
</event>
<event>
 7    1  0.1446636E-005  0.1365046E+03  0.7546771E-02  0.1230217E+00
         -2   -1    0    0    0  501 -0.00000000000E+00  0.00000000000E+00  0.12698565649E+03  0.12698565649E+03  0.00000000000E+00 0.  1.
          2   -1    0    0  501    0  0.00000000000E+00 -0.00000000000E+00 -0.13528341249E+03  0.13528341249E+03  0.00000000000E+00 0. -1.
         23    2    1    2    0    0  0.46198613358E+02  0.29629250401E+02 -0.53095794844E+02  0.11860153920E+03  0.90746665585E+02 0.  0.
          5    1    1    2  502    0 -0.73134495738E+02 -0.60645480691E+02  0.29779118444E+02  0.99676550354E+02  0.47000000000E+01 0.  1.
         -5    1    1    2    0  502  0.26935882380E+02  0.31016230290E+02  0.15018920403E+02  0.43990979429E+02  0.47000000000E+01 0.  1.
        -11    1    3    3    0    0  0.14487036608E+01  0.52391170823E+02 -0.12114283807E+02  0.53793023662E+02  0.00000000000E+00 0.  1.
         11    1    3    3    0    0  0.44749909697E+02 -0.22761920423E+02 -0.40981511038E+02  0.64808515537E+02  0.00000000000E+00 0. -1.
<mgrwt>
<rscale>  0 0.12815653E+03</rscale>
<asrwt>0</asrwt>
<pdfrwt beam="2">  1        2 0.20812833E-01 0.13650456E+03</pdfrwt>
<pdfrwt beam="1">  1       -2 0.19536255E-01 0.13650456E+03</pdfrwt>
<totfact> 0.55286917E+03</totfact>
</mgrwt>
</event>
<event>
 7    1  0.1446636E-005  0.1273814E+03  0.7546771E-02  0.1246599E+00
         -2   -1    0    0    0  501 -0.00000000000E+00  0.00000000000E+00  0.48305609758E+02  0.48305609758E+02  0.00000000000E+00 0. -1.
          2   -1    0    0  501    0  0.00000000000E+00 -0.00000000000E+00 -0.32217486087E+03  0.32217486087E+03  0.00000000000E+00 0.  1.
         23    2    1    2    0    0 -0.18183844516E+02  0.16434318978E+02 -0.20582937785E+03  0.22606630741E+03  0.90219197066E+02 0.  0.
          5    1    1    2  502    0 -0.78438849194E+01 -0.47294208551E+01 -0.10044937714E+03  0.10097554813E+03  0.47000000000E+01 0.  1.
         -5    1    1    2    0  502  0.26027729436E+02 -0.11704898123E+02  0.32409503873E+02  0.43438615090E+02  0.47000000000E+01 0.  1.
        -11    1    3    3    0    0  0.59040559385E+01 -0.32868265237E+02 -0.11684629786E+03  0.12152463973E+03  0.00000000000E+00 0. -1.
         11    1    3    3    0    0 -0.24087900455E+02  0.49302584216E+02 -0.88983079985E+02  0.10454166768E+03  0.00000000000E+00 0.  1.
<mgrwt>
<rscale>  0 0.11790168E+03</rscale>
<asrwt>0</asrwt>
<pdfrwt beam="2">  1        2 0.49565366E-01 0.12738142E+03</pdfrwt>
<pdfrwt beam="1">  1       -2 0.74316318E-02 0.12738142E+03</pdfrwt>
<totfact> 0.10115970E+04</totfact>
</mgrwt>
</event>
<event>
 7    1  0.1446636E-005  0.1897522E+03  0.7546771E-02  0.1163818E+00
          3   -1    0    0  501    0  0.00000000000E+00  0.00000000000E+00  0.34197925996E+02  0.34197925996E+02  0.00000000000E+00 0. -1.
         -3   -1    0    0    0  501 -0.00000000000E+00 -0.00000000000E+00 -0.13435147682E+04  0.13435147682E+04  0.00000000000E+00 0.  1.
         23    2    1    2    0    0  0.29798402472E+02 -0.13961554917E+03 -0.24939954359E+03  0.30094411491E+03  0.89368795443E+02 0.  0.
          5    1    1    2  502    0  0.31716316784E+02  0.10034534094E+02 -0.85926995080E+02  0.92261341354E+02  0.47000000000E+01 0.  1.
         -5    1    1    2    0  502 -0.61514719256E+02  0.12958101508E+03 -0.97399030358E+03  0.98450723797E+03  0.47000000000E+01 0.  1.
        -11    1    3    3    0    0  0.21889490504E+02 -0.12699849441E+02 -0.10734747329E+03  0.11029014459E+03  0.00000000000E+00 0.  1.
         11    1    3    3    0    0  0.79089119681E+01 -0.12691569973E+03 -0.14205207029E+03  0.19065397032E+03  0.00000000000E+00 0. -1.
<mgrwt>
<rscale>  0 0.18417989E+03</rscale>
<asrwt>0</asrwt>
<pdfrwt beam="1">  1        3 0.52612189E-02 0.18975219E+03</pdfrwt>
<pdfrwt beam="2">  1       -3 0.20669460E+00 0.18975219E+03</pdfrwt>
<totfact> 0.74648861E+01</totfact>
</mgrwt>
</event>
<event>
 7    1  0.1446636E-005  0.1637476E+03  0.7546771E-02  0.1186299E+00
          1   -1    0    0  501    0  0.00000000000E+00  0.00000000000E+00  0.57314335211E+03  0.57314335211E+03  0.00000000000E+00 0. -1.
         -1   -1    0    0    0  501 -0.00000000000E+00 -0.00000000000E+00 -0.46287504624E+02  0.46287504624E+02  0.00000000000E+00 0.  1.
         23    2    1    2    0    0 -0.84492489658E+02 -0.63635635957E+02  0.31017641213E+03  0.34783693837E+03  0.11658753826E+03 0.  0.
          5    1    1    2  502    0  0.76221195093E+02 -0.19365043751E+02  0.12305748861E+03  0.14611608742E+03  0.47000000000E+01 0.  1.
         -5    1    1    2    0  502  0.82712945654E+01  0.83000679708E+02  0.93621946740E+02  0.12547783094E+03  0.47000000000E+01 0.  1.
        -11    1    3    3    0    0 -0.59675859627E+01  0.21779223819E+02  0.76796203877E+01  0.23852111892E+02  0.00000000000E+00 0.  1.
         11    1    3    3    0    0 -0.78524903695E+02 -0.85414859776E+02  0.30249679175E+03  0.32398482648E+03  0.00000000000E+00 0. -1.
<mgrwt>
<rscale>  0 0.16214231E+03</rscale>
<asrwt>0</asrwt>
<pdfrwt beam="1">  1        1 0.88175895E-01 0.16374761E+03</pdfrwt>
<pdfrwt beam="2">  1       -1 0.71211550E-02 0.16374761E+03</pdfrwt>
<totfact> 0.37774296E+03</totfact>
</mgrwt>
</event>
<event>
 7    1  0.1446636E-005  0.2549045E+03  0.7546771E-02  0.1112590E+00
          1   -1    0    0  501    0  0.00000000000E+00  0.00000000000E+00  0.49487200875E+03  0.49487200875E+03  0.00000000000E+00 0. -1.
         -1   -1    0    0    0  501 -0.00000000000E+00 -0.00000000000E+00 -0.13265694682E+03  0.13265694682E+03  0.00000000000E+00 0.  1.
         23    2    1    2    0    0  0.10707986030E+03 -0.19463132202E+03  0.95082495524E+02  0.25829176535E+03  0.91249696437E+02 0.  0.
          5    1    1    2  502    0 -0.56371758099E+02  0.13922426375E+03  0.86121250476E+02  0.17320545751E+03  0.47000000000E+01 0.  1.
         -5    1    1    2    0  502 -0.50708102202E+02  0.55407058265E+02  0.18101131593E+03  0.19603173271E+03  0.47000000000E+01 0.  1.
        -11    1    3    3    0    0  0.49483620882E+02 -0.41188384392E+02  0.65317955755E+02  0.91714486797E+02  0.00000000000E+00 0.  1.
         11    1    3    3    0    0  0.57596239418E+02 -0.15344293762E+03  0.29764539769E+02  0.16657727855E+03  0.00000000000E+00 0. -1.
<mgrwt>
<rscale>  0 0.25113403E+03</rscale>
<asrwt>0</asrwt>
<pdfrwt beam="1">  1        1 0.76134154E-01 0.25490448E+03</pdfrwt>
<pdfrwt beam="2">  1       -1 0.20408761E-01 0.25490448E+03</pdfrwt>
<totfact> 0.89509205E+02</totfact>
</mgrwt>
</event>
<event>
 7    1  0.1446636E-005  0.1227589E+03  0.7546771E-02  0.1247319E+00
         -4   -1    0    0    0  501 -0.00000000000E+00  0.00000000000E+00  0.22796395623E+02  0.22796395623E+02  0.00000000000E+00 0.  1.
          4   -1    0    0  501    0  0.00000000000E+00 -0.00000000000E+00 -0.61184034879E+03  0.61184034879E+03  0.00000000000E+00 0. -1.
         23    2    1    2    0    0 -0.50097020875E+02  0.36050946137E+01 -0.36410072576E+03  0.37837670705E+03  0.89871495647E+02 0.  0.
          5    1    1    2  502    0  0.72549585351E+02 -0.17986520987E+02 -0.21457239377E+03  0.22726715433E+03  0.47000000000E+01 0. -1.
         -5    1    1    2    0  502 -0.22452564476E+02  0.14381426374E+02 -0.10370833638E+02  0.28992883031E+02  0.47000000000E+01 0.  1.
        -11    1    3    3    0    0 -0.52625881077E+02 -0.35461418301E+02 -0.23998282292E+03  0.24823124470E+03  0.00000000000E+00 0. -1.
         11    1    3    3    0    0  0.25288602025E+01  0.39066512914E+02 -0.12411790284E+03  0.13014546235E+03  0.00000000000E+00 0.  1.
<mgrwt>
<rscale>  0 0.11747648E+03</rscale>
<asrwt>0</asrwt>
<pdfrwt beam="2">  1        4 0.94129270E-01 0.12275891E+03</pdfrwt>
<pdfrwt beam="1">  1       -4 0.35071383E-02 0.12275891E+03</pdfrwt>
<totfact> 0.67387751E+02</totfact>
</mgrwt>
</event>
<event>
 7    1  0.1446636E-005  0.1389251E+03  0.7546771E-02  0.1225757E+00
         -2   -1    0    0    0  501 -0.00000000000E+00  0.00000000000E+00  0.86826525602E+02  0.86826525602E+02  0.00000000000E+00 0. -1.
          2   -1    0    0  501    0  0.00000000000E+00 -0.00000000000E+00 -0.18943656919E+03  0.18943656919E+03  0.00000000000E+00 0.  1.
         23    2    1    2    0    0 -0.54758493930E+02 -0.25982206856E+02 -0.78112929521E+02  0.13519465348E+03  0.92208442351E+02 0.  0.
          5    1    1    2  502    0 -0.29343563420E+02 -0.83250907994E+01 -0.38179791747E+02  0.49093159899E+02  0.47000000000E+01 0.  1.
         -5    1    1    2    0  502  0.84102057349E+02  0.34307297655E+02  0.13682677679E+02  0.91975281414E+02  0.47000000000E+01 0.  1.
        -11    1    3    3    0    0 -0.49181521077E+02  0.27415168031E+02 -0.34598306609E+02  0.66086732964E+02  0.00000000000E+00 0.  1.
         11    1    3    3    0    0 -0.55769728524E+01 -0.53397374887E+02 -0.43514622912E+02  0.69107920517E+02  0.00000000000E+00 0. -1.
<mgrwt>
<rscale>  0 0.13115159E+03</rscale>
<asrwt>0</asrwt>
<pdfrwt beam="2">  1        2 0.29144087E-01 0.13892515E+03</pdfrwt>
<pdfrwt beam="1">  1       -2 0.13357927E-01 0.13892515E+03</pdfrwt>
<totfact> 0.71407613E+03</totfact>
</mgrwt>
</event>
<event>
 7    1  0.1446636E-005  0.1263744E+03  0.7546771E-02  0.1247541E+00
          2   -1    0    0  501    0  0.00000000000E+00  0.00000000000E+00  0.15945381780E+03  0.15945381780E+03  0.00000000000E+00 0. -1.
         -2   -1    0    0    0  501 -0.00000000000E+00 -0.00000000000E+00 -0.10028517819E+03  0.10028517819E+03  0.00000000000E+00 0.  1.
         23    2    1    2    0    0  0.10497408313E+02 -0.15196266976E+02  0.89521262863E+02  0.12977069147E+03  0.92115437081E+02 0.  0.
          5    1    1    2  502    0  0.24678069881E+02  0.46612509853E+02  0.23756819002E+02  0.58036278800E+02  0.47000000000E+01 0. -1.
         -5    1    1    2    0  502 -0.35175478194E+02 -0.31416242877E+02 -0.54109442257E+02  0.71932025719E+02  0.47000000000E+01 0. -1.
        -11    1    3    3    0    0  0.14613429804E+02 -0.46472948401E+02  0.18593844598E+02  0.52144206971E+02  0.00000000000E+00 0.  1.
         11    1    3    3    0    0 -0.41160214915E+01  0.31276681425E+02  0.70927418265E+02  0.77626484499E+02  0.00000000000E+00 0. -1.
<mgrwt>
<rscale>  0 0.11734566E+03</rscale>
<asrwt>0</asrwt>
<pdfrwt beam="1">  1        2 0.24531356E-01 0.12637436E+03</pdfrwt>
<pdfrwt beam="2">  1       -2 0.15428489E-01 0.12637436E+03</pdfrwt>
<totfact> 0.67768148E+03</totfact>
</mgrwt>
</event>
<event>
 7    1  0.1446636E-005  0.1277418E+03  0.7546771E-02  0.1245054E+00
          4   -1    0    0  501    0  0.00000000000E+00  0.00000000000E+00  0.18340409642E+03  0.18340409642E+03  0.00000000000E+00 0. -1.
         -4   -1    0    0    0  501 -0.00000000000E+00 -0.00000000000E+00 -0.68058664702E+02  0.68058664702E+02  0.00000000000E+00 0.  1.
         23    2    1    2    0    0  0.96333559878E+01 -0.24542508238E+02  0.52685545384E+02  0.10918050784E+03  0.91921054941E+02 0.  0.
          5    1    1    2  502    0 -0.42569774015E+02  0.30154082507E+02  0.86393040801E+02  0.10103119246E+03  0.47000000000E+01 0.  1.
         -5    1    1    2    0  502  0.32936418027E+02 -0.56115742685E+01 -0.23733154465E+02  0.41251060823E+02  0.47000000000E+01 0.  1.
        -11    1    3    3    0    0  0.43079933244E+02 -0.65026943259E+01 -0.79298619247E+00  0.43575159310E+02  0.00000000000E+00 0.  1.
         11    1    3    3    0    0 -0.33446577256E+02 -0.18039813912E+02  0.53478531576E+02  0.65605348529E+02  0.00000000000E+00 0. -1.
<mgrwt>
<rscale>  0 0.11882165E+03</rscale>
<asrwt>0</asrwt>
<pdfrwt beam="1">  1        4 0.28216015E-01 0.12774184E+03</pdfrwt>
<pdfrwt beam="2">  1       -4 0.10470564E-01 0.12774184E+03</pdfrwt>
<totfact> 0.13624922E+03</totfact>
</mgrwt>
</event>
<event>
 7    1  0.1446636E-005  0.1320528E+03  0.7546771E-02  0.1239324E+00
          2   -1    0    0  501    0  0.00000000000E+00  0.00000000000E+00  0.40690631094E+03  0.40690631094E+03  0.00000000000E+00 0. -1.
         -2   -1    0    0    0  501 -0.00000000000E+00 -0.00000000000E+00 -0.34856656622E+02  0.34856656622E+02  0.00000000000E+00 0.  1.
         23    2    1    2    0    0  0.33582997966E+02  0.26169717830E+02  0.21909562820E+03  0.23969151342E+03  0.87386814947E+02 0.  0.
          5    1    1    2  502    0 -0.24981124468E+02 -0.71496061282E+02  0.55070142727E+02  0.93757954215E+02  0.47000000000E+01 0.  1.
         -5    1    1    2    0  502 -0.86018734979E+01  0.45326343452E+02  0.97883883386E+02  0.10831349992E+03  0.47000000000E+01 0.  1.
        -11    1    3    3    0    0  0.56110607782E+02  0.31423624564E+02  0.10387243906E+03  0.12216925998E+03  0.00000000000E+00 0.  1.
         11    1    3    3    0    0 -0.22527609816E+02 -0.52539067340E+01  0.11522318914E+03  0.11752225344E+03  0.00000000000E+00 0. -1.
<mgrwt>
<rscale>  0 0.12231639E+03</rscale>
<asrwt>0</asrwt>
<pdfrwt beam="1">  1        2 0.62600967E-01 0.13205279E+03</pdfrwt>
<pdfrwt beam="2">  1       -2 0.53625629E-02 0.13205279E+03</pdfrwt>
<totfact> 0.12996570E+04</totfact>
</mgrwt>
</event>
<event>
 7    1  0.1446636E-005  0.1561391E+03  0.7546771E-02  0.1197609E+00
          2   -1    0    0  501    0  0.00000000000E+00  0.00000000000E+00  0.20388243284E+03  0.20388243284E+03  0.00000000000E+00 0. -1.
         -2   -1    0    0    0  501 -0.00000000000E+00 -0.00000000000E+00 -0.11595977728E+03  0.11595977728E+03  0.00000000000E+00 0.  1.
         23    2    1    2    0    0  0.42575316672E+02  0.83301579390E+02  0.82020460045E+02  0.16359158847E+03  0.10622166086E+03 0.  0.
          5    1    1    2  502    0 -0.21534698288E+01  0.25718051093E+02 -0.24589087589E+02  0.35955094392E+02  0.47000000000E+01 0.  1.
         -5    1    1    2    0  502 -0.40421846843E+02 -0.10901963048E+03  0.30491283109E+02  0.12029552726E+03  0.47000000000E+01 0.  1.
        -11    1    3    3    0    0 -0.32973057938E+02  0.47087119228E+02  0.28347361702E+02  0.64093621075E+02  0.00000000000E+00 0. -1.
         11    1    3    3    0    0  0.75548374609E+02  0.36214460162E+02  0.53673098342E+02  0.99497967399E+02  0.00000000000E+00 0.  1.
<mgrwt>
<rscale>  0 0.15235511E+03</rscale>
<asrwt>0</asrwt>
<pdfrwt beam="1">  1        2 0.31366528E-01 0.15613911E+03</pdfrwt>
<pdfrwt beam="2">  1       -2 0.17839966E-01 0.15613911E+03</pdfrwt>
<totfact> 0.41287660E+03</totfact>
</mgrwt>
</event>
<event>
 7    1  0.1446636E-005  0.1458012E+03  0.7546771E-02  0.1214007E+00
         -1   -1    0    0    0  501 -0.00000000000E+00  0.00000000000E+00  0.68879548784E+03  0.68879548784E+03  0.00000000000E+00 0.  1.
          1   -1    0    0  501    0  0.00000000000E+00 -0.00000000000E+00 -0.26488562088E+02  0.26488562088E+02  0.00000000000E+00 0. -1.
         23    2    1    2    0    0  0.74082339817E+02  0.12006255029E+02  0.25732892975E+03  0.28485965838E+03  0.96408006179E+02 0.  0.
          5    1    1    2  502    0 -0.30579894888E+02  0.17936592998E+02  0.18382654846E+02  0.40210239230E+02  0.47000000000E+01 0.  1.
         -5    1    1    2    0  502 -0.43502444929E+02 -0.29942848026E+02  0.38659534116E+03  0.39021415231E+03  0.47000000000E+01 0.  1.
        -11    1    3    3    0    0  0.79231739181E+02 -0.69877028900E+01  0.25230985471E+03  0.26455010729E+03  0.00000000000E+00 0.  1.
         11    1    3    3    0    0 -0.51493993643E+01  0.18993957919E+02  0.50190750408E+01  0.20309551090E+02  0.00000000000E+00 0. -1.
<mgrwt>
<rscale>  0 0.13949761E+03</rscale>
<asrwt>0</asrwt>
<pdfrwt beam="2">  1        1 0.40751639E-02 0.14580116E+03</pdfrwt>
<pdfrwt beam="1">  1       -1 0.10596852E+00 0.14580116E+03</pdfrwt>
<totfact> 0.19090045E+03</totfact>
</mgrwt>
</event>
<event>
 7    1  0.1446636E-005  0.1277827E+03  0.7546771E-02  0.1245055E+00
         -1   -1    0    0    0  501 -0.00000000000E+00  0.00000000000E+00  0.74215522017E+02  0.74215522017E+02  0.00000000000E+00 0.  1.
          1   -1    0    0  501    0  0.00000000000E+00 -0.00000000000E+00 -0.16928832841E+03  0.16928832841E+03  0.00000000000E+00 0. -1.
         23    2    1    2    0    0  0.15927241386E+02 -0.21202533579E+02 -0.51269862631E+02  0.10842196698E+03  0.91779625519E+02 0.  0.
          5    1    1    2  502    0 -0.29421980651E+02 -0.38531024569E+02 -0.54111144890E+02  0.72803837818E+02  0.47000000000E+01 0.  1.
         -5    1    1    2    0  502  0.13494739266E+02  0.59733558148E+02  0.10308201132E+02  0.62278045630E+02  0.47000000000E+01 0.  1.
        -11    1    3    3    0    0  0.52316464164E+02 -0.26436782008E+02 -0.28499351892E+02  0.65177671973E+02  0.00000000000E+00 0. -1.
         11    1    3    3    0    0 -0.36389222778E+02  0.52342484289E+01 -0.22770510739E+02  0.43244295003E+02  0.00000000000E+00 0.  1.
<mgrwt>
<rscale>  0 0.11882105E+03</rscale>
<asrwt>0</asrwt>
<pdfrwt beam="2">  1        1 0.26044358E-01 0.12778270E+03</pdfrwt>
<pdfrwt beam="1">  1       -1 0.11417773E-01 0.12778270E+03</pdfrwt>
<totfact> 0.84571789E+03</totfact>
</mgrwt>
</event>
<event>
 7    1  0.1446636E-005  0.1280871E+03  0.7546771E-02  0.1245625E+00
         -2   -1    0    0    0  501 -0.00000000000E+00  0.00000000000E+00  0.52593176657E+03  0.52593176657E+03  0.00000000000E+00 0.  1.
          2   -1    0    0  501    0  0.00000000000E+00 -0.00000000000E+00 -0.23574464567E+02  0.23574464567E+02  0.00000000000E+00 0. -1.
         23    2    1    2    0    0 -0.12029233406E+02 -0.25262788335E+02  0.18907070975E+03  0.21104677940E+03  0.89499155749E+02 0.  0.
          5    1    1    2  502    0 -0.29093472569E+02  0.40447551631E+02  0.47356963477E+02  0.68899975100E+02  0.47000000000E+01 0. -1.
         -5    1    1    2    0  502  0.41122705975E+02 -0.15184763295E+02  0.26592962877E+03  0.26955947663E+03  0.47000000000E+01 0. -1.
        -11    1    3    3    0    0 -0.47984070269E+02 -0.14987764494E+02  0.69568389163E+02  0.85830442472E+02  0.00000000000E+00 0.  1.
         11    1    3    3    0    0  0.35954836863E+02 -0.10275023842E+02  0.11950232058E+03  0.12521633693E+03  0.00000000000E+00 0. -1.
<mgrwt>
<rscale>  0 0.11848034E+03</rscale>
<asrwt>0</asrwt>
<pdfrwt beam="2">  1        2 0.36268411E-02 0.12808712E+03</pdfrwt>
<pdfrwt beam="1">  1       -2 0.80912570E-01 0.12808712E+03</pdfrwt>
<totfact> 0.31894646E+03</totfact>
</mgrwt>
</event>
<event>
 7    1  0.1446636E-005  0.2243948E+03  0.7546771E-02  0.1133739E+00
         -1   -1    0    0    0  501 -0.00000000000E+00  0.00000000000E+00  0.80705583981E+02  0.80705583981E+02  0.00000000000E+00 0.  1.
          1   -1    0    0  501    0  0.00000000000E+00 -0.00000000000E+00 -0.58784217470E+03  0.58784217470E+03  0.00000000000E+00 0. -1.
         23    2    1    2    0    0  0.13835176238E+03  0.12484093647E+03 -0.28437127043E+03  0.35235567543E+03  0.92525850390E+02 0.  0.
          5    1    1    2  502    0 -0.66426835328E+02 -0.22341141651E+02 -0.12388127837E+02  0.71324657540E+02  0.47000000000E+01 0.  1.
         -5    1    1    2    0  502 -0.71924927049E+02 -0.10249979482E+03 -0.21037719246E+03  0.24486742572E+03  0.47000000000E+01 0.  1.
        -11    1    3    3    0    0  0.67120580098E+02  0.40973810741E+01 -0.10523619779E+03  0.12488642091E+03  0.00000000000E+00 0.  1.
         11    1    3    3    0    0  0.71231182278E+02  0.12074355540E+03 -0.17913507264E+03  0.22746925451E+03  0.00000000000E+00 0. -1.
<mgrwt>
<rscale>  0 0.22019374E+03</rscale>
<asrwt>0</asrwt>
<pdfrwt beam="2">  1        1 0.90437265E-01 0.22439484E+03</pdfrwt>
<pdfrwt beam="1">  1       -1 0.12416243E-01 0.22439484E+03</pdfrwt>
<totfact> 0.15670917E+03</totfact>
</mgrwt>
</event>
<event>
 7    1  0.1446636E-005  0.1734746E+03  0.7546771E-02  0.1180265E+00
          2   -1    0    0  501    0  0.00000000000E+00  0.00000000000E+00  0.52596253063E+02  0.52596253063E+02  0.00000000000E+00 0. -1.
         -2   -1    0    0    0  501 -0.00000000000E+00 -0.00000000000E+00 -0.53273261192E+03  0.53273261192E+03  0.00000000000E+00 0.  1.
         23    2    1    2    0    0 -0.28035359565E+02  0.11697044458E+03 -0.15466635503E+03  0.21651434940E+03  0.92134227230E+02 0.  0.
          5    1    1    2  502    0  0.40424166208E+01 -0.33755650182E+02 -0.25107904949E+01  0.34411903758E+02  0.47000000000E+01 0.  1.
         -5    1    1    2    0  502  0.23992942944E+02 -0.83214794398E+02 -0.32295921334E+03  0.33440261183E+03  0.47000000000E+01 0.  1.
        -11    1    3    3    0    0  0.63138350927E+00  0.65272552637E+02 -0.14167539567E+03  0.15598981541E+03  0.00000000000E+00 0.  1.
         11    1    3    3    0    0 -0.28666743074E+02  0.51697891942E+02 -0.12990959356E+02  0.60524533990E+02  0.00000000000E+00 0. -1.
<mgrwt>
<rscale>  0 0.16770296E+03</rscale>
<asrwt>0</asrwt>
<pdfrwt beam="1">  1        2 0.80917311E-02 0.17347456E+03</pdfrwt>
<pdfrwt beam="2">  1       -2 0.81958864E-01 0.17347456E+03</pdfrwt>
<totfact> 0.11118966E+03</totfact>
</mgrwt>
</event>
<event>
 7    1  0.1446636E-005  0.1339805E+03  0.7546771E-02  0.1235712E+00
         -2   -1    0    0    0  501 -0.00000000000E+00  0.00000000000E+00  0.41211649923E+02  0.41211649923E+02  0.00000000000E+00 0.  1.
          2   -1    0    0  501    0  0.00000000000E+00 -0.00000000000E+00 -0.37892703587E+03  0.37892703587E+03  0.00000000000E+00 0. -1.
         23    2    1    2    0    0 -0.47994598452E+02 -0.46003671738E+01 -0.22021702663E+03  0.24193476641E+03  0.87819402872E+02 0.  0.
          5    1    1    2  502    0  0.90657187746E+02  0.45575447805E+01 -0.83904837629E+02  0.12369967131E+03  0.47000000000E+01 0.  1.
         -5    1    1    2    0  502 -0.42662589294E+02  0.42822393309E-01 -0.33593521693E+02  0.54504248080E+02  0.47000000000E+01 0.  1.
        -11    1    3    3    0    0 -0.55921520752E+01 -0.10067480267E+02  0.51016771580E+01  0.12595770464E+02  0.00000000000E+00 0.  1.
         11    1    3    3    0    0 -0.42402446377E+02  0.54671130930E+01 -0.22531870379E+03  0.22933899594E+03  0.00000000000E+00 0. -1.
<mgrwt>
<rscale>  0 0.12458940E+03</rscale>
<asrwt>0</asrwt>
<pdfrwt beam="2">  1        2 0.58296469E-01 0.13398049E+03</pdfrwt>
<pdfrwt beam="1">  1       -2 0.63402536E-02 0.13398049E+03</pdfrwt>
<totfact> 0.10895761E+04</totfact>
</mgrwt>
</event>
<event>
 7    1  0.1446636E-005  0.1255167E+03  0.7546771E-02  0.1248672E+00
          1   -1    0    0  501    0  0.00000000000E+00  0.00000000000E+00  0.71086789333E+02  0.71086789333E+02  0.00000000000E+00 0. -1.
         -1   -1    0    0    0  501 -0.00000000000E+00 -0.00000000000E+00 -0.29501894809E+03  0.29501894809E+03  0.00000000000E+00 0.  1.
         23    2    1    2    0    0 -0.10780875092E+02  0.36392938777E+01  0.16218103965E+02  0.95132319584E+02  0.93046545371E+02 0.  0.
          5    1    1    2  502    0 -0.35906262655E+02  0.36911520305E+02 -0.16827614016E+03  0.17604166943E+03  0.47000000000E+01 0.  1.
         -5    1    1    2    0  502  0.46687137747E+02 -0.40550814183E+02 -0.71874122567E+02  0.94931748413E+02  0.47000000000E+01 0.  1.
        -11    1    3    3    0    0  0.20483774431E+02  0.40489144678E+02  0.92094881902E+01  0.46300869586E+02  0.00000000000E+00 0. -1.
         11    1    3    3    0    0 -0.31264649523E+02 -0.36849850800E+02  0.70086157749E+01  0.48831449998E+02  0.00000000000E+00 0.  1.
<mgrwt>
<rscale>  0 0.11668286E+03</rscale>
<asrwt>0</asrwt>
<pdfrwt beam="1">  1        1 0.10936429E-01 0.12551671E+03</pdfrwt>
<pdfrwt beam="2">  1       -1 0.45387530E-01 0.12551671E+03</pdfrwt>
<totfact> 0.26882255E+03</totfact>
</mgrwt>
</event>
<event>
 7    1  0.1446636E-005  0.1370778E+03  0.7546771E-02  0.1228335E+00
         -2   -1    0    0    0  501 -0.00000000000E+00  0.00000000000E+00  0.62824813890E+02  0.62824813890E+02  0.00000000000E+00 0.  1.
          2   -1    0    0  501    0  0.00000000000E+00 -0.00000000000E+00 -0.25273505225E+03  0.25273505225E+03  0.00000000000E+00 0. -1.
         23    2    1    2    0    0 -0.40559587246E+02  0.52303973510E+02 -0.11875169312E+03  0.16111289263E+03  0.86455848797E+02 0.  0.
          5    1    1    2  502    0 -0.33624861268E+01  0.49781038038E+01 -0.81076388288E+02  0.81434381979E+02  0.47000000000E+01 0. -1.
         -5    1    1    2    0  502  0.43922073373E+02 -0.57282077314E+02  0.99178430492E+01  0.73012591527E+02  0.47000000000E+01 0.  1.
        -11    1    3    3    0    0 -0.11006491685E+02  0.68841374264E+02 -0.54528337985E+02  0.88507724596E+02  0.00000000000E+00 0. -1.
         11    1    3    3    0    0 -0.29553095561E+02 -0.16537400753E+02 -0.64223355136E+02  0.72605168038E+02  0.00000000000E+00 0.  1.
<mgrwt>
<rscale>  0 0.12940913E+03</rscale>
<asrwt>0</asrwt>
<pdfrwt beam="2">  1        2 0.38882316E-01 0.13707782E+03</pdfrwt>
<pdfrwt beam="1">  1       -2 0.96653559E-02 0.13707782E+03</pdfrwt>
<totfact> 0.87532194E+03</totfact>
</mgrwt>
</event>
<event>
 7    1  0.1446636E-005  0.1536814E+03  0.7546771E-02  0.1203428E+00
         -4   -1    0    0    0  501 -0.00000000000E+00  0.00000000000E+00  0.99436287138E+02  0.99436287138E+02  0.00000000000E+00 0.  1.
          4   -1    0    0  501    0  0.00000000000E+00 -0.00000000000E+00 -0.33189013263E+03  0.33189013263E+03  0.00000000000E+00 0. -1.
         23    2    1    2    0    0 -0.86818080026E+02  0.21340867481E+02 -0.24436334472E+03  0.27718427062E+03  0.95524153973E+02 0.  0.
          5    1    1    2  502    0  0.35320482006E+02  0.40034656903E+00  0.66767113224E+02  0.75681134602E+02  0.47000000000E+01 0. -1.
         -5    1    1    2    0  502  0.51497598021E+02 -0.21741214050E+02 -0.54857614000E+02  0.78461014549E+02  0.47000000000E+01 0. -1.
        -11    1    3    3    0    0 -0.40139155384E+02  0.13387162990E+02 -0.18103899040E+02  0.46023027805E+02  0.00000000000E+00 0.  1.
         11    1    3    3    0    0 -0.46678924642E+02  0.79537044905E+01 -0.22625944568E+03  0.23116124281E+03  0.00000000000E+00 0. -1.
<mgrwt>
<rscale>  0 0.14762045E+03</rscale>
<asrwt>0</asrwt>
<pdfrwt beam="2">  1        4 0.51060020E-01 0.15368138E+03</pdfrwt>
<pdfrwt beam="1">  1       -4 0.15297890E-01 0.15368138E+03</pdfrwt>
<totfact> 0.23058341E+02</totfact>
</mgrwt>
</event>
<event>
 7    1  0.1446636E-005  0.1268837E+03  0.7546771E-02  0.1247049E+00
         -3   -1    0    0    0  501 -0.00000000000E+00  0.00000000000E+00  0.88493923392E+03  0.88493923392E+03  0.00000000000E+00 0. -1.
          3   -1    0    0  501    0  0.00000000000E+00 -0.00000000000E+00 -0.13870597029E+02  0.13870597029E+02  0.00000000000E+00 0.  1.
         23    2    1    2    0    0 -0.11853890992E+02  0.18292126693E+02  0.32946369293E+03  0.34254066504E+03  0.91173820899E+02 0.  0.
          5    1    1    2  502    0  0.54015400139E+02  0.24394144345E+02  0.36199540790E+03  0.36684533944E+03  0.47000000000E+01 0.  1.
         -5    1    1    2    0  502 -0.42161509146E+02 -0.42686271039E+02  0.17960953606E+03  0.18942382647E+03  0.47000000000E+01 0.  1.
        -11    1    3    3    0    0  0.21381342464E+02  0.41082573842E+02  0.10911127370E+03  0.11853358059E+03  0.00000000000E+00 0.  1.
         11    1    3    3    0    0 -0.33235233456E+02 -0.22790447148E+02  0.22035241922E+03  0.22400708445E+03  0.00000000000E+00 0. -1.
<mgrwt>
<rscale>  0 0.11763573E+03</rscale>
<asrwt>0</asrwt>
<pdfrwt beam="2">  1        3 0.21339387E-02 0.12688369E+03</pdfrwt>
<pdfrwt beam="1">  1       -3 0.13614445E+00 0.12688369E+03</pdfrwt>
<totfact> 0.86159840E+02</totfact>
</mgrwt>
</event>
<event>
 7    1  0.1446636E-005  0.2521615E+03  0.7546771E-02  0.1126584E+00
          2   -1    0    0  501    0  0.00000000000E+00  0.00000000000E+00  0.11265657723E+04  0.11265657723E+04  0.00000000000E+00 0. -1.
         -2   -1    0    0    0  501 -0.00000000000E+00 -0.00000000000E+00 -0.40760050466E+02  0.40760050466E+02  0.00000000000E+00 0.  1.
         23    2    1    2    0    0 -0.70149474205E+02  0.13243613378E+03  0.49542708172E+03  0.52535044952E+03  0.89915645149E+02 0.  0.
          5    1    1    2  502    0  0.29697949103E+02 -0.93068680174E+02  0.57503434895E+03  0.58329267086E+03  0.47000000000E+01 0. -1.
         -5    1    1    2    0  502  0.40451525103E+02 -0.39367453605E+02  0.15344291145E+02  0.58682702368E+02  0.47000000000E+01 0.  1.
        -11    1    3    3    0    0 -0.25683706053E+02  0.79734986401E+02  0.39331797461E+03  0.40213971449E+03  0.00000000000E+00 0.  1.
         11    1    3    3    0    0 -0.44465768152E+02  0.52701147378E+02  0.10210910711E+03  0.12321073503E+03  0.00000000000E+00 0. -1.
<mgrwt>
<rscale>  0 0.23007892E+03</rscale>
<asrwt>0</asrwt>
<pdfrwt beam="1">  1        2 0.17331779E+00 0.25216154E+03</pdfrwt>
<pdfrwt beam="2">  1       -2 0.62707778E-02 0.25216154E+03</pdfrwt>
<totfact> 0.30401754E+03</totfact>
</mgrwt>
</event>
<event>
 7    1  0.1446636E-005  0.1723401E+03  0.7546771E-02  0.1180486E+00
         -1   -1    0    0    0  501 -0.00000000000E+00  0.00000000000E+00  0.11024565729E+03  0.11024565729E+03  0.00000000000E+00 0.  1.
          1   -1    0    0  501    0  0.00000000000E+00 -0.00000000000E+00 -0.29121836213E+03  0.29121836213E+03  0.00000000000E+00 0. -1.
         23    2    1    2    0    0  0.10718188135E+03 -0.50906948577E+02 -0.16934045557E+03  0.22873184716E+03  0.97788521369E+02 0.  0.
          5    1    1    2  502    0 -0.83305016723E+02 -0.28948753641E+02  0.86279994317E+00  0.88320952057E+02  0.47000000000E+01 0.  1.
         -5    1    1    2    0  502 -0.23876864625E+02  0.79855702218E+02 -0.12495049224E+02  0.84411220203E+02  0.47000000000E+01 0.  1.
        -11    1    3    3    0    0  0.64003506955E+02  0.15756695851E+02 -0.11481920198E+03  0.13239400103E+03  0.00000000000E+00 0.  1.
         11    1    3    3    0    0  0.43178374393E+02 -0.66663644428E+02 -0.54521253588E+02  0.96337846128E+02  0.00000000000E+00 0. -1.
<mgrwt>
<rscale>  0 0.16749442E+03</rscale>
<asrwt>0</asrwt>
<pdfrwt beam="2">  1        1 0.44802825E-01 0.17234005E+03</pdfrwt>
<pdfrwt beam="1">  1       -1 0.16960870E-01 0.17234005E+03</pdfrwt>
<totfact> 0.23589171E+03</totfact>
</mgrwt>
</event>
<event>
 7    1  0.1446636E-005  0.2366047E+03  0.7546771E-02  0.1124834E+00
          1   -1    0    0  501    0  0.00000000000E+00  0.00000000000E+00  0.36650195759E+03  0.36650195759E+03  0.00000000000E+00 0. -1.
         -1   -1    0    0    0  501 -0.00000000000E+00 -0.00000000000E+00 -0.15706697576E+03  0.15706697576E+03  0.00000000000E+00 0.  1.
         23    2    1    2    0    0  0.91238429876E+02  0.17897191783E+03  0.18032674271E+03  0.28518041976E+03  0.91949655892E+02 0.  0.
          5    1    1    2  502    0 -0.40084714209E+02  0.32684578326E+01 -0.16347232306E+02  0.43666796698E+02  0.47000000000E+01 0. -1.
         -5    1    1    2    0  502 -0.51153715667E+02 -0.18224037566E+03  0.45455471423E+02  0.19472171690E+03  0.47000000000E+01 0. -1.
        -11    1    3    3    0    0  0.25212604150E+02  0.45690165297E+02  0.99737107789E+00  0.52194457196E+02  0.00000000000E+00 0.  1.
         11    1    3    3    0    0  0.66025825726E+02  0.13328175253E+03  0.17932937163E+03  0.23298596256E+03  0.00000000000E+00 0. -1.
<mgrwt>
<rscale>  0 0.23258479E+03</rscale>
<asrwt>0</asrwt>
<pdfrwt beam="1">  1        1 0.56384916E-01 0.23660472E+03</pdfrwt>
<pdfrwt beam="2">  1       -1 0.24164150E-01 0.23660472E+03</pdfrwt>
<totfact> 0.10005445E+03</totfact>
</mgrwt>
</event>
<event>
 7    1  0.1446636E-005  0.1633660E+03  0.7546771E-02  0.1192514E+00
          1   -1    0    0  501    0  0.00000000000E+00  0.00000000000E+00  0.21420251051E+03  0.21420251051E+03  0.00000000000E+00 0. -1.
         -1   -1    0    0    0  501 -0.00000000000E+00 -0.00000000000E+00 -0.12758164951E+03  0.12758164951E+03  0.00000000000E+00 0.  1.
         23    2    1    2    0    0 -0.91366375109E+02 -0.52118112057E+02  0.11018990443E+03  0.17672674408E+03  0.89590261357E+02 0.  0.
          5    1    1    2  502    0  0.72957586042E+02  0.86582658157E+02  0.94119242478E+01  0.11371033538E+03  0.47000000000E+01 0. -1.
         -5    1    1    2    0  502  0.18408789067E+02 -0.34464546100E+02 -0.32980967682E+02  0.51347080560E+02  0.47000000000E+01 0. -1.
        -11    1    3    3    0    0 -0.13621411067E+01 -0.42084441444E+02  0.13426636718E+02  0.44195364164E+02  0.00000000000E+00 0.  1.
         11    1    3    3    0    0 -0.90004234003E+02 -0.10033670613E+02  0.96763267709E+02  0.13253137991E+03  0.00000000000E+00 0. -1.
<mgrwt>
<rscale>  0 0.15666555E+03</rscale>
<asrwt>0</asrwt>
<pdfrwt beam="1">  1        1 0.32954232E-01 0.16336600E+03</pdfrwt>
<pdfrwt beam="2">  1       -1 0.19627946E-01 0.16336600E+03</pdfrwt>
<totfact> 0.27316180E+03</totfact>
</mgrwt>
</event>
<event>
 7    1  0.1446636E-005  0.1321364E+03  0.7546771E-02  0.1236156E+00
         -2   -1    0    0    0  501 -0.00000000000E+00  0.00000000000E+00  0.35577241572E+03  0.35577241572E+03  0.00000000000E+00 0.  1.
          2   -1    0    0  501    0  0.00000000000E+00 -0.00000000000E+00 -0.49248105807E+02  0.49248105807E+02  0.00000000000E+00 0. -1.
         23    2    1    2    0    0 -0.28684159163E+02 -0.31779587909E+02  0.46732774907E+02  0.11355584020E+03  0.94224484068E+02 0.  0.
          5    1    1    2  502    0  0.35099405750E+02  0.41809540647E+02  0.32279684126E+02  0.63593034056E+02  0.47000000000E+01 0. -1.
         -5    1    1    2    0  502 -0.64152465870E+01 -0.10029952738E+02  0.22751185088E+03  0.22787164728E+03  0.47000000000E+01 0. -1.
        -11    1    3    3    0    0 -0.28902454273E+02 -0.43948862450E+02 -0.11685384798E+02  0.53883231079E+02  0.00000000000E+00 0. -1.
         11    1    3    3    0    0  0.21829511062E+00  0.12169274541E+02  0.58418159705E+02  0.59672609118E+02  0.00000000000E+00 0.  1.
<mgrwt>
<rscale>  0 0.12430695E+03</rscale>
<asrwt>0</asrwt>
<pdfrwt beam="2">  1        2 0.75766319E-02 0.13213636E+03</pdfrwt>
<pdfrwt beam="1">  1       -2 0.54734216E-01 0.13213636E+03</pdfrwt>
<totfact> 0.27919252E+03</totfact>
</mgrwt>
</event>
<event>
 7    1  0.1446636E-005  0.2175057E+03  0.7546771E-02  0.1139283E+00
         -1   -1    0    0    0  501 -0.00000000000E+00  0.00000000000E+00  0.26416963947E+03  0.26416963947E+03  0.00000000000E+00 0.  1.
          1   -1    0    0  501    0  0.00000000000E+00 -0.00000000000E+00 -0.16506180868E+03  0.16506180868E+03  0.00000000000E+00 0. -1.
         23    2    1    2    0    0 -0.14232965726E+03 -0.10690566935E+03  0.37657903988E+02  0.20321196350E+03  0.90500999438E+02 0.  0.
          5    1    1    2  502    0  0.12600737759E+03  0.85091211866E+02  0.97428239770E+02  0.18064530287E+03  0.47000000000E+01 0. -1.
         -5    1    1    2    0  502  0.16322279675E+02  0.21814457486E+02 -0.35978312972E+02  0.45374181794E+02  0.47000000000E+01 0. -1.
        -11    1    3    3    0    0 -0.81427198504E+02 -0.11210910544E+03  0.25291602464E+02  0.14084922908E+03  0.00000000000E+00 0.  1.
         11    1    3    3    0    0 -0.60902458757E+02  0.52034360875E+01  0.12366301524E+02  0.62362734410E+02  0.00000000000E+00 0. -1.
<mgrwt>
<rscale>  0 0.21290861E+03</rscale>
<asrwt>0</asrwt>
<pdfrwt beam="2">  1        1 0.25394124E-01 0.21750566E+03</pdfrwt>
<pdfrwt beam="1">  1       -1 0.40641483E-01 0.21750566E+03</pdfrwt>
<totfact> 0.11215054E+03</totfact>
</mgrwt>
</event>
<event>
 7    1  0.1446636E-005  0.1739363E+03  0.7546771E-02  0.1179786E+00
          2   -1    0    0  501    0  0.00000000000E+00  0.00000000000E+00  0.87246887789E+03  0.87246887789E+03  0.00000000000E+00 0. -1.
         -2   -1    0    0    0  501 -0.00000000000E+00 -0.00000000000E+00 -0.63109574959E+02  0.63109574959E+02  0.00000000000E+00 0.  1.
         23    2    1    2    0    0 -0.92499444524E+02 -0.77921533020E+02  0.72776316109E+03  0.74345412135E+03  0.91961401567E+02 0.  0.
          5    1    1    2  502    0 -0.17408447021E+02  0.17993417961E+01 -0.17847574002E+02  0.25434574035E+02  0.47000000000E+01 0.  1.
         -5    1    1    2    0  502  0.10990789154E+03  0.76122191224E+02  0.99443715847E+02  0.16668975746E+03  0.47000000000E+01 0.  1.
        -11    1    3    3    0    0 -0.80543999807E+02 -0.80042304881E+01  0.39860938002E+03  0.40674419658E+03  0.00000000000E+00 0. -1.
         11    1    3    3    0    0 -0.11955444718E+02 -0.69917302532E+02  0.32915378107E+03  0.33670992478E+03  0.00000000000E+00 0.  1.
<mgrwt>
<rscale>  0 0.16815447E+03</rscale>
<asrwt>0</asrwt>
<pdfrwt beam="1">  1        2 0.13422597E+00 0.17393628E+03</pdfrwt>
<pdfrwt beam="2">  1       -2 0.97091660E-02 0.17393628E+03</pdfrwt>
<totfact> 0.21875187E+03</totfact>
</mgrwt>
</event>
<event>
 6    1  0.1446636E-005  0.1518687E+03  0.7546771E-02  0.1221551E+00
          1   -1    0    0  501    0  0.00000000000E+00  0.00000000000E+00  0.23973308368E+03  0.23973308368E+03  0.00000000000E+00 0. -1.
         -1   -1    0    0    0  501 -0.00000000000E+00 -0.00000000000E+00 -0.67333372813E+02  0.67333372813E+02  0.00000000000E+00 0.  1.
          5    1    1    2  502    0 -0.22335581354E+02  0.51116407322E+02 -0.19062942013E+01  0.56013295293E+02  0.47000000000E+01 0. -1.
         -5    1    1    2    0  502  0.86105285155E+02  0.69601519401E+01  0.66053186461E+02  0.10884703619E+03  0.47000000000E+01 0. -1.
        -11    1    1    2    0    0 -0.26762384085E+02 -0.62587384209E+01  0.42996829987E+02  0.51030622155E+02  0.00000000000E+00 0.  1.
         11    1    1    2    0    0 -0.37007319715E+02 -0.51817820841E+02  0.65255988616E+02  0.91175502848E+02  0.00000000000E+00 0. -1.
<mgrwt>
<rscale>  0 0.13406134E+03</rscale>
<asrwt>0</asrwt>
<pdfrwt beam="1">  1        1 0.36882012E-01 0.15186871E+03</pdfrwt>
<pdfrwt beam="2">  1       -1 0.10358981E-01 0.15186871E+03</pdfrwt>
<totfact> 0.64461742E+03</totfact>
</mgrwt>
</event>
<event>
 7    1  0.1446636E-005  0.1280008E+03  0.7546771E-02  0.1245538E+00
          1   -1    0    0  501    0  0.00000000000E+00  0.00000000000E+00  0.93303405906E+03  0.93303405906E+03  0.00000000000E+00 0. -1.
         -1   -1    0    0    0  501 -0.00000000000E+00 -0.00000000000E+00 -0.13235385520E+02  0.13235385520E+02  0.00000000000E+00 0.  1.
         23    2    1    2    0    0 -0.54555452370E+01  0.27021116084E+02  0.40553904957E+03  0.41631929254E+03  0.89999605148E+02 0.  0.
          5    1    1    2  502    0  0.37345777450E+02 -0.46356339845E+02  0.12134582966E+03  0.13524244050E+03  0.47000000000E+01 0. -1.
         -5    1    1    2    0  502 -0.31890232213E+02  0.19335223760E+02  0.39291379431E+03  0.39470771153E+03  0.47000000000E+01 0. -1.
        -11    1    3    3    0    0 -0.44776221128E+02  0.29868987669E+02  0.26154330673E+03  0.26702428298E+03  0.00000000000E+00 0. -1.
         11    1    3    3    0    0  0.39320675891E+02 -0.28478715853E+01  0.14399574284E+03  0.14929500956E+03  0.00000000000E+00 0.  1.
<mgrwt>
<rscale>  0 0.11853257E+03</rscale>
<asrwt>0</asrwt>
<pdfrwt beam="1">  1        1 0.14354365E+00 0.12800079E+03</pdfrwt>
<pdfrwt beam="2">  1       -1 0.20362139E-02 0.12800079E+03</pdfrwt>
<totfact> 0.11502944E+04</totfact>
</mgrwt>
</event>
<event>
 7    1  0.1446636E-005  0.1405639E+03  0.7546771E-02  0.1223511E+00
          1   -1    0    0  501    0  0.00000000000E+00  0.00000000000E+00  0.30463409984E+03  0.30463409984E+03  0.00000000000E+00 0. -1.
         -1   -1    0    0    0  501 -0.00000000000E+00 -0.00000000000E+00 -0.64245319218E+02  0.64245319218E+02  0.00000000000E+00 0.  1.
         23    2    1    2    0    0  0.58554111766E+02 -0.26516022000E+02  0.18843727656E+03  0.21902222268E+03  0.91271262748E+02 0.  0.
          5    1    1    2  502    0  0.14362338470E+02 -0.31479561752E+02  0.44085856306E+02  0.56239597266E+02  0.47000000000E+01 0.  1.
         -5    1    1    2    0  502 -0.72916450236E+02  0.57995583752E+02  0.78656477647E+01  0.93617599118E+02  0.47000000000E+01 0.  1.
        -11    1    3    3    0    0  0.27270231436E+02  0.32077905772E+02  0.49217743093E+02  0.64769157756E+02  0.00000000000E+00 0.  1.
         11    1    3    3    0    0  0.31283880330E+02 -0.58593927772E+02  0.13921953346E+03  0.15425306492E+03  0.00000000000E+00 0. -1.
<mgrwt>
<rscale>  0 0.13269497E+03</rscale>
<asrwt>0</asrwt>
<pdfrwt beam="1">  1        1 0.46866784E-01 0.14056394E+03</pdfrwt>
<pdfrwt beam="2">  1       -1 0.98838955E-02 0.14056394E+03</pdfrwt>
<totfact> 0.51231587E+03</totfact>
</mgrwt>
</event>
<event>
 7    1  0.1446636E-005  0.1949601E+03  0.7546771E-02  0.1158661E+00
          2   -1    0    0  501    0  0.00000000000E+00  0.00000000000E+00  0.82215156219E+03  0.82215156219E+03  0.00000000000E+00 0. -1.
         -2   -1    0    0    0  501 -0.00000000000E+00 -0.00000000000E+00 -0.53144768997E+02  0.53144768997E+02  0.00000000000E+00 0.  1.
         23    2    1    2    0    0 -0.67099003115E+02  0.13372327296E+03  0.57177841775E+03  0.59797254947E+03  0.90864850014E+02 0.  0.
          5    1    1    2  502    0  0.79836770923E+02 -0.11155408822E+03  0.83501821908E+02  0.16066383803E+03  0.47000000000E+01 0.  1.
         -5    1    1    2    0  502 -0.12737767808E+02 -0.22169184740E+02  0.11372655353E+03  0.11665994368E+03  0.47000000000E+01 0.  1.
        -11    1    3    3    0    0 -0.20907240894E+02  0.10532517628E+03  0.47551294190E+03  0.48748647509E+03  0.00000000000E+00 0. -1.
         11    1    3    3    0    0 -0.46191762221E+02  0.28398096683E+02  0.96265475851E+02  0.11048607439E+03  0.00000000000E+00 0.  1.
<mgrwt>
<rscale>  0 0.18977828E+03</rscale>
<asrwt>0</asrwt>
<pdfrwt beam="1">  1        2 0.12648485E+00 0.19496012E+03</pdfrwt>
<pdfrwt beam="2">  1       -2 0.81761189E-02 0.19496012E+03</pdfrwt>
<totfact> 0.30994023E+03</totfact>
</mgrwt>
</event>
<event>
 7    1  0.1446636E-005  0.1484443E+03  0.7546771E-02  0.1212202E+00
          1   -1    0    0  501    0  0.00000000000E+00  0.00000000000E+00  0.41289786154E+02  0.41289786154E+02  0.00000000000E+00 0. -1.
         -1   -1    0    0    0  501 -0.00000000000E+00 -0.00000000000E+00 -0.44717095819E+03  0.44717095819E+03  0.00000000000E+00 0.  1.
         23    2    1    2    0    0 -0.48875406959E+02  0.63415895303E+02 -0.14598796658E+03  0.18916122985E+03  0.89772508651E+02 0.  0.
          5    1    1    2  502    0  0.26908609874E+02 -0.95031290434E+02 -0.12753551103E+03  0.16137662787E+03  0.47000000000E+01 0.  1.
         -5    1    1    2    0  502  0.21966797085E+02  0.31615395131E+02 -0.13235769442E+03  0.13792288663E+03  0.47000000000E+01 0.  1.
        -11    1    3    3    0    0 -0.58140763605E+02  0.25233922700E+01 -0.62326887842E+02  0.85272251344E+02  0.00000000000E+00 0. -1.
         11    1    3    3    0    0  0.92653566461E+01  0.60892503033E+02 -0.83661078740E+02  0.10388897851E+03  0.00000000000E+00 0.  1.
<mgrwt>
<rscale>  0 0.14084108E+03</rscale>
<asrwt>0</asrwt>
<pdfrwt beam="1">  1        1 0.63522750E-02 0.14844434E+03</pdfrwt>
<pdfrwt beam="2">  1       -1 0.68795530E-01 0.14844434E+03</pdfrwt>
<totfact> 0.25746125E+03</totfact>
</mgrwt>
</event>
<event>
 7    1  0.1446636E-005  0.1575280E+03  0.7546771E-02  0.1202034E+00
          2   -1    0    0  501    0  0.00000000000E+00  0.00000000000E+00  0.11427960409E+04  0.11427960409E+04  0.00000000000E+00 0. -1.
         -2   -1    0    0    0  501 -0.00000000000E+00 -0.00000000000E+00 -0.17639091754E+02  0.17639091754E+02  0.00000000000E+00 0.  1.
         23    2    1    2    0    0 -0.21038821725E+02 -0.82727548764E+02  0.55242815902E+03  0.56643737586E+03  0.91585755199E+02 0.  0.
          5    1    1    2  502    0 -0.25463900039E+02  0.16753474637E+02  0.42050107567E+03  0.42163056549E+03  0.47000000000E+01 0. -1.
         -5    1    1    2    0  502  0.46502721764E+02  0.65974074127E+02  0.15222771450E+03  0.17236719134E+03  0.47000000000E+01 0.  1.
        -11    1    3    3    0    0 -0.74590905444E+01 -0.10164016244E+03  0.44876068464E+03  0.46018747563E+03  0.00000000000E+00 0. -1.
         11    1    3    3    0    0 -0.13579731181E+02  0.18912613673E+02  0.10366747438E+03  0.10624990023E+03  0.00000000000E+00 0.  1.
<mgrwt>
<rscale>  0 0.14873640E+03</rscale>
<asrwt>0</asrwt>
<pdfrwt beam="1">  1        2 0.17581472E+00 0.15752799E+03</pdfrwt>
<pdfrwt beam="2">  1       -2 0.27137073E-02 0.15752799E+03</pdfrwt>
<totfact> 0.10335903E+04</totfact>
</mgrwt>
</event>
<event>
 7    1  0.1446636E-005  0.1267632E+03  0.7546771E-02  0.1239993E+00
         -2   -1    0    0    0  501 -0.00000000000E+00  0.00000000000E+00  0.67678381097E+02  0.67678381097E+02  0.00000000000E+00 0.  1.
          2   -1    0    0  501    0  0.00000000000E+00 -0.00000000000E+00 -0.26761865251E+03  0.26761865251E+03  0.00000000000E+00 0. -1.
         23    2    1    2    0    0 -0.25359987032E+02  0.54059954164E+02 -0.17537485341E+03  0.20617548753E+03  0.90478643128E+02 0.  0.
          5    1    1    2  502    0 -0.19298845601E+02 -0.53535066220E+01  0.34630018247E+02  0.40279444366E+02  0.47000000000E+01 0. -1.
         -5    1    1    2    0  502  0.44658832633E+02 -0.48706447542E+02 -0.59195436254E+02  0.88842101717E+02  0.47000000000E+01 0.  1.
        -11    1    3    3    0    0 -0.28934118728E+02  0.19354686993E+02 -0.86907154954E+01  0.35879181581E+02  0.00000000000E+00 0.  1.
         11    1    3    3    0    0  0.35741316957E+01  0.34705267171E+02 -0.16668413791E+03  0.17029630594E+03  0.00000000000E+00 0. -1.
<mgrwt>
<rscale>  0 0.12190145E+03</rscale>
<asrwt>0</asrwt>
<pdfrwt beam="2">  1        2 0.41172101E-01 0.12676322E+03</pdfrwt>
<pdfrwt beam="1">  1       -2 0.10412059E-01 0.12676322E+03</pdfrwt>
<totfact> 0.72879905E+03</totfact>
</mgrwt>
</event>
<event>
 7    1  0.1446636E-005  0.1571596E+03  0.7546771E-02  0.1200537E+00
         -2   -1    0    0    0  501 -0.00000000000E+00  0.00000000000E+00  0.36405995060E+02  0.36405995060E+02  0.00000000000E+00 0.  1.
          2   -1    0    0  501    0  0.00000000000E+00 -0.00000000000E+00 -0.61154534598E+03  0.61154534598E+03  0.00000000000E+00 0. -1.
         23    2    1    2    0    0 -0.90224360315E+02 -0.30562248828E+02 -0.34947074999E+03  0.37295052726E+03  0.88813312270E+02 0.  0.
          5    1    1    2  502    0  0.29027154688E+02 -0.93617056767E+01 -0.19190695717E+03  0.19437229086E+03  0.47000000000E+01 0.  1.
         -5    1    1    2    0  502  0.61197205627E+02  0.39923954505E+02 -0.33761643761E+02  0.80628522926E+02  0.47000000000E+01 0.  1.
        -11    1    3    3    0    0  0.71434655595E+00 -0.99834320699E+01  0.12142689120E+01  0.10082343770E+02  0.00000000000E+00 0.  1.
         11    1    3    3    0    0 -0.90938706871E+02 -0.20578816758E+02 -0.35068501890E+03  0.36286818349E+03  0.00000000000E+00 0. -1.
<mgrwt>
<rscale>  0 0.14994818E+03</rscale>
<asrwt>0</asrwt>
<pdfrwt beam="2">  1        2 0.94083889E-01 0.15715957E+03</pdfrwt>
<pdfrwt beam="1">  1       -2 0.56009229E-02 0.15715957E+03</pdfrwt>
<totfact> 0.78563011E+03</totfact>
</mgrwt>
</event>
<event>
 7    1  0.1446636E-005  0.2241143E+03  0.7546771E-02  0.1133356E+00
          2   -1    0    0  501    0  0.00000000000E+00  0.00000000000E+00  0.59917357018E+03  0.59917357018E+03  0.00000000000E+00 0. -1.
         -2   -1    0    0    0  501 -0.00000000000E+00 -0.00000000000E+00 -0.11193464032E+03  0.11193464032E+03  0.00000000000E+00 0.  1.
         23    2    1    2    0    0  0.15807863968E+03 -0.98052343065E+02  0.43139040041E+03  0.48014006248E+03  0.99164931953E+02 0.  0.
          5    1    1    2  502    0 -0.13191368060E+03  0.10276602560E+03  0.87971973893E+02  0.18900590821E+03  0.47000000000E+01 0.  1.
         -5    1    1    2    0  502 -0.26164959081E+02 -0.47136825351E+01 -0.32123444449E+02  0.41962239812E+02  0.47000000000E+01 0.  1.
        -11    1    3    3    0    0  0.12185987927E+03 -0.69811435872E+02  0.20091565650E+03  0.24513377528E+03  0.00000000000E+00 0.  1.
         11    1    3    3    0    0  0.36218760409E+02 -0.28240907193E+02  0.23047474391E+03  0.23500628721E+03  0.00000000000E+00 0. -1.
<mgrwt>
<rscale>  0 0.22070900E+03</rscale>
<asrwt>0</asrwt>
<pdfrwt beam="1">  1        2 0.92180547E-01 0.22411432E+03</pdfrwt>
<pdfrwt beam="2">  1       -2 0.17220714E-01 0.22411432E+03</pdfrwt>
<totfact> 0.13699781E+03</totfact>
</mgrwt>
</event>
<event>
 7    1  0.1446636E-005  0.1467660E+03  0.7546771E-02  0.1214022E+00
         -2   -1    0    0    0  501 -0.00000000000E+00  0.00000000000E+00  0.18525316615E+02  0.18525316615E+02  0.00000000000E+00 0.  1.
          2   -1    0    0  501    0  0.00000000000E+00 -0.00000000000E+00 -0.98246374995E+03  0.98246374995E+03  0.00000000000E+00 0. -1.
         23    2    1    2    0    0  0.66506298729E+02 -0.38617888497E+02 -0.35654399965E+03  0.37611447581E+03  0.91782602631E+02 0.  0.
          5    1    1    2  502    0 -0.43490451311E+02 -0.42480504889E+02 -0.29746467155E+03  0.30365001806E+03  0.47000000000E+01 0. -1.
         -5    1    1    2    0  502 -0.23015847418E+02  0.81098393386E+02 -0.30992976215E+03  0.32122457270E+03  0.47000000000E+01 0. -1.
        -11    1    3    3    0    0  0.31023258545E+02 -0.66008582739E+02 -0.25255759941E+03  0.26287814019E+03  0.00000000000E+00 0.  1.
         11    1    3    3    0    0  0.35483040184E+02  0.27390694242E+02 -0.10398640023E+03  0.11323633562E+03  0.00000000000E+00 0. -1.
<mgrwt>
<rscale>  0 0.13948643E+03</rscale>
<asrwt>0</asrwt>
<pdfrwt beam="2">  1        2 0.15114834E+00 0.14676599E+03</pdfrwt>
<pdfrwt beam="1">  1       -2 0.28500475E-02 0.14676599E+03</pdfrwt>
<totfact> 0.11888302E+04</totfact>
</mgrwt>
</event>
<event>
 7    1  0.1446636E-005  0.1414087E+03  0.7546771E-02  0.1223884E+00
         -1   -1    0    0    0  501 -0.00000000000E+00  0.00000000000E+00  0.11554016872E+03  0.11554016872E+03  0.00000000000E+00 0.  1.
          1   -1    0    0  501    0  0.00000000000E+00 -0.00000000000E+00 -0.14036222049E+03  0.14036222049E+03  0.00000000000E+00 0. -1.
         23    2    1    2    0    0 -0.49028765750E+02  0.44316307148E+02 -0.34578955148E+02  0.11415747204E+03  0.86420306260E+02 0.  0.
          5    1    1    2  502    0 -0.28466740497E+01 -0.68256476237E+02 -0.27042763367E+02  0.73623713245E+02  0.47000000000E+01 0. -1.
         -5    1    1    2    0  502  0.51875439800E+02  0.23940169089E+02  0.36799666754E+02  0.68121203921E+02  0.47000000000E+01 0. -1.
        -11    1    3    3    0    0  0.14746009243E+02  0.10606740060E+02  0.17471749278E+02  0.25203367754E+02  0.00000000000E+00 0.  1.
         11    1    3    3    0    0 -0.63774774993E+02  0.33709567089E+02 -0.52050704426E+02  0.88954104290E+02  0.00000000000E+00 0. -1.
<mgrwt>
<rscale>  0 0.13243683E+03</rscale>
<asrwt>0</asrwt>
<pdfrwt beam="2">  1        1 0.21594188E-01 0.14140871E+03</pdfrwt>
<pdfrwt beam="1">  1       -1 0.17775411E-01 0.14140871E+03</pdfrwt>
<totfact> 0.54016338E+03</totfact>
</mgrwt>
</event>
<event>
 7    1  0.1446636E-005  0.1310264E+03  0.7546771E-02  0.1239444E+00
          2   -1    0    0  501    0  0.00000000000E+00  0.00000000000E+00  0.43181639705E+02  0.43181639705E+02  0.00000000000E+00 0. -1.
         -2   -1    0    0    0  501 -0.00000000000E+00 -0.00000000000E+00 -0.30969281840E+03  0.30969281840E+03  0.00000000000E+00 0.  1.
         23    2    1    2    0    0  0.16164567174E+02  0.35747521835E+02 -0.98875093285E+02  0.14010753901E+03  0.91184756761E+02 0.  0.
          5    1    1    2  502    0 -0.45321327290E+02  0.17249027624E+02 -0.19121538482E+02  0.52338082648E+02  0.47000000000E+01 0. -1.
         -5    1    1    2    0  502  0.29156760117E+02 -0.52996549459E+02 -0.14851454693E+03  0.16042883645E+03  0.47000000000E+01 0. -1.
        -11    1    3    3    0    0 -0.35885702992E+02  0.29393488323E+02 -0.39841297460E+02  0.61148097422E+02  0.00000000000E+00 0.  1.
         11    1    3    3    0    0  0.52050270165E+02  0.63540335120E+01 -0.59033795824E+02  0.78959441586E+02  0.00000000000E+00 0. -1.
<mgrwt>
<rscale>  0 0.12224178E+03</rscale>
<asrwt>0</asrwt>
<pdfrwt beam="1">  1        2 0.66433291E-02 0.13102635E+03</pdfrwt>
<pdfrwt beam="2">  1       -2 0.47645050E-01 0.13102635E+03</pdfrwt>
<totfact> 0.43414754E+03</totfact>
</mgrwt>
</event>
<event>
 7    1  0.1912403E-005  0.1668307E+03  0.7546771E-02  0.1187736E+00
          2   -1    0    0  501    0  0.00000000000E+00  0.00000000000E+00  0.19070495927E+03  0.19070495927E+03  0.00000000000E+00 0.  1.
         -2   -1    0    0    0  501 -0.00000000000E+00 -0.00000000000E+00 -0.13727873578E+03  0.13727873578E+03  0.00000000000E+00 0. -1.
         23    2    1    2    0    0 -0.92805652740E+02 -0.59956951994E+02  0.70107533408E+02  0.16032113665E+03  0.92628696109E+02 0.  0.
          5    1    1    2  502    0  0.76555076075E+02  0.60629281560E+02 -0.64371055354E+02  0.11705687602E+03  0.47000000000E+01 0. -1.
         -5    1    1    2    0  502  0.16250576665E+02 -0.67232956601E+00  0.47689745443E+02  0.50605682383E+02  0.47000000000E+01 0. -1.
        -11    1    3    3    0    0 -0.10347052332E+03 -0.25250909935E+02  0.61571165327E+02  0.12302343699E+03  0.00000000000E+00 0.  1.
         11    1    3    3    0    0  0.10664870581E+02 -0.34706042059E+02  0.85363680818E+01  0.37297699660E+02  0.00000000000E+00 0. -1.
<mgrwt>
<rscale>  0 0.16085441E+03</rscale>
<asrwt>0</asrwt>
<pdfrwt beam="1">  1        2 0.29339225E-01 0.16683065E+03</pdfrwt>
<pdfrwt beam="2">  1       -2 0.21119805E-01 0.16683065E+03</pdfrwt>
<totfact> 0.33480954E+03</totfact>
</mgrwt>
</event>
<event>
 7    1  0.1446636E-005  0.1257731E+03  0.7546771E-02  0.1248084E+00
          1   -1    0    0  501    0  0.00000000000E+00  0.00000000000E+00  0.23744809156E+03  0.23744809156E+03  0.00000000000E+00 0. -1.
         -1   -1    0    0    0  501 -0.00000000000E+00 -0.00000000000E+00 -0.51009398913E+02  0.51009398913E+02  0.00000000000E+00 0.  1.
         23    2    1    2    0    0 -0.50901172173E+01  0.12892528004E+02  0.83354498799E+02  0.12583765157E+03  0.93247067041E+02 0.  0.
          5    1    1    2  502    0 -0.23166550952E+02 -0.14729526070E+02 -0.21238955196E+02  0.35026150789E+02  0.47000000000E+01 0. -1.
         -5    1    1    2    0  502  0.28256668169E+02  0.18369980662E+01  0.12432314904E+03  0.12759368811E+03  0.47000000000E+01 0. -1.
        -11    1    3    3    0    0 -0.45139230137E+02 -0.51965446583E+01  0.62300390784E+02  0.77109615909E+02  0.00000000000E+00 0. -1.
         11    1    3    3    0    0  0.40049112919E+02  0.18089072662E+02  0.21054108014E+02  0.48728035664E+02  0.00000000000E+00 0.  1.
<mgrwt>
<rscale>  0 0.11702697E+03</rscale>
<asrwt>0</asrwt>
<pdfrwt beam="1">  1        1 0.36530475E-01 0.12577305E+03</pdfrwt>
<pdfrwt beam="2">  1       -1 0.78476000E-02 0.12577305E+03</pdfrwt>
<totfact> 0.98122024E+03</totfact>
</mgrwt>
</event>
<event>
 7    1  0.1446636E-005  0.1502275E+03  0.7546771E-02  0.1209630E+00
          3   -1    0    0  501    0  0.00000000000E+00  0.00000000000E+00  0.12890810435E+03  0.12890810435E+03  0.00000000000E+00 0. -1.
         -3   -1    0    0    0  501 -0.00000000000E+00 -0.00000000000E+00 -0.14826925676E+03  0.14826925676E+03  0.00000000000E+00 0.  1.
         23    2    1    2    0    0  0.31167794305E+02 -0.77273921906E+02  0.13682604871E+02  0.12335863195E+03  0.89930239587E+02 0.  0.
          5    1    1    2  502    0 -0.44820087083E+02  0.10617847621E+03 -0.13691163839E+02  0.11615613193E+03  0.47000000000E+01 0.  1.
         -5    1    1    2    0  502  0.13652292779E+02 -0.28904554308E+02 -0.19352593438E+02  0.37662597237E+02  0.47000000000E+01 0.  1.
        -11    1    3    3    0    0  0.13355005534E+02  0.19763356892E+02  0.45021843812E+01  0.24273774174E+02  0.00000000000E+00 0.  1.
         11    1    3    3    0    0  0.17812788770E+02 -0.97037278797E+02  0.91804204900E+01  0.99084857776E+02  0.00000000000E+00 0. -1.
<mgrwt>
<rscale>  0 0.14278498E+03</rscale>
<asrwt>0</asrwt>
<pdfrwt beam="1">  1        3 0.19832016E-01 0.15022753E+03</pdfrwt>
<pdfrwt beam="2">  1       -3 0.22810655E-01 0.15022753E+03</pdfrwt>
<totfact> 0.94680778E+02</totfact>
</mgrwt>
</event>
<event>
 7    1  0.1446636E-005  0.1325069E+03  0.7546771E-02  0.1250774E+00
          1   -1    0    0  501    0  0.00000000000E+00  0.00000000000E+00  0.27124514936E+03  0.27124514936E+03  0.00000000000E+00 0. -1.
         -1   -1    0    0    0  501 -0.00000000000E+00 -0.00000000000E+00 -0.42380747800E+02  0.42380747800E+02  0.00000000000E+00 0.  1.
         23    2    1    2    0    0  0.33206120912E+02  0.28828703070E+02  0.11942156114E+03  0.14176602235E+03  0.62468834169E+02 0.  0.
          5    1    1    2  502    0 -0.73077934178E+02 -0.16531569799E+02  0.10577942745E+03  0.12971142793E+03  0.47000000000E+01 0. -1.
         -5    1    1    2    0  502  0.39871813267E+02 -0.12297133271E+02  0.36634129743E+01  0.42148446881E+02  0.47000000000E+01 0. -1.
        -11    1    3    3    0    0  0.12192398593E+02  0.39376879254E+02  0.10805395081E+03  0.11564968434E+03  0.00000000000E+00 0. -1.
         11    1    3    3    0    0  0.21013722318E+02 -0.10548176184E+02  0.11367610331E+02  0.26116338011E+02  0.00000000000E+00 0.  1.
<mgrwt>
<rscale>  0 0.11546336E+03</rscale>
<asrwt>0</asrwt>
<pdfrwt beam="1">  1        1 0.41730022E-01 0.13250691E+03</pdfrwt>
<pdfrwt beam="2">  1       -1 0.65201152E-02 0.13250691E+03</pdfrwt>
<totfact> 0.11037804E+04</totfact>
</mgrwt>
</event>
<event>
 7    1  0.1446636E-005  0.1349439E+03  0.7546771E-02  0.1232189E+00
         -1   -1    0    0    0  501 -0.00000000000E+00  0.00000000000E+00  0.15324083153E+03  0.15324083153E+03  0.00000000000E+00 0.  1.
          1   -1    0    0  501    0  0.00000000000E+00 -0.00000000000E+00 -0.96219935563E+02  0.96219935563E+02  0.00000000000E+00 0. -1.
         23    2    1    2    0    0 -0.35772702476E+02 -0.36114547076E+02  0.73291199282E+01  0.10565840029E+03  0.92336530148E+02 0.  0.
          5    1    1    2  502    0  0.28752428834E+02  0.13358649404E+02 -0.39786419367E+02  0.51090163865E+02  0.47000000000E+01 0.  1.
         -5    1    1    2    0  502  0.70202736419E+01  0.22755897672E+02  0.89478195401E+02  0.92712202935E+02  0.47000000000E+01 0.  1.
        -11    1    3    3    0    0 -0.28029572283E+02  0.17715003857E+02  0.31872756258E+02  0.45992943758E+02  0.00000000000E+00 0.  1.
         11    1    3    3    0    0 -0.77431301922E+01 -0.53829550933E+02 -0.24543636329E+02  0.59665456531E+02  0.00000000000E+00 0. -1.
<mgrwt>
<rscale>  0 0.12686127E+03</rscale>
<asrwt>0</asrwt>
<pdfrwt beam="2">  1        1 0.14803067E-01 0.13494387E+03</pdfrwt>
<pdfrwt beam="1">  1       -1 0.23575513E-01 0.13494387E+03</pdfrwt>
<totfact> 0.55435252E+03</totfact>
</mgrwt>
</event>
<event>
 7    1  0.1446636E-005  0.1818922E+03  0.7546771E-02  0.1171138E+00
          2   -1    0    0  501    0  0.00000000000E+00  0.00000000000E+00  0.68127453179E+03  0.68127453179E+03  0.00000000000E+00 0.  1.
         -2   -1    0    0    0  501 -0.00000000000E+00 -0.00000000000E+00 -0.43301101953E+02  0.43301101953E+02  0.00000000000E+00 0. -1.
         23    2    1    2    0    0  0.21718417934E+02 -0.13033821258E+03  0.30070081296E+03  0.34138171018E+03  0.93063170987E+02 0.  0.
          5    1    1    2  502    0  0.32370904360E+02  0.39579724382E+01  0.23128188932E+02  0.40255982390E+02  0.47000000000E+01 0. -1.
         -5    1    1    2    0  502 -0.54089322294E+02  0.12638024015E+03  0.31414442794E+03  0.34293794117E+03  0.47000000000E+01 0. -1.
        -11    1    3    3    0    0  0.34891834488E+02 -0.55662893282E+02  0.22436392424E+03  0.23378402064E+03  0.00000000000E+00 0.  1.
         11    1    3    3    0    0 -0.13173416554E+02 -0.74675319303E+02  0.76336888717E+02  0.10759768955E+03  0.00000000000E+00 0. -1.
<mgrwt>
<rscale>  0 0.17659695E+03</rscale>
<asrwt>0</asrwt>
<pdfrwt beam="1">  1        2 0.10481146E+00 0.18189218E+03</pdfrwt>
<pdfrwt beam="2">  1       -2 0.66617085E-02 0.18189218E+03</pdfrwt>
<totfact> 0.53518044E+03</totfact>
</mgrwt>
</event>
<event>
 7    1  0.1446636E-005  0.1719055E+03  0.7546771E-02  0.1182451E+00
         -2   -1    0    0    0  501 -0.00000000000E+00  0.00000000000E+00  0.22992132727E+02  0.22992132727E+02  0.00000000000E+00 0.  1.
          2   -1    0    0  501    0  0.00000000000E+00 -0.00000000000E+00 -0.12118975722E+04  0.12118975722E+04  0.00000000000E+00 0. -1.
         23    2    1    2    0    0  0.72394251185E+02 -0.93222481556E+02 -0.72865408271E+03  0.74358244209E+03  0.89703496381E+02 0.  0.
          5    1    1    2  502    0 -0.48493807022E+02  0.87384888815E+02 -0.45479779940E+03  0.46567252061E+03  0.47000000000E+01 0. -1.
         -5    1    1    2    0  502 -0.23900444162E+02  0.58375927413E+01 -0.54535573406E+01  0.25634742203E+02  0.47000000000E+01 0. -1.
        -11    1    3    3    0    0 -0.14741925600E+02 -0.14257918012E+02 -0.39903065303E+02  0.44864988766E+02  0.00000000000E+00 0.  1.
         11    1    3    3    0    0  0.87136176784E+02 -0.78964563544E+02 -0.68875101741E+03  0.69871745333E+03  0.00000000000E+00 0. -1.
<mgrwt>
<rscale>  0 0.16565941E+03</rscale>
<asrwt>0</asrwt>
<pdfrwt beam="2">  1        2 0.18644578E+00 0.17190554E+03</pdfrwt>
<pdfrwt beam="1">  1       -2 0.35372513E-02 0.17190554E+03</pdfrwt>
<totfact> 0.64101480E+03</totfact>
</mgrwt>
</event>
<event>
 7    1  0.1446636E-005  0.1432545E+03  0.7546771E-02  0.1218973E+00
          1   -1    0    0  501    0  0.00000000000E+00  0.00000000000E+00  0.47114449635E+02  0.47114449635E+02  0.00000000000E+00 0. -1.
         -1   -1    0    0    0  501 -0.00000000000E+00 -0.00000000000E+00 -0.45125425801E+03  0.45125425801E+03  0.00000000000E+00 0.  1.
         23    2    1    2    0    0 -0.26564685120E+01 -0.69931432873E+02 -0.71643780126E+02  0.13632527134E+03  0.92489384514E+02 0.  0.
          5    1    1    2  502    0 -0.56799929430E+02  0.17684558981E+02 -0.10061194654E+03  0.11697790132E+03  0.47000000000E+01 0.  1.
         -5    1    1    2    0  502  0.59456397942E+02  0.52246873893E+02 -0.23188408170E+03  0.24506553498E+03  0.47000000000E+01 0.  1.
        -11    1    3    3    0    0 -0.10997026347E+02 -0.87669498099E+02 -0.35525307169E+02  0.95230892755E+02  0.00000000000E+00 0. -1.
         11    1    3    3    0    0  0.83405578345E+01  0.17738065226E+02 -0.36118472957E+02  0.41094378590E+02  0.00000000000E+00 0.  1.
<mgrwt>
<rscale>  0 0.13588717E+03</rscale>
<asrwt>0</asrwt>
<pdfrwt beam="1">  1        1 0.72483770E-02 0.14325446E+03</pdfrwt>
<pdfrwt beam="2">  1       -1 0.69423731E-01 0.14325446E+03</pdfrwt>
<totfact> 0.21116476E+03</totfact>
</mgrwt>
</event>
<event>
 7    1  0.1446636E-005  0.2221536E+03  0.7546771E-02  0.1132288E+00
          1   -1    0    0  501    0  0.00000000000E+00  0.00000000000E+00  0.32809871956E+02  0.32809871956E+02  0.00000000000E+00 0. -1.
         -1   -1    0    0    0  501 -0.00000000000E+00 -0.00000000000E+00 -0.37604697519E+03  0.37604697519E+03  0.00000000000E+00 0.  1.
         23    2    1    2    0    0  0.26145951487E+02  0.10833644089E+00 -0.15021843669E+03  0.17741624146E+03  0.90704583659E+02 0.  0.
          5    1    1    2  502    0  0.40119606912E+02 -0.31732784437E+02 -0.56517440969E+02  0.76373186398E+02  0.47000000000E+01 0. -1.
         -5    1    1    2    0  502 -0.66265558399E+02  0.31624447996E+02 -0.13650122558E+03  0.15506741929E+03  0.47000000000E+01 0. -1.
        -11    1    3    3    0    0 -0.10063992113E+02 -0.17011612175E+02  0.21399177405E+01  0.19881099919E+02  0.00000000000E+00 0. -1.
         11    1    3    3    0    0  0.36209943600E+02  0.17119948616E+02 -0.15235835443E+03  0.15753514154E+03  0.00000000000E+00 0.  1.
<mgrwt>
<rscale>  0 0.22215358E+03</rscale>
<asrwt>0</asrwt>
<pdfrwt beam="1">  1        1 0.50476725E-02 0.22215358E+03</pdfrwt>
<pdfrwt beam="2">  1       -1 0.57853383E-01 0.22215358E+03</pdfrwt>
<totfact> 0.50430934E+03</totfact>
</mgrwt>
</event>
<event>
 7    1  0.1446636E-005  0.1373498E+03  0.7546771E-02  0.1228320E+00
          3   -1    0    0  501    0  0.00000000000E+00  0.00000000000E+00  0.12167272331E+03  0.12167272331E+03  0.00000000000E+00 0. -1.
         -3   -1    0    0    0  501 -0.00000000000E+00 -0.00000000000E+00 -0.12755917185E+03  0.12755917185E+03  0.00000000000E+00 0.  1.
         23    2    1    2    0    0  0.17952450987E+01 -0.56918608248E+02  0.18189195428E+02  0.10978795198E+03  0.92084725660E+02 0.  0.
          5    1    1    2  502    0 -0.32742350154E+02 -0.11841678390E+01 -0.56828990688E+02  0.65765400704E+02  0.47000000000E+01 0. -1.
         -5    1    1    2    0  502  0.30947105056E+02  0.58102776087E+02  0.32753346721E+02  0.73678542478E+02  0.47000000000E+01 0. -1.
        -11    1    3    3    0    0 -0.23537965986E+02  0.14797879000E+02 -0.86729582847E+01  0.29124444562E+02  0.00000000000E+00 0. -1.
         11    1    3    3    0    0  0.25333211084E+02 -0.71716487248E+02  0.26862153712E+02  0.80663507418E+02  0.00000000000E+00 0.  1.
<mgrwt>
<rscale>  0 0.12941924E+03</rscale>
<asrwt>0</asrwt>
<pdfrwt beam="1">  1        3 0.18718881E-01 0.13734983E+03</pdfrwt>
<pdfrwt beam="2">  1       -3 0.19624488E-01 0.13734983E+03</pdfrwt>
<totfact> 0.13494430E+03</totfact>
</mgrwt>
</event>
<event>
 7    1  0.1446636E-005  0.1660313E+03  0.7546771E-02  0.1187876E+00
          1   -1    0    0  501    0  0.00000000000E+00  0.00000000000E+00  0.61740211934E+02  0.61740211934E+02  0.00000000000E+00 0. -1.
         -1   -1    0    0    0  501 -0.00000000000E+00 -0.00000000000E+00 -0.41621708324E+03  0.41621708324E+03  0.00000000000E+00 0.  1.
         23    2    1    2    0    0 -0.93643166373E+02  0.56337696768E+02 -0.11100205875E+03  0.18326022888E+03  0.96539503595E+02 0.  0.
          5    1    1    2  502    0  0.38152979285E+02 -0.51756425591E+02 -0.22767812927E+03  0.23663008677E+03  0.47000000000E+01 0. -1.
         -5    1    1    2    0  502  0.55490187088E+02 -0.45812711770E+01 -0.15796683283E+02  0.58066979528E+02  0.47000000000E+01 0. -1.
        -11    1    3    3    0    0 -0.83913065008E+02  0.19630372987E+01 -0.92734221102E+02  0.12507954172E+03  0.00000000000E+00 0.  1.
         11    1    3    3    0    0 -0.97301013654E+01  0.54374659470E+02 -0.18267837652E+02  0.58180687152E+02  0.00000000000E+00 0. -1.
<mgrwt>
<rscale>  0 0.16072931E+03</rscale>
<asrwt>0</asrwt>
<pdfrwt beam="1">  1        1 0.94984942E-02 0.16603125E+03</pdfrwt>
<pdfrwt beam="2">  1       -1 0.64033397E-01 0.16603125E+03</pdfrwt>
<totfact> 0.17301191E+03</totfact>
</mgrwt>
</event>
<event>
 7    1  0.1446636E-005  0.1976015E+03  0.7546771E-02  0.1156157E+00
         -2   -1    0    0    0  501 -0.00000000000E+00  0.00000000000E+00  0.47420523516E+02  0.47420523516E+02  0.00000000000E+00 0.  1.
          2   -1    0    0  501    0  0.00000000000E+00 -0.00000000000E+00 -0.75052624417E+03  0.75052624417E+03  0.00000000000E+00 0. -1.
         23    2    1    2    0    0  0.15154855918E+03 -0.21322948293E+02 -0.29873823954E+03  0.34788076269E+03  0.91404898004E+02 0.  0.
          5    1    1    2  502    0 -0.87612264958E+02  0.53459942760E+02 -0.12584242067E+03  0.16245700751E+03  0.47000000000E+01 0. -1.
         -5    1    1    2    0  502 -0.63936294218E+02 -0.32136994467E+02 -0.27852506045E+03  0.28760899748E+03  0.47000000000E+01 0. -1.
        -11    1    3    3    0    0  0.50552881339E+02  0.36063076804E+02 -0.10467698056E+03  0.12171035116E+03  0.00000000000E+00 0.  1.
         11    1    3    3    0    0  0.10099567784E+03 -0.57386025097E+02 -0.19406125898E+03  0.22617041154E+03  0.00000000000E+00 0. -1.
<mgrwt>
<rscale>  0 0.19257766E+03</rscale>
<asrwt>0</asrwt>
<pdfrwt beam="2">  1        2 0.11546556E+00 0.19760149E+03</pdfrwt>
<pdfrwt beam="1">  1       -2 0.72954659E-02 0.19760149E+03</pdfrwt>
<totfact> 0.41497380E+03</totfact>
</mgrwt>
</event>
<event>
 7    1  0.1446636E-005  0.1520867E+03  0.7546771E-02  0.1206280E+00
          1   -1    0    0  501    0  0.00000000000E+00  0.00000000000E+00  0.19219637552E+03  0.19219637552E+03  0.00000000000E+00 0. -1.
         -1   -1    0    0    0  501 -0.00000000000E+00 -0.00000000000E+00 -0.11028279491E+03  0.11028279491E+03  0.00000000000E+00 0.  1.
         23    2    1    2    0    0  0.33174997959E+02 -0.80022059352E+02  0.80622940927E+02  0.15038701170E+03  0.92801315794E+02 0.  0.
          5    1    1    2  502    0 -0.53215966745E+02  0.98529757730E+02  0.25920914645E+02  0.11503928064E+03  0.47000000000E+01 0. -1.
         -5    1    1    2    0  502  0.20040968786E+02 -0.18507698378E+02 -0.24630274964E+02  0.37052878079E+02  0.47000000000E+01 0. -1.
        -11    1    3    3    0    0  0.35975719163E+02 -0.26467520399E+02 -0.93622095680E+01  0.45633682443E+02  0.00000000000E+00 0.  1.
         11    1    3    3    0    0 -0.28007212036E+01 -0.53554538953E+02  0.89985150495E+02  0.10475332926E+03  0.00000000000E+00 0. -1.
<mgrwt>
<rscale>  0 0.14537047E+03</rscale>
<asrwt>0</asrwt>
<pdfrwt beam="1">  1        1 0.29568673E-01 0.15208668E+03</pdfrwt>
<pdfrwt beam="2">  1       -1 0.16966584E-01 0.15208668E+03</pdfrwt>
<totfact> 0.39341243E+03</totfact>
</mgrwt>
</event>
<event>
 7    1  0.1446636E-005  0.2043321E+03  0.7546771E-02  0.1150304E+00
         -2   -1    0    0    0  501 -0.00000000000E+00  0.00000000000E+00  0.44743121465E+02  0.44743121465E+02  0.00000000000E+00 0.  1.
          2   -1    0    0  501    0  0.00000000000E+00 -0.00000000000E+00 -0.90187425503E+03  0.90187425503E+03  0.00000000000E+00 0. -1.
         23    2    1    2    0    0 -0.58141687377E+01  0.16153253641E+03 -0.52505615565E+03  0.55671304101E+03  0.90104819923E+02 0.  0.
          5    1    1    2  502    0  0.35596835701E+02 -0.12131433882E+03 -0.31034637230E+03  0.33514364728E+03  0.47000000000E+01 0. -1.
         -5    1    1    2    0  502 -0.29782666964E+02 -0.40218197598E+02 -0.21728605613E+02  0.54760688193E+02  0.47000000000E+01 0. -1.
        -11    1    3    3    0    0  0.12386919580E+02  0.11647338073E+03 -0.23454848092E+03  0.26216878933E+03  0.00000000000E+00 0.  1.
         11    1    3    3    0    0 -0.18201088318E+02  0.45059155687E+02 -0.29050767473E+03  0.29454425169E+03  0.00000000000E+00 0. -1.
<mgrwt>
<rscale>  0 0.19933234E+03</rscale>
<asrwt>0</asrwt>
<pdfrwt beam="2">  1        2 0.13874988E+00 0.20433208E+03</pdfrwt>
<pdfrwt beam="1">  1       -2 0.68835576E-02 0.20433208E+03</pdfrwt>
<totfact> 0.35923656E+03</totfact>
</mgrwt>
</event>
<event>
 7    1  0.1446636E-005  0.1879339E+03  0.7546771E-02  0.1166766E+00
          2   -1    0    0  501    0  0.00000000000E+00  0.00000000000E+00  0.10313954347E+04  0.10313954347E+04  0.00000000000E+00 0. -1.
         -2   -1    0    0    0  501 -0.00000000000E+00 -0.00000000000E+00 -0.31248482632E+02  0.31248482632E+02  0.00000000000E+00 0.  1.
         23    2    1    2    0    0  0.12992559504E+03 -0.35776385109E+02  0.58371713619E+03  0.60577089353E+03  0.89844701555E+02 0.  0.
          5    1    1    2  502    0 -0.10917099368E+03  0.23494775416E+02  0.41757685436E+03  0.43227633480E+03  0.47000000000E+01 0. -1.
         -5    1    1    2    0  502 -0.20754601358E+02  0.12281609693E+02 -0.11470384417E+01  0.24596689032E+02  0.47000000000E+01 0.  1.
        -11    1    3    3    0    0  0.10620736062E+03 -0.60633574692E+02  0.38052550487E+03  0.39969500083E+03  0.00000000000E+00 0.  1.
         11    1    3    3    0    0  0.23718234420E+02  0.24857189583E+02  0.20319163131E+03  0.20607589271E+03  0.00000000000E+00 0. -1.
<mgrwt>
<rscale>  0 0.18107532E+03</rscale>
<asrwt>0</asrwt>
<pdfrwt beam="1">  1        2 0.15867619E+00 0.18793395E+03</pdfrwt>
<pdfrwt beam="2">  1       -2 0.48074597E-02 0.18793395E+03</pdfrwt>
<totfact> 0.51564728E+03</totfact>
</mgrwt>
</event>
<event>
 6    1  0.1446636E-005  0.3958676E+03  0.7546771E-02  0.1045220E+00
          4   -1    0    0  501    0  0.00000000000E+00  0.00000000000E+00  0.23537634517E+03  0.23537634517E+03  0.00000000000E+00 0. -1.
         -4   -1    0    0    0  501 -0.00000000000E+00 -0.00000000000E+00 -0.16644742855E+03  0.16644742855E+03  0.00000000000E+00 0.  1.
          5    1    1    2  502    0  0.56356108801E+02 -0.11906561044E+03 -0.49953635083E+02  0.14096129344E+03  0.47000000000E+01 0.  1.
         -5    1    1    2    0  502  0.14608595882E+02  0.31359214519E+02 -0.85497699973E+00  0.34923235741E+02  0.47000000000E+01 0.  1.
        -11    1    1    2    0    0  0.28275594702E+01  0.11338742018E+03  0.73336006935E+02  0.13506617660E+03  0.00000000000E+00 0.  1.
         11    1    1    2    0    0 -0.73792264153E+02 -0.25681024260E+02  0.46401521759E+02  0.90873067943E+02  0.00000000000E+00 0. -1.
<mgrwt>
<rscale>  0 0.39586759E+03</rscale>
<asrwt>0</asrwt>
<pdfrwt beam="1">  1        4 0.36211746E-01 0.39586759E+03</pdfrwt>
<pdfrwt beam="2">  1       -4 0.25607297E-01 0.39586759E+03</pdfrwt>
<totfact> 0.20577887E+02</totfact>
</mgrwt>
</event>
<event>
 7    1  0.1446636E-005  0.1590613E+03  0.7546771E-02  0.1197302E+00
         -1   -1    0    0    0  501 -0.00000000000E+00  0.00000000000E+00  0.31640910056E+03  0.31640910056E+03  0.00000000000E+00 0.  1.
          1   -1    0    0  501    0  0.00000000000E+00 -0.00000000000E+00 -0.71569150577E+02  0.71569150577E+02  0.00000000000E+00 0. -1.
         23    2    1    2    0    0  0.93990443094E+02  0.28996912710E+02  0.70968096689E+02  0.15232614198E+03  0.92150737611E+02 0.  0.
          5    1    1    2  502    0 -0.10745209180E+03 -0.53559138846E+02  0.16817285002E+03  0.20668510074E+03  0.47000000000E+01 0.  1.
         -5    1    1    2    0  502  0.13461648702E+02  0.24562226136E+02  0.56990032774E+01  0.28967008421E+02  0.47000000000E+01 0.  1.
        -11    1    3    3    0    0  0.43459504336E+02  0.88815864764E+01 -0.18146364396E+02  0.47926001672E+02  0.00000000000E+00 0. -1.
         11    1    3    3    0    0  0.50530938758E+02  0.20115326233E+02  0.89114461085E+02  0.10440014031E+03  0.00000000000E+00 0.  1.
<mgrwt>
<rscale>  0 0.15261005E+03</rscale>
<asrwt>0</asrwt>
<pdfrwt beam="2">  1        1 0.11010639E-01 0.15906129E+03</pdfrwt>
<pdfrwt beam="1">  1       -1 0.48678323E-01 0.15906129E+03</pdfrwt>
<totfact> 0.23745334E+03</totfact>
</mgrwt>
</event>
<event>
 7    1  0.1446636E-005  0.1396464E+03  0.7546771E-02  0.1224045E+00
          3   -1    0    0  501    0  0.00000000000E+00  0.00000000000E+00  0.25001727198E+03  0.25001727198E+03  0.00000000000E+00 0. -1.
         -3   -1    0    0    0  501 -0.00000000000E+00 -0.00000000000E+00 -0.69612130291E+02  0.69612130291E+02  0.00000000000E+00 0.  1.
         23    2    1    2    0    0 -0.25929347356E+02  0.56609570543E+02  0.12801057329E+03  0.17047740505E+03  0.93802261324E+02 0.  0.
          5    1    1    2  502    0  0.70368987580E+02 -0.48953233325E+01  0.19709357801E+02  0.73391466728E+02  0.47000000000E+01 0.  1.
         -5    1    1    2    0  502 -0.44439640224E+02 -0.51714247210E+02  0.32685210601E+02  0.75760530488E+02  0.47000000000E+01 0.  1.
        -11    1    3    3    0    0  0.29686117365E+02 -0.40056032252E+01  0.40466738970E+02  0.50347466513E+02  0.00000000000E+00 0.  1.
         11    1    3    3    0    0 -0.55615464721E+02  0.60615173768E+02  0.87543834315E+02  0.12012993854E+03  0.00000000000E+00 0. -1.
<mgrwt>
<rscale>  0 0.13232579E+03</rscale>
<asrwt>0</asrwt>
<pdfrwt beam="1">  1        3 0.38464195E-01 0.13964644E+03</pdfrwt>
<pdfrwt beam="2">  1       -3 0.10709559E-01 0.13964644E+03</pdfrwt>
<totfact> 0.10211725E+03</totfact>
</mgrwt>
</event>
<event>
 7    1  0.1446636E-005  0.1572405E+03  0.7546771E-02  0.1199132E+00
          2   -1    0    0  501    0  0.00000000000E+00  0.00000000000E+00  0.17481376050E+03  0.17481376050E+03  0.00000000000E+00 0. -1.
         -2   -1    0    0    0  501 -0.00000000000E+00 -0.00000000000E+00 -0.12240618741E+03  0.12240618741E+03  0.00000000000E+00 0.  1.
         23    2    1    2    0    0 -0.61535098293E+02  0.72890822158E+02  0.37841673164E+02  0.13930618972E+03  0.94204999809E+02 0.  0.
          5    1    1    2  502    0  0.81683123756E+02 -0.93381539357E+02 -0.24673592494E+01  0.12417899364E+03  0.47000000000E+01 0.  1.
         -5    1    1    2    0  502 -0.20148025463E+02  0.20490717200E+02  0.17033259169E+02  0.33734764551E+02  0.47000000000E+01 0.  1.
        -11    1    3    3    0    0 -0.57232738705E+02  0.27933413733E+02 -0.19231024945E+02  0.66525891973E+02  0.00000000000E+00 0.  1.
         11    1    3    3    0    0 -0.43023595884E+01  0.44957408425E+02  0.57072698109E+02  0.72780297744E+02  0.00000000000E+00 0. -1.
<mgrwt>
<rscale>  0 0.15109659E+03</rscale>
<asrwt>0</asrwt>
<pdfrwt beam="1">  1        2 0.26894425E-01 0.15724055E+03</pdfrwt>
<pdfrwt beam="2">  1       -2 0.18831721E-01 0.15724055E+03</pdfrwt>
<totfact> 0.44611232E+03</totfact>
</mgrwt>
</event>
<event>
 7    1  0.1446636E-005  0.1276486E+03  0.7546771E-02  0.1246420E+00
         -2   -1    0    0    0  501 -0.00000000000E+00  0.00000000000E+00  0.32027705316E+02  0.32027705316E+02  0.00000000000E+00 0.  1.
          2   -1    0    0  501    0  0.00000000000E+00 -0.00000000000E+00 -0.40841935854E+03  0.40841935854E+03  0.00000000000E+00 0. -1.
         23    2    1    2    0    0  0.86858043648E+01  0.24368641997E+02 -0.21742022116E+03  0.23656945447E+03  0.89578347312E+02 0.  0.
          5    1    1    2  502    0  0.12089592050E+02 -0.72745571193E+02 -0.80592644896E+02  0.10934048096E+03  0.47000000000E+01 0.  1.
         -5    1    1    2    0  502 -0.20775396414E+02  0.48376929196E+02 -0.78378787167E+02  0.94537128434E+02  0.47000000000E+01 0.  1.
        -11    1    3    3    0    0 -0.12440827629E+02 -0.23492754699E+02 -0.22741794719E+02  0.34983895473E+02  0.00000000000E+00 0.  1.
         11    1    3    3    0    0  0.21126631994E+02  0.47861396696E+02 -0.19467842644E+03  0.20158555899E+03  0.00000000000E+00 0. -1.
<mgrwt>
<rscale>  0 0.11800807E+03</rscale>
<asrwt>0</asrwt>
<pdfrwt beam="2">  1        2 0.62833740E-01 0.12764859E+03</pdfrwt>
<pdfrwt beam="1">  1       -2 0.49273399E-02 0.12764859E+03</pdfrwt>
<totfact> 0.14659005E+04</totfact>
</mgrwt>
</event>
<event>
 7    1  0.1446636E-005  0.1456327E+03  0.7546771E-02  0.1215768E+00
          3   -1    0    0  501    0  0.00000000000E+00  0.00000000000E+00  0.17437489709E+03  0.17437489709E+03  0.00000000000E+00 0. -1.
         -3   -1    0    0    0  501 -0.00000000000E+00 -0.00000000000E+00 -0.13451424956E+03  0.13451424956E+03  0.00000000000E+00 0.  1.
         23    2    1    2    0    0  0.53512854620E+02  0.52166794744E+02  0.96610834788E+02  0.15258990379E+03  0.91460512011E+02 0.  0.
          5    1    1    2  502    0  0.16245981456E+02  0.10566443126E+02 -0.59059693880E+02  0.62335536213E+02  0.47000000000E+01 0. -1.
         -5    1    1    2    0  502 -0.69758836077E+02 -0.62733237871E+02  0.23095066193E+01  0.93963706639E+02  0.47000000000E+01 0. -1.
        -11    1    3    3    0    0  0.32701544826E+02  0.18724615057E+02  0.10565677629E+03  0.11217556159E+03  0.00000000000E+00 0. -1.
         11    1    3    3    0    0  0.20811309795E+02  0.33442179687E+02 -0.90459415020E+01  0.40414342198E+02  0.00000000000E+00 0.  1.
<mgrwt>
<rscale>  0 0.13820251E+03</rscale>
<asrwt>0</asrwt>
<pdfrwt beam="1">  1        3 0.26826907E-01 0.14563265E+03</pdfrwt>
<pdfrwt beam="2">  1       -3 0.20694500E-01 0.14563265E+03</pdfrwt>
<totfact> 0.65208866E+02</totfact>
</mgrwt>
</event>
<event>
 7    1  0.1446636E-005  0.1367129E+03  0.7546771E-02  0.1228667E+00
          2   -1    0    0  501    0  0.00000000000E+00  0.00000000000E+00  0.37430201329E+03  0.37430201329E+03  0.00000000000E+00 0. -1.
         -2   -1    0    0    0  501 -0.00000000000E+00 -0.00000000000E+00 -0.44406604754E+02  0.44406604754E+02  0.00000000000E+00 0.  1.
         23    2    1    2    0    0 -0.41580832903E+01  0.55194911369E+02  0.21114830609E+03  0.23762492948E+03  0.93905442056E+02 0.  0.
          5    1    1    2  502    0  0.37732818713E+02 -0.83681679232E+02  0.72617047596E+02  0.11713972276E+03  0.47000000000E+01 0.  1.
         -5    1    1    2    0  502 -0.33574735423E+02  0.28486767863E+02  0.46130054846E+02  0.63943965799E+02  0.47000000000E+01 0.  1.
        -11    1    3    3    0    0 -0.33845342366E+02  0.64895691716E+02  0.11304809294E+03  0.13467304601E+03  0.00000000000E+00 0.  1.
         11    1    3    3    0    0  0.29687259076E+02 -0.97007803465E+01  0.98100213146E+02  0.10295188347E+03  0.00000000000E+00 0. -1.
<mgrwt>
<rscale>  0 0.12918688E+03</rscale>
<asrwt>0</asrwt>
<pdfrwt beam="1">  1        2 0.57584923E-01 0.13671294E+03</pdfrwt>
<pdfrwt beam="2">  1       -2 0.68317856E-02 0.13671294E+03</pdfrwt>
<totfact> 0.98656282E+03</totfact>
</mgrwt>
</event>
<event>
 7    1  0.1446636E-005  0.1412743E+03  0.7546771E-02  0.1230426E+00
          2   -1    0    0  501    0  0.00000000000E+00  0.00000000000E+00  0.27585196846E+03  0.27585196846E+03  0.00000000000E+00 0. -1.
         -2   -1    0    0    0  501 -0.00000000000E+00 -0.00000000000E+00 -0.83304051403E+02  0.83304051403E+02  0.00000000000E+00 0.  1.
         23    2    1    2    0    0  0.91699989554E+01  0.34562399490E+02  0.19591064686E+03  0.21784166675E+03  0.88291346578E+02 0.  0.
          5    1    1    2  502    0 -0.92134005021E+00  0.29353781338E+02  0.49554035222E+02  0.57794340147E+02  0.47000000000E+01 0. -1.
         -5    1    1    2    0  502 -0.82486589052E+01 -0.63916180828E+02 -0.52916765022E+02  0.83520012966E+02  0.47000000000E+01 0.  1.
        -11    1    3    3    0    0 -0.84770083623E+01 -0.28191683729E+02  0.73037016615E+02  0.78746660236E+02  0.00000000000E+00 0.  1.
         11    1    3    3    0    0  0.17647007318E+02  0.62754083219E+02  0.12287363024E+03  0.13909500651E+03  0.00000000000E+00 0. -1.
<mgrwt>
<rscale>  0 0.12801839E+03</rscale>
<asrwt>0</asrwt>
<pdfrwt beam="1">  1        2 0.42438764E-01 0.14127434E+03</pdfrwt>
<pdfrwt beam="2">  1       -2 0.12816008E-01 0.14127434E+03</pdfrwt>
<totfact> 0.51067076E+03</totfact>
</mgrwt>
</event>
<event>
 7    1  0.1446636E-005  0.2351910E+03  0.7546771E-02  0.1125028E+00
          2   -1    0    0  501    0  0.00000000000E+00  0.00000000000E+00  0.31360984054E+03  0.31360984054E+03  0.00000000000E+00 0. -1.
         -2   -1    0    0    0  501 -0.00000000000E+00 -0.00000000000E+00 -0.17308405673E+03  0.17308405673E+03  0.00000000000E+00 0.  1.
         23    2    1    2    0    0  0.54994063130E+02  0.19148114949E+03  0.11034807148E+03  0.24957476054E+03  0.10208568277E+03 0.  0.
          5    1    1    2  502    0 -0.80823992994E+02 -0.11638484723E+03  0.57519351337E+02  0.15299841923E+03  0.47000000000E+01 0. -1.
         -5    1    1    2    0  502  0.25829929865E+02 -0.75096302259E+02 -0.27341639002E+02  0.84120717502E+02  0.47000000000E+01 0. -1.
        -11    1    3    3    0    0  0.17128624425E+02  0.53370606692E+02  0.88432754185E+02  0.10470035074E+03  0.00000000000E+00 0. -1.
         11    1    3    3    0    0  0.37865438704E+02  0.13811054280E+03  0.21915317296E+02  0.14487440979E+03  0.00000000000E+00 0.  1.
<mgrwt>
<rscale>  0 0.23230415E+03</rscale>
<asrwt>0</asrwt>
<pdfrwt beam="1">  1        2 0.48247668E-01 0.23519097E+03</pdfrwt>
<pdfrwt beam="2">  1       -2 0.26628316E-01 0.23519097E+03</pdfrwt>
<totfact> 0.13193488E+03</totfact>
</mgrwt>
</event>
<event>
 7    1  0.1446636E-005  0.1273857E+03  0.7546771E-02  0.1245785E+00
          1   -1    0    0  501    0  0.00000000000E+00  0.00000000000E+00  0.68781283426E+02  0.68781283426E+02  0.00000000000E+00 0.  1.
         -1   -1    0    0    0  501 -0.00000000000E+00 -0.00000000000E+00 -0.21788632814E+03  0.21788632814E+03  0.00000000000E+00 0. -1.
         23    2    1    2    0    0 -0.84663206649E+01  0.23027913215E+02 -0.61938715182E+01  0.95223864002E+02  0.91800091821E+02 0.  0.
          5    1    1    2  502    0  0.49164048148E+02 -0.50946089481E+02 -0.11333802178E+03  0.13371688317E+03  0.47000000000E+01 0.  1.
         -5    1    1    2    0  502 -0.40697727483E+02  0.27918176266E+02 -0.29573151418E+02  0.57726864397E+02  0.47000000000E+01 0.  1.
        -11    1    3    3    0    0 -0.12252272745E+02 -0.18350956215E+02  0.31943496433E+02  0.38823481886E+02  0.00000000000E+00 0.  1.
         11    1    3    3    0    0  0.37859520797E+01  0.41378869431E+02 -0.38137367951E+02  0.56400382115E+02  0.00000000000E+00 0. -1.
<mgrwt>
<rscale>  0 0.11838500E+03</rscale>
<asrwt>0</asrwt>
<pdfrwt beam="1">  1        1 0.10581736E-01 0.12738565E+03</pdfrwt>
<pdfrwt beam="2">  1       -1 0.33520973E-01 0.12738565E+03</pdfrwt>
<totfact> 0.47661762E+03</totfact>
</mgrwt>
</event>
<event>
 7    1  0.1446636E-005  0.1676415E+03  0.7546771E-02  0.1187371E+00
          1   -1    0    0  501    0  0.00000000000E+00  0.00000000000E+00  0.33521237471E+03  0.33521237471E+03  0.00000000000E+00 0. -1.
         -1   -1    0    0    0  501 -0.00000000000E+00 -0.00000000000E+00 -0.72861057367E+02  0.72861057367E+02  0.00000000000E+00 0.  1.
         23    2    1    2    0    0  0.86350510900E+02  0.70797007038E+02  0.14199871785E+03  0.20170382995E+03  0.89733896644E+02 0.  0.
          5    1    1    2  502    0 -0.71752190197E+02 -0.10661436943E+03  0.89604209121E+02  0.15673546139E+03  0.47000000000E+01 0. -1.
         -5    1    1    2    0  502 -0.14598320704E+02  0.35817362389E+02  0.30748390369E+02  0.49634140731E+02  0.47000000000E+01 0. -1.
        -11    1    3    3    0    0  0.59903207887E+01  0.51402619048E+02  0.22576533124E+02  0.56460721179E+02  0.00000000000E+00 0.  1.
         11    1    3    3    0    0  0.80360190112E+02  0.19394387990E+02  0.11942218473E+03  0.14524310877E+03  0.00000000000E+00 0. -1.
<mgrwt>
<rscale>  0 0.16117972E+03</rscale>
<asrwt>0</asrwt>
<pdfrwt beam="1">  1        1 0.51571134E-01 0.16764148E+03</pdfrwt>
<pdfrwt beam="2">  1       -1 0.11209394E-01 0.16764148E+03</pdfrwt>
<totfact> 0.37823605E+03</totfact>
</mgrwt>
</event>
<event>
 7    1  0.1446636E-005  0.1253819E+03  0.7546771E-02  0.1248511E+00
         -1   -1    0    0    0  501 -0.00000000000E+00  0.00000000000E+00  0.18338777446E+03  0.18338777446E+03  0.00000000000E+00 0.  1.
          1   -1    0    0  501    0  0.00000000000E+00 -0.00000000000E+00 -0.65817386278E+02  0.65817386278E+02  0.00000000000E+00 0. -1.
         23    2    1    2    0    0  0.94537447567E+01 -0.28829761505E+01  0.50383772709E+02  0.10695657524E+03  0.93826966238E+02 0.  0.
          5    1    1    2  502    0  0.21606905164E+01  0.52797940026E+02 -0.53394128063E+01  0.53318762022E+02  0.47000000000E+01 0.  1.
         -5    1    1    2    0  502 -0.11614435273E+02 -0.49914963875E+02  0.72526028284E+02  0.88929823479E+02  0.47000000000E+01 0.  1.
        -11    1    3    3    0    0 -0.73915151797E+01  0.20481824536E+02 -0.20832835246E+02  0.30135471746E+02  0.00000000000E+00 0. -1.
         11    1    3    3    0    0  0.16845259936E+02 -0.23364800687E+02  0.71216607955E+02  0.76821103495E+02  0.00000000000E+00 0.  1.
<mgrwt>
<rscale>  0 0.11677694E+03</rscale>
<asrwt>0</asrwt>
<pdfrwt beam="2">  1        1 0.10125752E-01 0.12538189E+03</pdfrwt>
<pdfrwt beam="1">  1       -1 0.28213504E-01 0.12538189E+03</pdfrwt>
<totfact> 0.67434808E+03</totfact>
</mgrwt>
</event>
<event>
 7    1  0.1446636E-005  0.1372208E+03  0.7546771E-02  0.1229033E+00
          2   -1    0    0  501    0  0.00000000000E+00  0.00000000000E+00  0.25842483273E+03  0.25842483273E+03  0.00000000000E+00 0. -1.
         -2   -1    0    0    0  501 -0.00000000000E+00 -0.00000000000E+00 -0.92332542150E+02  0.92332542150E+02  0.00000000000E+00 0.  1.
         23    2    1    2    0    0 -0.73970376301E+01 -0.56125390637E+02  0.18352677836E+03  0.21243341513E+03  0.90780514701E+02 0.  0.
          5    1    1    2  502    0  0.33741409217E+02 -0.60338286084E+00 -0.55375130467E+02  0.65018011666E+02  0.47000000000E+01 0.  1.
         -5    1    1    2    0  502 -0.26344371587E+02  0.56728773498E+02  0.37940642689E+02  0.73305948084E+02  0.47000000000E+01 0.  1.
        -11    1    3    3    0    0  0.36581811657E+02 -0.38229660295E+02  0.59473886779E+02  0.79604516700E+02  0.00000000000E+00 0.  1.
         11    1    3    3    0    0 -0.43978849287E+02 -0.17895730342E+02  0.12405289158E+03  0.13282889843E+03  0.00000000000E+00 0. -1.
<mgrwt>
<rscale>  0 0.12894253E+03</rscale>
<asrwt>0</asrwt>
<pdfrwt beam="1">  1        2 0.39757666E-01 0.13722083E+03</pdfrwt>
<pdfrwt beam="2">  1       -2 0.14205007E-01 0.13722083E+03</pdfrwt>
<totfact> 0.46268225E+03</totfact>
</mgrwt>
</event>
<event>
 7    1  0.1446636E-005  0.1350597E+03  0.7546771E-02  0.1233478E+00
         -4   -1    0    0    0  501 -0.00000000000E+00  0.00000000000E+00  0.23524150919E+03  0.23524150919E+03  0.00000000000E+00 0.  1.
          4   -1    0    0  501    0  0.00000000000E+00 -0.00000000000E+00 -0.70205184022E+02  0.70205184022E+02  0.00000000000E+00 0. -1.
         23    2    1    2    0    0 -0.45855152706E+02 -0.22656295221E+02  0.14836209679E+02  0.10345361175E+03  0.88693482988E+02 0.  0.
          5    1    1    2  502    0 -0.33579076191E+02  0.27813400882E+02  0.17581670812E+02  0.47247695976E+02  0.47000000000E+01 0.  1.
         -5    1    1    2    0  502  0.79434228897E+02 -0.51571056608E+01  0.13261844468E+03  0.15474538548E+03  0.47000000000E+01 0.  1.
        -11    1    3    3    0    0 -0.47920969324E+02 -0.32638074645E+02  0.43854428842E+02  0.72697139879E+02  0.00000000000E+00 0.  1.
         11    1    3    3    0    0  0.20658166184E+01  0.99817794239E+01 -0.29018219164E+02  0.30756471875E+02  0.00000000000E+00 0. -1.
<mgrwt>
<rscale>  0 0.12602384E+03</rscale>
<asrwt>0</asrwt>
<pdfrwt beam="2">  1        4 0.10800798E-01 0.13505973E+03</pdfrwt>
<pdfrwt beam="1">  1       -4 0.36191001E-01 0.13505973E+03</pdfrwt>
<totfact> 0.81427311E+02</totfact>
</mgrwt>
</event>
<event>
 7    1  0.1446636E-005  0.1543521E+03  0.7546771E-02  0.1203718E+00
          3   -1    0    0  501    0  0.00000000000E+00  0.00000000000E+00  0.84956586978E+02  0.84956586978E+02  0.00000000000E+00 0. -1.
         -3   -1    0    0    0  501 -0.00000000000E+00 -0.00000000000E+00 -0.23810923566E+03  0.23810923566E+03  0.00000000000E+00 0.  1.
         23    2    1    2    0    0  0.18764261393E+02 -0.88582403501E+02 -0.51666713264E+02  0.13833912467E+03  0.90935825937E+02 0.  0.
          5    1    1    2  502    0 -0.69362576276E+02  0.73785099827E+02 -0.68837756451E+02  0.12254033890E+03  0.47000000000E+01 0. -1.
         -5    1    1    2    0  502  0.50598314883E+02  0.14797303675E+02 -0.32648178970E+02  0.62186359076E+02  0.47000000000E+01 0. -1.
        -11    1    3    3    0    0 -0.11045255331E+02 -0.72628789918E+02 -0.68611005296E+02  0.10052068861E+03  0.00000000000E+00 0.  1.
         11    1    3    3    0    0  0.29809516724E+02 -0.15953613583E+02  0.16944292032E+02  0.37818436061E+02  0.00000000000E+00 0. -1.
<mgrwt>
<rscale>  0 0.14738908E+03</rscale>
<asrwt>0</asrwt>
<pdfrwt beam="1">  1        3 0.13070244E-01 0.15435206E+03</pdfrwt>
<pdfrwt beam="2">  1       -3 0.36632190E-01 0.15435206E+03</pdfrwt>
<totfact> 0.81458141E+02</totfact>
</mgrwt>
</event>
<event>
 7    1  0.1457553E-005  0.1289830E+03  0.7546771E-02  0.1242633E+00
          2   -1    0    0  501    0  0.00000000000E+00  0.00000000000E+00  0.82076922015E+03  0.82076922015E+03  0.00000000000E+00 0. -1.
         -2   -1    0    0    0  501 -0.00000000000E+00 -0.00000000000E+00 -0.15750527459E+02  0.15750527459E+02  0.00000000000E+00 0.  1.
         23    2    1    2    0    0  0.31711533370E+02  0.23996827170E+01  0.38331082884E+03  0.39552753679E+03  0.92214212716E+02 0.  0.
          5    1    1    2  502    0  0.27621458649E+02 -0.13768904393E+02  0.32746617049E+03  0.32895092419E+03  0.47000000000E+01 0.  1.
         -5    1    1    2    0  502 -0.59332992019E+02  0.11369221676E+02  0.94241693360E+02  0.11204128663E+03  0.47000000000E+01 0.  1.
        -11    1    3    3    0    0  0.52492002644E+02 -0.19331757328E+02  0.32643220407E+03  0.33119044527E+03  0.00000000000E+00 0. -1.
         11    1    3    3    0    0 -0.20780469275E+02  0.21731440045E+02  0.56878624773E+02  0.64337091524E+02  0.00000000000E+00 0.  1.
<mgrwt>
<rscale>  0 0.12028168E+03</rscale>
<asrwt>0</asrwt>
<pdfrwt beam="1">  1        2 0.12627215E+00 0.12898297E+03</pdfrwt>
<pdfrwt beam="2">  1       -2 0.24231587E-02 0.12898297E+03</pdfrwt>
<totfact> 0.18905466E+04</totfact>
</mgrwt>
</event>
<event>
 7    1  0.1446636E-005  0.1810599E+03  0.7546771E-02  0.1174361E+00
          2   -1    0    0  501    0  0.00000000000E+00  0.00000000000E+00  0.60368225790E+03  0.60368225790E+03  0.00000000000E+00 0. -1.
         -2   -1    0    0    0  501 -0.00000000000E+00 -0.00000000000E+00 -0.49548455438E+02  0.49548455438E+02  0.00000000000E+00 0.  1.
         23    2    1    2    0    0 -0.73797846023E+02 -0.96589945266E+02  0.34180244599E+03  0.37418359485E+03  0.91699023796E+02 0.  0.
          5    1    1    2  502    0  0.42120370660E+02  0.90736584106E+02  0.22327179301E+03  0.24470316073E+03  0.47000000000E+01 0. -1.
         -5    1    1    2    0  502  0.31677475363E+02  0.58533611601E+01 -0.10940436543E+02  0.34343957750E+02  0.47000000000E+01 0.  1.
        -11    1    3    3    0    0  0.20781989192E+02 -0.24933702488E+02  0.55988869547E+02  0.64717340085E+02  0.00000000000E+00 0.  1.
         11    1    3    3    0    0 -0.94579835215E+02 -0.71656242778E+02  0.28581357644E+03  0.30946625477E+03  0.00000000000E+00 0. -1.
<mgrwt>
<rscale>  0 0.17338691E+03</rscale>
<asrwt>0</asrwt>
<pdfrwt beam="1">  1        2 0.92874188E-01 0.18105991E+03</pdfrwt>
<pdfrwt beam="2">  1       -2 0.76228397E-02 0.18105991E+03</pdfrwt>
<totfact> 0.50071699E+03</totfact>
</mgrwt>
</event>
<event>
 7    1  0.1446636E-005  0.1380296E+03  0.7546771E-02  0.1227355E+00
          2   -1    0    0  501    0  0.00000000000E+00  0.00000000000E+00  0.95463537154E+02  0.95463537154E+02  0.00000000000E+00 0. -1.
         -2   -1    0    0    0  501 -0.00000000000E+00 -0.00000000000E+00 -0.16751963838E+03  0.16751963838E+03  0.00000000000E+00 0.  1.
         23    2    1    2    0    0 -0.84405306920E+01  0.57909217428E+02 -0.35586703278E+01  0.10889205811E+03  0.91761081961E+02 0.  0.
          5    1    1    2  502    0  0.30212077460E+02 -0.88870325075E+02 -0.67902337668E+02  0.11594620203E+03  0.47000000000E+01 0. -1.
         -5    1    1    2    0  502 -0.21771546768E+02  0.30961107647E+02 -0.59509323493E+00  0.38144915406E+02  0.47000000000E+01 0. -1.
        -11    1    3    3    0    0 -0.24481694913E+02 -0.15665254470E+02  0.12920528380E+02  0.31807131858E+02  0.00000000000E+00 0.  1.
         11    1    3    3    0    0  0.16041164221E+02  0.73574471898E+02 -0.16479198708E+02  0.77084926249E+02  0.00000000000E+00 0. -1.
<mgrwt>
<rscale>  0 0.13006794E+03</rscale>
<asrwt>0</asrwt>
<pdfrwt beam="1">  1        2 0.14686698E-01 0.13802961E+03</pdfrwt>
<pdfrwt beam="2">  1       -2 0.25772252E-01 0.13802961E+03</pdfrwt>
<totfact> 0.51294804E+03</totfact>
</mgrwt>
</event>
<event>
 7    1  0.1446636E-005  0.1357622E+03  0.7546771E-02  0.1232138E+00
          2   -1    0    0  501    0  0.00000000000E+00  0.00000000000E+00  0.18192282618E+03  0.18192282618E+03  0.00000000000E+00 0. -1.
         -2   -1    0    0    0  501 -0.00000000000E+00 -0.00000000000E+00 -0.85852141492E+02  0.85852141492E+02  0.00000000000E+00 0.  1.
         23    2    1    2    0    0  0.36649043698E+01  0.52837669352E+02  0.80319224223E+02  0.13110209538E+03  0.89058019326E+02 0.  0.
          5    1    1    2  502    0  0.51441934255E+02 -0.60914684836E+02  0.91544440427E+01  0.80391325865E+02  0.47000000000E+01 0. -1.
         -5    1    1    2    0  502 -0.55106838625E+02  0.80770154833E+01  0.65970164175E+01  0.56281546425E+02  0.47000000000E+01 0. -1.
        -11    1    3    3    0    0 -0.38167848226E+02  0.29521779640E+02  0.64732322614E+02  0.80737808382E+02  0.00000000000E+00 0.  1.
         11    1    3    3    0    0  0.41832752596E+02  0.23315889712E+02  0.15586901609E+02  0.50364286996E+02  0.00000000000E+00 0. -1.
<mgrwt>
<rscale>  0 0.12689436E+03</rscale>
<asrwt>0</asrwt>
<pdfrwt beam="1">  1        2 0.27988127E-01 0.13576217E+03</pdfrwt>
<pdfrwt beam="2">  1       -2 0.13208022E-01 0.13576217E+03</pdfrwt>
<totfact> 0.75872585E+03</totfact>
</mgrwt>
</event>
<event>
 7    1  0.1446636E-005  0.1770023E+03  0.7546771E-02  0.1175558E+00
         -4   -1    0    0    0  501 -0.00000000000E+00  0.00000000000E+00  0.98855419411E+02  0.98855419411E+02  0.00000000000E+00 0.  1.
          4   -1    0    0  501    0  0.00000000000E+00 -0.00000000000E+00 -0.29363556220E+03  0.29363556220E+03  0.00000000000E+00 0. -1.
         23    2    1    2    0    0  0.11989493854E+03 -0.36482261309E+02 -0.12609791669E+03  0.20263034186E+03  0.97224581097E+02 0.  0.
          5    1    1    2  502    0 -0.76240321399E+02  0.57665538391E+02 -0.94667504342E+02  0.13461770799E+03  0.47000000000E+01 0. -1.
         -5    1    1    2    0  502 -0.43654617140E+02 -0.21183277082E+02  0.25985278240E+02  0.55242931772E+02  0.47000000000E+01 0. -1.
        -11    1    3    3    0    0  0.21778731080E+02  0.29396055800E+02 -0.12379752150E+02  0.38622525647E+02  0.00000000000E+00 0.  1.
         11    1    3    3    0    0  0.98116207459E+02 -0.65878317109E+02 -0.11371816454E+03  0.16400781621E+03  0.00000000000E+00 0. -1.
<mgrwt>
<rscale>  0 0.17221441E+03</rscale>
<asrwt>0</asrwt>
<pdfrwt beam="2">  1        4 0.45174701E-01 0.17700230E+03</pdfrwt>
<pdfrwt beam="1">  1       -4 0.15208526E-01 0.17700230E+03</pdfrwt>
<totfact> 0.30592139E+02</totfact>
</mgrwt>
</event>
<event>
 7    1  0.1446636E-005  0.1566353E+03  0.7546771E-02  0.1200630E+00
         -2   -1    0    0    0  501 -0.00000000000E+00  0.00000000000E+00  0.24711516562E+02  0.24711516562E+02  0.00000000000E+00 0.  1.
          2   -1    0    0  501    0  0.00000000000E+00 -0.00000000000E+00 -0.10029981411E+04  0.10029981411E+04  0.00000000000E+00 0. -1.
         23    2    1    2    0    0 -0.31747209974E+02 -0.88891631302E+02 -0.66045300831E+03  0.67337533051E+03  0.91249942953E+02 0.  0.
          5    1    1    2  502    0 -0.31375952038E+02  0.72166946959E+02 -0.24006119719E+03  0.25267367689E+03  0.47000000000E+01 0.  1.
         -5    1    1    2    0  502  0.63123162013E+02  0.16724684343E+02 -0.77772419037E+02  0.10166065026E+03  0.47000000000E+01 0.  1.
        -11    1    3    3    0    0 -0.62495880369E+02 -0.42700749256E+02 -0.36760909271E+03  0.37532057510E+03  0.00000000000E+00 0. -1.
         11    1    3    3    0    0  0.30748670394E+02 -0.46190882046E+02 -0.29284391560E+03  0.29805475540E+03  0.00000000000E+00 0.  1.
<mgrwt>
<rscale>  0 0.14987260E+03</rscale>
<asrwt>0</asrwt>
<pdfrwt beam="2">  1        2 0.15430743E+00 0.15663527E+03</pdfrwt>
<pdfrwt beam="1">  1       -2 0.38017711E-02 0.15663527E+03</pdfrwt>
<totfact> 0.75710505E+03</totfact>
</mgrwt>
</event>
<event>
 7    1  0.1446636E-005  0.1957761E+03  0.7546771E-02  0.1157986E+00
          2   -1    0    0  501    0  0.00000000000E+00  0.00000000000E+00  0.70926833079E+03  0.70926833079E+03  0.00000000000E+00 0. -1.
         -2   -1    0    0    0  501 -0.00000000000E+00 -0.00000000000E+00 -0.48662157260E+02  0.48662157260E+02  0.00000000000E+00 0.  1.
         23    2    1    2    0    0 -0.71909043872E+02  0.13240841406E+03  0.32392438011E+03  0.36846559347E+03  0.90205270565E+02 0.  0.
          5    1    1    2  502    0  0.86396318315E+01  0.24163013884E+02  0.34328624722E+02  0.43116573999E+02  0.47000000000E+01 0.  1.
         -5    1    1    2    0  502  0.63269412040E+02 -0.15657142794E+03  0.30235316870E+03  0.34634832058E+03  0.47000000000E+01 0.  1.
        -11    1    3    3    0    0 -0.48568005033E+02  0.76150223266E+02  0.27765515996E+03  0.29197618990E+03  0.00000000000E+00 0. -1.
         11    1    3    3    0    0 -0.23341038838E+02  0.56258190791E+02  0.46269220150E+02  0.76489403569E+02  0.00000000000E+00 0.  1.
<mgrwt>
<rscale>  0 0.19052801E+03</rscale>
<asrwt>0</asrwt>
<pdfrwt beam="1">  1        2 0.10911820E+00 0.19577608E+03</pdfrwt>
<pdfrwt beam="2">  1       -2 0.74864863E-02 0.19577608E+03</pdfrwt>
<totfact> 0.42705837E+03</totfact>
</mgrwt>
</event>
<event>
 7    1  0.1446636E-005  0.1720073E+03  0.7546771E-02  0.1182198E+00
         -3   -1    0    0    0  501 -0.00000000000E+00  0.00000000000E+00  0.35328078115E+02  0.35328078115E+02  0.00000000000E+00 0.  1.
          3   -1    0    0  501    0  0.00000000000E+00 -0.00000000000E+00 -0.73431923157E+03  0.73431923157E+03  0.00000000000E+00 0. -1.
         23    2    1    2    0    0  0.11170613520E+03  0.38545910323E+02 -0.35880672100E+03  0.38844923860E+03  0.90479279906E+02 0.  0.
          5    1    1    2  502    0 -0.58877296979E+02 -0.68658476515E+02 -0.10707157729E+03  0.14023885040E+03  0.47000000000E+01 0.  1.
         -5    1    1    2    0  502 -0.52828838223E+02  0.30112566192E+02 -0.23311285516E+03  0.24095922069E+03  0.47000000000E+01 0.  1.
        -11    1    3    3    0    0  0.17569470895E+02 -0.63708034721E+01 -0.46585335501E+01  0.19260721150E+02  0.00000000000E+00 0.  1.
         11    1    3    3    0    0  0.94136664308E+02  0.44916713795E+02 -0.35414818745E+03  0.36918851745E+03  0.00000000000E+00 0. -1.
<mgrwt>
<rscale>  0 0.16589499E+03</rscale>
<asrwt>0</asrwt>
<pdfrwt beam="2">  1        3 0.11297218E+00 0.17200733E+03</pdfrwt>
<pdfrwt beam="1">  1       -3 0.54350892E-02 0.17200733E+03</pdfrwt>
<totfact> 0.32737679E+02</totfact>
</mgrwt>
</event>
<event>
 7    1  0.1446636E-005  0.1711829E+03  0.7546771E-02  0.1183491E+00
          2   -1    0    0  501    0  0.00000000000E+00  0.00000000000E+00  0.58196925311E+03  0.58196925311E+03  0.00000000000E+00 0. -1.
         -2   -1    0    0    0  501 -0.00000000000E+00 -0.00000000000E+00 -0.46886700002E+02  0.46886700002E+02  0.00000000000E+00 0.  1.
         23    2    1    2    0    0  0.11683123482E+03 -0.54289437698E+01  0.33390847144E+03  0.36470712186E+03  0.88529128407E+02 0.  0.
          5    1    1    2  502    0 -0.91939405120E+02  0.40266608811E+02  0.19665541392E+03  0.22083861941E+03  0.47000000000E+01 0. -1.
         -5    1    1    2    0  502 -0.24891829698E+02 -0.34837665041E+02  0.45186677429E+01  0.43310211837E+02  0.47000000000E+01 0. -1.
        -11    1    3    3    0    0  0.57739572868E+02 -0.34517299380E+02  0.91859447098E+02  0.11385719236E+03  0.00000000000E+00 0.  1.
         11    1    3    3    0    0  0.59091661951E+02  0.29088355610E+02  0.24204902435E+03  0.25084992950E+03  0.00000000000E+00 0. -1.
<mgrwt>
<rscale>  0 0.16469923E+03</rscale>
<asrwt>0</asrwt>
<pdfrwt beam="1">  1        2 0.89533726E-01 0.17118293E+03</pdfrwt>
<pdfrwt beam="2">  1       -2 0.72133389E-02 0.17118293E+03</pdfrwt>
<totfact> 0.56728917E+03</totfact>
</mgrwt>
</event>
<event>
 7    1  0.1446636E-005  0.1427227E+03  0.7546771E-02  0.1220409E+00
         -1   -1    0    0    0  501 -0.00000000000E+00  0.00000000000E+00  0.89822563699E+02  0.89822563699E+02  0.00000000000E+00 0.  1.
          1   -1    0    0  501    0  0.00000000000E+00 -0.00000000000E+00 -0.19491300272E+03  0.19491300272E+03  0.00000000000E+00 0. -1.
         23    2    1    2    0    0  0.62431436854E+01  0.68614250315E+02 -0.12203603189E+02  0.11444836685E+03  0.90568253568E+02 0.  0.
          5    1    1    2  502    0  0.40813302937E+02 -0.66199532061E+02 -0.95031020825E+02  0.12288648689E+03  0.47000000000E+01 0. -1.
         -5    1    1    2    0  502 -0.47056446622E+02 -0.24147182544E+01  0.21441849940E+01  0.47400712677E+02  0.47000000000E+01 0. -1.
        -11    1    3    3    0    0  0.14947328671E+02  0.38929735196E+02 -0.50323530012E+02  0.65355983580E+02  0.00000000000E+00 0. -1.
         11    1    3    3    0    0 -0.87041849857E+01  0.29684515119E+02  0.38119926823E+02  0.49092383270E+02  0.00000000000E+00 0.  1.
<mgrwt>
<rscale>  0 0.13486566E+03</rscale>
<asrwt>0</asrwt>
<pdfrwt beam="2">  1        1 0.29986616E-01 0.14272269E+03</pdfrwt>
<pdfrwt beam="1">  1       -1 0.13818856E-01 0.14272269E+03</pdfrwt>
<totfact> 0.53194628E+03</totfact>
</mgrwt>
</event>
<event>
 7    1  0.1446636E-005  0.1554156E+03  0.7546771E-02  0.1201842E+00
         -1   -1    0    0    0  501 -0.00000000000E+00  0.00000000000E+00  0.13807283969E+03  0.13807283969E+03  0.00000000000E+00 0.  1.
          1   -1    0    0  501    0  0.00000000000E+00 -0.00000000000E+00 -0.14875241901E+03  0.14875241901E+03  0.00000000000E+00 0. -1.
         23    2    1    2    0    0  0.79987763224E+02 -0.46042072044E+02 -0.11357235776E+02  0.13140817614E+03  0.92850456590E+02 0.  0.
          5    1    1    2  502    0  0.90792821195E+01  0.29712879799E+02 -0.44211448613E+02  0.54240490210E+02  0.47000000000E+01 0.  1.
         -5    1    1    2    0  502 -0.89067045344E+02  0.16329192245E+02  0.44889105065E+02  0.10117659235E+03  0.47000000000E+01 0.  1.
        -11    1    3    3    0    0  0.89618450719E+02 -0.61119158905E+01 -0.68791924904E+01  0.90089652649E+02  0.00000000000E+00 0. -1.
         11    1    3    3    0    0 -0.96306874942E+01 -0.39930156154E+02 -0.44780432858E+01  0.41318523494E+02  0.00000000000E+00 0.  1.
<mgrwt>
<rscale>  0 0.14889137E+03</rscale>
<asrwt>0</asrwt>
<pdfrwt beam="2">  1        1 0.22884988E-01 0.15541561E+03</pdfrwt>
<pdfrwt beam="1">  1       -1 0.21241975E-01 0.15541561E+03</pdfrwt>
<totfact> 0.37912008E+03</totfact>
</mgrwt>
</event>
<event>
 7    1  0.1446636E-005  0.1458127E+03  0.7546771E-02  0.1215552E+00
          1   -1    0    0  501    0  0.00000000000E+00  0.00000000000E+00  0.27056397666E+03  0.27056397666E+03  0.00000000000E+00 0. -1.
         -1   -1    0    0    0  501 -0.00000000000E+00 -0.00000000000E+00 -0.66818977552E+02  0.66818977552E+02  0.00000000000E+00 0.  1.
         23    2    1    2    0    0 -0.55796315340E+02  0.50299776990E+02  0.12346346082E+03  0.17093033105E+03  0.91272424894E+02 0.  0.
          5    1    1    2  502    0  0.22336306359E+02 -0.14409844749E+02  0.10702227357E+03  0.11037396091E+03  0.47000000000E+01 0.  1.
         -5    1    1    2    0  502  0.33460008982E+02 -0.35889932241E+02 -0.26740735271E+02  0.56078662254E+02  0.47000000000E+01 0.  1.
        -11    1    3    3    0    0 -0.50215752198E+02  0.38823035368E+01  0.11198548447E+03  0.12279023895E+03  0.00000000000E+00 0. -1.
         11    1    3    3    0    0 -0.55805631421E+01  0.46417473453E+02  0.11477976350E+02  0.48140092105E+02  0.00000000000E+00 0.  1.
<mgrwt>
<rscale>  0 0.13836029E+03</rscale>
<asrwt>0</asrwt>
<pdfrwt beam="1">  1        1 0.41625227E-01 0.14581272E+03</pdfrwt>
<pdfrwt beam="2">  1       -1 0.10279843E-01 0.14581272E+03</pdfrwt>
<totfact> 0.55999057E+03</totfact>
</mgrwt>
</event>
<event>
 7    1  0.1446636E-005  0.1416530E+03  0.7546771E-02  0.1221163E+00
          2   -1    0    0  501    0  0.00000000000E+00  0.00000000000E+00  0.74823336259E+02  0.74823336259E+02  0.00000000000E+00 0. -1.
         -2   -1    0    0    0  501 -0.00000000000E+00 -0.00000000000E+00 -0.21975175039E+03  0.21975175039E+03  0.00000000000E+00 0.  1.
         23    2    1    2    0    0 -0.50664328331E+02 -0.43282109456E+02 -0.58555378918E+02  0.12866586292E+03  0.93198480233E+02 0.  0.
          5    1    1    2  502    0  0.52462687457E+02  0.52904180495E+02  0.41191059042E+01  0.74767927098E+02  0.47000000000E+01 0. -1.
         -5    1    1    2    0  502 -0.17983591260E+01 -0.96220710392E+01 -0.90492141122E+02  0.91141296631E+02  0.47000000000E+01 0. -1.
        -11    1    3    3    0    0 -0.55874152415E+01 -0.21878458600E+02  0.23524310779E+02  0.32607964632E+02  0.00000000000E+00 0. -1.
         11    1    3    3    0    0 -0.45076913089E+02 -0.21403650856E+02 -0.82079689697E+02  0.96057898293E+02  0.00000000000E+00 0.  1.
<mgrwt>
<rscale>  0 0.13433419E+03</rscale>
<asrwt>0</asrwt>
<pdfrwt beam="1">  1        2 0.11511283E-01 0.14165299E+03</pdfrwt>
<pdfrwt beam="2">  1       -2 0.33807961E-01 0.14165299E+03</pdfrwt>
<totfact> 0.42201997E+03</totfact>
</mgrwt>
</event>
<event>
 7    1  0.1446636E-005  0.1366431E+03  0.7546771E-02  0.1229603E+00
         -1   -1    0    0    0  501 -0.00000000000E+00  0.00000000000E+00  0.31208694762E+03  0.31208694762E+03  0.00000000000E+00 0.  1.
          1   -1    0    0  501    0  0.00000000000E+00 -0.00000000000E+00 -0.47811881238E+02  0.47811881238E+02  0.00000000000E+00 0. -1.
         23    2    1    2    0    0 -0.55139711095E+02 -0.98168370457E+00  0.10382907087E+03  0.14915190910E+03  0.91784882127E+02 0.  0.
          5    1    1    2  502    0  0.69856503416E+02  0.49322803379E+02  0.10683343553E+03  0.13692385822E+03  0.47000000000E+01 0.  1.
         -5    1    1    2    0  502 -0.14716792321E+02 -0.48341119674E+02  0.53612559979E+02  0.73823061540E+02  0.47000000000E+01 0.  1.
        -11    1    3    3    0    0  0.14051015839E+02 -0.10830878832E+02  0.68657412222E+02  0.70912475880E+02  0.00000000000E+00 0.  1.
         11    1    3    3    0    0 -0.69190726934E+02  0.98491951274E+01  0.35171658652E+02  0.78239433221E+02  0.00000000000E+00 0. -1.
<mgrwt>
<rscale>  0 0.12856314E+03</rscale>
<asrwt>0</asrwt>
<pdfrwt beam="2">  1        1 0.73556742E-02 0.13664314E+03</pdfrwt>
<pdfrwt beam="1">  1       -1 0.48013375E-01 0.13664314E+03</pdfrwt>
<totfact> 0.41401612E+03</totfact>
</mgrwt>
</event>
<event>
 7    1  0.1446636E-005  0.2186163E+03  0.7546771E-02  0.1134919E+00
         -3   -1    0    0    0  501 -0.00000000000E+00  0.00000000000E+00  0.44417873499E+03  0.44417873499E+03  0.00000000000E+00 0.  1.
          3   -1    0    0  501    0  0.00000000000E+00 -0.00000000000E+00 -0.26899683573E+02  0.26899683573E+02  0.00000000000E+00 0. -1.
         23    2    1    2    0    0  0.11740831085E+01  0.94561814040E+01  0.15095471451E+03  0.17672364216E+03  0.91395415784E+02 0.  0.
          5    1    1    2  502    0  0.15455858845E+02 -0.51732704641E+02  0.22913321050E+03  0.23545546172E+03  0.47000000000E+01 0.  1.
         -5    1    1    2    0  502 -0.16629941953E+02  0.42276523237E+02  0.37191126402E+02  0.58899314676E+02  0.47000000000E+01 0.  1.
        -11    1    3    3    0    0 -0.20812641442E+02  0.27815336162E+02  0.14276640755E+03  0.14693231807E+03  0.00000000000E+00 0.  1.
         11    1    3    3    0    0  0.21986724551E+02 -0.18359154758E+02  0.81883069642E+01  0.29791324087E+02  0.00000000000E+00 0. -1.
<mgrwt>
<rscale>  0 0.21861626E+03</rscale>
<asrwt>0</asrwt>
<pdfrwt beam="2">  1        3 0.41384132E-02 0.21861626E+03</pdfrwt>
<pdfrwt beam="1">  1       -3 0.68335184E-01 0.21861626E+03</pdfrwt>
<totfact> 0.15952500E+03</totfact>
</mgrwt>
</event>
<event>
 7    1  0.1446636E-005  0.1330985E+03  0.7546771E-02  0.1235450E+00
          2   -1    0    0  501    0  0.00000000000E+00  0.00000000000E+00  0.97495380016E+02  0.97495380016E+02  0.00000000000E+00 0. -1.
         -2   -1    0    0    0  501 -0.00000000000E+00 -0.00000000000E+00 -0.14321983812E+03  0.14321983812E+03  0.00000000000E+00 0.  1.
         23    2    1    2    0    0  0.15882781398E+02 -0.42739519340E+02 -0.12210901292E+02  0.10346231738E+03  0.92067452170E+02 0.  0.
          5    1    1    2  502    0  0.15047648739E+02  0.43266862880E+02  0.37671001541E+02  0.59494936870E+02  0.47000000000E+01 0. -1.
         -5    1    1    2    0  502 -0.30930430138E+02 -0.52734354017E+00 -0.71184558358E+02  0.77757963890E+02  0.47000000000E+01 0. -1.
        -11    1    3    3    0    0  0.46175581293E+02 -0.81220794788E+01  0.15953983896E+02  0.49524560422E+02  0.00000000000E+00 0. -1.
         11    1    3    3    0    0 -0.30292799895E+02 -0.34617439861E+02 -0.28164885189E+02  0.53937756958E+02  0.00000000000E+00 0.  1.
<mgrwt>
<rscale>  0 0.12475669E+03</rscale>
<asrwt>0</asrwt>
<pdfrwt beam="1">  1        2 0.14999289E-01 0.13309846E+03</pdfrwt>
<pdfrwt beam="2">  1       -2 0.22033821E-01 0.13309846E+03</pdfrwt>
<totfact> 0.65507778E+03</totfact>
</mgrwt>
</event>
<event>
 7    1  0.1446636E-005  0.1533154E+03  0.7546771E-02  0.1203891E+00
         -1   -1    0    0    0  501 -0.00000000000E+00  0.00000000000E+00  0.43179971910E+02  0.43179971910E+02  0.00000000000E+00 0.  1.
          1   -1    0    0  501    0  0.00000000000E+00 -0.00000000000E+00 -0.48687127937E+03  0.48687127937E+03  0.00000000000E+00 0. -1.
         23    2    1    2    0    0  0.83858609111E+02  0.29241809415E+02 -0.25911351279E+03  0.29010422509E+03  0.95568295816E+02 0.  0.
          5    1    1    2  502    0 -0.46378863321E+02  0.13236768966E+02 -0.17550877986E+01  0.48491044006E+02  0.47000000000E+01 0.  1.
         -5    1    1    2    0  502 -0.37479745789E+02 -0.42478578381E+02 -0.18282270687E+03  0.19145598218E+03  0.47000000000E+01 0.  1.
        -11    1    3    3    0    0  0.82846186598E+02  0.58353306559E+02 -0.20119944087E+03  0.22527719376E+03  0.00000000000E+00 0. -1.
         11    1    3    3    0    0  0.10124225125E+01 -0.29111497144E+02 -0.57914071923E+02  0.64827031337E+02  0.00000000000E+00 0.  1.
<mgrwt>
<rscale>  0 0.14725205E+03</rscale>
<asrwt>0</asrwt>
<pdfrwt beam="2">  1        1 0.74903271E-01 0.15331540E+03</pdfrwt>
<pdfrwt beam="1">  1       -1 0.66430728E-02 0.15331540E+03</pdfrwt>
<totfact> 0.51918582E+03</totfact>
</mgrwt>
</event>
<event>
 7    1  0.1446636E-005  0.1396279E+03  0.7546771E-02  0.1224943E+00
          2   -1    0    0  501    0  0.00000000000E+00  0.00000000000E+00  0.26030353856E+03  0.26030353856E+03  0.00000000000E+00 0. -1.
         -2   -1    0    0    0  501 -0.00000000000E+00 -0.00000000000E+00 -0.72714401996E+02  0.72714401996E+02  0.00000000000E+00 0.  1.
         23    2    1    2    0    0 -0.16898892250E+02  0.59877017799E+02  0.15372036457E+03  0.18934104143E+03  0.91374228671E+02 0.  0.
          5    1    1    2  502    0  0.48125501783E+02 -0.44343836000E+02  0.68113923199E+02  0.94572914974E+02  0.47000000000E+01 0. -1.
         -5    1    1    2    0  502 -0.31226609533E+02 -0.15533181799E+02 -0.34245151200E+02  0.49103984160E+02  0.47000000000E+01 0. -1.
        -11    1    3    3    0    0 -0.45683035838E+01 -0.22914028550E+02  0.55959323156E+02  0.60641305643E+02  0.00000000000E+00 0. -1.
         11    1    3    3    0    0 -0.12330588666E+02  0.82791046349E+02  0.97761041414E+02  0.12869973578E+03  0.00000000000E+00 0.  1.
<mgrwt>
<rscale>  0 0.13170840E+03</rscale>
<asrwt>0</asrwt>
<pdfrwt beam="1">  1        2 0.40046698E-01 0.13962793E+03</pdfrwt>
<pdfrwt beam="2">  1       -2 0.11186831E-01 0.13962793E+03</pdfrwt>
<totfact> 0.67442869E+03</totfact>
</mgrwt>
</event>
<event>
 7    1  0.1446636E-005  0.1362069E+03  0.7546771E-02  0.1235334E+00
         -1   -1    0    0    0  501 -0.00000000000E+00  0.00000000000E+00  0.25014237996E+03  0.25014237996E+03  0.00000000000E+00 0.  1.
          1   -1    0    0  501    0  0.00000000000E+00 -0.00000000000E+00 -0.69186384939E+02  0.69186384939E+02  0.00000000000E+00 0. -1.
         23    2    1    2    0    0 -0.33097339656E+02 -0.42824269954E+02  0.42033059798E+01  0.96183445873E+02  0.79399215925E+02 0.  0.
          5    1    1    2  502    0 -0.39163547127E+02  0.21394544990E+02  0.19956260397E+02  0.49110612987E+02  0.47000000000E+01 0. -1.
         -5    1    1    2    0  502  0.72260886783E+02  0.21429724964E+02  0.15679642865E+03  0.17403470604E+03  0.47000000000E+01 0. -1.
        -11    1    3    3    0    0  0.95732680313E+01 -0.45134312678E+02  0.20448372575E+02  0.50466717574E+02  0.00000000000E+00 0.  1.
         11    1    3    3    0    0 -0.42670607687E+02  0.23100427234E+01 -0.16245066595E+02  0.45716728300E+02  0.00000000000E+00 0. -1.
<mgrwt>
<rscale>  0 0.12483048E+03</rscale>
<asrwt>0</asrwt>
<pdfrwt beam="2">  1        1 0.10644059E-01 0.13620690E+03</pdfrwt>
<pdfrwt beam="1">  1       -1 0.38483443E-01 0.13620690E+03</pdfrwt>
<totfact> 0.37445460E+03</totfact>
</mgrwt>
</event>
<event>
 7    1  0.1446636E-005  0.1363447E+03  0.7546771E-02  0.1229633E+00
          2   -1    0    0  501    0  0.00000000000E+00  0.00000000000E+00  0.23924889024E+03  0.23924889024E+03  0.00000000000E+00 0. -1.
         -2   -1    0    0    0  501 -0.00000000000E+00 -0.00000000000E+00 -0.64479787842E+02  0.64479787842E+02  0.00000000000E+00 0.  1.
         23    2    1    2    0    0 -0.54002364420E+02  0.70450037206E+01  0.10558549277E+03  0.15083570117E+03  0.92936672113E+02 0.  0.
          5    1    1    2  502    0  0.16354493828E+02 -0.64756313107E+02  0.39327726531E+02  0.77650561039E+02  0.47000000000E+01 0.  1.
         -5    1    1    2    0  502  0.37647870592E+02  0.57711309386E+02  0.29855883097E+02  0.75242415875E+02  0.47000000000E+01 0.  1.
        -11    1    3    3    0    0  0.20500143904E+02  0.23397849330E+02  0.25340447109E+02  0.40122979862E+02  0.00000000000E+00 0.  1.
         11    1    3    3    0    0 -0.74502508324E+02 -0.16352845609E+02  0.80245045666E+02  0.11071272131E+03  0.00000000000E+00 0. -1.
<mgrwt>
<rscale>  0 0.12854365E+03</rscale>
<asrwt>0</asrwt>
<pdfrwt beam="1">  1        2 0.36807521E-01 0.13634475E+03</pdfrwt>
<pdfrwt beam="2">  1       -2 0.99199675E-02 0.13634475E+03</pdfrwt>
<totfact> 0.89062461E+03</totfact>
</mgrwt>
</event>
<event>
 7    1  0.1446636E-005  0.1368853E+03  0.7546771E-02  0.1229336E+00
         -3   -1    0    0    0  501 -0.00000000000E+00  0.00000000000E+00  0.41535598067E+03  0.41535598067E+03  0.00000000000E+00 0.  1.
          3   -1    0    0  501    0  0.00000000000E+00 -0.00000000000E+00 -0.36013683107E+02  0.36013683107E+02  0.00000000000E+00 0. -1.
         23    2    1    2    0    0  0.44301458550E+02 -0.33885279462E+02  0.18261994101E+03  0.21170893733E+03  0.91431941357E+02 0.  0.
          5    1    1    2  502    0  0.37556007642E+02  0.26699061691E+02  0.34507058018E+02  0.57759160817E+02  0.47000000000E+01 0.  1.
         -5    1    1    2    0  502 -0.81857466191E+02  0.71862177710E+01  0.16221529854E+03  0.18190156562E+03  0.47000000000E+01 0.  1.
        -11    1    3    3    0    0 -0.11769577205E+02  0.83993461715E+01 -0.16088974157E+01  0.14548557131E+02  0.00000000000E+00 0. -1.
         11    1    3    3    0    0  0.56071035755E+02 -0.42284625634E+02  0.18422883842E+03  0.19716038020E+03  0.00000000000E+00 0.  1.
<mgrwt>
<rscale>  0 0.12874073E+03</rscale>
<asrwt>0</asrwt>
<pdfrwt beam="2">  1        3 0.55405669E-02 0.13688527E+03</pdfrwt>
<pdfrwt beam="1">  1       -3 0.63900917E-01 0.13688527E+03</pdfrwt>
<totfact> 0.10778704E+03</totfact>
</mgrwt>
</event>
<event>
 7    1  0.1446636E-005  0.2011375E+03  0.7546771E-02  0.1155458E+00
          2   -1    0    0  501    0  0.00000000000E+00  0.00000000000E+00  0.29871119254E+03  0.29871119254E+03  0.00000000000E+00 0. -1.
         -2   -1    0    0    0  501 -0.00000000000E+00 -0.00000000000E+00 -0.18928781074E+03  0.18928781074E+03  0.00000000000E+00 0.  1.
         23    2    1    2    0    0  0.54904025977E+02 -0.14770692112E+03  0.20317595686E+03  0.26608499775E+03  0.68476053970E+02 0.  0.
          5    1    1    2  502    0  0.40274956541E+01  0.14055335898E+03 -0.56118749826E+02  0.15146904477E+03  0.47000000000E+01 0. -1.
         -5    1    1    2    0  502 -0.58931521632E+02  0.71535621365E+01 -0.37633825236E+02  0.70444960749E+02  0.47000000000E+01 0. -1.
        -11    1    3    3    0    0  0.37981038230E+02 -0.71562640007E+02  0.52862700460E+02  0.96737975013E+02  0.00000000000E+00 0. -1.
         11    1    3    3    0    0  0.16922987747E+02 -0.76144281113E+02  0.15031325640E+03  0.16934702274E+03  0.00000000000E+00 0.  1.
<mgrwt>
<rscale>  0 0.19336847E+03</rscale>
<asrwt>0</asrwt>
<pdfrwt beam="1">  1        2 0.45955568E-01 0.20113747E+03</pdfrwt>
<pdfrwt beam="2">  1       -2 0.29121202E-01 0.20113747E+03</pdfrwt>
<totfact> 0.11806514E+03</totfact>
</mgrwt>
</event>
<event>
 7    1  0.1446636E-005  0.2046916E+03  0.7546771E-02  0.1149919E+00
          3   -1    0    0  501    0  0.00000000000E+00  0.00000000000E+00  0.29978269188E+03  0.29978269188E+03  0.00000000000E+00 0. -1.
         -3   -1    0    0    0  501 -0.00000000000E+00 -0.00000000000E+00 -0.18662085395E+03  0.18662085395E+03  0.00000000000E+00 0.  1.
         23    2    1    2    0    0  0.11259957848E+03  0.11659598381E+03  0.19190307636E+03  0.26708907709E+03  0.90755142398E+02 0.  0.
          5    1    1    2  502    0 -0.58210198515E+02  0.15988523298E+02 -0.32124285285E+02  0.68542831817E+02  0.47000000000E+01 0. -1.
         -5    1    1    2    0  502 -0.54389379968E+02 -0.13258450711E+03 -0.46616953139E+02  0.15077163692E+03  0.47000000000E+01 0. -1.
        -11    1    3    3    0    0  0.12207963851E+03  0.75681207773E+02  0.15265766911E+03  0.20960784166E+03  0.00000000000E+00 0. -1.
         11    1    3    3    0    0 -0.94800600290E+01  0.40914776038E+02  0.39245407251E+02  0.57481235431E+02  0.00000000000E+00 0.  1.
<mgrwt>
<rscale>  0 0.19978727E+03</rscale>
<asrwt>0</asrwt>
<pdfrwt beam="1">  1        3 0.46120414E-01 0.20469161E+03</pdfrwt>
<pdfrwt beam="2">  1       -3 0.28710901E-01 0.20469161E+03</pdfrwt>
<totfact> 0.13392808E+02</totfact>
</mgrwt>
</event>
<event>
 7    1  0.1446636E-005  0.1651402E+03  0.7546771E-02  0.1190015E+00
         -2   -1    0    0    0  501 -0.00000000000E+00  0.00000000000E+00  0.14373868970E+03  0.14373868970E+03  0.00000000000E+00 0.  1.
          2   -1    0    0  501    0  0.00000000000E+00 -0.00000000000E+00 -0.16629396142E+03  0.16629396142E+03  0.00000000000E+00 0. -1.
         23    2    1    2    0    0  0.10498492758E+03 -0.24982560997E+02 -0.30921963237E+02  0.14468064368E+03  0.91270792002E+02 0.  0.
          5    1    1    2  502    0 -0.97149467839E+02 -0.23136930085E+02 -0.28600971490E+02  0.10398770218E+03  0.47000000000E+01 0. -1.
         -5    1    1    2    0  502 -0.78354597437E+01  0.48119491082E+02  0.36967663002E+02  0.61364305253E+02  0.47000000000E+01 0. -1.
        -11    1    3    3    0    0  0.76909108715E+02 -0.57650472212E+02 -0.95372392790E+01  0.96589579576E+02  0.00000000000E+00 0.  1.
         11    1    3    3    0    0  0.28075818867E+02  0.32667911215E+02 -0.21384723958E+02  0.48091064107E+02  0.00000000000E+00 0. -1.
<mgrwt>
<rscale>  0 0.15883786E+03</rscale>
<asrwt>0</asrwt>
<pdfrwt beam="2">  1        2 0.25583686E-01 0.16514020E+03</pdfrwt>
<pdfrwt beam="1">  1       -2 0.22113645E-01 0.16514020E+03</pdfrwt>
<totfact> 0.35946776E+03</totfact>
</mgrwt>
</event>
<event>
 7    1  0.1446636E-005  0.1420398E+03  0.7546771E-02  0.1221504E+00
          2   -1    0    0  501    0  0.00000000000E+00  0.00000000000E+00  0.22722608034E+03  0.22722608034E+03  0.00000000000E+00 0. -1.
         -2   -1    0    0    0  501 -0.00000000000E+00 -0.00000000000E+00 -0.71515013933E+02  0.71515013933E+02  0.00000000000E+00 0.  1.
         23    2    1    2    0    0 -0.31017583061E+02 -0.59903842687E+02  0.72791439713E+02  0.13426929349E+03  0.90438314071E+02 0.  0.
          5    1    1    2  502    0  0.84779652181E+01 -0.34653156575E+02 -0.95444050240E+00  0.35996084670E+02  0.47000000000E+01 0. -1.
         -5    1    1    2    0  502  0.22539617843E+02  0.94556999262E+02  0.83874067196E+02  0.12847571611E+03  0.47000000000E+01 0. -1.
        -11    1    3    3    0    0 -0.28226694933E+01 -0.27058145896E+02 -0.18728667948E+02  0.33028377579E+02  0.00000000000E+00 0.  1.
         11    1    3    3    0    0 -0.28194913568E+02 -0.32845696791E+02  0.91520107661E+02  0.10124091591E+03  0.00000000000E+00 0. -1.
<mgrwt>
<rscale>  0 0.13409409E+03</rscale>
<asrwt>0</asrwt>
<pdfrwt beam="1">  1        2 0.34957858E-01 0.14203981E+03</pdfrwt>
<pdfrwt beam="2">  1       -2 0.11002310E-01 0.14203981E+03</pdfrwt>
<totfact> 0.80159475E+03</totfact>
</mgrwt>
</event>
<event>
 7    1  0.1446636E-005  0.1504246E+03  0.7546771E-02  0.1209012E+00
          2   -1    0    0  501    0  0.00000000000E+00  0.00000000000E+00  0.77496285913E+03  0.77496285913E+03  0.00000000000E+00 0. -1.
         -2   -1    0    0    0  501 -0.00000000000E+00 -0.00000000000E+00 -0.24261531515E+02  0.24261531515E+02  0.00000000000E+00 0.  1.
         23    2    1    2    0    0 -0.43751557805E+02 -0.71352575166E+02  0.34807793617E+03  0.36941845496E+03  0.91139214525E+02 0.  0.
          5    1    1    2  502    0  0.26362878870E+02  0.20456103354E+02  0.12464467457E+02  0.35929187240E+02  0.47000000000E+01 0. -1.
         -5    1    1    2    0  502  0.17388678935E+02  0.50896471812E+02  0.39015892399E+03  0.39387674845E+03  0.47000000000E+01 0. -1.
        -11    1    3    3    0    0  0.35073951441E+01 -0.43716725828E+02  0.50672146328E+02  0.67015821649E+02  0.00000000000E+00 0.  1.
         11    1    3    3    0    0 -0.47258952949E+02 -0.27635849338E+02  0.29740578984E+03  0.30240263331E+03  0.00000000000E+00 0. -1.
<mgrwt>
<rscale>  0 0.14325742E+03</rscale>
<asrwt>0</asrwt>
<pdfrwt beam="1">  1        2 0.11922504E+00 0.15042456E+03</pdfrwt>
<pdfrwt beam="2">  1       -2 0.37325439E-02 0.15042456E+03</pdfrwt>
<totfact> 0.10869399E+04</totfact>
</mgrwt>
</event>
<event>
 7    1  0.1446636E-005  0.1368628E+03  0.7546771E-02  0.1229402E+00
         -1   -1    0    0    0  501 -0.00000000000E+00  0.00000000000E+00  0.24960740097E+02  0.24960740097E+02  0.00000000000E+00 0.  1.
          1   -1    0    0  501    0  0.00000000000E+00 -0.00000000000E+00 -0.71648016174E+03  0.71648016174E+03  0.00000000000E+00 0. -1.
         23    2    1    2    0    0  0.10281849583E+02  0.54817794395E+02 -0.46184693115E+03  0.47408180507E+03  0.91325040759E+02 0.  0.
          5    1    1    2  502    0 -0.95696510071E+01 -0.69741024947E+02 -0.48740066549E+02  0.85750060456E+02  0.47000000000E+01 0. -1.
         -5    1    1    2    0  502 -0.71219857592E+00  0.14923230552E+02 -0.18093242395E+03  0.18160903632E+03  0.47000000000E+01 0. -1.
        -11    1    3    3    0    0  0.18875901754E+02 -0.19702380427E+02 -0.70209781050E+02  0.75325273425E+02  0.00000000000E+00 0.  1.
         11    1    3    3    0    0 -0.85940521710E+01  0.74520174822E+02 -0.39163715010E+03  0.39875653164E+03  0.00000000000E+00 0. -1.
<mgrwt>
<rscale>  0 0.12869729E+03</rscale>
<asrwt>0</asrwt>
<pdfrwt beam="2">  1        1 0.11022769E+00 0.13686283E+03</pdfrwt>
<pdfrwt beam="1">  1       -1 0.38401149E-02 0.13686283E+03</pdfrwt>
<totfact> 0.68692319E+03</totfact>
</mgrwt>
</event>
<event>
 7    1  0.1446636E-005  0.1290505E+03  0.7546771E-02  0.1242362E+00
          1   -1    0    0  501    0  0.00000000000E+00  0.00000000000E+00  0.40511386405E+03  0.40511386405E+03  0.00000000000E+00 0. -1.
         -1   -1    0    0    0  501 -0.00000000000E+00 -0.00000000000E+00 -0.49911092710E+02  0.49911092710E+02  0.00000000000E+00 0.  1.
         23    2    1    2    0    0  0.30676454487E+02  0.93629631953E+01  0.29834351762E+03  0.31400370019E+03  0.92524371296E+02 0.  0.
          5    1    1    2  502    0  0.38613821265E+02 -0.29940960877E+01 -0.14141620001E+02  0.41497797777E+02  0.47000000000E+01 0.  1.
         -5    1    1    2    0  502 -0.69290275753E+02 -0.63688671076E+01  0.71000873720E+02  0.99523458798E+02  0.47000000000E+01 0.  1.
        -11    1    3    3    0    0 -0.22858316237E+02 -0.10554033263E+02  0.27843481477E+02  0.37538642758E+02  0.00000000000E+00 0.  1.
         11    1    3    3    0    0  0.53534770724E+02  0.19916996458E+02  0.27050003615E+03  0.27646505743E+03  0.00000000000E+00 0. -1.
<mgrwt>
<rscale>  0 0.12044644E+03</rscale>
<asrwt>0</asrwt>
<pdfrwt beam="1">  1        1 0.62325208E-01 0.12905046E+03</pdfrwt>
<pdfrwt beam="2">  1       -1 0.76786299E-02 0.12905046E+03</pdfrwt>
<totfact> 0.52360951E+03</totfact>
</mgrwt>
</event>
<event>
 7    1  0.1446636E-005  0.1469170E+03  0.7546771E-02  0.1214179E+00
         -1   -1    0    0    0  501 -0.00000000000E+00  0.00000000000E+00  0.15123232072E+03  0.15123232072E+03  0.00000000000E+00 0.  1.
          1   -1    0    0  501    0  0.00000000000E+00 -0.00000000000E+00 -0.12477302716E+03  0.12477302716E+03  0.00000000000E+00 0. -1.
         23    2    1    2    0    0 -0.63766339865E+02 -0.43510143537E+02 -0.22616876572E+02  0.12110836308E+03  0.90534158252E+02 0.  0.
          5    1    1    2  502    0 -0.18599727387E+02 -0.61936194197E+01  0.54820936455E+02  0.58410066378E+02  0.47000000000E+01 0.  1.
         -5    1    1    2    0  502  0.82366067252E+02  0.49703762957E+02 -0.57447663283E+01  0.96486918424E+02  0.47000000000E+01 0.  1.
        -11    1    3    3    0    0 -0.78230698390E+02 -0.58338194241E+02 -0.23491376189E+02  0.10037545434E+03  0.00000000000E+00 0. -1.
         11    1    3    3    0    0  0.14464358525E+02  0.14828050704E+02  0.87449961671E+00  0.20732908739E+02  0.00000000000E+00 0.  1.
<mgrwt>
<rscale>  0 0.13937039E+03</rscale>
<asrwt>0</asrwt>
<pdfrwt beam="2">  1        1 0.19195850E-01 0.14691700E+03</pdfrwt>
<pdfrwt beam="1">  1       -1 0.23266511E-01 0.14691700E+03</pdfrwt>
<totfact> 0.40757030E+03</totfact>
</mgrwt>
</event>
<event>
 7    1  0.1446636E-005  0.1699089E+03  0.7546771E-02  0.1186931E+00
         -2   -1    0    0    0  501 -0.00000000000E+00  0.00000000000E+00  0.34426188340E+03  0.34426188340E+03  0.00000000000E+00 0.  1.
          2   -1    0    0  501    0  0.00000000000E+00 -0.00000000000E+00 -0.87273478332E+02  0.87273478332E+02  0.00000000000E+00 0. -1.
         23    2    1    2    0    0 -0.11078388996E+03 -0.31150167538E+02  0.20664801198E+02  0.14047202013E+03  0.77858533369E+02 0.  0.
          5    1    1    2  502    0  0.86509095596E+02 -0.24879478739E+02  0.70943349535E+02  0.11470771956E+03  0.47000000000E+01 0. -1.
         -5    1    1    2    0  502  0.24274794361E+02  0.56029646277E+02  0.16538025433E+03  0.17635562204E+03  0.47000000000E+01 0. -1.
        -11    1    3    3    0    0 -0.10238159301E+03  0.35515481657E+01  0.21851917457E+02  0.10474784187E+03  0.00000000000E+00 0. -1.
         11    1    3    3    0    0 -0.84022969514E+01 -0.34701715704E+02 -0.11871162590E+01  0.35724178253E+02  0.00000000000E+00 0.  1.
<mgrwt>
<rscale>  0 0.16157410E+03</rscale>
<asrwt>0</asrwt>
<pdfrwt beam="2">  1        2 0.13426689E-01 0.16990887E+03</pdfrwt>
<pdfrwt beam="1">  1       -2 0.52963366E-01 0.16990887E+03</pdfrwt>
<totfact> 0.14955778E+03</totfact>
</mgrwt>
</event>
<event>
 7    1  0.1446636E-005  0.1960032E+03  0.7546771E-02  0.1165650E+00
         -1   -1    0    0    0  501 -0.00000000000E+00  0.00000000000E+00  0.41439414299E+03  0.41439414299E+03  0.00000000000E+00 0.  1.
          1   -1    0    0  501    0  0.00000000000E+00 -0.00000000000E+00 -0.24230264912E+03  0.24230264912E+03  0.00000000000E+00 0. -1.
         23    2    1    2    0    0 -0.11021707539E+03  0.36473414889E+02 -0.19301153280E+03  0.24230873840E+03  0.89341811088E+02 0.  0.
          5    1    1    2  502    0  0.14075939440E+02  0.14839093341E+02 -0.10358005340E+02  0.23403184333E+02  0.47000000000E+01 0. -1.
         -5    1    1    2    0  502  0.96141135954E+02 -0.51312508230E+02  0.37546103202E+03  0.39098486938E+03  0.47000000000E+01 0.  1.
        -11    1    3    3    0    0 -0.89352488934E+02  0.54582507802E+02 -0.18656639562E+03  0.21393956486E+03  0.00000000000E+00 0. -1.
         11    1    3    3    0    0 -0.20864586459E+02 -0.18109092913E+02 -0.64451371832E+01  0.28369173544E+02  0.00000000000E+00 0.  1.
<mgrwt>
<rscale>  0 0.18224315E+03</rscale>
<asrwt>0</asrwt>
<pdfrwt beam="2">  1        1 0.37277331E-01 0.19600316E+03</pdfrwt>
<pdfrwt beam="1">  1       -1 0.63752945E-01 0.19600316E+03</pdfrwt>
<totfact> 0.30016411E+02</totfact>
</mgrwt>
</event>
<event>
 7    1  0.1446636E-005  0.1176919E+03  0.7546771E-02  0.1254860E+00
         -1   -1    0    0    0  501 -0.00000000000E+00  0.00000000000E+00  0.20619008647E+03  0.20619008647E+03  0.00000000000E+00 0.  1.
          1   -1    0    0  501    0  0.00000000000E+00 -0.00000000000E+00 -0.57901125652E+02  0.57901125652E+02  0.00000000000E+00 0. -1.
         23    2    1    2    0    0 -0.21415892054E+02 -0.33471370680E+02  0.61246080700E+02  0.11770866268E+03  0.92332409154E+02 0.  0.
          5    1    1    2  502    0 -0.51757599245E+01 -0.30252514787E+02  0.67762807181E+02  0.74537850645E+02  0.47000000000E+01 0. -1.
         -5    1    1    2    0  502  0.26591651978E+02  0.63723885466E+02  0.19280072941E+02  0.71844698805E+02  0.47000000000E+01 0.  1.
        -11    1    3    3    0    0 -0.29472345181E+02  0.60589150933E+01  0.70206658541E+02  0.76382619005E+02  0.00000000000E+00 0.  1.
         11    1    3    3    0    0  0.80564531273E+01 -0.39530285773E+02 -0.89605778406E+01  0.41326043671E+02  0.00000000000E+00 0. -1.
<mgrwt>
<rscale>  0 0.11314177E+03</rscale>
<asrwt>0</asrwt>
<pdfrwt beam="2">  1        1 0.89078656E-02 0.11769192E+03</pdfrwt>
<pdfrwt beam="1">  1       -1 0.31721551E-01 0.11769192E+03</pdfrwt>
<totfact> 0.65358286E+03</totfact>
</mgrwt>
</event>
<event>
 7    1  0.1446636E-005  0.1722684E+03  0.7546771E-02  0.1181384E+00
          3   -1    0    0  501    0  0.00000000000E+00  0.00000000000E+00  0.16451428388E+03  0.16451428388E+03  0.00000000000E+00 0. -1.
         -3   -1    0    0    0  501 -0.00000000000E+00 -0.00000000000E+00 -0.38797619553E+03  0.38797619553E+03  0.00000000000E+00 0.  1.
         23    2    1    2    0    0 -0.80060864151E+02  0.87674373913E+02  0.10346790288E+03  0.18295091134E+03  0.93106880657E+02 0.  0.
          5    1    1    2  502    0  0.24850865104E+02 -0.76930156249E+01 -0.23234172454E+03  0.23384078974E+03  0.47000000000E+01 0. -1.
         -5    1    1    2    0  502  0.55209999047E+02 -0.79981358288E+02 -0.94588090000E+02  0.13569877832E+03  0.47000000000E+01 0. -1.
        -11    1    3    3    0    0 -0.79905496800E+02  0.40871870376E+02  0.27764726399E+02  0.93948274273E+02  0.00000000000E+00 0.  1.
         11    1    3    3    0    0 -0.15536735138E+00  0.46802503537E+02  0.75703176481E+02  0.89002637072E+02  0.00000000000E+00 0. -1.
<mgrwt>
<rscale>  0 0.16665319E+03</rscale>
<asrwt>0</asrwt>
<pdfrwt beam="1">  1        3 0.25309890E-01 0.17226836E+03</pdfrwt>
<pdfrwt beam="2">  1       -3 0.59688645E-01 0.17226836E+03</pdfrwt>
<totfact> 0.98457895E+01</totfact>
</mgrwt>
</event>
<event>
 7    1  0.1446636E-005  0.1826938E+03  0.7546771E-02  0.1170595E+00
         -1   -1    0    0    0  501 -0.00000000000E+00  0.00000000000E+00  0.42731718086E+02  0.42731718086E+02  0.00000000000E+00 0.  1.
          1   -1    0    0  501    0  0.00000000000E+00 -0.00000000000E+00 -0.69309007261E+03  0.69309007261E+03  0.00000000000E+00 0. -1.
         23    2    1    2    0    0 -0.71434005993E+02  0.11246921332E+03 -0.30255404705E+03  0.34295432138E+03  0.91250063079E+02 0.  0.
          5    1    1    2  502    0  0.98678009402E+01 -0.54514969748E+02 -0.28410328148E+02  0.62437906495E+02  0.47000000000E+01 0.  1.
         -5    1    1    2    0  502  0.61566205053E+02 -0.57954243575E+02 -0.31939397933E+03  0.33042956281E+03  0.47000000000E+01 0.  1.
        -11    1    3    3    0    0  0.94216546644E+01  0.68391096437E+02 -0.14109307909E+03  0.15707758152E+03  0.00000000000E+00 0.  1.
         11    1    3    3    0    0 -0.80855660658E+02  0.44078116885E+02 -0.16146096796E+03  0.18587673987E+03  0.00000000000E+00 0. -1.
<mgrwt>
<rscale>  0 0.17714487E+03</rscale>
<asrwt>0</asrwt>
<pdfrwt beam="2">  1        1 0.10662924E+00 0.18269377E+03</pdfrwt>
<pdfrwt beam="1">  1       -1 0.65741105E-02 0.18269377E+03</pdfrwt>
<totfact> 0.32815453E+03</totfact>
</mgrwt>
</event>
<event>
 7    1  0.1446636E-005  0.1327674E+03  0.7546771E-02  0.1237144E+00
         -2   -1    0    0    0  501 -0.00000000000E+00  0.00000000000E+00  0.17990807161E+02  0.17990807161E+02  0.00000000000E+00 0.  1.
          2   -1    0    0  501    0  0.00000000000E+00 -0.00000000000E+00 -0.75837291067E+03  0.75837291067E+03  0.00000000000E+00 0. -1.
         23    2    1    2    0    0 -0.19769796546E+02 -0.40500354767E+02 -0.35133590075E+03  0.36528693106E+03  0.89255270169E+02 0.  0.
          5    1    1    2  502    0 -0.41555039438E+02  0.54604223007E+02 -0.17908299283E+03  0.19183652101E+03  0.47000000000E+01 0.  1.
         -5    1    1    2    0  502  0.61324835984E+02 -0.14103868240E+02 -0.20996320993E+03  0.21924026577E+03  0.47000000000E+01 0.  1.
        -11    1    3    3    0    0  0.33955311901E+02 -0.22518049951E+02 -0.10766228872E+03  0.11511383145E+03  0.00000000000E+00 0.  1.
         11    1    3    3    0    0 -0.53725108447E+02 -0.17982304816E+02 -0.24367361203E+03  0.25017309960E+03  0.00000000000E+00 0. -1.
<mgrwt>
<rscale>  0 0.12368176E+03</rscale>
<asrwt>0</asrwt>
<pdfrwt beam="2">  1        2 0.11667275E+00 0.13276738E+03</pdfrwt>
<pdfrwt beam="1">  1       -2 0.27678166E-02 0.13276738E+03</pdfrwt>
<totfact> 0.17202546E+04</totfact>
</mgrwt>
</event>
<event>
 7    1  0.1446636E-005  0.4258644E+03  0.7546771E-02  0.1082743E+00
          2   -1    0    0  501    0  0.00000000000E+00  0.00000000000E+00  0.87002962108E+03  0.87002962108E+03  0.00000000000E+00 0. -1.
         -2   -1    0    0    0  501 -0.00000000000E+00 -0.00000000000E+00 -0.83275257271E+02  0.83275257271E+02  0.00000000000E+00 0.  1.
         23    2    1    2    0    0 -0.51455547657E+02 -0.39782646525E+02  0.17834982747E+03  0.21066328030E+03  0.91323733828E+02 0.  0.
          5    1    1    2  502    0 -0.97910905265E+02  0.18171364884E+03  0.39652582867E+03  0.44705840596E+03  0.47000000000E+01 0. -1.
         -5    1    1    2    0  502  0.14936645292E+03 -0.14193100232E+03  0.21187870767E+03  0.29558319208E+03  0.47000000000E+01 0.  1.
        -11    1    3    3    0    0  0.13903466484E+02 -0.43297730305E+02  0.58399675148E+02  0.74017037817E+02  0.00000000000E+00 0.  1.
         11    1    3    3    0    0 -0.65359014141E+02  0.35150837804E+01  0.11995015232E+03  0.13664624249E+03  0.00000000000E+00 0. -1.
<mgrwt>
<rscale>  0 0.30505063E+03</rscale>
<asrwt>0</asrwt>
<pdfrwt beam="1">  1        2 0.13385070E+00 0.42586437E+03</pdfrwt>
<pdfrwt beam="2">  1       -2 0.12811579E-01 0.42586437E+03</pdfrwt>
<totfact> 0.14120130E+03</totfact>
</mgrwt>
</event>
<event>
 7    1  0.1446636E-005  0.1411971E+03  0.7546771E-02  0.1222994E+00
         -1   -1    0    0    0  501 -0.00000000000E+00  0.00000000000E+00  0.58225304413E+03  0.58225304413E+03  0.00000000000E+00 0.  1.
          1   -1    0    0  501    0  0.00000000000E+00 -0.00000000000E+00 -0.36435783768E+03  0.36435783768E+03  0.00000000000E+00 0. -1.
         23    2    1    2    0    0  0.77348754461E+01  0.62164511515E+02 -0.34695511078E+03  0.36438025011E+03  0.92037291292E+02 0.  0.
          5    1    1    2  502    0 -0.10221276411E+02  0.38272266486E+02  0.18832765416E+03  0.19250619781E+03  0.47000000000E+01 0. -1.
         -5    1    1    2    0  502  0.24864009650E+01 -0.10043677800E+03  0.37652266307E+03  0.38972443389E+03  0.47000000000E+01 0.  1.
        -11    1    3    3    0    0  0.49448301580E+02  0.24824904921E+02 -0.17581681645E+03  0.18431756124E+03  0.00000000000E+00 0.  1.
         11    1    3    3    0    0 -0.41713426134E+02  0.37339606594E+02 -0.17113829433E+03  0.18006268888E+03  0.00000000000E+00 0. -1.
<mgrwt>
<rscale>  0 0.13305332E+03</rscale>
<asrwt>0</asrwt>
<pdfrwt beam="2">  1        1 0.56055052E-01 0.14119712E+03</pdfrwt>
<pdfrwt beam="1">  1       -1 0.89577391E-01 0.14119712E+03</pdfrwt>
<totfact> 0.91470900E+01</totfact>
</mgrwt>
</event>
<event>
 7    1  0.1446636E-005  0.1658403E+03  0.7546771E-02  0.1188867E+00
          2   -1    0    0  501    0  0.00000000000E+00  0.00000000000E+00  0.16636061944E+03  0.16636061944E+03  0.00000000000E+00 0. -1.
         -2   -1    0    0    0  501 -0.00000000000E+00 -0.00000000000E+00 -0.14943438686E+03  0.14943438686E+03  0.00000000000E+00 0.  1.
         23    2    1    2    0    0  0.64827898817E+02  0.87608759119E+02  0.39329447113E+02  0.14844831504E+03  0.92801647021E+02 0.  0.
          5    1    1    2  502    0 -0.34108705761E+00 -0.34282025175E+01  0.42521599571E+02  0.42919055709E+02  0.47000000000E+01 0. -1.
         -5    1    1    2    0  502 -0.64486811759E+02 -0.84180556601E+02 -0.64924814108E+02  0.12442763555E+03  0.47000000000E+01 0. -1.
        -11    1    3    3    0    0 -0.10684942821E+02  0.49736857290E+02 -0.81839179118E+01  0.51525716769E+02  0.00000000000E+00 0.  1.
         11    1    3    3    0    0  0.75512841638E+02  0.37871901829E+02  0.47513365025E+02  0.96922598275E+02  0.00000000000E+00 0. -1.
<mgrwt>
<rscale>  0 0.15984925E+03</rscale>
<asrwt>0</asrwt>
<pdfrwt beam="1">  1        2 0.25593941E-01 0.16584032E+03</pdfrwt>
<pdfrwt beam="2">  1       -2 0.22989906E-01 0.16584032E+03</pdfrwt>
<totfact> 0.33604547E+03</totfact>
</mgrwt>
</event>
<event>
 7    1  0.1446636E-005  0.1331256E+03  0.7546771E-02  0.1233468E+00
         -1   -1    0    0    0  501 -0.00000000000E+00  0.00000000000E+00  0.11228258630E+04  0.11228258630E+04  0.00000000000E+00 0.  1.
          1   -1    0    0  501    0  0.00000000000E+00 -0.00000000000E+00 -0.21858520234E+02  0.21858520234E+02  0.00000000000E+00 0. -1.
         23    2    1    2    0    0 -0.20271165621E+01  0.45748771389E+02  0.14869990196E+03  0.18315659309E+03  0.96631348241E+02 0.  0.
          5    1    1    2  502    0  0.54439261621E+02  0.23012684369E+01  0.26556695023E+03  0.27113986077E+03  0.47000000000E+01 0.  1.
         -5    1    1    2    0  502 -0.52412145059E+02 -0.48050039826E+02  0.68670049056E+03  0.69038792937E+03  0.47000000000E+01 0.  1.
        -11    1    3    3    0    0  0.38796331309E+02  0.50422312207E+02  0.10784651167E+03  0.12521355745E+03  0.00000000000E+00 0.  1.
         11    1    3    3    0    0 -0.40823447872E+02 -0.46735408182E+01  0.40853390292E+02  0.57943035632E+02  0.00000000000E+00 0. -1.
<mgrwt>
<rscale>  0 0.12603003E+03</rscale>
<asrwt>0</asrwt>
<pdfrwt beam="2">  1        1 0.33628501E-02 0.13312555E+03</pdfrwt>
<pdfrwt beam="1">  1       -1 0.17274240E+00 0.13312555E+03</pdfrwt>
<totfact> 0.73637504E+02</totfact>
</mgrwt>
</event>
<event>
 7    1  0.1446636E-005  0.1433291E+03  0.7546771E-02  0.1219094E+00
          1   -1    0    0  501    0  0.00000000000E+00  0.00000000000E+00  0.39325376258E+03  0.39325376258E+03  0.00000000000E+00 0. -1.
         -1   -1    0    0    0  501 -0.00000000000E+00 -0.00000000000E+00 -0.43793864397E+02  0.43793864397E+02  0.00000000000E+00 0.  1.
         23    2    1    2    0    0  0.23132040730E+02  0.66207971329E+02  0.19248885673E+03  0.22448434796E+03  0.91775136835E+02 0.  0.
          5    1    1    2  502    0  0.49720504056E+02 -0.44519437704E+02  0.66955398692E+02  0.94653178874E+02  0.47000000000E+01 0. -1.
         -5    1    1    2    0  502 -0.72852544786E+02 -0.21688533625E+02  0.90015642768E+02  0.11791010014E+03  0.47000000000E+01 0. -1.
        -11    1    3    3    0    0  0.33659640979E+02  0.67705462391E+01  0.14107728488E+03  0.14519508269E+03  0.00000000000E+00 0. -1.
         11    1    3    3    0    0 -0.10527600249E+02  0.59437425090E+02  0.51411571843E+02  0.79289265274E+02  0.00000000000E+00 0.  1.
<mgrwt>
<rscale>  0 0.13580022E+03</rscale>
<asrwt>0</asrwt>
<pdfrwt beam="1">  1        1 0.60500577E-01 0.14332913E+03</pdfrwt>
<pdfrwt beam="2">  1       -1 0.67375179E-02 0.14332913E+03</pdfrwt>
<totfact> 0.66556434E+03</totfact>
</mgrwt>
</event>
<event>
 7    1  0.1446636E-005  0.1860246E+03  0.7546771E-02  0.1163664E+00
          1   -1    0    0  501    0  0.00000000000E+00  0.00000000000E+00  0.23555006357E+03  0.23555006357E+03  0.00000000000E+00 0. -1.
         -1   -1    0    0    0  501 -0.00000000000E+00 -0.00000000000E+00 -0.14173324973E+03  0.14173324973E+03  0.00000000000E+00 0.  1.
         23    2    1    2    0    0  0.11737243601E+03 -0.71869353541E+02  0.47784532617E+02  0.18564789612E+03  0.11506644630E+03 0.  0.
          5    1    1    2  502    0 -0.15729561364E+02  0.74031905390E+02  0.48173762969E+02  0.89838430279E+02  0.47000000000E+01 0. -1.
         -5    1    1    2    0  502 -0.10164287464E+03 -0.21625518489E+01 -0.21414817452E+01  0.10179698689E+03  0.47000000000E+01 0. -1.
        -11    1    3    3    0    0  0.17022547348E+02 -0.61754044236E+02 -0.16368323576E+02  0.66115437792E+02  0.00000000000E+00 0.  1.
         11    1    3    3    0    0  0.10034988866E+03 -0.10115309305E+02  0.64152856193E+02  0.11953245833E+03  0.00000000000E+00 0. -1.
<mgrwt>
<rscale>  0 0.18434404E+03</rscale>
<asrwt>0</asrwt>
<pdfrwt beam="1">  1        1 0.36238471E-01 0.18602463E+03</pdfrwt>
<pdfrwt beam="2">  1       -1 0.21805115E-01 0.18602463E+03</pdfrwt>
<totfact> 0.20553511E+03</totfact>
</mgrwt>
</event>
<event>
 7    1  0.1976351E-005  0.2323938E+03  0.7546771E-02  0.1128022E+00
         -1   -1    0    0    0  501 -0.00000000000E+00  0.00000000000E+00  0.32089864953E+02  0.32089864953E+02  0.00000000000E+00 0.  1.
          1   -1    0    0  501    0  0.00000000000E+00 -0.00000000000E+00 -0.18089156417E+04  0.18089156417E+04  0.00000000000E+00 0. -1.
         23    2    1    2    0    0  0.18523139849E+03 -0.63807262988E+02 -0.11987813885E+04  0.12179949105E+04  0.89737097821E+02 0.  0.
          5    1    1    2  502    0 -0.88504327706E+02  0.17086629538E+02 -0.10764704245E+03  0.14048111859E+03  0.47000000000E+01 0.  1.
         -5    1    1    2    0  502 -0.96727070787E+02  0.46720633450E+02 -0.47039734582E+03  0.48252947761E+03  0.47000000000E+01 0.  1.
        -11    1    3    3    0    0  0.23569782757E+02  0.19989513674E+02 -0.11790412192E+03  0.12188723182E+03  0.00000000000E+00 0.  1.
         11    1    3    3    0    0  0.16166161574E+03 -0.83796776662E+02 -0.10808772666E+04  0.10961076787E+04  0.00000000000E+00 0. -1.
<mgrwt>
<rscale>  0 0.22804674E+03</rscale>
<asrwt>0</asrwt>
<pdfrwt beam="2">  1        1 0.27829467E+00 0.23239382E+03</pdfrwt>
<pdfrwt beam="1">  1       -1 0.49369030E-02 0.23239382E+03</pdfrwt>
<totfact> 0.80864465E+02</totfact>
</mgrwt>
</event>
<event>
 7    1  0.1446636E-005  0.1339592E+03  0.7546771E-02  0.1234682E+00
          1   -1    0    0  501    0  0.00000000000E+00  0.00000000000E+00  0.35200727980E+03  0.35200727980E+03  0.00000000000E+00 0. -1.
         -1   -1    0    0    0  501 -0.00000000000E+00 -0.00000000000E+00 -0.40656191365E+02  0.40656191365E+02  0.00000000000E+00 0.  1.
         23    2    1    2    0    0 -0.48864334995E+01 -0.47921194855E+02  0.16574385871E+03  0.19480862415E+03  0.90327488577E+02 0.  0.
          5    1    1    2  502    0  0.10363574332E+02 -0.41611341168E+02  0.36329125148E+02  0.56398605664E+02  0.47000000000E+01 0. -1.
         -5    1    1    2    0  502 -0.54771408327E+01  0.89532536023E+02  0.10927810457E+03  0.14145624135E+03  0.47000000000E+01 0. -1.
        -11    1    3    3    0    0 -0.25616199544E+02  0.28679507358E+01  0.67905898733E+01  0.26655711045E+02  0.00000000000E+00 0.  1.
         11    1    3    3    0    0  0.20729766045E+02 -0.50789145591E+02  0.15895326884E+03  0.16815291310E+03  0.00000000000E+00 0. -1.
<mgrwt>
<rscale>  0 0.12524817E+03</rscale>
<asrwt>0</asrwt>
<pdfrwt beam="1">  1        1 0.54154964E-01 0.13395923E+03</pdfrwt>
<pdfrwt beam="2">  1       -1 0.62547989E-02 0.13395923E+03</pdfrwt>
<totfact> 0.85093445E+03</totfact>
</mgrwt>
</event>
<event>
 7    1  0.1446636E-005  0.1718068E+03  0.7546771E-02  0.1182718E+00
          2   -1    0    0  501    0  0.00000000000E+00  0.00000000000E+00  0.73233892568E+03  0.73233892568E+03  0.00000000000E+00 0. -1.
         -2   -1    0    0    0  501 -0.00000000000E+00 -0.00000000000E+00 -0.34883805497E+02  0.34883805497E+02  0.00000000000E+00 0.  1.
         23    2    1    2    0    0 -0.69775595608E+02  0.94992270019E+02  0.33706579129E+03  0.36797587103E+03  0.88886044456E+02 0.  0.
          5    1    1    2  502    0  0.11063315572E+02  0.19473418406E+02  0.15618712299E+03  0.15785473817E+03  0.47000000000E+01 0. -1.
         -5    1    1    2    0  502  0.58712280036E+02 -0.11446568842E+03  0.20420220591E+03  0.24139212197E+03  0.47000000000E+01 0. -1.
        -11    1    3    3    0    0 -0.34815668608E+02  0.42217252213E+02  0.27102780293E+03  0.27649683023E+03  0.00000000000E+00 0. -1.
         11    1    3    3    0    0 -0.34959926999E+02  0.52775017806E+02  0.66037988364E+02  0.91479040809E+02  0.00000000000E+00 0.  1.
<mgrwt>
<rscale>  0 0.16541302E+03</rscale>
<asrwt>0</asrwt>
<pdfrwt beam="1">  1        2 0.11266752E+00 0.17180683E+03</pdfrwt>
<pdfrwt beam="2">  1       -2 0.53667398E-02 0.17180683E+03</pdfrwt>
<totfact> 0.68053885E+03</totfact>
</mgrwt>
</event>
<event>
 7    1  0.1446636E-005  0.1758134E+03  0.7546771E-02  0.1177536E+00
          1   -1    0    0  501    0  0.00000000000E+00  0.00000000000E+00  0.15354725063E+03  0.15354725063E+03  0.00000000000E+00 0. -1.
         -1   -1    0    0    0  501 -0.00000000000E+00 -0.00000000000E+00 -0.17842502899E+03  0.17842502899E+03  0.00000000000E+00 0.  1.
         23    2    1    2    0    0  0.65646670700E+02  0.10478558143E+03 -0.20307270796E+02  0.15609948703E+03  0.93086847375E+02 0.  0.
          5    1    1    2  502    0 -0.89788087689E+02 -0.10968164994E+03  0.16942234621E+02  0.14283239947E+03  0.47000000000E+01 0.  1.
         -5    1    1    2    0  502  0.24141416989E+02  0.48960685145E+01 -0.21512742183E+02  0.33040393117E+02  0.47000000000E+01 0.  1.
        -11    1    3    3    0    0  0.49387662956E+02  0.10412002205E+03 -0.47309909274E+02  0.12457266056E+03  0.00000000000E+00 0.  1.
         11    1    3    3    0    0  0.16259007744E+02  0.66555937296E+00  0.27002638477E+02  0.31526826463E+02  0.00000000000E+00 0. -1.
<mgrwt>
<rscale>  0 0.17029925E+03</rscale>
<asrwt>0</asrwt>
<pdfrwt beam="1">  1        1 0.23622654E-01 0.17581339E+03</pdfrwt>
<pdfrwt beam="2">  1       -1 0.27450004E-01 0.17581339E+03</pdfrwt>
<totfact> 0.24018284E+03</totfact>
</mgrwt>
</event>
<event>
 7    1  0.1446636E-005  0.1322955E+03  0.7546771E-02  0.1237467E+00
          2   -1    0    0  501    0  0.00000000000E+00  0.00000000000E+00  0.25087323047E+03  0.25087323047E+03  0.00000000000E+00 0. -1.
         -2   -1    0    0    0  501 -0.00000000000E+00 -0.00000000000E+00 -0.56291906409E+02  0.56291906409E+02  0.00000000000E+00 0.  1.
         23    2    1    2    0    0  0.40512148125E+02 -0.15384839630E+02  0.11549845243E+03  0.15303468367E+03  0.90563759071E+02 0.  0.
          5    1    1    2  502    0  0.35506528103E+02 -0.25731203357E+02  0.15548857426E+02  0.46761793501E+02  0.47000000000E+01 0. -1.
         -5    1    1    2    0  502 -0.76018676228E+02  0.41116042987E+02  0.63534014213E+02  0.10736865971E+03  0.47000000000E+01 0. -1.
        -11    1    3    3    0    0  0.23448968882E+02  0.27467673070E+02  0.96703971942E+02  0.10322783246E+03  0.00000000000E+00 0. -1.
         11    1    3    3    0    0  0.17063179243E+02 -0.42852512700E+02  0.18794480485E+02  0.49806851209E+02  0.00000000000E+00 0.  1.
<mgrwt>
<rscale>  0 0.12347807E+03</rscale>
<asrwt>0</asrwt>
<pdfrwt beam="1">  1        2 0.38595881E-01 0.13229549E+03</pdfrwt>
<pdfrwt beam="2">  1       -2 0.86602934E-02 0.13229549E+03</pdfrwt>
<totfact> 0.10443037E+04</totfact>
</mgrwt>
</event>
<event>
 7    1  0.1446636E-005  0.1252574E+03  0.7546771E-02  0.1247959E+00
         -4   -1    0    0    0  501 -0.00000000000E+00  0.00000000000E+00  0.53621844704E+03  0.53621844704E+03  0.00000000000E+00 0. -1.
          4   -1    0    0  501    0  0.00000000000E+00 -0.00000000000E+00 -0.23888598068E+02  0.23888598068E+02  0.00000000000E+00 0.  1.
         23    2    1    2    0    0  0.45758125654E+01 -0.69308815373E+01  0.16309126983E+03  0.18908547514E+03  0.95318305889E+02 0.  0.
          5    1    1    2  502    0  0.59312180000E+02 -0.56333833949E+01  0.15616100505E+03  0.16720651663E+03  0.47000000000E+01 0.  1.
         -5    1    1    2    0  502 -0.63887992566E+02  0.12564264932E+02  0.19307757410E+03  0.20381505334E+03  0.47000000000E+01 0.  1.
        -11    1    3    3    0    0  0.17912914281E+02 -0.36136820106E+02  0.14838826512E+03  0.15377197238E+03  0.00000000000E+00 0. -1.
         11    1    3    3    0    0 -0.13337101715E+02  0.29205938569E+02  0.14703004706E+02  0.35313502761E+02  0.00000000000E+00 0.  1.
<mgrwt>
<rscale>  0 0.11710009E+03</rscale>
<asrwt>0</asrwt>
<pdfrwt beam="2">  1        4 0.36751694E-02 0.12525742E+03</pdfrwt>
<pdfrwt beam="1">  1       -4 0.82495136E-01 0.12525742E+03</pdfrwt>
<totfact> 0.84541859E+02</totfact>
</mgrwt>
</event>
<event>
 7    1  0.1446636E-005  0.1368468E+03  0.7546771E-02  0.1228602E+00
         -2   -1    0    0    0  501 -0.00000000000E+00  0.00000000000E+00  0.23040704108E+02  0.23040704108E+02  0.00000000000E+00 0.  1.
          2   -1    0    0  501    0  0.00000000000E+00 -0.00000000000E+00 -0.68314398116E+03  0.68314398116E+03  0.00000000000E+00 0. -1.
         23    2    1    2    0    0  0.55387602358E+02  0.55624080550E+01 -0.36531533581E+03  0.38118163766E+03  0.93516947303E+02 0.  0.
          5    1    1    2  502    0 -0.70349603100E+02 -0.38173281814E+01 -0.69205077139E+02  0.98868960511E+02  0.47000000000E+01 0. -1.
         -5    1    1    2    0  502  0.14962000742E+02 -0.17450798736E+01 -0.22558286410E+03  0.22613408709E+03  0.47000000000E+01 0. -1.
        -11    1    3    3    0    0  0.82922587371E+01 -0.30776242839E+02 -0.43572641049E+02  0.53986236452E+02  0.00000000000E+00 0.  1.
         11    1    3    3    0    0  0.47095343621E+02  0.36338650894E+02 -0.32174269476E+03  0.32719540121E+03  0.00000000000E+00 0. -1.
<mgrwt>
<rscale>  0 0.12923019E+03</rscale>
<asrwt>0</asrwt>
<pdfrwt beam="2">  1        2 0.10509906E+00 0.13684681E+03</pdfrwt>
<pdfrwt beam="1">  1       -2 0.35447242E-02 0.13684681E+03</pdfrwt>
<totfact> 0.13575422E+04</totfact>
</mgrwt>
</event>
<event>
 7    1  0.1446636E-005  0.1305754E+03  0.7546771E-02  0.1240639E+00
         -1   -1    0    0    0  501 -0.00000000000E+00  0.00000000000E+00  0.21460047059E+03  0.21460047059E+03  0.00000000000E+00 0.  1.
          1   -1    0    0  501    0  0.00000000000E+00 -0.00000000000E+00 -0.62367076347E+02  0.62367076347E+02  0.00000000000E+00 0. -1.
         23    2    1    2    0    0  0.37396038625E+02 -0.57271491126E+01  0.43827399608E+02  0.10725662456E+03  0.90287754502E+02 0.  0.
          5    1    1    2  502    0 -0.45738913066E+02  0.56011713858E+02  0.35674112173E+02  0.80771854857E+02  0.47000000000E+01 0.  1.
         -5    1    1    2    0  502  0.83428744404E+01 -0.50284564746E+02  0.72731882465E+02  0.88939067527E+02  0.47000000000E+01 0.  1.
        -11    1    3    3    0    0  0.48283244234E+02 -0.96551857881E+01  0.65941439701E+02  0.82296827134E+02  0.00000000000E+00 0.  1.
         11    1    3    3    0    0 -0.10887205609E+02  0.39280366755E+01 -0.22114040094E+02  0.24959797422E+02  0.00000000000E+00 0. -1.
<mgrwt>
<rscale>  0 0.12150231E+03</rscale>
<asrwt>0</asrwt>
<pdfrwt beam="2">  1        1 0.95949349E-02 0.13057541E+03</pdfrwt>
<pdfrwt beam="1">  1       -1 0.33015457E-01 0.13057541E+03</pdfrwt>
<totfact> 0.55769606E+03</totfact>
</mgrwt>
</event>
<event>
 7    1  0.1446636E-005  0.2186464E+03  0.7546771E-02  0.1134896E+00
          2   -1    0    0  501    0  0.00000000000E+00  0.00000000000E+00  0.25782342532E+03  0.25782342532E+03  0.00000000000E+00 0. -1.
         -2   -1    0    0    0  501 -0.00000000000E+00 -0.00000000000E+00 -0.46355589820E+02  0.46355589820E+02  0.00000000000E+00 0.  1.
         23    2    1    2    0    0  0.19860983507E+02 -0.60790301486E+01  0.94935338397E+02  0.13202696985E+03  0.89369955898E+02 0.  0.
          5    1    1    2  502    0  0.18770046515E+02 -0.52142422165E+02  0.40617559224E+02  0.68869608339E+02  0.47000000000E+01 0.  1.
         -5    1    1    2    0  502 -0.38631030021E+02  0.58221452314E+02  0.75914937880E+02  0.10328243695E+03  0.47000000000E+01 0.  1.
        -11    1    3    3    0    0  0.37485759121E+02  0.24742191659E+02  0.20122292235E+02  0.49216509728E+02  0.00000000000E+00 0.  1.
         11    1    3    3    0    0 -0.17624775615E+02 -0.30821221808E+02  0.74813046162E+02  0.82810460119E+02  0.00000000000E+00 0. -1.
<mgrwt>
<rscale>  0 0.21864635E+03</rscale>
<asrwt>0</asrwt>
<pdfrwt beam="1">  1        2 0.39665141E-01 0.21864635E+03</pdfrwt>
<pdfrwt beam="2">  1       -2 0.71316294E-02 0.21864635E+03</pdfrwt>
<totfact> 0.14230903E+04</totfact>
</mgrwt>
</event>
<event>
 7    1  0.1446636E-005  0.3136168E+03  0.7546771E-02  0.1080001E+00
         -1   -1    0    0    0  501 -0.00000000000E+00  0.00000000000E+00  0.45126530151E+03  0.45126530151E+03  0.00000000000E+00 0.  1.
          1   -1    0    0  501    0  0.00000000000E+00 -0.00000000000E+00 -0.24117868959E+03  0.24117868959E+03  0.00000000000E+00 0. -1.
         23    2    1    2    0    0 -0.15005780741E+03 -0.24538419089E+03  0.22763329674E+03  0.37833673948E+03  0.92687776699E+02 0.  0.
          5    1    1    2  502    0  0.75813488010E+02  0.11953604371E+03  0.53714007922E+02  0.15147222635E+03  0.47000000000E+01 0.  1.
         -5    1    1    2    0  502  0.74244319400E+02  0.12584814719E+03 -0.71260692739E+02  0.16263502527E+03  0.47000000000E+01 0.  1.
        -11    1    3    3    0    0 -0.26092646846E+02  0.67387792371E+00  0.26625256738E+02  0.37285179727E+02  0.00000000000E+00 0.  1.
         11    1    3    3    0    0 -0.12396516056E+03 -0.24605806882E+03  0.20100804000E+03  0.34105155975E+03  0.00000000000E+00 0. -1.
<mgrwt>
<rscale>  0 0.31072146E+03</rscale>
<asrwt>0</asrwt>
<pdfrwt beam="2">  1        1 0.37104414E-01 0.31361677E+03</pdfrwt>
<pdfrwt beam="1">  1       -1 0.69425431E-01 0.31361677E+03</pdfrwt>
<totfact> 0.25283853E+02</totfact>
</mgrwt>
</event>
<event>
 7    1  0.1932529E-005  0.3188249E+03  0.7546771E-02  0.1077673E+00
         -2   -1    0    0    0  501 -0.00000000000E+00  0.00000000000E+00  0.17032012826E+03  0.17032012826E+03  0.00000000000E+00 0.  1.
          2   -1    0    0  501    0  0.00000000000E+00 -0.00000000000E+00 -0.57373043250E+03  0.57373043250E+03  0.00000000000E+00 0. -1.
         23    2    1    2    0    0 -0.15063475862E+03  0.25166084867E+03 -0.19140757769E+03  0.36117400098E+03  0.88237094989E+02 0.  0.
          5    1    1    2  502    0 -0.79295488133E+01  0.41435164386E+01  0.55102545546E+01  0.11510837420E+02  0.47000000000E+01 0.  1.
         -5    1    1    2    0  502  0.15856430743E+03 -0.25580436510E+03 -0.21751298111E+03  0.37136572236E+03  0.47000000000E+01 0.  1.
        -11    1    3    3    0    0 -0.65938947657E+02  0.18537471748E+03 -0.14300744498E+03  0.24323416705E+03  0.00000000000E+00 0. -1.
         11    1    3    3    0    0 -0.84695810960E+02  0.66286131183E+02 -0.48400132705E+02  0.11793983393E+03  0.00000000000E+00 0.  1.
<mgrwt>
<rscale>  0 0.31564228E+03</rscale>
<asrwt>0</asrwt>
<pdfrwt beam="2">  1        2 0.88266217E-01 0.31882488E+03</pdfrwt>
<pdfrwt beam="1">  1       -2 0.26203098E-01 0.31882488E+03</pdfrwt>
<totfact> 0.69686364E+02</totfact>
</mgrwt>
</event>
<event>
 7    1  0.1446636E-005  0.1443204E+03  0.7546771E-02  0.1217757E+00
          1   -1    0    0  501    0  0.00000000000E+00  0.00000000000E+00  0.31127169618E+03  0.31127169618E+03  0.00000000000E+00 0. -1.
         -1   -1    0    0    0  501 -0.00000000000E+00 -0.00000000000E+00 -0.73831214409E+02  0.73831214409E+02  0.00000000000E+00 0.  1.
         23    2    1    2    0    0  0.20335291662E+01 -0.72083187850E+02  0.20720746019E+03  0.23764983307E+03  0.91336686980E+02 0.  0.
          5    1    1    2  502    0  0.23552281947E+02  0.10190344295E+03  0.20157221885E+02  0.10661812822E+03  0.47000000000E+01 0. -1.
         -5    1    1    2    0  502 -0.25585811113E+02 -0.29820255104E+02  0.10075799696E+02  0.40834949300E+02  0.47000000000E+01 0. -1.
        -11    1    3    3    0    0  0.94849592105E+01  0.16141300775E+02  0.83190074551E+02  0.85270713294E+02  0.00000000000E+00 0. -1.
         11    1    3    3    0    0 -0.74514300443E+01 -0.88224488625E+02  0.12401738564E+03  0.15237911977E+03  0.00000000000E+00 0.  1.
<mgrwt>
<rscale>  0 0.13675971E+03</rscale>
<asrwt>0</asrwt>
<pdfrwt beam="1">  1        1 0.47887952E-01 0.14432039E+03</pdfrwt>
<pdfrwt beam="2">  1       -1 0.11358649E-01 0.14432039E+03</pdfrwt>
<totfact> 0.40358103E+03</totfact>
</mgrwt>
</event>
<event>
 7    1  0.1446636E-005  0.2633772E+03  0.7546771E-02  0.1107269E+00
          2   -1    0    0  501    0  0.00000000000E+00  0.00000000000E+00  0.77223224826E+03  0.77223224826E+03  0.00000000000E+00 0.  1.
         -2   -1    0    0    0  501 -0.00000000000E+00 -0.00000000000E+00 -0.85168731667E+02  0.85168731667E+02  0.00000000000E+00 0. -1.
         23    2    1    2    0    0 -0.19722192989E+03 -0.12183394329E+03  0.32172765745E+03  0.40702576788E+03  0.91767591174E+02 0.  0.
          5    1    1    2  502    0  0.13877920524E+03  0.28962987948E+02  0.26976688797E+03  0.30478646020E+03  0.47000000000E+01 0.  1.
         -5    1    1    2    0  502  0.58442724647E+02  0.92870955343E+02  0.95568971183E+02  0.14558875184E+03  0.47000000000E+01 0.  1.
        -11    1    3    3    0    0 -0.47563569145E+02 -0.54216867045E+02  0.16474311381E+03  0.17983897056E+03  0.00000000000E+00 0.  1.
         11    1    3    3    0    0 -0.14965836074E+03 -0.67617076245E+02  0.15698454363E+03  0.22718679733E+03  0.00000000000E+00 0. -1.
<mgrwt>
<rscale>  0 0.25979071E+03</rscale>
<asrwt>0</asrwt>
<pdfrwt beam="1">  1        2 0.11880496E+00 0.26337719E+03</pdfrwt>
<pdfrwt beam="2">  1       -2 0.13102882E-01 0.26337719E+03</pdfrwt>
<totfact> 0.15883793E+03</totfact>
</mgrwt>
</event>
<event>
 7    1  0.1446636E-005  0.1690834E+03  0.7546771E-02  0.1194323E+00
         -2   -1    0    0    0  501 -0.00000000000E+00  0.00000000000E+00  0.10569079589E+03  0.10569079589E+03  0.00000000000E+00 0.  1.
          2   -1    0    0  501    0  0.00000000000E+00 -0.00000000000E+00 -0.32567552397E+03  0.32567552397E+03  0.00000000000E+00 0. -1.
         23    2    1    2    0    0  0.74048916814E+02 -0.22461927373E+02 -0.23279765336E+03  0.26179811111E+03  0.91409645594E+02 0.  0.
          5    1    1    2  502    0  0.80128259288E+01 -0.45579725962E+02 -0.29164721685E+02  0.54903440595E+02  0.47000000000E+01 0. -1.
         -5    1    1    2    0  502 -0.82061742742E+02  0.68041653335E+02  0.41977646962E+02  0.11466476815E+03  0.47000000000E+01 0.  1.
        -11    1    3    3    0    0  0.44999446432E+02 -0.47186946652E+02 -0.20352274381E+03  0.21371257652E+03  0.00000000000E+00 0. -1.
         11    1    3    3    0    0  0.29049470382E+02  0.24725019279E+02 -0.29274909550E+02  0.48085534592E+02  0.00000000000E+00 0.  1.
<mgrwt>
<rscale>  0 0.15511639E+03</rscale>
<asrwt>0</asrwt>
<pdfrwt beam="2">  1        2 0.50103927E-01 0.16908343E+03</pdfrwt>
<pdfrwt beam="1">  1       -2 0.16260122E-01 0.16908343E+03</pdfrwt>
<totfact> 0.29273074E+03</totfact>
</mgrwt>
</event>
<event>
 7    1  0.1446636E-005  0.1693512E+03  0.7546771E-02  0.1181671E+00
          2   -1    0    0  501    0  0.00000000000E+00  0.00000000000E+00  0.81265715404E+03  0.81265715404E+03  0.00000000000E+00 0. -1.
         -2   -1    0    0    0  501 -0.00000000000E+00 -0.00000000000E+00 -0.44143192539E+02  0.44143192539E+02  0.00000000000E+00 0.  1.
         23    2    1    2    0    0  0.56783221447E+02 -0.11439058330E+03  0.59000348788E+03  0.61073972780E+03  0.92678798053E+02 0.  0.
          5    1    1    2  502    0 -0.17910863208E+02 -0.12808979942E+02  0.72483701597E+02  0.75900237056E+02  0.47000000000E+01 0. -1.
         -5    1    1    2    0  502 -0.38872358239E+02  0.12719956324E+03  0.10602677202E+03  0.17016038173E+03  0.47000000000E+01 0.  1.
        -11    1    3    3    0    0  0.31471355228E+02 -0.23862240537E+02  0.56002127317E+02  0.68528030669E+02  0.00000000000E+00 0.  1.
         11    1    3    3    0    0  0.25311866218E+02 -0.90528342765E+02  0.53400136057E+03  0.54221169713E+03  0.00000000000E+00 0. -1.
<mgrwt>
<rscale>  0 0.16638485E+03</rscale>
<asrwt>0</asrwt>
<pdfrwt beam="1">  1        2 0.12502417E+00 0.16935123E+03</pdfrwt>
<pdfrwt beam="2">  1       -2 0.67912610E-02 0.16935123E+03</pdfrwt>
<totfact> 0.41748709E+03</totfact>
</mgrwt>
</event>
<event>
 7    1  0.1446636E-005  0.1349526E+03  0.7546771E-02  0.1235492E+00
          2   -1    0    0  501    0  0.00000000000E+00  0.00000000000E+00  0.39567826162E+03  0.39567826162E+03  0.00000000000E+00 0. -1.
         -2   -1    0    0    0  501 -0.00000000000E+00 -0.00000000000E+00 -0.37404090878E+02  0.37404090878E+02  0.00000000000E+00 0.  1.
         23    2    1    2    0    0 -0.32714052613E+02 -0.38947397568E+02  0.21376244675E+03  0.23535564460E+03  0.84325481243E+02 0.  0.
          5    1    1    2  502    0 -0.32291611287E+02  0.29638957096E+02  0.11937512200E+03  0.12725457041E+03  0.47000000000E+01 0.  1.
         -5    1    1    2    0  502  0.65005663900E+02  0.93084404721E+01  0.25136601988E+02  0.70472137491E+02  0.47000000000E+01 0.  1.
        -11    1    3    3    0    0 -0.87324444829E+01 -0.44773031152E+02  0.20363101726E+03  0.20867791233E+03  0.00000000000E+00 0. -1.
         11    1    3    3    0    0 -0.23981608130E+02  0.58256335845E+01  0.10131429489E+02  0.26677732262E+02  0.00000000000E+00 0.  1.
<mgrwt>
<rscale>  0 0.12472994E+03</rscale>
<asrwt>0</asrwt>
<pdfrwt beam="1">  1        2 0.60873576E-01 0.13495263E+03</pdfrwt>
<pdfrwt beam="2">  1       -2 0.57544758E-02 0.13495263E+03</pdfrwt>
<totfact> 0.12058979E+04</totfact>
</mgrwt>
</event>
<event>
 7    1  0.1446636E-005  0.2225521E+03  0.7546771E-02  0.1135625E+00
          1   -1    0    0  501    0  0.00000000000E+00  0.00000000000E+00  0.90895325304E+03  0.90895325304E+03  0.00000000000E+00 0. -1.
         -1   -1    0    0    0  501 -0.00000000000E+00 -0.00000000000E+00 -0.60426955157E+02  0.60426955157E+02  0.00000000000E+00 0.  1.
         23    2    1    2    0    0  0.41264758764E+01 -0.18408763206E+03  0.61020044501E+03  0.64329945085E+03  0.87087980180E+02 0.  0.
          5    1    1    2  502    0 -0.18098686187E+02  0.18617662230E+03  0.24620295392E+03  0.30923661112E+03  0.47000000000E+01 0. -1.
         -5    1    1    2    0  502  0.13972210310E+02 -0.20889902448E+01 -0.78771010522E+01  0.16844146229E+02  0.47000000000E+01 0. -1.
        -11    1    3    3    0    0 -0.35081334910E+02 -0.87654633015E+02  0.36293732649E+03  0.37501671657E+03  0.00000000000E+00 0.  1.
         11    1    3    3    0    0  0.39207810787E+02 -0.96432999045E+02  0.24726311852E+03  0.26828273428E+03  0.00000000000E+00 0. -1.
<mgrwt>
<rscale>  0 0.21767884E+03</rscale>
<asrwt>0</asrwt>
<pdfrwt beam="1">  1        1 0.13983895E+00 0.22255212E+03</pdfrwt>
<pdfrwt beam="2">  1       -1 0.92964553E-02 0.22255212E+03</pdfrwt>
<totfact> 0.12838555E+03</totfact>
</mgrwt>
</event>
<event>
 7    1  0.1446636E-005  0.1406877E+03  0.7546771E-02  0.1218306E+00
         -2   -1    0    0    0  501 -0.00000000000E+00  0.00000000000E+00  0.16090026407E+03  0.16090026407E+03  0.00000000000E+00 0.  1.
          2   -1    0    0  501    0  0.00000000000E+00 -0.00000000000E+00 -0.12856562932E+03  0.12856562932E+03  0.00000000000E+00 0. -1.
         23    2    1    2    0    0  0.52831777618E+02  0.37118849927E+02 -0.41055553539E+02  0.13078647754E+03  0.10606855559E+03 0.  0.
          5    1    1    2  502    0 -0.39696371164E+02 -0.34852832688E+02 -0.25456583446E+02  0.58827285087E+02  0.47000000000E+01 0. -1.
         -5    1    1    2    0  502 -0.13135406454E+02 -0.22660172382E+01  0.98846771734E+02  0.99852130769E+02  0.47000000000E+01 0. -1.
        -11    1    3    3    0    0  0.46477075043E+02 -0.25394453379E+01  0.25483018302E+02  0.53065539749E+02  0.00000000000E+00 0.  1.
         11    1    3    3    0    0  0.63547025752E+01  0.39658295265E+02 -0.66538571840E+02  0.77720937788E+02  0.00000000000E+00 0. -1.
<mgrwt>
<rscale>  0 0.13636443E+03</rscale>
<asrwt>0</asrwt>
<pdfrwt beam="2">  1        2 0.19779328E-01 0.14068773E+03</pdfrwt>
<pdfrwt beam="1">  1       -2 0.24753887E-01 0.14068773E+03</pdfrwt>
<totfact> 0.39089469E+03</totfact>
</mgrwt>
</event>
<event>
 7    1  0.1446636E-005  0.1487127E+03  0.7546771E-02  0.1211634E+00
          1   -1    0    0  501    0  0.00000000000E+00  0.00000000000E+00  0.13124935466E+03  0.13124935466E+03  0.00000000000E+00 0. -1.
         -1   -1    0    0    0  501 -0.00000000000E+00 -0.00000000000E+00 -0.18491410666E+03  0.18491410666E+03  0.00000000000E+00 0.  1.
         23    2    1    2    0    0  0.78948763178E+02  0.16160498236E+02  0.53980197174E+02  0.13257998675E+03  0.90385409714E+02 0.  0.
          5    1    1    2  502    0 -0.91773203044E+02  0.24362852177E+02 -0.10363143510E+03  0.14063226409E+03  0.47000000000E+01 0.  1.
         -5    1    1    2    0  502  0.12824439866E+02 -0.40523350413E+02 -0.40135140729E+01  0.42951210481E+02  0.47000000000E+01 0.  1.
        -11    1    3    3    0    0  0.56465018249E+02  0.14705446308E+02  0.79450513376E+02  0.98574502346E+02  0.00000000000E+00 0. -1.
         11    1    3    3    0    0  0.22483744928E+02  0.14550519280E+01 -0.25470316202E+02  0.34005484404E+02  0.00000000000E+00 0.  1.
<mgrwt>
<rscale>  0 0.14126709E+03</rscale>
<asrwt>0</asrwt>
<pdfrwt beam="1">  1        1 0.20192208E-01 0.14871267E+03</pdfrwt>
<pdfrwt beam="2">  1       -1 0.28448324E-01 0.14871267E+03</pdfrwt>
<totfact> 0.27427288E+03</totfact>
</mgrwt>
</event>
<event>
 7    1  0.1446636E-005  0.1597405E+03  0.7546771E-02  0.1196405E+00
         -1   -1    0    0    0  501 -0.00000000000E+00  0.00000000000E+00  0.12991104199E+02  0.12991104199E+02  0.00000000000E+00 0.  1.
          1   -1    0    0  501    0  0.00000000000E+00 -0.00000000000E+00 -0.17309223396E+04  0.17309223396E+04  0.00000000000E+00 0. -1.
         23    2    1    2    0    0 -0.84172798973E+02  0.52959459921E+02 -0.64169582396E+03  0.65588784714E+03  0.92334029810E+02 0.  0.
          5    1    1    2  502    0  0.85471844664E+02 -0.77042658931E+02 -0.58798621684E+03  0.59915848381E+03  0.47000000000E+01 0. -1.
         -5    1    1    2    0  502 -0.12990456918E+01  0.24083199010E+02 -0.48824919462E+03  0.48886711286E+03  0.47000000000E+01 0. -1.
        -11    1    3    3    0    0 -0.10451414012E+03  0.45782717307E+02 -0.54469205962E+03  0.55651478193E+03  0.00000000000E+00 0.  1.
         11    1    3    3    0    0  0.20341341152E+02  0.71767426138E+01 -0.97003764332E+02  0.99373065209E+02  0.00000000000E+00 0. -1.
<mgrwt>
<rscale>  0 0.15335884E+03</rscale>
<asrwt>0</asrwt>
<pdfrwt beam="2">  1        1 0.26629571E+00 0.15974053E+03</pdfrwt>
<pdfrwt beam="1">  1       -1 0.19986317E-02 0.15974053E+03</pdfrwt>
<totfact> 0.34436840E+03</totfact>
</mgrwt>
</event>
<event>
 7    1  0.1446636E-005  0.1309781E+03  0.7546771E-02  0.1235230E+00
          1   -1    0    0  501    0  0.00000000000E+00  0.00000000000E+00  0.82761196319E+02  0.82761196319E+02  0.00000000000E+00 0. -1.
         -1   -1    0    0    0  501 -0.00000000000E+00 -0.00000000000E+00 -0.17631940527E+03  0.17631940527E+03  0.00000000000E+00 0.  1.
         23    2    1    2    0    0 -0.30007762027E+02  0.25065373986E+02 -0.24584018698E+02  0.11105119521E+03  0.10099136214E+03 0.  0.
          5    1    1    2  502    0  0.30636476703E+02 -0.20494031029E+01 -0.10249133067E+03  0.10709508215E+03  0.47000000000E+01 0. -1.
         -5    1    1    2    0  502 -0.62871467532E+00 -0.23015970883E+02  0.33517140423E+02  0.40934324227E+02  0.47000000000E+01 0. -1.
        -11    1    3    3    0    0 -0.24126426464E+02 -0.17693157532E+02 -0.51947284098E+02  0.59947081685E+02  0.00000000000E+00 0.  1.
         11    1    3    3    0    0 -0.58813355628E+01  0.42758531518E+02  0.27363265400E+02  0.51104113523E+02  0.00000000000E+00 0. -1.
<mgrwt>
<rscale>  0 0.12489700E+03</rscale>
<asrwt>0</asrwt>
<pdfrwt beam="1">  1        1 0.12732492E-01 0.13097811E+03</pdfrwt>
<pdfrwt beam="2">  1       -1 0.27126062E-01 0.13097811E+03</pdfrwt>
<totfact> 0.53440224E+03</totfact>
</mgrwt>
</event>
<event>
 7    1  0.1446636E-005  0.1584623E+03  0.7546771E-02  0.1198944E+00
         -2   -1    0    0    0  501 -0.00000000000E+00  0.00000000000E+00  0.94280102034E+03  0.94280102034E+03  0.00000000000E+00 0.  1.
          2   -1    0    0  501    0  0.00000000000E+00 -0.00000000000E+00 -0.23833721596E+02  0.23833721596E+02  0.00000000000E+00 0. -1.
         23    2    1    2    0    0 -0.70238318243E+02  0.67467066078E+02  0.29741019426E+03  0.32519609487E+03  0.88399378479E+02 0.  0.
          5    1    1    2  502    0  0.84883218877E+02  0.29143727760E+01  0.37783314975E+03  0.38729011537E+03  0.47000000000E+01 0.  1.
         -5    1    1    2    0  502 -0.14644900634E+02 -0.70381438854E+02  0.24372395473E+03  0.25414853169E+03  0.47000000000E+01 0.  1.
        -11    1    3    3    0    0 -0.53801156268E+02  0.14957501451E+02  0.23697618693E+03  0.24346663927E+03  0.00000000000E+00 0.  1.
         11    1    3    3    0    0 -0.16437161975E+02  0.52509564627E+02  0.60434007333E+02  0.81729455605E+02  0.00000000000E+00 0. -1.
<mgrwt>
<rscale>  0 0.15125134E+03</rscale>
<asrwt>0</asrwt>
<pdfrwt beam="2">  1        2 0.36667271E-02 0.15846231E+03</pdfrwt>
<pdfrwt beam="1">  1       -2 0.14504628E+00 0.15846231E+03</pdfrwt>
<totfact> 0.80696277E+02</totfact>
</mgrwt>
</event>
<event>
 7    1  0.1446636E-005  0.1472025E+03  0.7546771E-02  0.1210387E+00
         -2   -1    0    0    0  501 -0.00000000000E+00  0.00000000000E+00  0.55618088756E+02  0.55618088756E+02  0.00000000000E+00 0.  1.
          2   -1    0    0  501    0  0.00000000000E+00 -0.00000000000E+00 -0.41493823577E+03  0.41493823577E+03  0.00000000000E+00 0. -1.
         23    2    1    2    0    0  0.73417710883E+02  0.54401764037E+02 -0.26862209183E+03  0.29765542027E+03  0.89951146689E+02 0.  0.
          5    1    1    2  502    0 -0.37165026214E+02  0.10546513640E+01 -0.99101162912E+02  0.10595037496E+03  0.47000000000E+01 0. -1.
         -5    1    1    2    0  502 -0.36252684669E+02 -0.55456415401E+02  0.84031077299E+01  0.66950529306E+02  0.47000000000E+01 0.  1.
        -11    1    3    3    0    0  0.44102229785E+02 -0.19178872600E+02 -0.84646479573E+02  0.97354313362E+02  0.00000000000E+00 0.  1.
         11    1    3    3    0    0  0.29315481098E+02  0.73580636637E+02 -0.18397561226E+03  0.20030110690E+03  0.00000000000E+00 0. -1.
<mgrwt>
<rscale>  0 0.14220905E+03</rscale>
<asrwt>0</asrwt>
<pdfrwt beam="2">  1        2 0.63836652E-01 0.14720253E+03</pdfrwt>
<pdfrwt beam="1">  1       -2 0.85566290E-02 0.14720253E+03</pdfrwt>
<totfact> 0.62752696E+03</totfact>
</mgrwt>
</event>
<event>
 7    1  0.1446636E-005  0.1181260E+03  0.7546771E-02  0.1256418E+00
          3   -1    0    0  501    0  0.00000000000E+00  0.00000000000E+00  0.15550951878E+03  0.15550951878E+03  0.00000000000E+00 0. -1.
         -3   -1    0    0    0  501 -0.00000000000E+00 -0.00000000000E+00 -0.10222378131E+03  0.10222378131E+03  0.00000000000E+00 0.  1.
         23    2    1    2    0    0  0.38840081724E+02 -0.89042876216E+01  0.92172391462E+02  0.13337123857E+03  0.87774137664E+02 0.  0.
          5    1    1    2  502    0 -0.29189786423E+01 -0.20254240953E+01  0.38113599404E+02  0.38566296667E+02  0.47000000000E+01 0. -1.
         -5    1    1    2    0  502 -0.35921103082E+02  0.10929711717E+02 -0.77000253391E+02  0.85795764855E+02  0.47000000000E+01 0.  1.
        -11    1    3    3    0    0  0.39514105908E+02  0.34438113946E+02  0.42797372465E+02  0.67668037859E+02  0.00000000000E+00 0.  1.
         11    1    3    3    0    0 -0.67402418400E+00 -0.43342401567E+02  0.49375018997E+02  0.65703200707E+02  0.00000000000E+00 0. -1.
<mgrwt>
<rscale>  0 0.11227254E+03</rscale>
<asrwt>0</asrwt>
<pdfrwt beam="1">  1        3 0.23924541E-01 0.11812599E+03</pdfrwt>
<pdfrwt beam="2">  1       -3 0.15726736E-01 0.11812599E+03</pdfrwt>
<totfact> 0.12513182E+03</totfact>
</mgrwt>
</event>
<event>
 7    1  0.1446636E-005  0.1958245E+03  0.7546771E-02  0.1156258E+00
         -1   -1    0    0    0  501 -0.00000000000E+00  0.00000000000E+00  0.63584012399E+02  0.63584012399E+02  0.00000000000E+00 0.  1.
          1   -1    0    0  501    0  0.00000000000E+00 -0.00000000000E+00 -0.59127696391E+03  0.59127696391E+03  0.00000000000E+00 0. -1.
         23    2    1    2    0    0 -0.11074647026E+03  0.10227801575E+03 -0.32618071400E+03  0.37387268971E+03  0.10325384618E+03 0.  0.
          5    1    1    2  502    0  0.90076893634E+02 -0.25505351302E+02 -0.42036420127E+02  0.10273032818E+03  0.47000000000E+01 0. -1.
         -5    1    1    2    0  502  0.20669576624E+02 -0.76772664451E+02 -0.15947581739E+03  0.17825795841E+03  0.47000000000E+01 0. -1.
        -11    1    3    3    0    0 -0.34631052965E+02  0.34688404656E+01 -0.13672509086E+02  0.37393584856E+02  0.00000000000E+00 0.  1.
         11    1    3    3    0    0 -0.76115417293E+02  0.98809175287E+02 -0.31250820491E+03  0.33647910486E+03  0.00000000000E+00 0. -1.
<mgrwt>
<rscale>  0 0.19246304E+03</rscale>
<asrwt>0</asrwt>
<pdfrwt beam="2">  1        1 0.90965687E-01 0.19582450E+03</pdfrwt>
<pdfrwt beam="1">  1       -1 0.97821557E-02 0.19582450E+03</pdfrwt>
<totfact> 0.22451031E+03</totfact>
</mgrwt>
</event>
<event>
 7    1  0.1446636E-005  0.1338653E+03  0.7546771E-02  0.1234353E+00
         -2   -1    0    0    0  501 -0.00000000000E+00  0.00000000000E+00  0.79871328815E+02  0.79871328815E+02  0.00000000000E+00 0.  1.
          2   -1    0    0  501    0  0.00000000000E+00 -0.00000000000E+00 -0.17605689132E+03  0.17605689132E+03  0.00000000000E+00 0. -1.
         23    2    1    2    0    0  0.62212737893E+01 -0.47498829698E+02 -0.43626520487E+02  0.11211458269E+03  0.91496247424E+02 0.  0.
          5    1    1    2  502    0  0.58704931925E+02  0.20528503851E+02 -0.15794220101E+02  0.64336893703E+02  0.47000000000E+01 0.  1.
         -5    1    1    2    0  502 -0.64926205715E+02  0.26970325848E+02 -0.36764821920E+02  0.79476743741E+02  0.47000000000E+01 0.  1.
        -11    1    3    3    0    0  0.72079711385E+01  0.14969341179E+02 -0.46695639285E+02  0.49563280274E+02  0.00000000000E+00 0. -1.
         11    1    3    3    0    0 -0.98669734926E+00 -0.62468170877E+02  0.30691187977E+01  0.62551302421E+02  0.00000000000E+00 0.  1.
<mgrwt>
<rscale>  0 0.12545940E+03</rscale>
<asrwt>0</asrwt>
<pdfrwt beam="2">  1        2 0.27085675E-01 0.13386527E+03</pdfrwt>
<pdfrwt beam="1">  1       -2 0.12287897E-01 0.13386527E+03</pdfrwt>
<totfact> 0.88213512E+03</totfact>
</mgrwt>
</event>
<event>
 7    1  0.1446636E-005  0.1373659E+03  0.7546771E-02  0.1227919E+00
          1   -1    0    0  501    0  0.00000000000E+00  0.00000000000E+00  0.11714931388E+03  0.11714931388E+03  0.00000000000E+00 0. -1.
         -1   -1    0    0    0  501 -0.00000000000E+00 -0.00000000000E+00 -0.13092491467E+03  0.13092491467E+03  0.00000000000E+00 0.  1.
         23    2    1    2    0    0  0.23246717164E+02  0.51998648105E+02  0.59585895979E+01  0.10929804434E+03  0.93092902211E+02 0.  0.
          5    1    1    2  502    0 -0.40903920597E+02 -0.13849349521E+02 -0.64128650843E+02  0.77456497863E+02  0.47000000000E+01 0.  1.
         -5    1    1    2    0  502  0.17657203433E+02 -0.38149298585E+02  0.44394460454E+02  0.61319686354E+02  0.47000000000E+01 0.  1.
        -11    1    3    3    0    0  0.43348987972E+02  0.39465912674E+02  0.37694149496E+02  0.69696068236E+02  0.00000000000E+00 0. -1.
         11    1    3    3    0    0 -0.20102270808E+02  0.12532735432E+02 -0.31735559898E+02  0.39601976101E+02  0.00000000000E+00 0.  1.
<mgrwt>
<rscale>  0 0.12968828E+03</rscale>
<asrwt>0</asrwt>
<pdfrwt beam="1">  1        1 0.18022971E-01 0.13736590E+03</pdfrwt>
<pdfrwt beam="2">  1       -1 0.20142295E-01 0.13736590E+03</pdfrwt>
<totfact> 0.55578365E+03</totfact>
</mgrwt>
</event>
<event>
 7    1  0.1446636E-005  0.2179383E+03  0.7546771E-02  0.1138940E+00
          2   -1    0    0  501    0  0.00000000000E+00  0.00000000000E+00  0.20604860355E+03  0.20604860355E+03  0.00000000000E+00 0. -1.
         -2   -1    0    0    0  501 -0.00000000000E+00 -0.00000000000E+00 -0.21305267802E+03  0.21305267802E+03  0.00000000000E+00 0.  1.
         23    2    1    2    0    0  0.81598608758E+00 -0.17852410466E+03 -0.17422072776E+02  0.20091407055E+03  0.90506427117E+02 0.  0.
          5    1    1    2  502    0  0.23332222209E+02 -0.11353227559E+02 -0.93381612762E+00  0.26386556838E+02  0.47000000000E+01 0.  1.
         -5    1    1    2    0  502 -0.24148208296E+02  0.18987733222E+03  0.11351814436E+02  0.19180065418E+03  0.47000000000E+01 0.  1.
        -11    1    3    3    0    0 -0.25012194056E+02 -0.12923233755E+03  0.20992709568E+02  0.13329403878E+03  0.00000000000E+00 0. -1.
         11    1    3    3    0    0  0.25828180144E+02 -0.49291767109E+02 -0.38414782344E+02  0.67620031772E+02  0.00000000000E+00 0.  1.
<mgrwt>
<rscale>  0 0.21335022E+03</rscale>
<asrwt>0</asrwt>
<pdfrwt beam="1">  1        2 0.31699785E-01 0.21793835E+03</pdfrwt>
<pdfrwt beam="2">  1       -2 0.32777335E-01 0.21793835E+03</pdfrwt>
<totfact> 0.14240983E+03</totfact>
</mgrwt>
</event>
<event>
 7    1  0.1446636E-005  0.1712494E+03  0.7546771E-02  0.1182394E+00
         -2   -1    0    0    0  501 -0.00000000000E+00  0.00000000000E+00  0.34105263779E+02  0.34105263779E+02  0.00000000000E+00 0.  1.
          2   -1    0    0  501    0  0.00000000000E+00 -0.00000000000E+00 -0.92751546308E+03  0.92751546308E+03  0.00000000000E+00 0. -1.
         23    2    1    2    0    0 -0.35092499931E+02  0.11167107574E+03 -0.62843383639E+03  0.64612297370E+03  0.94041999765E+02 0.  0.
          5    1    1    2  502    0  0.81339181245E+02 -0.61385100603E+02 -0.17285482899E+03  0.20071142191E+03  0.47000000000E+01 0. -1.
         -5    1    1    2    0  502 -0.46246681314E+02 -0.50285975134E+02 -0.92121533924E+02  0.11478633124E+03  0.47000000000E+01 0. -1.
        -11    1    3    3    0    0  0.12869636539E+02  0.95861699295E+02 -0.34862470043E+03  0.36179313798E+03  0.00000000000E+00 0.  1.
         11    1    3    3    0    0 -0.47962136470E+02  0.15809376442E+02 -0.27980913596E+03  0.28432983572E+03  0.00000000000E+00 0. -1.
<mgrwt>
<rscale>  0 0.16571241E+03</rscale>
<asrwt>0</asrwt>
<pdfrwt beam="2">  1        2 0.14269470E+00 0.17124941E+03</pdfrwt>
<pdfrwt beam="1">  1       -2 0.52469632E-02 0.17124941E+03</pdfrwt>
<totfact> 0.52121969E+03</totfact>
</mgrwt>
</event>
<event>
 7    1  0.1446636E-005  0.1188206E+03  0.7546771E-02  0.1256381E+00
          1   -1    0    0  501    0  0.00000000000E+00  0.00000000000E+00  0.17695139189E+03  0.17695139189E+03  0.00000000000E+00 0. -1.
         -1   -1    0    0    0  501 -0.00000000000E+00 -0.00000000000E+00 -0.82923831786E+02  0.82923831786E+02  0.00000000000E+00 0.  1.
         23    2    1    2    0    0 -0.21716654844E+02 -0.13123043894E+02  0.10390689598E+03  0.14064461444E+03  0.91325993894E+02 0.  0.
          5    1    1    2  502    0  0.36065675452E+02  0.53621811891E+02 -0.30181984686E+02  0.71477785751E+02  0.47000000000E+01 0. -1.
         -5    1    1    2    0  502 -0.14349020607E+02 -0.40498767997E+02  0.20302648805E+02  0.47752823478E+02  0.47000000000E+01 0.  1.
        -11    1    3    3    0    0  0.31547067017E+02  0.10764838603E+02  0.55814335534E+02  0.65010301020E+02  0.00000000000E+00 0. -1.
         11    1    3    3    0    0 -0.53263721861E+02 -0.23887882497E+02  0.48092560446E+02  0.75634313423E+02  0.00000000000E+00 0.  1.
<mgrwt>
<rscale>  0 0.11229338E+03</rscale>
<asrwt>0</asrwt>
<pdfrwt beam="1">  1        1 0.27223291E-01 0.11882061E+03</pdfrwt>
<pdfrwt beam="2">  1       -1 0.12757513E-01 0.11882061E+03</pdfrwt>
<totfact> 0.67096603E+03</totfact>
</mgrwt>
</event>
<event>
 7    1  0.1446636E-005  0.1390275E+03  0.7546771E-02  0.1223273E+00
         -3   -1    0    0    0  501 -0.00000000000E+00  0.00000000000E+00  0.53257046999E+03  0.53257046999E+03  0.00000000000E+00 0.  1.
          3   -1    0    0  501    0  0.00000000000E+00 -0.00000000000E+00 -0.30592936742E+02  0.30592936742E+02  0.00000000000E+00 0. -1.
         23    2    1    2    0    0 -0.68170363375E+02  0.62564898375E+01  0.21451485824E+03  0.24384624946E+03  0.93584330204E+02 0.  0.
          5    1    1    2  502    0 -0.21591045888E+02  0.83772705455E+01  0.16511404873E+03  0.16679655576E+03  0.47000000000E+01 0. -1.
         -5    1    1    2    0  502  0.89761409262E+02 -0.14633760383E+02  0.12234862628E+03  0.15252060152E+03  0.47000000000E+01 0.  1.
        -11    1    3    3    0    0  0.15009092667E+02 -0.23177018898E+02  0.55629964733E+02  0.62105877692E+02  0.00000000000E+00 0.  1.
         11    1    3    3    0    0 -0.83179456042E+02  0.29433508735E+02  0.15888489351E+03  0.18174037176E+03  0.00000000000E+00 0. -1.
<mgrwt>
<rscale>  0 0.13285968E+03</rscale>
<asrwt>0</asrwt>
<pdfrwt beam="2">  1        3 0.47066060E-02 0.13902754E+03</pdfrwt>
<pdfrwt beam="1">  1       -3 0.81933912E-01 0.13902754E+03</pdfrwt>
<totfact> 0.82363559E+02</totfact>
</mgrwt>
</event>
<event>
 7    1  0.1446636E-005  0.1341012E+03  0.7546771E-02  0.1234010E+00
         -4   -1    0    0    0  501 -0.00000000000E+00  0.00000000000E+00  0.23626085308E+03  0.23626085308E+03  0.00000000000E+00 0.  1.
          4   -1    0    0  501    0  0.00000000000E+00 -0.00000000000E+00 -0.59785323426E+02  0.59785323426E+02  0.00000000000E+00 0. -1.
         23    2    1    2    0    0 -0.30855990646E+02  0.37504863484E+02  0.81826401826E+02  0.13190723348E+03  0.91352346791E+02 0.  0.
          5    1    1    2  502    0  0.99021089002E+01 -0.49849942330E+02  0.11895044008E+03  0.12943865615E+03  0.47000000000E+01 0. -1.
         -5    1    1    2    0  502  0.20953881746E+02  0.12345078846E+02 -0.24301312255E+02  0.34700286875E+02  0.47000000000E+01 0. -1.
        -11    1    3    3    0    0 -0.48291797002E+02 -0.74004349870E+00  0.75174261465E+02  0.89352195882E+02  0.00000000000E+00 0.  1.
         11    1    3    3    0    0  0.17435806356E+02  0.38244906983E+02  0.66521403611E+01  0.42555037596E+02  0.00000000000E+00 0. -1.
<mgrwt>
<rscale>  0 0.12568041E+03</rscale>
<asrwt>0</asrwt>
<pdfrwt beam="2">  1        4 0.91977422E-02 0.13410121E+03</pdfrwt>
<pdfrwt beam="1">  1       -4 0.36347823E-01 0.13410121E+03</pdfrwt>
<totfact> 0.10568597E+03</totfact>
</mgrwt>
</event>
<event>
 7    1  0.1446636E-005  0.1284428E+03  0.7546771E-02  0.1242833E+00
         -1   -1    0    0    0  501 -0.00000000000E+00  0.00000000000E+00  0.64296707600E+02  0.64296707600E+02  0.00000000000E+00 0.  1.
          1   -1    0    0  501    0  0.00000000000E+00 -0.00000000000E+00 -0.24213409034E+03  0.24213409034E+03  0.00000000000E+00 0. -1.
         23    2    1    2    0    0  0.19936290778E+02 -0.21793453033E+02 -0.14259516506E+03  0.17324083262E+03  0.93843458487E+02 0.  0.
          5    1    1    2  502    0 -0.11513492646E+02  0.49401294391E+02  0.31795798905E+02  0.60050905309E+02  0.47000000000E+01 0. -1.
         -5    1    1    2    0  502 -0.84227981317E+01 -0.27607841358E+02 -0.67038016580E+02  0.73139060015E+02  0.47000000000E+01 0. -1.
        -11    1    3    3    0    0 -0.67451323934E+01 -0.22250125191E+02  0.45537562966E+01  0.23691804035E+02  0.00000000000E+00 0.  1.
         11    1    3    3    0    0  0.26681423171E+02  0.45667215806E+00 -0.14714892136E+03  0.14954902858E+03  0.00000000000E+00 0. -1.
<mgrwt>
<rscale>  0 0.12016034E+03</rscale>
<asrwt>0</asrwt>
<pdfrwt beam="2">  1        1 0.37251399E-01 0.12844280E+03</pdfrwt>
<pdfrwt beam="1">  1       -1 0.98918011E-02 0.12844280E+03</pdfrwt>
<totfact> 0.67579664E+03</totfact>
</mgrwt>
</event>
<event>
 7    1  0.1446636E-005  0.2093064E+03  0.7546771E-02  0.1146032E+00
          1   -1    0    0  501    0  0.00000000000E+00  0.00000000000E+00  0.37626212666E+03  0.37626212666E+03  0.00000000000E+00 0. -1.
         -1   -1    0    0    0  501 -0.00000000000E+00 -0.00000000000E+00 -0.10625393517E+03  0.10625393517E+03  0.00000000000E+00 0.  1.
         23    2    1    2    0    0 -0.16776062796E+03 -0.64051715138E+01  0.13084391854E+03  0.23116798647E+03  0.90187872997E+02 0.  0.
          5    1    1    2  502    0  0.10438930634E+03 -0.56442843347E+02  0.66177449216E+02  0.13595759128E+03  0.47000000000E+01 0.  1.
         -5    1    1    2    0  502  0.63371321625E+02  0.62848014861E+02  0.72986823740E+02  0.11539048408E+03  0.47000000000E+01 0.  1.
        -11    1    3    3    0    0 -0.13201171378E+02 -0.21900077467E+02  0.49756426519E+02  0.55942705501E+02  0.00000000000E+00 0. -1.
         11    1    3    3    0    0 -0.15455945658E+03  0.15494905953E+02  0.81087492016E+02  0.17522528097E+03  0.00000000000E+00 0.  1.
<mgrwt>
<rscale>  0 0.20445741E+03</rscale>
<asrwt>0</asrwt>
<pdfrwt beam="1">  1        1 0.57886480E-01 0.20930638E+03</pdfrwt>
<pdfrwt beam="2">  1       -1 0.16346759E-01 0.20930638E+03</pdfrwt>
<totfact> 0.18226723E+03</totfact>
</mgrwt>
</event>
<event>
 7    1  0.1446636E-005  0.1253836E+03  0.7546771E-02  0.1254034E+00
          1   -1    0    0  501    0  0.00000000000E+00  0.00000000000E+00  0.19096462289E+02  0.19096462289E+02  0.00000000000E+00 0. -1.
         -1   -1    0    0    0  501 -0.00000000000E+00 -0.00000000000E+00 -0.60447089332E+03  0.60447089332E+03  0.00000000000E+00 0.  1.
         23    2    1    2    0    0 -0.93681302752E+01 -0.27661896201E+01 -0.17272133013E+03  0.19228596341E+03  0.83939383908E+02 0.  0.
          5    1    1    2  502    0 -0.41199736192E+02 -0.14007485130E+02 -0.32962317718E+03  0.33251640085E+03  0.47000000000E+01 0. -1.
         -5    1    1    2    0  502  0.50567866467E+02  0.16773674750E+02 -0.83029923720E+02  0.98764991351E+02  0.47000000000E+01 0. -1.
        -11    1    3    3    0    0  0.16877570288E+02  0.23817288092E+02 -0.20811128855E+02  0.35849946654E+02  0.00000000000E+00 0. -1.
         11    1    3    3    0    0 -0.26245700564E+02 -0.26583477712E+02 -0.15191020128E+03  0.15643601675E+03  0.00000000000E+00 0.  1.
<mgrwt>
<rscale>  0 0.11360627E+03</rscale>
<asrwt>0</asrwt>
<pdfrwt beam="1">  1        1 0.29379178E-02 0.12538364E+03</pdfrwt>
<pdfrwt beam="2">  1       -1 0.92995504E-01 0.12538364E+03</pdfrwt>
<totfact> 0.39604249E+03</totfact>
</mgrwt>
</event>
<event>
 7    1  0.1446636E-005  0.1504442E+03  0.7546771E-02  0.1209102E+00
          2   -1    0    0  501    0  0.00000000000E+00  0.00000000000E+00  0.15773241788E+03  0.15773241788E+03  0.00000000000E+00 0. -1.
         -2   -1    0    0    0  501 -0.00000000000E+00 -0.00000000000E+00 -0.12476974696E+03  0.12476974696E+03  0.00000000000E+00 0.  1.
         23    2    1    2    0    0  0.31165921570E+02  0.77708899579E+02  0.45416433110E+02  0.13154335692E+03  0.90724939308E+02 0.  0.
          5    1    1    2  502    0 -0.35740116065E+02 -0.81399517531E+02  0.40264237200E+02  0.97706377212E+02  0.47000000000E+01 0. -1.
         -5    1    1    2    0  502  0.45741944948E+01  0.36906179518E+01 -0.52717999395E+02  0.53252430709E+02  0.47000000000E+01 0. -1.
        -11    1    3    3    0    0  0.29613647196E+02  0.23325087829E+02  0.63809325719E+02  0.74112467717E+02  0.00000000000E+00 0. -1.
         11    1    3    3    0    0  0.15522743747E+01  0.54383811750E+02 -0.18392892609E+02  0.57430889204E+02  0.00000000000E+00 0.  1.
<mgrwt>
<rscale>  0 0.14318857E+03</rscale>
<asrwt>0</asrwt>
<pdfrwt beam="1">  1        2 0.24266526E-01 0.15044423E+03</pdfrwt>
<pdfrwt beam="2">  1       -2 0.19195346E-01 0.15044423E+03</pdfrwt>
<totfact> 0.48266578E+03</totfact>
</mgrwt>
</event>
<event>
 7    1  0.1446636E-005  0.1338889E+03  0.7546771E-02  0.1234194E+00
          4   -1    0    0  501    0  0.00000000000E+00  0.00000000000E+00  0.40926215528E+02  0.40926215528E+02  0.00000000000E+00 0. -1.
         -4   -1    0    0    0  501 -0.00000000000E+00 -0.00000000000E+00 -0.35397979437E+03  0.35397979437E+03  0.00000000000E+00 0.  1.
         23    2    1    2    0    0 -0.46166609509E+02  0.12983295805E+02 -0.10488049883E+03  0.14739385590E+03  0.91788386617E+02 0.  0.
          5    1    1    2  502    0 -0.70823850680E+01 -0.48774193989E+02 -0.29549430037E+02  0.57657098375E+02  0.47000000000E+01 0.  1.
         -5    1    1    2    0  502  0.53248994577E+02  0.35790898184E+02 -0.17862364997E+03  0.18985505562E+03  0.47000000000E+01 0.  1.
        -11    1    3    3    0    0  0.24205246757E+02  0.21878139376E+02 -0.33525219053E+02  0.46781270459E+02  0.00000000000E+00 0. -1.
         11    1    3    3    0    0 -0.70371856266E+02 -0.88948435707E+01 -0.71355279778E+02  0.10061258544E+03  0.00000000000E+00 0.  1.
<mgrwt>
<rscale>  0 0.12556200E+03</rscale>
<asrwt>0</asrwt>
<pdfrwt beam="1">  1        4 0.62963408E-02 0.13388889E+03</pdfrwt>
<pdfrwt beam="2">  1       -4 0.54458431E-01 0.13388889E+03</pdfrwt>
<totfact> 0.87974947E+02</totfact>
</mgrwt>
</event>
<event>
 7    1  0.1446636E-005  0.1295124E+03  0.7546771E-02  0.1242664E+00
          1   -1    0    0  501    0  0.00000000000E+00  0.00000000000E+00  0.11039804314E+03  0.11039804314E+03  0.00000000000E+00 0. -1.
         -1   -1    0    0    0  501 -0.00000000000E+00 -0.00000000000E+00 -0.11644895511E+03  0.11644895511E+03  0.00000000000E+00 0.  1.
         23    2    1    2    0    0  0.27380185878E+02  0.19985941321E+02 -0.12902415209E+02  0.97153456511E+02  0.90128848681E+02 0.  0.
          5    1    1    2  502    0 -0.71550005513E+02 -0.21083724555E+02 -0.20521636150E+02  0.77505833847E+02  0.47000000000E+01 0.  1.
         -5    1    1    2    0  502  0.44169819635E+02  0.10977832340E+01  0.27373139392E+02  0.52187707890E+02  0.47000000000E+01 0.  1.
        -11    1    3    3    0    0 -0.11161703888E+02 -0.18173905040E+02 -0.33017210240E+02  0.39306623235E+02  0.00000000000E+00 0.  1.
         11    1    3    3    0    0  0.38541889766E+02  0.38159846360E+02  0.20114795031E+02  0.57846833276E+02  0.00000000000E+00 0. -1.
<mgrwt>
<rscale>  0 0.12026304E+03</rscale>
<asrwt>0</asrwt>
<pdfrwt beam="1">  1        1 0.16984314E-01 0.12951244E+03</pdfrwt>
<pdfrwt beam="2">  1       -1 0.17915224E-01 0.12951244E+03</pdfrwt>
<totfact> 0.72018386E+03</totfact>
</mgrwt>
</event>
<event>
 7    1  0.1446636E-005  0.1620266E+03  0.7546771E-02  0.1196817E+00
          1   -1    0    0  501    0  0.00000000000E+00  0.00000000000E+00  0.72122466212E+03  0.72122466212E+03  0.00000000000E+00 0.  1.
         -1   -1    0    0    0  501 -0.00000000000E+00 -0.00000000000E+00 -0.29336634902E+02  0.29336634902E+02  0.00000000000E+00 0. -1.
         23    2    1    2    0    0 -0.33501700414E+02 -0.97498035958E+02  0.30284571165E+03  0.32912737502E+03  0.77337397014E+02 0.  0.
          5    1    1    2  502    0 -0.30720819715E+02  0.13965375284E+01  0.26445561979E+02  0.40831076760E+02  0.47000000000E+01 0. -1.
         -5    1    1    2    0  502  0.64222520129E+02  0.96101498430E+02  0.36259675359E+03  0.38060284524E+03  0.47000000000E+01 0. -1.
        -11    1    3    3    0    0  0.31880838983E+01 -0.80592865080E+02  0.24949283854E+03  0.26220612171E+03  0.00000000000E+00 0.  1.
         11    1    3    3    0    0 -0.36689784312E+02 -0.16905170878E+02  0.53352873113E+02  0.66921253311E+02  0.00000000000E+00 0. -1.
<mgrwt>
<rscale>  0 0.15301490E+03</rscale>
<asrwt>0</asrwt>
<pdfrwt beam="1">  1        1 0.11095763E+00 0.16202663E+03</pdfrwt>
<pdfrwt beam="2">  1       -1 0.45133290E-02 0.16202663E+03</pdfrwt>
<totfact> 0.54076424E+03</totfact>
</mgrwt>
</event>
<event>
 7    1  0.1446636E-005  0.2492277E+03  0.7546771E-02  0.1116394E+00
          2   -1    0    0  501    0  0.00000000000E+00  0.00000000000E+00  0.31869163417E+03  0.31869163417E+03  0.00000000000E+00 0. -1.
         -2   -1    0    0    0  501 -0.00000000000E+00 -0.00000000000E+00 -0.27463512419E+03  0.27463512419E+03  0.00000000000E+00 0.  1.
         23    2    1    2    0    0 -0.67320402127E+02  0.20481188094E+03  0.19310900094E+03  0.30292860306E+03  0.89413137707E+02 0.  0.
          5    1    1    2  502    0  0.42635476334E+02 -0.19931605952E+02 -0.77045040505E+02  0.90405094019E+02  0.47000000000E+01 0.  1.
         -5    1    1    2    0  502  0.24684925793E+02 -0.18488027498E+03 -0.72007450460E+02  0.19999306128E+03  0.47000000000E+01 0.  1.
        -11    1    3    3    0    0  0.93910055891E+01  0.75086521498E+02  0.10134957693E+03  0.12648285829E+03  0.00000000000E+00 0. -1.
         11    1    3    3    0    0 -0.76711407716E+02  0.12972535944E+03  0.91759424012E+02  0.17644574478E+03  0.00000000000E+00 0.  1.
<mgrwt>
<rscale>  0 0.24517237E+03</rscale>
<asrwt>0</asrwt>
<pdfrwt beam="1">  1        2 0.49029482E-01 0.24922769E+03</pdfrwt>
<pdfrwt beam="2">  1       -2 0.42251558E-01 0.24922769E+03</pdfrwt>
<totfact> 0.55078267E+02</totfact>
</mgrwt>
</event>
<event>
 7    1  0.1446636E-005  0.1255291E+03  0.7546771E-02  0.1250820E+00
          1   -1    0    0  501    0  0.00000000000E+00  0.00000000000E+00  0.15536570670E+03  0.15536570670E+03  0.00000000000E+00 0. -1.
         -1   -1    0    0    0  501 -0.00000000000E+00 -0.00000000000E+00 -0.76297711749E+02  0.76297711749E+02  0.00000000000E+00 0.  1.
         23    2    1    2    0    0  0.22285496281E+01  0.11405771583E+02  0.50209686223E+02  0.10285981482E+03  0.89017250330E+02 0.  0.
          5    1    1    2  502    0 -0.36433429301E+01  0.39925093670E+02 -0.30192155456E+02  0.50407770267E+02  0.47000000000E+01 0.  1.
         -5    1    1    2    0  502  0.14147933021E+01 -0.51330865252E+02  0.59050464188E+02  0.78395833362E+02  0.47000000000E+01 0.  1.
        -11    1    3    3    0    0  0.32193665311E+02 -0.22231760296E+02  0.41392427058E+02  0.56956266291E+02  0.00000000000E+00 0. -1.
         11    1    3    3    0    0 -0.29965115683E+02  0.33637531879E+02  0.88172591646E+01  0.45903548534E+02  0.00000000000E+00 0.  1.
<mgrwt>
<rscale>  0 0.11543684E+03</rscale>
<asrwt>0</asrwt>
<pdfrwt beam="1">  1        1 0.23902416E-01 0.12552915E+03</pdfrwt>
<pdfrwt beam="2">  1       -1 0.11738110E-01 0.12552915E+03</pdfrwt>
<totfact> 0.90124497E+03</totfact>
</mgrwt>
</event>
<event>
 7    1  0.1446636E-005  0.2024500E+03  0.7546771E-02  0.1152111E+00
          1   -1    0    0  501    0  0.00000000000E+00  0.00000000000E+00  0.84044916924E+03  0.84044916924E+03  0.00000000000E+00 0. -1.
         -1   -1    0    0    0  501 -0.00000000000E+00 -0.00000000000E+00 -0.46387259964E+02  0.46387259964E+02  0.00000000000E+00 0.  1.
         23    2    1    2    0    0 -0.10154989916E+03  0.12270093797E+03  0.47702650925E+03  0.51067497866E+03  0.88694650921E+02 0.  0.
          5    1    1    2  502    0  0.10454135505E+03 -0.11406067795E+03  0.32703569376E+03  0.36181924791E+03  0.47000000000E+01 0. -1.
         -5    1    1    2    0  502 -0.29914558827E+01 -0.86402600211E+01 -0.10000293732E+02  0.14342202629E+02  0.47000000000E+01 0. -1.
        -11    1    3    3    0    0 -0.85572655470E+02  0.34301745112E+02  0.22743424565E+03  0.24540909759E+03  0.00000000000E+00 0.  1.
         11    1    3    3    0    0 -0.15977243694E+02  0.88399192862E+02  0.24959226360E+03  0.26526588108E+03  0.00000000000E+00 0. -1.
<mgrwt>
<rscale>  0 0.19721374E+03</rscale>
<asrwt>0</asrwt>
<pdfrwt beam="1">  1        1 0.12929986E+00 0.20244997E+03</pdfrwt>
<pdfrwt beam="2">  1       -1 0.71365022E-02 0.20244997E+03</pdfrwt>
<totfact> 0.21768085E+03</totfact>
</mgrwt>
</event>
<event>
 7    1  0.1446636E-005  0.1592433E+03  0.7546771E-02  0.1197701E+00
         -2   -1    0    0    0  501 -0.00000000000E+00  0.00000000000E+00  0.56295723077E+02  0.56295723077E+02  0.00000000000E+00 0.  1.
          2   -1    0    0  501    0  0.00000000000E+00 -0.00000000000E+00 -0.38829586848E+03  0.38829586848E+03  0.00000000000E+00 0. -1.
         23    2    1    2    0    0 -0.41318946503E+02  0.89586278130E+02 -0.18449231157E+03  0.22752713781E+03  0.89432817469E+02 0.  0.
          5    1    1    2  502    0  0.47049019098E+01 -0.43497262930E+02  0.13127799594E+02  0.45919245492E+02  0.47000000000E+01 0.  1.
         -5    1    1    2    0  502  0.36614044593E+02 -0.46089015200E+02 -0.16063563343E+03  0.17114520826E+03  0.47000000000E+01 0.  1.
        -11    1    3    3    0    0 -0.24687365228E+02  0.80004451298E+00 -0.31084111266E+01  0.24895145969E+02  0.00000000000E+00 0.  1.
         11    1    3    3    0    0 -0.16631581275E+02  0.88786233617E+02 -0.18138390044E+03  0.20263199184E+03  0.00000000000E+00 0. -1.
<mgrwt>
<rscale>  0 0.15227830E+03</rscale>
<asrwt>0</asrwt>
<pdfrwt beam="2">  1        2 0.59737827E-01 0.15924326E+03</pdfrwt>
<pdfrwt beam="1">  1       -2 0.86608803E-02 0.15924326E+03</pdfrwt>
<totfact> 0.66434771E+03</totfact>
</mgrwt>
</event>
<event>
 7    1  0.1446636E-005  0.1551973E+03  0.7546771E-02  0.1194323E+00
         -1   -1    0    0    0  501 -0.00000000000E+00  0.00000000000E+00  0.18222786793E+03  0.18222786793E+03  0.00000000000E+00 0.  1.
          1   -1    0    0  501    0  0.00000000000E+00 -0.00000000000E+00 -0.14823791651E+03  0.14823791651E+03  0.00000000000E+00 0. -1.
         23    2    1    2    0    0 -0.47205704458E+02  0.78954709771E+02 -0.37871115224E+02  0.15943888659E+03  0.12459659891E+03 0.  0.
          5    1    1    2  502    0  0.26610364963E+02 -0.23813882284E+02  0.99508190394E+02  0.10582618990E+03  0.47000000000E+01 0. -1.
         -5    1    1    2    0  502  0.20595339495E+02 -0.55140827487E+02 -0.27647123751E+02  0.65200707945E+02  0.47000000000E+01 0. -1.
        -11    1    3    3    0    0 -0.19046360266E+02  0.87989295247E+02 -0.71274341780E+02  0.11482557082E+03  0.00000000000E+00 0. -1.
         11    1    3    3    0    0 -0.28159344192E+02 -0.90345854764E+01  0.33403226556E+02  0.44613315775E+02  0.00000000000E+00 0.  1.
<mgrwt>
<rscale>  0 0.15511685E+03</rscale>
<asrwt>0</asrwt>
<pdfrwt beam="2">  1        1 0.22805833E-01 0.15519725E+03</pdfrwt>
<pdfrwt beam="1">  1       -1 0.28035057E-01 0.15519725E+03</pdfrwt>
<totfact> 0.24126063E+03</totfact>
</mgrwt>
</event>
<event>
 7    1  0.1446636E-005  0.1453902E+03  0.7546771E-02  0.1217230E+00
          3   -1    0    0  501    0  0.00000000000E+00  0.00000000000E+00  0.74806830247E+03  0.74806830247E+03  0.00000000000E+00 0. -1.
         -3   -1    0    0    0  501 -0.00000000000E+00 -0.00000000000E+00 -0.22961031483E+02  0.22961031483E+02  0.00000000000E+00 0.  1.
         23    2    1    2    0    0 -0.72830517208E+02  0.14471510629E+02  0.36358743191E+03  0.38136933666E+03  0.87937713427E+02 0.  0.
          5    1    1    2  502    0  0.10569096568E+03  0.18884871820E+01  0.23265933361E+03  0.25559069256E+03  0.47000000000E+01 0.  1.
         -5    1    1    2    0  502 -0.32860448468E+02 -0.16359997811E+02  0.12886050546E+03  0.13406930473E+03  0.47000000000E+01 0.  1.
        -11    1    3    3    0    0 -0.43430619992E+02  0.40813853070E+02  0.30470710702E+03  0.31048093407E+03  0.00000000000E+00 0. -1.
         11    1    3    3    0    0 -0.29399897216E+02 -0.26342342442E+02  0.58880324895E+02  0.70888402587E+02  0.00000000000E+00 0.  1.
<mgrwt>
<rscale>  0 0.13714030E+03</rscale>
<asrwt>0</asrwt>
<pdfrwt beam="1">  1        3 0.11508741E+00 0.14539023E+03</pdfrwt>
<pdfrwt beam="2">  1       -3 0.35324670E-02 0.14539023E+03</pdfrwt>
<totfact> 0.60501438E+02</totfact>
</mgrwt>
</event>
<event>
 7    1  0.1446636E-005  0.1450010E+03  0.7546771E-02  0.1212654E+00
          2   -1    0    0  501    0  0.00000000000E+00  0.00000000000E+00  0.30818769853E+03  0.30818769853E+03  0.00000000000E+00 0. -1.
         -2   -1    0    0    0  501 -0.00000000000E+00 -0.00000000000E+00 -0.62857877622E+02  0.62857877622E+02  0.00000000000E+00 0.  1.
         23    2    1    2    0    0 -0.55824265361E+02  0.47742938549E+02  0.15199659965E+03  0.19860314634E+03  0.10461599614E+03 0.  0.
          5    1    1    2  502    0  0.12811649506E+02 -0.31828974763E+01  0.10776879340E+03  0.10867599565E+03  0.47000000000E+01 0.  1.
         -5    1    1    2    0  502  0.43012615855E+02 -0.44560041073E+02 -0.14435572139E+02  0.63766434165E+02  0.47000000000E+01 0.  1.
        -11    1    3    3    0    0 -0.74582512252E+02  0.30406424569E+02  0.53124025095E+02  0.96484526382E+02  0.00000000000E+00 0.  1.
         11    1    3    3    0    0  0.18758246891E+02  0.17336513980E+02  0.98872574557E+02  0.10211861996E+03  0.00000000000E+00 0. -1.
<mgrwt>
<rscale>  0 0.14050302E+03</rscale>
<asrwt>0</asrwt>
<pdfrwt beam="1">  1        2 0.47413491E-01 0.14500104E+03</pdfrwt>
<pdfrwt beam="2">  1       -2 0.96704429E-02 0.14500104E+03</pdfrwt>
<totfact> 0.71116532E+03</totfact>
</mgrwt>
</event>
<event>
 7    1  0.1446636E-005  0.1268641E+03  0.7546771E-02  0.1247111E+00
          1   -1    0    0  501    0  0.00000000000E+00  0.00000000000E+00  0.38131587215E+02  0.38131587215E+02  0.00000000000E+00 0. -1.
         -1   -1    0    0    0  501 -0.00000000000E+00 -0.00000000000E+00 -0.43386196002E+03  0.43386196002E+03  0.00000000000E+00 0.  1.
         23    2    1    2    0    0 -0.21260681676E+02  0.44606757075E+01 -0.55491722477E+02  0.10887256080E+03  0.91115251290E+02 0.  0.
          5    1    1    2  502    0 -0.36338301236E+02 -0.37242067718E+02 -0.88578992751E+02  0.10283857108E+03  0.47000000000E+01 0. -1.
         -5    1    1    2    0  502  0.57598982913E+02  0.32781392010E+02 -0.25165965758E+03  0.26028241536E+03  0.47000000000E+01 0. -1.
        -11    1    3    3    0    0  0.16006190278E+02  0.13064641986E+02 -0.66040728178E+02  0.69197259886E+02  0.00000000000E+00 0.  1.
         11    1    3    3    0    0 -0.37266871954E+02 -0.86039662786E+01  0.10549005701E+02  0.39675300909E+02  0.00000000000E+00 0. -1.
<mgrwt>
<rscale>  0 0.11759891E+03</rscale>
<asrwt>0</asrwt>
<pdfrwt beam="1">  1        1 0.58663985E-02 0.12686415E+03</pdfrwt>
<pdfrwt beam="2">  1       -1 0.66747989E-01 0.12686415E+03</pdfrwt>
<totfact> 0.30176424E+03</totfact>
</mgrwt>
</event>
<event>
 7    1  0.1446636E-005  0.1363369E+03  0.7546771E-02  0.1223495E+00
         -2   -1    0    0    0  501 -0.00000000000E+00  0.00000000000E+00  0.92688971400E+03  0.92688971400E+03  0.00000000000E+00 0.  1.
          2   -1    0    0  501    0  0.00000000000E+00 -0.00000000000E+00 -0.20123477554E+02  0.20123477554E+02  0.00000000000E+00 0. -1.
         23    2    1    2    0    0  0.54292467605E+01 -0.54161733246E+02  0.27979590337E+03  0.30539060883E+03  0.10961161593E+03 0.  0.
          5    1    1    2  502    0  0.38935857340E+02  0.92536182633E+01  0.67725016482E+02  0.78806080320E+02  0.47000000000E+01 0. -1.
         -5    1    1    2    0  502 -0.44365104101E+02  0.44908114983E+02  0.55924531659E+03  0.56281650241E+03  0.47000000000E+01 0. -1.
        -11    1    3    3    0    0  0.24484751623E+02 -0.81496354284E+02  0.23210550312E+03  0.24721270882E+03  0.00000000000E+00 0. -1.
         11    1    3    3    0    0 -0.19055504863E+02  0.27334621038E+02  0.47690400254E+02  0.58177900007E+02  0.00000000000E+00 0.  1.
<mgrwt>
<rscale>  0 0.13270599E+03</rscale>
<asrwt>0</asrwt>
<pdfrwt beam="2">  1        2 0.30959203E-02 0.13633686E+03</pdfrwt>
<pdfrwt beam="1">  1       -2 0.14259838E+00 0.13633686E+03</pdfrwt>
<totfact> 0.10488981E+03</totfact>
</mgrwt>
</event>
<event>
 7    1  0.1446636E-005  0.1341444E+03  0.7546771E-02  0.1234159E+00
          1   -1    0    0  501    0  0.00000000000E+00  0.00000000000E+00  0.43994002795E+02  0.43994002795E+02  0.00000000000E+00 0. -1.
         -1   -1    0    0    0  501 -0.00000000000E+00 -0.00000000000E+00 -0.32687165606E+03  0.32687165606E+03  0.00000000000E+00 0.  1.
         23    2    1    2    0    0  0.39200450497E+02 -0.28877109953E+02 -0.96052275340E+02  0.14086904706E+03  0.90815670587E+02 0.  0.
          5    1    1    2  502    0 -0.99111237615E+01  0.69872376044E+01 -0.19228846067E+03  0.19272777166E+03  0.47000000000E+01 0.  1.
         -5    1    1    2    0  502 -0.29289326735E+02  0.21889872349E+02  0.54630827371E+01  0.37268840136E+02  0.47000000000E+01 0.  1.
        -11    1    3    3    0    0 -0.27437243031E+02  0.19142989563E+01 -0.39836189430E+02  0.48408561577E+02  0.00000000000E+00 0. -1.
         11    1    3    3    0    0  0.66637693528E+02 -0.30791408909E+02 -0.56216085910E+02  0.92460485487E+02  0.00000000000E+00 0.  1.
<mgrwt>
<rscale>  0 0.12558420E+03</rscale>
<asrwt>0</asrwt>
<pdfrwt beam="1">  1        1 0.67683080E-02 0.13414440E+03</pdfrwt>
<pdfrwt beam="2">  1       -1 0.50287948E-01 0.13414440E+03</pdfrwt>
<totfact> 0.42530514E+03</totfact>
</mgrwt>
</event>
<event>
 7    1  0.1446636E-005  0.2359837E+03  0.7546771E-02  0.1124395E+00
         -1   -1    0    0    0  501 -0.00000000000E+00  0.00000000000E+00  0.64543696428E+02  0.64543696428E+02  0.00000000000E+00 0.  1.
          1   -1    0    0  501    0  0.00000000000E+00 -0.00000000000E+00 -0.82351938952E+03  0.82351938952E+03  0.00000000000E+00 0. -1.
         23    2    1    2    0    0  0.79365435849E+02 -0.19115159203E+03 -0.37090178328E+03  0.43387185687E+03  0.88537290455E+02 0.  0.
          5    1    1    2  502    0 -0.15573101533E+02  0.12104628443E+03 -0.12606809078E+03  0.17552771285E+03  0.47000000000E+01 0. -1.
         -5    1    1    2    0  502 -0.63792334315E+02  0.70105307596E+02 -0.26200581903E+03  0.27866351623E+03  0.47000000000E+01 0.  1.
        -11    1    3    3    0    0  0.98907425456E+02 -0.16608281893E+03 -0.31621212536E+03  0.37061609487E+03  0.00000000000E+00 0.  1.
         11    1    3    3    0    0 -0.19541989607E+02 -0.25068773099E+02 -0.54689657919E+02  0.63255761997E+02  0.00000000000E+00 0. -1.
<mgrwt>
<rscale>  0 0.23321824E+03</rscale>
<asrwt>0</asrwt>
<pdfrwt beam="2">  1        1 0.12669528E+00 0.23598371E+03</pdfrwt>
<pdfrwt beam="1">  1       -1 0.99298003E-02 0.23598371E+03</pdfrwt>
<totfact> 0.13573548E+03</totfact>
</mgrwt>
</event>
<event>
 7    1  0.1446636E-005  0.1508868E+03  0.7546771E-02  0.1208747E+00
         -2   -1    0    0    0  501 -0.00000000000E+00  0.00000000000E+00  0.35421253732E+03  0.35421253732E+03  0.00000000000E+00 0.  1.
          2   -1    0    0  501    0  0.00000000000E+00 -0.00000000000E+00 -0.57051906474E+02  0.57051906474E+02  0.00000000000E+00 0. -1.
         23    2    1    2    0    0 -0.81318762014E+02  0.22989038070E+02  0.80549147950E+02  0.14728078444E+03  0.89789906460E+02 0.  0.
          5    1    1    2  502    0  0.97178476613E+02 -0.14261765590E+02  0.81876033491E+02  0.12795635637E+03  0.47000000000E+01 0.  1.
         -5    1    1    2    0  502 -0.15859714600E+02 -0.87272724799E+01  0.13473544940E+03  0.13602730299E+03  0.47000000000E+01 0.  1.
        -11    1    3    3    0    0 -0.97150262608E+02  0.31983822233E+02  0.78551776534E+02  0.12896325060E+03  0.00000000000E+00 0.  1.
         11    1    3    3    0    0  0.15831500594E+02 -0.89947841626E+01  0.19973714163E+01  0.18317533834E+02  0.00000000000E+00 0. -1.
<mgrwt>
<rscale>  0 0.14346017E+03</rscale>
<asrwt>0</asrwt>
<pdfrwt beam="2">  1        2 0.87772166E-02 0.15088684E+03</pdfrwt>
<pdfrwt beam="1">  1       -2 0.54494235E-01 0.15088684E+03</pdfrwt>
<totfact> 0.23602771E+03</totfact>
</mgrwt>
</event>
<event>
 7    1  0.1446636E-005  0.1560055E+03  0.7546771E-02  0.1200995E+00
         -1   -1    0    0    0  501 -0.00000000000E+00  0.00000000000E+00  0.33439049405E+02  0.33439049405E+02  0.00000000000E+00 0.  1.
          1   -1    0    0  501    0  0.00000000000E+00 -0.00000000000E+00 -0.80607855615E+03  0.80607855615E+03  0.00000000000E+00 0. -1.
         23    2    1    2    0    0  0.11603107071E+02 -0.92622858453E+02 -0.56283196882E+03  0.57806601753E+03  0.93096022980E+02 0.  0.
          5    1    1    2  502    0 -0.12151435082E+01 -0.29113276060E+02 -0.68506924290E+02  0.74594558061E+02  0.47000000000E+01 0. -1.
         -5    1    1    2    0  502 -0.10387963563E+02  0.12173613451E+03 -0.14130061363E+03  0.18685702996E+03  0.47000000000E+01 0. -1.
        -11    1    3    3    0    0  0.46141325150E+02 -0.35979829485E+02 -0.17293959330E+03  0.18256963862E+03  0.00000000000E+00 0.  1.
         11    1    3    3    0    0 -0.34538218079E+02 -0.56643028968E+02 -0.38989237553E+03  0.39549637891E+03  0.00000000000E+00 0. -1.
<mgrwt>
<rscale>  0 0.14957630E+03</rscale>
<asrwt>0</asrwt>
<pdfrwt beam="2">  1        1 0.12401207E+00 0.15600554E+03</pdfrwt>
<pdfrwt beam="1">  1       -1 0.51444697E-02 0.15600554E+03</pdfrwt>
<totfact> 0.37692710E+03</totfact>
</mgrwt>
</event>
<event>
 7    1  0.1446636E-005  0.1850986E+03  0.7546771E-02  0.1188515E+00
          2   -1    0    0  501    0  0.00000000000E+00  0.00000000000E+00  0.72190233448E+03  0.72190233448E+03  0.00000000000E+00 0. -1.
         -2   -1    0    0    0  501 -0.00000000000E+00 -0.00000000000E+00 -0.29044794874E+02  0.29044794874E+02  0.00000000000E+00 0.  1.
         23    2    1    2    0    0 -0.18687997667E+02  0.49496847547E+02  0.27524460993E+03  0.29415171241E+03  0.89255002337E+02 0.  0.
          5    1    1    2  502    0  0.73348277462E+02 -0.15084289664E+02  0.36703004161E+03  0.37462067087E+03  0.47000000000E+01 0. -1.
         -5    1    1    2    0  502 -0.54660279795E+02 -0.34412557883E+02  0.50582888066E+02  0.82174746074E+02  0.47000000000E+01 0.  1.
        -11    1    3    3    0    0 -0.38398786042E+02  0.61520836846E+02  0.14780887942E+03  0.16464126145E+03  0.00000000000E+00 0.  1.
         11    1    3    3    0    0  0.19710788375E+02 -0.12023989298E+02  0.12743573051E+03  0.12951045096E+03  0.00000000000E+00 0. -1.
<mgrwt>
<rscale>  0 0.16016120E+03</rscale>
<asrwt>0</asrwt>
<pdfrwt beam="1">  1        2 0.11106188E+00 0.18509861E+03</pdfrwt>
<pdfrwt beam="2">  1       -2 0.44684305E-02 0.18509861E+03</pdfrwt>
<totfact> 0.91665743E+03</totfact>
</mgrwt>
</event>
<event>
 7    1  0.1446636E-005  0.2030005E+03  0.7546771E-02  0.1151337E+00
         -2   -1    0    0    0  501 -0.00000000000E+00  0.00000000000E+00  0.10916216577E+04  0.10916216577E+04  0.00000000000E+00 0.  1.
          2   -1    0    0  501    0  0.00000000000E+00 -0.00000000000E+00 -0.37233858583E+02  0.37233858583E+02  0.00000000000E+00 0. -1.
         23    2    1    2    0    0  0.23203716107E+02  0.15826090429E+03  0.34604663310E+03  0.39199974347E+03  0.91272122443E+02 0.  0.
          5    1    1    2  502    0 -0.63040599353E+02 -0.14484575833E+03  0.50457937556E+03  0.52875026914E+03  0.47000000000E+01 0.  1.
         -5    1    1    2    0  502  0.39836883245E+02 -0.13415145963E+02  0.20376179049E+03  0.20810550370E+03  0.47000000000E+01 0.  1.
        -11    1    3    3    0    0  0.31889454120E+02  0.86946671926E+02  0.10278924415E+03  0.13835566398E+03  0.00000000000E+00 0. -1.
         11    1    3    3    0    0 -0.86857380124E+01  0.71314232367E+02  0.24325738894E+03  0.25364407949E+03  0.00000000000E+00 0.  1.
<mgrwt>
<rscale>  0 0.19811745E+03</rscale>
<asrwt>0</asrwt>
<pdfrwt beam="2">  1        2 0.57282868E-02 0.20300055E+03</pdfrwt>
<pdfrwt beam="1">  1       -2 0.16794177E+00 0.20300055E+03</pdfrwt>
<totfact> 0.30746907E+02</totfact>
</mgrwt>
</event>
<event>
 7    1  0.1446636E-005  0.1251861E+03  0.7546771E-02  0.1273755E+00
          2   -1    0    0  501    0  0.00000000000E+00  0.00000000000E+00  0.27557425224E+03  0.27557425224E+03  0.00000000000E+00 0. -1.
         -2   -1    0    0    0  501 -0.00000000000E+00 -0.00000000000E+00 -0.33277722532E+02  0.33277722532E+02  0.00000000000E+00 0.  1.
         23    2    1    2    0    0 -0.55782505341E+01  0.39082445792E+01  0.12317685820E+03  0.13604842222E+03  0.57360644508E+02 0.  0.
          5    1    1    2  502    0 -0.42139241751E+02 -0.18356140572E+02  0.29472039654E+01  0.46297295853E+02  0.47000000000E+01 0.  1.
         -5    1    1    2    0  502  0.47717492285E+02  0.14447895992E+02  0.11617246754E+03  0.12650625670E+03  0.47000000000E+01 0.  1.
        -11    1    3    3    0    0 -0.79724584337E+01 -0.18973967837E+02  0.15038678510E+02  0.25489868581E+02  0.00000000000E+00 0.  1.
         11    1    3    3    0    0  0.23942078996E+01  0.22882212417E+02  0.10813817969E+03  0.11055855364E+03  0.00000000000E+00 0. -1.
<mgrwt>
<rscale>  0 0.10317650E+03</rscale>
<asrwt>0</asrwt>
<pdfrwt beam="1">  1        2 0.42396037E-01 0.12518615E+03</pdfrwt>
<pdfrwt beam="2">  1       -2 0.51196498E-02 0.12518615E+03</pdfrwt>
<totfact> 0.20964166E+04</totfact>
</mgrwt>
</event>
<event>
 7    1  0.1446636E-005  0.1277251E+03  0.7546771E-02  0.1245990E+00
         -1   -1    0    0    0  501 -0.00000000000E+00  0.00000000000E+00  0.21525052917E+02  0.21525052917E+02  0.00000000000E+00 0.  1.
          1   -1    0    0  501    0  0.00000000000E+00 -0.00000000000E+00 -0.62225983567E+03  0.62225983567E+03  0.00000000000E+00 0. -1.
         23    2    1    2    0    0 -0.15705014948E+02 -0.21022370763E+02 -0.35027954891E+03  0.36264164051E+03  0.90136615650E+02 0.  0.
          5    1    1    2  502    0 -0.16518885367E+01  0.70948722441E+02 -0.10992530768E+03  0.13092789321E+03  0.47000000000E+01 0.  1.
         -5    1    1    2    0  502  0.17356903484E+02 -0.49926351678E+02 -0.14052992616E+03  0.15021535487E+03  0.47000000000E+01 0.  1.
        -11    1    3    3    0    0 -0.48105541123E+02  0.94366210018E+01 -0.16717780152E+03  0.17421713527E+03  0.00000000000E+00 0.  1.
         11    1    3    3    0    0  0.32400526176E+02 -0.30458991765E+02 -0.18310174740E+03  0.18842450524E+03  0.00000000000E+00 0. -1.
<mgrwt>
<rscale>  0 0.11826300E+03</rscale>
<asrwt>0</asrwt>
<pdfrwt beam="2">  1        1 0.95732282E-01 0.12772510E+03</pdfrwt>
<pdfrwt beam="1">  1       -1 0.33115466E-02 0.12772510E+03</pdfrwt>
<totfact> 0.10355169E+04</totfact>
</mgrwt>
</event>
<event>
 7    1  0.1446636E-005  0.1328080E+03  0.7546771E-02  0.1236257E+00
         -1   -1    0    0    0  501 -0.00000000000E+00  0.00000000000E+00  0.26929789563E+03  0.26929789563E+03  0.00000000000E+00 0.  1.
          1   -1    0    0  501    0  0.00000000000E+00 -0.00000000000E+00 -0.54008640325E+02  0.54008640325E+02  0.00000000000E+00 0. -1.
         23    2    1    2    0    0 -0.39937821829E+02  0.20437422557E+02  0.56716699591E+02  0.11646551144E+03  0.91294652028E+02 0.  0.
          5    1    1    2  502    0 -0.33810919198E+02  0.27590405531E+02  0.63594588489E+02  0.77270760444E+02  0.47000000000E+01 0. -1.
         -5    1    1    2    0  502  0.73748741027E+02 -0.48027828088E+02  0.94977967223E+02  0.12957026407E+03  0.47000000000E+01 0. -1.
        -11    1    3    3    0    0 -0.58982900111E+02 -0.14779916671E+02  0.26621950651E+02  0.66378887447E+02  0.00000000000E+00 0.  1.
         11    1    3    3    0    0  0.19045078282E+02  0.35217339228E+02  0.30094748940E+02  0.50086623991E+02  0.00000000000E+00 0. -1.
<mgrwt>
<rscale>  0 0.12424306E+03</rscale>
<asrwt>0</asrwt>
<pdfrwt beam="2">  1        1 0.83090218E-02 0.13280796E+03</pdfrwt>
<pdfrwt beam="1">  1       -1 0.41430445E-01 0.13280796E+03</pdfrwt>
<totfact> 0.45668541E+03</totfact>
</mgrwt>
</event>
<event>
 7    1  0.1446636E-005  0.2256313E+03  0.7546771E-02  0.1129753E+00
         -1   -1    0    0    0  501 -0.00000000000E+00  0.00000000000E+00  0.19675286628E+03  0.19675286628E+03  0.00000000000E+00 0.  1.
          1   -1    0    0  501    0  0.00000000000E+00 -0.00000000000E+00 -0.64687102808E+02  0.64687102808E+02  0.00000000000E+00 0. -1.
         23    2    1    2    0    0  0.66502045645E+01  0.25508977864E+02  0.27689440985E+02  0.96472231294E+02  0.88573433355E+02 0.  0.
          5    1    1    2  502    0  0.34313651368E+02  0.35398939627E+02  0.21018955565E+02  0.53799610501E+02  0.47000000000E+01 0.  1.
         -5    1    1    2    0  502 -0.40963855933E+02 -0.60907917491E+02  0.83357366925E+02  0.11116812730E+03  0.47000000000E+01 0.  1.
        -11    1    3    3    0    0  0.17593921964E+02 -0.16721145127E+01 -0.28250279976E+02  0.33322970692E+02  0.00000000000E+00 0. -1.
         11    1    3    3    0    0 -0.10943717400E+02  0.27181092377E+02  0.55939720961E+02  0.63149260602E+02  0.00000000000E+00 0.  1.
<mgrwt>
<rscale>  0 0.22563132E+03</rscale>
<asrwt>0</asrwt>
<pdfrwt beam="2">  1        1 0.99518620E-02 0.22563132E+03</pdfrwt>
<pdfrwt beam="1">  1       -1 0.30269672E-01 0.22563132E+03</pdfrwt>
<totfact> 0.63780068E+03</totfact>
</mgrwt>
</event>
<event>
 7    1  0.1897800E-005  0.3871645E+03  0.7546771E-02  0.1049168E+00
          3   -1    0    0  501    0  0.00000000000E+00  0.00000000000E+00  0.56070909807E+03  0.56070909807E+03  0.00000000000E+00 0. -1.
         -3   -1    0    0    0  501 -0.00000000000E+00 -0.00000000000E+00 -0.26545477732E+03  0.26545477732E+03  0.00000000000E+00 0.  1.
         23    2    1    2    0    0  0.36507722147E+03  0.31443214076E+02  0.92018167033E+02  0.38889817105E+03  0.92219255261E+02 0.  0.
          5    1    1    2  502    0 -0.31127656253E+03 -0.71527707954E+02  0.15941975184E+03  0.35699588046E+03  0.47000000000E+01 0. -1.
         -5    1    1    2    0  502 -0.53800658931E+02  0.40084493878E+02  0.43816401877E+02  0.80269823871E+02  0.47000000000E+01 0. -1.
        -11    1    3    3    0    0  0.21319820221E+03  0.13261405646E+02  0.66246821743E+01  0.21371294935E+03  0.00000000000E+00 0.  1.
         11    1    3    3    0    0  0.15187901926E+03  0.18181808430E+02  0.85393484859E+02  0.17518522171E+03  0.00000000000E+00 0. -1.
<mgrwt>
<rscale>  0 0.38481587E+03</rscale>
<asrwt>0</asrwt>
<pdfrwt beam="1">  1        3 0.86262938E-01 0.38716452E+03</pdfrwt>
<pdfrwt beam="2">  1       -3 0.40839196E-01 0.38716452E+03</pdfrwt>
<totfact> 0.18968578E+01</totfact>
</mgrwt>
</event>
<event>
 7    1  0.1446636E-005  0.1232037E+03  0.7546771E-02  0.1248403E+00
         -2   -1    0    0    0  501 -0.00000000000E+00  0.00000000000E+00  0.81555445026E+03  0.81555445026E+03  0.00000000000E+00 0.  1.
          2   -1    0    0  501    0  0.00000000000E+00 -0.00000000000E+00 -0.29582422307E+02  0.29582422307E+02  0.00000000000E+00 0. -1.
         23    2    1    2    0    0 -0.51390621461E+01 -0.42077930319E+02  0.78069375730E+02  0.12659298126E+03  0.90188653926E+02 0.  0.
          5    1    1    2  502    0  0.18958146520E+01  0.44772264297E+02  0.90380672924E+02  0.10098963215E+03  0.47000000000E+01 0. -1.
         -5    1    1    2    0  502  0.32432474941E+01 -0.26943339780E+01  0.61752197930E+03  0.61755425916E+03  0.47000000000E+01 0.  1.
        -11    1    3    3    0    0  0.34573028740E+02 -0.21026336083E+01  0.60687976864E+01  0.35164551607E+02  0.00000000000E+00 0.  1.
         11    1    3    3    0    0 -0.39712090886E+02 -0.39975296711E+02  0.72000578043E+02  0.91428429650E+02  0.00000000000E+00 0. -1.
<mgrwt>
<rscale>  0 0.11684006E+03</rscale>
<asrwt>0</asrwt>
<pdfrwt beam="2">  1        2 0.45511425E-02 0.12320373E+03</pdfrwt>
<pdfrwt beam="1">  1       -2 0.12546990E+00 0.12320373E+03</pdfrwt>
<totfact> 0.85820006E+02</totfact>
</mgrwt>
</event>
<event>
 7    1  0.3025336E-005  0.2105633E+03  0.7546771E-02  0.1144860E+00
         -2   -1    0    0    0  501 -0.00000000000E+00  0.00000000000E+00  0.52953136434E+02  0.52953136434E+02  0.00000000000E+00 0.  1.
          2   -1    0    0  501    0  0.00000000000E+00 -0.00000000000E+00 -0.79292660815E+03  0.79292660815E+03  0.00000000000E+00 0. -1.
         23    2    1    2    0    0  0.83373196038E+02 -0.14751374073E+03 -0.43037330952E+03  0.47146133011E+03  0.91341155645E+02 0.  0.
          5    1    1    2  502    0 -0.91411515105E+02  0.15524160864E+03 -0.31358233874E+03  0.36167940958E+03  0.47000000000E+01 0.  1.
         -5    1    1    2    0  502  0.80383190678E+01 -0.77278679101E+01  0.39821765407E+01  0.12739004901E+02  0.47000000000E+01 0.  1.
        -11    1    3    3    0    0  0.70731349334E+02 -0.10817042652E+03 -0.39947719448E+03  0.41986401829E+03  0.00000000000E+00 0. -1.
         11    1    3    3    0    0  0.12641846704E+02 -0.39343314212E+02 -0.30896115046E+02  0.51597311812E+02  0.00000000000E+00 0.  1.
<mgrwt>
<rscale>  0 0.20589330E+03</rscale>
<asrwt>0</asrwt>
<pdfrwt beam="2">  1        2 0.12198871E+00 0.21056327E+03</pdfrwt>
<pdfrwt beam="1">  1       -2 0.81466364E-02 0.21056327E+03</pdfrwt>
<totfact> 0.32695092E+03</totfact>
</mgrwt>
</event>
<event>
 7    1  0.1446636E-005  0.1605461E+03  0.7546771E-02  0.1195444E+00
         -2   -1    0    0    0  501 -0.00000000000E+00  0.00000000000E+00  0.36774140532E+02  0.36774140532E+02  0.00000000000E+00 0.  1.
          2   -1    0    0  501    0  0.00000000000E+00 -0.00000000000E+00 -0.65618835439E+03  0.65618835439E+03  0.00000000000E+00 0. -1.
         23    2    1    2    0    0  0.58142211421E+02  0.82200808149E+02 -0.38797218067E+03  0.41128812084E+03  0.92184682886E+02 0.  0.
          5    1    1    2  502    0 -0.65994409018E+02 -0.11056642169E+03 -0.16930924533E+03  0.21276255822E+03  0.47000000000E+01 0. -1.
         -5    1    1    2    0  502  0.78521975967E+01  0.28365613539E+02 -0.62132787858E+02  0.68911815863E+02  0.47000000000E+01 0. -1.
        -11    1    3    3    0    0 -0.13999582490E+02  0.33760713378E+02 -0.47678985383E+02  0.60075450267E+02  0.00000000000E+00 0.  1.
         11    1    3    3    0    0  0.72141793911E+02  0.48440094771E+02 -0.34029319529E+03  0.35121267057E+03  0.00000000000E+00 0. -1.
<mgrwt>
<rscale>  0 0.15416734E+03</rscale>
<asrwt>0</asrwt>
<pdfrwt beam="2">  1        2 0.10095205E+00 0.16054606E+03</pdfrwt>
<pdfrwt beam="1">  1       -2 0.56575603E-02 0.16054606E+03</pdfrwt>
<totfact> 0.71379302E+03</totfact>
</mgrwt>
</event>
<event>
 7    1  0.1446636E-005  0.1259421E+03  0.7546771E-02  0.1248343E+00
         -2   -1    0    0    0  501 -0.00000000000E+00  0.00000000000E+00  0.11300293350E+03  0.11300293350E+03  0.00000000000E+00 0. -1.
          2   -1    0    0  501    0  0.00000000000E+00 -0.00000000000E+00 -0.13055450892E+03  0.13055450892E+03  0.00000000000E+00 0.  1.
         23    2    1    2    0    0 -0.12634688860E+02  0.88100236581E+01 -0.59576882249E+02  0.11078872162E+03  0.92127542359E+02 0.  0.
          5    1    1    2  502    0 -0.51351844963E+02  0.19862061716E+02  0.23820096515E+02  0.60174749478E+02  0.47000000000E+01 0.  1.
         -5    1    1    2    0  502  0.63986533823E+02 -0.28672085374E+02  0.18205210313E+02  0.72593971326E+02  0.47000000000E+01 0.  1.
        -11    1    3    3    0    0 -0.59370605562E+01 -0.21516737583E+02 -0.73455020108E+02  0.76771470373E+02  0.00000000000E+00 0.  1.
         11    1    3    3    0    0 -0.66976283038E+01  0.30326761241E+02  0.13878137858E+02  0.34017251251E+02  0.00000000000E+00 0. -1.
<mgrwt>
<rscale>  0 0.11687515E+03</rscale>
<asrwt>0</asrwt>
<pdfrwt beam="2">  1        2 0.20085309E-01 0.12594208E+03</pdfrwt>
<pdfrwt beam="1">  1       -2 0.17385067E-01 0.12594208E+03</pdfrwt>
<totfact> 0.69553640E+03</totfact>
</mgrwt>
</event>
<event>
 7    1  0.1446636E-005  0.1332517E+03  0.7546771E-02  0.1228929E+00
         -2   -1    0    0    0  501 -0.00000000000E+00  0.00000000000E+00  0.46974811001E+02  0.46974811001E+02  0.00000000000E+00 0.  1.
          2   -1    0    0  501    0  0.00000000000E+00 -0.00000000000E+00 -0.34146900630E+03  0.34146900630E+03  0.00000000000E+00 0. -1.
         23    2    1    2    0    0 -0.44717857935E+02 -0.11375130365E+02 -0.10839074038E+03  0.15955405676E+03  0.10760977659E+03 0.  0.
          5    1    1    2  502    0  0.66288427879E+02  0.15113279993E+02 -0.35904662728E+02  0.77031173614E+02  0.47000000000E+01 0. -1.
         -5    1    1    2    0  502 -0.21570569943E+02 -0.37381496282E+01 -0.15019879219E+03  0.15185858693E+03  0.47000000000E+01 0. -1.
        -11    1    3    3    0    0  0.15012663881E+02 -0.23273152505E+02  0.74491176651E+01  0.28679418723E+02  0.00000000000E+00 0.  1.
         11    1    3    3    0    0 -0.59730521816E+02  0.11898022140E+02 -0.11583985805E+03  0.13087463803E+03  0.00000000000E+00 0. -1.
<mgrwt>
<rscale>  0 0.12901202E+03</rscale>
<asrwt>0</asrwt>
<pdfrwt beam="2">  1        2 0.52533691E-01 0.13325174E+03</pdfrwt>
<pdfrwt beam="1">  1       -2 0.72268943E-02 0.13325174E+03</pdfrwt>
<totfact> 0.99619242E+03</totfact>
</mgrwt>
</event>
<event>
 7    1  0.1446636E-005  0.1372565E+03  0.7546771E-02  0.1227789E+00
         -2   -1    0    0    0  501 -0.00000000000E+00  0.00000000000E+00  0.23473072980E+03  0.23473072980E+03  0.00000000000E+00 0.  1.
          2   -1    0    0  501    0  0.00000000000E+00 -0.00000000000E+00 -0.66905315932E+02  0.66905315932E+02  0.00000000000E+00 0. -1.
         23    2    1    2    0    0 -0.18227476520E+02 -0.53688251146E+02  0.49196629528E+02  0.12021902810E+03  0.93902274461E+02 0.  0.
          5    1    1    2  502    0  0.26060909321E+02  0.12700516561E+02  0.13363398159E+03  0.13682326246E+03  0.47000000000E+01 0.  1.
         -5    1    1    2    0  502 -0.78334328008E+01  0.40987734586E+02 -0.15005197247E+02  0.44593755172E+02  0.47000000000E+01 0.  1.
        -11    1    3    3    0    0 -0.81109850748E+01 -0.14757252672E+02  0.72025880220E+02  0.73968182394E+02  0.00000000000E+00 0.  1.
         11    1    3    3    0    0 -0.10116491445E+02 -0.38930998474E+02 -0.22829250692E+02  0.46250845706E+02  0.00000000000E+00 0. -1.
<mgrwt>
<rscale>  0 0.12977567E+03</rscale>
<asrwt>0</asrwt>
<pdfrwt beam="2">  1        2 0.10293126E-01 0.13725650E+03</pdfrwt>
<pdfrwt beam="1">  1       -2 0.36112420E-01 0.13725650E+03</pdfrwt>
<totfact> 0.42721583E+03</totfact>
</mgrwt>
</event>
<event>
 7    1  0.1446636E-005  0.1305487E+03  0.7546771E-02  0.1240247E+00
         -1   -1    0    0    0  501 -0.00000000000E+00  0.00000000000E+00  0.45609145418E+03  0.45609145418E+03  0.00000000000E+00 0.  1.
          1   -1    0    0  501    0  0.00000000000E+00 -0.00000000000E+00 -0.29945205743E+02  0.29945205743E+02  0.00000000000E+00 0. -1.
         23    2    1    2    0    0 -0.37467787849E+02 -0.37425068722E+01  0.13787844877E+03  0.16958559254E+03  0.91274120514E+02 0.  0.
          5    1    1    2  502    0  0.19229660848E+02 -0.48182864307E+01  0.29421918904E+03  0.29492374767E+03  0.47000000000E+01 0. -1.
         -5    1    1    2    0  502  0.18238127001E+02  0.85607933030E+01 -0.59513893805E+01  0.21527319713E+02  0.47000000000E+01 0. -1.
        -11    1    3    3    0    0 -0.23453326019E+02 -0.45117134959E+02  0.98141990923E+02  0.11053264111E+03  0.00000000000E+00 0.  1.
         11    1    3    3    0    0 -0.14014461830E+02  0.41374628087E+02  0.39736457851E+02  0.59052951427E+02  0.00000000000E+00 0. -1.
<mgrwt>
<rscale>  0 0.12174419E+03</rscale>
<asrwt>0</asrwt>
<pdfrwt beam="2">  1        1 0.46069551E-02 0.13054866E+03</pdfrwt>
<pdfrwt beam="1">  1       -1 0.70167911E-01 0.13054866E+03</pdfrwt>
<totfact> 0.38103235E+03</totfact>
</mgrwt>
</event>
<event>
 7    1  0.1446636E-005  0.1556352E+03  0.7546771E-02  0.1201638E+00
         -2   -1    0    0    0  501 -0.00000000000E+00  0.00000000000E+00  0.17303711821E+03  0.17303711821E+03  0.00000000000E+00 0.  1.
          2   -1    0    0  501    0  0.00000000000E+00 -0.00000000000E+00 -0.37280363840E+03  0.37280363840E+03  0.00000000000E+00 0. -1.
         23    2    1    2    0    0  0.74372295311E+02  0.55372956947E+02 -0.32221919012E+03  0.34780803239E+03  0.92454411722E+02 0.  0.
          5    1    1    2  502    0 -0.20278204798E+02 -0.55622651243E+02 -0.48958864308E+01  0.59591481145E+02  0.47000000000E+01 0.  1.
         -5    1    1    2    0  502 -0.54094090513E+02  0.24969429582E+00  0.12734855636E+03  0.13844124307E+03  0.47000000000E+01 0.  1.
        -11    1    3    3    0    0  0.22110628731E+02 -0.22961247354E+02 -0.12876865106E+03  0.13265543441E+03  0.00000000000E+00 0. -1.
         11    1    3    3    0    0  0.52261666580E+02  0.78334204301E+02 -0.19345053906E+03  0.21515259798E+03  0.00000000000E+00 0.  1.
<mgrwt>
<rscale>  0 0.14905573E+03</rscale>
<asrwt>0</asrwt>
<pdfrwt beam="2">  1        2 0.57354406E-01 0.15563516E+03</pdfrwt>
<pdfrwt beam="1">  1       -2 0.26621095E-01 0.15563516E+03</pdfrwt>
<totfact> 0.10882076E+03</totfact>
</mgrwt>
</event>
<event>
 7    1  0.1446636E-005  0.1815510E+03  0.7546771E-02  0.1171758E+00
          2   -1    0    0  501    0  0.00000000000E+00  0.00000000000E+00  0.42246979358E+03  0.42246979358E+03  0.00000000000E+00 0.  1.
         -2   -1    0    0    0  501 -0.00000000000E+00 -0.00000000000E+00 -0.71331184566E+02  0.71331184566E+02  0.00000000000E+00 0. -1.
         23    2    1    2    0    0  0.11951552544E+03  0.55245360756E+02  0.12170268751E+03  0.20122344736E+03  0.91341780761E+02 0.  0.
          5    1    1    2  502    0 -0.45172892459E+02  0.32971014356E+02  0.12446372410E+03  0.13653199851E+03  0.47000000000E+01 0. -1.
         -5    1    1    2    0  502 -0.74342632980E+02 -0.88216375112E+02  0.10497219740E+03  0.15604553227E+03  0.47000000000E+01 0. -1.
        -11    1    3    3    0    0  0.71563631697E+02 -0.15834629203E+02  0.68467876524E+02  0.10029924715E+03  0.00000000000E+00 0.  1.
         11    1    3    3    0    0  0.47951893742E+02  0.71079989959E+02  0.53234810991E+02  0.10092420021E+03  0.00000000000E+00 0. -1.
<mgrwt>
<rscale>  0 0.17597338E+03</rscale>
<asrwt>0</asrwt>
<pdfrwt beam="1">  1        2 0.64995351E-01 0.18155101E+03</pdfrwt>
<pdfrwt beam="2">  1       -2 0.10974029E-01 0.18155101E+03</pdfrwt>
<totfact> 0.42040743E+03</totfact>
</mgrwt>
</event>
<event>
 7    1  0.1446636E-005  0.1416913E+03  0.7546771E-02  0.1221863E+00
          1   -1    0    0  501    0  0.00000000000E+00  0.00000000000E+00  0.27923984604E+02  0.27923984604E+02  0.00000000000E+00 0. -1.
         -1   -1    0    0    0  501 -0.00000000000E+00 -0.00000000000E+00 -0.58264429822E+03  0.58264429822E+03  0.00000000000E+00 0.  1.
         23    2    1    2    0    0  0.52758739791E+02 -0.40856550351E+02 -0.22513942590E+03  0.25182049074E+03  0.90956341903E+02 0.  0.
          5    1    1    2  502    0 -0.90558249119E+02  0.36903035300E+02 -0.27630273096E+03  0.29313464420E+03  0.47000000000E+01 0. -1.
         -5    1    1    2    0  502  0.37799509328E+02  0.39535150513E+01 -0.53278156754E+02  0.65613147873E+02  0.47000000000E+01 0. -1.
        -11    1    3    3    0    0  0.54038216477E+02  0.97687181015E+01 -0.72171624199E+02  0.90687926610E+02  0.00000000000E+00 0. -1.
         11    1    3    3    0    0 -0.12794766861E+01 -0.50625268453E+02 -0.15296780170E+03  0.16113256413E+03  0.00000000000E+00 0.  1.
<mgrwt>
<rscale>  0 0.13384217E+03</rscale>
<asrwt>0</asrwt>
<pdfrwt beam="1">  1        1 0.42959979E-02 0.14169127E+03</pdfrwt>
<pdfrwt beam="2">  1       -1 0.89637579E-01 0.14169127E+03</pdfrwt>
<totfact> 0.25547346E+03</totfact>
</mgrwt>
</event>
<event>
 7    1  0.1446636E-005  0.1256831E+03  0.7546771E-02  0.1249288E+00
          2   -1    0    0  501    0  0.00000000000E+00  0.00000000000E+00  0.48586196834E+03  0.48586196834E+03  0.00000000000E+00 0. -1.
         -2   -1    0    0    0  501 -0.00000000000E+00 -0.00000000000E+00 -0.24667851063E+02  0.24667851063E+02  0.00000000000E+00 0.  1.
         23    2    1    2    0    0  0.91848961193E+01  0.93370047216E+01  0.22017405279E+03  0.23870834686E+03  0.91288111862E+02 0.  0.
          5    1    1    2  502    0 -0.58425747779E+02  0.26436719438E+02  0.13357194766E+03  0.14824312240E+03  0.47000000000E+01 0.  1.
         -5    1    1    2    0  502  0.49240851659E+02 -0.35773724160E+02  0.10744811683E+03  0.12357835014E+03  0.47000000000E+01 0.  1.
        -11    1    3    3    0    0  0.40894117642E+02 -0.64551937754E+01  0.50138905850E+02  0.65022367415E+02  0.00000000000E+00 0.  1.
         11    1    3    3    0    0 -0.31709221522E+02  0.15792198497E+02  0.17003514694E+03  0.17368597945E+03  0.00000000000E+00 0. -1.
<mgrwt>
<rscale>  0 0.11632347E+03</rscale>
<asrwt>0</asrwt>
<pdfrwt beam="1">  1        2 0.74747988E-01 0.12568310E+03</pdfrwt>
<pdfrwt beam="2">  1       -2 0.37950544E-02 0.12568310E+03</pdfrwt>
<totfact> 0.17907528E+04</totfact>
</mgrwt>
</event>
<event>
 7    1  0.1446636E-005  0.1989526E+03  0.7546771E-02  0.1154866E+00
         -1   -1    0    0    0  501 -0.00000000000E+00  0.00000000000E+00  0.17856579522E+03  0.17856579522E+03  0.00000000000E+00 0.  1.
          1   -1    0    0  501    0  0.00000000000E+00 -0.00000000000E+00 -0.21080806170E+03  0.21080806170E+03  0.00000000000E+00 0. -1.
         23    2    1    2    0    0 -0.14131011994E+03 -0.63162292140E+02  0.26428202583E+02  0.18195066545E+03  0.91921540563E+02 0.  0.
          5    1    1    2  502    0  0.70841355993E+02  0.91150669288E+02 -0.62496935865E+02  0.13135790507E+03  0.47000000000E+01 0. -1.
         -5    1    1    2    0  502  0.70468763948E+02 -0.27988377149E+02  0.38264667965E+01  0.76065286405E+02  0.47000000000E+01 0. -1.
        -11    1    3    3    0    0 -0.56331070631E+02 -0.18785176506E+02 -0.34194773572E+02  0.68522659861E+02  0.00000000000E+00 0. -1.
         11    1    3    3    0    0 -0.84979049311E+02 -0.44377115633E+02  0.60622976156E+02  0.11342800559E+03  0.00000000000E+00 0.  1.
<mgrwt>
<rscale>  0 0.19404084E+03</rscale>
<asrwt>0</asrwt>
<pdfrwt beam="2">  1        1 0.32432009E-01 0.19895265E+03</pdfrwt>
<pdfrwt beam="1">  1       -1 0.27471661E-01 0.19895265E+03</pdfrwt>
<totfact> 0.16149485E+03</totfact>
</mgrwt>
</event>
<event>
 7    1  0.1446636E-005  0.1289364E+03  0.7546771E-02  0.1243659E+00
          1   -1    0    0  501    0  0.00000000000E+00  0.00000000000E+00  0.44508772974E+03  0.44508772974E+03  0.00000000000E+00 0. -1.
         -1   -1    0    0    0  501 -0.00000000000E+00 -0.00000000000E+00 -0.28765997430E+02  0.28765997430E+02  0.00000000000E+00 0.  1.
         23    2    1    2    0    0 -0.95385328257E+01  0.30128675782E+02  0.20662611429E+03  0.22768948081E+03  0.90274181540E+02 0.  0.
          5    1    1    2  502    0  0.52246514826E+02  0.22297905958E+01  0.17365308999E+03  0.18141707731E+03  0.47000000000E+01 0. -1.
         -5    1    1    2    0  502 -0.42707982000E+02 -0.32358466378E+02  0.36042528030E+02  0.64747169047E+02  0.47000000000E+01 0. -1.
        -11    1    3    3    0    0 -0.43088942783E+02 -0.84960946664E+01  0.10786547554E+03  0.11646373439E+03  0.00000000000E+00 0.  1.
         11    1    3    3    0    0  0.33550409957E+02  0.38624770448E+02  0.98760638751E+02  0.11122574642E+03  0.00000000000E+00 0. -1.
<mgrwt>
<rscale>  0 0.11965978E+03</rscale>
<asrwt>0</asrwt>
<pdfrwt beam="1">  1        1 0.68475030E-01 0.12893636E+03</pdfrwt>
<pdfrwt beam="2">  1       -1 0.44255384E-02 0.12893636E+03</pdfrwt>
<totfact> 0.10541214E+04</totfact>
</mgrwt>
</event>
<event>
 7    1  0.1446636E-005  0.1638299E+03  0.7546771E-02  0.1192902E+00
          2   -1    0    0  501    0  0.00000000000E+00  0.00000000000E+00  0.36491774532E+03  0.36491774532E+03  0.00000000000E+00 0. -1.
         -2   -1    0    0    0  501 -0.00000000000E+00 -0.00000000000E+00 -0.64073629989E+02  0.64073629989E+02  0.00000000000E+00 0.  1.
         23    2    1    2    0    0 -0.84791733024E+02  0.63461499098E+02  0.17957790839E+03  0.22516371454E+03  0.85049828392E+02 0.  0.
          5    1    1    2  502    0  0.49031680876E+02  0.29565817015E+02  0.17922712737E+02  0.60179372688E+02  0.47000000000E+01 0. -1.
         -5    1    1    2    0  502  0.35760052148E+02 -0.93027316113E+02  0.10334349421E+03  0.14364828808E+03  0.47000000000E+01 0. -1.
        -11    1    3    3    0    0 -0.54895538843E+01  0.51449578637E+02  0.97647519952E+02  0.11050897021E+03  0.00000000000E+00 0.  1.
         11    1    3    3    0    0 -0.79302179139E+02  0.12011920461E+02  0.81930388434E+02  0.11465474433E+03  0.00000000000E+00 0. -1.
<mgrwt>
<rscale>  0 0.15633122E+03</rscale>
<asrwt>0</asrwt>
<pdfrwt beam="1">  1        2 0.56141190E-01 0.16382986E+03</pdfrwt>
<pdfrwt beam="2">  1       -2 0.98574818E-02 0.16382986E+03</pdfrwt>
<totfact> 0.58056845E+03</totfact>
</mgrwt>
</event>
<event>
 7    1  0.1446636E-005  0.1371455E+03  0.7546771E-02  0.1229177E+00
          2   -1    0    0  501    0  0.00000000000E+00  0.00000000000E+00  0.16338465311E+03  0.16338465311E+03  0.00000000000E+00 0. -1.
         -2   -1    0    0    0  501 -0.00000000000E+00 -0.00000000000E+00 -0.92459972437E+02  0.92459972437E+02  0.00000000000E+00 0.  1.
         23    2    1    2    0    0 -0.34090262794E+01 -0.56201072670E+02  0.46575291677E+02  0.11655432085E+03  0.90804569729E+02 0.  0.
          5    1    1    2  502    0 -0.30891829451E+02 -0.24859235217E+02 -0.15141153230E+02  0.42703995405E+02  0.47000000000E+01 0. -1.
         -5    1    1    2    0  502  0.34300855730E+02  0.81060307886E+02  0.39490542228E+02  0.96586309298E+02  0.47000000000E+01 0. -1.
        -11    1    3    3    0    0  0.44890240588E+01 -0.48617452362E+02 -0.17261130885E+02  0.51785660665E+02  0.00000000000E+00 0.  1.
         11    1    3    3    0    0 -0.78980503382E+01 -0.75836203082E+01  0.63836422562E+02  0.64768660181E+02  0.00000000000E+00 0. -1.
<mgrwt>
<rscale>  0 0.12884686E+03</rscale>
<asrwt>0</asrwt>
<pdfrwt beam="1">  1        2 0.25136100E-01 0.13714553E+03</pdfrwt>
<pdfrwt beam="2">  1       -2 0.14224611E-01 0.13714553E+03</pdfrwt>
<totfact> 0.75762087E+03</totfact>
</mgrwt>
</event>
<event>
 7    1  0.1446636E-005  0.1372772E+03  0.7546771E-02  0.1228947E+00
         -1   -1    0    0    0  501 -0.00000000000E+00  0.00000000000E+00  0.30506330676E+02  0.30506330676E+02  0.00000000000E+00 0.  1.
          1   -1    0    0  501    0  0.00000000000E+00 -0.00000000000E+00 -0.48919914763E+03  0.48919914763E+03  0.00000000000E+00 0. -1.
         23    2    1    2    0    0  0.49818484258E+02 -0.27187029593E+02 -0.20208408263E+03  0.22868471351E+03  0.90761807983E+02 0.  0.
          5    1    1    2  502    0  0.55327759964E+01  0.36415731233E+02 -0.22165270290E+03  0.22474146879E+03  0.47000000000E+01 0.  1.
         -5    1    1    2    0  502 -0.55351260254E+02 -0.92287016400E+01 -0.34956031418E+02  0.66279296000E+02  0.47000000000E+01 0.  1.
        -11    1    3    3    0    0  0.18984348133E+02 -0.45196932129E+02 -0.18032337561E+03  0.18686810306E+03  0.00000000000E+00 0. -1.
         11    1    3    3    0    0  0.30834136124E+02  0.18009902535E+02 -0.21760707020E+02  0.41816610454E+02  0.00000000000E+00 0.  1.
<mgrwt>
<rscale>  0 0.12900037E+03</rscale>
<asrwt>0</asrwt>
<pdfrwt beam="2">  1        1 0.75261407E-01 0.13727725E+03</pdfrwt>
<pdfrwt beam="1">  1       -1 0.46932817E-02 0.13727725E+03</pdfrwt>
<totfact> 0.85975578E+03</totfact>
</mgrwt>
</event>
<event>
 7    1  0.1446636E-005  0.2068259E+03  0.7546771E-02  0.1148090E+00
         -1   -1    0    0    0  501 -0.00000000000E+00  0.00000000000E+00  0.13952325481E+03  0.13952325481E+03  0.00000000000E+00 0.  1.
          1   -1    0    0  501    0  0.00000000000E+00 -0.00000000000E+00 -0.28181516370E+03  0.28181516370E+03  0.00000000000E+00 0. -1.
         23    2    1    2    0    0  0.16418138702E+03 -0.13985994798E+02 -0.48365827219E+02  0.19418413581E+03  0.90648163048E+02 0.  0.
          5    1    1    2  502    0 -0.11049710597E+03  0.17980614490E+02  0.74277457315E+01  0.11229503253E+03  0.47000000000E+01 0. -1.
         -5    1    1    2    0  502 -0.53684281051E+02 -0.39946196923E+01 -0.10135382741E+03  0.11485925017E+03  0.47000000000E+01 0. -1.
        -11    1    3    3    0    0  0.41434026452E+02  0.36211815573E+02 -0.20146580164E+02  0.58599989995E+02  0.00000000000E+00 0.  1.
         11    1    3    3    0    0  0.12274736057E+03 -0.50197810371E+02 -0.28219247055E+02  0.13558414582E+03  0.00000000000E+00 0. -1.
<mgrwt>
<rscale>  0 0.20196698E+03</rscale>
<asrwt>0</asrwt>
<pdfrwt beam="2">  1        1 0.43356178E-01 0.20682592E+03</pdfrwt>
<pdfrwt beam="1">  1       -1 0.21465116E-01 0.20682592E+03</pdfrwt>
<totfact> 0.16900869E+03</totfact>
</mgrwt>
</event>
<event>
 7    1  0.1446636E-005  0.1713922E+03  0.7546771E-02  0.1182693E+00
         -2   -1    0    0    0  501 -0.00000000000E+00  0.00000000000E+00  0.41646128676E+02  0.41646128676E+02  0.00000000000E+00 0.  1.
          2   -1    0    0  501    0  0.00000000000E+00 -0.00000000000E+00 -0.64882852563E+03  0.64882852563E+03  0.00000000000E+00 0. -1.
         23    2    1    2    0    0  0.48681373709E+02 -0.10668312756E+03 -0.36147435201E+03  0.39089537713E+03  0.91565948101E+02 0.  0.
          5    1    1    2  502    0  0.25378800721E+01  0.38102554079E+02 -0.19753261883E+03  0.20124480357E+03  0.47000000000E+01 0. -1.
         -5    1    1    2    0  502 -0.51219253781E+02  0.68580573482E+02 -0.48175426113E+02  0.98334473600E+02  0.47000000000E+01 0. -1.
        -11    1    3    3    0    0 -0.46138118487E+01 -0.88988313186E+02 -0.26101283947E+03  0.27580411439E+03  0.00000000000E+00 0.  1.
         11    1    3    3    0    0  0.53295185557E+02 -0.17694814375E+02 -0.10046151253E+03  0.11509126274E+03  0.00000000000E+00 0. -1.
<mgrwt>
<rscale>  0 0.16543580E+03</rscale>
<asrwt>0</asrwt>
<pdfrwt beam="2">  1        2 0.99819770E-01 0.17139224E+03</pdfrwt>
<pdfrwt beam="1">  1       -2 0.64070969E-02 0.17139224E+03</pdfrwt>
<totfact> 0.60027551E+03</totfact>
</mgrwt>
</event>
<event>
 7    1  0.1446636E-005  0.1295863E+03  0.7546771E-02  0.1241636E+00
          2   -1    0    0  501    0  0.00000000000E+00  0.00000000000E+00  0.26683036321E+03  0.26683036321E+03  0.00000000000E+00 0. -1.
         -2   -1    0    0    0  501 -0.00000000000E+00 -0.00000000000E+00 -0.56698691337E+02  0.56698691337E+02  0.00000000000E+00 0.  1.
         23    2    1    2    0    0  0.63564254669E+01 -0.33407798525E+02  0.15330289471E+03  0.18202953113E+03  0.92067842004E+02 0.  0.
          5    1    1    2  502    0 -0.49978049857E+02 -0.27534846675E+00  0.68543544167E+02  0.84959924265E+02  0.47000000000E+01 0. -1.
         -5    1    1    2    0  502  0.43621624390E+02  0.33683146992E+02 -0.11714767005E+02  0.56539599147E+02  0.47000000000E+01 0. -1.
        -11    1    3    3    0    0 -0.36385860104E+01 -0.64405060749E+02  0.11400249870E+03  0.13098786535E+03  0.00000000000E+00 0. -1.
         11    1    3    3    0    0  0.99950114774E+01  0.30997262223E+02  0.39300396009E+02  0.51041665786E+02  0.00000000000E+00 0.  1.
<mgrwt>
<rscale>  0 0.12088971E+03</rscale>
<asrwt>0</asrwt>
<pdfrwt beam="1">  1        2 0.41050824E-01 0.12958628E+03</pdfrwt>
<pdfrwt beam="2">  1       -2 0.87228757E-02 0.12958628E+03</pdfrwt>
<totfact> 0.96566887E+03</totfact>
</mgrwt>
</event>
<event>
 7    1  0.1446636E-005  0.1606166E+03  0.7546771E-02  0.1195454E+00
          2   -1    0    0  501    0  0.00000000000E+00  0.00000000000E+00  0.46674443395E+02  0.46674443395E+02  0.00000000000E+00 0. -1.
         -2   -1    0    0    0  501 -0.00000000000E+00 -0.00000000000E+00 -0.47905541596E+03  0.47905541596E+03  0.00000000000E+00 0.  1.
         23    2    1    2    0    0 -0.90570043776E+02  0.44383201365E+02 -0.23005364326E+03  0.26740055292E+03  0.91681925893E+02 0.  0.
          5    1    1    2  502    0 -0.25334138483E+02  0.12404783717E+02 -0.20017688703E+02  0.34906949061E+02  0.47000000000E+01 0. -1.
         -5    1    1    2    0  502  0.11590418226E+03 -0.56787985083E+02 -0.18230964060E+03  0.22342235737E+03  0.47000000000E+01 0. -1.
        -11    1    3    3    0    0 -0.72708011880E+02 -0.64672321431E+01 -0.17836859686E+03  0.19272684408E+03  0.00000000000E+00 0.  1.
         11    1    3    3    0    0 -0.17862031896E+02  0.50850433509E+02 -0.51685046394E+02  0.74673708842E+02  0.00000000000E+00 0. -1.
<mgrwt>
<rscale>  0 0.15415895E+03</rscale>
<asrwt>0</asrwt>
<pdfrwt beam="1">  1        2 0.71806837E-02 0.16061657E+03</pdfrwt>
<pdfrwt beam="2">  1       -2 0.73700832E-01 0.16061657E+03</pdfrwt>
<totfact> 0.16257833E+03</totfact>
</mgrwt>
</event>
<event>
 7    1  0.1446636E-005  0.1356585E+03  0.7546771E-02  0.1226536E+00
          1   -1    0    0  501    0  0.00000000000E+00  0.00000000000E+00  0.76859986424E+03  0.76859986424E+03  0.00000000000E+00 0. -1.
         -1   -1    0    0    0  501 -0.00000000000E+00 -0.00000000000E+00 -0.20916591024E+02  0.20916591024E+02  0.00000000000E+00 0.  1.
         23    2    1    2    0    0 -0.49221581786E+02  0.18865344497E+02  0.38604506903E+03  0.40327117493E+03  0.10401047963E+03 0.  0.
          5    1    1    2  502    0  0.29865302463E+02 -0.72066361747E+02  0.18977376549E+03  0.20523564227E+03  0.47000000000E+01 0. -1.
         -5    1    1    2    0  502  0.19356279323E+02  0.53201017250E+02  0.17186443870E+03  0.18100963807E+03  0.47000000000E+01 0. -1.
        -11    1    3    3    0    0  0.29459495652E+02  0.20504579483E+02  0.88676482401E+02  0.95665135733E+02  0.00000000000E+00 0.  1.
         11    1    3    3    0    0 -0.78681077438E+02 -0.16392349854E+01  0.29736858663E+03  0.30760603920E+03  0.00000000000E+00 0. -1.
<mgrwt>
<rscale>  0 0.13062160E+03</rscale>
<asrwt>0</asrwt>
<pdfrwt beam="1">  1        1 0.11824611E+00 0.13565849E+03</pdfrwt>
<pdfrwt beam="2">  1       -1 0.32179377E-02 0.13565849E+03</pdfrwt>
<totfact> 0.80249375E+03</totfact>
</mgrwt>
</event>
<event>
 7    1  0.2450789E-005  0.2057481E+03  0.7546771E-02  0.1148598E+00
         -1   -1    0    0    0  501 -0.00000000000E+00  0.00000000000E+00  0.20950054346E+02  0.20950054346E+02  0.00000000000E+00 0.  1.
          1   -1    0    0  501    0  0.00000000000E+00 -0.00000000000E+00 -0.18572906600E+04  0.18572906600E+04  0.00000000000E+00 0. -1.
         23    2    1    2    0    0 -0.15864126181E+03 -0.39249264192E+02 -0.86884212058E+03  0.88910694995E+03  0.94429779556E+02 0.  0.
          5    1    1    2  502    0  0.13982701090E+03  0.60993526039E+02 -0.55486366660E+03  0.57547161677E+03  0.47000000000E+01 0.  1.
         -5    1    1    2    0  502  0.18814250906E+02 -0.21744261847E+02 -0.41263481843E+03  0.41366214758E+03  0.47000000000E+01 0.  1.
        -11    1    3    3    0    0 -0.56444934400E+00 -0.30237585642E+02 -0.12608047332E+03  0.12965691629E+03  0.00000000000E+00 0.  1.
         11    1    3    3    0    0 -0.15807681247E+03 -0.90116785497E+01 -0.74276164726E+03  0.75945003366E+03  0.00000000000E+00 0. -1.
<mgrwt>
<rscale>  0 0.20135877E+03</rscale>
<asrwt>0</asrwt>
<pdfrwt beam="2">  1        1 0.28573701E+00 0.20574811E+03</pdfrwt>
<pdfrwt beam="1">  1       -1 0.32230855E-02 0.20574811E+03</pdfrwt>
<totfact> 0.14213561E+03</totfact>
</mgrwt>
</event>
<event>
 6    1  0.1446636E-005  0.1263413E+03  0.7546771E-02  0.1276523E+00
          1   -1    0    0  501    0  0.00000000000E+00  0.00000000000E+00  0.58233781969E+02  0.58233781969E+02  0.00000000000E+00 0. -1.
         -1   -1    0    0    0  501 -0.00000000000E+00 -0.00000000000E+00 -0.13958365735E+03  0.13958365735E+03  0.00000000000E+00 0.  1.
          5    1    1    2  502    0  0.58824937895E+02 -0.14878376942E+02 -0.30434780684E+02  0.68044877060E+02  0.47000000000E+01 0. -1.
         -5    1    1    2    0  502 -0.65263379066E+02 -0.22983782943E+01 -0.34545360592E+02  0.74027448479E+02  0.47000000000E+01 0. -1.
        -11    1    1    2    0    0 -0.19535021515E+02  0.12840036337E+02 -0.17786223099E+02  0.29374024765E+02  0.00000000000E+00 0. -1.
         11    1    1    2    0    0  0.25973462686E+02  0.43367188989E+01  0.14164889956E+01  0.26371089014E+02  0.00000000000E+00 0.  1.
<mgrwt>
<rscale>  0 0.10181581E+03</rscale>
<asrwt>0</asrwt>
<pdfrwt beam="1">  1        1 0.89590434E-02 0.12634131E+03</pdfrwt>
<pdfrwt beam="2">  1       -1 0.21474409E-01 0.12634131E+03</pdfrwt>
<totfact> 0.12409334E+04</totfact>
</mgrwt>
</event>
<event>
 7    1  0.1446636E-005  0.1476036E+03  0.7546771E-02  0.1212857E+00
          2   -1    0    0  501    0  0.00000000000E+00  0.00000000000E+00  0.38998539976E+03  0.38998539976E+03  0.00000000000E+00 0. -1.
         -2   -1    0    0    0  501 -0.00000000000E+00 -0.00000000000E+00 -0.47558980588E+02  0.47558980588E+02  0.00000000000E+00 0.  1.
         23    2    1    2    0    0  0.34892799563E+02  0.70311139771E+02  0.19221354985E+03  0.22694827343E+03  0.91642273150E+02 0.  0.
          5    1    1    2  502    0  0.42599231889E+02 -0.48764658676E+02  0.84912757170E+02  0.10688757095E+03  0.47000000000E+01 0. -1.
         -5    1    1    2    0  502 -0.77492031453E+02 -0.21546481095E+02  0.65300112150E+02  0.10370853597E+03  0.47000000000E+01 0. -1.
        -11    1    3    3    0    0  0.31702322802E+02  0.47234921804E+01  0.10490859354E+02  0.33725461886E+02  0.00000000000E+00 0.  1.
         11    1    3    3    0    0  0.31904767613E+01  0.65587647591E+02  0.18172269050E+03  0.19322281154E+03  0.00000000000E+00 0. -1.
<mgrwt>
<rscale>  0 0.14035111E+03</rscale>
<asrwt>0</asrwt>
<pdfrwt beam="1">  1        2 0.59997752E-01 0.14760357E+03</pdfrwt>
<pdfrwt beam="2">  1       -2 0.73167665E-02 0.14760357E+03</pdfrwt>
<totfact> 0.85450600E+03</totfact>
</mgrwt>
</event>
<event>
 7    1  0.1446636E-005  0.1799255E+03  0.7546771E-02  0.1172743E+00
         -2   -1    0    0    0  501 -0.00000000000E+00  0.00000000000E+00  0.39070323184E+03  0.39070323184E+03  0.00000000000E+00 0.  1.
          2   -1    0    0  501    0  0.00000000000E+00 -0.00000000000E+00 -0.10952215677E+03  0.10952215677E+03  0.00000000000E+00 0. -1.
         23    2    1    2    0    0  0.95352683594E+02 -0.87516765321E+02 -0.62804129012E+01  0.16109811855E+03  0.95717510066E+02 0.  0.
          5    1    1    2  502    0 -0.24230560336E+01  0.77677344299E+02  0.18308236960E+03  0.19894945357E+03  0.47000000000E+01 0.  1.
         -5    1    1    2    0  502 -0.92929627560E+02  0.98394210218E+01  0.10437911837E+03  0.14017781649E+03  0.47000000000E+01 0.  1.
        -11    1    3    3    0    0  0.47054293757E+02 -0.10198579664E+01  0.29752384178E+02  0.55680795931E+02  0.00000000000E+00 0.  1.
         11    1    3    3    0    0  0.48298389837E+02 -0.86496907355E+02 -0.36032797079E+02  0.10541732262E+03  0.00000000000E+00 0. -1.
<mgrwt>
<rscale>  0 0.17498856E+03</rscale>
<asrwt>0</asrwt>
<pdfrwt beam="2">  1        2 0.16849563E-01 0.17992554E+03</pdfrwt>
<pdfrwt beam="1">  1       -2 0.60108189E-01 0.17992554E+03</pdfrwt>
<totfact> 0.88594001E+02</totfact>
</mgrwt>
</event>
<event>
 7    1  0.1446636E-005  0.1438877E+03  0.7546771E-02  0.1218354E+00
          1   -1    0    0  501    0  0.00000000000E+00  0.00000000000E+00  0.18239052555E+03  0.18239052555E+03  0.00000000000E+00 0. -1.
         -1   -1    0    0    0  501 -0.00000000000E+00 -0.00000000000E+00 -0.99063414358E+02  0.99063414358E+02  0.00000000000E+00 0.  1.
         23    2    1    2    0    0  0.70934117784E+02 -0.68181557732E+01  0.73374099785E+02  0.13722243597E+03  0.91477331067E+02 0.  0.
          5    1    1    2  502    0 -0.63556794146E+02  0.55490276089E+02  0.31641590191E+02  0.90232572014E+02  0.47000000000E+01 0. -1.
         -5    1    1    2    0  502 -0.73773236388E+01 -0.48672120315E+02 -0.21688578782E+02  0.53998931931E+02  0.47000000000E+01 0. -1.
        -11    1    3    3    0    0  0.42658681678E+02  0.26321308134E+02  0.78728838286E+02  0.93331690022E+02  0.00000000000E+00 0. -1.
         11    1    3    3    0    0  0.28275436106E+02 -0.33139463908E+02 -0.53547385014E+01  0.43890745944E+02  0.00000000000E+00 0.  1.
<mgrwt>
<rscale>  0 0.13633043E+03</rscale>
<asrwt>0</asrwt>
<pdfrwt beam="1">  1        1 0.28060081E-01 0.14388768E+03</pdfrwt>
<pdfrwt beam="2">  1       -1 0.15240525E-01 0.14388768E+03</pdfrwt>
<totfact> 0.49599758E+03</totfact>
</mgrwt>
</event>
<event>
 7    1  0.1446636E-005  0.1815446E+03  0.7546771E-02  0.1175252E+00
         -1   -1    0    0    0  501 -0.00000000000E+00  0.00000000000E+00  0.11987780825E+03  0.11987780825E+03  0.00000000000E+00 0.  1.
          1   -1    0    0  501    0  0.00000000000E+00 -0.00000000000E+00 -0.24767793198E+03  0.24767793198E+03  0.00000000000E+00 0. -1.
         23    2    1    2    0    0 -0.62046499619E+02 -0.98875520543E+02 -0.11141828842E+03  0.18527356161E+03  0.91028132783E+02 0.  0.
          5    1    1    2  502    0  0.92664536918E+02  0.20080933947E+02  0.46447675217E+01  0.95045379560E+02  0.47000000000E+01 0. -1.
         -5    1    1    2    0  502 -0.30618037299E+02  0.78794586596E+02 -0.21026602822E+02  0.87236799065E+02  0.47000000000E+01 0.  1.
        -11    1    3    3    0    0 -0.75341687963E+02 -0.60765199560E+02 -0.10760204875E+03  0.14473071657E+03  0.00000000000E+00 0. -1.
         11    1    3    3    0    0  0.13295188344E+02 -0.38110320982E+02 -0.38162396681E+01  0.40542845037E+02  0.00000000000E+00 0.  1.
<mgrwt>
<rscale>  0 0.17251359E+03</rscale>
<asrwt>0</asrwt>
<pdfrwt beam="2">  1        1 0.38104297E-01 0.18154456E+03</pdfrwt>
<pdfrwt beam="1">  1       -1 0.18442740E-01 0.18154456E+03</pdfrwt>
<totfact> 0.25293088E+03</totfact>
</mgrwt>
</event>
<event>
 7    1  0.1446636E-005  0.1550558E+03  0.7546771E-02  0.1202655E+00
          2   -1    0    0  501    0  0.00000000000E+00  0.00000000000E+00  0.51147437476E+03  0.51147437476E+03  0.00000000000E+00 0. -1.
         -2   -1    0    0    0  501 -0.00000000000E+00 -0.00000000000E+00 -0.42438843840E+02  0.42438843840E+02  0.00000000000E+00 0.  1.
         23    2    1    2    0    0 -0.49889576858E+02  0.70767789935E+02  0.28643295339E+03  0.31435943051E+03  0.96337764104E+02 0.  0.
          5    1    1    2  502    0  0.26454989263E+02  0.35151353953E+02  0.35549890385E+02  0.56757103943E+02  0.47000000000E+01 0. -1.
         -5    1    1    2    0  502  0.23434587595E+02 -0.10591914389E+03  0.14705268715E+03  0.18279668415E+03  0.47000000000E+01 0.  1.
        -11    1    3    3    0    0  0.28278680221E+02  0.30427997740E+02  0.88913969252E+02  0.98138884901E+02  0.00000000000E+00 0.  1.
         11    1    3    3    0    0 -0.78168257079E+02  0.40339792196E+02  0.19751898414E+03  0.21622054561E+03  0.00000000000E+00 0. -1.
<mgrwt>
<rscale>  0 0.14823771E+03</rscale>
<asrwt>0</asrwt>
<pdfrwt beam="1">  1        2 0.78688361E-01 0.15505585E+03</pdfrwt>
<pdfrwt beam="2">  1       -2 0.65290532E-02 0.15505585E+03</pdfrwt>
<totfact> 0.76029828E+03</totfact>
</mgrwt>
</event>
<event>
 7    1  0.1446636E-005  0.1286597E+03  0.7546771E-02  0.1244535E+00
          2   -1    0    0  501    0  0.00000000000E+00  0.00000000000E+00  0.61389215998E+03  0.61389215998E+03  0.00000000000E+00 0. -1.
         -2   -1    0    0    0  501 -0.00000000000E+00 -0.00000000000E+00 -0.20481720248E+02  0.20481720248E+02  0.00000000000E+00 0.  1.
         23    2    1    2    0    0  0.45194636867E+01  0.30119101466E+02  0.28177121231E+03  0.29722060873E+03  0.89540428546E+02 0.  0.
          5    1    1    2  502    0 -0.62796381189E+02 -0.15339189203E+02  0.12187521935E+03  0.13803744169E+03  0.47000000000E+01 0.  1.
         -5    1    1    2    0  502  0.58276917502E+02 -0.14779912263E+02  0.18976400807E+03  0.19911582981E+03  0.47000000000E+01 0.  1.
        -11    1    3    3    0    0  0.38119359272E+02  0.42422579096E+02  0.19978723642E+03  0.20776838211E+03  0.00000000000E+00 0.  1.
         11    1    3    3    0    0 -0.33599895586E+02 -0.12303477629E+02  0.81983975891E+02  0.89452226624E+02  0.00000000000E+00 0. -1.
<mgrwt>
<rscale>  0 0.11913241E+03</rscale>
<asrwt>0</asrwt>
<pdfrwt beam="1">  1        2 0.94444934E-01 0.12865971E+03</pdfrwt>
<pdfrwt beam="2">  1       -2 0.31510344E-02 0.12865971E+03</pdfrwt>
<totfact> 0.18193870E+04</totfact>
</mgrwt>
</event>
<event>
 7    1  0.1462134E-005  0.2247084E+03  0.7546771E-02  0.1130421E+00
         -2   -1    0    0    0  501 -0.00000000000E+00  0.00000000000E+00  0.23358310588E+03  0.23358310588E+03  0.00000000000E+00 0.  1.
          2   -1    0    0  501    0  0.00000000000E+00 -0.00000000000E+00 -0.54042700774E+02  0.54042700774E+02  0.00000000000E+00 0. -1.
         23    2    1    2    0    0  0.14465629856E+02  0.23841179250E+02  0.72875661969E+02  0.12095129008E+03  0.92415887105E+02 0.  0.
          5    1    1    2  502    0  0.41167377249E-01  0.47663521033E+02  0.16644977296E+02  0.50704617158E+02  0.47000000000E+01 0. -1.
         -5    1    1    2    0  502 -0.14506797233E+02 -0.71504700282E+02  0.90019765842E+02  0.11596989942E+03  0.47000000000E+01 0. -1.
        -11    1    3    3    0    0  0.32159460144E+02  0.11635860703E+02  0.88169870575E+02  0.94570345290E+02  0.00000000000E+00 0.  1.
         11    1    3    3    0    0 -0.17693830288E+02  0.12205318546E+02 -0.15294208607E+02  0.26380944789E+02  0.00000000000E+00 0. -1.
<mgrwt>
<rscale>  0 0.22470836E+03</rscale>
<asrwt>0</asrwt>
<pdfrwt beam="2">  1        2 0.83142618E-02 0.22470836E+03</pdfrwt>
<pdfrwt beam="1">  1       -2 0.35935862E-01 0.22470836E+03</pdfrwt>
<totfact> 0.58071541E+03</totfact>
</mgrwt>
</event>
<event>
 7    1  0.1446636E-005  0.2936679E+03  0.7546771E-02  0.1090170E+00
         -1   -1    0    0    0  501 -0.00000000000E+00  0.00000000000E+00  0.95100100046E+02  0.95100100046E+02  0.00000000000E+00 0.  1.
          1   -1    0    0  501    0  0.00000000000E+00 -0.00000000000E+00 -0.87931735715E+03  0.87931735715E+03  0.00000000000E+00 0. -1.
         23    2    1    2    0    0 -0.26562131120E+03  0.78899511193E+01 -0.32544351247E+03  0.42970269890E+03  0.90077729461E+02 0.  0.
          5    1    1    2  502    0  0.24290862534E+03  0.27572230975E+02 -0.34142466894E+03  0.41994966692E+03  0.47000000000E+01 0.  1.
         -5    1    1    2    0  502  0.22712685863E+02 -0.35462182094E+02 -0.11734907569E+03  0.12476509137E+03  0.47000000000E+01 0.  1.
        -11    1    3    3    0    0 -0.19539859398E+03 -0.30569241408E+02 -0.20307587910E+03  0.28346940174E+03  0.00000000000E+00 0.  1.
         11    1    3    3    0    0 -0.70222717220E+02  0.38459192527E+02 -0.12236763336E+03  0.14623329716E+03  0.00000000000E+00 0. -1.
<mgrwt>
<rscale>  0 0.29034242E+03</rscale>
<asrwt>0</asrwt>
<pdfrwt beam="2">  1        1 0.13527960E+00 0.29366787E+03</pdfrwt>
<pdfrwt beam="1">  1       -1 0.14630784E-01 0.29366787E+03</pdfrwt>
<totfact> 0.66493637E+02</totfact>
</mgrwt>
</event>
<event>
 7    1  0.1446636E-005  0.1495921E+03  0.7546771E-02  0.1208297E+00
         -2   -1    0    0    0  501 -0.00000000000E+00  0.00000000000E+00  0.65941144230E+03  0.65941144230E+03  0.00000000000E+00 0.  1.
          2   -1    0    0  501    0  0.00000000000E+00 -0.00000000000E+00 -0.29448771564E+02  0.29448771564E+02  0.00000000000E+00 0. -1.
         23    2    1    2    0    0  0.14012817003E+02 -0.87538191398E+02  0.25662047346E+03  0.28666351741E+03  0.91992449820E+02 0.  0.
          5    1    1    2  502    0  0.21435346309E+02 -0.31880504868E+00  0.59248404386E+01  0.22732563477E+02  0.47000000000E+01 0. -1.
         -5    1    1    2    0  502 -0.35448163312E+02  0.87856996447E+02  0.36741735684E+03  0.37946413297E+03  0.47000000000E+01 0.  1.
        -11    1    3    3    0    0 -0.15285501434E+02 -0.87751087319E+02  0.23158883215E+03  0.24812756207E+03  0.00000000000E+00 0.  1.
         11    1    3    3    0    0  0.29298318437E+02  0.21289592042E+00  0.25031641305E+02  0.38535955345E+02  0.00000000000E+00 0. -1.
<mgrwt>
<rscale>  0 0.14380625E+03</rscale>
<asrwt>0</asrwt>
<pdfrwt beam="2">  1        2 0.45305807E-02 0.14959207E+03</pdfrwt>
<pdfrwt beam="1">  1       -2 0.10144790E+00 0.14959207E+03</pdfrwt>
<totfact> 0.14427615E+03</totfact>
</mgrwt>
</event>
<event>
 7    1  0.1446636E-005  0.1820796E+03  0.7546771E-02  0.1180988E+00
         -2   -1    0    0    0  501 -0.00000000000E+00  0.00000000000E+00  0.30748957449E+02  0.30748957449E+02  0.00000000000E+00 0.  1.
          2   -1    0    0  501    0  0.00000000000E+00 -0.00000000000E+00 -0.79153431439E+03  0.79153431439E+03  0.00000000000E+00 0. -1.
         23    2    1    2    0    0  0.88499077023E+02  0.83575585915E+01 -0.34848369299E+03  0.37156647695E+03  0.93374659825E+02 0.  0.
          5    1    1    2  502    0  0.18757941578E+01  0.53022398584E+02 -0.24589648375E+03  0.25159901446E+03  0.47000000000E+01 0. -1.
         -5    1    1    2    0  502 -0.90374871181E+02 -0.61379957176E+02 -0.16640518020E+03  0.19911778042E+03  0.47000000000E+01 0.  1.
        -11    1    3    3    0    0  0.43892561566E+02 -0.41115028727E+02 -0.19952071193E+03  0.20838790041E+03  0.00000000000E+00 0. -1.
         11    1    3    3    0    0  0.44606515457E+02  0.49472587318E+02 -0.14896298106E+03  0.16317857654E+03  0.00000000000E+00 0.  1.
<mgrwt>
<rscale>  0 0.16702338E+03</rscale>
<asrwt>0</asrwt>
<pdfrwt beam="2">  1        2 0.12177451E+00 0.18207956E+03</pdfrwt>
<pdfrwt beam="1">  1       -2 0.47306089E-02 0.18207956E+03</pdfrwt>
<totfact> 0.75026086E+03</totfact>
</mgrwt>
</event>
<event>
 7    1  0.1446636E-005  0.2211479E+03  0.7546771E-02  0.1133030E+00
          2   -1    0    0  501    0  0.00000000000E+00  0.00000000000E+00  0.61752182661E+03  0.61752182661E+03  0.00000000000E+00 0. -1.
         -2   -1    0    0    0  501 -0.00000000000E+00 -0.00000000000E+00 -0.19799452601E+02  0.19799452601E+02  0.00000000000E+00 0.  1.
         23    2    1    2    0    0 -0.12968498847E+02 -0.13313556508E+02  0.27634312869E+03  0.29198606959E+03  0.92438667831E+02 0.  0.
          5    1    1    2  502    0 -0.41053046742E+02 -0.29649740815E+02  0.19198491412E+03  0.19860704174E+03  0.47000000000E+01 0.  1.
         -5    1    1    2    0  502  0.54021545589E+02  0.42963297323E+02  0.12939433119E+03  0.14672816788E+03  0.47000000000E+01 0.  1.
        -11    1    3    3    0    0  0.18256422745E+02 -0.43888413771E+02  0.10678632847E+03  0.11688802241E+03  0.00000000000E+00 0.  1.
         11    1    3    3    0    0 -0.31224921592E+02  0.30574857262E+02  0.16955680022E+03  0.17509804718E+03  0.00000000000E+00 0. -1.
<mgrwt>
<rscale>  0 0.22114786E+03</rscale>
<asrwt>0</asrwt>
<pdfrwt beam="1">  1        2 0.95003343E-01 0.22114786E+03</pdfrwt>
<pdfrwt beam="2">  1       -2 0.30460701E-02 0.22114786E+03</pdfrwt>
<totfact> 0.19797852E+04</totfact>
</mgrwt>
</event>
<event>
 7    1  0.1446636E-005  0.1257936E+03  0.7546771E-02  0.1246872E+00
          2   -1    0    0  501    0  0.00000000000E+00  0.00000000000E+00  0.69570494884E+03  0.69570494884E+03  0.00000000000E+00 0. -1.
         -2   -1    0    0    0  501 -0.00000000000E+00 -0.00000000000E+00 -0.18226914329E+02  0.18226914329E+02  0.00000000000E+00 0.  1.
         23    2    1    2    0    0  0.14093578563E+02  0.25405506906E+00  0.23890136710E+03  0.25767149961E+03  0.95509397484E+02 0.  0.
          5    1    1    2  502    0 -0.30308403817E+02 -0.57504383319E+02  0.25649402629E+03  0.26464434430E+03  0.47000000000E+01 0.  1.
         -5    1    1    2    0  502  0.16214825254E+02  0.57250328250E+02  0.18208264112E+03  0.19161601926E+03  0.47000000000E+01 0.  1.
        -11    1    3    3    0    0  0.83439385562E+01 -0.44479489352E+02  0.74249301960E+02  0.86954040304E+02  0.00000000000E+00 0.  1.
         11    1    3    3    0    0  0.57496400065E+01  0.44733544421E+02  0.16465206514E+03  0.17071745931E+03  0.00000000000E+00 0. -1.
<mgrwt>
<rscale>  0 0.11774031E+03</rscale>
<asrwt>0</asrwt>
<pdfrwt beam="1">  1        2 0.10703151E+00 0.12579359E+03</pdfrwt>
<pdfrwt beam="2">  1       -2 0.28041412E-02 0.12579359E+03</pdfrwt>
<totfact> 0.18636009E+04</totfact>
</mgrwt>
</event>
<event>
 7    1  0.1446636E-005  0.2358269E+03  0.7546771E-02  0.1122604E+00
         -2   -1    0    0    0  501 -0.00000000000E+00  0.00000000000E+00  0.11854734717E+02  0.11854734717E+02  0.00000000000E+00 0.  1.
          2   -1    0    0  501    0  0.00000000000E+00 -0.00000000000E+00 -0.11728295551E+04  0.11728295551E+04  0.00000000000E+00 0. -1.
         23    2    1    2    0    0  0.28339348119E+02 -0.77349082905E+01 -0.40824655588E+03  0.41936255420E+03  0.91305826868E+02 0.  0.
          5    1    1    2  502    0 -0.69198975294E+02 -0.51157538146E+01 -0.65286284896E+03  0.65655666829E+03  0.47000000000E+01 0. -1.
         -5    1    1    2    0  502  0.40859627175E+02  0.12850662105E+02 -0.99865415529E+02  0.10876506732E+03  0.47000000000E+01 0.  1.
        -11    1    3    3    0    0  0.56042166305E+02  0.17213304212E+02 -0.24688372680E+03  0.25374908237E+03  0.00000000000E+00 0. -1.
         11    1    3    3    0    0 -0.27702818186E+02 -0.24948212502E+02 -0.16136282908E+03  0.16561347183E+03  0.00000000000E+00 0.  1.
<mgrwt>
<rscale>  0 0.23582691E+03</rscale>
<asrwt>0</asrwt>
<pdfrwt beam="2">  1        2 0.18043534E+00 0.23582691E+03</pdfrwt>
<pdfrwt beam="1">  1       -2 0.18238051E-02 0.23582691E+03</pdfrwt>
<totfact> 0.18181862E+04</totfact>
</mgrwt>
</event>
<event>
 6    1  0.1446636E-005  0.1764664E+03  0.7546771E-02  0.1182960E+00
          2   -1    0    0  501    0  0.00000000000E+00  0.00000000000E+00  0.55571443893E+03  0.55571443893E+03  0.00000000000E+00 0. -1.
         -2   -1    0    0    0  501 -0.00000000000E+00 -0.00000000000E+00 -0.47265244469E+02  0.47265244469E+02  0.00000000000E+00 0.  1.
          5    1    1    2  502    0  0.12421407159E+02  0.15907826882E+02  0.43280274380E+00  0.20727460774E+02  0.47000000000E+01 0.  1.
         -5    1    1    2    0  502 -0.44168411264E+02 -0.13635437746E+03  0.20353928744E+03  0.24898533358E+03  0.47000000000E+01 0.  1.
        -11    1    1    2    0    0  0.78178722891E+01  0.92157988212E+02  0.25638264381E+03  0.27255508428E+03  0.00000000000E+00 0. -1.
         11    1    1    2    0    0  0.23929131816E+02  0.28288562368E+02  0.48094460459E+02  0.60711804760E+02  0.00000000000E+00 0.  1.
<mgrwt>
<rscale>  0 0.16518935E+03</rscale>
<asrwt>0</asrwt>
<pdfrwt beam="1">  1        2 0.85494524E-01 0.17646636E+03</pdfrwt>
<pdfrwt beam="2">  1       -2 0.72715765E-02 0.17646636E+03</pdfrwt>
<totfact> 0.59128690E+03</totfact>
</mgrwt>
</event>
<event>
 7    1  0.1446636E-005  0.1481285E+03  0.7546771E-02  0.1212364E+00
          1   -1    0    0  501    0  0.00000000000E+00  0.00000000000E+00  0.10516768432E+03  0.10516768432E+03  0.00000000000E+00 0. -1.
         -1   -1    0    0    0  501 -0.00000000000E+00 -0.00000000000E+00 -0.17190515278E+03  0.17190515278E+03  0.00000000000E+00 0.  1.
         23    2    1    2    0    0 -0.50334438312E+02 -0.61512918085E+02 -0.25449105898E+02  0.12329778132E+03  0.90759523550E+02 0.  0.
          5    1    1    2  502    0 -0.35856363571E+02  0.23613875169E+02 -0.40928015608E+02  0.59501986275E+02  0.47000000000E+01 0.  1.
         -5    1    1    2    0  502  0.86190801883E+02  0.37899042915E+02 -0.36034695521E+00  0.94273069501E+02  0.47000000000E+01 0.  1.
        -11    1    3    3    0    0  0.16679027593E+02 -0.49921406589E+02 -0.10984068167E+02  0.53767895168E+02  0.00000000000E+00 0. -1.
         11    1    3    3    0    0 -0.67013465905E+02 -0.11591511496E+02 -0.14465037732E+02  0.69529886149E+02  0.00000000000E+00 0.  1.
<mgrwt>
<rscale>  0 0.14071948E+03</rscale>
<asrwt>0</asrwt>
<pdfrwt beam="1">  1        1 0.16179644E-01 0.14812845E+03</pdfrwt>
<pdfrwt beam="2">  1       -1 0.26446946E-01 0.14812845E+03</pdfrwt>
<totfact> 0.41137545E+03</totfact>
</mgrwt>
</event>
<event>
 7    1  0.1446636E-005  0.1379835E+03  0.7546771E-02  0.1227324E+00
          2   -1    0    0  501    0  0.00000000000E+00  0.00000000000E+00  0.97660310746E+02  0.97660310746E+02  0.00000000000E+00 0. -1.
         -2   -1    0    0    0  501 -0.00000000000E+00 -0.00000000000E+00 -0.17885085550E+03  0.17885085550E+03  0.00000000000E+00 0.  1.
         23    2    1    2    0    0  0.56617418082E+02  0.14469977060E+02  0.12498472228E+02  0.10972664965E+03  0.92026156982E+02 0.  0.
          5    1    1    2  502    0 -0.23884444502E+02 -0.15954181570E+02 -0.12063833110E+03  0.12409955492E+03  0.47000000000E+01 0. -1.
         -5    1    1    2    0  502 -0.32732973579E+02  0.14842045099E+01  0.26949314120E+02  0.42684961683E+02  0.47000000000E+01 0. -1.
        -11    1    3    3    0    0 -0.19371924928E+02 -0.46640282088E+01  0.23262489530E+02  0.30629529113E+02  0.00000000000E+00 0. -1.
         11    1    3    3    0    0  0.75989343010E+02  0.19134005269E+02 -0.10764017302E+02  0.79097120536E+02  0.00000000000E+00 0.  1.
<mgrwt>
<rscale>  0 0.13008865E+03</rscale>
<asrwt>0</asrwt>
<pdfrwt beam="1">  1        2 0.15024663E-01 0.13798349E+03</pdfrwt>
<pdfrwt beam="2">  1       -2 0.27515516E-01 0.13798349E+03</pdfrwt>
<totfact> 0.44497740E+03</totfact>
</mgrwt>
</event>
<event>
 7    1  0.1446636E-005  0.1501033E+03  0.7546771E-02  0.1209786E+00
          2   -1    0    0  501    0  0.00000000000E+00  0.00000000000E+00  0.18025980926E+03  0.18025980926E+03  0.00000000000E+00 0.  1.
         -2   -1    0    0    0  501 -0.00000000000E+00 -0.00000000000E+00 -0.10385564593E+03  0.10385564593E+03  0.00000000000E+00 0. -1.
         23    2    1    2    0    0 -0.13503089711E+02 -0.81996637387E+02  0.21982239673E+02  0.12445095784E+03  0.89994666902E+02 0.  0.
          5    1    1    2  502    0 -0.38956060802E+02 -0.87245072575E+01 -0.25736552252E+01  0.40279093849E+02  0.47000000000E+01 0.  1.
         -5    1    1    2    0  502  0.52459150512E+02  0.90721144645E+02  0.56995578882E+02  0.11938540351E+03  0.47000000000E+01 0.  1.
        -11    1    3    3    0    0  0.43298961996E+01  0.15569006719E+02  0.19381863964E+02  0.25234869170E+02  0.00000000000E+00 0.  1.
         11    1    3    3    0    0 -0.17832985910E+02 -0.97565644107E+02  0.26003757092E+01  0.99216088666E+02  0.00000000000E+00 0. -1.
<mgrwt>
<rscale>  0 0.14266636E+03</rscale>
<asrwt>0</asrwt>
<pdfrwt beam="1">  1        2 0.27732278E-01 0.15010332E+03</pdfrwt>
<pdfrwt beam="2">  1       -2 0.15977792E-01 0.15010332E+03</pdfrwt>
<totfact> 0.56564332E+03</totfact>
</mgrwt>
</event>
<event>
 7    1  0.1446636E-005  0.2010866E+03  0.7546771E-02  0.1152921E+00
         -1   -1    0    0    0  501 -0.00000000000E+00  0.00000000000E+00  0.42365653826E+03  0.42365653826E+03  0.00000000000E+00 0.  1.
          1   -1    0    0  501    0  0.00000000000E+00 -0.00000000000E+00 -0.11126341861E+03  0.11126341861E+03  0.00000000000E+00 0. -1.
         23    2    1    2    0    0 -0.12721720143E+03  0.92859635341E+02  0.25088510143E+02  0.18423525372E+03  0.92228342472E+02 0.  0.
          5    1    1    2  502    0  0.10632241874E+03 -0.46632252978E+02  0.27460800997E+03  0.29817892763E+03  0.47000000000E+01 0. -1.
         -5    1    1    2    0  502  0.20894782688E+02 -0.46227382363E+02  0.12696599534E+02  0.52505775525E+02  0.47000000000E+01 0. -1.
        -11    1    3    3    0    0 -0.88384514472E+02  0.45995568382E+02 -0.27974800346E+02  0.10348914998E+03  0.00000000000E+00 0. -1.
         11    1    3    3    0    0 -0.38832686957E+02  0.46864066959E+02  0.53063310489E+02  0.80746103734E+02  0.00000000000E+00 0.  1.
<mgrwt>
<rscale>  0 0.19627473E+03</rscale>
<asrwt>0</asrwt>
<pdfrwt beam="2">  1        1 0.17117449E-01 0.20108660E+03</pdfrwt>
<pdfrwt beam="1">  1       -1 0.65177928E-01 0.20108660E+03</pdfrwt>
<totfact> 0.77242797E+02</totfact>
</mgrwt>
</event>
<event>
 7    1  0.1446636E-005  0.1748158E+03  0.7546771E-02  0.1178555E+00
          2   -1    0    0  501    0  0.00000000000E+00  0.00000000000E+00  0.42073705035E+03  0.42073705035E+03  0.00000000000E+00 0. -1.
         -2   -1    0    0    0  501 -0.00000000000E+00 -0.00000000000E+00 -0.67027815626E+02  0.67027815626E+02  0.00000000000E+00 0.  1.
         23    2    1    2    0    0  0.10729372000E+03  0.58518159393E+02  0.21614027783E+03  0.26531090166E+03  0.93471586645E+02 0.  0.
          5    1    1    2  502    0 -0.12712191872E+03 -0.17004796480E+02  0.10608350066E+03  0.16650809120E+03  0.47000000000E+01 0. -1.
         -5    1    1    2    0  502  0.19828198718E+02 -0.41513362913E+02  0.31485456233E+02  0.55945873118E+02  0.47000000000E+01 0. -1.
        -11    1    3    3    0    0  0.36078076648E+02  0.62735635849E+02  0.61361092553E+02  0.94881880774E+02  0.00000000000E+00 0.  1.
         11    1    3    3    0    0  0.71215643349E+02 -0.42174764556E+01  0.15477918528E+03  0.17042902089E+03  0.00000000000E+00 0. -1.
<mgrwt>
<rscale>  0 0.16932367E+03</rscale>
<asrwt>0</asrwt>
<pdfrwt beam="1">  1        2 0.64728775E-01 0.17481576E+03</pdfrwt>
<pdfrwt beam="2">  1       -2 0.10311972E-01 0.17481576E+03</pdfrwt>
<totfact> 0.46539336E+03</totfact>
</mgrwt>
</event>
<event>
 7    1  0.1446636E-005  0.1327962E+03  0.7546771E-02  0.1237752E+00
          1   -1    0    0  501    0  0.00000000000E+00  0.00000000000E+00  0.12792994200E+03  0.12792994200E+03  0.00000000000E+00 0. -1.
         -1   -1    0    0    0  501 -0.00000000000E+00 -0.00000000000E+00 -0.10471861605E+03  0.10471861605E+03  0.00000000000E+00 0.  1.
         23    2    1    2    0    0  0.28754532229E+02  0.34404967008E+02  0.99955358993E+01  0.99196346057E+02  0.87917458191E+02 0.  0.
          5    1    1    2  502    0 -0.76649678747E+02 -0.34630229535E+02  0.32379941765E+01  0.84303028747E+02  0.47000000000E+01 0.  1.
         -5    1    1    2    0  502  0.47895146518E+02  0.22526252735E+00  0.99777958803E+01  0.49149183247E+02  0.47000000000E+01 0.  1.
        -11    1    3    3    0    0  0.23422730072E+02 -0.25266892602E+02  0.17801113312E+02  0.38780404600E+02  0.00000000000E+00 0. -1.
         11    1    3    3    0    0  0.53318021572E+01  0.59671859609E+02 -0.78055774131E+01  0.60415941458E+02  0.00000000000E+00 0.  1.
<mgrwt>
<rscale>  0 0.12329889E+03</rscale>
<asrwt>0</asrwt>
<pdfrwt beam="1">  1        1 0.19681530E-01 0.13279622E+03</pdfrwt>
<pdfrwt beam="2">  1       -1 0.16110556E-01 0.13279622E+03</pdfrwt>
<totfact> 0.70698680E+03</totfact>
</mgrwt>
</event>
<event>
 7    1  0.1446636E-005  0.1819096E+03  0.7546771E-02  0.1172718E+00
          3   -1    0    0  501    0  0.00000000000E+00  0.00000000000E+00  0.62067815308E+03  0.62067815308E+03  0.00000000000E+00 0. -1.
         -3   -1    0    0    0  501 -0.00000000000E+00 -0.00000000000E+00 -0.60659847853E+02  0.60659847853E+02  0.00000000000E+00 0.  1.
         23    2    1    2    0    0 -0.31338500414E+02 -0.12507423769E+03  0.43101828115E+03  0.45833099270E+03  0.87549264079E+02 0.  0.
          5    1    1    2  502    0  0.57107830511E+02  0.89363448584E+02  0.14158860892E+03  0.17696483951E+03  0.47000000000E+01 0.  1.
         -5    1    1    2    0  502 -0.25769330097E+02  0.35710789107E+02 -0.12588584841E+02  0.46042168721E+02  0.47000000000E+01 0.  1.
        -11    1    3    3    0    0  0.65283683614E+01 -0.79309923700E+02  0.13754321897E+03  0.15890506812E+03  0.00000000000E+00 0. -1.
         11    1    3    3    0    0 -0.37866868776E+02 -0.45764313991E+02  0.29347506219E+03  0.29942592458E+03  0.00000000000E+00 0.  1.
<mgrwt>
<rscale>  0 0.17501346E+03</rscale>
<asrwt>0</asrwt>
<pdfrwt beam="1">  1        3 0.95488942E-01 0.18190965E+03</pdfrwt>
<pdfrwt beam="2">  1       -3 0.93322847E-02 0.18190965E+03</pdfrwt>
<totfact> 0.20154230E+02</totfact>
</mgrwt>
</event>
<event>
 7    1  0.1446636E-005  0.1566238E+03  0.7546771E-02  0.1201317E+00
          1   -1    0    0  501    0  0.00000000000E+00  0.00000000000E+00  0.77372509241E+02  0.77372509241E+02  0.00000000000E+00 0. -1.
         -1   -1    0    0    0  501 -0.00000000000E+00 -0.00000000000E+00 -0.34865047713E+03  0.34865047713E+03  0.00000000000E+00 0.  1.
         23    2    1    2    0    0 -0.51090381522E+02  0.79322808371E+02 -0.21422527309E+02  0.13113528498E+03  0.88516683615E+02 0.  0.
          5    1    1    2  502    0  0.80080558348E+02 -0.68942996617E+02 -0.23990500798E+03  0.26218797734E+03  0.47000000000E+01 0. -1.
         -5    1    1    2    0  502 -0.28990176826E+02 -0.10379811754E+02 -0.99504326053E+01  0.32699724058E+02  0.47000000000E+01 0. -1.
        -11    1    3    3    0    0  0.64079479260E+01 -0.10322399773E+02  0.14336197084E+02  0.18792027047E+02  0.00000000000E+00 0. -1.
         11    1    3    3    0    0 -0.57498329448E+02  0.89645208144E+02 -0.35758724393E+02  0.11234325793E+03  0.00000000000E+00 0.  1.
<mgrwt>
<rscale>  0 0.14931546E+03</rscale>
<asrwt>0</asrwt>
<pdfrwt beam="1">  1        1 0.11903463E-01 0.15662380E+03</pdfrwt>
<pdfrwt beam="2">  1       -1 0.53638535E-01 0.15662380E+03</pdfrwt>
<totfact> 0.17906364E+03</totfact>
</mgrwt>
</event>
<event>
 7    1  0.1446636E-005  0.1273232E+03  0.7546771E-02  0.1246902E+00
         -2   -1    0    0    0  501 -0.00000000000E+00  0.00000000000E+00  0.54299777460E+02  0.54299777460E+02  0.00000000000E+00 0.  1.
          2   -1    0    0  501    0  0.00000000000E+00 -0.00000000000E+00 -0.22608713257E+03  0.22608713257E+03  0.00000000000E+00 0. -1.
         23    2    1    2    0    0 -0.20228266062E+02 -0.13744165388E+02 -0.58133707071E+02  0.10971659138E+03  0.89778158238E+02 0.  0.
          5    1    1    2  502    0 -0.63589363976E+01 -0.36369822660E+02 -0.10708431149E+03  0.11336816061E+03  0.47000000000E+01 0.  1.
         -5    1    1    2    0  502  0.26587202459E+02  0.50113988048E+02 -0.65693365432E+01  0.57302158033E+02  0.47000000000E+01 0.  1.
        -11    1    3    3    0    0  0.11581982606E+02  0.19748679291E+02 -0.59241755971E+02  0.63511717858E+02  0.00000000000E+00 0. -1.
         11    1    3    3    0    0 -0.31810248668E+02 -0.33492844679E+02  0.11080488993E+01  0.46204873524E+02  0.00000000000E+00 0.  1.
<mgrwt>
<rscale>  0 0.11772243E+03</rscale>
<asrwt>0</asrwt>
<pdfrwt beam="2">  1        2 0.34782636E-01 0.12732323E+03</pdfrwt>
<pdfrwt beam="1">  1       -2 0.83538119E-02 0.12732323E+03</pdfrwt>
<totfact> 0.12299958E+04</totfact>
</mgrwt>
</event>
<event>
 7    1  0.1446636E-005  0.1322164E+03  0.7546771E-02  0.1237456E+00
         -2   -1    0    0    0  501 -0.00000000000E+00  0.00000000000E+00  0.36245924332E+02  0.36245924332E+02  0.00000000000E+00 0.  1.
          2   -1    0    0  501    0  0.00000000000E+00 -0.00000000000E+00 -0.37400263612E+03  0.37400263612E+03  0.00000000000E+00 0. -1.
         23    2    1    2    0    0 -0.18137014422E+01  0.43059742122E+02 -0.14197890343E+03  0.17400688922E+03  0.90900811720E+02 0.  0.
          5    1    1    2  502    0  0.48491164536E+02  0.18224818551E+01 -0.14746006941E+03  0.15531025900E+03  0.47000000000E+01 0.  1.
         -5    1    1    2    0  502 -0.46677463094E+02 -0.44882223977E+02 -0.48317738941E+02  0.80931412235E+02  0.47000000000E+01 0.  1.
        -11    1    3    3    0    0 -0.77263355725E+01 -0.15418171594E+02  0.30564049024E+01  0.17514505063E+02  0.00000000000E+00 0.  1.
         11    1    3    3    0    0  0.59126341303E+01  0.58477913716E+02 -0.14503530834E+03  0.15649238416E+03  0.00000000000E+00 0. -1.
<mgrwt>
<rscale>  0 0.12348484E+03</rscale>
<asrwt>0</asrwt>
<pdfrwt beam="2">  1        2 0.57538867E-01 0.13221640E+03</pdfrwt>
<pdfrwt beam="1">  1       -2 0.55762960E-02 0.13221640E+03</pdfrwt>
<totfact> 0.13406561E+04</totfact>
</mgrwt>
</event>
<event>
 7    1  0.1446636E-005  0.1923035E+03  0.7546771E-02  0.1161041E+00
         -1   -1    0    0    0  501 -0.00000000000E+00  0.00000000000E+00  0.26948975242E+03  0.26948975242E+03  0.00000000000E+00 0.  1.
          1   -1    0    0  501    0  0.00000000000E+00 -0.00000000000E+00 -0.13516728544E+03  0.13516728544E+03  0.00000000000E+00 0. -1.
         23    2    1    2    0    0 -0.57060392366E+02 -0.13453830472E+03  0.44841959124E+01  0.17262553239E+03  0.91777026576E+02 0.  0.
          5    1    1    2  502    0  0.86258442088E+02  0.65988616542E+02  0.11028920981E+03  0.15485740584E+03  0.47000000000E+01 0. -1.
         -5    1    1    2    0  502 -0.29198049722E+02  0.68549688175E+02  0.19549061265E+02  0.77174099624E+02  0.47000000000E+01 0. -1.
        -11    1    3    3    0    0  0.24948978077E+02 -0.36645440700E+02 -0.47571617537E+01  0.44586661897E+02  0.00000000000E+00 0.  1.
         11    1    3    3    0    0 -0.82009370442E+02 -0.97892864016E+02  0.92413576661E+01  0.12803887049E+03  0.00000000000E+00 0. -1.
<mgrwt>
<rscale>  0 0.18716733E+03</rscale>
<asrwt>0</asrwt>
<pdfrwt beam="2">  1        1 0.20794967E-01 0.19230352E+03</pdfrwt>
<pdfrwt beam="1">  1       -1 0.41459962E-01 0.19230352E+03</pdfrwt>
<totfact> 0.13933056E+03</totfact>
</mgrwt>
</event>
<event>
 7    1  0.1446636E-005  0.1361193E+03  0.7546771E-02  0.1230946E+00
         -1   -1    0    0    0  501 -0.00000000000E+00  0.00000000000E+00  0.45935061312E+02  0.45935061312E+02  0.00000000000E+00 0.  1.
          1   -1    0    0  501    0  0.00000000000E+00 -0.00000000000E+00 -0.34037371663E+03  0.34037371663E+03  0.00000000000E+00 0. -1.
         23    2    1    2    0    0 -0.52005909110E+02  0.14093198591E+02 -0.17957528820E+03  0.20820189018E+03  0.90540102249E+02 0.  0.
          5    1    1    2  502    0  0.46232440566E+02  0.25092070447E+02  0.37711272945E+01  0.52946784237E+02  0.47000000000E+01 0.  1.
         -5    1    1    2    0  502  0.57734685445E+01 -0.39185269037E+02 -0.11863449441E+03  0.12516010352E+03  0.47000000000E+01 0.  1.
        -11    1    3    3    0    0 -0.61741337570E+02  0.39618160276E+02 -0.15488332389E+03  0.17137804821E+03  0.00000000000E+00 0. -1.
         11    1    3    3    0    0  0.97354284600E+01 -0.25524961685E+02 -0.24691964307E+02  0.36823841973E+02  0.00000000000E+00 0.  1.
<mgrwt>
<rscale>  0 0.12767588E+03</rscale>
<asrwt>0</asrwt>
<pdfrwt beam="2">  1        1 0.52365185E-01 0.13611932E+03</pdfrwt>
<pdfrwt beam="1">  1       -1 0.70669327E-02 0.13611932E+03</pdfrwt>
<totfact> 0.74002497E+03</totfact>
</mgrwt>
</event>
<event>
 7    1  0.1446636E-005  0.1567067E+03  0.7546771E-02  0.1200522E+00
          1   -1    0    0  501    0  0.00000000000E+00  0.00000000000E+00  0.11084314741E+03  0.11084314741E+03  0.00000000000E+00 0. -1.
         -1   -1    0    0    0  501 -0.00000000000E+00 -0.00000000000E+00 -0.27555563115E+03  0.27555563115E+03  0.00000000000E+00 0.  1.
         23    2    1    2    0    0  0.11042393475E+02 -0.93848951271E+02  0.31650394916E+02  0.13517107861E+03  0.91323123497E+02 0.  0.
          5    1    1    2  502    0 -0.63075345958E+02  0.48707245078E+02 -0.65483993950E+02  0.10325278909E+03  0.47000000000E+01 0.  1.
         -5    1    1    2    0  502  0.52032952483E+02  0.45141706193E+02 -0.13087888471E+03  0.14797491086E+03  0.47000000000E+01 0.  1.
        -11    1    3    3    0    0  0.87098990645E+01 -0.31279965408E+02 -0.32210641741E+02  0.45736462686E+02  0.00000000000E+00 0.  1.
         11    1    3    3    0    0  0.23324944104E+01 -0.62568985863E+02  0.63861036657E+02  0.89434615921E+02  0.00000000000E+00 0. -1.
<mgrwt>
<rscale>  0 0.14996001E+03</rscale>
<asrwt>0</asrwt>
<pdfrwt beam="1">  1        1 0.17052792E-01 0.15670666E+03</pdfrwt>
<pdfrwt beam="2">  1       -1 0.42393174E-01 0.15670666E+03</pdfrwt>
<totfact> 0.17179684E+03</totfact>
</mgrwt>
</event>
<event>
 7    1  0.1446636E-005  0.1336012E+03  0.7546771E-02  0.1236591E+00
          1   -1    0    0  501    0  0.00000000000E+00  0.00000000000E+00  0.46516009940E+03  0.46516009940E+03  0.00000000000E+00 0. -1.
         -1   -1    0    0    0  501 -0.00000000000E+00 -0.00000000000E+00 -0.72562255227E+02  0.72562255227E+02  0.00000000000E+00 0.  1.
         23    2    1    2    0    0 -0.46521945071E+02 -0.75368173856E+01  0.39174348970E+03  0.40411841519E+03  0.87336342891E+02 0.  0.
          5    1    1    2  502    0  0.32169208762E+02 -0.53989749873E+02  0.22097333946E+02  0.66784229061E+02  0.47000000000E+01 0. -1.
         -5    1    1    2    0  502  0.14352736310E+02  0.61526567259E+02 -0.21242979465E+02  0.66819710376E+02  0.47000000000E+01 0. -1.
        -11    1    3    3    0    0  0.23405879693E+02  0.12452118037E+02  0.10480212249E+03  0.10810353984E+03  0.00000000000E+00 0.  1.
         11    1    3    3    0    0 -0.69927824764E+02 -0.19988935423E+02  0.28694136721E+03  0.29601487536E+03  0.00000000000E+00 0. -1.
<mgrwt>
<rscale>  0 0.12403102E+03</rscale>
<asrwt>0</asrwt>
<pdfrwt beam="1">  1        1 0.71563091E-01 0.13360121E+03</pdfrwt>
<pdfrwt beam="2">  1       -1 0.11163424E-01 0.13360121E+03</pdfrwt>
<totfact> 0.24917257E+03</totfact>
</mgrwt>
</event>
<event>
 7    1  0.1446636E-005  0.1429998E+03  0.7546771E-02  0.1216128E+00
          2   -1    0    0  501    0  0.00000000000E+00  0.00000000000E+00  0.15416406231E+03  0.15416406231E+03  0.00000000000E+00 0. -1.
         -2   -1    0    0    0  501 -0.00000000000E+00 -0.00000000000E+00 -0.12021995176E+03  0.12021995176E+03  0.00000000000E+00 0.  1.
         23    2    1    2    0    0 -0.69357143534E+02 -0.35702831554E+01  0.43082798291E+02  0.13109251900E+03  0.10249858900E+03 0.  0.
          5    1    1    2  502    0  0.36546549626E+02 -0.48665096089E+02  0.32075907144E+02  0.68955751653E+02  0.47000000000E+01 0.  1.
         -5    1    1    2    0  502  0.32810593909E+02  0.52235379245E+02 -0.41214594886E+02  0.74335743415E+02  0.47000000000E+01 0.  1.
        -11    1    3    3    0    0 -0.23575540343E+02  0.36931934580E+02 -0.15451675880E+02  0.46459963213E+02  0.00000000000E+00 0.  1.
         11    1    3    3    0    0 -0.45781603191E+02 -0.40502217735E+02  0.58534474171E+02  0.84632555785E+02  0.00000000000E+00 0. -1.
<mgrwt>
<rscale>  0 0.13794031E+03</rscale>
<asrwt>0</asrwt>
<pdfrwt beam="1">  1        2 0.23717548E-01 0.14299978E+03</pdfrwt>
<pdfrwt beam="2">  1       -2 0.18495377E-01 0.14299978E+03</pdfrwt>
<totfact> 0.52536709E+03</totfact>
</mgrwt>
</event>
<event>
 7    1  0.1446636E-005  0.1599119E+03  0.7546771E-02  0.1197468E+00
          3   -1    0    0  501    0  0.00000000000E+00  0.00000000000E+00  0.14644876557E+03  0.14644876557E+03  0.00000000000E+00 0. -1.
         -3   -1    0    0    0  501 -0.00000000000E+00 -0.00000000000E+00 -0.14889542531E+03  0.14889542531E+03  0.00000000000E+00 0.  1.
         23    2    1    2    0    0 -0.98808530000E+02 -0.12204809790E+02  0.20662355923E+02  0.13377114730E+03  0.86923552131E+02 0.  0.
          5    1    1    2  502    0  0.89210511615E+02  0.44081270062E+02 -0.56218555667E+02  0.11438658031E+03  0.47000000000E+01 0. -1.
         -5    1    1    2    0  502  0.95980183848E+01 -0.31876460272E+02  0.33109540004E+02  0.47186463267E+02  0.47000000000E+01 0. -1.
        -11    1    3    3    0    0 -0.54231301553E+02  0.37059873827E+02  0.11961504721E+02  0.66764855361E+02  0.00000000000E+00 0. -1.
         11    1    3    3    0    0 -0.44577228446E+02 -0.49264683617E+02  0.87008512017E+01  0.67006291939E+02  0.00000000000E+00 0.  1.
<mgrwt>
<rscale>  0 0.15247209E+03</rscale>
<asrwt>0</asrwt>
<pdfrwt beam="1">  1        3 0.22530579E-01 0.15991192E+03</pdfrwt>
<pdfrwt beam="2">  1       -3 0.22906988E-01 0.15991192E+03</pdfrwt>
<totfact> 0.75609495E+02</totfact>
</mgrwt>
</event>
<event>
 7    1  0.1446636E-005  0.1276979E+03  0.7546771E-02  0.1240422E+00
          3   -1    0    0  501    0  0.00000000000E+00  0.00000000000E+00  0.55883565415E+02  0.55883565415E+02  0.00000000000E+00 0. -1.
         -3   -1    0    0    0  501 -0.00000000000E+00 -0.00000000000E+00 -0.24487946287E+03  0.24487946287E+03  0.00000000000E+00 0.  1.
         23    2    1    2    0    0 -0.21229994206E+02  0.47468716963E+02 -0.10020291675E+03  0.14522862517E+03  0.91360479959E+02 0.  0.
          5    1    1    2  502    0  0.34437016463E+02  0.31655622918E+02 -0.38225990276E+02  0.60591277407E+02  0.47000000000E+01 0. -1.
         -5    1    1    2    0  502 -0.13207022257E+02 -0.79124339881E+02 -0.50566990422E+02  0.94943125706E+02  0.47000000000E+01 0.  1.
        -11    1    3    3    0    0 -0.16635277317E+02 -0.82349756520E+01 -0.85420465479E+02  0.87413975988E+02  0.00000000000E+00 0.  1.
         11    1    3    3    0    0 -0.45947168890E+01  0.55703692615E+02 -0.14782451275E+02  0.57814649181E+02  0.00000000000E+00 0. -1.
<mgrwt>
<rscale>  0 0.12163588E+03</rscale>
<asrwt>0</asrwt>
<pdfrwt beam="1">  1        3 0.85974717E-02 0.12769791E+03</pdfrwt>
<pdfrwt beam="2">  1       -3 0.37673763E-01 0.12769791E+03</pdfrwt>
<totfact> 0.15031050E+03</totfact>
</mgrwt>
</event>
<event>
 7    1  0.1446636E-005  0.1285338E+03  0.7546771E-02  0.1244487E+00
          2   -1    0    0  501    0  0.00000000000E+00  0.00000000000E+00  0.14137016372E+03  0.14137016372E+03  0.00000000000E+00 0. -1.
         -2   -1    0    0    0  501 -0.00000000000E+00 -0.00000000000E+00 -0.90905370378E+02  0.90905370378E+02  0.00000000000E+00 0.  1.
         23    2    1    2    0    0 -0.92195687495E+01  0.28503476470E+02  0.21879788395E+01  0.94974436404E+02  0.90099432296E+02 0.  0.
          5    1    1    2  502    0  0.26214389557E+02 -0.39807016609E+02  0.83534964716E+02  0.96291085368E+02  0.47000000000E+01 0.  1.
         -5    1    1    2    0  502 -0.16994820807E+02  0.11303540139E+02 -0.35258150217E+02  0.41010012322E+02  0.47000000000E+01 0.  1.
        -11    1    3    3    0    0  0.51210436226E+01  0.32957550049E+02  0.41295853809E+02  0.53082697132E+02  0.00000000000E+00 0. -1.
         11    1    3    3    0    0 -0.14340612372E+02 -0.44540735796E+01 -0.39107874969E+02  0.41891739272E+02  0.00000000000E+00 0.  1.
<mgrwt>
<rscale>  0 0.11916148E+03</rscale>
<asrwt>0</asrwt>
<pdfrwt beam="1">  1        2 0.21749256E-01 0.12853381E+03</pdfrwt>
<pdfrwt beam="2">  1       -2 0.13985442E-01 0.12853381E+03</pdfrwt>
<totfact> 0.91002855E+03</totfact>
</mgrwt>
</event>
<event>
 7    1  0.1446636E-005  0.1342271E+03  0.7546771E-02  0.1233896E+00
         -4   -1    0    0    0  501 -0.00000000000E+00  0.00000000000E+00  0.14641506566E+03  0.14641506566E+03  0.00000000000E+00 0.  1.
          4   -1    0    0  501    0  0.00000000000E+00 -0.00000000000E+00 -0.15753977403E+03  0.15753977403E+03  0.00000000000E+00 0. -1.
         23    2    1    2    0    0 -0.21831293993E+02 -0.43767589931E+02 -0.99291977646E+02  0.14336097976E+03  0.91111285612E+02 0.  0.
          5    1    1    2  502    0 -0.18845233468E+02 -0.29203867036E+02 -0.49322665946E+01  0.35417875827E+02  0.47000000000E+01 0. -1.
         -5    1    1    2    0  502  0.40676527461E+02  0.72971456967E+02  0.93099535873E+02  0.12517598411E+03  0.47000000000E+01 0. -1.
        -11    1    3    3    0    0  0.47952057587E+01  0.15493074139E+02 -0.70425831206E+02  0.72269129271E+02  0.00000000000E+00 0. -1.
         11    1    3    3    0    0 -0.26626499752E+02 -0.59260664070E+02 -0.28866146440E+02  0.71091850485E+02  0.00000000000E+00 0.  1.
<mgrwt>
<rscale>  0 0.12575349E+03</rscale>
<asrwt>0</asrwt>
<pdfrwt beam="2">  1        4 0.24236888E-01 0.13422712E+03</pdfrwt>
<pdfrwt beam="1">  1       -4 0.22525395E-01 0.13422712E+03</pdfrwt>
<totfact> 0.47724775E+02</totfact>
</mgrwt>
</event>
<event>
 7    1  0.1446636E-005  0.1440548E+03  0.7546771E-02  0.1217724E+00
          2   -1    0    0  501    0  0.00000000000E+00  0.00000000000E+00  0.61698280108E+02  0.61698280108E+02  0.00000000000E+00 0. -1.
         -2   -1    0    0    0  501 -0.00000000000E+00 -0.00000000000E+00 -0.28352641164E+03  0.28352641164E+03  0.00000000000E+00 0.  1.
         23    2    1    2    0    0  0.36904477648E+02 -0.61362829563E+02 -0.72435546253E+02  0.13769175941E+03  0.92654060492E+02 0.  0.
          5    1    1    2  502    0 -0.15442948570E+02  0.55672715863E+02 -0.15790154154E+01  0.57987233437E+02  0.47000000000E+01 0. -1.
         -5    1    1    2    0  502 -0.21461529078E+02  0.56901137009E+01 -0.14781356986E+03  0.14954569890E+03  0.47000000000E+01 0. -1.
        -11    1    3    3    0    0 -0.34682182408E+01 -0.70709469274E+02 -0.63928370741E+02  0.95387075479E+02  0.00000000000E+00 0.  1.
         11    1    3    3    0    0  0.40372695889E+02  0.93466397106E+01 -0.85071755113E+01  0.42304683930E+02  0.00000000000E+00 0. -1.
<mgrwt>
<rscale>  0 0.13678351E+03</rscale>
<asrwt>0</asrwt>
<pdfrwt beam="1">  1        2 0.94920430E-02 0.14405476E+03</pdfrwt>
<pdfrwt beam="2">  1       -2 0.43619448E-01 0.14405476E+03</pdfrwt>
<totfact> 0.33121697E+03</totfact>
</mgrwt>
</event>
<event>
 7    1  0.1446636E-005  0.1291938E+03  0.7546771E-02  0.1242699E+00
         -2   -1    0    0    0  501 -0.00000000000E+00  0.00000000000E+00  0.68231357924E+03  0.68231357924E+03  0.00000000000E+00 0.  1.
          2   -1    0    0  501    0  0.00000000000E+00 -0.00000000000E+00 -0.18738671034E+02  0.18738671034E+02  0.00000000000E+00 0. -1.
         23    2    1    2    0    0 -0.27021411092E+02 -0.18286533578E+02  0.28035789048E+03  0.29664363118E+03  0.91281669572E+02 0.  0.
          5    1    1    2  502    0  0.28484649179E+02 -0.19823934444E+02  0.22445392838E+02  0.41596265161E+02  0.47000000000E+01 0.  1.
         -5    1    1    2    0  502 -0.14632380868E+01  0.38110468023E+02  0.36077162488E+03  0.36281235392E+03  0.47000000000E+01 0.  1.
        -11    1    3    3    0    0 -0.42883160272E+02 -0.45374326917E+02  0.21896006896E+03  0.22768686123E+03  0.00000000000E+00 0.  1.
         11    1    3    3    0    0  0.15861749180E+02  0.27087793338E+02  0.61397821517E+02  0.68956769951E+02  0.00000000000E+00 0. -1.
<mgrwt>
<rscale>  0 0.12024151E+03</rscale>
<asrwt>0</asrwt>
<pdfrwt beam="2">  1        2 0.28828730E-02 0.12919384E+03</pdfrwt>
<pdfrwt beam="1">  1       -2 0.10497130E+00 0.12919384E+03</pdfrwt>
<totfact> 0.24109246E+03</totfact>
</mgrwt>
</event>
<event>
 7    1  0.1446636E-005  0.1420509E+03  0.7546771E-02  0.1220398E+00
         -1   -1    0    0    0  501 -0.00000000000E+00  0.00000000000E+00  0.27243262619E+02  0.27243262619E+02  0.00000000000E+00 0.  1.
          1   -1    0    0  501    0  0.00000000000E+00 -0.00000000000E+00 -0.61769405716E+03  0.61769405716E+03  0.00000000000E+00 0. -1.
         23    2    1    2    0    0  0.60126600441E+02  0.30596561073E+02 -0.30441322746E+03  0.32556927962E+03  0.93683430481E+02 0.  0.
          5    1    1    2  502    0 -0.29805673357E+02  0.40236803278E+02 -0.49555990563E+02  0.70606406954E+02  0.47000000000E+01 0.  1.
         -5    1    1    2    0  502 -0.30320927084E+02 -0.70833364351E+02 -0.23648157652E+03  0.24876163321E+03  0.47000000000E+01 0.  1.
        -11    1    3    3    0    0  0.68620568826E+00  0.37723208475E+02 -0.42192004645E+02  0.56601029954E+02  0.00000000000E+00 0.  1.
         11    1    3    3    0    0  0.59440394753E+02 -0.71266474011E+01 -0.26222122282E+03  0.26896824967E+03  0.00000000000E+00 0. -1.
<mgrwt>
<rscale>  0 0.13487404E+03</rscale>
<asrwt>0</asrwt>
<pdfrwt beam="2">  1        1 0.95029853E-01 0.14205089E+03</pdfrwt>
<pdfrwt beam="1">  1       -1 0.41912712E-02 0.14205089E+03</pdfrwt>
<totfact> 0.74579057E+03</totfact>
</mgrwt>
</event>
<event>
 7    1  0.1446636E-005  0.1214320E+03  0.7546771E-02  0.1252784E+00
          2   -1    0    0  501    0  0.00000000000E+00  0.00000000000E+00  0.10310956254E+03  0.10310956254E+03  0.00000000000E+00 0. -1.
         -2   -1    0    0    0  501 -0.00000000000E+00 -0.00000000000E+00 -0.11449324912E+03  0.11449324912E+03  0.00000000000E+00 0.  1.
         23    2    1    2    0    0 -0.20002681009E+02  0.42530097352E+01  0.23706412452E+01  0.95394295411E+02  0.93146424074E+02 0.  0.
          5    1    1    2  502    0 -0.15934554419E+02 -0.32344227484E+02  0.38317685508E+02  0.52824181005E+02  0.47000000000E+01 0. -1.
         -5    1    1    2    0  502  0.35937235428E+02  0.28091217749E+02 -0.52072013329E+02  0.69384335242E+02  0.47000000000E+01 0.  1.
        -11    1    3    3    0    0 -0.26559705578E+02  0.45885137352E+02  0.44022190859E+01  0.53200031232E+02  0.00000000000E+00 0.  1.
         11    1    3    3    0    0  0.65570245693E+01 -0.41632127617E+02 -0.20315778407E+01  0.42194264179E+02  0.00000000000E+00 0. -1.
<mgrwt>
<rscale>  0 0.11431337E+03</rscale>
<asrwt>0</asrwt>
<pdfrwt beam="1">  1        2 0.15863010E-01 0.12143204E+03</pdfrwt>
<pdfrwt beam="2">  1       -2 0.17614346E-01 0.12143204E+03</pdfrwt>
<totfact> 0.88880645E+03</totfact>
</mgrwt>
</event>
<event>
 7    1  0.1446636E-005  0.1308364E+03  0.7546771E-02  0.1239819E+00
          1   -1    0    0  501    0  0.00000000000E+00  0.00000000000E+00  0.13112715192E+02  0.13112715192E+02  0.00000000000E+00 0. -1.
         -1   -1    0    0    0  501 -0.00000000000E+00 -0.00000000000E+00 -0.15869671673E+04  0.15869671673E+04  0.00000000000E+00 0.  1.
         23    2    1    2    0    0 -0.38100927048E+02  0.63448056062E+01 -0.23680719183E+03  0.25664639112E+03  0.91092188318E+02 0.  0.
          5    1    1    2  502    0  0.42066758632E+02 -0.54718413672E+02 -0.10497768569E+04  0.10520538277E+04  0.47000000000E+01 0. -1.
         -5    1    1    2    0  502 -0.39658315843E+01  0.48373608066E+02 -0.28727040332E+03  0.29137966367E+03  0.47000000000E+01 0. -1.
        -11    1    3    3    0    0 -0.52568307818E+02  0.35218183808E+02 -0.12266471590E+03  0.13802311395E+03  0.00000000000E+00 0.  1.
         11    1    3    3    0    0  0.14467380770E+02 -0.28873378202E+02 -0.11414247594E+03  0.11862327718E+03  0.00000000000E+00 0. -1.
<mgrwt>
<rscale>  0 0.12200926E+03</rscale>
<asrwt>0</asrwt>
<pdfrwt beam="1">  1        1 0.20173414E-02 0.13083642E+03</pdfrwt>
<pdfrwt beam="2">  1       -1 0.24414872E+00 0.13083642E+03</pdfrwt>
<totfact> 0.51199936E+02</totfact>
</mgrwt>
</event>
<event>
 7    1  0.1446636E-005  0.1572500E+03  0.7546771E-02  0.1198801E+00
         -2   -1    0    0    0  501 -0.00000000000E+00  0.00000000000E+00  0.45143819756E+02  0.45143819756E+02  0.00000000000E+00 0.  1.
          2   -1    0    0  501    0  0.00000000000E+00 -0.00000000000E+00 -0.60847683848E+03  0.60847683848E+03  0.00000000000E+00 0. -1.
         23    2    1    2    0    0  0.94885075477E+02 -0.99239248837E+01 -0.41884979826E+03  0.44007213771E+03  0.95533612151E+02 0.  0.
          5    1    1    2  502    0 -0.21259154880E+02 -0.53782435459E+02 -0.69707927182E+02  0.90696125287E+02  0.47000000000E+01 0.  1.
         -5    1    1    2    0  502 -0.73625920598E+02  0.63706360342E+02 -0.74775293288E+02  0.12285239525E+03  0.47000000000E+01 0.  1.
        -11    1    3    3    0    0  0.36774831664E+00  0.30988855726E+02 -0.75652675492E+02  0.81754337665E+02  0.00000000000E+00 0. -1.
         11    1    3    3    0    0  0.94517327161E+02 -0.40912780609E+02 -0.34319712277E+03  0.35831780004E+03  0.00000000000E+00 0.  1.
<mgrwt>
<rscale>  0 0.15136881E+03</rscale>
<asrwt>0</asrwt>
<pdfrwt beam="2">  1        2 0.93611832E-01 0.15725002E+03</pdfrwt>
<pdfrwt beam="1">  1       -2 0.69452023E-02 0.15725002E+03</pdfrwt>
<totfact> 0.56916274E+03</totfact>
</mgrwt>
</event>
<event>
 7    1  0.1461168E-005  0.1907871E+03  0.7546771E-02  0.1162574E+00
         -1   -1    0    0    0  501 -0.00000000000E+00  0.00000000000E+00  0.17319876652E+03  0.17319876652E+03  0.00000000000E+00 0.  1.
          1   -1    0    0  501    0  0.00000000000E+00 -0.00000000000E+00 -0.20177847760E+03  0.20177847760E+03  0.00000000000E+00 0. -1.
         23    2    1    2    0    0 -0.67406913840E+02  0.12740087791E+03 -0.61660123456E+02  0.18134350307E+03  0.91152726537E+02 0.  0.
          5    1    1    2  502    0  0.29755896243E+02 -0.32035189500E+01  0.54172567019E+02  0.62067970100E+02  0.47000000000E+01 0.  1.
         -5    1    1    2    0  502  0.37651017597E+02 -0.12419735896E+03 -0.21092154649E+02  0.13156577095E+03  0.47000000000E+01 0.  1.
        -11    1    3    3    0    0 -0.72396704779E+02  0.78617104506E+02 -0.58262117804E+01  0.10703212942E+03  0.00000000000E+00 0.  1.
         11    1    3    3    0    0  0.49897909389E+01  0.48783773403E+02 -0.55833911676E+02  0.74311373652E+02  0.00000000000E+00 0. -1.
<mgrwt>
<rscale>  0 0.18551010E+03</rscale>
<asrwt>0</asrwt>
<pdfrwt beam="2">  1        1 0.31042842E-01 0.19078709E+03</pdfrwt>
<pdfrwt beam="1">  1       -1 0.26645964E-01 0.19078709E+03</pdfrwt>
<totfact> 0.17935365E+03</totfact>
</mgrwt>
</event>
<event>
 7    1  0.1446636E-005  0.1786814E+03  0.7546771E-02  0.1187694E+00
         -1   -1    0    0    0  501 -0.00000000000E+00  0.00000000000E+00  0.25279754783E+03  0.25279754783E+03  0.00000000000E+00 0.  1.
          1   -1    0    0  501    0  0.00000000000E+00 -0.00000000000E+00 -0.16290599642E+03  0.16290599642E+03  0.00000000000E+00 0. -1.
         23    2    1    2    0    0  0.25688496943E+02  0.70196035413E+02 -0.10050779187E+03  0.15459254038E+03  0.90607146798E+02 0.  0.
          5    1    1    2  502    0 -0.48624920823E+02 -0.47989059514E+02  0.49159972453E+00  0.68481124614E+02  0.47000000000E+01 0. -1.
         -5    1    1    2    0  502  0.22936423880E+02 -0.22206975899E+02  0.18990774356E+03  0.19262987925E+03  0.47000000000E+01 0.  1.
        -11    1    3    3    0    0 -0.22884801140E+02  0.43632203800E+02 -0.12853297123E+02  0.50918469916E+02  0.00000000000E+00 0.  1.
         11    1    3    3    0    0  0.48573298083E+02  0.26563831612E+02 -0.87654494748E+02  0.10367407046E+03  0.00000000000E+00 0. -1.
<mgrwt>
<rscale>  0 0.16089137E+03</rscale>
<asrwt>0</asrwt>
<pdfrwt beam="2">  1        1 0.25062461E-01 0.17868141E+03</pdfrwt>
<pdfrwt beam="1">  1       -1 0.38891931E-01 0.17868141E+03</pdfrwt>
<totfact> 0.12280428E+03</totfact>
</mgrwt>
</event>
<event>
 7    1  0.1446636E-005  0.1778970E+03  0.7546771E-02  0.1176109E+00
         -2   -1    0    0    0  501 -0.00000000000E+00  0.00000000000E+00  0.18034399258E+04  0.18034399258E+04  0.00000000000E+00 0. -1.
          2   -1    0    0  501    0  0.00000000000E+00 -0.00000000000E+00 -0.69133694110E+02  0.69133694110E+02  0.00000000000E+00 0.  1.
         23    2    1    2    0    0  0.12031689387E+03  0.39273000069E+02  0.27752859107E+02  0.15677300559E+03  0.88255484859E+02 0.  0.
          5    1    1    2  502    0 -0.13963253980E+03 -0.30991874798E+02  0.16301726499E+04  0.16364420860E+04  0.47000000000E+01 0.  1.
         -5    1    1    2    0  502  0.19315645930E+02 -0.82811252705E+01  0.76380722663E+02  0.79358528262E+02  0.47000000000E+01 0.  1.
        -11    1    3    3    0    0 -0.63825283999E+01  0.25783385408E+02  0.86428045996E+01  0.27932377328E+02  0.00000000000E+00 0.  1.
         11    1    3    3    0    0  0.12669942227E+03  0.13489614661E+02  0.19110054507E+02  0.12884062826E+03  0.00000000000E+00 0. -1.
<mgrwt>
<rscale>  0 0.17167845E+03</rscale>
<asrwt>0</asrwt>
<pdfrwt beam="2">  1        2 0.10635954E-01 0.17789698E+03</pdfrwt>
<pdfrwt beam="1">  1       -2 0.27745226E+00 0.17789698E+03</pdfrwt>
<totfact> 0.30021666E+01</totfact>
</mgrwt>
</event>
<event>
 7    1  0.1446636E-005  0.1404692E+03  0.7546771E-02  0.1224006E+00
          2   -1    0    0  501    0  0.00000000000E+00  0.00000000000E+00  0.43375796958E+02  0.43375796958E+02  0.00000000000E+00 0. -1.
         -2   -1    0    0    0  501 -0.00000000000E+00 -0.00000000000E+00 -0.36407469519E+03  0.36407469519E+03  0.00000000000E+00 0.  1.
         23    2    1    2    0    0  0.63529794542E+02 -0.83778879863E+01 -0.13429320530E+03  0.17404378464E+03  0.90279289874E+02 0.  0.
          5    1    1    2  502    0 -0.46805927513E+02 -0.29599316867E+02 -0.15824321422E+02  0.57787659217E+02  0.47000000000E+01 0. -1.
         -5    1    1    2    0  502 -0.16723867029E+02  0.37977204853E+02 -0.17058137151E+03  0.17561904830E+03  0.47000000000E+01 0. -1.
        -11    1    3    3    0    0  0.32844370304E+02  0.93402875102E+01  0.10262892359E+01  0.34162068161E+02  0.00000000000E+00 0. -1.
         11    1    3    3    0    0  0.30685424238E+02 -0.17718175497E+02 -0.13531949453E+03  0.13988171648E+03  0.00000000000E+00 0.  1.
<mgrwt>
<rscale>  0 0.13235248E+03</rscale>
<asrwt>0</asrwt>
<pdfrwt beam="1">  1        2 0.66731993E-02 0.14046924E+03</pdfrwt>
<pdfrwt beam="2">  1       -2 0.56011493E-01 0.14046924E+03</pdfrwt>
<totfact> 0.31427971E+03</totfact>
</mgrwt>
</event>
<event>
 7    1  0.1446636E-005  0.1642799E+03  0.7546771E-02  0.1190699E+00
         -4   -1    0    0    0  501 -0.00000000000E+00  0.00000000000E+00  0.67290526261E+03  0.67290526261E+03  0.00000000000E+00 0.  1.
          4   -1    0    0  501    0  0.00000000000E+00 -0.00000000000E+00 -0.37119458941E+02  0.37119458941E+02  0.00000000000E+00 0. -1.
         23    2    1    2    0    0  0.24811353866E+02  0.10367156366E+03  0.20560983345E+03  0.24954750669E+03  0.92925551346E+02 0.  0.
          5    1    1    2  502    0  0.16482133368E+02  0.34055673176E+01  0.22224857697E+03  0.22293447148E+03  0.47000000000E+01 0.  1.
         -5    1    1    2    0  502 -0.41293487234E+02 -0.10707713098E+03  0.20792739325E+03  0.23754274338E+03  0.47000000000E+01 0.  1.
        -11    1    3    3    0    0 -0.17083187528E+02 -0.91626543163E+01  0.16879933656E+02  0.25704507202E+02  0.00000000000E+00 0. -1.
         11    1    3    3    0    0  0.41894541394E+02  0.11283421798E+03  0.18872989979E+03  0.22384299949E+03  0.00000000000E+00 0.  1.
<mgrwt>
<rscale>  0 0.15823889E+03</rscale>
<asrwt>0</asrwt>
<pdfrwt beam="2">  1        4 0.57106865E-02 0.16427994E+03</pdfrwt>
<pdfrwt beam="1">  1       -4 0.10352388E+00 0.16427994E+03</pdfrwt>
<totfact> 0.26186553E+02</totfact>
</mgrwt>
</event>
<event>
 7    1  0.1446636E-005  0.1524622E+03  0.7546771E-02  0.1205822E+00
          1   -1    0    0  501    0  0.00000000000E+00  0.00000000000E+00  0.69058498658E+03  0.69058498658E+03  0.00000000000E+00 0. -1.
         -1   -1    0    0    0  501 -0.00000000000E+00 -0.00000000000E+00 -0.29891669606E+02  0.29891669606E+02  0.00000000000E+00 0.  1.
         23    2    1    2    0    0 -0.86154404685E+02 -0.14042098784E+02  0.38428779169E+03  0.40481111435E+03  0.92602210965E+02 0.  0.
          5    1    1    2  502    0 -0.19280766426E+02  0.37659680897E+01  0.63382037392E+00  0.20209458129E+02  0.47000000000E+01 0. -1.
         -5    1    1    2    0  502  0.10543517111E+03  0.10276130695E+02  0.27577170491E+03  0.29545608370E+03  0.47000000000E+01 0. -1.
        -11    1    3    3    0    0  0.18043574869E+02  0.94638159292E+01  0.66555878432E+02  0.69604736619E+02  0.00000000000E+00 0. -1.
         11    1    3    3    0    0 -0.10419797955E+03 -0.23505914714E+02  0.31773191326E+03  0.33520637773E+03  0.00000000000E+00 0.  1.
<mgrwt>
<rscale>  0 0.14572834E+03</rscale>
<asrwt>0</asrwt>
<pdfrwt beam="1">  1        1 0.10624383E+00 0.15246219E+03</pdfrwt>
<pdfrwt beam="2">  1       -1 0.45987189E-02 0.15246219E+03</pdfrwt>
<totfact> 0.55835515E+03</totfact>
</mgrwt>
</event>
<event>
 7    1  0.1446636E-005  0.2045508E+03  0.7546771E-02  0.1150248E+00
         -2   -1    0    0    0  501 -0.00000000000E+00  0.00000000000E+00  0.95154089067E+03  0.95154089067E+03  0.00000000000E+00 0.  1.
          2   -1    0    0  501    0  0.00000000000E+00 -0.00000000000E+00 -0.49133432864E+02  0.49133432864E+02  0.00000000000E+00 0. -1.
         23    2    1    2    0    0  0.12978703768E+03 -0.96812771805E+02  0.21482800810E+03  0.28331350173E+03  0.88871138531E+02 0.  0.
          5    1    1    2  502    0 -0.95257523690E+02  0.72326497174E+01  0.21823231667E+03  0.23827240939E+03  0.47000000000E+01 0.  1.
         -5    1    1    2    0  502 -0.34529513994E+02  0.89580122088E+02  0.46934713304E+03  0.47908841240E+03  0.47000000000E+01 0.  1.
        -11    1    3    3    0    0  0.94785573006E+02 -0.28779410168E+02  0.76207121637E+02  0.12498033720E+03  0.00000000000E+00 0. -1.
         11    1    3    3    0    0  0.35001464678E+02 -0.68033361637E+02  0.13862088646E+03  0.15833316453E+03  0.00000000000E+00 0.  1.
<mgrwt>
<rscale>  0 0.19939758E+03</rscale>
<asrwt>0</asrwt>
<pdfrwt beam="2">  1        2 0.75589904E-02 0.20455085E+03</pdfrwt>
<pdfrwt beam="1">  1       -2 0.14639089E+00 0.20455085E+03</pdfrwt>
<totfact> 0.30785510E+02</totfact>
</mgrwt>
</event>
<event>
 7    1  0.1446636E-005  0.1587976E+03  0.7546771E-02  0.1197960E+00
         -2   -1    0    0    0  501 -0.00000000000E+00  0.00000000000E+00  0.35065209888E+03  0.35065209888E+03  0.00000000000E+00 0.  1.
          2   -1    0    0  501    0  0.00000000000E+00 -0.00000000000E+00 -0.68666351047E+02  0.68666351047E+02  0.00000000000E+00 0. -1.
         23    2    1    2    0    0 -0.50116459940E+02  0.84578511031E+02  0.60017094349E+02  0.14639580971E+03  0.90357608437E+02 0.  0.
          5    1    1    2  502    0  0.78036376579E+02 -0.30051162833E+02  0.70531742573E+02  0.10949687287E+03  0.47000000000E+01 0. -1.
         -5    1    1    2    0  502 -0.27919916639E+02 -0.54527348198E+02  0.15143691091E+03  0.16342576734E+03  0.47000000000E+01 0. -1.
        -11    1    3    3    0    0 -0.60958497913E+02  0.64936579819E+02  0.77412936502E+02  0.11800618884E+03  0.00000000000E+00 0.  1.
         11    1    3    3    0    0  0.10842037973E+02  0.19641931212E+02 -0.17395842154E+02  0.28389620874E+02  0.00000000000E+00 0. -1.
<mgrwt>
<rscale>  0 0.15206384E+03</rscale>
<asrwt>0</asrwt>
<pdfrwt beam="2">  1        2 0.10564054E-01 0.15879762E+03</pdfrwt>
<pdfrwt beam="1">  1       -2 0.53946476E-01 0.15879762E+03</pdfrwt>
<totfact> 0.19207320E+03</totfact>
</mgrwt>
</event>
<event>
 6    1  0.1446636E-005  0.1302823E+03  0.7546771E-02  0.1258110E+00
          3   -1    0    0  501    0  0.00000000000E+00  0.00000000000E+00  0.32350511902E+03  0.32350511902E+03  0.00000000000E+00 0. -1.
         -3   -1    0    0    0  501 -0.00000000000E+00 -0.00000000000E+00 -0.12905793151E+03  0.12905793151E+03  0.00000000000E+00 0.  1.
          5    1    1    2  502    0 -0.26952078708E+02 -0.34648242563E+02  0.16765980542E+02  0.47223970216E+02  0.47000000000E+01 0. -1.
         -5    1    1    2    0  502 -0.28857132037E+02 -0.38386261740E+01 -0.10767660570E+03  0.11164143736E+03  0.47000000000E+01 0.  1.
        -11    1    1    2    0    0  0.11228751000E+02  0.23736418446E+01  0.64291214138E+02  0.65307574140E+02  0.00000000000E+00 0.  1.
         11    1    1    2    0    0  0.44580459744E+02  0.36113226893E+02  0.22106659853E+03  0.22839006881E+03  0.00000000000E+00 0. -1.
<mgrwt>
<rscale>  0 0.11133936E+03</rscale>
<asrwt>0</asrwt>
<pdfrwt beam="1">  1        3 0.49770018E-01 0.13028229E+03</pdfrwt>
<pdfrwt beam="2">  1       -3 0.19855067E-01 0.13028229E+03</pdfrwt>
<totfact> 0.21317467E+02</totfact>
</mgrwt>
</event>
<event>
 7    1  0.1446636E-005  0.2272923E+03  0.7546771E-02  0.1128560E+00
         -2   -1    0    0    0  501 -0.00000000000E+00  0.00000000000E+00  0.42694556091E+02  0.42694556091E+02  0.00000000000E+00 0.  1.
          2   -1    0    0  501    0  0.00000000000E+00 -0.00000000000E+00 -0.30250804174E+03  0.30250804174E+03  0.00000000000E+00 0. -1.
         23    2    1    2    0    0 -0.28817506445E+02  0.46223887155E+01 -0.80670766020E+02  0.12481925579E+03  0.90665643833E+02 0.  0.
          5    1    1    2  502    0  0.77508981518E+02  0.10633732216E+01 -0.12531077477E+03  0.14742338095E+03  0.47000000000E+01 0.  1.
         -5    1    1    2    0  502 -0.48691475073E+02 -0.56857619371E+01 -0.53831944857E+02  0.72959961079E+02  0.47000000000E+01 0.  1.
        -11    1    3    3    0    0 -0.21926188562E+02 -0.24062868055E+02 -0.88499217801E+02  0.94296823463E+02  0.00000000000E+00 0. -1.
         11    1    3    3    0    0 -0.68913178829E+01  0.28685256770E+02  0.78284517808E+01  0.30522432331E+02  0.00000000000E+00 0.  1.
<mgrwt>
<rscale>  0 0.22729229E+03</rscale>
<asrwt>0</asrwt>
<pdfrwt beam="2">  1        2 0.46539697E-01 0.22729229E+03</pdfrwt>
<pdfrwt beam="1">  1       -2 0.65683934E-02 0.22729229E+03</pdfrwt>
<totfact> 0.13643979E+04</totfact>
</mgrwt>
</event>
<event>
 7    1  0.1446636E-005  0.2004024E+03  0.7546771E-02  0.1153487E+00
          2   -1    0    0  501    0  0.00000000000E+00  0.00000000000E+00  0.34446586573E+03  0.34446586573E+03  0.00000000000E+00 0.  1.
         -2   -1    0    0    0  501 -0.00000000000E+00 -0.00000000000E+00 -0.10725649222E+03  0.10725649222E+03  0.00000000000E+00 0. -1.
         23    2    1    2    0    0 -0.15421323006E+03 -0.27264042291E+02  0.13635046379E+03  0.22737075289E+03  0.92633481888E+02 0.  0.
          5    1    1    2  502    0  0.84181990737E+02  0.38527786668E+02 -0.93883582268E+01  0.93173114041E+02  0.47000000000E+01 0. -1.
         -5    1    1    2    0  502  0.70031239322E+02 -0.11263744377E+02  0.11024726795E+03  0.13117849103E+03  0.47000000000E+01 0. -1.
        -11    1    3    3    0    0 -0.12964615797E+03 -0.58481250606E+02  0.10654693666E+03  0.17770884238E+03  0.00000000000E+00 0.  1.
         11    1    3    3    0    0 -0.24567072090E+02  0.31217208315E+02  0.29803527127E+02  0.49661910507E+02  0.00000000000E+00 0. -1.
<mgrwt>
<rscale>  0 0.19562103E+03</rscale>
<asrwt>0</asrwt>
<pdfrwt beam="1">  1        2 0.52994748E-01 0.20040240E+03</pdfrwt>
<pdfrwt beam="2">  1       -2 0.16500999E-01 0.20040240E+03</pdfrwt>
<totfact> 0.27070059E+03</totfact>
</mgrwt>
</event>
<event>
 7    1  0.1446636E-005  0.1434233E+03  0.7546771E-02  0.1218501E+00
         -2   -1    0    0    0  501 -0.00000000000E+00  0.00000000000E+00  0.72167733306E+02  0.72167733306E+02  0.00000000000E+00 0.  1.
          2   -1    0    0  501    0  0.00000000000E+00 -0.00000000000E+00 -0.25304152754E+03  0.25304152754E+03  0.00000000000E+00 0. -1.
         23    2    1    2    0    0  0.10494857786E+02  0.69554932841E+02 -0.12570174791E+03  0.17154015416E+03  0.93150761346E+02 0.  0.
          5    1    1    2  502    0  0.48772031716E+02  0.11301351016E+01 -0.70317267523E+01  0.49512861604E+02  0.47000000000E+01 0. -1.
         -5    1    1    2    0  502 -0.59266889502E+02 -0.70685067942E+02 -0.48140319573E+02  0.10415624508E+03  0.47000000000E+01 0. -1.
        -11    1    3    3    0    0 -0.14693625517E+02 -0.25331820855E+01  0.84787035477E+01  0.17152494167E+02  0.00000000000E+00 0.  1.
         11    1    3    3    0    0  0.25188483303E+02  0.72088114926E+02 -0.13418045146E+03  0.15438765999E+03  0.00000000000E+00 0. -1.
<mgrwt>
<rscale>  0 0.13622512E+03</rscale>
<asrwt>0</asrwt>
<pdfrwt beam="2">  1        2 0.38929466E-01 0.14342329E+03</pdfrwt>
<pdfrwt beam="1">  1       -2 0.11102728E-01 0.14342329E+03</pdfrwt>
<totfact> 0.70466964E+03</totfact>
</mgrwt>
</event>
<event>
 7    1  0.1446636E-005  0.1680167E+03  0.7546771E-02  0.1187141E+00
         -3   -1    0    0    0  501 -0.00000000000E+00  0.00000000000E+00  0.21595480158E+03  0.21595480158E+03  0.00000000000E+00 0.  1.
          3   -1    0    0  501    0  0.00000000000E+00 -0.00000000000E+00 -0.13180627355E+03  0.13180627355E+03  0.00000000000E+00 0. -1.
         23    2    1    2    0    0  0.56838882233E+02  0.96804540916E+02 -0.28021540615E+02  0.14574189866E+03  0.88621197305E+02 0.  0.
          5    1    1    2  502    0 -0.11178886767E+01 -0.17778451158E+02  0.10315923725E+03  0.10479141774E+03  0.47000000000E+01 0.  1.
         -5    1    1    2    0  502 -0.55720993557E+02 -0.79026089759E+02  0.90108313956E+01  0.97227758731E+02  0.47000000000E+01 0.  1.
        -11    1    3    3    0    0  0.16623051713E+02  0.96724287899E+02 -0.26234125996E+01  0.98177370159E+02  0.00000000000E+00 0.  1.
         11    1    3    3    0    0  0.40215830521E+02  0.80253017702E-01 -0.25398128016E+02  0.47564528503E+02  0.00000000000E+00 0. -1.
<mgrwt>
<rscale>  0 0.16138592E+03</rscale>
<asrwt>0</asrwt>
<pdfrwt beam="2">  1        3 0.20277888E-01 0.16801674E+03</pdfrwt>
<pdfrwt beam="1">  1       -3 0.33223816E-01 0.16801674E+03</pdfrwt>
<totfact> 0.46366450E+02</totfact>
</mgrwt>
</event>
<event>
 7    1  0.1446636E-005  0.1979639E+03  0.7546771E-02  0.1155920E+00
         -4   -1    0    0    0  501 -0.00000000000E+00  0.00000000000E+00  0.34737364295E+03  0.34737364295E+03  0.00000000000E+00 0.  1.
          4   -1    0    0  501    0  0.00000000000E+00 -0.00000000000E+00 -0.12961090523E+03  0.12961090523E+03  0.00000000000E+00 0. -1.
         23    2    1    2    0    0 -0.13116390187E+03 -0.79758229782E+02 -0.58112807508E+01  0.17836262205E+03  0.90631725064E+02 0.  0.
          5    1    1    2  502    0  0.12172166266E+03  0.95985313641E+02  0.23071376696E+03  0.27799330182E+03  0.47000000000E+01 0. -1.
         -5    1    1    2    0  502  0.94422392168E+01 -0.16227083859E+02 -0.71397484918E+01  0.20628624300E+02  0.47000000000E+01 0. -1.
        -11    1    3    3    0    0 -0.69982247078E+02 -0.68728769043E+02  0.34831367955E+02  0.10408834130E+03  0.00000000000E+00 0.  1.
         11    1    3    3    0    0 -0.61181654794E+02 -0.11029460739E+02 -0.40642648706E+02  0.74274280753E+02  0.00000000000E+00 0. -1.
<mgrwt>
<rscale>  0 0.19284476E+03</rscale>
<asrwt>0</asrwt>
<pdfrwt beam="2">  1        4 0.19940139E-01 0.19796392E+03</pdfrwt>
<pdfrwt beam="1">  1       -4 0.53442099E-01 0.19796392E+03</pdfrwt>
<totfact> 0.13613077E+02</totfact>
</mgrwt>
</event>
<event>
 7    1  0.1446636E-005  0.1288564E+03  0.7546771E-02  0.1242447E+00
          1   -1    0    0  501    0  0.00000000000E+00  0.00000000000E+00  0.11528638013E+03  0.11528638013E+03  0.00000000000E+00 0. -1.
         -1   -1    0    0    0  501 -0.00000000000E+00 -0.00000000000E+00 -0.11318493362E+03  0.11318493362E+03  0.00000000000E+00 0.  1.
         23    2    1    2    0    0 -0.41059628385E+01 -0.31000455321E+02  0.13445883777E+02  0.99116459209E+02  0.93088095558E+02 0.  0.
          5    1    1    2  502    0  0.36971850609E+02  0.23395153087E+02 -0.57241326712E+02  0.72200487596E+02  0.47000000000E+01 0.  1.
         -5    1    1    2    0  502 -0.32865887770E+02  0.76053022346E+01  0.45896889439E+02  0.57154366948E+02  0.47000000000E+01 0.  1.
        -11    1    3    3    0    0  0.21208511975E+02  0.10654983565E+02 -0.26876226244E+02  0.35856117917E+02  0.00000000000E+00 0.  1.
         11    1    3    3    0    0 -0.25314474813E+02 -0.41655438886E+02  0.40322110020E+02  0.63260341292E+02  0.00000000000E+00 0. -1.
<mgrwt>
<rscale>  0 0.12039479E+03</rscale>
<asrwt>0</asrwt>
<pdfrwt beam="1">  1        1 0.17736366E-01 0.12885644E+03</pdfrwt>
<pdfrwt beam="2">  1       -1 0.17413067E-01 0.12885644E+03</pdfrwt>
<totfact> 0.71244799E+03</totfact>
</mgrwt>
</event>
<event>
 7    1  0.1446636E-005  0.1716449E+03  0.7546771E-02  0.1181711E+00
          2   -1    0    0  501    0  0.00000000000E+00  0.00000000000E+00  0.10943983636E+03  0.10943983636E+03  0.00000000000E+00 0.  1.
         -2   -1    0    0    0  501 -0.00000000000E+00 -0.00000000000E+00 -0.29252191484E+03  0.29252191484E+03  0.00000000000E+00 0. -1.
         23    2    1    2    0    0  0.10403766918E+03 -0.54889290957E+02 -0.57237868093E+00  0.15141883773E+03  0.95344983785E+02 0.  0.
          5    1    1    2  502    0 -0.30055881476E+02 -0.22312180476E+02 -0.12176689910E+03  0.12747728082E+03  0.47000000000E+01 0.  1.
         -5    1    1    2    0  502 -0.73981787704E+02  0.77201471433E+02 -0.60742800692E+02  0.12306563265E+03  0.47000000000E+01 0.  1.
        -11    1    3    3    0    0  0.92527594108E+02 -0.36757757751E+02 -0.39378626365E+02  0.10706616945E+03  0.00000000000E+00 0. -1.
         11    1    3    3    0    0  0.11510075072E+02 -0.18131533206E+02  0.38806247684E+02  0.44352668283E+02  0.00000000000E+00 0.  1.
<mgrwt>
<rscale>  0 0.16634790E+03</rscale>
<asrwt>0</asrwt>
<pdfrwt beam="1">  1        2 0.16836898E-01 0.17164487E+03</pdfrwt>
<pdfrwt beam="2">  1       -2 0.45003371E-01 0.17164487E+03</pdfrwt>
<totfact> 0.15812625E+03</totfact>
</mgrwt>
</event>
<event>
 7    1  0.1446636E-005  0.1469635E+03  0.7546771E-02  0.1213423E+00
         -3   -1    0    0    0  501 -0.00000000000E+00  0.00000000000E+00  0.20823347998E+03  0.20823347998E+03  0.00000000000E+00 0.  1.
          3   -1    0    0  501    0  0.00000000000E+00 -0.00000000000E+00 -0.92203562430E+02  0.92203562430E+02  0.00000000000E+00 0. -1.
         23    2    1    2    0    0  0.68040109337E+02 -0.36653166666E+02  0.14145482887E+02  0.12161112754E+03  0.92823814559E+02 0.  0.
          5    1    1    2  502    0  0.29537150509E+02  0.38874741091E+02  0.38485880438E+02  0.62345342634E+02  0.47000000000E+01 0.  1.
         -5    1    1    2    0  502 -0.97577259846E+02 -0.22215744252E+01  0.63398554228E+02  0.11648057224E+03  0.47000000000E+01 0.  1.
        -11    1    3    3    0    0  0.33369665247E+02 -0.42102136014E+02  0.48589580901E+02  0.72436674329E+02  0.00000000000E+00 0.  1.
         11    1    3    3    0    0  0.34670444090E+02  0.54489693484E+01 -0.34444098013E+02  0.49174453208E+02  0.00000000000E+00 0. -1.
<mgrwt>
<rscale>  0 0.13993003E+03</rscale>
<asrwt>0</asrwt>
<pdfrwt beam="2">  1        3 0.14185164E-01 0.14696350E+03</pdfrwt>
<pdfrwt beam="1">  1       -3 0.32035920E-01 0.14696350E+03</pdfrwt>
<totfact> 0.90623333E+02</totfact>
</mgrwt>
</event>
<event>
 7    1  0.1446636E-005  0.1324959E+03  0.7546771E-02  0.1235615E+00
          2   -1    0    0  501    0  0.00000000000E+00  0.00000000000E+00  0.78020635722E+03  0.78020635722E+03  0.00000000000E+00 0. -1.
         -2   -1    0    0    0  501 -0.00000000000E+00 -0.00000000000E+00 -0.20615390624E+02  0.20615390624E+02  0.00000000000E+00 0.  1.
         23    2    1    2    0    0  0.12049663751E+02  0.42264585007E+02  0.48439263509E+03  0.49538879410E+03  0.94033732496E+02 0.  0.
          5    1    1    2  502    0 -0.90330507198E+01  0.39354449798E+02  0.42673953551E+02  0.58936618803E+02  0.47000000000E+01 0. -1.
         -5    1    1    2    0  502 -0.30166130315E+01 -0.81619034805E+02  0.23252437795E+03  0.24649633494E+03  0.47000000000E+01 0. -1.
        -11    1    3    3    0    0  0.35662665047E+02  0.62943681779E+02  0.32967172935E+03  0.33751619500E+03  0.00000000000E+00 0.  1.
         11    1    3    3    0    0 -0.23613001296E+02 -0.20679096772E+02  0.15472090574E+03  0.15787259910E+03  0.00000000000E+00 0. -1.
<mgrwt>
<rscale>  0 0.12465168E+03</rscale>
<asrwt>0</asrwt>
<pdfrwt beam="1">  1        2 0.12003172E+00 0.13249592E+03</pdfrwt>
<pdfrwt beam="2">  1       -2 0.31715992E-02 0.13249592E+03</pdfrwt>
<totfact> 0.13602004E+04</totfact>
</mgrwt>
</event>
<event>
 7    1  0.1446636E-005  0.1273179E+03  0.7546771E-02  0.1245890E+00
          3   -1    0    0  501    0  0.00000000000E+00  0.00000000000E+00  0.18206156857E+03  0.18206156857E+03  0.00000000000E+00 0. -1.
         -3   -1    0    0    0  501 -0.00000000000E+00 -0.00000000000E+00 -0.74935947756E+02  0.74935947756E+02  0.00000000000E+00 0.  1.
         23    2    1    2    0    0  0.99194473399E+01  0.22047393122E+02  0.85631529891E+02  0.12787804027E+03  0.91845257322E+02 0.  0.
          5    1    1    2  502    0 -0.11359912050E+02 -0.62688435344E+01 -0.51994942029E+02  0.53795074102E+02  0.47000000000E+01 0.  1.
         -5    1    1    2    0  502  0.14404647099E+01 -0.15778549588E+02  0.73489032953E+02  0.75324401956E+02  0.47000000000E+01 0.  1.
        -11    1    3    3    0    0  0.47035407392E+02 -0.71333822313E+01  0.46989396060E+02  0.66867167076E+02  0.00000000000E+00 0. -1.
         11    1    3    3    0    0 -0.37115960052E+02  0.29180775354E+02  0.38642133831E+02  0.61010873194E+02  0.00000000000E+00 0.  1.
<mgrwt>
<rscale>  0 0.11832270E+03</rscale>
<asrwt>0</asrwt>
<pdfrwt beam="1">  1        3 0.28009472E-01 0.12731788E+03</pdfrwt>
<pdfrwt beam="2">  1       -3 0.11528607E-01 0.12731788E+03</pdfrwt>
<totfact> 0.16105568E+03</totfact>
</mgrwt>
</event>
<event>
 7    1  0.1446636E-005  0.1469409E+03  0.7546771E-02  0.1213692E+00
         -1   -1    0    0    0  501 -0.00000000000E+00  0.00000000000E+00  0.75943414754E+02  0.75943414754E+02  0.00000000000E+00 0.  1.
          1   -1    0    0  501    0  0.00000000000E+00 -0.00000000000E+00 -0.47259417468E+03  0.47259417468E+03  0.00000000000E+00 0. -1.
         23    2    1    2    0    0 -0.26233558262E+02  0.72652680099E+02 -0.38248698732E+03  0.40091563150E+03  0.92034974883E+02 0.  0.
          5    1    1    2  502    0  0.11983607980E+02 -0.65485380054E+02  0.48685909562E+02  0.82609622023E+02  0.47000000000E+01 0. -1.
         -5    1    1    2    0  502  0.14249950282E+02 -0.71673000455E+01 -0.62849682161E+02  0.65012335912E+02  0.47000000000E+01 0. -1.
        -11    1    3    3    0    0  0.66251616474E+01  0.84783713564E+02 -0.26391656900E+03  0.27727986989E+03  0.00000000000E+00 0.  1.
         11    1    3    3    0    0 -0.32858719909E+02 -0.12131033465E+02 -0.11857041833E+03  0.12363576161E+03  0.00000000000E+00 0. -1.
<mgrwt>
<rscale>  0 0.13973070E+03</rscale>
<asrwt>0</asrwt>
<pdfrwt beam="2">  1        1 0.72706795E-01 0.14694091E+03</pdfrwt>
<pdfrwt beam="1">  1       -1 0.11683602E-01 0.14694091E+03</pdfrwt>
<totfact> 0.22830592E+03</totfact>
</mgrwt>
</event>
<event>
 7    1  0.1446636E-005  0.2214555E+03  0.7546771E-02  0.1136180E+00
          4   -1    0    0  501    0  0.00000000000E+00  0.00000000000E+00  0.33200265764E+03  0.33200265764E+03  0.00000000000E+00 0.  1.
         -4   -1    0    0    0  501 -0.00000000000E+00 -0.00000000000E+00 -0.13639686226E+03  0.13639686226E+03  0.00000000000E+00 0. -1.
         23    2    1    2    0    0 -0.12279361806E+02  0.18238970333E+03  0.10063944025E+03  0.22744070776E+03  0.90466524217E+02 0.  0.
          5    1    1    2  502    0  0.67432378090E+02 -0.11938826122E+03  0.51911215578E+02  0.14668860499E+03  0.47000000000E+01 0.  1.
         -5    1    1    2    0  502 -0.55153016284E+02 -0.63001442117E+02  0.43055139552E+02  0.94270207148E+02  0.47000000000E+01 0.  1.
        -11    1    3    3    0    0 -0.49139187427E+02  0.80103451170E+02  0.59308982913E+02  0.11112505606E+03  0.00000000000E+00 0.  1.
         11    1    3    3    0    0  0.36859825621E+02  0.10228625216E+03  0.41330457334E+02  0.11631565170E+03  0.00000000000E+00 0. -1.
<mgrwt>
<rscale>  0 0.21694658E+03</rscale>
<asrwt>0</asrwt>
<pdfrwt beam="1">  1        4 0.51077332E-01 0.22145550E+03</pdfrwt>
<pdfrwt beam="2">  1       -4 0.20984133E-01 0.22145550E+03</pdfrwt>
<totfact> 0.13836670E+02</totfact>
</mgrwt>
</event>
<event>
 7    1  0.1446636E-005  0.1336180E+03  0.7546771E-02  0.1228125E+00
          3   -1    0    0  501    0  0.00000000000E+00  0.00000000000E+00  0.16657979620E+03  0.16657979620E+03  0.00000000000E+00 0. -1.
         -3   -1    0    0    0  501 -0.00000000000E+00 -0.00000000000E+00 -0.96043969803E+02  0.96043969803E+02  0.00000000000E+00 0.  1.
         23    2    1    2    0    0 -0.67942956766E+02  0.30815800479E+02  0.19933773794E+02  0.11974498193E+03  0.91518557822E+02 0.  0.
          5    1    1    2  502    0  0.18262513010E+02 -0.60184580216E+02  0.56500046204E+02  0.84676137714E+02  0.47000000000E+01 0. -1.
         -5    1    1    2    0  502  0.49680443756E+02  0.29368779737E+02 -0.58979935998E+01  0.58202646362E+02  0.47000000000E+01 0.  1.
        -11    1    3    3    0    0 -0.19952351078E+02  0.55725464115E+02  0.27287602072E+02  0.65176965956E+02  0.00000000000E+00 0.  1.
         11    1    3    3    0    0 -0.47990605688E+02 -0.24909663636E+02 -0.73538282777E+01  0.54568015972E+02  0.00000000000E+00 0. -1.
<mgrwt>
<rscale>  0 0.12955003E+03</rscale>
<asrwt>0</asrwt>
<pdfrwt beam="1">  1        3 0.25627661E-01 0.13361803E+03</pdfrwt>
<pdfrwt beam="2">  1       -3 0.14775995E-01 0.13361803E+03</pdfrwt>
<totfact> 0.12558329E+03</totfact>
</mgrwt>
</event>
<event>
 7    1  0.1446636E-005  0.1717002E+03  0.7546771E-02  0.1196684E+00
         -2   -1    0    0    0  501 -0.00000000000E+00  0.00000000000E+00  0.21068644566E+02  0.21068644566E+02  0.00000000000E+00 0.  1.
          2   -1    0    0  501    0  0.00000000000E+00 -0.00000000000E+00 -0.10131988862E+04  0.10131988862E+04  0.00000000000E+00 0. -1.
         23    2    1    2    0    0 -0.55199360464E+02  0.21084341718E+02 -0.53594367605E+03  0.54683841074E+03  0.91132347151E+02 0.  0.
          5    1    1    2  502    0  0.70484649479E+02 -0.72635666848E+01 -0.46042738273E+03  0.46587155953E+03  0.47000000000E+01 0. -1.
         -5    1    1    2    0  502 -0.15285289015E+02 -0.13820775033E+02  0.42408171793E+01  0.21557560464E+02  0.47000000000E+01 0.  1.
        -11    1    3    3    0    0 -0.17087220930E+02  0.54203421137E+02 -0.24152634256E+03  0.24812286902E+03  0.00000000000E+00 0. -1.
         11    1    3    3    0    0 -0.38112139533E+02 -0.33119079419E+02 -0.29441733349E+03  0.29871554172E+03  0.00000000000E+00 0.  1.
<mgrwt>
<rscale>  0 0.15312562E+03</rscale>
<asrwt>0</asrwt>
<pdfrwt beam="2">  1        2 0.15587675E+00 0.17170022E+03</pdfrwt>
<pdfrwt beam="1">  1       -2 0.32413301E-02 0.17170022E+03</pdfrwt>
<totfact> 0.95007040E+03</totfact>
</mgrwt>
</event>
<event>
 7    1  0.1446636E-005  0.1261455E+03  0.7546771E-02  0.1248514E+00
          1   -1    0    0  501    0  0.00000000000E+00  0.00000000000E+00  0.27094110425E+02  0.27094110425E+02  0.00000000000E+00 0. -1.
         -1   -1    0    0    0  501 -0.00000000000E+00 -0.00000000000E+00 -0.44477604925E+03  0.44477604925E+03  0.00000000000E+00 0.  1.
         23    2    1    2    0    0 -0.14484595832E+02 -0.91344067200E+01 -0.15756326144E+03  0.18277776262E+03  0.91040036536E+02 0.  0.
          5    1    1    2  502    0  0.19720426770E+02 -0.55934112282E+02 -0.14387336387E+03  0.15568928987E+03  0.47000000000E+01 0.  1.
         -5    1    1    2    0  502 -0.52358309381E+01  0.65068519002E+02 -0.11624531352E+03  0.13340310718E+03  0.47000000000E+01 0.  1.
        -11    1    3    3    0    0 -0.47856976633E+02 -0.99357474059E+01 -0.49047617658E+02  0.69243614051E+02  0.00000000000E+00 0. -1.
         11    1    3    3    0    0  0.33372380801E+02  0.80134068593E+00 -0.10851564378E+03  0.11353414857E+03  0.00000000000E+00 0.  1.
<mgrwt>
<rscale>  0 0.11677488E+03</rscale>
<asrwt>0</asrwt>
<pdfrwt beam="1">  1        1 0.41683249E-02 0.12614550E+03</pdfrwt>
<pdfrwt beam="2">  1       -1 0.68427081E-01 0.12614550E+03</pdfrwt>
<totfact> 0.45807195E+03</totfact>
</mgrwt>
</event>
<event>
 7    1  0.1446636E-005  0.1470283E+03  0.7546771E-02  0.1214057E+00
          1   -1    0    0  501    0  0.00000000000E+00  0.00000000000E+00  0.67934333994E+02  0.67934333994E+02  0.00000000000E+00 0. -1.
         -1   -1    0    0    0  501 -0.00000000000E+00 -0.00000000000E+00 -0.30679493000E+03  0.30679493000E+03  0.00000000000E+00 0.  1.
         23    2    1    2    0    0  0.74804311712E+02 -0.19904216507E+02 -0.36287874640E+02  0.12442337350E+03  0.90401897886E+02 0.  0.
          5    1    1    2  502    0 -0.85926737264E+01  0.23133267980E+02  0.10412313268E+02  0.27193535937E+02  0.47000000000E+01 0. -1.
         -5    1    1    2    0  502 -0.66211637985E+02 -0.32290514725E+01 -0.21298503464E+03  0.22311235456E+03  0.47000000000E+01 0. -1.
        -11    1    3    3    0    0  0.30969611176E+02  0.34625011936E+02 -0.19696356104E+01  0.46496104486E+02  0.00000000000E+00 0. -1.
         11    1    3    3    0    0  0.43834700536E+02 -0.54529228443E+02 -0.34318239029E+02  0.77927269013E+02  0.00000000000E+00 0.  1.
<mgrwt>
<rscale>  0 0.13946024E+03</rscale>
<asrwt>0</asrwt>
<pdfrwt beam="1">  1        1 0.10451436E-01 0.14702834E+03</pdfrwt>
<pdfrwt beam="2">  1       -1 0.47199221E-01 0.14702834E+03</pdfrwt>
<totfact> 0.26811603E+03</totfact>
</mgrwt>
</event>
<event>
 7    1  0.1446636E-005  0.1373032E+03  0.7546771E-02  0.1237067E+00
          2   -1    0    0  501    0  0.00000000000E+00  0.00000000000E+00  0.38290516902E+03  0.38290516902E+03  0.00000000000E+00 0. -1.
         -2   -1    0    0    0  501 -0.00000000000E+00 -0.00000000000E+00 -0.37539871317E+02  0.37539871317E+02  0.00000000000E+00 0.  1.
         23    2    1    2    0    0 -0.12024621377E+02  0.55525277831E+02  0.20492921625E+03  0.22404118272E+03  0.70504041616E+02 0.  0.
          5    1    1    2  502    0 -0.18052087030E+02  0.22193785803E+01 -0.17397494530E+02  0.25604029045E+02  0.47000000000E+01 0.  1.
         -5    1    1    2    0  502  0.30076708407E+02 -0.57744656411E+02  0.15783357598E+03  0.17079982857E+03  0.47000000000E+01 0.  1.
        -11    1    3    3    0    0  0.13968748901E+02  0.38894628732E+02  0.44738155077E+02  0.60905013010E+02  0.00000000000E+00 0.  1.
         11    1    3    3    0    0 -0.25993370278E+02  0.16630649099E+02  0.16019106117E+03  0.16313616971E+03  0.00000000000E+00 0. -1.
<mgrwt>
<rscale>  0 0.12373062E+03</rscale>
<asrwt>0</asrwt>
<pdfrwt beam="1">  1        2 0.58908485E-01 0.13730325E+03</pdfrwt>
<pdfrwt beam="2">  1       -2 0.57753651E-02 0.13730325E+03</pdfrwt>
<totfact> 0.12436526E+04</totfact>
</mgrwt>
</event>
<event>
 7    1  0.1446636E-005  0.1242206E+03  0.7546771E-02  0.1246004E+00
         -1   -1    0    0    0  501 -0.00000000000E+00  0.00000000000E+00  0.13413699181E+03  0.13413699181E+03  0.00000000000E+00 0.  1.
          1   -1    0    0  501    0  0.00000000000E+00 -0.00000000000E+00 -0.41678005637E+03  0.41678005637E+03  0.00000000000E+00 0. -1.
         23    2    1    2    0    0 -0.23571200555E+02  0.32258315323E+02 -0.37976832524E+03  0.39323360461E+03  0.93874845038E+02 0.  0.
          5    1    1    2  502    0 -0.43728962334E+02 -0.32588445411E+02  0.29592491658E+02  0.62225673830E+02  0.47000000000E+01 0. -1.
         -5    1    1    2    0  502  0.67300162888E+02  0.33013008806E+00  0.67532769029E+02  0.95457769738E+02  0.47000000000E+01 0.  1.
        -11    1    3    3    0    0  0.35614057945E+02  0.23865249814E+01 -0.13768625348E+03  0.14223769199E+03  0.00000000000E+00 0.  1.
         11    1    3    3    0    0 -0.59185258500E+02  0.29871790342E+02 -0.24208207176E+03  0.25099591262E+03  0.00000000000E+00 0. -1.
<mgrwt>
<rscale>  0 0.11825504E+03</rscale>
<asrwt>0</asrwt>
<pdfrwt beam="2">  1        1 0.64120008E-01 0.12422058E+03</pdfrwt>
<pdfrwt beam="1">  1       -1 0.20636461E-01 0.12422058E+03</pdfrwt>
<totfact> 0.10916139E+03</totfact>
</mgrwt>
</event>
<event>
 7    1  0.1446636E-005  0.1283233E+03  0.7546771E-02  0.1243749E+00
         -2   -1    0    0    0  501 -0.00000000000E+00  0.00000000000E+00  0.35562387240E+03  0.35562387240E+03  0.00000000000E+00 0.  1.
          2   -1    0    0  501    0  0.00000000000E+00 -0.00000000000E+00 -0.38724741571E+02  0.38724741571E+02  0.00000000000E+00 0. -1.
         23    2    1    2    0    0 -0.27965364823E+02  0.77796765153E+01  0.82941173917E+02  0.12750934131E+03  0.92394852634E+02 0.  0.
          5    1    1    2  502    0 -0.20431710959E+02 -0.50919080220E+02  0.15544022230E+03  0.16490591334E+03  0.47000000000E+01 0.  1.
         -5    1    1    2    0  502  0.48397075782E+02  0.43139403705E+02  0.78517734608E+02  0.10193335933E+03  0.47000000000E+01 0.  1.
        -11    1    3    3    0    0  0.22967332630E+02  0.28300875031E+02  0.54781368742E+02  0.65798451782E+02  0.00000000000E+00 0.  1.
         11    1    3    3    0    0 -0.50932697453E+02 -0.20521198516E+02  0.28159805175E+02  0.61710889524E+02  0.00000000000E+00 0. -1.
<mgrwt>
<rscale>  0 0.11960546E+03</rscale>
<asrwt>0</asrwt>
<pdfrwt beam="2">  1        2 0.59576528E-02 0.12832331E+03</pdfrwt>
<pdfrwt beam="1">  1       -2 0.54711363E-01 0.12832331E+03</pdfrwt>
<totfact> 0.37877218E+03</totfact>
</mgrwt>
</event>
<event>
 7    1  0.1446636E-005  0.1472724E+03  0.7546771E-02  0.1212891E+00
         -3   -1    0    0    0  501 -0.00000000000E+00  0.00000000000E+00  0.12057465504E+03  0.12057465504E+03  0.00000000000E+00 0.  1.
          3   -1    0    0  501    0  0.00000000000E+00 -0.00000000000E+00 -0.30964844648E+03  0.30964844648E+03  0.00000000000E+00 0. -1.
         23    2    1    2    0    0 -0.18880867591E+02 -0.75649317457E+02 -0.24441134771E+03  0.27289735516E+03  0.93041674378E+02 0.  0.
          5    1    1    2  502    0  0.62609804010E+02  0.22110120961E+02 -0.31690980329E+01  0.66640664683E+02  0.47000000000E+01 0. -1.
         -5    1    1    2    0  502 -0.43728936419E+02  0.53539196495E+02  0.58506654295E+02  0.90685081676E+02  0.47000000000E+01 0.  1.
        -11    1    3    3    0    0 -0.37304583672E+02  0.41276107879E+01 -0.55427157345E+02  0.66939068600E+02  0.00000000000E+00 0.  1.
         11    1    3    3    0    0  0.18423716081E+02 -0.79776928245E+02 -0.18898419037E+03  0.20595828656E+03  0.00000000000E+00 0. -1.
<mgrwt>
<rscale>  0 0.14032614E+03</rscale>
<asrwt>0</asrwt>
<pdfrwt beam="2">  1        3 0.47638222E-01 0.14727235E+03</pdfrwt>
<pdfrwt beam="1">  1       -3 0.18549947E-01 0.14727235E+03</pdfrwt>
<totfact> 0.26601103E+02</totfact>
</mgrwt>
</event>
<event>
 7    1  0.1446636E-005  0.1524437E+03  0.7546771E-02  0.1205723E+00
         -1   -1    0    0    0  501 -0.00000000000E+00  0.00000000000E+00  0.26195923283E+02  0.26195923283E+02  0.00000000000E+00 0.  1.
          1   -1    0    0  501    0  0.00000000000E+00 -0.00000000000E+00 -0.75270533293E+03  0.75270533293E+03  0.00000000000E+00 0. -1.
         23    2    1    2    0    0  0.11515624850E+02  0.86502850732E+02 -0.36076541660E+03  0.38265921284E+03  0.93064679421E+02 0.  0.
          5    1    1    2  502    0 -0.26214841634E+02  0.25475382851E+02 -0.61745823191E+02  0.71908620727E+02  0.47000000000E+01 0. -1.
         -5    1    1    2    0  502  0.14699216784E+02 -0.11197823358E+03 -0.30399816986E+03  0.32433342265E+03  0.47000000000E+01 0. -1.
        -11    1    3    3    0    0  0.33542884964E+02  0.23637845594E+02 -0.49266473910E+02  0.64117535258E+02  0.00000000000E+00 0. -1.
         11    1    3    3    0    0 -0.22027260114E+02  0.62865005138E+02 -0.31149894269E+03  0.31854167758E+03  0.00000000000E+00 0.  1.
<mgrwt>
<rscale>  0 0.14580651E+03</rscale>
<asrwt>0</asrwt>
<pdfrwt beam="2">  1        1 0.11580082E+00 0.15244372E+03</pdfrwt>
<pdfrwt beam="1">  1       -1 0.40301419E-02 0.15244372E+03</pdfrwt>
<totfact> 0.59873222E+03</totfact>
</mgrwt>
</event>
<event>
 7    1  0.1446636E-005  0.1613606E+03  0.7546771E-02  0.1204497E+00
          1   -1    0    0  501    0  0.00000000000E+00  0.00000000000E+00  0.20726944596E+03  0.20726944596E+03  0.00000000000E+00 0. -1.
         -1   -1    0    0    0  501 -0.00000000000E+00 -0.00000000000E+00 -0.10163197625E+03  0.10163197625E+03  0.00000000000E+00 0.  1.
         23    2    1    2    0    0  0.73487325390E+01 -0.59536615942E+02  0.97509007769E+02  0.14733619597E+03  0.92743385418E+02 0.  0.
          5    1    1    2  502    0 -0.69291436422E+02  0.38089014122E+02  0.39761656153E+02  0.88629314892E+02  0.47000000000E+01 0. -1.
         -5    1    1    2    0  502  0.61942703883E+02  0.21447601820E+02 -0.31633194215E+02  0.72935911350E+02  0.47000000000E+01 0.  1.
        -11    1    3    3    0    0 -0.18007633650E+02  0.19971238080E+02  0.21000161731E+02  0.34119378846E+02  0.00000000000E+00 0. -1.
         11    1    3    3    0    0  0.25356366189E+02 -0.79507854021E+02  0.76508846038E+02  0.11321681712E+03  0.00000000000E+00 0.  1.
<mgrwt>
<rscale>  0 0.14677190E+03</rscale>
<asrwt>0</asrwt>
<pdfrwt beam="1">  1        1 0.31887607E-01 0.16136062E+03</pdfrwt>
<pdfrwt beam="2">  1       -1 0.15635689E-01 0.16136062E+03</pdfrwt>
<totfact> 0.40871307E+03</totfact>
</mgrwt>
</event>
<event>
 7    1  0.1446636E-005  0.2680527E+03  0.7546771E-02  0.1129537E+00
          2   -1    0    0  501    0  0.00000000000E+00  0.00000000000E+00  0.52149784970E+03  0.52149784970E+03  0.00000000000E+00 0. -1.
         -2   -1    0    0    0  501 -0.00000000000E+00 -0.00000000000E+00 -0.48269202818E+03  0.48269202818E+03  0.00000000000E+00 0.  1.
         23    2    1    2    0    0  0.91729581568E+02 -0.21143211922E+02  0.47407716841E+03  0.49300163763E+03  0.97160184998E+02 0.  0.
          5    1    1    2  502    0 -0.60406111920E+02  0.35084780234E+02  0.44048531258E+01  0.70152212314E+02  0.47000000000E+01 0. -1.
         -5    1    1    2    0  502 -0.31323469648E+02 -0.13941568312E+02 -0.43967620002E+03  0.44103602794E+03  0.47000000000E+01 0.  1.
        -11    1    3    3    0    0 -0.60897803253E+01 -0.31554760735E+02  0.68484684856E+02  0.75650118369E+02  0.00000000000E+00 0.  1.
         11    1    3    3    0    0  0.97819361894E+02  0.10411548814E+02  0.40559248356E+03  0.41735151926E+03  0.00000000000E+00 0. -1.
<mgrwt>
<rscale>  0 0.22593103E+03</rscale>
<asrwt>0</asrwt>
<pdfrwt beam="1">  1        2 0.80230439E-01 0.26805274E+03</pdfrwt>
<pdfrwt beam="2">  1       -2 0.74260312E-01 0.26805274E+03</pdfrwt>
<totfact> 0.10074706E+02</totfact>
</mgrwt>
</event>
<event>
 7    1  0.1446636E-005  0.2317121E+03  0.7546771E-02  0.1125440E+00
         -1   -1    0    0    0  501 -0.00000000000E+00  0.00000000000E+00  0.28832161480E+03  0.28832161480E+03  0.00000000000E+00 0.  1.
          1   -1    0    0  501    0  0.00000000000E+00 -0.00000000000E+00 -0.46554339533E+02  0.46554339533E+02  0.00000000000E+00 0. -1.
         23    2    1    2    0    0  0.56338964928E+00 -0.39621910206E+02  0.80943977904E+02  0.12736886734E+03  0.90003820100E+02 0.  0.
          5    1    1    2  502    0  0.40122921945E+02  0.64534387461E+02  0.12956221111E+03  0.15027638730E+03  0.47000000000E+01 0.  1.
         -5    1    1    2    0  502 -0.40686311594E+02 -0.24912477254E+02  0.31261086247E+02  0.57230699694E+02  0.47000000000E+01 0.  1.
        -11    1    3    3    0    0  0.91289333551E+01 -0.27750023471E+02  0.99519239647E+02  0.10371827364E+03  0.00000000000E+00 0.  1.
         11    1    3    3    0    0 -0.85655437059E+01 -0.11871886735E+02 -0.18575261743E+02  0.23650593702E+02  0.00000000000E+00 0. -1.
<mgrwt>
<rscale>  0 0.23171208E+03</rscale>
<asrwt>0</asrwt>
<pdfrwt beam="2">  1        1 0.71622063E-02 0.23171208E+03</pdfrwt>
<pdfrwt beam="1">  1       -1 0.44357170E-01 0.23171208E+03</pdfrwt>
<totfact> 0.51102997E+03</totfact>
</mgrwt>
</event>
<event>
 7    1  0.1446636E-005  0.1137172E+03  0.7546771E-02  0.1263376E+00
         -3   -1    0    0    0  501 -0.00000000000E+00  0.00000000000E+00  0.78190442216E+03  0.78190442216E+03  0.00000000000E+00 0.  1.
          3   -1    0    0  501    0  0.00000000000E+00 -0.00000000000E+00 -0.14768930603E+03  0.14768930603E+03  0.00000000000E+00 0. -1.
         23    2    1    2    0    0 -0.10664213278E+02  0.17334396504E+02 -0.12799687204E+03  0.15894548938E+03  0.92012295896E+02 0.  0.
          5    1    1    2  502    0 -0.31940688422E+02 -0.75686549186E+01  0.74665555920E+02  0.81697780600E+02  0.47000000000E+01 0. -1.
         -5    1    1    2    0  502  0.42604901700E+02 -0.97657415859E+01  0.68754643226E+03  0.68895045821E+03  0.47000000000E+01 0.  1.
        -11    1    3    3    0    0 -0.34452535515E+02 -0.25858327485E+02 -0.75479910181E+02  0.86907117917E+02  0.00000000000E+00 0.  1.
         11    1    3    3    0    0  0.23788322237E+02  0.43192723990E+02 -0.52516961857E+02  0.72038371464E+02  0.00000000000E+00 0. -1.
<mgrwt>
<rscale>  0 0.10849857E+03</rscale>
<asrwt>0</asrwt>
<pdfrwt beam="2">  1        3 0.22721432E-01 0.11371716E+03</pdfrwt>
<pdfrwt beam="1">  1       -3 0.12029299E+00 0.11371716E+03</pdfrwt>
<totfact> 0.24637426E+01</totfact>
</mgrwt>
</event>
<event>
 7    1  0.1446636E-005  0.1408694E+03  0.7546771E-02  0.1223685E+00
          2   -1    0    0  501    0  0.00000000000E+00  0.00000000000E+00  0.42821335754E+02  0.42821335754E+02  0.00000000000E+00 0. -1.
         -2   -1    0    0    0  501 -0.00000000000E+00 -0.00000000000E+00 -0.37678666648E+03  0.37678666648E+03  0.00000000000E+00 0.  1.
         23    2    1    2    0    0 -0.30137991328E+02  0.57543313179E+02 -0.17733595625E+03  0.20894961656E+03  0.89400052947E+02 0.  0.
          5    1    1    2  502    0 -0.96877800899E+01  0.31925734849E+02 -0.11672541726E+02  0.35657311439E+02  0.47000000000E+01 0. -1.
         -5    1    1    2    0  502  0.39825771418E+02 -0.89469048027E+02 -0.14495683275E+03  0.17500107424E+03  0.47000000000E+01 0. -1.
        -11    1    3    3    0    0  0.30576658066E+02  0.33070375589E+02 -0.73379732553E+02  0.86099749765E+02  0.00000000000E+00 0.  1.
         11    1    3    3    0    0 -0.60714649393E+02  0.24472937590E+02 -0.10395622370E+03  0.12284986679E+03  0.00000000000E+00 0. -1.
<mgrwt>
<rscale>  0 0.13257464E+03</rscale>
<asrwt>0</asrwt>
<pdfrwt beam="1">  1        2 0.65878980E-02 0.14086942E+03</pdfrwt>
<pdfrwt beam="2">  1       -2 0.57967178E-01 0.14086942E+03</pdfrwt>
<totfact> 0.29801118E+03</totfact>
</mgrwt>
</event>
<event>
 7    1  0.1446636E-005  0.2348495E+03  0.7546771E-02  0.1126392E+00
          2   -1    0    0  501    0  0.00000000000E+00  0.00000000000E+00  0.66636732028E+03  0.66636732028E+03  0.00000000000E+00 0. -1.
         -2   -1    0    0    0  501 -0.00000000000E+00 -0.00000000000E+00 -0.81175119064E+02  0.81175119064E+02  0.00000000000E+00 0.  1.
         23    2    1    2    0    0  0.18345974326E+03 -0.76617221742E+02  0.36937066087E+03  0.42858595165E+03  0.87883768541E+02 0.  0.
          5    1    1    2  502    0 -0.16866795394E+02 -0.29223551820E+02  0.14624502134E+02  0.37073856429E+02  0.47000000000E+01 0. -1.
         -5    1    1    2    0  502 -0.16659294786E+03  0.10584077356E+03  0.20119703821E+03  0.28188263127E+03  0.47000000000E+01 0. -1.
        -11    1    3    3    0    0  0.10326093752E+02  0.15103575948E+02  0.15003375869E+02  0.23661096890E+02  0.00000000000E+00 0.  1.
         11    1    3    3    0    0  0.17313364951E+03 -0.91720797689E+02  0.35436728500E+03  0.40492485476E+03  0.00000000000E+00 0. -1.
<mgrwt>
<rscale>  0 0.23035303E+03</rscale>
<asrwt>0</asrwt>
<pdfrwt beam="1">  1        2 0.10251805E+00 0.23484953E+03</pdfrwt>
<pdfrwt beam="2">  1       -2 0.12488480E-01 0.23484953E+03</pdfrwt>
<totfact> 0.20553820E+03</totfact>
</mgrwt>
</event>
<event>
 7    1  0.1446636E-005  0.1503881E+03  0.7546771E-02  0.1208643E+00
         -1   -1    0    0    0  501 -0.00000000000E+00  0.00000000000E+00  0.32987269885E+02  0.32987269885E+02  0.00000000000E+00 0.  1.
          1   -1    0    0  501    0  0.00000000000E+00 -0.00000000000E+00 -0.64927332022E+03  0.64927332022E+03  0.00000000000E+00 0. -1.
         23    2    1    2    0    0  0.70008812184E+02  0.45725800136E+02 -0.39855773735E+03  0.41764352193E+03  0.92659369884E+02 0.  0.
          5    1    1    2  502    0 -0.40816808737E+02 -0.88964475773E+02 -0.14350949144E+03  0.17377500959E+03  0.47000000000E+01 0.  1.
         -5    1    1    2    0  502 -0.29192003447E+02  0.43238675637E+02 -0.74218821536E+02  0.90842058575E+02  0.47000000000E+01 0.  1.
        -11    1    3    3    0    0 -0.11866674424E+00  0.53877151064E+02 -0.15751464957E+03  0.16647410104E+03  0.00000000000E+00 0.  1.
         11    1    3    3    0    0  0.70127478928E+02 -0.81513509282E+01 -0.24104308779E+03  0.25116942090E+03  0.00000000000E+00 0. -1.
<mgrwt>
<rscale>  0 0.14354017E+03</rscale>
<asrwt>0</asrwt>
<pdfrwt beam="2">  1        1 0.99888201E-01 0.15038808E+03</pdfrwt>
<pdfrwt beam="1">  1       -1 0.50749647E-02 0.15038808E+03</pdfrwt>
<totfact> 0.52612792E+03</totfact>
</mgrwt>
</event>
<event>
 7    1  0.1446636E-005  0.2342888E+03  0.7546771E-02  0.1127134E+00
         -1   -1    0    0    0  501 -0.00000000000E+00  0.00000000000E+00  0.27245816662E+03  0.27245816662E+03  0.00000000000E+00 0.  1.
          1   -1    0    0  501    0  0.00000000000E+00 -0.00000000000E+00 -0.19439183715E+03  0.19439183715E+03  0.00000000000E+00 0. -1.
         23    2    1    2    0    0  0.19116944146E+03  0.52147367581E+02 -0.13312803320E+02  0.21537155735E+03  0.83322108060E+02 0.  0.
          5    1    1    2  502    0 -0.38649239316E+02  0.16709368754E+02 -0.23495275660E+02  0.48446720035E+02  0.47000000000E+01 0. -1.
         -5    1    1    2    0  502 -0.15252020214E+03 -0.68856736335E+02  0.11487440845E+03  0.20303172638E+03  0.47000000000E+01 0. -1.
        -11    1    3    3    0    0  0.73843082574E+02  0.27718751600E+02  0.34828048402E+02  0.86221360403E+02  0.00000000000E+00 0. -1.
         11    1    3    3    0    0  0.11732635888E+03  0.24428615981E+02 -0.48140851722E+02  0.12915019695E+03  0.00000000000E+00 0.  1.
<mgrwt>
<rscale>  0 0.22929943E+03</rscale>
<asrwt>0</asrwt>
<pdfrwt beam="2">  1        1 0.29906437E-01 0.23428885E+03</pdfrwt>
<pdfrwt beam="1">  1       -1 0.41916641E-01 0.23428885E+03</pdfrwt>
<totfact> 0.86353962E+02</totfact>
</mgrwt>
</event>
<event>
 7    1  0.1446636E-005  0.1596885E+03  0.7546771E-02  0.1196814E+00
          1   -1    0    0  501    0  0.00000000000E+00  0.00000000000E+00  0.29683372072E+03  0.29683372072E+03  0.00000000000E+00 0. -1.
         -1   -1    0    0    0  501 -0.00000000000E+00 -0.00000000000E+00 -0.73102264403E+02  0.73102264403E+02  0.00000000000E+00 0.  1.
         23    2    1    2    0    0 -0.99335872433E+02  0.28470879922E+01  0.11060052798E+03  0.17423463776E+03  0.90826817326E+02 0.  0.
          5    1    1    2  502    0  0.45731273954E+02 -0.56818800863E+02  0.20822202454E+02  0.75995918733E+02  0.47000000000E+01 0.  1.
         -5    1    1    2    0  502  0.53604598479E+02  0.53971712871E+02  0.92308725889E+02  0.11970542863E+03  0.47000000000E+01 0.  1.
        -11    1    3    3    0    0 -0.65030995353E+02 -0.30049978368E+02  0.24184653513E+02  0.75610376418E+02  0.00000000000E+00 0.  1.
         11    1    3    3    0    0 -0.34304877080E+02  0.32897066360E+02  0.86415874465E+02  0.98624261346E+02  0.00000000000E+00 0. -1.
<mgrwt>
<rscale>  0 0.15301734E+03</rscale>
<asrwt>0</asrwt>
<pdfrwt beam="1">  1        1 0.45666726E-01 0.15968848E+03</pdfrwt>
<pdfrwt beam="2">  1       -1 0.11246502E-01 0.15968848E+03</pdfrwt>
<totfact> 0.43697168E+03</totfact>
</mgrwt>
</event>
<event>
 7    1  0.1446636E-005  0.1371570E+03  0.7546771E-02  0.1228708E+00
          1   -1    0    0  501    0  0.00000000000E+00  0.00000000000E+00  0.10217323013E+04  0.10217323013E+04  0.00000000000E+00 0. -1.
         -1   -1    0    0    0  501 -0.00000000000E+00 -0.00000000000E+00 -0.14928607767E+02  0.14928607767E+02  0.00000000000E+00 0.  1.
         23    2    1    2    0    0 -0.43629812347E+02  0.35864289705E+02  0.37893816958E+03  0.39398900987E+03  0.91887952041E+02 0.  0.
          5    1    1    2  502    0  0.56226586796E+02  0.35674797960E+01  0.56132841301E+03  0.56416826677E+03  0.47000000000E+01 0.  1.
         -5    1    1    2    0  502 -0.12596774449E+02 -0.39431769501E+02  0.66537110949E+02  0.78503632438E+02  0.47000000000E+01 0.  1.
        -11    1    3    3    0    0  0.27215089091E+02  0.13476228522E+02  0.15801671506E+03  0.16090852074E+03  0.00000000000E+00 0. -1.
         11    1    3    3    0    0 -0.70844901438E+02  0.22388061183E+02  0.22092145452E+03  0.23308048913E+03  0.00000000000E+00 0.  1.
<mgrwt>
<rscale>  0 0.12915939E+03</rscale>
<asrwt>0</asrwt>
<pdfrwt beam="1">  1        1 0.15718953E+00 0.13715704E+03</pdfrwt>
<pdfrwt beam="2">  1       -1 0.22967097E-02 0.13715704E+03</pdfrwt>
<totfact> 0.83469699E+03</totfact>
</mgrwt>
</event>
<event>
 7    1  0.1446636E-005  0.1347140E+03  0.7546771E-02  0.1227100E+00
          2   -1    0    0  501    0  0.00000000000E+00  0.00000000000E+00  0.21503591580E+03  0.21503591580E+03  0.00000000000E+00 0. -1.
         -2   -1    0    0    0  501 -0.00000000000E+00 -0.00000000000E+00 -0.74203145345E+02  0.74203145345E+02  0.00000000000E+00 0.  1.
         23    2    1    2    0    0 -0.45327866350E+02 -0.21651047848E+02  0.71866986427E+02  0.13789792246E+03  0.10643115118E+03 0.  0.
          5    1    1    2  502    0  0.41546420342E+02  0.72367927633E+02  0.40581365599E+02  0.92909414092E+02  0.47000000000E+01 0. -1.
         -5    1    1    2    0  502  0.37814460079E+01 -0.50716879784E+02  0.28384418427E+02  0.58431724589E+02  0.47000000000E+01 0. -1.
        -11    1    3    3    0    0  0.74193418418E+01  0.28957551117E+02 -0.66468112958E+01  0.30622973410E+02  0.00000000000E+00 0.  1.
         11    1    3    3    0    0 -0.52747208192E+02 -0.50608598965E+02  0.78513797723E+02  0.10727494905E+03  0.00000000000E+00 0. -1.
<mgrwt>
<rscale>  0 0.13024006E+03</rscale>
<asrwt>0</asrwt>
<pdfrwt beam="1">  1        2 0.33082448E-01 0.13471400E+03</pdfrwt>
<pdfrwt beam="2">  1       -2 0.11415869E-01 0.13471400E+03</pdfrwt>
<totfact> 0.79913218E+03</totfact>
</mgrwt>
</event>
<event>
 7    1  0.1446636E-005  0.1277629E+03  0.7546771E-02  0.1245595E+00
          1   -1    0    0  501    0  0.00000000000E+00  0.00000000000E+00  0.32300246413E+03  0.32300246413E+03  0.00000000000E+00 0. -1.
         -1   -1    0    0    0  501 -0.00000000000E+00 -0.00000000000E+00 -0.42189809601E+02  0.42189809601E+02  0.00000000000E+00 0.  1.
         23    2    1    2    0    0  0.12521936326E+02 -0.23251522957E+02  0.66160486942E+02  0.11539452418E+03  0.90781352537E+02 0.  0.
          5    1    1    2  502    0  0.57649242917E+01  0.58105163378E+02  0.40561888391E+02  0.71251674739E+02  0.47000000000E+01 0. -1.
         -5    1    1    2    0  502 -0.18286860617E+02 -0.34853640421E+02  0.17409027920E+03  0.17854607482E+03  0.47000000000E+01 0. -1.
        -11    1    3    3    0    0 -0.28253477807E+02 -0.34653611091E+02  0.56349119867E+02  0.71932990203E+02  0.00000000000E+00 0. -1.
         11    1    3    3    0    0  0.40775414132E+02  0.11402088134E+02  0.98113670757E+01  0.43461533974E+02  0.00000000000E+00 0.  1.
<mgrwt>
<rscale>  0 0.11849849E+03</rscale>
<asrwt>0</asrwt>
<pdfrwt beam="1">  1        1 0.49692685E-01 0.12776292E+03</pdfrwt>
<pdfrwt beam="2">  1       -1 0.64907402E-02 0.12776292E+03</pdfrwt>
<totfact> 0.89296666E+03</totfact>
</mgrwt>
</event>
<event>
 7    1  0.1446636E-005  0.1463417E+03  0.7546771E-02  0.1215092E+00
          2   -1    0    0  501    0  0.00000000000E+00  0.00000000000E+00  0.19028026425E+03  0.19028026425E+03  0.00000000000E+00 0. -1.
         -2   -1    0    0    0  501 -0.00000000000E+00 -0.00000000000E+00 -0.92060253725E+02  0.92060253725E+02  0.00000000000E+00 0.  1.
         23    2    1    2    0    0 -0.74787184124E+02 -0.14011226414E+02  0.37364323010E+02  0.12384978964E+03  0.90295295469E+02 0.  0.
          5    1    1    2  502    0 -0.20680761473E+02  0.35417519169E+02  0.41712056576E+02  0.58686286498E+02  0.47000000000E+01 0. -1.
         -5    1    1    2    0  502  0.95467945597E+02 -0.21406292755E+02  0.19143630941E+02  0.99804441843E+02  0.47000000000E+01 0. -1.
        -11    1    3    3    0    0 -0.38361507767E+02  0.36019452918E+02  0.32329300350E+02  0.61759128295E+02  0.00000000000E+00 0. -1.
         11    1    3    3    0    0 -0.36425676357E+02 -0.50030679331E+02  0.50350226599E+01  0.62090661340E+02  0.00000000000E+00 0.  1.
<mgrwt>
<rscale>  0 0.13869774E+03</rscale>
<asrwt>0</asrwt>
<pdfrwt beam="1">  1        2 0.29273887E-01 0.14634171E+03</pdfrwt>
<pdfrwt beam="2">  1       -2 0.14163116E-01 0.14634171E+03</pdfrwt>
<totfact> 0.64857511E+03</totfact>
</mgrwt>
</event>
<event>
 7    1  0.1446636E-005  0.1455454E+03  0.7546771E-02  0.1215914E+00
         -2   -1    0    0    0  501 -0.00000000000E+00  0.00000000000E+00  0.21188501678E+02  0.21188501678E+02  0.00000000000E+00 0.  1.
          2   -1    0    0  501    0  0.00000000000E+00 -0.00000000000E+00 -0.82373677745E+03  0.82373677745E+03  0.00000000000E+00 0. -1.
         23    2    1    2    0    0 -0.63260552077E+02  0.39454308159E+02 -0.32846521684E+03  0.34900371688E+03  0.91409276529E+02 0.  0.
          5    1    1    2  502    0  0.38841211149E+02 -0.12916299124E+02 -0.31542713364E+02  0.51889336409E+02  0.47000000000E+01 0.  1.
         -5    1    1    2    0  502  0.24419340928E+02 -0.26538009036E+02 -0.44254034557E+03  0.44403222585E+03  0.47000000000E+01 0.  1.
        -11    1    3    3    0    0 -0.71756181766E+02  0.53274301646E+02 -0.31641860761E+03  0.32879756094E+03  0.00000000000E+00 0. -1.
         11    1    3    3    0    0  0.84956296892E+01 -0.13819993487E+02 -0.12046609239E+02  0.20206155942E+02  0.00000000000E+00 0.  1.
<mgrwt>
<rscale>  0 0.13809597E+03</rscale>
<asrwt>0</asrwt>
<pdfrwt beam="2">  1        2 0.12672876E+00 0.14554535E+03</pdfrwt>
<pdfrwt beam="1">  1       -2 0.32597689E-02 0.14554535E+03</pdfrwt>
<totfact> 0.12284363E+04</totfact>
</mgrwt>
</event>
<event>
 7    1  0.1446636E-005  0.1264115E+03  0.7546771E-02  0.1248715E+00
         -2   -1    0    0    0  501 -0.00000000000E+00  0.00000000000E+00  0.31940306325E+03  0.31940306325E+03  0.00000000000E+00 0.  1.
          2   -1    0    0  501    0  0.00000000000E+00 -0.00000000000E+00 -0.38010670901E+02  0.38010670901E+02  0.00000000000E+00 0. -1.
         23    2    1    2    0    0  0.16498203964E+02 -0.88717402848E+01  0.93462432367E+02  0.13092414172E+03  0.89749685855E+02 0.  0.
          5    1    1    2  502    0 -0.74478249171E+01  0.53463242300E+02  0.29719425407E+02  0.61799050314E+02  0.47000000000E+01 0.  1.
         -5    1    1    2    0  502 -0.90503790470E+01 -0.44591502015E+02  0.15821053457E+03  0.16469054212E+03  0.47000000000E+01 0.  1.
        -11    1    3    3    0    0 -0.17658348228E+02  0.17326847525E+02  0.83021481704E+02  0.86629113649E+02  0.00000000000E+00 0.  1.
         11    1    3    3    0    0  0.34156552192E+02 -0.26198587810E+02  0.10440950663E+02  0.44295028069E+02  0.00000000000E+00 0. -1.
<mgrwt>
<rscale>  0 0.11665758E+03</rscale>
<asrwt>0</asrwt>
<pdfrwt beam="2">  1        2 0.58477957E-02 0.12641149E+03</pdfrwt>
<pdfrwt beam="1">  1       -2 0.49138931E-01 0.12641149E+03</pdfrwt>
<totfact> 0.47987164E+03</totfact>
</mgrwt>
</event>
<event>
 7    1  0.1446636E-005  0.1359519E+03  0.7546771E-02  0.1232629E+00
         -2   -1    0    0    0  501 -0.00000000000E+00  0.00000000000E+00  0.18446579813E+03  0.18446579813E+03  0.00000000000E+00 0.  1.
          2   -1    0    0  501    0  0.00000000000E+00 -0.00000000000E+00 -0.81165503246E+02  0.81165503246E+02  0.00000000000E+00 0. -1.
         23    2    1    2    0    0  0.42969577190E+02  0.31806632827E+02  0.14312624442E+02  0.10314525744E+03  0.87040487468E+02 0.  0.
          5    1    1    2  502    0 -0.73258973674E+02  0.97458234046E+01  0.81820241844E+02  0.11035624256E+03  0.47000000000E+01 0.  1.
         -5    1    1    2    0  502  0.30289396484E+02 -0.41552456232E+02  0.71674286010E+01  0.52129801371E+02  0.47000000000E+01 0.  1.
        -11    1    3    3    0    0  0.31919858445E+02  0.60634836471E+02  0.20773670346E+02  0.71603115412E+02  0.00000000000E+00 0.  1.
         11    1    3    3    0    0  0.11049718745E+02 -0.28828203644E+02 -0.64610459046E+01  0.31542142030E+02  0.00000000000E+00 0. -1.
<mgrwt>
<rscale>  0 0.12657435E+03</rscale>
<asrwt>0</asrwt>
<pdfrwt beam="2">  1        2 0.12487001E-01 0.13595186E+03</pdfrwt>
<pdfrwt beam="1">  1       -2 0.28379353E-01 0.13595186E+03</pdfrwt>
<totfact> 0.52379102E+03</totfact>
</mgrwt>
</event>
<event>
 7    1  0.1446636E-005  0.1723967E+03  0.7546771E-02  0.1181183E+00
         -1   -1    0    0    0  501 -0.00000000000E+00  0.00000000000E+00  0.11925013070E+03  0.11925013070E+03  0.00000000000E+00 0.  1.
          1   -1    0    0  501    0  0.00000000000E+00 -0.00000000000E+00 -0.22056088200E+03  0.22056088200E+03  0.00000000000E+00 0. -1.
         23    2    1    2    0    0 -0.10293673035E+03  0.59175187871E+02 -0.58781048463E+02  0.16224582599E+03  0.93652672564E+02 0.  0.
          5    1    1    2  502    0  0.11667536971E+03 -0.25063431022E+02  0.22240431819E+01  0.11945021490E+03  0.47000000000E+01 0. -1.
         -5    1    1    2    0  502 -0.13738639357E+02 -0.34111756850E+02 -0.44753746019E+02  0.58114971819E+02  0.47000000000E+01 0. -1.
        -11    1    3    3    0    0 -0.70190603924E+02  0.62179570602E+01  0.80276150510E+01  0.70921269536E+02  0.00000000000E+00 0.  1.
         11    1    3    3    0    0 -0.32746126425E+02  0.52957230811E+02 -0.66808663514E+02  0.91324556454E+02  0.00000000000E+00 0. -1.
<mgrwt>
<rscale>  0 0.16684047E+03</rscale>
<asrwt>0</asrwt>
<pdfrwt beam="2">  1        1 0.33932443E-01 0.17239669E+03</pdfrwt>
<pdfrwt beam="1">  1       -1 0.18346174E-01 0.17239669E+03</pdfrwt>
<totfact> 0.29418765E+03</totfact>
</mgrwt>
</event>
<event>
 7    1  0.1446636E-005  0.2135461E+03  0.7546771E-02  0.1142435E+00
          1   -1    0    0  501    0  0.00000000000E+00  0.00000000000E+00  0.19159740873E+03  0.19159740873E+03  0.00000000000E+00 0. -1.
         -1   -1    0    0    0  501 -0.00000000000E+00 -0.00000000000E+00 -0.22903038152E+03  0.22903038152E+03  0.00000000000E+00 0.  1.
         23    2    1    2    0    0  0.21026518626E+02  0.17185745713E+03  0.27313547558E+02  0.19748199987E+03  0.90972580134E+02 0.  0.
          5    1    1    2  502    0 -0.19447466273E+02 -0.85742149930E+01  0.27866930309E+02  0.35360668999E+02  0.47000000000E+01 0. -1.
         -5    1    1    2    0  502 -0.15790523531E+01 -0.16328324213E+03 -0.92613450665E+02  0.18778512138E+03  0.47000000000E+01 0. -1.
        -11    1    3    3    0    0  0.45452106373E+02  0.44002295972E+02 -0.46974326906E+01  0.63436282193E+02  0.00000000000E+00 0. -1.
         11    1    3    3    0    0 -0.24425587747E+02  0.12785516116E+03  0.32010980249E+02  0.13404571768E+03  0.00000000000E+00 0.  1.
<mgrwt>
<rscale>  0 0.20890655E+03</rscale>
<asrwt>0</asrwt>
<pdfrwt beam="1">  1        1 0.29476524E-01 0.21354609E+03</pdfrwt>
<pdfrwt beam="2">  1       -1 0.35235443E-01 0.21354609E+03</pdfrwt>
<totfact> 0.11928832E+03</totfact>
</mgrwt>
</event>
<event>
 7    1  0.1446636E-005  0.1259246E+03  0.7546771E-02  0.1257168E+00
         -3   -1    0    0    0  501 -0.00000000000E+00  0.00000000000E+00  0.38827511864E+03  0.38827511864E+03  0.00000000000E+00 0.  1.
          3   -1    0    0  501    0  0.00000000000E+00 -0.00000000000E+00 -0.35253478152E+02  0.35253478152E+02  0.00000000000E+00 0. -1.
         23    2    1    2    0    0  0.57143657661E+01 -0.14116690127E+02  0.44160451812E+02  0.89983640269E+02  0.76908875272E+02 0.  0.
          5    1    1    2  502    0  0.67636504174E+01 -0.48673068175E+02  0.20961643001E+03  0.21535076564E+03  0.47000000000E+01 0.  1.
         -5    1    1    2    0  502 -0.12478016184E+02  0.62789758302E+02  0.99244758666E+02  0.11819419088E+03  0.47000000000E+01 0.  1.
        -11    1    3    3    0    0 -0.31479141045E+01 -0.24335980743E+02  0.62529142239E+02  0.67171742207E+02  0.00000000000E+00 0.  1.
         11    1    3    3    0    0  0.88622798706E+01  0.10219290616E+02 -0.18368690427E+02  0.22811898062E+02  0.00000000000E+00 0. -1.
<mgrwt>
<rscale>  0 0.11185748E+03</rscale>
<asrwt>0</asrwt>
<pdfrwt beam="2">  1        3 0.54236123E-02 0.12592460E+03</pdfrwt>
<pdfrwt beam="1">  1       -3 0.59734631E-01 0.12592460E+03</pdfrwt>
<totfact> 0.12643789E+03</totfact>
</mgrwt>
</event>
<event>
 7    1  0.1446636E-005  0.1616842E+03  0.7546771E-02  0.1194240E+00
         -1   -1    0    0    0  501 -0.00000000000E+00  0.00000000000E+00  0.58725128472E+03  0.58725128472E+03  0.00000000000E+00 0.  1.
          1   -1    0    0  501    0  0.00000000000E+00 -0.00000000000E+00 -0.52063098975E+02  0.52063098975E+02  0.00000000000E+00 0. -1.
         23    2    1    2    0    0 -0.73064077231E+02 -0.71960478117E+02  0.86075609488E+02  0.16198441658E+03  0.91177140086E+02 0.  0.
          5    1    1    2  502    0  0.60696647071E+02 -0.20224578922E+02  0.13097124106E+03  0.14583782960E+03  0.47000000000E+01 0.  1.
         -5    1    1    2    0  502  0.12367430160E+02  0.92185057039E+02  0.31814133520E+03  0.33149213751E+03  0.47000000000E+01 0.  1.
        -11    1    3    3    0    0 -0.61598982844E+02 -0.80455103709E+01  0.72806110216E+02  0.95707338325E+02  0.00000000000E+00 0.  1.
         11    1    3    3    0    0 -0.11465094387E+02 -0.63914967746E+02  0.13269499272E+02  0.66277078257E+02  0.00000000000E+00 0. -1.
<mgrwt>
<rscale>  0 0.15518755E+03</rscale>
<asrwt>0</asrwt>
<pdfrwt beam="2">  1        1 0.80097080E-02 0.16168423E+03</pdfrwt>
<pdfrwt beam="1">  1       -1 0.90346347E-01 0.16168423E+03</pdfrwt>
<totfact> 0.10806056E+03</totfact>
</mgrwt>
</event>
<event>
 7    1  0.1446636E-005  0.1454716E+03  0.7546771E-02  0.1217017E+00
          1   -1    0    0  501    0  0.00000000000E+00  0.00000000000E+00  0.57640692934E+02  0.57640692934E+02  0.00000000000E+00 0. -1.
         -1   -1    0    0    0  501 -0.00000000000E+00 -0.00000000000E+00 -0.33424513367E+03  0.33424513367E+03  0.00000000000E+00 0.  1.
         23    2    1    2    0    0  0.66172265899E+02 -0.34039529413E+02 -0.57656353072E+02  0.12901653598E+03  0.88224447690E+02 0.  0.
          5    1    1    2  502    0  0.34821964460E+02 -0.59480670204E+01 -0.68904213772E+02  0.77574669743E+02  0.47000000000E+01 0.  1.
         -5    1    1    2    0  502 -0.10099423036E+03  0.39987596433E+02 -0.15004387389E+03  0.18529462088E+03  0.47000000000E+01 0.  1.
        -11    1    3    3    0    0  0.49209242980E+02 -0.63909312120E+01  0.12976748770E+02  0.51291223471E+02  0.00000000000E+00 0. -1.
         11    1    3    3    0    0  0.16963022919E+02 -0.27648598201E+02 -0.70633101843E+02  0.77725312511E+02  0.00000000000E+00 0.  1.
<mgrwt>
<rscale>  0 0.13729379E+03</rscale>
<asrwt>0</asrwt>
<pdfrwt beam="1">  1        1 0.88677986E-02 0.14547164E+03</pdfrwt>
<pdfrwt beam="2">  1       -1 0.51422330E-01 0.14547164E+03</pdfrwt>
<totfact> 0.28525168E+03</totfact>
</mgrwt>
</event>
<event>
 7    1  0.1446636E-005  0.1300487E+03  0.7546771E-02  0.1241342E+00
         -3   -1    0    0    0  501 -0.00000000000E+00  0.00000000000E+00  0.15045149265E+03  0.15045149265E+03  0.00000000000E+00 0.  1.
          3   -1    0    0  501    0  0.00000000000E+00 -0.00000000000E+00 -0.96322348964E+02  0.96322348964E+02  0.00000000000E+00 0. -1.
         23    2    1    2    0    0 -0.35520036952E+02  0.51246585729E+01 -0.16053538597E+02  0.98996076168E+02  0.90854674314E+02 0.  0.
          5    1    1    2  502    0  0.24010494588E+02 -0.53913200700E+02  0.76827834246E+02  0.96993521304E+02  0.47000000000E+01 0.  1.
         -5    1    1    2    0  502  0.11509542364E+02  0.48788542127E+02 -0.66451519635E+01  0.50784244141E+02  0.47000000000E+01 0.  1.
        -11    1    3    3    0    0 -0.37602536752E+02  0.39969376181E+02 -0.28625271820E+02  0.61894329217E+02  0.00000000000E+00 0. -1.
         11    1    3    3    0    0  0.20824997999E+01 -0.34844717608E+02  0.12571733223E+02  0.37101746951E+02  0.00000000000E+00 0.  1.
<mgrwt>
<rscale>  0 0.12107020E+03</rscale>
<asrwt>0</asrwt>
<pdfrwt beam="2">  1        3 0.14818823E-01 0.13004868E+03</pdfrwt>
<pdfrwt beam="1">  1       -3 0.23146384E-01 0.13004868E+03</pdfrwt>
<totfact> 0.14940538E+03</totfact>
</mgrwt>
</event>
<event>
 7    1  0.1446636E-005  0.1255103E+03  0.7546771E-02  0.1249058E+00
          1   -1    0    0  501    0  0.00000000000E+00  0.00000000000E+00  0.32334218719E+03  0.32334218719E+03  0.00000000000E+00 0. -1.
         -1   -1    0    0    0  501 -0.00000000000E+00 -0.00000000000E+00 -0.37181415682E+02  0.37181415682E+02  0.00000000000E+00 0.  1.
         23    2    1    2    0    0 -0.18753559941E+01  0.11126653934E+02  0.13670113855E+03  0.16535441529E+03  0.92344799450E+02 0.  0.
          5    1    1    2  502    0 -0.42881859251E+02 -0.48906709619E+02  0.93733741216E+02  0.11418767158E+03  0.47000000000E+01 0. -1.
         -5    1    1    2    0  502  0.44757215245E+02  0.37780055685E+02  0.55725891737E+02  0.80981516002E+02  0.47000000000E+01 0. -1.
        -11    1    3    3    0    0  0.19375922860E+02  0.19210281582E+02  0.52156841605E+00  0.27289802835E+02  0.00000000000E+00 0.  1.
         11    1    3    3    0    0 -0.21251278854E+02 -0.80836276482E+01  0.13617957014E+03  0.13806461245E+03  0.00000000000E+00 0. -1.
<mgrwt>
<rscale>  0 0.11645741E+03</rscale>
<asrwt>0</asrwt>
<pdfrwt beam="1">  1        1 0.49744950E-01 0.12551028E+03</pdfrwt>
<pdfrwt beam="2">  1       -1 0.57202180E-02 0.12551028E+03</pdfrwt>
<totfact> 0.10748027E+04</totfact>
</mgrwt>
</event>
<event>
 7    1  0.1446636E-005  0.1563027E+03  0.7546771E-02  0.1202724E+00
          1   -1    0    0  501    0  0.00000000000E+00  0.00000000000E+00  0.90990271146E+03  0.90990271146E+03  0.00000000000E+00 0. -1.
         -1   -1    0    0    0  501 -0.00000000000E+00 -0.00000000000E+00 -0.23543697416E+02  0.23543697416E+02  0.00000000000E+00 0.  1.
         23    2    1    2    0    0 -0.12077878260E+02 -0.93056750515E+02  0.52053184169E+03  0.53562729860E+03  0.84485329047E+02 0.  0.
          5    1    1    2  502    0 -0.17586228856E+02  0.99110095405E+02  0.34816600085E+03  0.36245515668E+03  0.47000000000E+01 0. -1.
         -5    1    1    2    0  502  0.29664107117E+02 -0.60533448902E+01  0.17661171498E+02  0.35363953598E+02  0.47000000000E+01 0. -1.
        -11    1    3    3    0    0 -0.26276439228E+02 -0.10441472850E+03  0.45939889329E+03  0.47184767663E+03  0.00000000000E+00 0. -1.
         11    1    3    3    0    0  0.14198560967E+02  0.11357977984E+02  0.61132948403E+02  0.63779621964E+02  0.00000000000E+00 0.  1.
<mgrwt>
<rscale>  0 0.14818244E+03</rscale>
<asrwt>0</asrwt>
<pdfrwt beam="1">  1        1 0.13998501E+00 0.15630267E+03</pdfrwt>
<pdfrwt beam="2">  1       -1 0.36221080E-02 0.15630267E+03</pdfrwt>
<totfact> 0.52377346E+03</totfact>
</mgrwt>
</event>
<event>
 7    1  0.1446636E-005  0.1401831E+03  0.7546771E-02  0.1223836E+00
         -4   -1    0    0    0  501 -0.00000000000E+00  0.00000000000E+00  0.39576034600E+02  0.39576034600E+02  0.00000000000E+00 0.  1.
          4   -1    0    0  501    0  0.00000000000E+00 -0.00000000000E+00 -0.40371596881E+03  0.40371596881E+03  0.00000000000E+00 0. -1.
         23    2    1    2    0    0 -0.50129450719E+02  0.38903890287E+02 -0.17957248531E+03  0.21152389781E+03  0.92030469714E+02 0.  0.
          5    1    1    2  502    0 -0.34277964277E+02 -0.34866012013E+02 -0.10353658344E+03  0.11459725887E+03  0.47000000000E+01 0.  1.
         -5    1    1    2    0  502  0.84407414996E+02 -0.40378782742E+01 -0.81030865454E+02  0.11717084673E+03  0.47000000000E+01 0.  1.
        -11    1    3    3    0    0  0.53880479785E+01  0.17855816362E+02  0.35769728522E+01  0.18990944520E+02  0.00000000000E+00 0.  1.
         11    1    3    3    0    0 -0.55517498697E+02  0.21048073925E+02 -0.18314945817E+03  0.19253295329E+03  0.00000000000E+00 0. -1.
<mgrwt>
<rscale>  0 0.13247031E+03</rscale>
<asrwt>0</asrwt>
<pdfrwt beam="2">  1        4 0.62110146E-01 0.14018314E+03</pdfrwt>
<pdfrwt beam="1">  1       -4 0.60886210E-02 0.14018314E+03</pdfrwt>
<totfact> 0.71252379E+02</totfact>
</mgrwt>
</event>
<event>
 7    1  0.1446636E-005  0.2463002E+03  0.7546771E-02  0.1118677E+00
          3   -1    0    0  501    0  0.00000000000E+00  0.00000000000E+00  0.86365875486E+03  0.86365875486E+03  0.00000000000E+00 0. -1.
         -3   -1    0    0    0  501 -0.00000000000E+00 -0.00000000000E+00 -0.65910870577E+02  0.65910870577E+02  0.00000000000E+00 0.  1.
         23    2    1    2    0    0  0.19036912311E+03  0.93793462756E+02  0.43173516749E+03  0.48840173115E+03  0.84281548722E+02 0.  0.
          5    1    1    2  502    0 -0.77171890469E+01 -0.42115304707E+02  0.13734945278E+03  0.14394518428E+03  0.47000000000E+01 0.  1.
         -5    1    1    2    0  502 -0.18265193406E+03 -0.51678158049E+02  0.22866326402E+03  0.29722271002E+03  0.47000000000E+01 0.  1.
        -11    1    3    3    0    0  0.62640670571E+02  0.18149651976E+02  0.22246289929E+03  0.23182537617E+03  0.00000000000E+00 0. -1.
         11    1    3    3    0    0  0.12772845254E+03  0.75643810780E+02  0.20927226820E+03  0.25657635498E+03  0.00000000000E+00 0.  1.
<mgrwt>
<rscale>  0 0.24168296E+03</rscale>
<asrwt>0</asrwt>
<pdfrwt beam="1">  1        3 0.13287057E+00 0.24630023E+03</pdfrwt>
<pdfrwt beam="2">  1       -3 0.10140135E-01 0.24630023E+03</pdfrwt>
<totfact> 0.83061565E+01</totfact>
</mgrwt>
</event>
<event>
 7    1  0.1446636E-005  0.1603555E+03  0.7546771E-02  0.1192715E+00
         -2   -1    0    0    0  501 -0.00000000000E+00  0.00000000000E+00  0.56110788807E+02  0.56110788807E+02  0.00000000000E+00 0.  1.
          2   -1    0    0  501    0  0.00000000000E+00 -0.00000000000E+00 -0.47323714188E+03  0.47323714188E+03  0.00000000000E+00 0. -1.
         23    2    1    2    0    0 -0.10144073383E+03  0.50663023415E+02 -0.29102528454E+03  0.32534952137E+03  0.91102307291E+02 0.  0.
          5    1    1    2  502    0  0.19910157468E+02  0.13861314344E+02 -0.90787492548E+02  0.94090431017E+02  0.47000000000E+01 0. -1.
         -5    1    1    2    0  502  0.81530576364E+02 -0.64524337759E+02 -0.35313575989E+02  0.10990797830E+03  0.47000000000E+01 0.  1.
        -11    1    3    3    0    0 -0.30015165843E+02 -0.26369993788E+02 -0.92005690743E+02  0.10030620062E+03  0.00000000000E+00 0.  1.
         11    1    3    3    0    0 -0.71425567989E+02  0.77033017203E+02 -0.19901959380E+03  0.22504332076E+03  0.00000000000E+00 0. -1.
<mgrwt>
<rscale>  0 0.15649250E+03</rscale>
<asrwt>0</asrwt>
<pdfrwt beam="2">  1        2 0.72805713E-01 0.16035545E+03</pdfrwt>
<pdfrwt beam="1">  1       -2 0.86324292E-02 0.16035545E+03</pdfrwt>
<totfact> 0.53922077E+03</totfact>
</mgrwt>
</event>
<event>
 7    1  0.1446636E-005  0.2150088E+03  0.7546771E-02  0.1166610E+00
          4   -1    0    0  501    0  0.00000000000E+00  0.00000000000E+00  0.29293273588E+03  0.29293273588E+03  0.00000000000E+00 0. -1.
         -4   -1    0    0    0  501 -0.00000000000E+00 -0.00000000000E+00 -0.19346025178E+03  0.19346025178E+03  0.00000000000E+00 0.  1.
         23    2    1    2    0    0 -0.40185861817E+02  0.43093160090E+02  0.21607000311E+03  0.24180402693E+03  0.91164780816E+02 0.  0.
          5    1    1    2  502    0 -0.22759990886E+02  0.76309906911E+02 -0.48125268305E+02  0.93163031978E+02  0.47000000000E+01 0. -1.
         -5    1    1    2    0  502  0.62945852703E+02 -0.11940306700E+03 -0.68472250700E+02  0.15142592875E+03  0.47000000000E+01 0.  1.
        -11    1    3    3    0    0  0.49513727346E+01 -0.20714770164E+02  0.97443481811E+02  0.99743921831E+02  0.00000000000E+00 0.  1.
         11    1    3    3    0    0 -0.45137234552E+02  0.63807930255E+02  0.11862652130E+03  0.14206010510E+03  0.00000000000E+00 0. -1.
<mgrwt>
<rscale>  0 0.18123784E+03</rscale>
<asrwt>0</asrwt>
<pdfrwt beam="1">  1        4 0.45066575E-01 0.21500879E+03</pdfrwt>
<pdfrwt beam="2">  1       -4 0.29763116E-01 0.21500879E+03</pdfrwt>
<totfact> 0.92768590E+01</totfact>
</mgrwt>
</event>
<event>
 7    1  0.1446636E-005  0.1326753E+03  0.7546771E-02  0.1235726E+00
          1   -1    0    0  501    0  0.00000000000E+00  0.00000000000E+00  0.16446682209E+03  0.16446682209E+03  0.00000000000E+00 0. -1.
         -1   -1    0    0    0  501 -0.00000000000E+00 -0.00000000000E+00 -0.84587470080E+02  0.84587470080E+02  0.00000000000E+00 0.  1.
         23    2    1    2    0    0 -0.24560229768E+02 -0.37050713484E+02  0.31729385024E+02  0.10791195693E+03  0.93071350682E+02 0.  0.
          5    1    1    2  502    0  0.27538797210E+02 -0.33412963615E+01 -0.37147766850E+02  0.46600388358E+02  0.47000000000E+01 0. -1.
         -5    1    1    2    0  502 -0.29785674415E+01  0.40392009845E+02  0.85297733837E+02  0.94541946886E+02  0.47000000000E+01 0. -1.
        -11    1    3    3    0    0  0.27120168550E+02  0.89854694020E+01  0.25717737333E+02  0.38440138086E+02  0.00000000000E+00 0.  1.
         11    1    3    3    0    0 -0.51680398318E+02 -0.46036182886E+02  0.60116476906E+01  0.69471818840E+02  0.00000000000E+00 0. -1.
<mgrwt>
<rscale>  0 0.12458085E+03</rscale>
<asrwt>0</asrwt>
<pdfrwt beam="1">  1        1 0.25302588E-01 0.13267532E+03</pdfrwt>
<pdfrwt beam="2">  1       -1 0.13013457E-01 0.13267532E+03</pdfrwt>
<totfact> 0.71865027E+03</totfact>
</mgrwt>
</event>
<event>
 7    1  0.1446636E-005  0.1285985E+03  0.7546771E-02  0.1243502E+00
         -3   -1    0    0    0  501 -0.00000000000E+00  0.00000000000E+00  0.60639300828E+02  0.60639300828E+02  0.00000000000E+00 0.  1.
          3   -1    0    0  501    0  0.00000000000E+00 -0.00000000000E+00 -0.31530078262E+03  0.31530078262E+03  0.00000000000E+00 0. -1.
         23    2    1    2    0    0  0.27200688051E+02 -0.13164356004E+02 -0.22363827363E+03  0.24365248326E+03  0.91865540169E+02 0.  0.
          5    1    1    2  502    0  0.42229334314E+02  0.22577269523E+02  0.12445979055E+02  0.49699518815E+02  0.47000000000E+01 0. -1.
         -5    1    1    2    0  502 -0.69430022365E+02 -0.94129135193E+01 -0.43469187219E+02  0.82588081368E+02  0.47000000000E+01 0. -1.
        -11    1    3    3    0    0 -0.16501838380E+02 -0.20941770457E+02 -0.15514214964E+02  0.30847354599E+02  0.00000000000E+00 0.  1.
         11    1    3    3    0    0  0.43702526431E+02  0.77774144530E+01 -0.20812405866E+03  0.21280512866E+03  0.00000000000E+00 0. -1.
<mgrwt>
<rscale>  0 0.11975471E+03</rscale>
<asrwt>0</asrwt>
<pdfrwt beam="2">  1        3 0.48507812E-01 0.12859848E+03</pdfrwt>
<pdfrwt beam="1">  1       -3 0.93291233E-02 0.12859848E+03</pdfrwt>
<totfact> 0.80580072E+02</totfact>
</mgrwt>
</event>
<event>
 7    1  0.1446636E-005  0.1432732E+03  0.7546771E-02  0.1218259E+00
          1   -1    0    0  501    0  0.00000000000E+00  0.00000000000E+00  0.19474713698E+03  0.19474713698E+03  0.00000000000E+00 0. -1.
         -1   -1    0    0    0  501 -0.00000000000E+00 -0.00000000000E+00 -0.88694059823E+02  0.88694059823E+02  0.00000000000E+00 0.  1.
         23    2    1    2    0    0 -0.53180526905E+02  0.45541608866E+02  0.64786423117E+02  0.13434346740E+03  0.94597463140E+02 0.  0.
          5    1    1    2  502    0  0.97125911180E+01  0.42848209637E+02  0.72085387670E+01  0.44770040501E+02  0.47000000000E+01 0. -1.
         -5    1    1    2    0  502  0.43467935787E+02 -0.88389818503E+02  0.34058115277E+02  0.10432768891E+03  0.47000000000E+01 0. -1.
        -11    1    3    3    0    0 -0.11270326764E+02  0.15333662201E+02 -0.24599977744E+02  0.31101452809E+02  0.00000000000E+00 0.  1.
         11    1    3    3    0    0 -0.41910200141E+02  0.30207946665E+02  0.89386400861E+02  0.10324201459E+03  0.00000000000E+00 0. -1.
<mgrwt>
<rscale>  0 0.13639810E+03</rscale>
<asrwt>0</asrwt>
<pdfrwt beam="1">  1        1 0.29961098E-01 0.14327315E+03</pdfrwt>
<pdfrwt beam="2">  1       -1 0.13645240E-01 0.14327315E+03</pdfrwt>
<totfact> 0.54323870E+03</totfact>
</mgrwt>
</event>
<event>
 7    1  0.1446636E-005  0.1655663E+03  0.7546771E-02  0.1189461E+00
          2   -1    0    0  501    0  0.00000000000E+00  0.00000000000E+00  0.54733855351E+03  0.54733855351E+03  0.00000000000E+00 0. -1.
         -2   -1    0    0    0  501 -0.00000000000E+00 -0.00000000000E+00 -0.43205115899E+02  0.43205115899E+02  0.00000000000E+00 0.  1.
         23    2    1    2    0    0 -0.18158077783E+02  0.10703428589E+03  0.23554482566E+03  0.27502499580E+03  0.91494968578E+02 0.  0.
          5    1    1    2  502    0  0.34458986678E+02 -0.70036522557E+02  0.26306835500E+03  0.27444413941E+03  0.47000000000E+01 0.  1.
         -5    1    1    2    0  502 -0.16300908895E+02 -0.36997763328E+02  0.55202569404E+01  0.41074534188E+02  0.47000000000E+01 0.  1.
        -11    1    3    3    0    0  0.19738554154E+02  0.96304721171E+02  0.19567438847E+03  0.21898099494E+03  0.00000000000E+00 0. -1.
         11    1    3    3    0    0 -0.37896631937E+02  0.10729564714E+02  0.39870437195E+02  0.56044000868E+02  0.00000000000E+00 0.  1.
<mgrwt>
<rscale>  0 0.15932472E+03</rscale>
<asrwt>0</asrwt>
<pdfrwt beam="1">  1        2 0.84205926E-01 0.16556627E+03</pdfrwt>
<pdfrwt beam="2">  1       -2 0.66469413E-02 0.16556627E+03</pdfrwt>
<totfact> 0.68840252E+03</totfact>
</mgrwt>
</event>
<event>
 7    1  0.1446636E-005  0.1451989E+03  0.7546771E-02  0.1216216E+00
         -2   -1    0    0    0  501 -0.00000000000E+00  0.00000000000E+00  0.27803587645E+02  0.27803587645E+02  0.00000000000E+00 0.  1.
          2   -1    0    0  501    0  0.00000000000E+00 -0.00000000000E+00 -0.63690836908E+03  0.63690836908E+03  0.00000000000E+00 0. -1.
         23    2    1    2    0    0  0.60201987325E+02  0.42800080132E+02 -0.32247529826E+03  0.34340339435E+03  0.92083913482E+02 0.  0.
          5    1    1    2  502    0 -0.42162446148E+02  0.23305024206E+02 -0.22125096836E+03  0.22648372352E+03  0.47000000000E+01 0.  1.
         -5    1    1    2    0  502 -0.18039541177E+02 -0.66105104338E+02 -0.65378514810E+02  0.94824838856E+02  0.47000000000E+01 0.  1.
        -11    1    3    3    0    0  0.33854977918E+02  0.70703291889E+02 -0.23903773260E+03  0.25156341670E+03  0.00000000000E+00 0. -1.
         11    1    3    3    0    0  0.26347009408E+02 -0.27903211756E+02 -0.83437565663E+02  0.91839977650E+02  0.00000000000E+00 0.  1.
<mgrwt>
<rscale>  0 0.13787584E+03</rscale>
<asrwt>0</asrwt>
<pdfrwt beam="2">  1        2 0.97985906E-01 0.14519894E+03</pdfrwt>
<pdfrwt beam="1">  1       -2 0.42774749E-02 0.14519894E+03</pdfrwt>
<totfact> 0.11189736E+04</totfact>
</mgrwt>
</event>
<event>
 7    1  0.1446636E-005  0.1498462E+03  0.7546771E-02  0.1209872E+00
         -2   -1    0    0    0  501 -0.00000000000E+00  0.00000000000E+00  0.19072710165E+03  0.19072710165E+03  0.00000000000E+00 0.  1.
          2   -1    0    0  501    0  0.00000000000E+00 -0.00000000000E+00 -0.97510747012E+02  0.97510747012E+02  0.00000000000E+00 0. -1.
         23    2    1    2    0    0 -0.74967770599E+02  0.34738284321E+02  0.41342846964E+02  0.12966690697E+03  0.90980001884E+02 0.  0.
          5    1    1    2  502    0  0.86238752689E+02 -0.70858050751E+02  0.39158663825E+02  0.11837853173E+03  0.47000000000E+01 0. -1.
         -5    1    1    2    0  502 -0.11270982090E+02  0.36119766431E+02  0.12714843849E+02  0.40192409960E+02  0.47000000000E+01 0. -1.
        -11    1    3    3    0    0 -0.85198114683E+02  0.27987555015E+02  0.33434330622E+01  0.89739626286E+02  0.00000000000E+00 0.  1.
         11    1    3    3    0    0  0.10230344084E+02  0.67507293058E+01  0.37999413901E+02  0.39927280687E+02  0.00000000000E+00 0. -1.
<mgrwt>
<rscale>  0 0.14260074E+03</rscale>
<asrwt>0</asrwt>
<pdfrwt beam="2">  1        2 0.15001653E-01 0.14984620E+03</pdfrwt>
<pdfrwt beam="1">  1       -2 0.29342631E-01 0.14984620E+03</pdfrwt>
<totfact> 0.39946987E+03</totfact>
</mgrwt>
</event>
<event>
 7    1  0.1446636E-005  0.2175403E+03  0.7546771E-02  0.1141737E+00
         -1   -1    0    0    0  501 -0.00000000000E+00  0.00000000000E+00  0.36677011358E+02  0.36677011358E+02  0.00000000000E+00 0.  1.
          1   -1    0    0  501    0  0.00000000000E+00 -0.00000000000E+00 -0.13220351912E+04  0.13220351912E+04  0.00000000000E+00 0. -1.
         23    2    1    2    0    0 -0.11385509528E+03 -0.13687860566E+03 -0.86696551143E+03  0.88714438527E+03  0.60804826159E+02 0.  0.
          5    1    1    2  502    0 -0.18790434824E+01  0.66683676415E+02 -0.65635571341E+02  0.93703584402E+02  0.47000000000E+01 0. -1.
         -5    1    1    2    0  502  0.11573413876E+03  0.70194929250E+02 -0.35275709711E+03  0.37786423294E+03  0.47000000000E+01 0. -1.
        -11    1    3    3    0    0 -0.63949361923E+02 -0.30959213042E+02 -0.32903027080E+03  0.33661389286E+03  0.00000000000E+00 0. -1.
         11    1    3    3    0    0 -0.49905733359E+02 -0.10591939262E+03 -0.53793524063E+03  0.55053049241E+03  0.00000000000E+00 0.  1.
<mgrwt>
<rscale>  0 0.20978479E+03</rscale>
<asrwt>0</asrwt>
<pdfrwt beam="2">  1        1 0.20338999E+00 0.21754030E+03</pdfrwt>
<pdfrwt beam="1">  1       -1 0.56426183E-02 0.21754030E+03</pdfrwt>
<totfact> 0.13848234E+03</totfact>
</mgrwt>
</event>
<event>
 7    1  0.1446636E-005  0.2039750E+03  0.7546771E-02  0.1165629E+00
          2   -1    0    0  501    0  0.00000000000E+00  0.00000000000E+00  0.39957888213E+03  0.39957888213E+03  0.00000000000E+00 0. -1.
         -2   -1    0    0    0  501 -0.00000000000E+00 -0.00000000000E+00 -0.81262541596E+02  0.81262541596E+02  0.00000000000E+00 0.  1.
         23    2    1    2    0    0  0.65606791478E+02  0.66082132276E+02  0.21726072422E+03  0.25320569743E+03  0.90773364088E+02 0.  0.
          5    1    1    2  502    0 -0.86849417946E+02 -0.10842984169E+03  0.11232055550E+03  0.17871163687E+03  0.47000000000E+01 0. -1.
         -5    1    1    2    0  502  0.21242626468E+02  0.42347709412E+02 -0.11264939181E+02  0.48924089429E+02  0.47000000000E+01 0.  1.
        -11    1    3    3    0    0  0.67070393678E+02  0.82561642417E+02  0.20944383922E+03  0.23490760799E+03  0.00000000000E+00 0.  1.
         11    1    3    3    0    0 -0.14636022000E+01 -0.16479510141E+02  0.78168850030E+01  0.18298089437E+02  0.00000000000E+00 0. -1.
<mgrwt>
<rscale>  0 0.18226509E+03</rscale>
<asrwt>0</asrwt>
<pdfrwt beam="1">  1        2 0.61473673E-01 0.20397496E+03</pdfrwt>
<pdfrwt beam="2">  1       -2 0.12501930E-01 0.20397496E+03</pdfrwt>
<totfact> 0.36397189E+03</totfact>
</mgrwt>
</event>
<event>
 7    1  0.1446636E-005  0.1460839E+03  0.7546771E-02  0.1214946E+00
          1   -1    0    0  501    0  0.00000000000E+00  0.00000000000E+00  0.71887729502E+02  0.71887729502E+02  0.00000000000E+00 0. -1.
         -1   -1    0    0    0  501 -0.00000000000E+00 -0.00000000000E+00 -0.24953339623E+03  0.24953339623E+03  0.00000000000E+00 0.  1.
         23    2    1    2    0    0  0.54711502980E+00 -0.75603792856E+02 -0.10264801361E+03  0.15721045643E+03  0.91990652156E+02 0.  0.
          5    1    1    2  502    0 -0.57010339519E+01  0.52095663466E+02 -0.10973081067E+03  0.12169388131E+03  0.47000000000E+01 0.  1.
         -5    1    1    2    0  502  0.51539189221E+01  0.23508129390E+02  0.34733157546E+02  0.42516787988E+02  0.47000000000E+01 0.  1.
        -11    1    3    3    0    0  0.19494189032E+02 -0.49740980899E+02 -0.11176625388E+03  0.12387850537E+03  0.00000000000E+00 0.  1.
         11    1    3    3    0    0 -0.18947074003E+02 -0.25862811957E+02  0.91182402724E+01  0.33331951057E+02  0.00000000000E+00 0. -1.
<mgrwt>
<rscale>  0 0.13880513E+03</rscale>
<asrwt>0</asrwt>
<pdfrwt beam="1">  1        1 0.11059651E-01 0.14608387E+03</pdfrwt>
<pdfrwt beam="2">  1       -1 0.38389753E-01 0.14608387E+03</pdfrwt>
<totfact> 0.35889560E+03</totfact>
</mgrwt>
</event>
<event>
 7    1  0.1446636E-005  0.1308822E+03  0.7546771E-02  0.1239319E+00
          4   -1    0    0  501    0  0.00000000000E+00  0.00000000000E+00  0.46133696050E+02  0.46133696050E+02  0.00000000000E+00 0. -1.
         -4   -1    0    0    0  501 -0.00000000000E+00 -0.00000000000E+00 -0.29112847580E+03  0.29112847580E+03  0.00000000000E+00 0.  1.
         23    2    1    2    0    0 -0.79236936989E+01  0.37959006823E+02 -0.90270224565E+02  0.13460520121E+03  0.92011823311E+02 0.  0.
          5    1    1    2  502    0  0.47090418422E+02 -0.65466854203E+02 -0.79257945384E+02  0.11316946767E+03  0.47000000000E+01 0.  1.
         -5    1    1    2    0  502 -0.39166724723E+02  0.27507847380E+02 -0.75466609806E+02  0.89487502974E+02  0.47000000000E+01 0.  1.
        -11    1    3    3    0    0  0.16420011771E+02  0.12612845472E+01 -0.89039946333E+02  0.90550094800E+02  0.00000000000E+00 0.  1.
         11    1    3    3    0    0 -0.24343705470E+02  0.36697722276E+02 -0.12302782314E+01  0.44055106410E+02  0.00000000000E+00 0. -1.
<mgrwt>
<rscale>  0 0.12231975E+03</rscale>
<asrwt>0</asrwt>
<pdfrwt beam="1">  1        4 0.70974917E-02 0.13088224E+03</pdfrwt>
<pdfrwt beam="2">  1       -4 0.44788996E-01 0.13088224E+03</pdfrwt>
<totfact> 0.10707859E+03</totfact>
</mgrwt>
</event>
<event>
 7    1  0.1446636E-005  0.1532340E+03  0.7546771E-02  0.1205042E+00
          4   -1    0    0  501    0  0.00000000000E+00  0.00000000000E+00  0.13498150341E+03  0.13498150341E+03  0.00000000000E+00 0. -1.
         -4   -1    0    0    0  501 -0.00000000000E+00 -0.00000000000E+00 -0.24283843244E+03  0.24283843244E+03  0.00000000000E+00 0.  1.
         23    2    1    2    0    0  0.11504397563E+02  0.87871085045E+02  0.68077549635E+02  0.14450985650E+03  0.91623507409E+02 0.  0.
          5    1    1    2  502    0 -0.99183848176E+01 -0.15144664638E+02 -0.15684547212E+03  0.15795672619E+03  0.47000000000E+01 0. -1.
         -5    1    1    2    0  502 -0.15860127456E+01 -0.72726420406E+02 -0.19089006550E+02  0.75353353161E+02  0.47000000000E+01 0. -1.
        -11    1    3    3    0    0  0.38945454104E+02  0.49869918165E+01  0.13370350288E+02  0.41477521015E+02  0.00000000000E+00 0.  1.
         11    1    3    3    0    0 -0.27441056540E+02  0.82884093228E+02  0.54707199346E+02  0.10303233548E+03  0.00000000000E+00 0. -1.
<mgrwt>
<rscale>  0 0.14634171E+03</rscale>
<asrwt>0</asrwt>
<pdfrwt beam="1">  1        4 0.20766385E-01 0.15323398E+03</pdfrwt>
<pdfrwt beam="2">  1       -4 0.37359759E-01 0.15323398E+03</pdfrwt>
<totfact> 0.24973418E+02</totfact>
</mgrwt>
</event>
<event>
 7    1  0.1446636E-005  0.1401397E+03  0.7546771E-02  0.1222502E+00
         -1   -1    0    0    0  501 -0.00000000000E+00  0.00000000000E+00  0.17214546281E+03  0.17214546281E+03  0.00000000000E+00 0.  1.
          1   -1    0    0  501    0  0.00000000000E+00 -0.00000000000E+00 -0.97476729101E+02  0.97476729101E+02  0.00000000000E+00 0. -1.
         23    2    1    2    0    0 -0.62825937923E+02  0.81444194477E+01  0.10621055012E+02  0.11554025165E+03  0.96038080456E+02 0.  0.
          5    1    1    2  502    0  0.92596878718E+02  0.18202925003E+02  0.24064346559E+02  0.97502365112E+02  0.47000000000E+01 0. -1.
         -5    1    1    2    0  502 -0.29770940796E+02 -0.26347344451E+02  0.39983332141E+02  0.56579575153E+02  0.47000000000E+01 0. -1.
        -11    1    3    3    0    0 -0.23504609225E+02  0.12983351193E+02 -0.41891764986E+02  0.49758959361E+02  0.00000000000E+00 0. -1.
         11    1    3    3    0    0 -0.39321328698E+02 -0.48389317452E+01  0.52512819998E+02  0.65781292289E+02  0.00000000000E+00 0.  1.
<mgrwt>
<rscale>  0 0.13339623E+03</rscale>
<asrwt>0</asrwt>
<pdfrwt beam="2">  1        1 0.14996420E-01 0.14013971E+03</pdfrwt>
<pdfrwt beam="1">  1       -1 0.26483917E-01 0.14013971E+03</pdfrwt>
<totfact> 0.45132916E+03</totfact>
</mgrwt>
</event>
<event>
 7    1  0.1446636E-005  0.1364577E+03  0.7546771E-02  0.1230187E+00
         -1   -1    0    0    0  501 -0.00000000000E+00  0.00000000000E+00  0.68532293880E+02  0.68532293880E+02  0.00000000000E+00 0.  1.
          1   -1    0    0  501    0  0.00000000000E+00 -0.00000000000E+00 -0.28268295228E+03  0.28268295228E+03  0.00000000000E+00 0. -1.
         23    2    1    2    0    0  0.44752223619E+02 -0.31500253064E+02 -0.18245350133E+03  0.21112452520E+03  0.91045359743E+02 0.  0.
          5    1    1    2  502    0 -0.36525026642E+02  0.74328817827E+02  0.47113015738E+01  0.83085119566E+02  0.47000000000E+01 0. -1.
         -5    1    1    2    0  502 -0.82271969774E+01 -0.42828564763E+02 -0.36408458645E+02  0.57005601397E+02  0.47000000000E+01 0. -1.
        -11    1    3    3    0    0  0.60582535820E+02  0.64789651656E+00 -0.67439010928E+02  0.90656955670E+02  0.00000000000E+00 0.  1.
         11    1    3    3    0    0 -0.15830312201E+02 -0.32148149580E+02 -0.11501449040E+03  0.12046756953E+03  0.00000000000E+00 0. -1.
<mgrwt>
<rscale>  0 0.12817631E+03</rscale>
<asrwt>0</asrwt>
<pdfrwt beam="2">  1        1 0.43489685E-01 0.13645769E+03</pdfrwt>
<pdfrwt beam="1">  1       -1 0.10543430E-01 0.13645769E+03</pdfrwt>
<totfact> 0.50830616E+03</totfact>
</mgrwt>
</event>
<event>
 7    1  0.1446636E-005  0.1564676E+03  0.7546771E-02  0.1200725E+00
         -1   -1    0    0    0  501 -0.00000000000E+00  0.00000000000E+00  0.81939767631E+02  0.81939767631E+02  0.00000000000E+00 0.  1.
          1   -1    0    0  501    0  0.00000000000E+00 -0.00000000000E+00 -0.26682773211E+03  0.26682773211E+03  0.00000000000E+00 0. -1.
         23    2    1    2    0    0 -0.56033595020E+02 -0.75623299487E+02 -0.12453249767E+03  0.18106271699E+03  0.91742668991E+02 0.  0.
          5    1    1    2  502    0 -0.13037776903E+02  0.14163488010E+02 -0.71744814779E+02  0.74431152530E+02  0.47000000000E+01 0.  1.
         -5    1    1    2    0  502  0.69071371924E+02  0.61459811477E+02  0.11389347970E+02  0.93273630215E+02  0.47000000000E+01 0.  1.
        -11    1    3    3    0    0 -0.72400157328E+02 -0.85658755810E+02 -0.10851609132E+03  0.15606071672E+03  0.00000000000E+00 0. -1.
         11    1    3    3    0    0  0.16366562307E+02  0.10035456323E+02 -0.16016406347E+02  0.25002000273E+02  0.00000000000E+00 0.  1.
<mgrwt>
<rscale>  0 0.14979480E+03</rscale>
<asrwt>0</asrwt>
<pdfrwt beam="2">  1        1 0.41050420E-01 0.15646761E+03</pdfrwt>
<pdfrwt beam="1">  1       -1 0.12606118E-01 0.15646761E+03</pdfrwt>
<totfact> 0.41758987E+03</totfact>
</mgrwt>
</event>
<event>
 7    1  0.1446636E-005  0.1372078E+03  0.7546771E-02  0.1230862E+00
         -1   -1    0    0    0  501 -0.00000000000E+00  0.00000000000E+00  0.31855990591E+02  0.31855990591E+02  0.00000000000E+00 0.  1.
          1   -1    0    0  501    0  0.00000000000E+00 -0.00000000000E+00 -0.51269818128E+03  0.51269818128E+03  0.00000000000E+00 0. -1.
         23    2    1    2    0    0 -0.55429706155E+02  0.11334879282E+02 -0.30228971709E+03  0.31937209648E+03  0.86130895405E+02 0.  0.
          5    1    1    2  502    0  0.75382198562E+02  0.51558702419E+01 -0.42925982824E+02  0.87027517829E+02  0.47000000000E+01 0.  1.
         -5    1    1    2    0  502 -0.19952492408E+02 -0.16490749524E+02 -0.13562649078E+03  0.13815455756E+03  0.47000000000E+01 0.  1.
        -11    1    3    3    0    0 -0.53420275936E+02 -0.29854475449E+02 -0.19734521902E+03  0.20661595063E+03  0.00000000000E+00 0.  1.
         11    1    3    3    0    0 -0.20094302186E+01  0.41189354730E+02 -0.10494449806E+03  0.11275614585E+03  0.00000000000E+00 0. -1.
<mgrwt>
<rscale>  0 0.12773118E+03</rscale>
<asrwt>0</asrwt>
<pdfrwt beam="2">  1        1 0.78876639E-01 0.13720780E+03</pdfrwt>
<pdfrwt beam="1">  1       -1 0.49009219E-02 0.13720780E+03</pdfrwt>
<totfact> 0.75855888E+03</totfact>
</mgrwt>
</event>
<event>
 7    1  0.1446636E-005  0.1839186E+03  0.7546771E-02  0.1169202E+00
          1   -1    0    0  501    0  0.00000000000E+00  0.00000000000E+00  0.61432339557E+03  0.61432339557E+03  0.00000000000E+00 0. -1.
         -1   -1    0    0    0  501 -0.00000000000E+00 -0.00000000000E+00 -0.50600508600E+02  0.50600508600E+02  0.00000000000E+00 0.  1.
         23    2    1    2    0    0  0.13516341154E+03  0.24831575082E+01  0.20842771097E+03  0.26484802190E+03  0.91798965747E+02 0.  0.
          5    1    1    2  502    0 -0.13832126722E+03 -0.41420779282E+02  0.28467052915E+03  0.31923009584E+03  0.47000000000E+01 0.  1.
         -5    1    1    2    0  502  0.31578556809E+01  0.38937621774E+02  0.70624646846E+02  0.80845786433E+02  0.47000000000E+01 0.  1.
        -11    1    3    3    0    0  0.10842734565E+03  0.41193650288E+02  0.13996511152E+03  0.18177909272E+03  0.00000000000E+00 0. -1.
         11    1    3    3    0    0  0.26736065889E+02 -0.38710492779E+02  0.68462599452E+02  0.83068929175E+02  0.00000000000E+00 0.  1.
<mgrwt>
<rscale>  0 0.17856155E+03</rscale>
<asrwt>0</asrwt>
<pdfrwt beam="1">  1        1 0.94511286E-01 0.18391859E+03</pdfrwt>
<pdfrwt beam="2">  1       -1 0.77846941E-02 0.18391859E+03</pdfrwt>
<totfact> 0.30140091E+03</totfact>
</mgrwt>
</event>
<event>
 7    1  0.1446636E-005  0.1804032E+03  0.7546771E-02  0.1173294E+00
         -3   -1    0    0    0  501 -0.00000000000E+00  0.00000000000E+00  0.18609583501E+03  0.18609583501E+03  0.00000000000E+00 0.  1.
          3   -1    0    0  501    0  0.00000000000E+00 -0.00000000000E+00 -0.16531762186E+03  0.16531762186E+03  0.00000000000E+00 0. -1.
         23    2    1    2    0    0 -0.67487998656E+02  0.11119204232E+03 -0.36982225738E+02  0.16198906971E+03  0.89187854819E+02 0.  0.
          5    1    1    2  502    0  0.28566753505E+02 -0.13251562487E+03  0.40286560318E+02  0.14149751652E+03  0.47000000000E+01 0.  1.
         -5    1    1    2    0  502  0.38921245150E+02  0.21323582549E+02  0.17473878566E+02  0.47926870636E+02  0.47000000000E+01 0.  1.
        -11    1    3    3    0    0 -0.11503330684E+02  0.59184349200E+02  0.23322547897E+02  0.64645611200E+02  0.00000000000E+00 0.  1.
         11    1    3    3    0    0 -0.55984667972E+02  0.52007693118E+02 -0.60304773634E+02  0.97343458509E+02  0.00000000000E+00 0. -1.
<mgrwt>
<rscale>  0 0.17444109E+03</rscale>
<asrwt>0</asrwt>
<pdfrwt beam="2">  1        3 0.25433480E-01 0.18040324E+03</pdfrwt>
<pdfrwt beam="1">  1       -3 0.28630128E-01 0.18040324E+03</pdfrwt>
<totfact> 0.41116112E+02</totfact>
</mgrwt>
</event>
<event>
 7    1  0.1446636E-005  0.2750817E+03  0.7546771E-02  0.1099462E+00
          2   -1    0    0  501    0  0.00000000000E+00  0.00000000000E+00  0.46328766873E+03  0.46328766873E+03  0.00000000000E+00 0. -1.
         -2   -1    0    0    0  501 -0.00000000000E+00 -0.00000000000E+00 -0.18866044328E+03  0.18866044328E+03  0.00000000000E+00 0.  1.
         23    2    1    2    0    0 -0.40021952969E+02 -0.24175136386E+03  0.26509816764E+03  0.37670139373E+03  0.10761701957E+03 0.  0.
          5    1    1    2  502    0  0.50687073136E+02  0.20199627923E+03  0.53255387607E+02  0.21501140090E+03  0.47000000000E+01 0.  1.
         -5    1    1    2    0  502 -0.10665120167E+02  0.39755084625E+02 -0.43726329804E+02  0.60235317380E+02  0.47000000000E+01 0.  1.
        -11    1    3    3    0    0 -0.29545042775E+02 -0.10729650785E+03  0.48166596444E+02  0.12126611712E+03  0.00000000000E+00 0.  1.
         11    1    3    3    0    0 -0.10476910194E+02 -0.13445485601E+03  0.21693157120E+03  0.25543527661E+03  0.00000000000E+00 0. -1.
<mgrwt>
<rscale>  0 0.27320008E+03</rscale>
<asrwt>0</asrwt>
<pdfrwt beam="1">  1        2 0.71275026E-01 0.27508172E+03</pdfrwt>
<pdfrwt beam="2">  1       -2 0.29024684E-01 0.27508172E+03</pdfrwt>
<totfact> 0.73924847E+02</totfact>
</mgrwt>
</event>
<event>
 7    1  0.1446636E-005  0.1520250E+03  0.7546771E-02  0.1207094E+00
          3   -1    0    0  501    0  0.00000000000E+00  0.00000000000E+00  0.31041125723E+03  0.31041125723E+03  0.00000000000E+00 0. -1.
         -3   -1    0    0    0  501 -0.00000000000E+00 -0.00000000000E+00 -0.73725693708E+02  0.73725693708E+02  0.00000000000E+00 0.  1.
         23    2    1    2    0    0  0.55634118150E+02 -0.66263012060E+02  0.18568653357E+03  0.22378576078E+03  0.90081275020E+02 0.  0.
          5    1    1    2  502    0 -0.82865527666E+02  0.48828759684E+01  0.39553357693E+02  0.92071147804E+02  0.47000000000E+01 0.  1.
         -5    1    1    2    0  502  0.27231409516E+02  0.61380136091E+02  0.11445672263E+02  0.68280042358E+02  0.47000000000E+01 0.  1.
        -11    1    3    3    0    0  0.51386386837E+02 -0.85425551933E+02  0.12430133487E+03  0.15933897052E+03  0.00000000000E+00 0.  1.
         11    1    3    3    0    0  0.42477313133E+01  0.19162539874E+02  0.61385198698E+02  0.64446790260E+02  0.00000000000E+00 0. -1.
<mgrwt>
<rscale>  0 0.14473677E+03</rscale>
<asrwt>0</asrwt>
<pdfrwt beam="1">  1        3 0.47755577E-01 0.15202501E+03</pdfrwt>
<pdfrwt beam="2">  1       -3 0.11342415E-01 0.15202501E+03</pdfrwt>
<totfact> 0.61634416E+02</totfact>
</mgrwt>
</event>
<event>
 7    1  0.1446636E-005  0.1677422E+03  0.7546771E-02  0.1191634E+00
         -3   -1    0    0    0  501 -0.00000000000E+00  0.00000000000E+00  0.10424007155E+03  0.10424007155E+03  0.00000000000E+00 0.  1.
          3   -1    0    0  501    0  0.00000000000E+00 -0.00000000000E+00 -0.21417911795E+03  0.21417911795E+03  0.00000000000E+00 0. -1.
         23    2    1    2    0    0 -0.91829264951E+02  0.16804018683E+02 -0.60766585682E+02  0.14361824046E+03  0.90656671639E+02 0.  0.
          5    1    1    2  502    0 -0.34767138814E+02 -0.21181317562E+02 -0.12315883344E+02  0.42792208841E+02  0.47000000000E+01 0. -1.
         -5    1    1    2    0  502  0.12659640376E+03  0.43772988784E+01 -0.36856577374E+02  0.13200874019E+03  0.47000000000E+01 0.  1.
        -11    1    3    3    0    0  0.17928795557E+02 -0.33781217968E+00 -0.22868886112E+01  0.18077214573E+02  0.00000000000E+00 0.  1.
         11    1    3    3    0    0 -0.10975806051E+03  0.17141830863E+02 -0.58479697071E+02  0.12554102589E+03  0.00000000000E+00 0. -1.
<mgrwt>
<rscale>  0 0.15742563E+03</rscale>
<asrwt>0</asrwt>
<pdfrwt beam="2">  1        3 0.32950633E-01 0.16774219E+03</pdfrwt>
<pdfrwt beam="1">  1       -3 0.16036934E-01 0.16774219E+03</pdfrwt>
<totfact> 0.70996642E+02</totfact>
</mgrwt>
</event>
<event>
 7    1  0.1446636E-005  0.1381554E+03  0.7546771E-02  0.1228317E+00
         -1   -1    0    0    0  501 -0.00000000000E+00  0.00000000000E+00  0.27070744303E+02  0.27070744303E+02  0.00000000000E+00 0.  1.
          1   -1    0    0  501    0  0.00000000000E+00 -0.00000000000E+00 -0.55984212009E+03  0.55984212009E+03  0.00000000000E+00 0. -1.
         23    2    1    2    0    0 -0.56635695793E+02  0.15921802715E+02 -0.19848300686E+03  0.22520077407E+03  0.88649753462E+02 0.  0.
          5    1    1    2  502    0  0.40105582802E+01 -0.81376993842E+01 -0.29557465127E+03  0.29575119814E+03  0.47000000000E+01 0.  1.
         -5    1    1    2    0  502  0.52625137512E+02 -0.77841033309E+01 -0.38713717656E+02  0.65960892183E+02  0.47000000000E+01 0.  1.
        -11    1    3    3    0    0 -0.80464340752E+02  0.64613525202E+01 -0.14818444264E+03  0.16874503918E+03  0.00000000000E+00 0. -1.
         11    1    3    3    0    0  0.23828644960E+02  0.94604501950E+01 -0.50298564225E+02  0.56455734887E+02  0.00000000000E+00 0.  1.
<mgrwt>
<rscale>  0 0.12942144E+03</rscale>
<asrwt>0</asrwt>
<pdfrwt beam="2">  1        1 0.86129558E-01 0.13815543E+03</pdfrwt>
<pdfrwt beam="1">  1       -1 0.41647298E-02 0.13815543E+03</pdfrwt>
<totfact> 0.85870165E+03</totfact>
</mgrwt>
</event>
<event>
 7    1  0.1446636E-005  0.1518015E+03  0.7546771E-02  0.1207113E+00
          2   -1    0    0  501    0  0.00000000000E+00  0.00000000000E+00  0.75566470033E+03  0.75566470033E+03  0.00000000000E+00 0. -1.
         -2   -1    0    0    0  501 -0.00000000000E+00 -0.00000000000E+00 -0.27561764370E+02  0.27561764370E+02  0.00000000000E+00 0.  1.
         23    2    1    2    0    0 -0.64922953421E+02 -0.56582124714E+02  0.44072925775E+03  0.45822288894E+03  0.91155968496E+02 0.  0.
          5    1    1    2  502    0  0.81183602941E+02  0.88105796501E+01  0.91729960572E+02  0.12290190953E+03  0.47000000000E+01 0. -1.
         -5    1    1    2    0  502 -0.16260649520E+02  0.47771545064E+02  0.19564371764E+03  0.20210166623E+03  0.47000000000E+01 0. -1.
        -11    1    3    3    0    0 -0.34317998539E+02 -0.73102355057E+02  0.37768024963E+03  0.38621762039E+03  0.00000000000E+00 0. -1.
         11    1    3    3    0    0 -0.30604954882E+02  0.16520230343E+02  0.63049008118E+02  0.72005268548E+02  0.00000000000E+00 0.  1.
<mgrwt>
<rscale>  0 0.14472185E+03</rscale>
<asrwt>0</asrwt>
<pdfrwt beam="1">  1        2 0.11625609E+00 0.15180149E+03</pdfrwt>
<pdfrwt beam="2">  1       -2 0.42402720E-02 0.15180149E+03</pdfrwt>
<totfact> 0.92765589E+03</totfact>
</mgrwt>
</event>
<event>
 7    1  0.1446636E-005  0.2598728E+03  0.7546771E-02  0.1109333E+00
          2   -1    0    0  501    0  0.00000000000E+00  0.00000000000E+00  0.50754910440E+02  0.50754910440E+02  0.00000000000E+00 0.  1.
         -2   -1    0    0    0  501 -0.00000000000E+00 -0.00000000000E+00 -0.18823995789E+04  0.18823995789E+04  0.00000000000E+00 0. -1.
         23    2    1    2    0    0 -0.18716565555E+03  0.12993940301E+03 -0.34429450558E+03  0.42327224805E+03  0.93303045620E+02 0.  0.
          5    1    1    2  502    0  0.14337488214E+03 -0.95173355301E+02 -0.71247568068E+03  0.73297886051E+03  0.47000000000E+01 0. -1.
         -5    1    1    2    0  502  0.43790773409E+02 -0.34766047713E+02 -0.77487448218E+03  0.77690338076E+03  0.47000000000E+01 0. -1.
        -11    1    3    3    0    0 -0.44405705133E+02  0.85939900992E+02 -0.14099057273E+03  0.17098501347E+03  0.00000000000E+00 0. -1.
         11    1    3    3    0    0 -0.14275995042E+03  0.43999502022E+02 -0.20330393284E+03  0.25228723458E+03  0.00000000000E+00 0.  1.
<mgrwt>
<rscale>  0 0.25638832E+03</rscale>
<asrwt>0</asrwt>
<pdfrwt beam="1">  1        2 0.78084478E-02 0.25987281E+03</pdfrwt>
<pdfrwt beam="2">  1       -2 0.28959993E+00 0.25987281E+03</pdfrwt>
<totfact> 0.36936313E+01</totfact>
</mgrwt>
</event>
<event>
 7    1  0.1446636E-005  0.1835089E+03  0.7546771E-02  0.1175904E+00
         -2   -1    0    0    0  501 -0.00000000000E+00  0.00000000000E+00  0.48076227198E+03  0.48076227198E+03  0.00000000000E+00 0.  1.
          2   -1    0    0  501    0  0.00000000000E+00 -0.00000000000E+00 -0.35752849866E+03  0.35752849866E+03  0.00000000000E+00 0. -1.
         23    2    1    2    0    0 -0.10650007818E+03  0.10193210222E+02 -0.32477769476E+03  0.35415256397E+03  0.92180905633E+02 0.  0.
          5    1    1    2  502    0  0.86263361971E+01  0.55266779267E+02  0.80063791942E+02  0.97781037767E+02  0.47000000000E+01 0. -1.
         -5    1    1    2    0  502  0.97873741987E+02 -0.65459989489E+02  0.36794767613E+03  0.38635716891E+03  0.47000000000E+01 0.  1.
        -11    1    3    3    0    0 -0.11930513468E+03  0.24338769136E+02 -0.27125104377E+03  0.29732678923E+03  0.00000000000E+00 0. -1.
         11    1    3    3    0    0  0.12805056498E+02 -0.14145558913E+02 -0.53526650988E+02  0.56825774741E+02  0.00000000000E+00 0.  1.
<mgrwt>
<rscale>  0 0.17187711E+03</rscale>
<asrwt>0</asrwt>
<pdfrwt beam="2">  1        2 0.55004385E-01 0.18350893E+03</pdfrwt>
<pdfrwt beam="1">  1       -2 0.73963426E-01 0.18350893E+03</pdfrwt>
<totfact> 0.15549943E+02</totfact>
</mgrwt>
</event>
<event>
 7    1  0.1446636E-005  0.1485513E+03  0.7546771E-02  0.1211136E+00
         -1   -1    0    0    0  501 -0.00000000000E+00  0.00000000000E+00  0.68378080637E+02  0.68378080637E+02  0.00000000000E+00 0.  1.
          1   -1    0    0  501    0  0.00000000000E+00 -0.00000000000E+00 -0.28805550348E+03  0.28805550348E+03  0.00000000000E+00 0. -1.
         23    2    1    2    0    0  0.95776517502E+01 -0.79699387058E+02 -0.14552541082E+03  0.19040341427E+03  0.92909048324E+02 0.  0.
          5    1    1    2  502    0 -0.56695585745E+02  0.59545173829E+02 -0.87622601764E+01  0.82818381853E+02  0.47000000000E+01 0. -1.
         -5    1    1    2    0  502  0.47117933995E+02  0.20154213229E+02 -0.65389751852E+02  0.83211788000E+02  0.47000000000E+01 0. -1.
        -11    1    3    3    0    0  0.27075455923E+02 -0.19716705364E+02 -0.11703196865E+03  0.12173048291E+03  0.00000000000E+00 0. -1.
         11    1    3    3    0    0 -0.17497804173E+02 -0.59982681693E+02 -0.28493442162E+02  0.68672931350E+02  0.00000000000E+00 0.  1.
<mgrwt>
<rscale>  0 0.14164215E+03</rscale>
<asrwt>0</asrwt>
<pdfrwt beam="2">  1        1 0.44316232E-01 0.14855133E+03</pdfrwt>
<pdfrwt beam="1">  1       -1 0.10519705E-01 0.14855133E+03</pdfrwt>
<totfact> 0.50070922E+03</totfact>
</mgrwt>
</event>
<event>
 7    1  0.1446636E-005  0.1300985E+03  0.7546771E-02  0.1242796E+00
         -2   -1    0    0    0  501 -0.00000000000E+00  0.00000000000E+00  0.30924460509E+02  0.30924460509E+02  0.00000000000E+00 0. -1.
          2   -1    0    0  501    0  0.00000000000E+00 -0.00000000000E+00 -0.51329568557E+03  0.51329568557E+03  0.00000000000E+00 0.  1.
         23    2    1    2    0    0  0.35535288420E+02 -0.71743392208E+01 -0.33261483136E+03  0.34584524471E+03  0.87533304386E+02 0.  0.
          5    1    1    2  502    0  0.12749503190E+02  0.25171703740E+02  0.10113055994E+02  0.30340210980E+02  0.47000000000E+01 0. -1.
         -5    1    1    2    0  502 -0.48284791610E+02 -0.17997364519E+02 -0.15986944969E+03  0.16803469039E+03  0.47000000000E+01 0. -1.
        -11    1    3    3    0    0  0.29598470272E+02  0.37990872495E+02 -0.19624861076E+03  0.20207150482E+03  0.00000000000E+00 0.  1.
         11    1    3    3    0    0  0.59368181483E+01 -0.45165211715E+02 -0.13636622060E+03  0.14377373988E+03  0.00000000000E+00 0. -1.
<mgrwt>
<rscale>  0 0.12018257E+03</rscale>
<asrwt>0</asrwt>
<pdfrwt beam="2">  1        2 0.78968569E-01 0.13009852E+03</pdfrwt>
<pdfrwt beam="1">  1       -2 0.47576092E-02 0.13009852E+03</pdfrwt>
<totfact> 0.12079948E+04</totfact>
</mgrwt>
</event>
<event>
 7    1  0.1446636E-005  0.1661345E+03  0.7546771E-02  0.1188734E+00
         -1   -1    0    0    0  501 -0.00000000000E+00  0.00000000000E+00  0.92255147547E+03  0.92255147547E+03  0.00000000000E+00 0.  1.
          1   -1    0    0  501    0  0.00000000000E+00 -0.00000000000E+00 -0.53485669343E+02  0.53485669343E+02  0.00000000000E+00 0. -1.
         23    2    1    2    0    0  0.35439576178E+02  0.10353678373E+03  0.68443816754E+02  0.15835980107E+03  0.91746615176E+02 0.  0.
          5    1    1    2  502    0 -0.71131910023E+02 -0.29218537314E+02  0.50078549598E+03  0.50667709099E+03  0.47000000000E+01 0.  1.
         -5    1    1    2    0  502  0.35692333846E+02 -0.74318246421E+02  0.29983649340E+03  0.31100025276E+03  0.47000000000E+01 0.  1.
        -11    1    3    3    0    0  0.99822850832E+01  0.35000606608E+02  0.76587877283E+02  0.84796175770E+02  0.00000000000E+00 0.  1.
         11    1    3    3    0    0  0.25457291095E+02  0.68536177126E+02 -0.81440605287E+01  0.73563625297E+02  0.00000000000E+00 0. -1.
<mgrwt>
<rscale>  0 0.15996711E+03</rscale>
<asrwt>0</asrwt>
<pdfrwt beam="2">  1        1 0.82285652E-02 0.16613449E+03</pdfrwt>
<pdfrwt beam="1">  1       -1 0.14193098E+00 0.16613449E+03</pdfrwt>
<totfact> 0.36597771E+02</totfact>
</mgrwt>
</event>
<event>
 7    1  0.1446636E-005  0.1299699E+03  0.7546771E-02  0.1240345E+00
          1   -1    0    0  501    0  0.00000000000E+00  0.00000000000E+00  0.10739368671E+03  0.10739368671E+03  0.00000000000E+00 0. -1.
         -1   -1    0    0    0  501 -0.00000000000E+00 -0.00000000000E+00 -0.12302167701E+03  0.12302167701E+03  0.00000000000E+00 0.  1.
         23    2    1    2    0    0  0.28180604229E+02 -0.21758521778E+02 -0.43339533753E+01  0.99955707879E+02  0.93299414045E+02 0.  0.
          5    1    1    2  502    0 -0.63022147703E+00 -0.28412426377E+02 -0.52426552136E+02  0.59818864254E+02  0.47000000000E+01 0.  1.
         -5    1    1    2    0  502 -0.27550382752E+02  0.50170948154E+02  0.41132515215E+02  0.70640791589E+02  0.47000000000E+01 0.  1.
        -11    1    3    3    0    0  0.45967028105E+02  0.20544339017E+02 -0.15586057940E+02  0.52706382351E+02  0.00000000000E+00 0.  1.
         11    1    3    3    0    0 -0.17786423876E+02 -0.42302860795E+02  0.11252104565E+02  0.47249325528E+02  0.00000000000E+00 0. -1.
<mgrwt>
<rscale>  0 0.12168352E+03</rscale>
<asrwt>0</asrwt>
<pdfrwt beam="1">  1        1 0.16522106E-01 0.12996987E+03</pdfrwt>
<pdfrwt beam="2">  1       -1 0.18926412E-01 0.12996987E+03</pdfrwt>
<totfact> 0.68389697E+03</totfact>
</mgrwt>
</event>
<event>
 7    1  0.1446636E-005  0.1647520E+03  0.7546771E-02  0.1190662E+00
          1   -1    0    0  501    0  0.00000000000E+00  0.00000000000E+00  0.12770180401E+03  0.12770180401E+03  0.00000000000E+00 0. -1.
         -1   -1    0    0    0  501 -0.00000000000E+00 -0.00000000000E+00 -0.18330571100E+03  0.18330571100E+03  0.00000000000E+00 0.  1.
         23    2    1    2    0    0  0.70196571960E+02 -0.81182906231E+02 -0.13558992601E+02  0.14097521909E+03  0.90398800530E+02 0.  0.
          5    1    1    2  502    0 -0.78805159684E+01  0.45101419384E+02  0.39850751352E+02  0.60880316570E+02  0.47000000000E+01 0. -1.
         -5    1    1    2    0  502 -0.62316055992E+02  0.36081486847E+02 -0.81895665742E+02  0.10915197934E+03  0.47000000000E+01 0. -1.
        -11    1    3    3    0    0  0.30428841145E+02 -0.50674138253E+02  0.37038983853E+02  0.69754347434E+02  0.00000000000E+00 0. -1.
         11    1    3    3    0    0  0.39767730816E+02 -0.30508767978E+02 -0.50597976455E+02  0.71220871653E+02  0.00000000000E+00 0.  1.
<mgrwt>
<rscale>  0 0.15827201E+03</rscale>
<asrwt>0</asrwt>
<pdfrwt beam="1">  1        1 0.19646431E-01 0.16475196E+03</pdfrwt>
<pdfrwt beam="2">  1       -1 0.28200878E-01 0.16475196E+03</pdfrwt>
<totfact> 0.28955987E+03</totfact>
</mgrwt>
</event>
<event>
 7    1  0.1446636E-005  0.1343428E+03  0.7546771E-02  0.1233935E+00
         -2   -1    0    0    0  501 -0.00000000000E+00  0.00000000000E+00  0.22482549663E+03  0.22482549663E+03  0.00000000000E+00 0.  1.
          2   -1    0    0  501    0  0.00000000000E+00 -0.00000000000E+00 -0.69266227806E+02  0.69266227806E+02  0.00000000000E+00 0. -1.
         23    2    1    2    0    0 -0.33809397618E+02 -0.35693969122E+02  0.23490667283E+02  0.10570353251E+03  0.90577538813E+02 0.  0.
          5    1    1    2  502    0  0.38150336199E+02 -0.32271114552E+02  0.10223140109E+03  0.11388688404E+03  0.47000000000E+01 0.  1.
         -5    1    1    2    0  502 -0.43409385814E+01  0.67965083673E+02  0.29837200452E+02  0.74501307890E+02  0.47000000000E+01 0.  1.
        -11    1    3    3    0    0 -0.61337096094E+02 -0.22127933873E+02  0.33649418673E+02  0.73376891401E+02  0.00000000000E+00 0.  1.
         11    1    3    3    0    0  0.27527698476E+02 -0.13566035249E+02 -0.10158751390E+02  0.32326641112E+02  0.00000000000E+00 0. -1.
<mgrwt>
<rscale>  0 0.12572849E+03</rscale>
<asrwt>0</asrwt>
<pdfrwt beam="2">  1        2 0.10656343E-01 0.13434283E+03</pdfrwt>
<pdfrwt beam="1">  1       -2 0.34588538E-01 0.13434283E+03</pdfrwt>
<totfact> 0.44288045E+03</totfact>
</mgrwt>
</event>
<event>
 7    1  0.1446636E-005  0.1302678E+03  0.7546771E-02  0.1240580E+00
          1   -1    0    0  501    0  0.00000000000E+00  0.00000000000E+00  0.18327665077E+03  0.18327665077E+03  0.00000000000E+00 0. -1.
         -1   -1    0    0    0  501 -0.00000000000E+00 -0.00000000000E+00 -0.71541217378E+02  0.71541217378E+02  0.00000000000E+00 0.  1.
         23    2    1    2    0    0 -0.33129220864E+02 -0.15727569048E+02  0.45847698817E+02  0.10883532126E+03  0.91641769758E+02 0.  0.
          5    1    1    2  502    0 -0.41741174534E+02  0.11946558023E+02  0.54773199227E+02  0.70051689870E+02  0.47000000000E+01 0. -1.
         -5    1    1    2    0  502  0.74870395398E+02  0.37810110255E+01  0.11114535352E+02  0.75930857018E+02  0.47000000000E+01 0. -1.
        -11    1    3    3    0    0  0.24348921169E+01 -0.18026467676E+02 -0.24181523791E+02  0.30259351106E+02  0.00000000000E+00 0.  1.
         11    1    3    3    0    0 -0.35564112981E+02  0.22988986276E+01  0.70029222608E+02  0.78575970157E+02  0.00000000000E+00 0. -1.
<mgrwt>
<rscale>  0 0.12153886E+03</rscale>
<asrwt>0</asrwt>
<pdfrwt beam="1">  1        1 0.28196408E-01 0.13026784E+03</pdfrwt>
<pdfrwt beam="2">  1       -1 0.11006341E-01 0.13026784E+03</pdfrwt>
<totfact> 0.81151640E+03</totfact>
</mgrwt>
</event>
<event>
 7    1  0.1446636E-005  0.1403702E+03  0.7546771E-02  0.1227486E+00
         -1   -1    0    0    0  501 -0.00000000000E+00  0.00000000000E+00  0.11089395677E+03  0.11089395677E+03  0.00000000000E+00 0.  1.
          1   -1    0    0  501    0  0.00000000000E+00 -0.00000000000E+00 -0.18514398729E+03  0.18514398729E+03  0.00000000000E+00 0. -1.
         23    2    1    2    0    0  0.38646425943E+02  0.29802893094E+02 -0.11036398665E+03  0.15109657736E+03  0.90929684190E+02 0.  0.
          5    1    1    2  502    0  0.10257131852E+01  0.32009443771E+02  0.59484763337E+02  0.67721367731E+02  0.47000000000E+01 0. -1.
         -5    1    1    2    0  502 -0.39672139128E+02 -0.61812336865E+02 -0.23370807204E+02  0.77219998971E+02  0.47000000000E+01 0.  1.
        -11    1    3    3    0    0  0.40972742274E+02 -0.59632519425E+01 -0.10743270592E+03  0.11513519133E+03  0.00000000000E+00 0. -1.
         11    1    3    3    0    0 -0.23263163304E+01  0.35766145036E+02 -0.29312807330E+01  0.35961386029E+02  0.00000000000E+00 0.  1.
<mgrwt>
<rscale>  0 0.12997943E+03</rscale>
<asrwt>0</asrwt>
<pdfrwt beam="2">  1        1 0.28483690E-01 0.14037016E+03</pdfrwt>
<pdfrwt beam="1">  1       -1 0.17060609E-01 0.14037016E+03</pdfrwt>
<totfact> 0.40686687E+03</totfact>
</mgrwt>
</event>
<event>
 7    1  0.1446636E-005  0.1958546E+03  0.7546771E-02  0.1157784E+00
         -1   -1    0    0    0  501 -0.00000000000E+00  0.00000000000E+00  0.25160598911E+03  0.25160598911E+03  0.00000000000E+00 0.  1.
          1   -1    0    0  501    0  0.00000000000E+00 -0.00000000000E+00 -0.32862291324E+03  0.32862291324E+03  0.00000000000E+00 0. -1.
         23    2    1    2    0    0  0.14899460053E+03  0.23159919443E+02 -0.25873960678E+03  0.31305447962E+03  0.91220338969E+02 0.  0.
          5    1    1    2  502    0 -0.16149015006E+03 -0.45341189133E+02  0.14231704415E+03  0.22002527822E+03  0.47000000000E+01 0. -1.
         -5    1    1    2    0  502  0.12495549535E+02  0.22181269690E+02  0.39405638496E+02  0.47149144516E+02  0.47000000000E+01 0. -1.
        -11    1    3    3    0    0  0.64764119356E+02 -0.17978823061E+02 -0.48564595978E+02  0.82922549510E+02  0.00000000000E+00 0.  1.
         11    1    3    3    0    0  0.84230481172E+02  0.41138742504E+02 -0.21017501080E+03  0.23013193011E+03  0.00000000000E+00 0. -1.
<mgrwt>
<rscale>  0 0.19075248E+03</rscale>
<asrwt>0</asrwt>
<pdfrwt beam="2">  1        1 0.50557372E-01 0.19585464E+03</pdfrwt>
<pdfrwt beam="1">  1       -1 0.38708613E-01 0.19585464E+03</pdfrwt>
<totfact> 0.51431667E+02</totfact>
</mgrwt>
</event>
<event>
 7    1  0.1446636E-005  0.1716159E+03  0.7546771E-02  0.1201551E+00
          2   -1    0    0  501    0  0.00000000000E+00  0.00000000000E+00  0.40377192980E+03  0.40377192980E+03  0.00000000000E+00 0. -1.
         -2   -1    0    0    0  501 -0.00000000000E+00 -0.00000000000E+00 -0.56225209568E+02  0.56225209568E+02  0.00000000000E+00 0.  1.
         23    2    1    2    0    0 -0.96544905375E+01 -0.34783153659E+02  0.23556625345E+03  0.25507854116E+03  0.90942429192E+02 0.  0.
          5    1    1    2  502    0 -0.59456217304E+02  0.37527046346E+02  0.11572757563E+03  0.13549274056E+03  0.47000000000E+01 0. -1.
         -5    1    1    2    0  502  0.69110707842E+02 -0.27438926874E+01 -0.37471088507E+01  0.69425857649E+02  0.47000000000E+01 0.  1.
        -11    1    3    3    0    0  0.40885739985E+02 -0.14450622283E+02  0.10549689043E+03  0.11406164170E+03  0.00000000000E+00 0.  1.
         11    1    3    3    0    0 -0.50540230523E+02 -0.20332531376E+02  0.13006936303E+03  0.14101689946E+03  0.00000000000E+00 0. -1.
<mgrwt>
<rscale>  0 0.14912570E+03</rscale>
<asrwt>0</asrwt>
<pdfrwt beam="1">  1        2 0.62118757E-01 0.17161587E+03</pdfrwt>
<pdfrwt beam="2">  1       -2 0.86500325E-02 0.17161587E+03</pdfrwt>
<totfact> 0.64092542E+03</totfact>
</mgrwt>
</event>
<event>
 7    1  0.1446636E-005  0.1251443E+03  0.7546771E-02  0.1241289E+00
         -1   -1    0    0    0  501 -0.00000000000E+00  0.00000000000E+00  0.63664384235E+02  0.63664384235E+02  0.00000000000E+00 0.  1.
          1   -1    0    0  501    0  0.00000000000E+00 -0.00000000000E+00 -0.23991117847E+03  0.23991117847E+03  0.00000000000E+00 0. -1.
         23    2    1    2    0    0 -0.51820782612E+01  0.27831331981E+01 -0.13007278049E+03  0.17018462353E+03  0.10958685184E+03 0.  0.
          5    1    1    2  502    0  0.49413378592E+02 -0.42309126753E+02 -0.18695424663E+02  0.67848014664E+02  0.47000000000E+01 0. -1.
         -5    1    1    2    0  502 -0.44231300331E+02  0.39525993555E+02 -0.27478589084E+02  0.65542924512E+02  0.47000000000E+01 0. -1.
        -11    1    3    3    0    0 -0.50733963653E+02 -0.18766390408E+02 -0.41114104703E+02  0.67944698707E+02  0.00000000000E+00 0. -1.
         11    1    3    3    0    0  0.45551885391E+02  0.21549523606E+02 -0.88958675788E+02  0.10223992483E+03  0.00000000000E+00 0.  1.
<mgrwt>
<rscale>  0 0.12110280E+03</rscale>
<asrwt>0</asrwt>
<pdfrwt beam="2">  1        1 0.36909412E-01 0.12514433E+03</pdfrwt>
<pdfrwt beam="1">  1       -1 0.97945207E-02 0.12514433E+03</pdfrwt>
<totfact> 0.69263633E+03</totfact>
</mgrwt>
</event>
<event>
 7    1  0.1446636E-005  0.1481087E+03  0.7546771E-02  0.1209146E+00
          2   -1    0    0  501    0  0.00000000000E+00  0.00000000000E+00  0.91924485093E+03  0.91924485093E+03  0.00000000000E+00 0. -1.
         -2   -1    0    0    0  501 -0.00000000000E+00 -0.00000000000E+00 -0.21975121574E+02  0.21975121574E+02  0.00000000000E+00 0.  1.
         23    2    1    2    0    0 -0.93437588646E+02  0.97710763260E+01  0.52232820737E+03  0.53808559003E+03  0.88787888185E+02 0.  0.
          5    1    1    2  502    0  0.42424103079E+02  0.88880286139E+01  0.32888784744E+03  0.33176513947E+03  0.47000000000E+01 0. -1.
         -5    1    1    2    0  502  0.51013485566E+02 -0.18659104940E+02  0.46053674555E+02  0.71369243003E+02  0.47000000000E+01 0.  1.
        -11    1    3    3    0    0 -0.26661101657E+01  0.28563688920E+02  0.59361549360E+02  0.65930160098E+02  0.00000000000E+00 0.  1.
         11    1    3    3    0    0 -0.90771478480E+02 -0.18792612594E+02  0.46296665801E+03  0.47215542994E+03  0.00000000000E+00 0. -1.
<mgrwt>
<rscale>  0 0.14315461E+03</rscale>
<asrwt>0</asrwt>
<pdfrwt beam="1">  1        2 0.14142226E+00 0.14810869E+03</pdfrwt>
<pdfrwt beam="2">  1       -2 0.33807886E-02 0.14810869E+03</pdfrwt>
<totfact> 0.10112200E+04</totfact>
</mgrwt>
</event>
<event>
 7    1  0.1446636E-005  0.1605462E+03  0.7546771E-02  0.1195857E+00
          4   -1    0    0  501    0  0.00000000000E+00  0.00000000000E+00  0.37421988053E+03  0.37421988053E+03  0.00000000000E+00 0. -1.
         -4   -1    0    0    0  501 -0.00000000000E+00 -0.00000000000E+00 -0.60109687176E+02  0.60109687176E+02  0.00000000000E+00 0.  1.
         23    2    1    2    0    0 -0.26633258827E+02  0.97152520879E+02  0.17980340484E+03  0.22501304322E+03  0.90297632513E+02 0.  0.
          5    1    1    2  502    0  0.76915356042E+02 -0.61621066953E+02  0.78475166889E+02  0.12606970178E+03  0.47000000000E+01 0.  1.
         -5    1    1    2    0  502 -0.50282097215E+02 -0.35531453927E+02  0.55831621628E+02  0.83246822715E+02  0.47000000000E+01 0.  1.
        -11    1    3    3    0    0  0.31850239889E+02  0.32799394947E+02  0.42092120185E+02  0.62144868425E+02  0.00000000000E+00 0.  1.
         11    1    3    3    0    0 -0.58483498716E+02  0.64353125932E+02  0.13771128465E+03  0.16286817479E+03  0.00000000000E+00 0. -1.
<mgrwt>
<rscale>  0 0.15381945E+03</rscale>
<asrwt>0</asrwt>
<pdfrwt beam="1">  1        4 0.57572288E-01 0.16054624E+03</pdfrwt>
<pdfrwt beam="2">  1       -4 0.92476443E-02 0.16054624E+03</pdfrwt>
<totfact> 0.42976737E+02</totfact>
</mgrwt>
</event>
<event>
 7    1  0.1446636E-005  0.1506815E+03  0.7546771E-02  0.1208510E+00
          1   -1    0    0  501    0  0.00000000000E+00  0.00000000000E+00  0.11211827449E+04  0.11211827449E+04  0.00000000000E+00 0. -1.
         -1   -1    0    0    0  501 -0.00000000000E+00 -0.00000000000E+00 -0.16920532978E+02  0.16920532978E+02  0.00000000000E+00 0.  1.
         23    2    1    2    0    0  0.61825608432E+02 -0.57080240613E+02  0.47096350315E+03  0.48712542493E+03  0.91673325387E+02 0.  0.
          5    1    1    2  502    0 -0.32464248804E+02 -0.93820775430E+01  0.37308533044E+02  0.50556576895E+02  0.47000000000E+01 0.  1.
         -5    1    1    2    0  502 -0.29361359628E+02  0.66462318156E+02  0.59599017576E+03  0.60042127609E+03  0.47000000000E+01 0.  1.
        -11    1    3    3    0    0  0.71826383915E+02 -0.57531456712E+01  0.26380266363E+03  0.27346658562E+03  0.00000000000E+00 0.  1.
         11    1    3    3    0    0 -0.10000775483E+02 -0.51327094942E+02  0.20716083952E+03  0.21365883931E+03  0.00000000000E+00 0. -1.
<mgrwt>
<rscale>  0 0.14364228E+03</rscale>
<asrwt>0</asrwt>
<pdfrwt beam="1">  1        1 0.17248959E+00 0.15068149E+03</pdfrwt>
<pdfrwt beam="2">  1       -1 0.26031598E-02 0.15068149E+03</pdfrwt>
<totfact> 0.59363073E+03</totfact>
</mgrwt>
</event>
<event>
 7    1  0.1446636E-005  0.2120308E+03  0.7546771E-02  0.1143373E+00
          1   -1    0    0  501    0  0.00000000000E+00  0.00000000000E+00  0.51960151525E+02  0.51960151525E+02  0.00000000000E+00 0.  1.
         -1   -1    0    0    0  501 -0.00000000000E+00 -0.00000000000E+00 -0.10849507643E+04  0.10849507643E+04  0.00000000000E+00 0. -1.
         23    2    1    2    0    0 -0.75062583124E+02  0.15396251801E+03 -0.20904353418E+03  0.28611961880E+03  0.93948862393E+02 0.  0.
          5    1    1    2  502    0  0.13644902457E+02  0.21594423149E+02 -0.98501785803E+02  0.10186851467E+03  0.47000000000E+01 0. -1.
         -5    1    1    2    0  502  0.61417680666E+02 -0.17555694116E+03 -0.72544529281E+03  0.74892278237E+03  0.47000000000E+01 0. -1.
        -11    1    3    3    0    0  0.17131075615E+02  0.58956060853E+02 -0.83759790577E+02  0.10385082272E+03  0.00000000000E+00 0. -1.
         11    1    3    3    0    0 -0.92193658738E+02  0.95006457161E+02 -0.12528374360E+03  0.18226879608E+03  0.00000000000E+00 0.  1.
<mgrwt>
<rscale>  0 0.20773403E+03</rscale>
<asrwt>0</asrwt>
<pdfrwt beam="1">  1        1 0.79938695E-02 0.21203076E+03</pdfrwt>
<pdfrwt beam="2">  1       -1 0.16691550E+00 0.21203076E+03</pdfrwt>
<totfact> 0.24754067E+02</totfact>
</mgrwt>
</event>
<event>
 7    1  0.1446636E-005  0.1356824E+03  0.7546771E-02  0.1224765E+00
         -4   -1    0    0    0  501 -0.00000000000E+00  0.00000000000E+00  0.20643859929E+03  0.20643859929E+03  0.00000000000E+00 0.  1.
          4   -1    0    0  501    0  0.00000000000E+00 -0.00000000000E+00 -0.10892930204E+03  0.10892930204E+03  0.00000000000E+00 0. -1.
         23    2    1    2    0    0  0.70619378426E+02  0.33748802088E+02 -0.34829978775E+02  0.12583318313E+03  0.92167154141E+02 0.  0.
          5    1    1    2  502    0  0.11732292942E+02 -0.35686123981E+02  0.55497879440E+01  0.38262727147E+02  0.47000000000E+01 0. -1.
         -5    1    1    2    0  502 -0.82351671368E+02  0.19373218938E+01  0.12678948808E+03  0.15127199107E+03  0.47000000000E+01 0.  1.
        -11    1    3    3    0    0 -0.11029959257E+01 -0.26665673861E+02 -0.12310085138E+02  0.29390695102E+02  0.00000000000E+00 0. -1.
         11    1    3    3    0    0  0.71722374352E+02  0.60414475948E+02 -0.22519893637E+02  0.96442488024E+02  0.00000000000E+00 0.  1.
<mgrwt>
<rscale>  0 0.13183003E+03</rscale>
<asrwt>0</asrwt>
<pdfrwt beam="2">  1        4 0.16758354E-01 0.13568244E+03</pdfrwt>
<pdfrwt beam="1">  1       -4 0.31759784E-01 0.13568244E+03</pdfrwt>
<totfact> 0.49016448E+02</totfact>
</mgrwt>
</event>
<event>
 7    1  0.1446636E-005  0.1618109E+03  0.7546771E-02  0.1193676E+00
         -1   -1    0    0    0  501 -0.00000000000E+00  0.00000000000E+00  0.58113201188E+02  0.58113201188E+02  0.00000000000E+00 0.  1.
          1   -1    0    0  501    0  0.00000000000E+00 -0.00000000000E+00 -0.39594124432E+03  0.39594124432E+03  0.00000000000E+00 0. -1.
         23    2    1    2    0    0 -0.10243799594E+03  0.79949628604E+01 -0.18767548680E+03  0.23330900378E+03  0.93024407863E+02 0.  0.
          5    1    1    2  502    0  0.51618129717E+02 -0.62014685937E+02 -0.10931249425E+03  0.13594691606E+03  0.47000000000E+01 0.  1.
         -5    1    1    2    0  502  0.50819866220E+02  0.54019723077E+02 -0.40840062084E+02  0.84798525665E+02  0.47000000000E+01 0.  1.
        -11    1    3    3    0    0 -0.15059398331E+02  0.27357464911E+02 -0.74800697559E+01  0.32111801694E+02  0.00000000000E+00 0.  1.
         11    1    3    3    0    0 -0.87378597606E+02 -0.19362502051E+02 -0.18019541704E+03  0.20119720209E+03  0.00000000000E+00 0. -1.
<mgrwt>
<rscale>  0 0.15566807E+03</rscale>
<asrwt>0</asrwt>
<pdfrwt beam="2">  1        1 0.60914034E-01 0.16181088E+03</pdfrwt>
<pdfrwt beam="1">  1       -1 0.89404929E-02 0.16181088E+03</pdfrwt>
<totfact> 0.43320264E+03</totfact>
</mgrwt>
</event>
<event>
 7    1  0.1446636E-005  0.1429018E+03  0.7546771E-02  0.1219739E+00
         -1   -1    0    0    0  501 -0.00000000000E+00  0.00000000000E+00  0.52730004131E+03  0.52730004131E+03  0.00000000000E+00 0.  1.
          1   -1    0    0  501    0  0.00000000000E+00 -0.00000000000E+00 -0.42430810684E+02  0.42430810684E+02  0.00000000000E+00 0. -1.
         23    2    1    2    0    0  0.68343233239E+02 -0.11363584947E+02  0.79160117104E+02  0.13959041107E+03  0.91756362886E+02 0.  0.
          5    1    1    2  502    0 -0.64171307567E+02  0.21498164890E+02  0.82937932324E+02  0.10714904772E+03  0.47000000000E+01 0. -1.
         -5    1    1    2    0  502 -0.41719256720E+01 -0.10134579943E+02  0.32277118119E+03  0.32299139320E+03  0.47000000000E+01 0. -1.
        -11    1    3    3    0    0  0.22616784154E+01  0.34257287251E+02  0.18864422827E+02  0.39173248112E+02  0.00000000000E+00 0. -1.
         11    1    3    3    0    0  0.66081554823E+02 -0.45620872198E+02  0.60295694278E+02  0.10041716296E+03  0.00000000000E+00 0.  1.
<mgrwt>
<rscale>  0 0.13534078E+03</rscale>
<asrwt>0</asrwt>
<pdfrwt beam="2">  1        1 0.65278174E-02 0.14290176E+03</pdfrwt>
<pdfrwt beam="1">  1       -1 0.81123078E-01 0.14290176E+03</pdfrwt>
<totfact> 0.17779051E+03</totfact>
</mgrwt>
</event>
<event>
 7    1  0.1446636E-005  0.1475261E+03  0.7546771E-02  0.1212769E+00
          1   -1    0    0  501    0  0.00000000000E+00  0.00000000000E+00  0.10521932263E+03  0.10521932263E+03  0.00000000000E+00 0. -1.
         -1   -1    0    0    0  501 -0.00000000000E+00 -0.00000000000E+00 -0.17598577476E+03  0.17598577476E+03  0.00000000000E+00 0.  1.
         23    2    1    2    0    0  0.68771502461E+02  0.37551305502E+02 -0.94672319251E+01  0.12145044917E+03  0.92309062548E+02 0.  0.
          5    1    1    2  502    0  0.34156038697E+02 -0.25426022663E+01 -0.31883073621E+02  0.47028929280E+02  0.47000000000E+01 0. -1.
         -5    1    1    2    0  502 -0.10292754116E+03 -0.35008703236E+02 -0.29416146583E+02  0.11272571894E+03  0.47000000000E+01 0. -1.
        -11    1    3    3    0    0  0.18495934612E+02  0.12707278630E+02  0.40525015577E+02  0.46323335533E+02  0.00000000000E+00 0. -1.
         11    1    3    3    0    0  0.50275567848E+02  0.24844026872E+02 -0.49992247502E+02  0.75127113641E+02  0.00000000000E+00 0.  1.
<mgrwt>
<rscale>  0 0.14041729E+03</rscale>
<asrwt>0</asrwt>
<pdfrwt beam="1">  1        1 0.16187588E-01 0.14752611E+03</pdfrwt>
<pdfrwt beam="2">  1       -1 0.27074734E-01 0.14752611E+03</pdfrwt>
<totfact> 0.39532965E+03</totfact>
</mgrwt>
</event>
<event>
 7    1  0.1446636E-005  0.1461192E+03  0.7546771E-02  0.1215541E+00
         -2   -1    0    0    0  501 -0.00000000000E+00  0.00000000000E+00  0.12768781237E+03  0.12768781237E+03  0.00000000000E+00 0.  1.
          2   -1    0    0  501    0  0.00000000000E+00 -0.00000000000E+00 -0.13982619371E+03  0.13982619371E+03  0.00000000000E+00 0. -1.
         23    2    1    2    0    0 -0.14850069318E+02  0.74196911056E+02 -0.27245633521E+02  0.12061594486E+03  0.89889796077E+02 0.  0.
          5    1    1    2  502    0  0.12361463615E+02  0.21038765288E+02 -0.31999951289E+02  0.40515704486E+02  0.47000000000E+01 0. -1.
         -5    1    1    2    0  502  0.24886057027E+01 -0.95235676344E+02  0.47107203467E+02  0.10638235674E+03  0.47000000000E+01 0. -1.
        -11    1    3    3    0    0  0.35184870025E+02  0.44286633899E+02 -0.26144265953E+02  0.62312146994E+02  0.00000000000E+00 0. -1.
         11    1    3    3    0    0 -0.50034939343E+02  0.29910277157E+02 -0.11013675680E+01  0.58303797863E+02  0.00000000000E+00 0.  1.
<mgrwt>
<rscale>  0 0.13836888E+03</rscale>
<asrwt>0</asrwt>
<pdfrwt beam="2">  1        2 0.21511722E-01 0.14611917E+03</pdfrwt>
<pdfrwt beam="1">  1       -2 0.19644279E-01 0.14611917E+03</pdfrwt>
<totfact> 0.53007910E+03</totfact>
</mgrwt>
</event>
<event>
 7    1  0.1446636E-005  0.1778723E+03  0.7546771E-02  0.1174417E+00
         -2   -1    0    0    0  501 -0.00000000000E+00  0.00000000000E+00  0.27904560654E+03  0.27904560654E+03  0.00000000000E+00 0.  1.
          2   -1    0    0  501    0  0.00000000000E+00 -0.00000000000E+00 -0.11131163255E+03  0.11131163255E+03  0.00000000000E+00 0. -1.
         23    2    1    2    0    0  0.99381603527E+02  0.78606016042E+02  0.25076193889E+02  0.16234449746E+03  0.98342826271E+02 0.  0.
          5    1    1    2  502    0 -0.72684588472E+01 -0.34581840622E+01 -0.22564482684E+02  0.24413836442E+02  0.47000000000E+01 0.  1.
         -5    1    1    2    0  502 -0.92113144680E+02 -0.75147831980E+02  0.16522226278E+03  0.20359890519E+03  0.47000000000E+01 0.  1.
        -11    1    3    3    0    0  0.80297673146E+01  0.25923963430E+02 -0.32383724906E+02  0.42252037605E+02  0.00000000000E+00 0.  1.
         11    1    3    3    0    0  0.91351836212E+02  0.52682052612E+02  0.57459918794E+02  0.12009245986E+03  0.00000000000E+00 0. -1.
<mgrwt>
<rscale>  0 0.17333241E+03</rscale>
<asrwt>0</asrwt>
<pdfrwt beam="2">  1        2 0.17124867E-01 0.17787234E+03</pdfrwt>
<pdfrwt beam="1">  1       -2 0.42930093E-01 0.17787234E+03</pdfrwt>
<totfact> 0.17009410E+03</totfact>
</mgrwt>
</event>
<event>
 7    1  0.1446636E-005  0.1452468E+03  0.7546771E-02  0.1215881E+00
         -1   -1    0    0    0  501 -0.00000000000E+00  0.00000000000E+00  0.12897115136E+04  0.12897115136E+04  0.00000000000E+00 0.  1.
          1   -1    0    0  501    0  0.00000000000E+00 -0.00000000000E+00 -0.16169749217E+02  0.16169749217E+02  0.00000000000E+00 0. -1.
         23    2    1    2    0    0  0.71720206982E+02 -0.17998588966E+02  0.31979693747E+03  0.34113993244E+03  0.92944257468E+02 0.  0.
          5    1    1    2  502    0 -0.76094261918E+02 -0.38674045905E+02  0.65971853364E+03  0.66523428365E+03  0.47000000000E+01 0. -1.
         -5    1    1    2    0  502  0.43740549362E+01  0.56672634871E+02  0.29402629332E+03  0.29950704676E+03  0.47000000000E+01 0. -1.
        -11    1    3    3    0    0  0.65448722387E+02 -0.74786406999E+01  0.32202302190E+03  0.32869178870E+03  0.00000000000E+00 0.  1.
         11    1    3    3    0    0  0.62714845946E+01 -0.10519948266E+02 -0.22260844310E+01  0.12448143735E+02  0.00000000000E+00 0. -1.
<mgrwt>
<rscale>  0 0.13812010E+03</rscale>
<asrwt>0</asrwt>
<pdfrwt beam="2">  1        1 0.24876547E-02 0.14524682E+03</pdfrwt>
<pdfrwt beam="1">  1       -1 0.19841708E+00 0.14524682E+03</pdfrwt>
<totfact> 0.75050255E+02</totfact>
</mgrwt>
</event>
<event>
 7    1  0.1446636E-005  0.1618546E+03  0.7546771E-02  0.1193886E+00
         -2   -1    0    0    0  501 -0.00000000000E+00  0.00000000000E+00  0.96116295091E+02  0.96116295091E+02  0.00000000000E+00 0.  1.
          2   -1    0    0  501    0  0.00000000000E+00 -0.00000000000E+00 -0.23464813444E+03  0.23464813444E+03  0.00000000000E+00 0. -1.
         23    2    1    2    0    0  0.84168938726E+02 -0.59057186841E+02 -0.74554781398E+02  0.15672432119E+03  0.91825573007E+02 0.  0.
          5    1    1    2  502    0 -0.67993644274E+02 -0.21575632045E+02 -0.56888750737E+02  0.91362265297E+02  0.47000000000E+01 0.  1.
         -5    1    1    2    0  502 -0.16175294452E+02  0.80632818886E+02 -0.70883072173E+01  0.82677843050E+02  0.47000000000E+01 0.  1.
        -11    1    3    3    0    0 -0.10501460012E+02 -0.34234954238E+02 -0.39127571663E+01  0.36022526601E+02  0.00000000000E+00 0. -1.
         11    1    3    3    0    0  0.94670398738E+02 -0.24822232603E+02 -0.70642024232E+02  0.12070179459E+03  0.00000000000E+00 0.  1.
<mgrwt>
<rscale>  0 0.15548897E+03</rscale>
<asrwt>0</asrwt>
<pdfrwt beam="2">  1        2 0.36099712E-01 0.16185455E+03</pdfrwt>
<pdfrwt beam="1">  1       -2 0.14787123E-01 0.16185455E+03</pdfrwt>
<totfact> 0.48493932E+03</totfact>
</mgrwt>
</event>
<event>
 7    1  0.1446636E-005  0.2677471E+03  0.7546771E-02  0.1104685E+00
          1   -1    0    0  501    0  0.00000000000E+00  0.00000000000E+00  0.85468310476E+02  0.85468310476E+02  0.00000000000E+00 0. -1.
         -1   -1    0    0    0  501 -0.00000000000E+00 -0.00000000000E+00 -0.84427031039E+03  0.84427031039E+03  0.00000000000E+00 0.  1.
         23    2    1    2    0    0 -0.10203274976E+03 -0.21366360977E+03 -0.25742569387E+03  0.36134906570E+03  0.90787329799E+02 0.  0.
          5    1    1    2  502    0  0.47244513373E+02  0.31198111464E+01 -0.12330651782E+03  0.13216794090E+03  0.47000000000E+01 0.  1.
         -5    1    1    2    0  502  0.54788236383E+02  0.21054379863E+03 -0.37806978822E+03  0.43622161426E+03  0.47000000000E+01 0.  1.
        -11    1    3    3    0    0 -0.47283637891E+02 -0.17277937688E+03 -0.21908993618E+03  0.28299974492E+03  0.00000000000E+00 0.  1.
         11    1    3    3    0    0 -0.54749111865E+02 -0.40884232889E+02 -0.38335757692E+02  0.78349320780E+02  0.00000000000E+00 0. -1.
<mgrwt>
<rscale>  0 0.26413397E+03</rscale>
<asrwt>0</asrwt>
<pdfrwt beam="1">  1        1 0.13148970E-01 0.26774706E+03</pdfrwt>
<pdfrwt beam="2">  1       -1 0.12988774E+00 0.26774706E+03</pdfrwt>
<totfact> 0.24285219E+02</totfact>
</mgrwt>
</event>
<event>
 7    1  0.1446636E-005  0.2542889E+03  0.7546771E-02  0.1112974E+00
          3   -1    0    0  501    0  0.00000000000E+00  0.00000000000E+00  0.36989520505E+03  0.36989520505E+03  0.00000000000E+00 0. -1.
         -3   -1    0    0    0  501 -0.00000000000E+00 -0.00000000000E+00 -0.25705658138E+03  0.25705658138E+03  0.00000000000E+00 0.  1.
         23    2    1    2    0    0 -0.17208801933E+03  0.13936542064E+03  0.24304907083E+03  0.34126386957E+03  0.91384741470E+02 0.  0.
          5    1    1    2  502    0  0.72938394514E+01 -0.30993576433E+02  0.19849231004E+02  0.37813804959E+02  0.47000000000E+01 0. -1.
         -5    1    1    2    0  502  0.16479417988E+03 -0.10837184421E+03 -0.15005967817E+03  0.24787411190E+03  0.47000000000E+01 0. -1.
        -11    1    3    3    0    0 -0.45379694314E+02  0.94802790100E+02  0.11246159219E+03  0.15393016399E+03  0.00000000000E+00 0. -1.
         11    1    3    3    0    0 -0.12670832502E+03  0.44562630538E+02  0.13058747864E+03  0.18733370558E+03  0.00000000000E+00 0.  1.
<mgrwt>
<rscale>  0 0.25052341E+03</rscale>
<asrwt>0</asrwt>
<pdfrwt beam="1">  1        3 0.56906954E-01 0.25428886E+03</pdfrwt>
<pdfrwt beam="2">  1       -3 0.39547167E-01 0.25428886E+03</pdfrwt>
<totfact> 0.48454939E+01</totfact>
</mgrwt>
</event>
<event>
 7    1  0.1446636E-005  0.1306404E+03  0.7546771E-02  0.1240053E+00
         -1   -1    0    0    0  501 -0.00000000000E+00  0.00000000000E+00  0.46498251733E+03  0.46498251733E+03  0.00000000000E+00 0.  1.
          1   -1    0    0  501    0  0.00000000000E+00 -0.00000000000E+00 -0.28621835248E+02  0.28621835248E+02  0.00000000000E+00 0. -1.
         23    2    1    2    0    0 -0.32374064275E+02  0.19823093657E+02  0.16376458864E+03  0.19132047117E+03  0.91343566357E+02 0.  0.
          5    1    1    2  502    0  0.21367683272E+02  0.14396140468E+02  0.26364605982E+03  0.26494369517E+03  0.47000000000E+01 0.  1.
         -5    1    1    2    0  502  0.11006381003E+02 -0.34219234124E+02  0.89500336146E+01  0.37340186241E+02  0.47000000000E+01 0.  1.
        -11    1    3    3    0    0  0.19277461339E+02 -0.14563942850E+02  0.97871150813E+02  0.10080918167E+03  0.00000000000E+00 0.  1.
         11    1    3    3    0    0 -0.51651525614E+02  0.34387036507E+02  0.65893437826E+02  0.90511289498E+02  0.00000000000E+00 0. -1.
<mgrwt>
<rscale>  0 0.12186429E+03</rscale>
<asrwt>0</asrwt>
<pdfrwt beam="2">  1        1 0.44033596E-02 0.13064040E+03</pdfrwt>
<pdfrwt beam="1">  1       -1 0.71535766E-01 0.13064040E+03</pdfrwt>
<totfact> 0.39020603E+03</totfact>
</mgrwt>
</event>
<event>
 7    1  0.1446636E-005  0.1283464E+03  0.7546771E-02  0.1244605E+00
          2   -1    0    0  501    0  0.00000000000E+00  0.00000000000E+00  0.10716629732E+03  0.10716629732E+03  0.00000000000E+00 0. -1.
         -2   -1    0    0    0  501 -0.00000000000E+00 -0.00000000000E+00 -0.13369943138E+03  0.13369943138E+03  0.00000000000E+00 0.  1.
         23    2    1    2    0    0 -0.27326518657E+02 -0.10042706315E+02  0.31211781380E+02  0.10012743607E+03  0.90574464310E+02 0.  0.
          5    1    1    2  502    0  0.54717141088E+02 -0.38717012384E+02 -0.11833475471E+02  0.68228247218E+02  0.47000000000E+01 0.  1.
         -5    1    1    2    0  502 -0.27390622431E+02  0.48759718699E+02 -0.45911439973E+02  0.72510045409E+02  0.47000000000E+01 0.  1.
        -11    1    3    3    0    0  0.26976503075E+02 -0.20498400596E+02 -0.46769157157E+01  0.34202188318E+02  0.00000000000E+00 0.  1.
         11    1    3    3    0    0 -0.54303021731E+02  0.10455694281E+02  0.35888697096E+02  0.65925247753E+02  0.00000000000E+00 0. -1.
<mgrwt>
<rscale>  0 0.11909040E+03</rscale>
<asrwt>0</asrwt>
<pdfrwt beam="1">  1        2 0.16487123E-01 0.12834637E+03</pdfrwt>
<pdfrwt beam="2">  1       -2 0.20569143E-01 0.12834637E+03</pdfrwt>
<totfact> 0.65810070E+03</totfact>
</mgrwt>
</event>
<event>
 7    1  0.1446636E-005  0.1329279E+03  0.7546771E-02  0.1235319E+00
          2   -1    0    0  501    0  0.00000000000E+00  0.00000000000E+00  0.40003498067E+03  0.40003498067E+03  0.00000000000E+00 0. -1.
         -2   -1    0    0    0  501 -0.00000000000E+00 -0.00000000000E+00 -0.53760265778E+02  0.53760265778E+02  0.00000000000E+00 0.  1.
         23    2    1    2    0    0 -0.24174297758E+02  0.38214576887E+02  0.29278135440E+03  0.31050751486E+03  0.93001315799E+02 0.  0.
          5    1    1    2  502    0 -0.33858476183E+02 -0.11908863860E+02  0.68664411402E+02  0.77621574585E+02  0.47000000000E+01 0. -1.
         -5    1    1    2    0  502  0.58032773941E+02 -0.26305713027E+02 -0.15171050916E+02  0.65666156999E+02  0.47000000000E+01 0. -1.
        -11    1    3    3    0    0  0.28514181790E+02  0.36066299836E+02  0.91073140322E+02  0.10202035794E+03  0.00000000000E+00 0.  1.
         11    1    3    3    0    0 -0.52688479548E+02  0.21482770509E+01  0.20170821408E+03  0.20848715692E+03  0.00000000000E+00 0. -1.
<mgrwt>
<rscale>  0 0.12484026E+03</rscale>
<asrwt>0</asrwt>
<pdfrwt beam="1">  1        2 0.61543841E-01 0.13292793E+03</pdfrwt>
<pdfrwt beam="2">  1       -2 0.82708104E-02 0.13292793E+03</pdfrwt>
<totfact> 0.68376158E+03</totfact>
</mgrwt>
</event>
<event>
 7    1  0.1446636E-005  0.1516018E+03  0.7546771E-02  0.1208952E+00
         -2   -1    0    0    0  501 -0.00000000000E+00  0.00000000000E+00  0.52352254262E+02  0.52352254262E+02  0.00000000000E+00 0. -1.
          2   -1    0    0  501    0  0.00000000000E+00 -0.00000000000E+00 -0.39215255316E+03  0.39215255316E+03  0.00000000000E+00 0.  1.
         23    2    1    2    0    0 -0.72659891103E+02 -0.45589456721E+02 -0.22071958247E+03  0.25172691645E+03  0.85389976247E+02 0.  0.
          5    1    1    2  502    0  0.55785796810E+02 -0.11903499901E+02  0.23544760473E+01  0.57283348305E+02  0.47000000000E+01 0.  1.
         -5    1    1    2    0  502  0.16874094293E+02  0.57492956622E+02 -0.12143519248E+03  0.13549454266E+03  0.47000000000E+01 0.  1.
        -11    1    3    3    0    0 -0.83631630600E+01 -0.36053714511E+02 -0.15475212939E+03  0.15911641769E+03  0.00000000000E+00 0.  1.
         11    1    3    3    0    0 -0.64296728043E+02 -0.95357422096E+01 -0.65967453078E+02  0.92610498768E+02  0.00000000000E+00 0. -1.
<mgrwt>
<rscale>  0 0.14330302E+03</rscale>
<asrwt>0</asrwt>
<pdfrwt beam="2">  1        2 0.60331160E-01 0.15160178E+03</pdfrwt>
<pdfrwt beam="1">  1       -2 0.80541932E-02 0.15160178E+03</pdfrwt>
<totfact> 0.73368820E+03</totfact>
</mgrwt>
</event>
<event>
 7    1  0.1446636E-005  0.2703597E+03  0.7546771E-02  0.1103115E+00
          2   -1    0    0  501    0  0.00000000000E+00  0.00000000000E+00  0.15114466914E+04  0.15114466914E+04  0.00000000000E+00 0. -1.
         -2   -1    0    0    0  501 -0.00000000000E+00 -0.00000000000E+00 -0.48618701619E+02  0.48618701619E+02  0.00000000000E+00 0.  1.
         23    2    1    2    0    0  0.97446509981E+02  0.21904107541E+03  0.89735013582E+03  0.93328028555E+03  0.91104391401E+02 0.  0.
          5    1    1    2  502    0 -0.20678817263E+02 -0.11098802527E+03  0.13347865759E+03  0.17488452553E+03  0.47000000000E+01 0.  1.
         -5    1    1    2    0  502 -0.76767692717E+02 -0.10805305014E+03  0.43199919636E+03  0.45190058193E+03  0.47000000000E+01 0.  1.
        -11    1    3    3    0    0  0.10942584996E+03  0.18674380118E+03  0.69195450068E+03  0.72501606529E+03  0.00000000000E+00 0.  1.
         11    1    3    3    0    0 -0.11979339981E+02  0.32297274227E+02  0.20539563514E+03  0.20826422027E+03  0.00000000000E+00 0. -1.
<mgrwt>
<rscale>  0 0.26681727E+03</rscale>
<asrwt>0</asrwt>
<pdfrwt beam="1">  1        2 0.23253022E+00 0.27035970E+03</pdfrwt>
<pdfrwt beam="2">  1       -2 0.74798014E-02 0.27035970E+03</pdfrwt>
<totfact> 0.14146600E+03</totfact>
</mgrwt>
</event>
<event>
 7    1  0.1446636E-005  0.1253392E+03  0.7546771E-02  0.1251161E+00
         -3   -1    0    0    0  501 -0.00000000000E+00  0.00000000000E+00  0.32652982622E+03  0.32652982622E+03  0.00000000000E+00 0.  1.
          3   -1    0    0  501    0  0.00000000000E+00 -0.00000000000E+00 -0.36819115941E+02  0.36819115941E+02  0.00000000000E+00 0. -1.
         23    2    1    2    0    0 -0.37899417812E+01  0.82100527236E+01  0.86034405033E+02  0.12419634533E+03  0.89112539636E+02 0.  0.
          5    1    1    2  502    0 -0.18674455504E+02 -0.62971350346E+02  0.10202257468E+03  0.12142825865E+03  0.47000000000E+01 0. -1.
         -5    1    1    2    0  502  0.22464397286E+02  0.54761297623E+02  0.10165373056E+03  0.11772433818E+03  0.47000000000E+01 0. -1.
        -11    1    3    3    0    0 -0.11132671198E+02 -0.18803550486E+02 -0.10096981712E+02  0.24071952945E+02  0.00000000000E+00 0. -1.
         11    1    3    3    0    0  0.73427294170E+01  0.27013603210E+02  0.96131386745E+02  0.10012439239E+03  0.00000000000E+00 0.  1.
<mgrwt>
<rscale>  0 0.11524077E+03</rscale>
<asrwt>0</asrwt>
<pdfrwt beam="2">  1        3 0.56644796E-02 0.12533925E+03</pdfrwt>
<pdfrwt beam="1">  1       -3 0.50235356E-01 0.12533925E+03</pdfrwt>
<totfact> 0.16740119E+03</totfact>
</mgrwt>
</event>
<event>
 7    1  0.1446636E-005  0.2082783E+03  0.7546771E-02  0.1146857E+00
         -1   -1    0    0    0  501 -0.00000000000E+00  0.00000000000E+00  0.23769336375E+03  0.23769336375E+03  0.00000000000E+00 0.  1.
          1   -1    0    0  501    0  0.00000000000E+00 -0.00000000000E+00 -0.20941879955E+03  0.20941879955E+03  0.00000000000E+00 0. -1.
         23    2    1    2    0    0  0.76421790023E+02  0.14803482187E+03 -0.87458257053E+02  0.20883935151E+03  0.90610868752E+02 0.  0.
          5    1    1    2  502    0 -0.47293641265E+02 -0.16292808804E+03  0.11537319398E+03  0.20522016047E+03  0.47000000000E+01 0. -1.
         -5    1    1    2    0  502 -0.29128148758E+02  0.14893266169E+02  0.35962728109E+00  0.33052651316E+02  0.47000000000E+01 0. -1.
        -11    1    3    3    0    0  0.66696180338E+02  0.46241908468E+02 -0.65402334546E+02  0.10423128098E+03  0.00000000000E+00 0. -1.
         11    1    3    3    0    0  0.97256096849E+01  0.10179291340E+03 -0.22055922507E+02  0.10460807053E+03  0.00000000000E+00 0.  1.
<mgrwt>
<rscale>  0 0.20345478E+03</rscale>
<asrwt>0</asrwt>
<pdfrwt beam="2">  1        1 0.32218277E-01 0.20827829E+03</pdfrwt>
<pdfrwt beam="1">  1       -1 0.36568210E-01 0.20827829E+03</pdfrwt>
<totfact> 0.99942280E+02</totfact>
</mgrwt>
</event>
<event>
 7    1  0.1446636E-005  0.1295981E+03  0.7546771E-02  0.1242608E+00
          2   -1    0    0  501    0  0.00000000000E+00  0.00000000000E+00  0.81311501074E+02  0.81311501074E+02  0.00000000000E+00 0. -1.
         -2   -1    0    0    0  501 -0.00000000000E+00 -0.00000000000E+00 -0.16411094059E+03  0.16411094059E+03  0.00000000000E+00 0.  1.
         23    2    1    2    0    0 -0.25942533404E+02  0.22255236247E+02 -0.98773113588E+01  0.96717004812E+02  0.89935016318E+02 0.  0.
          5    1    1    2  502    0 -0.32484003556E+02 -0.27904801834E+02  0.12586073839E+02  0.44881930742E+02  0.47000000000E+01 0.  1.
         -5    1    1    2    0  502  0.58426536961E+02  0.56495655868E+01 -0.85508201998E+02  0.10382350611E+03  0.47000000000E+01 0.  1.
        -11    1    3    3    0    0  0.31221107620E+02  0.19115721360E+02 -0.14287507531E+02  0.39297598343E+02  0.00000000000E+00 0.  1.
         11    1    3    3    0    0 -0.57163641024E+02  0.31395148876E+01  0.44101961717E+01  0.57419406468E+02  0.00000000000E+00 0. -1.
<mgrwt>
<rscale>  0 0.12029721E+03</rscale>
<asrwt>0</asrwt>
<pdfrwt beam="1">  1        2 0.12509462E-01 0.12959811E+03</pdfrwt>
<pdfrwt beam="2">  1       -2 0.25247837E-01 0.12959811E+03</pdfrwt>
<totfact> 0.64019130E+03</totfact>
</mgrwt>
</event>
<event>
 7    1  0.1446636E-005  0.1300280E+03  0.7546771E-02  0.1241278E+00
          4   -1    0    0  501    0  0.00000000000E+00  0.00000000000E+00  0.90415282664E+02  0.90415282664E+02  0.00000000000E+00 0. -1.
         -4   -1    0    0    0  501 -0.00000000000E+00 -0.00000000000E+00 -0.14759390492E+03  0.14759390492E+03  0.00000000000E+00 0.  1.
         23    2    1    2    0    0  0.13128902395E+02  0.33363880355E+02 -0.44063160646E+02  0.10732142928E+03  0.91053887707E+02 0.  0.
          5    1    1    2  502    0 -0.42685797073E+02 -0.46469857503E+02 -0.50559784949E+02  0.80993251461E+02  0.47000000000E+01 0.  1.
         -5    1    1    2    0  502  0.29556894678E+02  0.13105977148E+02  0.37444323338E+02  0.49694506842E+02  0.47000000000E+01 0.  1.
        -11    1    3    3    0    0 -0.26906894509E+01  0.35971271683E+02 -0.68892951901E+02  0.77765101542E+02  0.00000000000E+00 0.  1.
         11    1    3    3    0    0  0.15819591846E+02 -0.26073913280E+01  0.24829791255E+02  0.29556327740E+02  0.00000000000E+00 0. -1.
<mgrwt>
<rscale>  0 0.12110929E+03</rscale>
<asrwt>0</asrwt>
<pdfrwt beam="1">  1        4 0.13910044E-01 0.13002798E+03</pdfrwt>
<pdfrwt beam="2">  1       -4 0.22706755E-01 0.13002798E+03</pdfrwt>
<totfact> 0.12572055E+03</totfact>
</mgrwt>
</event>
<event>
 7    1  0.1446636E-005  0.1344161E+03  0.7546771E-02  0.1233470E+00
         -1   -1    0    0    0  501 -0.00000000000E+00  0.00000000000E+00  0.11986712190E+03  0.11986712190E+03  0.00000000000E+00 0.  1.
          1   -1    0    0  501    0  0.00000000000E+00 -0.00000000000E+00 -0.13995310608E+03  0.13995310608E+03  0.00000000000E+00 0. -1.
         23    2    1    2    0    0  0.31656122534E+02  0.38003852201E+02 -0.59541081439E+02  0.11973310867E+03  0.91348092791E+02 0.  0.
          5    1    1    2  502    0 -0.96289644537E+01  0.35669363107E+02  0.49981821505E+02  0.62332117739E+02  0.47000000000E+01 0. -1.
         -5    1    1    2    0  502 -0.22027158080E+02 -0.73673215308E+02 -0.10526724247E+02  0.77755001577E+02  0.47000000000E+01 0. -1.
        -11    1    3    3    0    0 -0.96283686136E+00  0.59424794516E+02 -0.54031989275E+02  0.80322407354E+02  0.00000000000E+00 0. -1.
         11    1    3    3    0    0  0.32618959395E+02 -0.21420942315E+02 -0.55090921647E+01  0.39410701316E+02  0.00000000000E+00 0.  1.
<mgrwt>
<rscale>  0 0.12602904E+03</rscale>
<asrwt>0</asrwt>
<pdfrwt beam="2">  1        1 0.21531247E-01 0.13441613E+03</pdfrwt>
<pdfrwt beam="1">  1       -1 0.18441096E-01 0.13441613E+03</pdfrwt>
<totfact> 0.50974756E+03</totfact>
</mgrwt>
</event>
<event>
 7    1  0.1446636E-005  0.1606023E+03  0.7546771E-02  0.1195689E+00
          2   -1    0    0  501    0  0.00000000000E+00  0.00000000000E+00  0.18737715007E+03  0.18737715007E+03  0.00000000000E+00 0. -1.
         -2   -1    0    0    0  501 -0.00000000000E+00 -0.00000000000E+00 -0.11893515373E+03  0.11893515373E+03  0.00000000000E+00 0.  1.
         23    2    1    2    0    0  0.10077156518E+03 -0.40080993743E+01  0.50399898417E+02  0.14469975413E+03  0.90702237426E+02 0.  0.
          5    1    1    2  502    0 -0.10433908091E+03 -0.29606764322E+02  0.45598441205E+02  0.11774766298E+03  0.47000000000E+01 0.  1.
         -5    1    1    2    0  502  0.35675157263E+01  0.33614863696E+02 -0.27556343277E+02  0.43864886693E+02  0.47000000000E+01 0.  1.
        -11    1    3    3    0    0  0.36537659283E+02  0.41781362228E+02  0.30552971337E+02  0.63357452861E+02  0.00000000000E+00 0.  1.
         11    1    3    3    0    0  0.64233905896E+02 -0.45789461602E+02  0.19846927081E+02  0.81342301265E+02  0.00000000000E+00 0. -1.
<mgrwt>
<rscale>  0 0.15396066E+03</rscale>
<asrwt>0</asrwt>
<pdfrwt beam="1">  1        2 0.28827254E-01 0.16060230E+03</pdfrwt>
<pdfrwt beam="2">  1       -2 0.18297716E-01 0.16060230E+03</pdfrwt>
<totfact> 0.43445568E+03</totfact>
</mgrwt>
</event>
<event>
 7    1  0.1446636E-005  0.1493196E+03  0.7546771E-02  0.1210307E+00
         -1   -1    0    0    0  501 -0.00000000000E+00  0.00000000000E+00  0.17872080180E+03  0.17872080180E+03  0.00000000000E+00 0. -1.
          1   -1    0    0  501    0  0.00000000000E+00 -0.00000000000E+00 -0.10666074828E+03  0.10666074828E+03  0.00000000000E+00 0.  1.
         23    2    1    2    0    0  0.61018904987E+02  0.54280104457E+02  0.92879537702E+01  0.12340415396E+03  0.92047176077E+02 0.  0.
          5    1    1    2  502    0 -0.94187014365E+02 -0.63398787420E+02  0.55679098891E+02  0.12654189810E+03  0.47000000000E+01 0.  1.
         -5    1    1    2    0  502  0.33168109377E+02  0.91186829630E+01  0.70930008611E+01  0.35435498019E+02  0.47000000000E+01 0.  1.
        -11    1    3    3    0    0  0.76604127747E+02  0.24159553180E+02 -0.14971354437E+02  0.81706902104E+02  0.00000000000E+00 0.  1.
         11    1    3    3    0    0 -0.15585222760E+02  0.30120551277E+02  0.24259308207E+02  0.41697251857E+02  0.00000000000E+00 0. -1.
<mgrwt>
<rscale>  0 0.14226945E+03</rscale>
<asrwt>0</asrwt>
<pdfrwt beam="2">  1        1 0.16409346E-01 0.14931959E+03</pdfrwt>
<pdfrwt beam="1">  1       -1 0.27495508E-01 0.14931959E+03</pdfrwt>
<totfact> 0.37886002E+03</totfact>
</mgrwt>
</event>
<event>
 7    1  0.1446636E-005  0.1765973E+03  0.7546771E-02  0.1198382E+00
          2   -1    0    0  501    0  0.00000000000E+00  0.00000000000E+00  0.14790483398E+03  0.14790483398E+03  0.00000000000E+00 0. -1.
         -2   -1    0    0    0  501 -0.00000000000E+00 -0.00000000000E+00 -0.22752790452E+03  0.22752790452E+03  0.00000000000E+00 0.  1.
         23    2    1    2    0    0  0.25122470611E+02  0.22169532230E+02  0.89151637479E+02  0.13115521467E+03  0.90172330461E+02 0.  0.
          5    1    1    2  502    0 -0.99776863528E+02 -0.60042053086E+01 -0.95341744290E+02  0.13821581379E+03  0.47000000000E+01 0. -1.
         -5    1    1    2    0  502  0.74654392918E+02 -0.16165326922E+02 -0.73432963731E+02  0.10606171005E+03  0.47000000000E+01 0.  1.
        -11    1    3    3    0    0  0.12006503186E+02  0.53596211738E+02  0.29192884822E+02  0.62200760089E+02  0.00000000000E+00 0. -1.
         11    1    3    3    0    0  0.13115967424E+02 -0.31426679507E+02  0.59958752657E+02  0.68954454581E+02  0.00000000000E+00 0.  1.
<mgrwt>
<rscale>  0 0.15171458E+03</rscale>
<asrwt>0</asrwt>
<pdfrwt beam="1">  1        2 0.22754590E-01 0.17659730E+03</pdfrwt>
<pdfrwt beam="2">  1       -2 0.35004293E-01 0.17659730E+03</pdfrwt>
<totfact> 0.18086312E+03</totfact>
</mgrwt>
</event>
<event>
 7    1  0.1446636E-005  0.1861742E+03  0.7546771E-02  0.1166710E+00
         -3   -1    0    0    0  501 -0.00000000000E+00  0.00000000000E+00  0.39474787517E+03  0.39474787517E+03  0.00000000000E+00 0.  1.
          3   -1    0    0  501    0  0.00000000000E+00 -0.00000000000E+00 -0.82618471899E+02  0.82618471899E+02  0.00000000000E+00 0. -1.
         23    2    1    2    0    0  0.13518218851E+03 -0.27587237933E+02  0.97410939267E+02  0.19317478741E+03  0.93767412319E+02 0.  0.
          5    1    1    2  502    0 -0.88178057418E+02  0.65064525315E+02  0.18924149295E+03  0.21873087326E+03  0.47000000000E+01 0. -1.
         -5    1    1    2    0  502 -0.47004131096E+02 -0.37477287382E+02  0.25476971054E+02  0.65460686398E+02  0.47000000000E+01 0. -1.
        -11    1    3    3    0    0  0.11392089714E+03 -0.35189137878E+02  0.31238642774E+02  0.12325623324E+03  0.00000000000E+00 0. -1.
         11    1    3    3    0    0  0.21261291371E+02  0.76018999455E+01  0.66172296494E+02  0.69918554167E+02  0.00000000000E+00 0.  1.
<mgrwt>
<rscale>  0 0.18113362E+03</rscale>
<asrwt>0</asrwt>
<pdfrwt beam="2">  1        3 0.12710534E-01 0.18617418E+03</pdfrwt>
<pdfrwt beam="1">  1       -3 0.60730442E-01 0.18617418E+03</pdfrwt>
<totfact> 0.32039389E+02</totfact>
</mgrwt>
</event>
<event>
 6    1  0.1446636E-005  0.2138669E+03  0.7546771E-02  0.1145536E+00
         -1   -1    0    0    0  501 -0.00000000000E+00  0.00000000000E+00  0.96969560122E+03  0.96969560122E+03  0.00000000000E+00 0.  1.
          1   -1    0    0  501    0  0.00000000000E+00 -0.00000000000E+00 -0.70815825268E+02  0.70815825268E+02  0.00000000000E+00 0. -1.
          5    1    1    2  502    0  0.16925176089E+03  0.68734840321E+02  0.73506963912E+03  0.75744313396E+03  0.47000000000E+01 0.  1.
         -5    1    1    2    0  502 -0.38805950861E+00 -0.28755618554E+02  0.77411109770E+02  0.82714001864E+02  0.47000000000E+01 0.  1.
        -11    1    1    2    0    0 -0.83301446296E+02 -0.40284405047E+02  0.27685127804E+02  0.96583800642E+02  0.00000000000E+00 0. -1.
         11    1    1    2    0    0 -0.85562255083E+02  0.30518327953E+00  0.58713899257E+02  0.10377049001E+03  0.00000000000E+00 0.  1.
<mgrwt>
<rscale>  0 0.20506334E+03</rscale>
<asrwt>0</asrwt>
<pdfrwt beam="2">  1        1 0.10894743E-01 0.21386689E+03</pdfrwt>
<pdfrwt beam="1">  1       -1 0.14918393E+00 0.21386689E+03</pdfrwt>
<totfact> 0.22045479E+02</totfact>
</mgrwt>
</event>
<event>
 7    1  0.1446636E-005  0.1640277E+03  0.7546771E-02  0.1191720E+00
          4   -1    0    0  501    0  0.00000000000E+00  0.00000000000E+00  0.21262506105E+02  0.21262506105E+02  0.00000000000E+00 0. -1.
         -4   -1    0    0    0  501 -0.00000000000E+00 -0.00000000000E+00 -0.10833781121E+04  0.10833781121E+04  0.00000000000E+00 0.  1.
         23    2    1    2    0    0 -0.10582291363E+03  0.89863569703E+01 -0.52213779410E+03  0.54029931380E+03  0.89533394950E+02 0.  0.
          5    1    1    2  502    0  0.55043919317E+01  0.57439238374E+01  0.46439553181E+01  0.10341533377E+02  0.47000000000E+01 0.  1.
         -5    1    1    2    0  502  0.10031852170E+03 -0.14730280808E+02 -0.54462176725E+03  0.55399977105E+03  0.47000000000E+01 0.  1.
        -11    1    3    3    0    0 -0.85308947995E+02  0.83187519623E+01 -0.50846134846E+03  0.51563529856E+03  0.00000000000E+00 0.  1.
         11    1    3    3    0    0 -0.20513965640E+02  0.66760500806E+00 -0.13676445635E+02  0.24664015243E+02  0.00000000000E+00 0. -1.
<mgrwt>
<rscale>  0 0.15735108E+03</rscale>
<asrwt>0</asrwt>
<pdfrwt beam="1">  1        4 0.32711549E-02 0.16402765E+03</pdfrwt>
<pdfrwt beam="2">  1       -4 0.16667355E+00 0.16402765E+03</pdfrwt>
<totfact> 0.19631227E+02</totfact>
</mgrwt>
</event>
<event>
 7    1  0.1446636E-005  0.1308343E+03  0.7546771E-02  0.1240478E+00
         -1   -1    0    0    0  501 -0.00000000000E+00  0.00000000000E+00  0.45854364056E+03  0.45854364056E+03  0.00000000000E+00 0.  1.
          1   -1    0    0  501    0  0.00000000000E+00 -0.00000000000E+00 -0.34492414311E+02  0.34492414311E+02  0.00000000000E+00 0. -1.
         23    2    1    2    0    0  0.23295153317E+02  0.25983441962E+02  0.84394463145E+02  0.12905207742E+03  0.91182289143E+02 0.  0.
          5    1    1    2  502    0 -0.48576406914E+02  0.28498585370E+02  0.83427580393E+02  0.10076749400E+03  0.47000000000E+01 0. -1.
         -5    1    1    2    0  502  0.25281253598E+02 -0.54482027332E+02  0.25622918271E+03  0.26321648345E+03  0.47000000000E+01 0.  1.
        -11    1    3    3    0    0  0.55309831537E+01  0.50953574477E+02  0.84004423578E+02  0.98405293086E+02  0.00000000000E+00 0. -1.
         11    1    3    3    0    0  0.17764170163E+02 -0.24970132514E+02  0.39003956704E+00  0.30646784337E+02  0.00000000000E+00 0.  1.
<mgrwt>
<rscale>  0 0.12160161E+03</rscale>
<asrwt>0</asrwt>
<pdfrwt beam="2">  1        1 0.53065256E-02 0.13083432E+03</pdfrwt>
<pdfrwt beam="1">  1       -1 0.70545171E-01 0.13083432E+03</pdfrwt>
<totfact> 0.31086293E+03</totfact>
</mgrwt>
</event>
<event>
 7    1  0.1446636E-005  0.1784817E+03  0.7546771E-02  0.1174971E+00
         -2   -1    0    0    0  501 -0.00000000000E+00  0.00000000000E+00  0.47771004580E+02  0.47771004580E+02  0.00000000000E+00 0.  1.
          2   -1    0    0  501    0  0.00000000000E+00 -0.00000000000E+00 -0.60444602218E+03  0.60444602218E+03  0.00000000000E+00 0. -1.
         23    2    1    2    0    0 -0.99782784389E+02 -0.79223321478E+02 -0.31414295125E+03  0.35108996160E+03  0.91353317350E+02 0.  0.
          5    1    1    2  502    0  0.12946430943E+03  0.61455824453E+02 -0.20031336944E+03  0.24634399070E+03  0.47000000000E+01 0. -1.
         -5    1    1    2    0  502 -0.29681525037E+02  0.17767497025E+02 -0.42218696906E+02  0.54783074462E+02  0.47000000000E+01 0. -1.
        -11    1    3    3    0    0 -0.10452880973E+03 -0.32006743075E+02 -0.21966115336E+03  0.24536040015E+03  0.00000000000E+00 0.  1.
         11    1    3    3    0    0  0.47460253388E+01 -0.47216578403E+02 -0.94481797887E+02  0.10572956145E+03  0.00000000000E+00 0. -1.
<mgrwt>
<rscale>  0 0.17278830E+03</rscale>
<asrwt>0</asrwt>
<pdfrwt beam="2">  1        2 0.92991695E-01 0.17848167E+03</pdfrwt>
<pdfrwt beam="1">  1       -2 0.73493854E-02 0.17848167E+03</pdfrwt>
<totfact> 0.52874149E+03</totfact>
</mgrwt>
</event>
<event>
 6    1  0.1446636E-005  0.1467008E+03  0.7546771E-02  0.1226128E+00
         -2   -1    0    0    0  501 -0.00000000000E+00  0.00000000000E+00  0.12249957489E+03  0.12249957489E+03  0.00000000000E+00 0. -1.
          2   -1    0    0  501    0  0.00000000000E+00 -0.00000000000E+00 -0.11785724511E+03  0.11785724511E+03  0.00000000000E+00 0.  1.
          5    1    1    2  502    0 -0.12129633652E+02 -0.19690447707E+02 -0.44570338464E+02  0.50432596742E+02  0.47000000000E+01 0.  1.
         -5    1    1    2    0  502  0.74900076676E+02 -0.24555031663E+02  0.55817428992E+02  0.96698740661E+02  0.47000000000E+01 0.  1.
        -11    1    1    2    0    0 -0.43295156061E+02  0.45375974680E+02 -0.23937107285E+02  0.67129983776E+02  0.00000000000E+00 0.  1.
         11    1    1    2    0    0 -0.19475286963E+02 -0.11304953105E+01  0.17332346539E+02  0.26095498817E+02  0.00000000000E+00 0. -1.
<mgrwt>
<rscale>  0 0.13089857E+03</rscale>
<asrwt>0</asrwt>
<pdfrwt beam="2">  1        2 0.18131884E-01 0.14670083E+03</pdfrwt>
<pdfrwt beam="1">  1       -2 0.18846089E-01 0.14670083E+03</pdfrwt>
<totfact> 0.69037826E+03</totfact>
</mgrwt>
</event>
<event>
 7    1  0.1446636E-005  0.1374539E+03  0.7546771E-02  0.1226962E+00
          1   -1    0    0  501    0  0.00000000000E+00  0.00000000000E+00  0.25937450629E+02  0.25937450629E+02  0.00000000000E+00 0. -1.
         -1   -1    0    0    0  501 -0.00000000000E+00 -0.00000000000E+00 -0.71757349092E+03  0.71757349092E+03  0.00000000000E+00 0.  1.
         23    2    1    2    0    0  0.55152400863E+02 -0.15030401400E+02 -0.16278820054E+03  0.19709205013E+03  0.95276322890E+02 0.  0.
          5    1    1    2  502    0  0.17852682237E+02 -0.13773475643E+02 -0.35352079780E+03  0.35427033657E+03  0.47000000000E+01 0.  1.
         -5    1    1    2    0  502 -0.73005083100E+02  0.28803877043E+02 -0.17532704196E+03  0.19214855485E+03  0.47000000000E+01 0.  1.
        -11    1    3    3    0    0 -0.23447452347E+02  0.11679031923E+02 -0.56077656794E+02  0.61894154811E+02  0.00000000000E+00 0.  1.
         11    1    3    3    0    0  0.78599853210E+02 -0.26709433323E+02 -0.10671054374E+03  0.13519789532E+03  0.00000000000E+00 0. -1.
<mgrwt>
<rscale>  0 0.13033329E+03</rscale>
<asrwt>0</asrwt>
<pdfrwt beam="1">  1        1 0.39903766E-02 0.13745387E+03</pdfrwt>
<pdfrwt beam="2">  1       -1 0.11039593E+00 0.13745387E+03</pdfrwt>
<totfact> 0.17865443E+03</totfact>
</mgrwt>
</event>
<event>
 7    1  0.1446636E-005  0.2093724E+03  0.7546771E-02  0.1146059E+00
         -2   -1    0    0    0  501 -0.00000000000E+00  0.00000000000E+00  0.57058390101E+02  0.57058390101E+02  0.00000000000E+00 0.  1.
          2   -1    0    0  501    0  0.00000000000E+00 -0.00000000000E+00 -0.72116065353E+03  0.72116065353E+03  0.00000000000E+00 0. -1.
         23    2    1    2    0    0 -0.13014959533E+03 -0.10617606888E+03 -0.38357523588E+03  0.42817299694E+03  0.89386122879E+02 0.  0.
          5    1    1    2  502    0  0.97969458831E+01  0.71147549562E+02 -0.16288140452E+03  0.17807413034E+03  0.47000000000E+01 0. -1.
         -5    1    1    2    0  502  0.12035264945E+03  0.35028519316E+02 -0.11764562303E+03  0.17197191635E+03  0.47000000000E+01 0. -1.
        -11    1    3    3    0    0 -0.78866528397E+01 -0.49222849254E+02 -0.15445989125E+03  0.16230510216E+03  0.00000000000E+00 0. -1.
         11    1    3    3    0    0 -0.12226294249E+03 -0.56953219625E+02 -0.22911534463E+03  0.26586789478E+03  0.00000000000E+00 0.  1.
<mgrwt>
<rscale>  0 0.20442380E+03</rscale>
<asrwt>0</asrwt>
<pdfrwt beam="2">  1        2 0.11094779E+00 0.20937245E+03</pdfrwt>
<pdfrwt beam="1">  1       -2 0.87782139E-02 0.20937245E+03</pdfrwt>
<totfact> 0.32712628E+03</totfact>
</mgrwt>
</event>
<event>
 7    1  0.1446636E-005  0.1273199E+03  0.7546771E-02  0.1246035E+00
          1   -1    0    0  501    0  0.00000000000E+00  0.00000000000E+00  0.20749051664E+03  0.20749051664E+03  0.00000000000E+00 0. -1.
         -1   -1    0    0    0  501 -0.00000000000E+00 -0.00000000000E+00 -0.64968126809E+02  0.64968126809E+02  0.00000000000E+00 0.  1.
         23    2    1    2    0    0 -0.14020569694E+02 -0.19700813605E+02  0.10121827079E+03  0.13860657770E+03  0.91552971608E+02 0.  0.
          5    1    1    2  502    0 -0.23337564285E+02  0.34463875316E+02 -0.30244179025E+02  0.51664310442E+02  0.47000000000E+01 0. -1.
         -5    1    1    2    0  502  0.37358133979E+02 -0.14763061711E+02  0.71548298071E+02  0.82187755306E+02  0.47000000000E+01 0. -1.
        -11    1    3    3    0    0 -0.45040768448E+02 -0.25376102013E+02  0.27790532705E+02  0.58693535282E+02  0.00000000000E+00 0.  1.
         11    1    3    3    0    0  0.31020198755E+02  0.56752884081E+01  0.73427738082E+02  0.79913042422E+02  0.00000000000E+00 0. -1.
<mgrwt>
<rscale>  0 0.11823630E+03</rscale>
<asrwt>0</asrwt>
<pdfrwt beam="1">  1        1 0.31921618E-01 0.12731985E+03</pdfrwt>
<pdfrwt beam="2">  1       -1 0.99950965E-02 0.12731985E+03</pdfrwt>
<totfact> 0.80461723E+03</totfact>
</mgrwt>
</event>
<event>
 7    1  0.1446636E-005  0.1257004E+03  0.7546771E-02  0.1248533E+00
         -4   -1    0    0    0  501 -0.00000000000E+00  0.00000000000E+00  0.85700768216E+02  0.85700768216E+02  0.00000000000E+00 0.  1.
          4   -1    0    0  501    0  0.00000000000E+00 -0.00000000000E+00 -0.14382747043E+03  0.14382747043E+03  0.00000000000E+00 0. -1.
         23    2    1    2    0    0 -0.11284545907E+02  0.70055445855E+01 -0.42748091729E+02  0.10289063157E+03  0.92642668830E+02 0.  0.
          5    1    1    2  502    0 -0.47827600281E+02 -0.21354336707E+02 -0.34270251387E+02  0.62769635772E+02  0.47000000000E+01 0. -1.
         -5    1    1    2    0  502  0.59112146188E+02  0.14348792121E+02  0.18891640899E+02  0.63867971302E+02  0.47000000000E+01 0. -1.
        -11    1    3    3    0    0 -0.50782957443E+02  0.11798404855E+02 -0.14563597583E+02  0.54131409536E+02  0.00000000000E+00 0.  1.
         11    1    3    3    0    0  0.39498411537E+02 -0.47928602691E+01 -0.28184494147E+02  0.48759222038E+02  0.00000000000E+00 0. -1.
<mgrwt>
<rscale>  0 0.11676421E+03</rscale>
<asrwt>0</asrwt>
<pdfrwt beam="2">  1        4 0.22127303E-01 0.12570037E+03</pdfrwt>
<pdfrwt beam="1">  1       -4 0.13184734E-01 0.12570037E+03</pdfrwt>
<totfact> 0.14345487E+03</totfact>
</mgrwt>
</event>
<event>
 7    1  0.1446636E-005  0.1269732E+03  0.7546771E-02  0.1246119E+00
          4   -1    0    0  501    0  0.00000000000E+00  0.00000000000E+00  0.31371397769E+02  0.31371397769E+02  0.00000000000E+00 0. -1.
         -4   -1    0    0    0  501 -0.00000000000E+00 -0.00000000000E+00 -0.43912912037E+03  0.43912912037E+03  0.00000000000E+00 0.  1.
         23    2    1    2    0    0  0.16880744355E+02 -0.14568024159E+02 -0.10290559629E+03  0.14026272269E+03  0.92665434602E+02 0.  0.
          5    1    1    2  502    0 -0.22594140123E+02  0.25827884183E+02 -0.31272239013E+03  0.31463464218E+03  0.47000000000E+01 0. -1.
         -5    1    1    2    0  502  0.57133957684E+01 -0.11259860025E+02  0.78702638317E+01  0.15603153263E+02  0.47000000000E+01 0. -1.
        -11    1    3    3    0    0 -0.19781320702E+02 -0.22927554099E+02 -0.97719387739E+02  0.10230372489E+03  0.00000000000E+00 0.  1.
         11    1    3    3    0    0  0.36662065057E+02  0.83595299406E+01 -0.51862085556E+01  0.37958997804E+02  0.00000000000E+00 0. -1.
<mgrwt>
<rscale>  0 0.11818681E+03</rscale>
<asrwt>0</asrwt>
<pdfrwt beam="1">  1        4 0.48263684E-02 0.12697316E+03</pdfrwt>
<pdfrwt beam="2">  1       -4 0.67558333E-01 0.12697316E+03</pdfrwt>
<totfact> 0.84961088E+02</totfact>
</mgrwt>
</event>
<event>
 7    1  0.1446636E-005  0.4870127E+03  0.7546771E-02  0.1017751E+00
          2   -1    0    0  501    0  0.00000000000E+00  0.00000000000E+00  0.34433848320E+03  0.34433848320E+03  0.00000000000E+00 0. -1.
         -2   -1    0    0    0  501 -0.00000000000E+00 -0.00000000000E+00 -0.68174173057E+03  0.68174173057E+03  0.00000000000E+00 0.  1.
         23    2    1    2    0    0 -0.18040422930E+02  0.47035376530E+03 -0.20572657431E+03  0.52158029839E+03  0.90357417489E+02 0.  0.
          5    1    1    2  502    0 -0.42967705200E+02 -0.30565102234E+03 -0.58588618925E+02  0.31420293986E+03  0.47000000000E+01 0. -1.
         -5    1    1    2    0  502  0.61008128131E+02 -0.16470274295E+03 -0.73088054138E+02  0.19029697552E+03  0.47000000000E+01 0. -1.
        -11    1    3    3    0    0  0.83407731491E+01  0.37687060042E+03 -0.13117347141E+03  0.39913343327E+03  0.00000000000E+00 0.  1.
         11    1    3    3    0    0 -0.26381196080E+02  0.93483164883E+02 -0.74553102909E+02  0.12244686512E+03  0.00000000000E+00 0. -1.
<mgrwt>
<rscale>  0 0.48507145E+03</rscale>
<asrwt>0</asrwt>
<pdfrwt beam="1">  1        2 0.52975152E-01 0.48701275E+03</pdfrwt>
<pdfrwt beam="2">  1       -2 0.10488334E+00 0.48701275E+03</pdfrwt>
<totfact> 0.71290067E+01</totfact>
</mgrwt>
</event>
<event>
 7    1  0.1446636E-005  0.1241611E+03  0.7546771E-02  0.1249069E+00
          3   -1    0    0  501    0  0.00000000000E+00  0.00000000000E+00  0.13924321420E+02  0.13924321420E+02  0.00000000000E+00 0. -1.
         -3   -1    0    0    0  501 -0.00000000000E+00 -0.00000000000E+00 -0.13709753734E+04  0.13709753734E+04  0.00000000000E+00 0.  1.
         23    2    1    2    0    0 -0.95765330611E+01 -0.34439908155E+02 -0.20750570758E+03  0.22866853938E+03  0.89178836978E+02 0.  0.
          5    1    1    2  502    0  0.43306623751E+02  0.49950466063E+02 -0.99556909611E+03  0.99777273357E+03  0.47000000000E+01 0. -1.
         -5    1    1    2    0  502 -0.33730090690E+02 -0.15510557908E+02 -0.15397624824E+03  0.15845842182E+03  0.47000000000E+01 0.  1.
        -11    1    3    3    0    0 -0.82556975604E+01 -0.51301827261E+02 -0.20510586369E+03  0.21158556033E+03  0.00000000000E+00 0.  1.
         11    1    3    3    0    0 -0.13208355007E+01  0.16861919106E+02 -0.23998438911E+01  0.17082979046E+02  0.00000000000E+00 0. -1.
<mgrwt>
<rscale>  0 0.11645107E+03</rscale>
<asrwt>0</asrwt>
<pdfrwt beam="1">  1        3 0.21422029E-02 0.12416113E+03</pdfrwt>
<pdfrwt beam="2">  1       -3 0.21091932E+00 0.12416113E+03</pdfrwt>
<totfact> 0.27426360E+02</totfact>
</mgrwt>
</event>
<event>
 7    1  0.1446636E-005  0.1426688E+03  0.7546771E-02  0.1220256E+00
         -2   -1    0    0    0  501 -0.00000000000E+00  0.00000000000E+00  0.13837527518E+02  0.13837527518E+02  0.00000000000E+00 0.  1.
          2   -1    0    0  501    0  0.00000000000E+00 -0.00000000000E+00 -0.12032131969E+04  0.12032131969E+04  0.00000000000E+00 0. -1.
         23    2    1    2    0    0  0.66057031185E+02  0.18949025051E+02 -0.47365627242E+03  0.48725031082E+03  0.91323622768E+02 0.  0.
          5    1    1    2  502    0 -0.98168476175E+02 -0.66866428279E+01 -0.39039818833E+03  0.40263456926E+03  0.47000000000E+01 0. -1.
         -5    1    1    2    0  502  0.32111444990E+02 -0.12262382223E+02 -0.32532120866E+03  0.32716584437E+03  0.47000000000E+01 0. -1.
        -11    1    3    3    0    0 -0.47353849153E+01  0.40119088614E+02 -0.16940498137E+03  0.17415514019E+03  0.00000000000E+00 0.  1.
         11    1    3    3    0    0  0.70792416100E+02 -0.21170063564E+02 -0.30425129105E+03  0.31309517064E+03  0.00000000000E+00 0. -1.
<mgrwt>
<rscale>  0 0.13497411E+03</rscale>
<asrwt>0</asrwt>
<pdfrwt beam="2">  1        2 0.18510978E+00 0.14266881E+03</pdfrwt>
<pdfrwt beam="1">  1       -2 0.21288498E-02 0.14266881E+03</pdfrwt>
<totfact> 0.13565561E+04</totfact>
</mgrwt>
</event>
<event>
 7    1  0.1446636E-005  0.1294136E+03  0.7546771E-02  0.1242687E+00
         -2   -1    0    0    0  501 -0.00000000000E+00  0.00000000000E+00  0.81784567041E+02  0.81784567041E+02  0.00000000000E+00 0.  1.
          2   -1    0    0  501    0  0.00000000000E+00 -0.00000000000E+00 -0.21310186467E+03  0.21310186467E+03  0.00000000000E+00 0. -1.
         23    2    1    2    0    0 -0.32298276274E+01 -0.33038638155E+02 -0.13439802577E+03  0.16543613034E+03  0.90577593768E+02 0.  0.
          5    1    1    2  502    0 -0.45670262323E+02  0.51499193189E+02  0.23866407928E+02  0.73004350468E+02  0.47000000000E+01 0.  1.
         -5    1    1    2    0  502  0.48900089951E+02 -0.18460555034E+02 -0.20785679787E+02  0.56445950905E+02  0.47000000000E+01 0.  1.
        -11    1    3    3    0    0  0.20859932922E+02 -0.95459176278E+01  0.37538914992E+01  0.23245495182E+02  0.00000000000E+00 0.  1.
         11    1    3    3    0    0 -0.24089760549E+02 -0.23492720527E+02 -0.13815191727E+03  0.14219063516E+03  0.00000000000E+00 0. -1.
<mgrwt>
<rscale>  0 0.12024917E+03</rscale>
<asrwt>0</asrwt>
<pdfrwt beam="2">  1        2 0.32784902E-01 0.12941364E+03</pdfrwt>
<pdfrwt beam="1">  1       -2 0.12582241E-01 0.12941364E+03</pdfrwt>
<totfact> 0.68895749E+03</totfact>
</mgrwt>
</event>
<event>
 7    1  0.1446636E-005  0.1469489E+03  0.7546771E-02  0.1214894E+00
         -3   -1    0    0    0  501 -0.00000000000E+00  0.00000000000E+00  0.14498449285E+03  0.14498449285E+03  0.00000000000E+00 0.  1.
          3   -1    0    0  501    0  0.00000000000E+00 -0.00000000000E+00 -0.13801111396E+03  0.13801111396E+03  0.00000000000E+00 0. -1.
         23    2    1    2    0    0  0.34630286269E+02 -0.68877795876E+02 -0.47356391903E+02  0.12632494119E+03  0.88158694530E+02 0.  0.
          5    1    1    2  502    0 -0.27504248085E+02  0.53794177485E+02  0.94874495628E+02  0.11257689423E+03  0.47000000000E+01 0.  1.
         -5    1    1    2    0  502 -0.71260381840E+01  0.15083618391E+02 -0.40544724829E+02  0.44093771390E+02  0.47000000000E+01 0.  1.
        -11    1    3    3    0    0  0.62568418536E+02 -0.56514097479E+02 -0.23396879396E+02  0.87498938150E+02  0.00000000000E+00 0. -1.
         11    1    3    3    0    0 -0.27938132267E+02 -0.12363698397E+02 -0.23959512506E+02  0.38826003041E+02  0.00000000000E+00 0.  1.
<mgrwt>
<rscale>  0 0.13884352E+03</rscale>
<asrwt>0</asrwt>
<pdfrwt beam="2">  1        3 0.21232479E-01 0.14694888E+03</pdfrwt>
<pdfrwt beam="1">  1       -3 0.22305307E-01 0.14694888E+03</pdfrwt>
<totfact> 0.87052936E+02</totfact>
</mgrwt>
</event>
<event>
 7    1  0.1446636E-005  0.1341020E+03  0.7546771E-02  0.1234272E+00
         -1   -1    0    0    0  501 -0.00000000000E+00  0.00000000000E+00  0.51179480387E+03  0.51179480387E+03  0.00000000000E+00 0.  1.
          1   -1    0    0  501    0  0.00000000000E+00 -0.00000000000E+00 -0.34348479481E+02  0.34348479481E+02  0.00000000000E+00 0. -1.
         23    2    1    2    0    0  0.45118114672E+02  0.17930314909E+02  0.91992760753E+02  0.13802834752E+03  0.90730459182E+02 0.  0.
          5    1    1    2  502    0 -0.57522798325E+02 -0.29322630722E+02  0.38522621470E+03  0.39062771982E+03  0.47000000000E+01 0. -1.
         -5    1    1    2    0  502  0.12404683653E+02  0.11392315813E+02  0.22734892935E+00  0.17487216007E+02  0.47000000000E+01 0. -1.
        -11    1    3    3    0    0 -0.15538922880E+02  0.36166009861E+02  0.39501793120E+02  0.55765850243E+02  0.00000000000E+00 0.  1.
         11    1    3    3    0    0  0.60657037552E+02 -0.18235694952E+02  0.52490967633E+02  0.82262497275E+02  0.00000000000E+00 0. -1.
<mgrwt>
<rscale>  0 0.12551168E+03</rscale>
<asrwt>0</asrwt>
<pdfrwt beam="2">  1        1 0.52843818E-02 0.13410202E+03</pdfrwt>
<pdfrwt beam="1">  1       -1 0.78737656E-01 0.13410202E+03</pdfrwt>
<totfact> 0.25116236E+03</totfact>
</mgrwt>
</event>
<event>
 7    1  0.1446636E-005  0.1260980E+03  0.7546771E-02  0.1248492E+00
          1   -1    0    0  501    0  0.00000000000E+00  0.00000000000E+00  0.25949228370E+03  0.25949228370E+03  0.00000000000E+00 0. -1.
         -1   -1    0    0    0  501 -0.00000000000E+00 -0.00000000000E+00 -0.50556930609E+02  0.50556930609E+02  0.00000000000E+00 0.  1.
         23    2    1    2    0    0  0.99476811631E+01  0.13289100518E+02  0.13520212601E+03  0.16397628575E+03  0.91285545717E+02 0.  0.
          5    1    1    2  502    0 -0.44246558389E+02  0.19167574358E+02  0.84507786012E+02  0.97410521674E+02  0.47000000000E+01 0.  1.
         -5    1    1    2    0  502  0.34298877226E+02 -0.32456674876E+02 -0.10774558939E+02  0.48662406880E+02  0.47000000000E+01 0.  1.
        -11    1    3    3    0    0  0.18412270894E+01 -0.36316335113E+02  0.29109532421E+02  0.46579300027E+02  0.00000000000E+00 0.  1.
         11    1    3    3    0    0  0.81064540737E+01  0.49605435631E+02  0.10609259359E+03  0.11739698572E+03  0.00000000000E+00 0. -1.
<mgrwt>
<rscale>  0 0.11678789E+03</rscale>
<asrwt>0</asrwt>
<pdfrwt beam="1">  1        1 0.39921889E-01 0.12609802E+03</pdfrwt>
<pdfrwt beam="2">  1       -1 0.77779895E-02 0.12609802E+03</pdfrwt>
<totfact> 0.89145842E+03</totfact>
</mgrwt>
</event>
<event>
 7    1  0.1446636E-005  0.2144530E+03  0.7546771E-02  0.1138087E+00
          2   -1    0    0  501    0  0.00000000000E+00  0.00000000000E+00  0.19592824391E+02  0.19592824391E+02  0.00000000000E+00 0. -1.
         -2   -1    0    0    0  501 -0.00000000000E+00 -0.00000000000E+00 -0.58682294037E+03  0.58682294037E+03  0.00000000000E+00 0.  1.
         23    2    1    2    0    0  0.36122341855E+02 -0.22770501452E+01 -0.23372303936E+03  0.24840878132E+03  0.75963510783E+02 0.  0.
          5    1    1    2  502    0  0.33114466041E+02  0.39187556916E+02 -0.13640092362E+03  0.14580649657E+03  0.47000000000E+01 0. -1.
         -5    1    1    2    0  502 -0.69236807896E+02 -0.36910506771E+02 -0.19710615300E+03  0.21220048687E+03  0.47000000000E+01 0. -1.
        -11    1    3    3    0    0 -0.17006134235E+02 -0.87712056921E+01 -0.18447464677E+02  0.26579157322E+02  0.00000000000E+00 0. -1.
         11    1    3    3    0    0  0.53128476090E+02  0.64941555469E+01 -0.21527557468E+03  0.22182962400E+03  0.00000000000E+00 0.  1.
<mgrwt>
<rscale>  0 0.21445297E+03</rscale>
<asrwt>0</asrwt>
<pdfrwt beam="1">  1        2 0.30142807E-02 0.21445297E+03</pdfrwt>
<pdfrwt beam="2">  1       -2 0.90280453E-01 0.21445297E+03</pdfrwt>
<totfact> 0.33246628E+03</totfact>
</mgrwt>
</event>
<event>
 7    1  0.1446636E-005  0.1522970E+03  0.7546771E-02  0.1206346E+00
         -2   -1    0    0    0  501 -0.00000000000E+00  0.00000000000E+00  0.30958300245E+02  0.30958300245E+02  0.00000000000E+00 0.  1.
          2   -1    0    0  501    0  0.00000000000E+00 -0.00000000000E+00 -0.66363940566E+03  0.66363940566E+03  0.00000000000E+00 0. -1.
         23    2    1    2    0    0  0.10085437385E+02 -0.86418502749E+02 -0.20662529946E+03  0.24214005813E+03  0.91476334159E+02 0.  0.
          5    1    1    2  502    0 -0.51570569750E+01 -0.19374678869E+02 -0.21780469431E+03  0.21877602309E+03  0.47000000000E+01 0. -1.
         -5    1    1    2    0  502 -0.49283804098E+01  0.10579318162E+03 -0.20825111165E+03  0.23368162468E+03  0.47000000000E+01 0. -1.
        -11    1    3    3    0    0 -0.24537367614E+02 -0.44158270769E+02 -0.33541301013E+02  0.60638718328E+02  0.00000000000E+00 0.  1.
         11    1    3    3    0    0  0.34622804999E+02 -0.42260231979E+02 -0.17308399844E+03  0.18150133980E+03  0.00000000000E+00 0. -1.
<mgrwt>
<rscale>  0 0.14531887E+03</rscale>
<asrwt>0</asrwt>
<pdfrwt beam="2">  1        2 0.10209838E+00 0.15229699E+03</pdfrwt>
<pdfrwt beam="1">  1       -2 0.47628151E-02 0.15229699E+03</pdfrwt>
<totfact> 0.91075130E+03</totfact>
</mgrwt>
</event>
<event>
 7    1  0.1446636E-005  0.2394961E+03  0.7546771E-02  0.1122602E+00
          2   -1    0    0  501    0  0.00000000000E+00  0.00000000000E+00  0.15875482697E+04  0.15875482697E+04  0.00000000000E+00 0. -1.
         -2   -1    0    0    0  501 -0.00000000000E+00 -0.00000000000E+00 -0.40041913965E+02  0.40041913965E+02  0.00000000000E+00 0.  1.
         23    2    1    2    0    0  0.18254998737E+03  0.91687281384E+02  0.43753594875E+03  0.49207590894E+03  0.94709758002E+02 0.  0.
          5    1    1    2  502    0 -0.15132357247E+03 -0.11403807415E+03  0.75444102096E+03  0.77788614208E+03  0.47000000000E+01 0.  1.
         -5    1    1    2    0  502 -0.31226414895E+02  0.22350792766E+02  0.35552938600E+03  0.35762813261E+03  0.47000000000E+01 0.  1.
        -11    1    3    3    0    0  0.10774915501E+03  0.50831872867E+02  0.35077270534E+03  0.37045276422E+03  0.00000000000E+00 0.  1.
         11    1    3    3    0    0  0.74800832355E+02  0.40855408516E+02  0.86763243402E+02  0.12162314472E+03  0.00000000000E+00 0. -1.
<mgrwt>
<rscale>  0 0.23583097E+03</rscale>
<asrwt>0</asrwt>
<pdfrwt beam="1">  1        2 0.24423815E+00 0.23949606E+03</pdfrwt>
<pdfrwt beam="2">  1       -2 0.61602957E-02 0.23949606E+03</pdfrwt>
<totfact> 0.17438563E+03</totfact>
</mgrwt>
</event>
<event>
 7    1  0.1446636E-005  0.1365921E+03  0.7546771E-02  0.1232364E+00
          2   -1    0    0  501    0  0.00000000000E+00  0.00000000000E+00  0.22161771663E+03  0.22161771663E+03  0.00000000000E+00 0. -1.
         -2   -1    0    0    0  501 -0.00000000000E+00 -0.00000000000E+00 -0.78222912180E+02  0.78222912180E+02  0.00000000000E+00 0.  1.
         23    2    1    2    0    0 -0.40864955989E+02 -0.36858378724E+02  0.12675163525E+03  0.16223831086E+03  0.85010633232E+02 0.  0.
          5    1    1    2  502    0  0.43972102652E+02 -0.39458790922E+02 -0.98460905434E-01  0.59267543287E+02  0.47000000000E+01 0. -1.
         -5    1    1    2    0  502 -0.31071466630E+01  0.76317169647E+02  0.16741630112E+02  0.78334774667E+02  0.47000000000E+01 0. -1.
        -11    1    3    3    0    0 -0.58427558764E+02 -0.21323178794E+02  0.43891206596E+02  0.76124211612E+02  0.00000000000E+00 0.  1.
         11    1    3    3    0    0  0.17562602775E+02 -0.15535199931E+02  0.82860428649E+02  0.86114099246E+02  0.00000000000E+00 0. -1.
<mgrwt>
<rscale>  0 0.12674700E+03</rscale>
<asrwt>0</asrwt>
<pdfrwt beam="1">  1        2 0.34095033E-01 0.13659210E+03</pdfrwt>
<pdfrwt beam="2">  1       -2 0.12034294E-01 0.13659210E+03</pdfrwt>
<totfact> 0.71198297E+03</totfact>
</mgrwt>
</event>
<event>
 7    1  0.1446636E-005  0.1152974E+03  0.7546771E-02  0.1261509E+00
          1   -1    0    0  501    0  0.00000000000E+00  0.00000000000E+00  0.49187127222E+03  0.49187127222E+03  0.00000000000E+00 0. -1.
         -1   -1    0    0    0  501 -0.00000000000E+00 -0.00000000000E+00 -0.22532629817E+02  0.22532629817E+02  0.00000000000E+00 0.  1.
         23    2    1    2    0    0  0.14795977927E+02 -0.15849433915E+02  0.24110242066E+03  0.25869849474E+03  0.91238196014E+02 0.  0.
          5    1    1    2  502    0 -0.17347876818E+02 -0.42245918127E+02  0.15728341183E+03  0.16384696538E+03  0.47000000000E+01 0. -1.
         -5    1    1    2    0  502  0.25518988910E+01  0.58095352042E+02  0.70952809907E+02  0.91858441912E+02  0.47000000000E+01 0.  1.
        -11    1    3    3    0    0  0.47879770481E+02  0.12390976732E+02  0.11106724624E+03  0.12158100967E+03  0.00000000000E+00 0.  1.
         11    1    3    3    0    0 -0.33083792555E+02 -0.28240410647E+02  0.13003517443E+03  0.13711748507E+03  0.00000000000E+00 0. -1.
<mgrwt>
<rscale>  0 0.10949421E+03</rscale>
<asrwt>0</asrwt>
<pdfrwt beam="1">  1        1 0.75672496E-01 0.11529737E+03</pdfrwt>
<pdfrwt beam="2">  1       -1 0.34665588E-02 0.11529737E+03</pdfrwt>
<totfact> 0.13139225E+04</totfact>
</mgrwt>
</event>
<event>
 7    1  0.1446636E-005  0.2253881E+03  0.7546771E-02  0.1129929E+00
          1   -1    0    0  501    0  0.00000000000E+00  0.00000000000E+00  0.38630643306E+02  0.38630643306E+02  0.00000000000E+00 0. -1.
         -1   -1    0    0    0  501 -0.00000000000E+00 -0.00000000000E+00 -0.32875325081E+03  0.32875325081E+03  0.00000000000E+00 0.  1.
         23    2    1    2    0    0 -0.91990646724E-02  0.12077697033E+02 -0.12529572893E+03  0.16016059263E+03  0.99027899577E+02 0.  0.
          5    1    1    2  502    0  0.16229461967E+02  0.51615030136E+02 -0.10503676194E+03  0.11824685252E+03  0.47000000000E+01 0. -1.
         -5    1    1    2    0  502 -0.16220262903E+02 -0.63692727169E+02 -0.59790116626E+02  0.88976448957E+02  0.47000000000E+01 0. -1.
        -11    1    3    3    0    0  0.10537053934E+02  0.26316500037E+02 -0.13635692466E+03  0.13927238988E+03  0.00000000000E+00 0.  1.
         11    1    3    3    0    0 -0.10546252998E+02 -0.14238803005E+02  0.11061195731E+02  0.20888202754E+02  0.00000000000E+00 0. -1.
<mgrwt>
<rscale>  0 0.22538811E+03</rscale>
<asrwt>0</asrwt>
<pdfrwt beam="1">  1        1 0.59431758E-02 0.22538811E+03</pdfrwt>
<pdfrwt beam="2">  1       -1 0.50577424E-01 0.22538811E+03</pdfrwt>
<totfact> 0.51845666E+03</totfact>
</mgrwt>
</event>
<event>
 7    1  0.1446636E-005  0.2139963E+03  0.7546771E-02  0.1145037E+00
         -2   -1    0    0    0  501 -0.00000000000E+00  0.00000000000E+00  0.39723252799E+03  0.39723252799E+03  0.00000000000E+00 0.  1.
          2   -1    0    0  501    0  0.00000000000E+00 -0.00000000000E+00 -0.11110880206E+03  0.11110880206E+03  0.00000000000E+00 0. -1.
         23    2    1    2    0    0 -0.15936905714E+03 -0.69070710327E+02  0.49273236541E+02  0.18913516516E+03  0.56347133561E+02 0.  0.
          5    1    1    2  502    0  0.54206383316E+02 -0.26668753060E+02  0.28649323173E+02  0.67025577956E+02  0.47000000000E+01 0.  1.
         -5    1    1    2    0  502  0.10516267383E+03  0.95739463387E+02  0.20820116621E+03  0.25218058693E+03  0.47000000000E+01 0.  1.
        -11    1    3    3    0    0 -0.34374510932E+02  0.45975812624E+01 -0.32496243905E+01  0.34832525230E+02  0.00000000000E+00 0.  1.
         11    1    3    3    0    0 -0.12499454621E+03 -0.73668291589E+02  0.52522860932E+02  0.15430263993E+03  0.00000000000E+00 0. -1.
<mgrwt>
<rscale>  0 0.20567540E+03</rscale>
<asrwt>0</asrwt>
<pdfrwt beam="2">  1        2 0.17093662E-01 0.21399631E+03</pdfrwt>
<pdfrwt beam="1">  1       -2 0.61112696E-01 0.21399631E+03</pdfrwt>
<totfact> 0.84526286E+02</totfact>
</mgrwt>
</event>
<event>
 7    1  0.1446636E-005  0.1290454E+03  0.7546771E-02  0.1243424E+00
         -2   -1    0    0    0  501 -0.00000000000E+00  0.00000000000E+00  0.81045841034E+03  0.81045841034E+03  0.00000000000E+00 0.  1.
          2   -1    0    0  501    0  0.00000000000E+00 -0.00000000000E+00 -0.15868833814E+02  0.15868833814E+02  0.00000000000E+00 0. -1.
         23    2    1    2    0    0 -0.31631736390E+02  0.51235454132E+01  0.28673055665E+03  0.30232964182E+03  0.90343692325E+02 0.  0.
          5    1    1    2  502    0  0.13270565557E+02  0.68413226286E+01  0.50000138637E+03  0.50024632730E+03  0.47000000000E+01 0. -1.
         -5    1    1    2    0  502  0.18361170832E+02 -0.11964868042E+02  0.78576335141E+01  0.23751275040E+02  0.47000000000E+01 0. -1.
        -11    1    3    3    0    0  0.13602949332E+02  0.36663012337E+02  0.14696711238E+03  0.15208073127E+03  0.00000000000E+00 0.  1.
         11    1    3    3    0    0 -0.45234685721E+02 -0.31539466923E+02  0.13976344427E+03  0.15024891054E+03  0.00000000000E+00 0. -1.
<mgrwt>
<rscale>  0 0.11980202E+03</rscale>
<asrwt>0</asrwt>
<pdfrwt beam="2">  1        2 0.24413597E-02 0.12904535E+03</pdfrwt>
<pdfrwt beam="1">  1       -2 0.12468588E+00 0.12904535E+03</pdfrwt>
<totfact> 0.20052242E+03</totfact>
</mgrwt>
</event>
<event>
 7    1  0.1446636E-005  0.1426007E+03  0.7546771E-02  0.1220563E+00
         -1   -1    0    0    0  501 -0.00000000000E+00  0.00000000000E+00  0.43073331791E+03  0.43073331791E+03  0.00000000000E+00 0.  1.
          1   -1    0    0  501    0  0.00000000000E+00 -0.00000000000E+00 -0.50756252222E+02  0.50756252222E+02  0.00000000000E+00 0. -1.
         23    2    1    2    0    0 -0.52047353229E+02 -0.44728873084E+02  0.54420900560E+02  0.12607181651E+03  0.90680038789E+02 0.  0.
          5    1    1    2  502    0  0.49503928456E+02  0.70261271016E+02  0.31619686419E+03  0.32770387862E+03  0.47000000000E+01 0.  1.
         -5    1    1    2    0  502  0.25434247731E+01 -0.25532397932E+02  0.93593009365E+01  0.27713875004E+02  0.47000000000E+01 0.  1.
        -11    1    3    3    0    0 -0.13874538672E+02 -0.66598394042E+02  0.22264813314E+02  0.71579122824E+02  0.00000000000E+00 0.  1.
         11    1    3    3    0    0 -0.38172814557E+02  0.21869520958E+02  0.32156087246E+02  0.54492693685E+02  0.00000000000E+00 0. -1.
<mgrwt>
<rscale>  0 0.13475704E+03</rscale>
<asrwt>0</asrwt>
<pdfrwt beam="2">  1        1 0.78086545E-02 0.14260071E+03</pdfrwt>
<pdfrwt beam="1">  1       -1 0.66266662E-01 0.14260071E+03</pdfrwt>
<totfact> 0.20921365E+03</totfact>
</mgrwt>
</event>
<event>
 7    1  0.1446636E-005  0.1436446E+03  0.7546771E-02  0.1218471E+00
          2   -1    0    0  501    0  0.00000000000E+00  0.00000000000E+00  0.22678166299E+03  0.22678166299E+03  0.00000000000E+00 0. -1.
         -2   -1    0    0    0  501 -0.00000000000E+00 -0.00000000000E+00 -0.10687570830E+03  0.10687570830E+03  0.00000000000E+00 0.  1.
         23    2    1    2    0    0 -0.41828271721E+02  0.57099841891E+02  0.14706481836E+03  0.18746780965E+03  0.92228643032E+02 0.  0.
          5    1    1    2  502    0  0.62231205265E+02 -0.79852380754E+02 -0.44558711169E+02  0.11070995602E+03  0.47000000000E+01 0. -1.
         -5    1    1    2    0  502 -0.20402933543E+02  0.22752538863E+02  0.17399847502E+02  0.35479605620E+02  0.47000000000E+01 0. -1.
        -11    1    3    3    0    0 -0.17832229562E+02  0.69219696467E+02  0.51252573064E+02  0.87955562848E+02  0.00000000000E+00 0.  1.
         11    1    3    3    0    0 -0.23996042160E+02 -0.12119854576E+02  0.95812245300E+02  0.99512246803E+02  0.00000000000E+00 0. -1.
<mgrwt>
<rscale>  0 0.13624594E+03</rscale>
<asrwt>0</asrwt>
<pdfrwt beam="1">  1        2 0.34889487E-01 0.14364465E+03</pdfrwt>
<pdfrwt beam="2">  1       -2 0.16442417E-01 0.14364465E+03</pdfrwt>
<totfact> 0.41966228E+03</totfact>
</mgrwt>
</event>
<event>
 7    1  0.1446636E-005  0.1890227E+03  0.7546771E-02  0.1164315E+00
          1   -1    0    0  501    0  0.00000000000E+00  0.00000000000E+00  0.50797494211E+02  0.50797494211E+02  0.00000000000E+00 0. -1.
         -1   -1    0    0    0  501 -0.00000000000E+00 -0.00000000000E+00 -0.63406299246E+03  0.63406299246E+03  0.00000000000E+00 0.  1.
         23    2    1    2    0    0  0.13615987940E+03 -0.39563863641E+02 -0.24400294553E+03  0.29649383844E+03  0.90919451945E+02 0.  0.
          5    1    1    2  502    0  0.12230606321E+02 -0.27225098951E+01  0.22642824961E+01  0.13572647728E+02  0.47000000000E+01 0.  1.
         -5    1    1    2    0  502 -0.14839048572E+03  0.42286373536E+02 -0.34152683522E+03  0.37479400051E+03  0.47000000000E+01 0.  1.
        -11    1    3    3    0    0  0.18327897518E+02  0.13768546818E+02 -0.10145969011E+03  0.10401708237E+03  0.00000000000E+00 0.  1.
         11    1    3    3    0    0  0.11783198188E+03 -0.53332410459E+02 -0.14254325542E+03  0.19247675606E+03  0.00000000000E+00 0. -1.
<mgrwt>
<rscale>  0 0.18365175E+03</rscale>
<asrwt>0</asrwt>
<pdfrwt beam="1">  1        1 0.78149996E-02 0.18902268E+03</pdfrwt>
<pdfrwt beam="2">  1       -1 0.97548146E-01 0.18902268E+03</pdfrwt>
<totfact> 0.94971187E+02</totfact>
</mgrwt>
</event>
<event>
 7    1  0.1446636E-005  0.1405916E+03  0.7546771E-02  0.1222849E+00
          2   -1    0    0  501    0  0.00000000000E+00  0.00000000000E+00  0.56307605623E+02  0.56307605623E+02  0.00000000000E+00 0. -1.
         -2   -1    0    0    0  501 -0.00000000000E+00 -0.00000000000E+00 -0.28606463899E+03  0.28606463899E+03  0.00000000000E+00 0.  1.
         23    2    1    2    0    0  0.62602315327E+02  0.14904272996E+02 -0.97261613247E+02  0.14918571701E+03  0.93034238384E+02 0.  0.
          5    1    1    2  502    0 -0.49212086569E+02 -0.25807367506E+02 -0.15482982981E+03  0.16456675205E+03  0.47000000000E+01 0.  1.
         -5    1    1    2    0  502 -0.13390228758E+02  0.10903094510E+02  0.22334409691E+02  0.28619775546E+02  0.47000000000E+01 0.  1.
        -11    1    3    3    0    0  0.41431916239E+02  0.53556958885E+02 -0.69864394462E+02  0.97293294434E+02  0.00000000000E+00 0.  1.
         11    1    3    3    0    0  0.21170399089E+02 -0.38652685889E+02 -0.27397218784E+02  0.51892422579E+02  0.00000000000E+00 0. -1.
<mgrwt>
<rscale>  0 0.13315460E+03</rscale>
<asrwt>0</asrwt>
<pdfrwt beam="1">  1        2 0.86627087E-02 0.14059160E+03</pdfrwt>
<pdfrwt beam="2">  1       -2 0.44009944E-01 0.14059160E+03</pdfrwt>
<totfact> 0.36414678E+03</totfact>
</mgrwt>
</event>
<event>
 7    1  0.1446636E-005  0.1480784E+03  0.7546771E-02  0.1212520E+00
         -1   -1    0    0    0  501 -0.00000000000E+00  0.00000000000E+00  0.10182232555E+03  0.10182232555E+03  0.00000000000E+00 0.  1.
          1   -1    0    0  501    0  0.00000000000E+00 -0.00000000000E+00 -0.23630133272E+03  0.23630133272E+03  0.00000000000E+00 0. -1.
         23    2    1    2    0    0  0.49042364999E+01  0.79246282315E+02 -0.14644526594E+03  0.18956256211E+03  0.90463938886E+02 0.  0.
          5    1    1    2  502    0  0.49531102830E+02 -0.21943666730E+02 -0.26550286623E+02  0.60513323961E+02  0.47000000000E+01 0.  1.
         -5    1    1    2    0  502 -0.54435339330E+02 -0.57302615585E+02  0.38516545395E+02  0.88047772204E+02  0.47000000000E+01 0.  1.
        -11    1    3    3    0    0  0.41287702699E+02  0.71265678349E+02 -0.90669400861E+02  0.12249249592E+03  0.00000000000E+00 0.  1.
         11    1    3    3    0    0 -0.36383466199E+02  0.79806039661E+01 -0.55775865084E+02  0.67070066186E+02  0.00000000000E+00 0. -1.
<mgrwt>
<rscale>  0 0.14060277E+03</rscale>
<asrwt>0</asrwt>
<pdfrwt beam="2">  1        1 0.36354051E-01 0.14807838E+03</pdfrwt>
<pdfrwt beam="1">  1       -1 0.15664973E-01 0.14807838E+03</pdfrwt>
<totfact> 0.34469857E+03</totfact>
</mgrwt>
</event>
<event>
 7    1  0.1446636E-005  0.1989956E+03  0.7546771E-02  0.1154763E+00
          1   -1    0    0  501    0  0.00000000000E+00  0.00000000000E+00  0.85477288971E+03  0.85477288971E+03  0.00000000000E+00 0. -1.
         -1   -1    0    0    0  501 -0.00000000000E+00 -0.00000000000E+00 -0.43810209451E+02  0.43810209451E+02  0.00000000000E+00 0.  1.
         23    2    1    2    0    0 -0.15186371058E+03 -0.30210783621E+02  0.47534138180E+03  0.50840249891E+03  0.92457523274E+02 0.  0.
          5    1    1    2  502    0  0.15280118904E+03  0.57047066330E+02  0.31884439824E+03  0.35817092489E+03  0.47000000000E+01 0. -1.
         -5    1    1    2    0  502 -0.93747846110E+00 -0.26836282708E+02  0.16776900216E+02  0.32009675355E+02  0.47000000000E+01 0. -1.
        -11    1    3    3    0    0 -0.69285840951E+02  0.27979235356E+02  0.14745528554E+03  0.16530706761E+03  0.00000000000E+00 0. -1.
         11    1    3    3    0    0 -0.82577869628E+02 -0.58190018977E+02  0.32788609626E+03  0.34309543130E+03  0.00000000000E+00 0.  1.
<mgrwt>
<rscale>  0 0.19415900E+03</rscale>
<asrwt>0</asrwt>
<pdfrwt beam="1">  1        1 0.13150351E+00 0.19899559E+03</pdfrwt>
<pdfrwt beam="2">  1       -1 0.67400328E-02 0.19899559E+03</pdfrwt>
<totfact> 0.23107371E+03</totfact>
</mgrwt>
</event>
<event>
 7    1  0.1446636E-005  0.1767899E+03  0.7546771E-02  0.1177005E+00
          1   -1    0    0  501    0  0.00000000000E+00  0.00000000000E+00  0.17289474239E+03  0.17289474239E+03  0.00000000000E+00 0. -1.
         -1   -1    0    0    0  501 -0.00000000000E+00 -0.00000000000E+00 -0.17591499615E+03  0.17591499615E+03  0.00000000000E+00 0.  1.
         23    2    1    2    0    0  0.81284167674E+02 -0.94994245999E+02  0.53691528208E+02  0.16314636525E+03  0.90016296328E+02 0.  0.
          5    1    1    2  502    0 -0.71181304168E+01  0.80499911958E+02  0.13895837413E+02  0.82134571913E+02  0.47000000000E+01 0.  1.
         -5    1    1    2    0  502 -0.74166037257E+02  0.14494334041E+02 -0.70607619378E+02  0.10352880138E+03  0.47000000000E+01 0.  1.
        -11    1    3    3    0    0  0.14877266413E+01 -0.63028221984E+02  0.43470691202E+02  0.76579834752E+02  0.00000000000E+00 0.  1.
         11    1    3    3    0    0  0.79796441033E+02 -0.31966024015E+02  0.10220837006E+02  0.86566530495E+02  0.00000000000E+00 0. -1.
<mgrwt>
<rscale>  0 0.17081040E+03</rscale>
<asrwt>0</asrwt>
<pdfrwt beam="1">  1        1 0.26599191E-01 0.17678988E+03</pdfrwt>
<pdfrwt beam="2">  1       -1 0.27063846E-01 0.17678988E+03</pdfrwt>
<totfact> 0.21170521E+03</totfact>
</mgrwt>
</event>
<event>
 7    1  0.1446636E-005  0.1257826E+03  0.7546771E-02  0.1252473E+00
         -2   -1    0    0    0  501 -0.00000000000E+00  0.00000000000E+00  0.28116845095E+03  0.28116845095E+03  0.00000000000E+00 0.  1.
          2   -1    0    0  501    0  0.00000000000E+00 -0.00000000000E+00 -0.42199030033E+02  0.42199030033E+02  0.00000000000E+00 0. -1.
         23    2    1    2    0    0  0.10412673813E+02 -0.92957768001E+01  0.62193453903E+02  0.10640894791E+03  0.85205652653E+02 0.  0.
          5    1    1    2  502    0 -0.44525214895E+02 -0.26619546484E+02  0.15336660615E+03  0.16197067913E+03  0.47000000000E+01 0.  1.
         -5    1    1    2    0  502  0.34112541082E+02  0.35915323284E+02  0.23409360870E+02  0.54987853950E+02  0.47000000000E+01 0.  1.
        -11    1    3    3    0    0 -0.22640824924E+02  0.52107800308E+01  0.66135571480E+02  0.70097596226E+02  0.00000000000E+00 0.  1.
         11    1    3    3    0    0  0.33053498737E+02 -0.14506556831E+02 -0.39421175774E+01  0.36311351680E+02  0.00000000000E+00 0. -1.
<mgrwt>
<rscale>  0 0.11449070E+03</rscale>
<asrwt>0</asrwt>
<pdfrwt beam="2">  1        2 0.64921587E-02 0.12578260E+03</pdfrwt>
<pdfrwt beam="1">  1       -2 0.43256683E-01 0.12578260E+03</pdfrwt>
<totfact> 0.53743483E+03</totfact>
</mgrwt>
</event>
<event>
 7    1  0.1446636E-005  0.1297718E+03  0.7546771E-02  0.1241856E+00
         -1   -1    0    0    0  501 -0.00000000000E+00  0.00000000000E+00  0.55509286293E+02  0.55509286293E+02  0.00000000000E+00 0.  1.
          1   -1    0    0  501    0  0.00000000000E+00 -0.00000000000E+00 -0.24601766912E+03  0.24601766912E+03  0.00000000000E+00 0. -1.
         23    2    1    2    0    0  0.12418559624E+02  0.32572654371E+02 -0.47019571639E+02  0.10805921949E+03  0.90833674179E+02 0.  0.
          5    1    1    2  502    0 -0.55962064105E+02 -0.35912110190E+02 -0.13229524584E+03  0.14814031979E+03  0.47000000000E+01 0. -1.
         -5    1    1    2    0  502  0.43543504481E+02  0.33394558187E+01 -0.11193565354E+02  0.45327416129E+02  0.47000000000E+01 0. -1.
        -11    1    3    3    0    0  0.26271116439E+02  0.43045884722E+02  0.73694926563E+01  0.50964979863E+02  0.00000000000E+00 0.  1.
         11    1    3    3    0    0 -0.13852556814E+02 -0.10473230350E+02 -0.54389064295E+02  0.57094239632E+02  0.00000000000E+00 0. -1.
<mgrwt>
<rscale>  0 0.12075520E+03</rscale>
<asrwt>0</asrwt>
<pdfrwt beam="2">  1        1 0.37848872E-01 0.12977182E+03</pdfrwt>
<pdfrwt beam="1">  1       -1 0.85398902E-02 0.12977182E+03</pdfrwt>
<totfact> 0.82878078E+03</totfact>
</mgrwt>
</event>
<event>
 7    1  0.1446636E-005  0.1294802E+03  0.7546771E-02  0.1242149E+00
          1   -1    0    0  501    0  0.00000000000E+00  0.00000000000E+00  0.33328902458E+02  0.33328902458E+02  0.00000000000E+00 0. -1.
         -1   -1    0    0    0  501 -0.00000000000E+00 -0.00000000000E+00 -0.39944832888E+03  0.39944832888E+03  0.00000000000E+00 0.  1.
         23    2    1    2    0    0 -0.14924799480E+02  0.30311889033E+02 -0.19730766286E+03  0.22002728649E+03  0.91324327106E+02 0.  0.
          5    1    1    2  502    0 -0.42709418137E+02 -0.45120158117E+02 -0.50380275029E+02  0.80126058046E+02  0.47000000000E+01 0.  1.
         -5    1    1    2    0  502  0.57634217617E+02  0.14808269084E+02 -0.11843148854E+03  0.13262388680E+03  0.47000000000E+01 0.  1.
        -11    1    3    3    0    0 -0.52837498509E+02  0.15622120720E+02 -0.13278112677E+03  0.14375910243E+03  0.00000000000E+00 0.  1.
         11    1    3    3    0    0  0.37912699028E+02  0.14689768313E+02 -0.64526536090E+02  0.76268184065E+02  0.00000000000E+00 0. -1.
<mgrwt>
<rscale>  0 0.12057668E+03</rscale>
<asrwt>0</asrwt>
<pdfrwt beam="1">  1        1 0.51275233E-02 0.12948022E+03</pdfrwt>
<pdfrwt beam="2">  1       -1 0.61453590E-01 0.12948022E+03</pdfrwt>
<totfact> 0.42549436E+03</totfact>
</mgrwt>
</event>
<event>
 7    1  0.1446636E-005  0.1980092E+03  0.7546771E-02  0.1156147E+00
         -2   -1    0    0    0  501 -0.00000000000E+00  0.00000000000E+00  0.14349623161E+03  0.14349623161E+03  0.00000000000E+00 0.  1.
          2   -1    0    0  501    0  0.00000000000E+00 -0.00000000000E+00 -0.24546369218E+03  0.24546369218E+03  0.00000000000E+00 0. -1.
         23    2    1    2    0    0 -0.68907261610E+02 -0.13724155999E+03 -0.53572853566E+02  0.18512252486E+03  0.88412906746E+02 0.  0.
          5    1    1    2  502    0  0.86806165012E+02  0.34549961702E+02 -0.26364339444E+02  0.97191452978E+02  0.47000000000E+01 0. -1.
         -5    1    1    2    0  502 -0.17898903402E+02  0.10269159829E+03 -0.22030267561E+02  0.10664594596E+03  0.47000000000E+01 0. -1.
        -11    1    3    3    0    0 -0.44552432310E+02 -0.13626479941E+03 -0.65927752277E+02  0.15779570115E+03  0.00000000000E+00 0. -1.
         11    1    3    3    0    0 -0.24354829300E+02 -0.97676058057E+00  0.12354898711E+02  0.27326823702E+02  0.00000000000E+00 0.  1.
<mgrwt>
<rscale>  0 0.19258868E+03</rscale>
<asrwt>0</asrwt>
<pdfrwt beam="2">  1        2 0.37763645E-01 0.19800921E+03</pdfrwt>
<pdfrwt beam="1">  1       -2 0.22076343E-01 0.19800921E+03</pdfrwt>
<totfact> 0.23762523E+03</totfact>
</mgrwt>
</event>
<event>
 7    1  0.1446636E-005  0.2001377E+03  0.7546771E-02  0.1153789E+00
          1   -1    0    0  501    0  0.00000000000E+00  0.00000000000E+00  0.12534533431E+04  0.12534533431E+04  0.00000000000E+00 0. -1.
         -1   -1    0    0    0  501 -0.00000000000E+00 -0.00000000000E+00 -0.29157156072E+02  0.29157156072E+02  0.00000000000E+00 0.  1.
         23    2    1    2    0    0 -0.15197466831E+03  0.36507201120E+02  0.54007063674E+03  0.56971520639E+03  0.92032864628E+02 0.  0.
          5    1    1    2  502    0  0.69908924198E+02 -0.32138378268E+02  0.11952552713E+03  0.14222719387E+03  0.47000000000E+01 0. -1.
         -5    1    1    2    0  502  0.82065744116E+02 -0.43688228527E+01  0.56470002316E+03  0.57066809892E+03  0.47000000000E+01 0. -1.
        -11    1    3    3    0    0 -0.66895223990E+02  0.48941206188E+02  0.36969015811E+03  0.37886808477E+03  0.00000000000E+00 0. -1.
         11    1    3    3    0    0 -0.85079444324E+02 -0.12434005068E+02  0.17038047863E+03  0.19084712161E+03  0.00000000000E+00 0.  1.
<mgrwt>
<rscale>  0 0.19527413E+03</rscale>
<asrwt>0</asrwt>
<pdfrwt beam="1">  1        1 0.19283893E+00 0.20013769E+03</pdfrwt>
<pdfrwt beam="2">  1       -1 0.44857173E-02 0.20013769E+03</pdfrwt>
<totfact> 0.21731691E+03</totfact>
</mgrwt>
</event>
<event>
 7    1  0.1446636E-005  0.1693771E+03  0.7546771E-02  0.1185405E+00
          2   -1    0    0  501    0  0.00000000000E+00  0.00000000000E+00  0.20323410888E+03  0.20323410888E+03  0.00000000000E+00 0. -1.
         -2   -1    0    0    0  501 -0.00000000000E+00 -0.00000000000E+00 -0.13343947660E+03  0.13343947660E+03  0.00000000000E+00 0.  1.
         23    2    1    2    0    0 -0.92879557158E+02 -0.66618259572E+02  0.82335996696E+02  0.16683283341E+03  0.89383294323E+02 0.  0.
          5    1    1    2  502    0  0.72133668737E+02 -0.18981165155E+02  0.17324292189E+02  0.76718784505E+02  0.47000000000E+01 0. -1.
         -5    1    1    2    0  502  0.20745888421E+02  0.85599424727E+02 -0.29865656604E+02  0.93121967571E+02  0.47000000000E+01 0. -1.
        -11    1    3    3    0    0 -0.19697322801E+02 -0.78544444123E+00 -0.17695880956E+02  0.26490482278E+02  0.00000000000E+00 0.  1.
         11    1    3    3    0    0 -0.73182234357E+02 -0.65832815131E+02  0.10003187765E+03  0.14034235113E+03  0.00000000000E+00 0. -1.
<mgrwt>
<rscale>  0 0.16295127E+03</rscale>
<asrwt>0</asrwt>
<pdfrwt beam="1">  1        2 0.31266786E-01 0.16937708E+03</pdfrwt>
<pdfrwt beam="2">  1       -2 0.20529150E-01 0.16937708E+03</pdfrwt>
<totfact> 0.32814384E+03</totfact>
</mgrwt>
</event>
<event>
 7    1  0.1446636E-005  0.1526748E+03  0.7546771E-02  0.1206118E+00
          2   -1    0    0  501    0  0.00000000000E+00  0.00000000000E+00  0.56456918237E+03  0.56456918237E+03  0.00000000000E+00 0. -1.
         -2   -1    0    0    0  501 -0.00000000000E+00 -0.00000000000E+00 -0.35097883705E+02  0.35097883705E+02  0.00000000000E+00 0.  1.
         23    2    1    2    0    0  0.42622568019E+02 -0.76602904049E+02  0.19688373398E+03  0.23371065772E+03  0.90403421448E+02 0.  0.
          5    1    1    2  502    0  0.21614949690E+02  0.60594577570E+02  0.25877470173E+03  0.26669335413E+03  0.47000000000E+01 0.  1.
         -5    1    1    2    0  502 -0.64237517709E+02  0.16008326479E+02  0.73812862952E+02  0.99263054231E+02  0.47000000000E+01 0.  1.
        -11    1    3    3    0    0  0.50344198535E+02 -0.93084362058E+02  0.15138807712E+03  0.18470946559E+03  0.00000000000E+00 0. -1.
         11    1    3    3    0    0 -0.77216305161E+01  0.16481458009E+02  0.45495656869E+02  0.49001192127E+02  0.00000000000E+00 0.  1.
<mgrwt>
<rscale>  0 0.14549726E+03</rscale>
<asrwt>0</asrwt>
<pdfrwt beam="1">  1        2 0.86856791E-01 0.15267483E+03</pdfrwt>
<pdfrwt beam="2">  1       -2 0.53996748E-02 0.15267483E+03</pdfrwt>
<totfact> 0.90789822E+03</totfact>
</mgrwt>
</event>
<event>
 7    1  0.1446636E-005  0.1284051E+03  0.7546771E-02  0.1244581E+00
          1   -1    0    0  501    0  0.00000000000E+00  0.00000000000E+00  0.85193250150E+02  0.85193250150E+02  0.00000000000E+00 0. -1.
         -1   -1    0    0    0  501 -0.00000000000E+00 -0.00000000000E+00 -0.18027042539E+03  0.18027042539E+03  0.00000000000E+00 0.  1.
         23    2    1    2    0    0 -0.13252238458E+01  0.29362784336E+02  0.15127205692E+02  0.96251196608E+02  0.90396521914E+02 0.  0.
          5    1    1    2  502    0 -0.47649722334E+02 -0.39093202765E+02 -0.18217511345E+02  0.64441774188E+02  0.47000000000E+01 0. -1.
         -5    1    1    2    0  502  0.48974946180E+02  0.97304184290E+01 -0.91986869590E+02  0.10477070475E+03  0.47000000000E+01 0. -1.
        -11    1    3    3    0    0  0.60574664541E+01  0.18335659495E+02  0.52847337989E+02  0.56264824193E+02  0.00000000000E+00 0. -1.
         11    1    3    3    0    0 -0.73826902998E+01  0.11027124841E+02 -0.37720132297E+02  0.39986372414E+02  0.00000000000E+00 0.  1.
<mgrwt>
<rscale>  0 0.11910510E+03</rscale>
<asrwt>0</asrwt>
<pdfrwt beam="1">  1        1 0.13106654E-01 0.12840505E+03</pdfrwt>
<pdfrwt beam="2">  1       -1 0.27733912E-01 0.12840505E+03</pdfrwt>
<totfact> 0.49534217E+03</totfact>
</mgrwt>
</event>
<event>
 7    1  0.1446636E-005  0.1707696E+03  0.7546771E-02  0.1183571E+00
         -2   -1    0    0    0  501 -0.00000000000E+00  0.00000000000E+00  0.87309029268E+02  0.87309029268E+02  0.00000000000E+00 0.  1.
          2   -1    0    0  501    0  0.00000000000E+00 -0.00000000000E+00 -0.35947078069E+03  0.35947078069E+03  0.00000000000E+00 0. -1.
         23    2    1    2    0    0 -0.71269894358E+02  0.91970670273E+02 -0.22602077334E+03  0.26988646092E+03  0.90638346054E+02 0.  0.
          5    1    1    2  502    0  0.60915901471E+02 -0.55280022114E+01 -0.63172918919E+02  0.88058012385E+02  0.47000000000E+01 0.  1.
         -5    1    1    2    0  502  0.10353992887E+02 -0.86442668062E+02  0.17031940832E+02  0.88835336656E+02  0.47000000000E+01 0.  1.
        -11    1    3    3    0    0 -0.50108859237E+02  0.47045165380E+02 -0.20454097527E+03  0.21578034183E+03  0.00000000000E+00 0. -1.
         11    1    3    3    0    0 -0.21161035121E+02  0.44925504894E+02 -0.21479798074E+02  0.54106119087E+02  0.00000000000E+00 0.  1.
<mgrwt>
<rscale>  0 0.16462609E+03</rscale>
<asrwt>0</asrwt>
<pdfrwt beam="2">  1        2 0.55303196E-01 0.17076963E+03</pdfrwt>
<pdfrwt beam="1">  1       -2 0.13432159E-01 0.17076963E+03</pdfrwt>
<totfact> 0.36046210E+03</totfact>
</mgrwt>
</event>
<event>
 7    1  0.1446636E-005  0.1886059E+03  0.7546771E-02  0.1164271E+00
          1   -1    0    0  501    0  0.00000000000E+00  0.00000000000E+00  0.78113106424E+03  0.78113106424E+03  0.00000000000E+00 0. -1.
         -1   -1    0    0    0  501 -0.00000000000E+00 -0.00000000000E+00 -0.42188272029E+02  0.42188272029E+02  0.00000000000E+00 0.  1.
         23    2    1    2    0    0 -0.51854066454E+02 -0.13136815526E+03  0.41667797537E+03  0.44992033583E+03  0.94134674844E+02 0.  0.
          5    1    1    2  502    0  0.35176221923E+02  0.22650425500E+02  0.11401491806E+02  0.43617569619E+02  0.47000000000E+01 0. -1.
         -5    1    1    2    0  502  0.16677844531E+02  0.10871772976E+03  0.31086332504E+03  0.32978143082E+03  0.47000000000E+01 0. -1.
        -11    1    3    3    0    0 -0.41523899325E+02 -0.50487864706E+02  0.79007121883E+02  0.10254454645E+03  0.00000000000E+00 0.  1.
         11    1    3    3    0    0 -0.10330167128E+02 -0.80880290557E+02  0.33767085349E+03  0.34737578938E+03  0.00000000000E+00 0. -1.
<mgrwt>
<rscale>  0 0.18369834E+03</rscale>
<asrwt>0</asrwt>
<pdfrwt beam="1">  1        1 0.12017400E+00 0.18860594E+03</pdfrwt>
<pdfrwt beam="2">  1       -1 0.64905040E-02 0.18860594E+03</pdfrwt>
<totfact> 0.28075162E+03</totfact>
</mgrwt>
</event>
<event>
 7    1  0.1446636E-005  0.1441332E+03  0.7546771E-02  0.1219878E+00
         -2   -1    0    0    0  501 -0.00000000000E+00  0.00000000000E+00  0.41356358977E+02  0.41356358977E+02  0.00000000000E+00 0.  1.
          2   -1    0    0  501    0  0.00000000000E+00 -0.00000000000E+00 -0.40422435115E+03  0.40422435115E+03  0.00000000000E+00 0. -1.
         23    2    1    2    0    0  0.52450564891E+02  0.49001404842E+02 -0.19097385278E+03  0.22125511202E+03  0.85618997414E+02 0.  0.
          5    1    1    2  502    0 -0.60968422996E+02 -0.77424173950E+02 -0.78078308776E+02  0.12581718331E+03  0.47000000000E+01 0.  1.
         -5    1    1    2    0  502  0.85178581044E+01  0.28422769108E+02 -0.93815830614E+02  0.98508414789E+02  0.47000000000E+01 0.  1.
        -11    1    3    3    0    0  0.75964997105E+02  0.39187751584E+02 -0.13547888470E+03  0.16019016467E+03  0.00000000000E+00 0.  1.
         11    1    3    3    0    0 -0.23514432214E+02  0.98136532578E+01 -0.55494968082E+02  0.61064947351E+02  0.00000000000E+00 0. -1.
<mgrwt>
<rscale>  0 0.13524215E+03</rscale>
<asrwt>0</asrwt>
<pdfrwt beam="2">  1        2 0.62188362E-01 0.14413320E+03</pdfrwt>
<pdfrwt beam="1">  1       -2 0.63625168E-02 0.14413320E+03</pdfrwt>
<totfact> 0.10168162E+04</totfact>
</mgrwt>
</event>
<event>
 7    1  0.1446636E-005  0.1427352E+03  0.7546771E-02  0.1220965E+00
         -1   -1    0    0    0  501 -0.00000000000E+00  0.00000000000E+00  0.19367917441E+03  0.19367917441E+03  0.00000000000E+00 0.  1.
          1   -1    0    0  501    0  0.00000000000E+00 -0.00000000000E+00 -0.96354037764E+02  0.96354037764E+02  0.00000000000E+00 0. -1.
         23    2    1    2    0    0 -0.20632945970E+02  0.65745731301E+02 -0.78673263728E+01  0.11272331925E+03  0.88861871654E+02 0.  0.
          5    1    1    2  502    0  0.62389459613E+02 -0.76720356424E+01  0.20346092293E+02  0.66237136662E+02  0.47000000000E+01 0. -1.
         -5    1    1    2    0  502 -0.41756513643E+02 -0.58073695659E+02  0.84846370728E+02  0.11107275627E+03  0.47000000000E+01 0. -1.
        -11    1    3    3    0    0 -0.54082887808E+01  0.81221524240E+02 -0.24905727159E+02  0.85126264059E+02  0.00000000000E+00 0. -1.
         11    1    3    3    0    0 -0.15224657189E+02 -0.15475792938E+02  0.17038400786E+02  0.27597055186E+02  0.00000000000E+00 0.  1.
<mgrwt>
<rscale>  0 0.13447351E+03</rscale>
<asrwt>0</asrwt>
<pdfrwt beam="2">  1        1 0.14823698E-01 0.14273522E+03</pdfrwt>
<pdfrwt beam="1">  1       -1 0.29796796E-01 0.14273522E+03</pdfrwt>
<totfact> 0.37680138E+03</totfact>
</mgrwt>
</event>
<event>
 7    1  0.1446636E-005  0.1292972E+03  0.7546771E-02  0.1241501E+00
          2   -1    0    0  501    0  0.00000000000E+00  0.00000000000E+00  0.39232645326E+02  0.39232645326E+02  0.00000000000E+00 0.  1.
         -2   -1    0    0    0  501 -0.00000000000E+00 -0.00000000000E+00 -0.33980106421E+03  0.33980106421E+03  0.00000000000E+00 0. -1.
         23    2    1    2    0    0  0.24564922153E+02  0.22107486261E+02 -0.15865847686E+03  0.18705400863E+03  0.93405104346E+02 0.  0.
          5    1    1    2  502    0 -0.48154014663E+02 -0.58261578747E+02 -0.12337722816E+03  0.14476619466E+03  0.47000000000E+01 0.  1.
         -5    1    1    2    0  502  0.23589092511E+02  0.36154092487E+02 -0.18532713865E+02  0.47213506248E+02  0.47000000000E+01 0.  1.
        -11    1    3    3    0    0 -0.76544887714E+01 -0.16434162417E+02  0.24511004848E+01  0.18294282885E+02  0.00000000000E+00 0.  1.
         11    1    3    3    0    0  0.32219410924E+02  0.38541648678E+02 -0.16110957734E+03  0.16875972575E+03  0.00000000000E+00 0. -1.
<mgrwt>
<rscale>  0 0.12097275E+03</rscale>
<asrwt>0</asrwt>
<pdfrwt beam="1">  1        2 0.60357916E-02 0.12929723E+03</pdfrwt>
<pdfrwt beam="2">  1       -2 0.52277087E-01 0.12929723E+03</pdfrwt>
<totfact> 0.40826630E+03</totfact>
</mgrwt>
</event>
<event>
 7    1  0.1446636E-005  0.3038181E+03  0.7546771E-02  0.1123226E+00
          1   -1    0    0  501    0  0.00000000000E+00  0.00000000000E+00  0.47123376826E+02  0.47123376826E+02  0.00000000000E+00 0. -1.
         -1   -1    0    0    0  501 -0.00000000000E+00 -0.00000000000E+00 -0.10731213556E+04  0.10731213556E+04  0.00000000000E+00 0.  1.
         23    2    1    2    0    0  0.55847671092E+02  0.78168529347E+01 -0.10751003675E+03  0.15281227124E+03  0.92806878430E+02 0.  0.
          5    1    1    2  502    0 -0.15605316736E+03  0.75471248249E+02 -0.51815129901E+03  0.54639853497E+03  0.47000000000E+01 0. -1.
         -5    1    1    2    0  502  0.10020549627E+03 -0.83288101183E+02 -0.40033664301E+03  0.42103392620E+03  0.47000000000E+01 0.  1.
        -11    1    3    3    0    0 -0.14531496968E+02 -0.26537574426E+02 -0.28519548638E+02  0.41578503040E+02  0.00000000000E+00 0.  1.
         11    1    3    3    0    0  0.70379168061E+02  0.34354427361E+02 -0.78990488112E+02  0.11123376820E+03  0.00000000000E+00 0. -1.
<mgrwt>
<rscale>  0 0.23491685E+03</rscale>
<asrwt>0</asrwt>
<pdfrwt beam="1">  1        1 0.72497500E-02 0.30381815E+03</pdfrwt>
<pdfrwt beam="2">  1       -1 0.16509560E+00 0.30381815E+03</pdfrwt>
<totfact> 0.29036048E+02</totfact>
</mgrwt>
</event>
<event>
 7    1  0.1446636E-005  0.1685345E+03  0.7546771E-02  0.1186053E+00
          2   -1    0    0  501    0  0.00000000000E+00  0.00000000000E+00  0.13835841841E+03  0.13835841841E+03  0.00000000000E+00 0. -1.
         -2   -1    0    0    0  501 -0.00000000000E+00 -0.00000000000E+00 -0.18217502888E+03  0.18217502888E+03  0.00000000000E+00 0.  1.
         23    2    1    2    0    0  0.62694484801E+02 -0.94059404336E+02  0.43800955097E+01  0.14524283494E+03  0.91096245238E+02 0.  0.
          5    1    1    2  502    0 -0.45128888267E+02 -0.22236359743E+02 -0.97399253421E+01  0.51458997236E+02  0.47000000000E+01 0.  1.
         -5    1    1    2    0  502 -0.17565596534E+02  0.11629576408E+03 -0.38456780632E+02  0.12383161511E+03  0.47000000000E+01 0.  1.
        -11    1    3    3    0    0 -0.84157054596E+01 -0.62384072801E+02  0.19585876319E+02  0.65925739956E+02  0.00000000000E+00 0. -1.
         11    1    3    3    0    0  0.71110190261E+02 -0.31675331535E+02 -0.15205780809E+02  0.79317094985E+02  0.00000000000E+00 0.  1.
<mgrwt>
<rscale>  0 0.16236443E+03</rscale>
<asrwt>0</asrwt>
<pdfrwt beam="1">  1        2 0.21285911E-01 0.16853450E+03</pdfrwt>
<pdfrwt beam="2">  1       -2 0.28026927E-01 0.16853450E+03</pdfrwt>
<totfact> 0.29168562E+03</totfact>
</mgrwt>
</event>
<event>
 7    1  0.1446636E-005  0.1331464E+03  0.7546771E-02  0.1235919E+00
         -1   -1    0    0    0  501 -0.00000000000E+00  0.00000000000E+00  0.13356158984E+03  0.13356158984E+03  0.00000000000E+00 0.  1.
          1   -1    0    0  501    0  0.00000000000E+00 -0.00000000000E+00 -0.12954103434E+03  0.12954103434E+03  0.00000000000E+00 0. -1.
         23    2    1    2    0    0 -0.15105820027E+02 -0.43298014304E+02 -0.57109578273E+02  0.11659368123E+03  0.90717576747E+02 0.  0.
          5    1    1    2  502    0  0.64970908782E+02  0.27646772319E+02  0.69857820458E+01  0.71108748818E+02  0.47000000000E+01 0. -1.
         -5    1    1    2    0  502 -0.49865088755E+02  0.15651241985E+02  0.54144351720E+02  0.75400194134E+02  0.47000000000E+01 0. -1.
        -11    1    3    3    0    0 -0.17046397874E+02 -0.18495735163E+02  0.22153616826E+02  0.33517974852E+02  0.00000000000E+00 0.  1.
         11    1    3    3    0    0  0.19405778475E+01 -0.24802279141E+02 -0.79263195098E+02  0.83075706378E+02  0.00000000000E+00 0. -1.
<mgrwt>
<rscale>  0 0.12445814E+03</rscale>
<asrwt>0</asrwt>
<pdfrwt beam="2">  1        1 0.19929390E-01 0.13314645E+03</pdfrwt>
<pdfrwt beam="1">  1       -1 0.20547937E-01 0.13314645E+03</pdfrwt>
<totfact> 0.47255704E+03</totfact>
</mgrwt>
</event>
<event>
 7    1  0.1446636E-005  0.1738931E+03  0.7546771E-02  0.1180218E+00
         -1   -1    0    0    0  501 -0.00000000000E+00  0.00000000000E+00  0.13545072110E+03  0.13545072110E+03  0.00000000000E+00 0.  1.
          1   -1    0    0  501    0  0.00000000000E+00 -0.00000000000E+00 -0.21038640522E+03  0.21038640522E+03  0.00000000000E+00 0. -1.
         23    2    1    2    0    0  0.10050972325E+03  0.67165379122E+02 -0.82653154822E+02  0.17177290708E+03  0.89783043958E+02 0.  0.
          5    1    1    2  502    0  0.28696911555E+02 -0.42175607142E+01 -0.45780968389E+01  0.29738014760E+02  0.47000000000E+01 0.  1.
         -5    1    1    2    0  502 -0.12920663481E+03 -0.62947818408E+02  0.12295567543E+02  0.14432620449E+03  0.47000000000E+01 0.  1.
        -11    1    3    3    0    0  0.80674763193E+02  0.21759060515E+02 -0.10457622438E+02  0.84209476889E+02  0.00000000000E+00 0.  1.
         11    1    3    3    0    0  0.19834960059E+02  0.45406318607E+02 -0.72195532384E+02  0.87563430187E+02  0.00000000000E+00 0. -1.
<mgrwt>
<rscale>  0 0.16774656E+03</rscale>
<asrwt>0</asrwt>
<pdfrwt beam="2">  1        1 0.32367139E-01 0.17389305E+03</pdfrwt>
<pdfrwt beam="1">  1       -1 0.20838573E-01 0.17389305E+03</pdfrwt>
<totfact> 0.25421783E+03</totfact>
</mgrwt>
</event>
<event>
 7    1  0.1446636E-005  0.1302337E+03  0.7546771E-02  0.1240929E+00
          1   -1    0    0  501    0  0.00000000000E+00  0.00000000000E+00  0.23461860020E+03  0.23461860020E+03  0.00000000000E+00 0. -1.
         -1   -1    0    0    0  501 -0.00000000000E+00 -0.00000000000E+00 -0.57966107203E+02  0.57966107203E+02  0.00000000000E+00 0.  1.
         23    2    1    2    0    0 -0.32449218250E+02  0.16791518074E+02  0.10599945051E+03  0.14442036106E+03  0.91029941974E+02 0.  0.
          5    1    1    2  502    0  0.56773352844E+02 -0.36476617122E+02  0.88844259041E+02  0.11166534626E+03  0.47000000000E+01 0.  1.
         -5    1    1    2    0  502 -0.24324134594E+02  0.19685099047E+02 -0.18191216549E+02  0.36499000093E+02  0.47000000000E+01 0.  1.
        -11    1    3    3    0    0  0.21586934267E+02 -0.21407090258E+02  0.45731142505E+02  0.54914448365E+02  0.00000000000E+00 0. -1.
         11    1    3    3    0    0 -0.54036152518E+02  0.38198608333E+02  0.60268308002E+02  0.89505912692E+02  0.00000000000E+00 0.  1.
<mgrwt>
<rscale>  0 0.12132411E+03</rscale>
<asrwt>0</asrwt>
<pdfrwt beam="1">  1        1 0.36095169E-01 0.13023372E+03</pdfrwt>
<pdfrwt beam="2">  1       -1 0.89178627E-02 0.13023372E+03</pdfrwt>
<totfact> 0.82328785E+03</totfact>
</mgrwt>
</event>
<event>
 7    1  0.1446636E-005  0.1291272E+03  0.7546771E-02  0.1243393E+00
         -2   -1    0    0    0  501 -0.00000000000E+00  0.00000000000E+00  0.62932455038E+03  0.62932455038E+03  0.00000000000E+00 0.  1.
          2   -1    0    0  501    0  0.00000000000E+00 -0.00000000000E+00 -0.20203735600E+02  0.20203735600E+02  0.00000000000E+00 0. -1.
         23    2    1    2    0    0  0.42986948694E+01 -0.32833803106E+02  0.23512940638E+03  0.25387261786E+03  0.89827228329E+02 0.  0.
          5    1    1    2  502    0 -0.34517682893E+01  0.11472782773E+02 -0.65807313235E+01  0.14454600432E+02  0.47000000000E+01 0. -1.
         -5    1    1    2    0  502 -0.84692658010E+00  0.21361020332E+02  0.38057213972E+03  0.38120106769E+03  0.47000000000E+01 0. -1.
        -11    1    3    3    0    0 -0.32775837712E+02 -0.43633552996E+01  0.17294854286E+03  0.17608092709E+03  0.00000000000E+00 0.  1.
         11    1    3    3    0    0  0.37074532582E+02 -0.28470447806E+02  0.62180863517E+02  0.77791690765E+02  0.00000000000E+00 0. -1.
<mgrwt>
<rscale>  0 0.11982092E+03</rscale>
<asrwt>0</asrwt>
<pdfrwt beam="2">  1        2 0.31082675E-02 0.12912720E+03</pdfrwt>
<pdfrwt beam="1">  1       -2 0.96819146E-01 0.12912720E+03</pdfrwt>
<totfact> 0.26258395E+03</totfact>
</mgrwt>
</event>
<event>
 7    1  0.1446636E-005  0.1311406E+03  0.7546771E-02  0.1231457E+00
         -1   -1    0    0    0  501 -0.00000000000E+00  0.00000000000E+00  0.27528939818E+03  0.27528939818E+03  0.00000000000E+00 0.  1.
          1   -1    0    0  501    0  0.00000000000E+00 -0.00000000000E+00 -0.56938957956E+02  0.56938957956E+02  0.00000000000E+00 0. -1.
         23    2    1    2    0    0 -0.79053479430E+01  0.38858375744E+02  0.12704773563E+03  0.17243458917E+03  0.10963618255E+03 0.  0.
          5    1    1    2  502    0  0.10229910781E+02 -0.74341590655E+02  0.16707578184E+02  0.77023089684E+02  0.47000000000E+01 0. -1.
         -5    1    1    2    0  502 -0.23245628378E+01  0.35483214911E+02  0.74595126409E+02  0.82770677277E+02  0.47000000000E+01 0. -1.
        -11    1    3    3    0    0 -0.73317690497E+01  0.77404553398E+02  0.79149651973E+02  0.11094993074E+03  0.00000000000E+00 0. -1.
         11    1    3    3    0    0 -0.57357889329E+00 -0.38546177654E+02  0.47898083657E+02  0.61484658432E+02  0.00000000000E+00 0.  1.
<mgrwt>
<rscale>  0 0.12734022E+03</rscale>
<asrwt>0</asrwt>
<pdfrwt beam="2">  1        1 0.87598398E-02 0.13114063E+03</pdfrwt>
<pdfrwt beam="1">  1       -1 0.42352215E-01 0.13114063E+03</pdfrwt>
<totfact> 0.40901485E+03</totfact>
</mgrwt>
</event>
<event>
 7    1  0.1446636E-005  0.1344458E+03  0.7546771E-02  0.1232651E+00
          1   -1    0    0  501    0  0.00000000000E+00  0.00000000000E+00  0.49084702413E+03  0.49084702413E+03  0.00000000000E+00 0. -1.
         -1   -1    0    0    0  501 -0.00000000000E+00 -0.00000000000E+00 -0.31583009398E+02  0.31583009398E+02  0.00000000000E+00 0.  1.
         23    2    1    2    0    0  0.42944070520E+02  0.24635007981E+02  0.27309479737E+03  0.29278975042E+03  0.93241582956E+02 0.  0.
          5    1    1    2  502    0 -0.69647262627E+02 -0.50302374934E+02  0.81507262067E+02  0.11851832721E+03  0.47000000000E+01 0.  1.
         -5    1    1    2    0  502  0.26703192106E+02  0.25667366953E+02  0.10466195530E+03  0.11112195590E+03  0.47000000000E+01 0.  1.
        -11    1    3    3    0    0  0.11477800868E+02  0.54194142943E+02  0.20338194492E+03  0.21079127250E+03  0.00000000000E+00 0. -1.
         11    1    3    3    0    0  0.31466269653E+02 -0.29559134962E+02  0.69712852450E+02  0.81998477926E+02  0.00000000000E+00 0.  1.
<mgrwt>
<rscale>  0 0.12655982E+03</rscale>
<asrwt>0</asrwt>
<pdfrwt beam="1">  1        1 0.75514921E-01 0.13444583E+03</pdfrwt>
<pdfrwt beam="2">  1       -1 0.48589249E-02 0.13444583E+03</pdfrwt>
<totfact> 0.81216679E+03</totfact>
</mgrwt>
</event>
<event>
 7    1  0.1446636E-005  0.1619427E+03  0.7546771E-02  0.1194649E+00
          2   -1    0    0  501    0  0.00000000000E+00  0.00000000000E+00  0.32754048222E+03  0.32754048222E+03  0.00000000000E+00 0.  1.
         -2   -1    0    0    0  501 -0.00000000000E+00 -0.00000000000E+00 -0.23092531966E+03  0.23092531966E+03  0.00000000000E+00 0. -1.
         23    2    1    2    0    0 -0.92419787195E+02  0.45379191782E+02  0.28170460483E+03  0.31253178754E+03  0.87851839635E+02 0.  0.
          5    1    1    2  502    0  0.70751472674E+02 -0.66157906373E+02 -0.53245555493E+02  0.11063371385E+03  0.47000000000E+01 0.  1.
         -5    1    1    2    0  502  0.21668314522E+02  0.20778714591E+02 -0.13184388677E+03  0.13530030049E+03  0.47000000000E+01 0.  1.
        -11    1    3    3    0    0 -0.10236516273E+03  0.17155034890E+02  0.23705125717E+03  0.25877832268E+03  0.00000000000E+00 0.  1.
         11    1    3    3    0    0  0.99453755395E+01  0.28224156892E+02  0.44653347659E+02  0.53753464856E+02  0.00000000000E+00 0. -1.
<mgrwt>
<rscale>  0 0.15483982E+03</rscale>
<asrwt>0</asrwt>
<pdfrwt beam="1">  1        2 0.50390843E-01 0.16194270E+03</pdfrwt>
<pdfrwt beam="2">  1       -2 0.35526972E-01 0.16194270E+03</pdfrwt>
<totfact> 0.74112535E+02</totfact>
</mgrwt>
</event>
<event>
 7    1  0.1446636E-005  0.1620888E+03  0.7546771E-02  0.1202479E+00
          2   -1    0    0  501    0  0.00000000000E+00  0.00000000000E+00  0.70521742774E+03  0.70521742774E+03  0.00000000000E+00 0. -1.
         -2   -1    0    0    0  501 -0.00000000000E+00 -0.00000000000E+00 -0.48302521346E+02  0.48302521346E+02  0.00000000000E+00 0.  1.
         23    2    1    2    0    0  0.47668535456E+02 -0.46028274473E+02  0.54448590506E+03  0.55625600093E+03  0.92546995838E+02 0.  0.
          5    1    1    2  502    0 -0.16079484458E+02 -0.34483798455E+02  0.10328144639E+03  0.11016727892E+03  0.47000000000E+01 0. -1.
         -5    1    1    2    0  502 -0.31589050998E+02  0.80512072928E+02  0.91475549430E+01  0.87096669233E+02  0.47000000000E+01 0.  1.
        -11    1    3    3    0    0  0.19966720617E+02  0.27737045755E+02  0.13507211098E+03  0.13932870775E+03  0.00000000000E+00 0.  1.
         11    1    3    3    0    0  0.27701814839E+02 -0.73765320228E+02  0.40941379408E+03  0.41692729318E+03  0.00000000000E+00 0. -1.
<mgrwt>
<rscale>  0 0.14837918E+03</rscale>
<asrwt>0</asrwt>
<pdfrwt beam="1">  1        2 0.10849498E+00 0.16208882E+03</pdfrwt>
<pdfrwt beam="2">  1       -2 0.74311576E-02 0.16208882E+03</pdfrwt>
<totfact> 0.43198957E+03</totfact>
</mgrwt>
</event>
<event>
 7    1  0.1446636E-005  0.1342535E+03  0.7546771E-02  0.1238494E+00
         -1   -1    0    0    0  501 -0.00000000000E+00  0.00000000000E+00  0.18478483765E+03  0.18478483765E+03  0.00000000000E+00 0.  1.
          1   -1    0    0  501    0  0.00000000000E+00 -0.00000000000E+00 -0.70883151966E+02  0.70883151966E+02  0.00000000000E+00 0. -1.
         23    2    1    2    0    0  0.46870786775E+02  0.14264917061E+02  0.55786311920E+02  0.10937582150E+03  0.80315622505E+02 0.  0.
          5    1    1    2  502    0  0.17975970566E+02 -0.19932599674E+02  0.74225874139E+02  0.79069680911E+02  0.47000000000E+01 0. -1.
         -5    1    1    2    0  502 -0.64846757341E+02  0.56676826136E+01 -0.16110500379E+02  0.67222487207E+02  0.47000000000E+01 0. -1.
        -11    1    3    3    0    0  0.21380625842E+02 -0.27481375300E+02 -0.47859703945E+00  0.34822208501E+02  0.00000000000E+00 0. -1.
         11    1    3    3    0    0  0.25490160933E+02  0.41746292360E+02  0.56264908960E+02  0.74553612994E+02  0.00000000000E+00 0.  1.
<mgrwt>
<rscale>  0 0.12283383E+03</rscale>
<asrwt>0</asrwt>
<pdfrwt beam="2">  1        1 0.10905100E-01 0.13425350E+03</pdfrwt>
<pdfrwt beam="1">  1       -1 0.28428436E-01 0.13425350E+03</pdfrwt>
<totfact> 0.60683012E+03</totfact>
</mgrwt>
</event>
<event>
 7    1  0.1446636E-005  0.1429965E+03  0.7546771E-02  0.1219587E+00
         -2   -1    0    0    0  501 -0.00000000000E+00  0.00000000000E+00  0.68429848134E+02  0.68429848134E+02  0.00000000000E+00 0. -1.
          2   -1    0    0  501    0  0.00000000000E+00 -0.00000000000E+00 -0.26426148489E+03  0.26426148489E+03  0.00000000000E+00 0.  1.
         23    2    1    2    0    0  0.57326903510E+02 -0.39112937138E+02 -0.13467038108E+03  0.17716417149E+03  0.91841365416E+02 0.  0.
          5    1    1    2  502    0 -0.41882289354E+02 -0.49087477490E+01 -0.90683307969E+02  0.10011880098E+03  0.47000000000E+01 0.  1.
         -5    1    1    2    0  502 -0.15444614156E+02  0.44021684887E+02  0.29522052297E+02  0.55408360548E+02  0.47000000000E+01 0.  1.
        -11    1    3    3    0    0 -0.16883917729E+02  0.15378355318E+02 -0.31156889830E+02  0.38630457855E+02  0.00000000000E+00 0.  1.
         11    1    3    3    0    0  0.74210821240E+02 -0.54491292456E+02 -0.10351349125E+03  0.13853371363E+03  0.00000000000E+00 0. -1.
<mgrwt>
<rscale>  0 0.13544883E+03</rscale>
<asrwt>0</asrwt>
<pdfrwt beam="2">  1        2 0.40655613E-01 0.14299650E+03</pdfrwt>
<pdfrwt beam="1">  1       -2 0.10527669E-01 0.14299650E+03</pdfrwt>
<totfact> 0.73183953E+03</totfact>
</mgrwt>
</event>
<event>
 7    1  0.1446636E-005  0.1557118E+03  0.7546771E-02  0.1202910E+00
         -1   -1    0    0    0  501 -0.00000000000E+00  0.00000000000E+00  0.56417885922E+02  0.56417885922E+02  0.00000000000E+00 0.  1.
          1   -1    0    0  501    0  0.00000000000E+00 -0.00000000000E+00 -0.37887190050E+03  0.37887190050E+03  0.00000000000E+00 0. -1.
         23    2    1    2    0    0  0.33247181282E+02  0.82829514611E+02 -0.20076701705E+03  0.23766920754E+03  0.90626450457E+02 0.  0.
          5    1    1    2  502    0 -0.62390499705E+02  0.37068867731E+01 -0.35828995842E+02  0.72195030342E+02  0.47000000000E+01 0. -1.
         -5    1    1    2    0  502  0.29143318423E+02 -0.86536401385E+02 -0.85858001679E+02  0.12542554854E+03  0.47000000000E+01 0.  1.
        -11    1    3    3    0    0  0.55421384956E+02  0.44262176479E+02 -0.70456182594E+02  0.99973715760E+02  0.00000000000E+00 0.  1.
         11    1    3    3    0    0 -0.22174203674E+02  0.38567338133E+02 -0.13031083446E+03  0.13769549178E+03  0.00000000000E+00 0. -1.
<mgrwt>
<rscale>  0 0.14803383E+03</rscale>
<asrwt>0</asrwt>
<pdfrwt beam="2">  1        1 0.58287985E-01 0.15571181E+03</pdfrwt>
<pdfrwt beam="1">  1       -1 0.86796748E-02 0.15571181E+03</pdfrwt>
<totfact> 0.47819188E+03</totfact>
</mgrwt>
</event>
<event>
 7    1  0.1446636E-005  0.1508135E+03  0.7546771E-02  0.1209302E+00
          1   -1    0    0  501    0  0.00000000000E+00  0.00000000000E+00  0.18135957981E+03  0.18135957981E+03  0.00000000000E+00 0. -1.
         -1   -1    0    0    0  501 -0.00000000000E+00 -0.00000000000E+00 -0.10708908905E+03  0.10708908905E+03  0.00000000000E+00 0.  1.
         23    2    1    2    0    0  0.49589327970E+02 -0.68256916946E+02  0.40615844768E+01  0.12209364573E+03  0.88160386230E+02 0.  0.
          5    1    1    2  502    0 -0.24409963122E+02  0.66223552199E+02  0.10284225735E+03  0.12481997061E+03  0.47000000000E+01 0. -1.
         -5    1    1    2    0  502 -0.25179364848E+02  0.20333647471E+01 -0.32633351071E+02  0.41535052527E+02  0.47000000000E+01 0. -1.
        -11    1    3    3    0    0  0.44724078496E+02 -0.34852460702E+02 -0.37928760634E+02  0.68216772846E+02  0.00000000000E+00 0.  1.
         11    1    3    3    0    0  0.48652494733E+01 -0.33404456245E+02  0.41990345111E+02  0.53876872886E+02  0.00000000000E+00 0. -1.
<mgrwt>
<rscale>  0 0.14303531E+03</rscale>
<asrwt>0</asrwt>
<pdfrwt beam="1">  1        1 0.27901474E-01 0.15081347E+03</pdfrwt>
<pdfrwt beam="2">  1       -1 0.16475244E-01 0.15081347E+03</pdfrwt>
<totfact> 0.44297683E+03</totfact>
</mgrwt>
</event>
<event>
 7    1  0.1446636E-005  0.1867531E+03  0.7546771E-02  0.1165697E+00
         -1   -1    0    0    0  501 -0.00000000000E+00  0.00000000000E+00  0.10981101714E+03  0.10981101714E+03  0.00000000000E+00 0.  1.
          1   -1    0    0  501    0  0.00000000000E+00 -0.00000000000E+00 -0.29211154245E+03  0.29211154245E+03  0.00000000000E+00 0. -1.
         23    2    1    2    0    0 -0.13767659732E+03  0.17206846040E+02 -0.10929870844E+03  0.20140827297E+03  0.96789275005E+02 0.  0.
          5    1    1    2  502    0  0.64167847937E+02 -0.48929565912E+02 -0.87382913983E+02  0.11903561982E+03  0.47000000000E+01 0. -1.
         -5    1    1    2    0  502  0.73508749378E+02  0.31722719871E+02  0.14381097105E+02  0.81478666810E+02  0.47000000000E+01 0. -1.
        -11    1    3    3    0    0 -0.81163593087E+02 -0.67265465431E+01 -0.11372247750E+03  0.13987700726E+03  0.00000000000E+00 0. -1.
         11    1    3    3    0    0 -0.56513004229E+02  0.23933392584E+02  0.44237690615E+01  0.61531265713E+02  0.00000000000E+00 0.  1.
<mgrwt>
<rscale>  0 0.18219347E+03</rscale>
<asrwt>0</asrwt>
<pdfrwt beam="2">  1        1 0.44940238E-01 0.18675308E+03</pdfrwt>
<pdfrwt beam="1">  1       -1 0.16894002E-01 0.18675308E+03</pdfrwt>
<totfact> 0.23711609E+03</totfact>
</mgrwt>
</event>
<event>
 7    1  0.1446636E-005  0.1823602E+03  0.7546771E-02  0.1168317E+00
         -1   -1    0    0    0  501 -0.00000000000E+00  0.00000000000E+00  0.55382608750E+03  0.55382608750E+03  0.00000000000E+00 0.  1.
          1   -1    0    0  501    0  0.00000000000E+00 -0.00000000000E+00 -0.63409218239E+02  0.63409218239E+02  0.00000000000E+00 0. -1.
         23    2    1    2    0    0 -0.12255559329E+03  0.73286817771E+02  0.13558637110E+03  0.21828677153E+03  0.94205198862E+02 0.  0.
          5    1    1    2  502    0  0.63059486645E+02 -0.94475660375E+02  0.17889436903E+03  0.21196092689E+03  0.47000000000E+01 0. -1.
         -5    1    1    2    0  502  0.59496106640E+02  0.21188842604E+02  0.17593612912E+03  0.18698760731E+03  0.47000000000E+01 0.  1.
        -11    1    3    3    0    0 -0.42894653619E+02 -0.16408392559E+02  0.15306813316E+02  0.48409556798E+02  0.00000000000E+00 0. -1.
         11    1    3    3    0    0 -0.79660939667E+02  0.89695210330E+02  0.12027955779E+03  0.16987721474E+03  0.00000000000E+00 0.  1.
<mgrwt>
<rscale>  0 0.17947005E+03</rscale>
<asrwt>0</asrwt>
<pdfrwt beam="2">  1        1 0.97552647E-02 0.18236022E+03</pdfrwt>
<pdfrwt beam="1">  1       -1 0.85204010E-01 0.18236022E+03</pdfrwt>
<totfact> 0.94121498E+02</totfact>
</mgrwt>
</event>
<event>
 7    1  0.1446636E-005  0.1270694E+03  0.7546771E-02  0.1245550E+00
         -1   -1    0    0    0  501 -0.00000000000E+00  0.00000000000E+00  0.97393502897E+02  0.97393502897E+02  0.00000000000E+00 0.  1.
          1   -1    0    0  501    0  0.00000000000E+00 -0.00000000000E+00 -0.16451268716E+03  0.16451268716E+03  0.00000000000E+00 0. -1.
         23    2    1    2    0    0  0.21362211126E+02  0.80909584921E+01 -0.91228690392E+02  0.13256983385E+03  0.93435963223E+02 0.  0.
          5    1    1    2  502    0 -0.17979360522E+02  0.16099604862E+02 -0.47523665527E+02  0.53507415062E+02  0.47000000000E+01 0. -1.
         -5    1    1    2    0  502 -0.33828506039E+01 -0.24190563354E+02  0.71633171656E+02  0.75828941144E+02  0.47000000000E+01 0. -1.
        -11    1    3    3    0    0 -0.19856142464E+02 -0.28752688000E+02 -0.14114292692E+02  0.37685497462E+02  0.00000000000E+00 0.  1.
         11    1    3    3    0    0  0.41218353590E+02  0.36843646492E+02 -0.77114397701E+02  0.94884336390E+02  0.00000000000E+00 0. -1.
<mgrwt>
<rscale>  0 0.11852518E+03</rscale>
<asrwt>0</asrwt>
<pdfrwt beam="2">  1        1 0.25309644E-01 0.12706937E+03</pdfrwt>
<pdfrwt beam="1">  1       -1 0.14983616E-01 0.12706937E+03</pdfrwt>
<totfact> 0.57505499E+03</totfact>
</mgrwt>
</event>
<event>
 7    1  0.1446636E-005  0.1350535E+03  0.7546771E-02  0.1247603E+00
          1   -1    0    0  501    0  0.00000000000E+00  0.00000000000E+00  0.36577554203E+03  0.36577554203E+03  0.00000000000E+00 0. -1.
         -1   -1    0    0    0  501 -0.00000000000E+00 -0.00000000000E+00 -0.32864043848E+02  0.32864043848E+02  0.00000000000E+00 0.  1.
         23    2    1    2    0    0 -0.51143159759E+02  0.67970643635E-01  0.74449351883E+02  0.10701973772E+03  0.57401139846E+02 0.  0.
          5    1    1    2  502    0  0.24878121678E+02 -0.27953616908E+02  0.84547567086E+01  0.38650983784E+02  0.47000000000E+01 0.  1.
         -5    1    1    2    0  502  0.26265038080E+02  0.27885646264E+02  0.25000738959E+03  0.25296886437E+03  0.47000000000E+01 0.  1.
        -11    1    3    3    0    0 -0.46435305563E+02  0.19207661943E+02  0.71040706377E+02  0.87016974451E+02  0.00000000000E+00 0. -1.
         11    1    3    3    0    0 -0.47078541955E+01 -0.19139691299E+02  0.34086455052E+01  0.20002763268E+02  0.00000000000E+00 0.  1.
<mgrwt>
<rscale>  0 0.11730935E+03</rscale>
<asrwt>0</asrwt>
<pdfrwt beam="1">  1        1 0.56273157E-01 0.13505353E+03</pdfrwt>
<pdfrwt beam="2">  1       -1 0.50560070E-02 0.13505353E+03</pdfrwt>
<totfact> 0.11132611E+04</totfact>
</mgrwt>
</event>
<event>
 7    1  0.1446636E-005  0.1388113E+03  0.7546771E-02  0.1226900E+00
          2   -1    0    0  501    0  0.00000000000E+00  0.00000000000E+00  0.37249408056E+03  0.37249408056E+03  0.00000000000E+00 0.  1.
         -2   -1    0    0    0  501 -0.00000000000E+00 -0.00000000000E+00 -0.47577431002E+02  0.47577431002E+02  0.00000000000E+00 0. -1.
         23    2    1    2    0    0  0.60229576650E+02 -0.38881428374E+01  0.22325526189E+03  0.24801446474E+03  0.89585396154E+02 0.  0.
          5    1    1    2  502    0  0.33587213350E+02  0.12043130014E+00  0.60655484760E+02  0.69493116463E+02  0.47000000000E+01 0. -1.
         -5    1    1    2    0  502 -0.93816790001E+02  0.37677115373E+01  0.41005902913E+02  0.10256393036E+03  0.47000000000E+01 0. -1.
        -11    1    3    3    0    0  0.37329566637E+02 -0.38327598797E+02  0.63707525255E+02  0.83193450157E+02  0.00000000000E+00 0. -1.
         11    1    3    3    0    0  0.22900010013E+02  0.34439455959E+02  0.15954773663E+03  0.16482101459E+03  0.00000000000E+00 0.  1.
<mgrwt>
<rscale>  0 0.13037505E+03</rscale>
<asrwt>0</asrwt>
<pdfrwt beam="1">  1        2 0.57306780E-01 0.13881135E+03</pdfrwt>
<pdfrwt beam="2">  1       -2 0.73196050E-02 0.13881135E+03</pdfrwt>
<totfact> 0.89316037E+03</totfact>
</mgrwt>
</event>
<event>
 7    1  0.1446636E-005  0.2328376E+03  0.7546771E-02  0.1124658E+00
          1   -1    0    0  501    0  0.00000000000E+00  0.00000000000E+00  0.30682698809E+03  0.30682698809E+03  0.00000000000E+00 0. -1.
         -1   -1    0    0    0  501 -0.00000000000E+00 -0.00000000000E+00 -0.44172583015E+02  0.44172583015E+02  0.00000000000E+00 0.  1.
         23    2    1    2    0    0  0.20617129681E+02  0.10116756975E+02  0.16454580244E+03  0.19044770188E+03  0.93099899273E+02 0.  0.
          5    1    1    2  502    0 -0.28755903318E+02 -0.44996948311E+02 -0.24890338728E+01  0.53664817362E+02  0.47000000000E+01 0. -1.
         -5    1    1    2    0  502  0.81387736372E+01  0.34880191336E+02  0.10059763651E+03  0.10688705186E+03  0.47000000000E+01 0. -1.
        -11    1    3    3    0    0  0.57832217788E+02  0.99080535769E+01  0.10081666199E+03  0.11664790729E+03  0.00000000000E+00 0.  1.
         11    1    3    3    0    0 -0.37215088108E+02  0.20870339833E+00  0.63729140451E+02  0.73799794597E+02  0.00000000000E+00 0. -1.
<mgrwt>
<rscale>  0 0.23283763E+03</rscale>
<asrwt>0</asrwt>
<pdfrwt beam="1">  1        1 0.47204151E-01 0.23283763E+03</pdfrwt>
<pdfrwt beam="2">  1       -1 0.67957822E-02 0.23283763E+03</pdfrwt>
<totfact> 0.92483158E+03</totfact>
</mgrwt>
</event>
<event>
 7    1  0.1446636E-005  0.1314445E+03  0.7546771E-02  0.1250233E+00
          2   -1    0    0  501    0  0.00000000000E+00  0.00000000000E+00  0.49071397753E+03  0.49071397753E+03  0.00000000000E+00 0. -1.
         -2   -1    0    0    0  501 -0.00000000000E+00 -0.00000000000E+00 -0.30051105681E+02  0.30051105681E+02  0.00000000000E+00 0.  1.
         23    2    1    2    0    0  0.27279277806E+02  0.30116326465E+02  0.31402912731E+03  0.32384096533E+03  0.67878758882E+02 0.  0.
          5    1    1    2  502    0 -0.34241062291E+02  0.36070703540E+02  0.10999514735E+03  0.12080798169E+03  0.47000000000E+01 0. -1.
         -5    1    1    2    0  502  0.69617844852E+01 -0.66187030005E+02  0.36638597188E+02  0.76116136187E+02  0.47000000000E+01 0. -1.
        -11    1    3    3    0    0 -0.17686480859E+02  0.28585994471E+02  0.15265497778E+03  0.15631222897E+03  0.00000000000E+00 0.  1.
         11    1    3    3    0    0  0.44965758664E+02  0.15303319947E+01  0.16137414954E+03  0.16752873636E+03  0.00000000000E+00 0. -1.
<mgrwt>
<rscale>  0 0.11577562E+03</rscale>
<asrwt>0</asrwt>
<pdfrwt beam="1">  1        2 0.75494452E-01 0.13144449E+03</pdfrwt>
<pdfrwt beam="2">  1       -2 0.46232474E-02 0.13144449E+03</pdfrwt>
<totfact> 0.13257279E+04</totfact>
</mgrwt>
</event>
<event>
 7    1  0.1446636E-005  0.1279848E+03  0.7546771E-02  0.1257063E+00
         -1   -1    0    0    0  501 -0.00000000000E+00  0.00000000000E+00  0.29276654503E+02  0.29276654503E+02  0.00000000000E+00 0.  1.
          1   -1    0    0  501    0  0.00000000000E+00 -0.00000000000E+00 -0.35165891724E+03  0.35165891724E+03  0.00000000000E+00 0. -1.
         23    2    1    2    0    0 -0.22141961958E+02  0.16302322209E+02 -0.11277248943E+03  0.13534166476E+03  0.69596692881E+02 0.  0.
          5    1    1    2  502    0  0.56295090405E+02 -0.18544381711E+02 -0.20152466376E+03  0.21011261600E+03  0.47000000000E+01 0. -1.
         -5    1    1    2    0  502 -0.34153128446E+02  0.22420595021E+01 -0.80851095474E+01  0.35481290984E+02  0.47000000000E+01 0. -1.
        -11    1    3    3    0    0  0.16478008157E+02  0.22081483869E+02 -0.79160305718E+02  0.83818080890E+02  0.00000000000E+00 0.  1.
         11    1    3    3    0    0 -0.38619970116E+02 -0.57791616606E+01 -0.33612183710E+02  0.51523583871E+02  0.00000000000E+00 0. -1.
<mgrwt>
<rscale>  0 0.11191536E+03</rscale>
<asrwt>0</asrwt>
<pdfrwt beam="2">  1        1 0.54101372E-01 0.12798480E+03</pdfrwt>
<pdfrwt beam="1">  1       -1 0.45041006E-02 0.12798480E+03</pdfrwt>
<totfact> 0.13808036E+04</totfact>
</mgrwt>
</event>
<event>
 7    1  0.1446636E-005  0.1515114E+03  0.7546771E-02  0.1207417E+00
         -2   -1    0    0    0  501 -0.00000000000E+00  0.00000000000E+00  0.92743011271E+03  0.92743011271E+03  0.00000000000E+00 0. -1.
          2   -1    0    0  501    0  0.00000000000E+00 -0.00000000000E+00 -0.22951949189E+02  0.22951949189E+02  0.00000000000E+00 0.  1.
         23    2    1    2    0    0  0.85471073391E+02  0.50624078448E+01  0.26401924724E+03  0.29224581212E+03  0.91490542860E+02 0.  0.
          5    1    1    2  502    0 -0.23452693746E+02  0.44340585424E+02  0.10107365969E+03  0.11293401190E+03  0.47000000000E+01 0.  1.
         -5    1    1    2    0  502 -0.62018379645E+02 -0.49402993268E+02  0.53938525660E+03  0.54520223788E+03  0.47000000000E+01 0.  1.
        -11    1    3    3    0    0  0.33456438431E+02  0.46944746145E+02  0.13967714505E+03  0.15110541788E+03  0.00000000000E+00 0.  1.
         11    1    3    3    0    0  0.52014634960E+02 -0.41882338300E+02  0.12434210219E+03  0.14114039424E+03  0.00000000000E+00 0. -1.
<mgrwt>
<rscale>  0 0.14448622E+03</rscale>
<asrwt>0</asrwt>
<pdfrwt beam="2">  1        2 0.35310698E-02 0.15151139E+03</pdfrwt>
<pdfrwt beam="1">  1       -2 0.14268153E+00 0.15151139E+03</pdfrwt>
<totfact> 0.88289430E+02</totfact>
</mgrwt>
</event>
<event>
 7    1  0.1446636E-005  0.1411533E+03  0.7546771E-02  0.1221332E+00
         -1   -1    0    0    0  501 -0.00000000000E+00  0.00000000000E+00  0.32898865402E+03  0.32898865402E+03  0.00000000000E+00 0.  1.
          1   -1    0    0  501    0  0.00000000000E+00 -0.00000000000E+00 -0.55686979110E+02  0.55686979110E+02  0.00000000000E+00 0. -1.
         23    2    1    2    0    0 -0.33111258642E+02  0.56589873899E+02  0.63186936462E+02  0.13155025312E+03  0.94942671546E+02 0.  0.
          5    1    1    2  502    0  0.15461059766E+02 -0.33434239047E+02 -0.36703354125E+01  0.37315600917E+02  0.47000000000E+01 0.  1.
         -5    1    1    2    0  502  0.17650198876E+02 -0.23155634851E+02  0.21378507386E+03  0.21580977909E+03  0.47000000000E+01 0.  1.
        -11    1    3    3    0    0 -0.19446195933E+02 -0.84411591338E+01  0.61528683952E+02  0.65078311691E+02  0.00000000000E+00 0.  1.
         11    1    3    3    0    0 -0.13665062709E+02  0.65031033033E+02  0.16582525101E+01  0.66471941430E+02  0.00000000000E+00 0. -1.
<mgrwt>
<rscale>  0 0.13421538E+03</rscale>
<asrwt>0</asrwt>
<pdfrwt beam="2">  1        1 0.85672277E-02 0.14115330E+03</pdfrwt>
<pdfrwt beam="1">  1       -1 0.50613638E-01 0.14115330E+03</pdfrwt>
<totfact> 0.30705366E+03</totfact>
</mgrwt>
</event>
<event>
 7    1  0.1446636E-005  0.1359875E+03  0.7546771E-02  0.1230863E+00
          2   -1    0    0  501    0  0.00000000000E+00  0.00000000000E+00  0.11484377342E+03  0.11484377342E+03  0.00000000000E+00 0. -1.
         -2   -1    0    0    0  501 -0.00000000000E+00 -0.00000000000E+00 -0.17549737014E+03  0.17549737014E+03  0.00000000000E+00 0.  1.
         23    2    1    2    0    0  0.42946109428E+02 -0.32009662468E+02  0.48054117236E+02  0.11624359081E+03  0.91292866179E+02 0.  0.
          5    1    1    2  502    0  0.24752760921E+02 -0.28072140863E+02 -0.79074519142E+01  0.38540395192E+02  0.47000000000E+01 0.  1.
         -5    1    1    2    0  502 -0.67698870349E+02  0.60081803331E+02 -0.10080026204E+03  0.13555715756E+03  0.47000000000E+01 0.  1.
        -11    1    3    3    0    0  0.13230299072E+02  0.15888164550E+02  0.55650490076E+02  0.59367092164E+02  0.00000000000E+00 0. -1.
         11    1    3    3    0    0  0.29715810356E+02 -0.47897827018E+02 -0.75963728397E+01  0.56876498648E+02  0.00000000000E+00 0.  1.
<mgrwt>
<rscale>  0 0.12772996E+03</rscale>
<asrwt>0</asrwt>
<pdfrwt beam="1">  1        2 0.17668273E-01 0.13598747E+03</pdfrwt>
<pdfrwt beam="2">  1       -2 0.26999595E-01 0.13598747E+03</pdfrwt>
<totfact> 0.38097630E+03</totfact>
</mgrwt>
</event>
<event>
 7    1  0.1446636E-005  0.2187892E+03  0.7546771E-02  0.1134789E+00
          1   -1    0    0  501    0  0.00000000000E+00  0.00000000000E+00  0.33073957339E+03  0.33073957339E+03  0.00000000000E+00 0. -1.
         -1   -1    0    0    0  501 -0.00000000000E+00 -0.00000000000E+00 -0.36183070362E+02  0.36183070362E+02  0.00000000000E+00 0.  1.
         23    2    1    2    0    0  0.96450337977E+01 -0.12568947469E+02  0.14815029633E+03  0.17375065595E+03  0.89385541463E+02 0.  0.
          5    1    1    2  502    0 -0.12421650107E+02 -0.37295153709E+02  0.13639026809E+03  0.14201979127E+03  0.47000000000E+01 0.  1.
         -5    1    1    2    0  502  0.27766163094E+01  0.49864101178E+02  0.10015938608E+02  0.51152196538E+02  0.47000000000E+01 0.  1.
        -11    1    3    3    0    0  0.39035825285E+02 -0.73725456093E+01  0.13572784084E+03  0.14142205225E+03  0.00000000000E+00 0. -1.
         11    1    3    3    0    0 -0.29390791487E+02 -0.51964018595E+01  0.12422455490E+02  0.32328603696E+02  0.00000000000E+00 0.  1.
<mgrwt>
<rscale>  0 0.21878915E+03</rscale>
<asrwt>0</asrwt>
<pdfrwt beam="1">  1        1 0.50883009E-01 0.21878915E+03</pdfrwt>
<pdfrwt beam="2">  1       -1 0.55666264E-02 0.21878915E+03</pdfrwt>
<totfact> 0.11326042E+04</totfact>
</mgrwt>
</event>
<event>
 7    1  0.1446636E-005  0.1234340E+03  0.7546771E-02  0.1251818E+00
          3   -1    0    0  501    0  0.00000000000E+00  0.00000000000E+00  0.39369891313E+03  0.39369891313E+03  0.00000000000E+00 0. -1.
         -3   -1    0    0    0  501 -0.00000000000E+00 -0.00000000000E+00 -0.41844909881E+02  0.41844909881E+02  0.00000000000E+00 0.  1.
         23    2    1    2    0    0  0.14426766899E+01 -0.21959516900E+02  0.27495009358E+03  0.29011288889E+03  0.89909024237E+02 0.  0.
          5    1    1    2  502    0 -0.22335243110E+02 -0.34655807306E+02 -0.68862634603E+01  0.42064221011E+02  0.47000000000E+01 0. -1.
         -5    1    1    2    0  502  0.20892566420E+02  0.56615324207E+02  0.83790173123E+02  0.10336671311E+03  0.47000000000E+01 0.  1.
        -11    1    3    3    0    0  0.40035872840E+02 -0.26406232845E+02  0.10006238151E+03  0.11096233794E+03  0.00000000000E+00 0.  1.
         11    1    3    3    0    0 -0.38593196150E+02  0.44467159443E+01  0.17488771207E+03  0.17915055095E+03  0.00000000000E+00 0. -1.
<mgrwt>
<rscale>  0 0.11486442E+03</rscale>
<asrwt>0</asrwt>
<pdfrwt beam="1">  1        3 0.60569061E-01 0.12343397E+03</pdfrwt>
<pdfrwt beam="2">  1       -3 0.64376787E-02 0.12343397E+03</pdfrwt>
<totfact> 0.93277665E+02</totfact>
</mgrwt>
</event>
<event>
 7    1  0.1446636E-005  0.1633247E+03  0.7546771E-02  0.1192719E+00
         -1   -1    0    0    0  501 -0.00000000000E+00  0.00000000000E+00  0.63697085261E+02  0.63697085261E+02  0.00000000000E+00 0.  1.
          1   -1    0    0  501    0  0.00000000000E+00 -0.00000000000E+00 -0.37945610105E+03  0.37945610105E+03  0.00000000000E+00 0. -1.
         23    2    1    2    0    0  0.20165502061E+02  0.10316813416E+03 -0.20070548362E+03  0.24337263395E+03  0.88866396454E+02 0.  0.
          5    1    1    2  502    0  0.33147598540E+02  0.89494968504E+01 -0.75018046642E+01  0.35457352638E+02  0.47000000000E+01 0. -1.
         -5    1    1    2    0  502 -0.53313100601E+02 -0.11211763101E+03 -0.10755172751E+03  0.16432319973E+03  0.47000000000E+01 0. -1.
        -11    1    3    3    0    0 -0.18710198622E+02  0.26736308497E+02 -0.97676690103E+01  0.34063309916E+02  0.00000000000E+00 0. -1.
         11    1    3    3    0    0  0.38875700683E+02  0.76431825665E+02 -0.19093781461E+03  0.20930932403E+03  0.00000000000E+00 0.  1.
<mgrwt>
<rscale>  0 0.15648871E+03</rscale>
<asrwt>0</asrwt>
<pdfrwt beam="2">  1        1 0.58377862E-01 0.16332469E+03</pdfrwt>
<pdfrwt beam="1">  1       -1 0.97995516E-02 0.16332469E+03</pdfrwt>
<totfact> 0.39751425E+03</totfact>
</mgrwt>
</event>
<event>
 7    1  0.1446636E-005  0.1265629E+03  0.7546771E-02  0.1247274E+00
          1   -1    0    0  501    0  0.00000000000E+00  0.00000000000E+00  0.58111251928E+03  0.58111251928E+03  0.00000000000E+00 0. -1.
         -1   -1    0    0    0  501 -0.00000000000E+00 -0.00000000000E+00 -0.25131232078E+02  0.25131232078E+02  0.00000000000E+00 0.  1.
         23    2    1    2    0    0  0.88625979814E+01 -0.17755599144E+02  0.36657740911E+03  0.37844562952E+03  0.91914583679E+02 0.  0.
          5    1    1    2  502    0  0.28917802774E+02  0.61600141485E+02  0.10987080005E+03  0.12932323632E+03  0.47000000000E+01 0.  1.
         -5    1    1    2    0  502 -0.37780400755E+02 -0.43844542341E+02  0.79533078037E+02  0.98474885511E+02  0.47000000000E+01 0.  1.
        -11    1    3    3    0    0 -0.20142834527E+02  0.31176342126E+02  0.14962338159E+03  0.15415853661E+03  0.00000000000E+00 0.  1.
         11    1    3    3    0    0  0.29005432508E+02 -0.48931941270E+02  0.21695402752E+03  0.22428709291E+03  0.00000000000E+00 0. -1.
<mgrwt>
<rscale>  0 0.11750304E+03</rscale>
<asrwt>0</asrwt>
<pdfrwt beam="1">  1        1 0.89401916E-01 0.12656285E+03</pdfrwt>
<pdfrwt beam="2">  1       -1 0.38663438E-02 0.12656285E+03</pdfrwt>
<totfact> 0.90570886E+03</totfact>
</mgrwt>
</event>
<event>
 7    1  0.1446636E-005  0.1439493E+03  0.7546771E-02  0.1217598E+00
          1   -1    0    0  501    0  0.00000000000E+00  0.00000000000E+00  0.83677220505E+02  0.83677220505E+02  0.00000000000E+00 0. -1.
         -1   -1    0    0    0  501 -0.00000000000E+00 -0.00000000000E+00 -0.36544064041E+03  0.36544064041E+03  0.00000000000E+00 0.  1.
         23    2    1    2    0    0 -0.29644522241E+02  0.64940214834E+02  0.15645580243E+02  0.11870369811E+03  0.93540122736E+02 0.  0.
          5    1    1    2  502    0 -0.33658223809E+02 -0.67673889008E+02 -0.11923195393E+03  0.14124793847E+03  0.47000000000E+01 0.  1.
         -5    1    1    2    0  502  0.63302746049E+02  0.27336741737E+01 -0.17817704622E+03  0.18916622434E+03  0.47000000000E+01 0.  1.
        -11    1    3    3    0    0 -0.53446927448E+02  0.42738295979E+02  0.38884868498E+02  0.78709395849E+02  0.00000000000E+00 0. -1.
         11    1    3    3    0    0  0.23802405208E+02  0.22201918855E+02 -0.23239288254E+02  0.39994302258E+02  0.00000000000E+00 0.  1.
<mgrwt>
<rscale>  0 0.13687430E+03</rscale>
<asrwt>0</asrwt>
<pdfrwt beam="1">  1        1 0.12873419E-01 0.14394932E+03</pdfrwt>
<pdfrwt beam="2">  1       -1 0.56221637E-01 0.14394932E+03</pdfrwt>
<totfact> 0.14754849E+03</totfact>
</mgrwt>
</event>
<event>
 7    1  0.1446636E-005  0.1334425E+03  0.7546771E-02  0.1235966E+00
          1   -1    0    0  501    0  0.00000000000E+00  0.00000000000E+00  0.34978251193E+03  0.34978251193E+03  0.00000000000E+00 0. -1.
         -1   -1    0    0    0  501 -0.00000000000E+00 -0.00000000000E+00 -0.39987849656E+02  0.39987849656E+02  0.00000000000E+00 0.  1.
         23    2    1    2    0    0 -0.43051713771E+02 -0.18124912587E+02  0.16012820882E+03  0.18925366099E+03  0.89408849794E+02 0.  0.
          5    1    1    2  502    0  0.59208241886E+02  0.35786615945E+02  0.15972711134E+03  0.17412965826E+03  0.47000000000E+01 0.  1.
         -5    1    1    2    0  502 -0.16156528114E+02 -0.17661703357E+02 -0.10060657891E+02  0.26387042339E+02  0.47000000000E+01 0.  1.
        -11    1    3    3    0    0 -0.76437962849E+00  0.32406206522E+02  0.34152369115E+02  0.47086418567E+02  0.00000000000E+00 0.  1.
         11    1    3    3    0    0 -0.42287334143E+02 -0.50531119109E+02  0.12597583971E+03  0.14216724242E+03  0.00000000000E+00 0. -1.
<mgrwt>
<rscale>  0 0.12442775E+03</rscale>
<asrwt>0</asrwt>
<pdfrwt beam="1">  1        1 0.53812692E-01 0.13344250E+03</pdfrwt>
<pdfrwt beam="2">  1       -1 0.61519771E-02 0.13344250E+03</pdfrwt>
<totfact> 0.87891690E+03</totfact>
</mgrwt>
</event>
<event>
 7    1  0.1446636E-005  0.2250932E+03  0.7546771E-02  0.1133367E+00
         -2   -1    0    0    0  501 -0.00000000000E+00  0.00000000000E+00  0.40410087476E+02  0.40410087476E+02  0.00000000000E+00 0. -1.
          2   -1    0    0  501    0  0.00000000000E+00 -0.00000000000E+00 -0.13350967421E+04  0.13350967421E+04  0.00000000000E+00 0.  1.
         23    2    1    2    0    0 -0.17815494109E+03 -0.57490338154E+02 -0.87372484937E+03  0.89814344817E+03  0.90676452730E+02 0.  0.
          5    1    1    2  502    0  0.16659071480E+03  0.18478376504E+02 -0.24627435390E+03  0.29793802048E+03  0.47000000000E+01 0. -1.
         -5    1    1    2    0  502  0.11564226284E+02  0.39011961651E+02 -0.17468745133E+03  0.17942536090E+03  0.47000000000E+01 0. -1.
        -11    1    3    3    0    0 -0.11946553911E+03  0.82319988626E+01 -0.51979785392E+03  0.53341315111E+03  0.00000000000E+00 0.  1.
         11    1    3    3    0    0 -0.58689401974E+02 -0.65722337017E+02 -0.35392699545E+03  0.36473029706E+03  0.00000000000E+00 0. -1.
<mgrwt>
<rscale>  0 0.22069415E+03</rscale>
<asrwt>0</asrwt>
<pdfrwt beam="2">  1        2 0.20539947E+00 0.22509322E+03</pdfrwt>
<pdfrwt beam="1">  1       -2 0.62169374E-02 0.22509322E+03</pdfrwt>
<totfact> 0.23492686E+03</totfact>
</mgrwt>
</event>
<event>
 7    1  0.1446636E-005  0.1573979E+03  0.7546771E-02  0.1201297E+00
          2   -1    0    0  501    0  0.00000000000E+00  0.00000000000E+00  0.95860986364E+02  0.95860986364E+02  0.00000000000E+00 0.  1.
         -2   -1    0    0    0  501 -0.00000000000E+00 -0.00000000000E+00 -0.23481379791E+03  0.23481379791E+03  0.00000000000E+00 0. -1.
         23    2    1    2    0    0  0.42953859223E+02  0.85465666917E+02 -0.11316855809E+02  0.12802970599E+03  0.84345243764E+02 0.  0.
          5    1    1    2  502    0  0.43008580609E+02 -0.17484975002E+02 -0.49078319517E+02  0.67721738042E+02  0.47000000000E+01 0.  1.
         -5    1    1    2    0  502 -0.85962439833E+02 -0.67980691915E+02 -0.78557636226E+02  0.13492334025E+03  0.47000000000E+01 0.  1.
        -11    1    3    3    0    0  0.42711119200E+02  0.35794476534E+02 -0.41878864327E+02  0.69708848298E+02  0.00000000000E+00 0. -1.
         11    1    3    3    0    0  0.24274002309E+00  0.49671190383E+02  0.30562008518E+02  0.58320857688E+02  0.00000000000E+00 0.  1.
<mgrwt>
<rscale>  0 0.14933136E+03</rscale>
<asrwt>0</asrwt>
<pdfrwt beam="1">  1        2 0.14747844E-01 0.15739787E+03</pdfrwt>
<pdfrwt beam="2">  1       -2 0.36125200E-01 0.15739787E+03</pdfrwt>
<totfact> 0.27943998E+03</totfact>
</mgrwt>
</event>
<event>
 7    1  0.1446636E-005  0.3760828E+03  0.7546771E-02  0.1052391E+00
          1   -1    0    0  501    0  0.00000000000E+00  0.00000000000E+00  0.41525772394E+03  0.41525772394E+03  0.00000000000E+00 0. -1.
         -1   -1    0    0    0  501 -0.00000000000E+00 -0.00000000000E+00 -0.85150891833E+02  0.85150891833E+02  0.00000000000E+00 0.  1.
         23    2    1    2    0    0  0.53416029182E+02  0.31654830912E+01  0.27643567195E+03  0.29572727553E+03  0.90413761722E+02 0.  0.
          5    1    1    2  502    0  0.38889456637E+02 -0.15838552343E+02  0.93990624241E+02  0.10305133198E+03  0.47000000000E+01 0. -1.
         -5    1    1    2    0  502 -0.92305485819E+02  0.12673069251E+02 -0.40319464081E+02  0.10163000827E+03  0.47000000000E+01 0.  1.
        -11    1    3    3    0    0 -0.19888673729E+02 -0.19590545685E+02  0.85462751037E+02  0.89906788607E+02  0.00000000000E+00 0.  1.
         11    1    3    3    0    0  0.73304702911E+02  0.22756028776E+02  0.19097292091E+03  0.20582048692E+03  0.00000000000E+00 0. -1.
<mgrwt>
<rscale>  0 0.37608279E+03</rscale>
<asrwt>0</asrwt>
<pdfrwt beam="1">  1        1 0.63885803E-01 0.37608279E+03</pdfrwt>
<pdfrwt beam="2">  1       -1 0.13100137E-01 0.37608279E+03</pdfrwt>
<totfact> 0.23107937E+03</totfact>
</mgrwt>
</event>
<event>
 7    1  0.1446636E-005  0.1330370E+03  0.7546771E-02  0.1236569E+00
          2   -1    0    0  501    0  0.00000000000E+00  0.00000000000E+00  0.81062296067E+02  0.81062296067E+02  0.00000000000E+00 0. -1.
         -2   -1    0    0    0  501 -0.00000000000E+00 -0.00000000000E+00 -0.22219963460E+03  0.22219963460E+03  0.00000000000E+00 0.  1.
         23    2    1    2    0    0  0.12821967690E+02  0.43643976041E+02  0.11006719221E+02  0.10115639980E+03  0.89678703445E+02 0.  0.
          5    1    1    2  502    0 -0.61701390579E+02  0.90094409404E-01 -0.10243156023E+03  0.11967198606E+03  0.47000000000E+01 0. -1.
         -5    1    1    2    0  502  0.48879422889E+02 -0.43734070450E+02 -0.49712497525E+02  0.82433544812E+02  0.47000000000E+01 0. -1.
        -11    1    3    3    0    0  0.25258319189E+02  0.11005894414E+01  0.40623459664E+02  0.47848296317E+02  0.00000000000E+00 0.  1.
         11    1    3    3    0    0 -0.12436351500E+02  0.42543386599E+02 -0.29616740443E+02  0.53308103478E+02  0.00000000000E+00 0. -1.
<mgrwt>
<rscale>  0 0.12404550E+03</rscale>
<asrwt>0</asrwt>
<pdfrwt beam="1">  1        2 0.12471123E-01 0.13303695E+03</pdfrwt>
<pdfrwt beam="2">  1       -2 0.34184559E-01 0.13303695E+03</pdfrwt>
<totfact> 0.37408084E+03</totfact>
</mgrwt>
</event>
<event>
 7    1  0.1446636E-005  0.1419752E+03  0.7546771E-02  0.1221520E+00
          1   -1    0    0  501    0  0.00000000000E+00  0.00000000000E+00  0.52281555931E+03  0.52281555931E+03  0.00000000000E+00 0. -1.
         -1   -1    0    0    0  501 -0.00000000000E+00 -0.00000000000E+00 -0.37064657610E+02  0.37064657610E+02  0.00000000000E+00 0.  1.
         23    2    1    2    0    0  0.46576758603E+02 -0.48584474594E+02  0.33161924721E+03  0.35032466559E+03  0.90698404522E+02 0.  0.
          5    1    1    2  502    0  0.29137546192E+02  0.44542668086E+01 -0.25622990906E+01  0.29958178642E+02  0.47000000000E+01 0.  1.
         -5    1    1    2    0  502 -0.75714304795E+02  0.44130207786E+02  0.15669395358E+03  0.17959737269E+03  0.47000000000E+01 0.  1.
        -11    1    3    3    0    0  0.59770247666E+02 -0.63508860581E+02  0.21497317802E+03  0.23198992467E+03  0.00000000000E+00 0.  1.
         11    1    3    3    0    0 -0.13193489062E+02  0.14924385987E+02  0.11664606919E+03  0.11833474092E+03  0.00000000000E+00 0. -1.
<mgrwt>
<rscale>  0 0.13408306E+03</rscale>
<asrwt>0</asrwt>
<pdfrwt beam="1">  1        1 0.80433158E-01 0.14197522E+03</pdfrwt>
<pdfrwt beam="2">  1       -1 0.57022554E-02 0.14197522E+03</pdfrwt>
<totfact> 0.59173889E+03</totfact>
</mgrwt>
</event>
<event>
 7    1  0.1446636E-005  0.1287355E+03  0.7546771E-02  0.1244037E+00
         -2   -1    0    0    0  501 -0.00000000000E+00  0.00000000000E+00  0.32581147975E+02  0.32581147975E+02  0.00000000000E+00 0. -1.
          2   -1    0    0  501    0  0.00000000000E+00 -0.00000000000E+00 -0.39491572583E+03  0.39491572583E+03  0.00000000000E+00 0.  1.
         23    2    1    2    0    0 -0.98166746541E+01 -0.29194327469E+02 -0.18774016838E+03  0.21057282624E+03  0.90254465097E+02 0.  0.
          5    1    1    2  502    0  0.33648162278E+02 -0.38820448178E+02 -0.44509734347E+02  0.68135398091E+02  0.47000000000E+01 0.  1.
         -5    1    1    2    0  502 -0.23831487624E+02  0.68014775647E+02 -0.13008467513E+03  0.14878864948E+03  0.47000000000E+01 0.  1.
        -11    1    3    3    0    0 -0.29515585571E+02 -0.44178264859E+02 -0.17469395166E+03  0.18259481270E+03  0.00000000000E+00 0.  1.
         11    1    3    3    0    0  0.19698910917E+02  0.14983937390E+02 -0.13046216717E+02  0.27978013540E+02  0.00000000000E+00 0. -1.
<mgrwt>
<rscale>  0 0.11943220E+03</rscale>
<asrwt>0</asrwt>
<pdfrwt beam="2">  1        2 0.60756264E-01 0.12873552E+03</pdfrwt>
<pdfrwt beam="1">  1       -2 0.50124845E-02 0.12873552E+03</pdfrwt>
<totfact> 0.14819765E+04</totfact>
</mgrwt>
</event>
<event>
 7    1  0.1446636E-005  0.1447487E+03  0.7546771E-02  0.1217193E+00
          2   -1    0    0  501    0  0.00000000000E+00  0.00000000000E+00  0.44350550749E+03  0.44350550749E+03  0.00000000000E+00 0. -1.
         -2   -1    0    0    0  501 -0.00000000000E+00 -0.00000000000E+00 -0.38724913587E+02  0.38724913587E+02  0.00000000000E+00 0.  1.
         23    2    1    2    0    0 -0.60079900815E+01  0.72740668570E+02  0.19747117068E+03  0.22938778767E+03  0.91085635944E+02 0.  0.
          5    1    1    2  502    0 -0.17367221933E+02  0.21696966264E+02  0.54437925516E+01  0.28707205020E+02  0.47000000000E+01 0. -1.
         -5    1    1    2    0  502  0.23375212015E+02 -0.94437634834E+02  0.20186563067E+03  0.22413542838E+03  0.47000000000E+01 0. -1.
        -11    1    3    3    0    0 -0.18782562786E+01 -0.21504242394E+02  0.27135281889E+02  0.34673964451E+02  0.00000000000E+00 0.  1.
         11    1    3    3    0    0 -0.41297338030E+01  0.94244910963E+02  0.17033588879E+03  0.19471382322E+03  0.00000000000E+00 0. -1.
<mgrwt>
<rscale>  0 0.13716673E+03</rscale>
<asrwt>0</asrwt>
<pdfrwt beam="1">  1        2 0.68231613E-01 0.14474875E+03</pdfrwt>
<pdfrwt beam="2">  1       -2 0.59576793E-02 0.14474875E+03</pdfrwt>
<totfact> 0.10172363E+04</totfact>
</mgrwt>
</event>
<event>
 7    1  0.1446636E-005  0.1442938E+03  0.7546771E-02  0.1217769E+00
         -1   -1    0    0    0  501 -0.00000000000E+00  0.00000000000E+00  0.34141645175E+02  0.34141645175E+02  0.00000000000E+00 0.  1.
          1   -1    0    0  501    0  0.00000000000E+00 -0.00000000000E+00 -0.60240204829E+03  0.60240204829E+03  0.00000000000E+00 0. -1.
         23    2    1    2    0    0  0.31169788998E+02 -0.64996133020E+02 -0.39110212152E+03  0.40805792423E+03  0.91402117098E+02 0.  0.
          5    1    1    2  502    0  0.34181504221E+02  0.44263121311E+02 -0.24822942169E+02  0.61366665193E+02  0.47000000000E+01 0. -1.
         -5    1    1    2    0  502 -0.65351293219E+02  0.20733011709E+02 -0.15233533943E+03  0.16711910405E+03  0.47000000000E+01 0. -1.
        -11    1    3    3    0    0 -0.58853647994E+01 -0.75218645497E+02 -0.21635850395E+03  0.22913638816E+03  0.00000000000E+00 0.  1.
         11    1    3    3    0    0  0.37055153797E+02  0.10222512477E+02 -0.17474361758E+03  0.17892153606E+03  0.00000000000E+00 0. -1.
<mgrwt>
<rscale>  0 0.13675074E+03</rscale>
<asrwt>0</asrwt>
<pdfrwt beam="2">  1        1 0.92677234E-01 0.14429376E+03</pdfrwt>
<pdfrwt beam="1">  1       -1 0.52525610E-02 0.14429376E+03</pdfrwt>
<totfact> 0.55335998E+03</totfact>
</mgrwt>
</event>
<event>
 7    1  0.1446636E-005  0.1624169E+03  0.7546771E-02  0.1193272E+00
         -2   -1    0    0    0  501 -0.00000000000E+00  0.00000000000E+00  0.18240332244E+03  0.18240332244E+03  0.00000000000E+00 0.  1.
          2   -1    0    0  501    0  0.00000000000E+00 -0.00000000000E+00 -0.19643181676E+03  0.19643181676E+03  0.00000000000E+00 0. -1.
         23    2    1    2    0    0  0.10036107458E+03 -0.26096565826E+02 -0.12150540130E+03  0.18407752020E+03  0.91474558532E+02 0.  0.
          5    1    1    2  502    0 -0.14594088889E+02  0.47872299867E+02 -0.61723432724E+01  0.50645161136E+02  0.47000000000E+01 0. -1.
         -5    1    1    2    0  502 -0.85766985693E+02 -0.21775734041E+02  0.11364925026E+03  0.14411245787E+03  0.47000000000E+01 0. -1.
        -11    1    3    3    0    0 -0.11161339651E+02  0.75083664627E+01 -0.39234687171E+02  0.41476640982E+02  0.00000000000E+00 0. -1.
         11    1    3    3    0    0  0.11152241423E+03 -0.33604932289E+02 -0.82270714133E+02  0.14260087922E+03  0.00000000000E+00 0.  1.
<mgrwt>
<rscale>  0 0.15601348E+03</rscale>
<asrwt>0</asrwt>
<pdfrwt beam="2">  1        2 0.30220279E-01 0.16241689E+03</pdfrwt>
<pdfrwt beam="1">  1       -2 0.28062050E-01 0.16241689E+03</pdfrwt>
<totfact> 0.19707496E+03</totfact>
</mgrwt>
</event>
<event>
 7    1  0.1446636E-005  0.1636275E+03  0.7546771E-02  0.1203355E+00
          1   -1    0    0  501    0  0.00000000000E+00  0.00000000000E+00  0.17121119449E+03  0.17121119449E+03  0.00000000000E+00 0. -1.
         -1   -1    0    0    0  501 -0.00000000000E+00 -0.00000000000E+00 -0.15951069041E+03  0.15951069041E+03  0.00000000000E+00 0.  1.
         23    2    1    2    0    0  0.27546577990E+02  0.48214025582E+02  0.97536583857E+02  0.14594695035E+03  0.93293734546E+02 0.  0.
          5    1    1    2  502    0 -0.63402484400E+02 -0.86001794025E+02 -0.76868804709E+02  0.13170833968E+03  0.47000000000E+01 0. -1.
         -5    1    1    2    0  502  0.35855906410E+02  0.37787768443E+02 -0.89672750762E+01  0.53066594866E+02  0.47000000000E+01 0.  1.
        -11    1    3    3    0    0 -0.32259016726E+02  0.22965657992E+02  0.18612272798E+02  0.43754797518E+02  0.00000000000E+00 0. -1.
         11    1    3    3    0    0  0.59805594716E+02  0.25248367590E+02  0.78924311058E+02  0.10219215284E+03  0.00000000000E+00 0.  1.
<mgrwt>
<rscale>  0 0.14767879E+03</rscale>
<asrwt>0</asrwt>
<pdfrwt beam="1">  1        1 0.26340184E-01 0.16362745E+03</pdfrwt>
<pdfrwt beam="2">  1       -1 0.24540106E-01 0.16362745E+03</pdfrwt>
<totfact> 0.25137999E+03</totfact>
</mgrwt>
</event>
<event>
 7    1  0.1446636E-005  0.2043829E+03  0.7546771E-02  0.1157992E+00
          1   -1    0    0  501    0  0.00000000000E+00  0.00000000000E+00  0.18176537853E+03  0.18176537853E+03  0.00000000000E+00 0. -1.
         -1   -1    0    0    0  501 -0.00000000000E+00 -0.00000000000E+00 -0.18486752512E+03  0.18486752512E+03  0.00000000000E+00 0.  1.
         23    2    1    2    0    0  0.50564315865E+02 -0.11581556719E+03  0.36173387693E+02  0.15851047417E+03  0.88583637318E+02 0.  0.
          5    1    1    2  502    0  0.36921931830E+02  0.22987020831E+02 -0.64572332757E+02  0.77995566120E+02  0.47000000000E+01 0. -1.
         -5    1    1    2    0  502 -0.87486247695E+02  0.92828546358E+02  0.25296798476E+02  0.13012686336E+03  0.47000000000E+01 0.  1.
        -11    1    3    3    0    0  0.36696419648E+02 -0.85993300399E+02 -0.17925507330E+02  0.95198732878E+02  0.00000000000E+00 0.  1.
         11    1    3    3    0    0  0.13867896217E+02 -0.29822266790E+02  0.54098895023E+02  0.63311741287E+02  0.00000000000E+00 0. -1.
<mgrwt>
<rscale>  0 0.19052171E+03</rscale>
<asrwt>0</asrwt>
<pdfrwt beam="1">  1        1 0.27963904E-01 0.20438292E+03</pdfrwt>
<pdfrwt beam="2">  1       -1 0.28441158E-01 0.20438292E+03</pdfrwt>
<totfact> 0.18370959E+03</totfact>
</mgrwt>
</event>
<event>
 7    1  0.1446636E-005  0.1611853E+03  0.7546771E-02  0.1196845E+00
         -3   -1    0    0    0  501 -0.00000000000E+00  0.00000000000E+00  0.92673254612E+02  0.92673254612E+02  0.00000000000E+00 0.  1.
          3   -1    0    0  501    0  0.00000000000E+00 -0.00000000000E+00 -0.23051808232E+03  0.23051808232E+03  0.00000000000E+00 0. -1.
         23    2    1    2    0    0  0.75214262043E+02  0.60676054589E+02 -0.54347521784E+02  0.14166311499E+03  0.88181722654E+02 0.  0.
          5    1    1    2  502    0 -0.16845469865E+02 -0.33162284017E+02 -0.10646478903E+03  0.11287315110E+03  0.47000000000E+01 0. -1.
         -5    1    1    2    0  502 -0.58368792178E+02 -0.27513770572E+02  0.22967483107E+02  0.68655070837E+02  0.47000000000E+01 0.  1.
        -11    1    3    3    0    0  0.93983988027E+02  0.56880149263E+02 -0.54231972547E+02  0.12251305331E+03  0.00000000000E+00 0.  1.
         11    1    3    3    0    0 -0.18769725984E+02  0.37959053265E+01 -0.11554923723E+00  0.19150061681E+02  0.00000000000E+00 0. -1.
<mgrwt>
<rscale>  0 0.15299085E+03</rscale>
<asrwt>0</asrwt>
<pdfrwt beam="2">  1        3 0.35464320E-01 0.16118528E+03</pdfrwt>
<pdfrwt beam="1">  1       -3 0.14257424E-01 0.16118528E+03</pdfrwt>
<totfact> 0.75217513E+02</totfact>
</mgrwt>
</event>
<event>
 7    1  0.1446636E-005  0.1258078E+03  0.7546771E-02  0.1249149E+00
         -2   -1    0    0    0  501 -0.00000000000E+00  0.00000000000E+00  0.13764849529E+03  0.13764849529E+03  0.00000000000E+00 0.  1.
          2   -1    0    0  501    0  0.00000000000E+00 -0.00000000000E+00 -0.13208676267E+03  0.13208676267E+03  0.00000000000E+00 0. -1.
         23    2    1    2    0    0  0.12151236376E+02  0.74008167710E+01 -0.76264701299E+02  0.11965808101E+03  0.91100642432E+02 0.  0.
          5    1    1    2  502    0  0.37857408568E+02 -0.47699379642E+02  0.34380485917E+02  0.70089385884E+02  0.47000000000E+01 0.  1.
         -5    1    1    2    0  502 -0.50008644944E+02  0.40298562871E+02  0.47445947996E+02  0.79987791068E+02  0.47000000000E+01 0.  1.
        -11    1    3    3    0    0  0.39040674427E+02  0.19379276163E+02 -0.66692467384E+01  0.44093190590E+02  0.00000000000E+00 0.  1.
         11    1    3    3    0    0 -0.26889438051E+02 -0.11978459392E+02 -0.69595454561E+02  0.75564890417E+02  0.00000000000E+00 0. -1.
<mgrwt>
<rscale>  0 0.11640433E+03</rscale>
<asrwt>0</asrwt>
<pdfrwt beam="2">  1        2 0.20321040E-01 0.12580777E+03</pdfrwt>
<pdfrwt beam="1">  1       -2 0.21176692E-01 0.12580777E+03</pdfrwt>
<totfact> 0.49274281E+03</totfact>
</mgrwt>
</event>
<event>
 7    1  0.1446636E-005  0.1583314E+03  0.7546771E-02  0.1197896E+00
          2   -1    0    0  501    0  0.00000000000E+00  0.00000000000E+00  0.76601074574E+02  0.76601074574E+02  0.00000000000E+00 0. -1.
         -2   -1    0    0    0  501 -0.00000000000E+00 -0.00000000000E+00 -0.32053717719E+03  0.32053717719E+03  0.00000000000E+00 0.  1.
         23    2    1    2    0    0 -0.13356535143E+02  0.96288332111E+02 -0.43558924479E+02  0.14175647920E+03  0.93529030581E+02 0.  0.
          5    1    1    2  502    0  0.38421780516E+02 -0.24661487979E+02 -0.55334690521E+01  0.46229119471E+02  0.47000000000E+01 0.  1.
         -5    1    1    2    0  502 -0.25065245373E+02 -0.71626844133E+02 -0.19484370908E+03  0.20915265309E+03  0.47000000000E+01 0.  1.
        -11    1    3    3    0    0 -0.21326491325E+02 -0.12173343124E+02 -0.16817146771E+02  0.29762828168E+02  0.00000000000E+00 0.  1.
         11    1    3    3    0    0  0.79699561823E+01  0.10846167523E+03 -0.26741777709E+02  0.11199365103E+03  0.00000000000E+00 0. -1.
<mgrwt>
<rscale>  0 0.15211668E+03</rscale>
<asrwt>0</asrwt>
<pdfrwt beam="1">  1        2 0.11784781E-01 0.15833141E+03</pdfrwt>
<pdfrwt beam="2">  1       -2 0.49313412E-01 0.15833141E+03</pdfrwt>
<totfact> 0.20110912E+03</totfact>
</mgrwt>
</event>
<event>
 7    1  0.1446636E-005  0.1540352E+03  0.7546771E-02  0.1203855E+00
         -1   -1    0    0    0  501 -0.00000000000E+00  0.00000000000E+00  0.14346292286E+03  0.14346292286E+03  0.00000000000E+00 0.  1.
          1   -1    0    0  501    0  0.00000000000E+00 -0.00000000000E+00 -0.15021158480E+03  0.15021158480E+03  0.00000000000E+00 0. -1.
         23    2    1    2    0    0  0.38427099458E+02 -0.81395501907E+02 -0.42442958830E+02  0.13555767384E+03  0.92046773330E+02 0.  0.
          5    1    1    2  502    0 -0.45911370890E+02  0.79940971910E+02 -0.25902707979E+02  0.95872067087E+02  0.47000000000E+01 0.  1.
         -5    1    1    2    0  502  0.74842714317E+01  0.14545299962E+01  0.61597004870E+02  0.62244766731E+02  0.47000000000E+01 0.  1.
        -11    1    3    3    0    0  0.58305205207E+02 -0.77446958124E+02 -0.10202188860E+02  0.97476217275E+02  0.00000000000E+00 0.  1.
         11    1    3    3    0    0 -0.19878105749E+02 -0.39485437831E+01 -0.32240769970E+02  0.38081456569E+02  0.00000000000E+00 0. -1.
<mgrwt>
<rscale>  0 0.14728042E+03</rscale>
<asrwt>0</asrwt>
<pdfrwt beam="2">  1        1 0.23109475E-01 0.15403522E+03</pdfrwt>
<pdfrwt beam="1">  1       -1 0.22071219E-01 0.15403522E+03</pdfrwt>
<totfact> 0.35173161E+03</totfact>
</mgrwt>
</event>
<event>
 7    1  0.1446636E-005  0.1535432E+03  0.7546771E-02  0.1204362E+00
          1   -1    0    0  501    0  0.00000000000E+00  0.00000000000E+00  0.28997534447E+03  0.28997534447E+03  0.00000000000E+00 0. -1.
         -1   -1    0    0    0  501 -0.00000000000E+00 -0.00000000000E+00 -0.68621708277E+02  0.68621708277E+02  0.00000000000E+00 0.  1.
         23    2    1    2    0    0 -0.40054037221E+02  0.79662640911E+02  0.99308218440E+02  0.16245784778E+03  0.92628115615E+02 0.  0.
          5    1    1    2  502    0 -0.16385874431E+02  0.10491850970E+02 -0.13228354545E+02  0.23992815208E+02  0.47000000000E+01 0.  1.
         -5    1    1    2    0  502  0.56439911652E+02 -0.90154491881E+02  0.13527377230E+03  0.17214638976E+03  0.47000000000E+01 0.  1.
        -11    1    3    3    0    0 -0.51041990065E+02  0.64974505006E+01  0.23622449605E+02  0.56617327190E+02  0.00000000000E+00 0.  1.
         11    1    3    3    0    0  0.10987952844E+02  0.73165190411E+02  0.75685768835E+02  0.10584052059E+03  0.00000000000E+00 0. -1.
<mgrwt>
<rscale>  0 0.14687855E+03</rscale>
<asrwt>0</asrwt>
<pdfrwt beam="1">  1        1 0.44611591E-01 0.15354317E+03</pdfrwt>
<pdfrwt beam="2">  1       -1 0.10557186E-01 0.15354317E+03</pdfrwt>
<totfact> 0.49480748E+03</totfact>
</mgrwt>
</event>
<event>
 7    1  0.1446636E-005  0.1003925E+04  0.7546771E-02  0.9304251E-01
         -2   -1    0    0    0  501 -0.00000000000E+00  0.00000000000E+00  0.13149389230E+03  0.13149389230E+03  0.00000000000E+00 0.  1.
          2   -1    0    0  501    0  0.00000000000E+00 -0.00000000000E+00 -0.19161822799E+04  0.19161822799E+04  0.00000000000E+00 0. -1.
         23    2    1    2    0    0 -0.25507703522E+02  0.87902354494E+02 -0.51611435704E+03  0.53202742432E+03  0.91113576529E+02 0.  0.
          5    1    1    2  502    0  0.88404048234E+02 -0.42435181879E+03 -0.43310924427E+03  0.61277683485E+03  0.47000000000E+01 0. -1.
         -5    1    1    2    0  502 -0.62896344712E+02  0.33644946430E+03 -0.83546478633E+03  0.90287191306E+03  0.47000000000E+01 0.  1.
        -11    1    3    3    0    0  0.18438885966E+02  0.82635508286E+02 -0.32395082470E+03  0.33483243058E+03  0.00000000000E+00 0.  1.
         11    1    3    3    0    0 -0.43946589488E+02  0.52668462079E+01 -0.19216353234E+03  0.19719499374E+03  0.00000000000E+00 0. -1.
<mgrwt>
<rscale>  0 0.10039248E+04</rscale>
<asrwt>0</asrwt>
<pdfrwt beam="2">  1        2 0.29479728E+00 0.10039248E+04</pdfrwt>
<pdfrwt beam="1">  1       -2 0.20229829E-01 0.10039248E+04</pdfrwt>
<totfact> 0.15593688E+02</totfact>
</mgrwt>
</event>
<event>
 7    1  0.1446636E-005  0.2683151E+03  0.7546771E-02  0.1104433E+00
         -1   -1    0    0    0  501 -0.00000000000E+00  0.00000000000E+00  0.39674499855E+02  0.39674499855E+02  0.00000000000E+00 0.  1.
          1   -1    0    0  501    0  0.00000000000E+00 -0.00000000000E+00 -0.17249820579E+04  0.17249820579E+04  0.00000000000E+00 0. -1.
         23    2    1    2    0    0 -0.49512215324E+02  0.23219509496E+03 -0.88072646992E+03  0.91651523092E+03  0.89190986580E+02 0.  0.
          5    1    1    2  502    0  0.78346949981E+02 -0.19524224144E+03 -0.54290802496E+03  0.58226196079E+03  0.47000000000E+01 0.  1.
         -5    1    1    2    0  502 -0.28834734658E+02 -0.36952853520E+02 -0.26167306319E+03  0.26587936608E+03  0.47000000000E+01 0.  1.
        -11    1    3    3    0    0  0.67968779010E+00  0.76176525938E+02 -0.43482455950E+03  0.44144730447E+03  0.00000000000E+00 0.  1.
         11    1    3    3    0    0 -0.50191903114E+02  0.15601856903E+03 -0.44590191042E+03  0.47506792645E+03  0.00000000000E+00 0. -1.
<mgrwt>
<rscale>  0 0.26456230E+03</rscale>
<asrwt>0</asrwt>
<pdfrwt beam="2">  1        1 0.26538180E+00 0.26831508E+03</pdfrwt>
<pdfrwt beam="1">  1       -1 0.61037706E-02 0.26831508E+03</pdfrwt>
<totfact> 0.66326404E+02</totfact>
</mgrwt>
</event>
<event>
 7    1  0.1446636E-005  0.1769621E+03  0.7546771E-02  0.1176702E+00
         -1   -1    0    0    0  501 -0.00000000000E+00  0.00000000000E+00  0.10507598516E+03  0.10507598516E+03  0.00000000000E+00 0.  1.
          1   -1    0    0  501    0  0.00000000000E+00 -0.00000000000E+00 -0.30203133262E+03  0.30203133262E+03  0.00000000000E+00 0. -1.
         23    2    1    2    0    0 -0.83674660921E+02 -0.93198242319E+02 -0.16701365495E+03  0.22763001690E+03  0.90744159048E+02 0.  0.
          5    1    1    2  502    0  0.75736716300E+02  0.10886006204E+03  0.12521732460E+02  0.13328708522E+03  0.47000000000E+01 0. -1.
         -5    1    1    2    0  502  0.79379446209E+01 -0.15661819724E+02 -0.42463424975E+02  0.46190215658E+02  0.47000000000E+01 0. -1.
        -11    1    3    3    0    0 -0.22823149717E+02 -0.88847054078E+02 -0.11744836474E+03  0.14902621770E+03  0.00000000000E+00 0.  1.
         11    1    3    3    0    0 -0.60851511205E+02 -0.43511882404E+01 -0.49565290213E+02  0.78603799202E+02  0.00000000000E+00 0. -1.
<mgrwt>
<rscale>  0 0.17110379E+03</rscale>
<asrwt>0</asrwt>
<pdfrwt beam="2">  1        1 0.46466359E-01 0.17696213E+03</pdfrwt>
<pdfrwt beam="1">  1       -1 0.16165536E-01 0.17696213E+03</pdfrwt>
<totfact> 0.24349998E+03</totfact>
</mgrwt>
</event>
<event>
 7    1  0.1446636E-005  0.1263971E+03  0.7546771E-02  0.1247930E+00
          1   -1    0    0  501    0  0.00000000000E+00  0.00000000000E+00  0.50392303777E+02  0.50392303777E+02  0.00000000000E+00 0. -1.
         -1   -1    0    0    0  501 -0.00000000000E+00 -0.00000000000E+00 -0.24247758318E+03  0.24247758318E+03  0.00000000000E+00 0.  1.
         23    2    1    2    0    0 -0.10818621746E+02  0.15311906570E+02 -0.64798534402E+02  0.11348720947E+03  0.91263352962E+02 0.  0.
          5    1    1    2  502    0  0.45336982637E+02 -0.12672204062E+02  0.82525409028E-01  0.47308810605E+02  0.47000000000E+01 0.  1.
         -5    1    1    2    0  502 -0.34518360891E+02 -0.26397025079E+01 -0.12736927041E+03  0.13207386688E+03  0.47000000000E+01 0.  1.
        -11    1    3    3    0    0 -0.33595022114E+02 -0.56562240952E+01 -0.73768686542E+02  0.81255384412E+02  0.00000000000E+00 0.  1.
         11    1    3    3    0    0  0.22776400368E+02  0.20968130665E+02  0.89701521400E+01  0.32231825060E+02  0.00000000000E+00 0. -1.
<mgrwt>
<rscale>  0 0.11711727E+03</rscale>
<asrwt>0</asrwt>
<pdfrwt beam="1">  1        1 0.77526621E-02 0.12639711E+03</pdfrwt>
<pdfrwt beam="2">  1       -1 0.37304244E-01 0.12639711E+03</pdfrwt>
<totfact> 0.59970669E+03</totfact>
</mgrwt>
</event>
<event>
 7    1  0.1446636E-005  0.1277402E+03  0.7546771E-02  0.1245373E+00
         -2   -1    0    0    0  501 -0.00000000000E+00  0.00000000000E+00  0.28219577575E+02  0.28219577575E+02  0.00000000000E+00 0. -1.
          2   -1    0    0  501    0  0.00000000000E+00 -0.00000000000E+00 -0.46306804535E+03  0.46306804535E+03  0.00000000000E+00 0.  1.
         23    2    1    2    0    0  0.26307672385E+02 -0.10961868096E+01 -0.24183686078E+03  0.25983345148E+03  0.91296549882E+02 0.  0.
          5    1    1    2  502    0  0.83723849899E+00  0.42985125559E+02 -0.17154990208E+03  0.17691772351E+03  0.47000000000E+01 0. -1.
         -5    1    1    2    0  502 -0.27144910884E+02 -0.41888938749E+02 -0.21461704913E+02  0.54536447943E+02  0.47000000000E+01 0. -1.
        -11    1    3    3    0    0  0.35304565351E+02  0.39611053442E+02 -0.14501581103E+03  0.15441837112E+03  0.00000000000E+00 0.  1.
         11    1    3    3    0    0 -0.89968929663E+01 -0.40707240251E+02 -0.96821049749E+02  0.10541508036E+03  0.00000000000E+00 0. -1.
<mgrwt>
<rscale>  0 0.11863060E+03</rscale>
<asrwt>0</asrwt>
<pdfrwt beam="2">  1        2 0.71241238E-01 0.12774018E+03</pdfrwt>
<pdfrwt beam="1">  1       -2 0.43414734E-02 0.12774018E+03</pdfrwt>
<totfact> 0.15473812E+04</totfact>
</mgrwt>
</event>
<event>
 7    1  0.1446636E-005  0.1619647E+03  0.7546771E-02  0.1193905E+00
         -2   -1    0    0    0  501 -0.00000000000E+00  0.00000000000E+00  0.50619933550E+02  0.50619933550E+02  0.00000000000E+00 0.  1.
          2   -1    0    0  501    0  0.00000000000E+00 -0.00000000000E+00 -0.44304775055E+03  0.44304775055E+03  0.00000000000E+00 0. -1.
         23    2    1    2    0    0 -0.71223840758E+02 -0.74391157867E+02 -0.17655461137E+03  0.22379029298E+03  0.91124555270E+02 0.  0.
          5    1    1    2  502    0  0.20368631832E+02  0.93621707221E+02 -0.85331843881E+02  0.12838815680E+03  0.47000000000E+01 0.  1.
         -5    1    1    2    0  502  0.50855208926E+02 -0.19230549354E+02 -0.13054136175E+03  0.14148923433E+03  0.47000000000E+01 0.  1.
        -11    1    3    3    0    0 -0.30396045810E+02 -0.21184677021E+02 -0.23530410910E+01  0.37124748400E+02  0.00000000000E+00 0.  1.
         11    1    3    3    0    0 -0.40827794948E+02 -0.53206480846E+02 -0.17420157028E+03  0.18666554458E+03  0.00000000000E+00 0. -1.
<mgrwt>
<rscale>  0 0.15547242E+03</rscale>
<asrwt>0</asrwt>
<pdfrwt beam="2">  1        2 0.68161193E-01 0.16196470E+03</pdfrwt>
<pdfrwt beam="1">  1       -2 0.77876821E-02 0.16196470E+03</pdfrwt>
<totfact> 0.68030895E+03</totfact>
</mgrwt>
</event>
<event>
 7    1  0.1446636E-005  0.1258178E+03  0.7546771E-02  0.1249026E+00
         -1   -1    0    0    0  501 -0.00000000000E+00  0.00000000000E+00  0.50393886039E+02  0.50393886039E+02  0.00000000000E+00 0.  1.
          1   -1    0    0  501    0  0.00000000000E+00 -0.00000000000E+00 -0.28826896106E+03  0.28826896106E+03  0.00000000000E+00 0. -1.
         23    2    1    2    0    0 -0.10383688323E+01  0.12625318021E+01 -0.17524676014E+03  0.19811951420E+03  0.92397201098E+02 0.  0.
          5    1    1    2  502    0 -0.17330659691E+02 -0.55265355847E+02 -0.59583024146E+02  0.83227628157E+02  0.47000000000E+01 0. -1.
         -5    1    1    2    0  502  0.18369028524E+02  0.54002824045E+02 -0.30452907297E+01  0.57315704736E+02  0.47000000000E+01 0.  1.
        -11    1    3    3    0    0  0.10941811013E+02  0.32306204685E+02 -0.20412949324E+02  0.39750504267E+02  0.00000000000E+00 0.  1.
         11    1    3    3    0    0 -0.11980179846E+02 -0.31043672883E+02 -0.15483381082E+03  0.15836900993E+03  0.00000000000E+00 0. -1.
<mgrwt>
<rscale>  0 0.11647650E+03</rscale>
<asrwt>0</asrwt>
<pdfrwt beam="2">  1        1 0.44349072E-01 0.12581782E+03</pdfrwt>
<pdfrwt beam="1">  1       -1 0.77529053E-02 0.12581782E+03</pdfrwt>
<totfact> 0.78675886E+03</totfact>
</mgrwt>
</event>
<event>
 7    1  0.1446636E-005  0.1594358E+03  0.7546771E-02  0.1196897E+00
         -2   -1    0    0    0  501 -0.00000000000E+00  0.00000000000E+00  0.15609033090E+03  0.15609033090E+03  0.00000000000E+00 0. -1.
          2   -1    0    0  501    0  0.00000000000E+00 -0.00000000000E+00 -0.13896043056E+03  0.13896043056E+03  0.00000000000E+00 0.  1.
         23    2    1    2    0    0  0.27288203540E+01 -0.98887447168E+02  0.41837171209E+01  0.13509017842E+03  0.91900376214E+02 0.  0.
          5    1    1    2  502    0  0.30190212954E+02  0.36790433975E+02 -0.47305474300E+02  0.67267249750E+02  0.47000000000E+01 0. -1.
         -5    1    1    2    0  502 -0.32919033308E+02  0.62097013193E+02  0.60251657518E+02  0.92693333283E+02  0.47000000000E+01 0. -1.
        -11    1    3    3    0    0  0.32003713966E+02 -0.10071710285E+03  0.40707285842E+01  0.10575794696E+03  0.00000000000E+00 0. -1.
         11    1    3    3    0    0 -0.29274893612E+02  0.18296556816E+01  0.11298853671E+00  0.29332231458E+02  0.00000000000E+00 0.  1.
<mgrwt>
<rscale>  0 0.15294782E+03</rscale>
<asrwt>0</asrwt>
<pdfrwt beam="2">  1        2 0.21378528E-01 0.15943583E+03</pdfrwt>
<pdfrwt beam="1">  1       -2 0.24013897E-01 0.15943583E+03</pdfrwt>
<totfact> 0.38014604E+03</totfact>
</mgrwt>
</event>
<event>
 7    1  0.1446636E-005  0.1295010E+03  0.7546771E-02  0.1238769E+00
          2   -1    0    0  501    0  0.00000000000E+00  0.00000000000E+00  0.10115822302E+03  0.10115822302E+03  0.00000000000E+00 0. -1.
         -2   -1    0    0    0  501 -0.00000000000E+00 -0.00000000000E+00 -0.14832025259E+03  0.14832025259E+03  0.00000000000E+00 0.  1.
         23    2    1    2    0    0  0.17866540531E+02  0.28742601725E+02  0.15892403829E+02  0.10544245810E+03  0.98591039385E+02 0.  0.
          5    1    1    2  502    0 -0.67677285405E+02 -0.32567225111E+02 -0.19864070983E+02  0.77830009812E+02  0.47000000000E+01 0.  1.
         -5    1    1    2    0  502  0.49810744874E+02  0.38246233865E+01 -0.43190362417E+02  0.66206007693E+02  0.47000000000E+01 0.  1.
        -11    1    3    3    0    0  0.15984529453E+02 -0.66780431202E+01  0.52010430004E+02  0.54819579267E+02  0.00000000000E+00 0. -1.
         11    1    3    3    0    0  0.18820110779E+01  0.35420644845E+02 -0.36118026176E+02  0.50622878837E+02  0.00000000000E+00 0.  1.
<mgrwt>
<rscale>  0 0.12266236E+03</rscale>
<asrwt>0</asrwt>
<pdfrwt beam="1">  1        2 0.15562804E-01 0.12950101E+03</pdfrwt>
<pdfrwt beam="2">  1       -2 0.22818500E-01 0.12950101E+03</pdfrwt>
<totfact> 0.58969322E+03</totfact>
</mgrwt>
</event>
<event>
 7    1  0.1446636E-005  0.1778471E+03  0.7546771E-02  0.1175622E+00
         -1   -1    0    0    0  501 -0.00000000000E+00  0.00000000000E+00  0.21977817338E+02  0.21977817338E+02  0.00000000000E+00 0.  1.
          1   -1    0    0  501    0  0.00000000000E+00 -0.00000000000E+00 -0.12894725765E+04  0.12894725765E+04  0.00000000000E+00 0. -1.
         23    2    1    2    0    0  0.10701314637E+03 -0.67504809368E+02 -0.67596846308E+03  0.69376686924E+03  0.91489851896E+02 0.  0.
          5    1    1    2  502    0  0.25028004552E+02  0.23828492547E+02 -0.74520455325E+02  0.82277495895E+02  0.47000000000E+01 0. -1.
         -5    1    1    2    0  502 -0.13204115092E+03  0.43676316822E+02 -0.51700584072E+03  0.53540602866E+03  0.47000000000E+01 0. -1.
        -11    1    3    3    0    0  0.98931366635E+02 -0.14888785764E+02 -0.50050480654E+03  0.51040587047E+03  0.00000000000E+00 0.  1.
         11    1    3    3    0    0  0.80817797332E+01 -0.52616023604E+02 -0.17546365654E+03  0.18336099877E+03  0.00000000000E+00 0. -1.
<mgrwt>
<rscale>  0 0.17215207E+03</rscale>
<asrwt>0</asrwt>
<pdfrwt beam="2">  1        1 0.19838045E+00 0.17784706E+03</pdfrwt>
<pdfrwt beam="1">  1       -1 0.33812018E-02 0.17784706E+03</pdfrwt>
<totfact> 0.31156999E+03</totfact>
</mgrwt>
</event>
<event>
 7    1  0.1446636E-005  0.1948180E+03  0.7546771E-02  0.1158545E+00
          1   -1    0    0  501    0  0.00000000000E+00  0.00000000000E+00  0.27989598782E+03  0.27989598782E+03  0.00000000000E+00 0. -1.
         -1   -1    0    0    0  501 -0.00000000000E+00 -0.00000000000E+00 -0.12346252731E+03  0.12346252731E+03  0.00000000000E+00 0.  1.
         23    2    1    2    0    0  0.12360823922E+03  0.83964505224E+02  0.89498602329E+02  0.19736255565E+03  0.92805945997E+02 0.  0.
          5    1    1    2  502    0  0.24432210646E+02 -0.11993692598E+02 -0.15142372457E+01  0.27661606852E+02  0.47000000000E+01 0. -1.
         -5    1    1    2    0  502 -0.14804044986E+03 -0.71970812626E+02  0.68449095428E+02  0.17833435264E+03  0.47000000000E+01 0. -1.
        -11    1    3    3    0    0  0.56399819690E+02  0.17683133792E+02  0.84127961342E+02  0.10281608221E+03  0.00000000000E+00 0. -1.
         11    1    3    3    0    0  0.67208419527E+02  0.66281371433E+02  0.53706409869E+01  0.94546473435E+02  0.00000000000E+00 0.  1.
<mgrwt>
<rscale>  0 0.18990673E+03</rscale>
<asrwt>0</asrwt>
<pdfrwt beam="1">  1        1 0.43060921E-01 0.19481802E+03</pdfrwt>
<pdfrwt beam="2">  1       -1 0.18994235E-01 0.19481802E+03</pdfrwt>
<totfact> 0.20756103E+03</totfact>
</mgrwt>
</event>
<event>
 7    1  0.1446636E-005  0.1502250E+03  0.7546771E-02  0.1209191E+00
         -1   -1    0    0    0  501 -0.00000000000E+00  0.00000000000E+00  0.69823692558E+02  0.69823692558E+02  0.00000000000E+00 0.  1.
          1   -1    0    0  501    0  0.00000000000E+00 -0.00000000000E+00 -0.29036687156E+03  0.29036687156E+03  0.00000000000E+00 0. -1.
         23    2    1    2    0    0 -0.56751700987E+02  0.61027645385E+02 -0.14931039956E+03  0.19393272242E+03  0.91494132829E+02 0.  0.
          5    1    1    2  502    0  0.44518270408E+02 -0.64932020238E+02  0.13857325871E+02  0.80075958518E+02  0.47000000000E+01 0. -1.
         -5    1    1    2    0  502  0.12233430578E+02  0.39043748531E+01 -0.85090105311E+02  0.86181883180E+02  0.47000000000E+01 0. -1.
        -11    1    3    3    0    0 -0.54112374207E+02  0.80765418807E+02 -0.94340681127E+02  0.13546721387E+03  0.00000000000E+00 0.  1.
         11    1    3    3    0    0 -0.26393267791E+01 -0.19737773423E+02 -0.54969718436E+02  0.58465508554E+02  0.00000000000E+00 0. -1.
<mgrwt>
<rscale>  0 0.14312022E+03</rscale>
<asrwt>0</asrwt>
<pdfrwt beam="2">  1        1 0.44671827E-01 0.15022503E+03</pdfrwt>
<pdfrwt beam="1">  1       -1 0.10742107E-01 0.15022503E+03</pdfrwt>
<totfact> 0.48039783E+03</totfact>
</mgrwt>
</event>
<event>
 7    1  0.1446636E-005  0.1728255E+03  0.7546771E-02  0.1181726E+00
         -2   -1    0    0    0  501 -0.00000000000E+00  0.00000000000E+00  0.80965518831E+02  0.80965518831E+02  0.00000000000E+00 0.  1.
          2   -1    0    0  501    0  0.00000000000E+00 -0.00000000000E+00 -0.31886314076E+03  0.31886314076E+03  0.00000000000E+00 0. -1.
         23    2    1    2    0    0 -0.11902728517E+03 -0.87017318502E+01 -0.11759437348E+03  0.18925441384E+03  0.88008986654E+02 0.  0.
          5    1    1    2  502    0  0.42393982786E+02 -0.36875830873E+02 -0.10611887438E+03  0.12016814128E+03  0.47000000000E+01 0. -1.
         -5    1    1    2    0  502  0.76633302384E+02  0.45577562723E+02 -0.14184374067E+02  0.90406104471E+02  0.47000000000E+01 0. -1.
        -11    1    3    3    0    0  0.38141455375E+01 -0.24122930859E+02 -0.21369810980E+02  0.32452000258E+02  0.00000000000E+00 0. -1.
         11    1    3    3    0    0 -0.12284143071E+03  0.15421199009E+02 -0.96224562505E+02  0.15680241359E+03  0.00000000000E+00 0.  1.
<mgrwt>
<rscale>  0 0.16633398E+03</rscale>
<asrwt>0</asrwt>
<pdfrwt beam="2">  1        2 0.49055868E-01 0.17282547E+03</pdfrwt>
<pdfrwt beam="1">  1       -2 0.12456234E-01 0.17282547E+03</pdfrwt>
<totfact> 0.46321141E+03</totfact>
</mgrwt>
</event>
<event>
 7    1  0.1446636E-005  0.1535809E+03  0.7546771E-02  0.1204349E+00
          2   -1    0    0  501    0  0.00000000000E+00  0.00000000000E+00  0.14015099177E+03  0.14015099177E+03  0.00000000000E+00 0.  1.
         -2   -1    0    0    0  501 -0.00000000000E+00 -0.00000000000E+00 -0.14849015709E+03  0.14849015709E+03  0.00000000000E+00 0. -1.
         23    2    1    2    0    0  0.32097306932E+02  0.83261520931E+02  0.26363713737E+02  0.13118838298E+03  0.92480421972E+02 0.  0.
          5    1    1    2  502    0 -0.34722711908E+02 -0.41224219432E+02  0.42889089259E+02  0.69041052770E+02  0.47000000000E+01 0.  1.
         -5    1    1    2    0  502  0.26254049760E+01 -0.42037301499E+02 -0.77591968307E+02  0.88411713106E+02  0.47000000000E+01 0.  1.
        -11    1    3    3    0    0  0.15616949718E+02  0.36606002592E+02  0.59538928564E+02  0.71615449163E+02  0.00000000000E+00 0.  1.
         11    1    3    3    0    0  0.16480357214E+02  0.46655518338E+02 -0.33175214827E+02  0.59572933822E+02  0.00000000000E+00 0. -1.
<mgrwt>
<rscale>  0 0.14688884E+03</rscale>
<asrwt>0</asrwt>
<pdfrwt beam="1">  1        2 0.21561691E-01 0.15358087E+03</pdfrwt>
<pdfrwt beam="2">  1       -2 0.22844640E-01 0.15358087E+03</pdfrwt>
<totfact> 0.40970501E+03</totfact>
</mgrwt>
</event>
<event>
 7    1  0.1446636E-005  0.1389903E+03  0.7546771E-02  0.1225704E+00
         -3   -1    0    0    0  501 -0.00000000000E+00  0.00000000000E+00  0.40021004193E+03  0.40021004193E+03  0.00000000000E+00 0.  1.
          3   -1    0    0  501    0  0.00000000000E+00 -0.00000000000E+00 -0.42898615226E+02  0.42898615226E+02  0.00000000000E+00 0. -1.
         23    2    1    2    0    0 -0.31149695948E+01  0.60678699840E+02  0.92188562509E+02  0.14376199127E+03  0.92071556016E+02 0.  0.
          5    1    1    2  502    0 -0.28535445428E+02 -0.84315535301E+02  0.12393144026E+03  0.15265802640E+03  0.47000000000E+01 0. -1.
         -5    1    1    2    0  502  0.31650415022E+02  0.23636835461E+02  0.14119142394E+03  0.14668863949E+03  0.47000000000E+01 0. -1.
        -11    1    3    3    0    0  0.25131557572E+02 -0.90074405128E+01  0.26350327930E+01  0.26826713709E+02  0.00000000000E+00 0. -1.
         11    1    3    3    0    0 -0.28246527167E+02  0.69686140353E+02  0.89553529716E+02  0.11693527756E+03  0.00000000000E+00 0.  1.
<mgrwt>
<rscale>  0 0.13118801E+03</rscale>
<asrwt>0</asrwt>
<pdfrwt beam="2">  1        3 0.65997872E-02 0.13899026E+03</pdfrwt>
<pdfrwt beam="1">  1       -3 0.61570773E-01 0.13899026E+03</pdfrwt>
<totfact> 0.88225775E+02</totfact>
</mgrwt>
</event>
<event>
 7    1  0.1446636E-005  0.1356893E+03  0.7546771E-02  0.1225081E+00
          2   -1    0    0  501    0  0.00000000000E+00  0.00000000000E+00  0.25696262376E+03  0.25696262376E+03  0.00000000000E+00 0. -1.
         -2   -1    0    0    0  501 -0.00000000000E+00 -0.00000000000E+00 -0.63660464785E+02  0.63660464785E+02  0.00000000000E+00 0.  1.
         23    2    1    2    0    0  0.25819568648E+02 -0.45973013631E+02  0.91712880496E+02  0.15111800073E+03  0.10791306496E+03 0.  0.
          5    1    1    2  502    0 -0.34397272623E+02 -0.26892939496E+02 -0.23262685529E+00  0.43915221437E+02  0.47000000000E+01 0.  1.
         -5    1    1    2    0  502  0.85777039748E+01  0.72865953127E+02  0.10182190533E+03  0.12558986637E+03  0.47000000000E+01 0.  1.
        -11    1    3    3    0    0  0.76551037526E+01 -0.33271815565E+02 -0.18408822410E+02  0.38787872679E+02  0.00000000000E+00 0.  1.
         11    1    3    3    0    0  0.18164464896E+02 -0.12701198067E+02  0.11012170291E+03  0.11233012805E+03  0.00000000000E+00 0. -1.
<mgrwt>
<rscale>  0 0.13161344E+03</rscale>
<asrwt>0</asrwt>
<pdfrwt beam="1">  1        2 0.39532711E-01 0.13568933E+03</pdfrwt>
<pdfrwt beam="2">  1       -2 0.97939178E-02 0.13568933E+03</pdfrwt>
<totfact> 0.84175472E+03</totfact>
</mgrwt>
</event>
<event>
 7    1  0.1446636E-005  0.2564145E+03  0.7546771E-02  0.1111750E+00
          3   -1    0    0  501    0  0.00000000000E+00  0.00000000000E+00  0.10895300711E+03  0.10895300711E+03  0.00000000000E+00 0. -1.
         -3   -1    0    0    0  501 -0.00000000000E+00 -0.00000000000E+00 -0.58079953065E+03  0.58079953065E+03  0.00000000000E+00 0.  1.
         23    2    1    2    0    0  0.14872168320E+03  0.16734334265E+03 -0.17715068645E+03  0.29911969786E+03  0.89265304297E+02 0.  0.
          5    1    1    2  502    0 -0.15591544312E+03 -0.12192488770E+03 -0.27840141205E+03  0.34162075446E+03  0.47000000000E+01 0.  1.
         -5    1    1    2    0  502  0.71937599148E+01 -0.45418454953E+02 -0.16294425040E+02  0.49012085443E+02  0.47000000000E+01 0.  1.
        -11    1    3    3    0    0  0.13204861418E+02  0.77033038940E+02 -0.58761977095E+02  0.97782551641E+02  0.00000000000E+00 0. -1.
         11    1    3    3    0    0  0.13551682178E+03  0.90310303714E+02 -0.11838870936E+03  0.20133714622E+03  0.00000000000E+00 0.  1.
<mgrwt>
<rscale>  0 0.25247581E+03</rscale>
<asrwt>0</asrwt>
<pdfrwt beam="1">  1        3 0.16762001E-01 0.25641447E+03</pdfrwt>
<pdfrwt beam="2">  1       -3 0.89353775E-01 0.25641447E+03</pdfrwt>
<totfact> 0.89071304E+01</totfact>
</mgrwt>
</event>
<event>
 7    1  0.1446636E-005  0.1255411E+03  0.7546771E-02  0.1249946E+00
          2   -1    0    0  501    0  0.00000000000E+00  0.00000000000E+00  0.43837573933E+03  0.43837573933E+03  0.00000000000E+00 0.  1.
         -2   -1    0    0    0  501 -0.00000000000E+00 -0.00000000000E+00 -0.30019486606E+02  0.30019486606E+02  0.00000000000E+00 0. -1.
         23    2    1    2    0    0  0.78916517015E+01  0.85876006080E+01  0.25098043411E+03  0.26708023606E+03  0.90579518322E+02 0.  0.
          5    1    1    2  502    0  0.48167657005E+01  0.57483771836E+02  0.66783320182E+02  0.88372434112E+02  0.47000000000E+01 0.  1.
         -5    1    1    2    0  502 -0.12708417402E+02 -0.66071372444E+02  0.90592498438E+02  0.11294255576E+03  0.47000000000E+01 0.  1.
        -11    1    3    3    0    0  0.16093231328E+02 -0.34676933917E+02  0.60424185256E+02  0.71502195801E+02  0.00000000000E+00 0. -1.
         11    1    3    3    0    0 -0.82015796265E+01  0.43264534525E+02  0.19055624885E+03  0.19557804026E+03  0.00000000000E+00 0.  1.
<mgrwt>
<rscale>  0 0.11594171E+03</rscale>
<asrwt>0</asrwt>
<pdfrwt beam="1">  1        2 0.67442417E-01 0.12554114E+03</pdfrwt>
<pdfrwt beam="2">  1       -2 0.46183829E-02 0.12554114E+03</pdfrwt>
<totfact> 0.14948987E+04</totfact>
</mgrwt>
</event>
<event>
 7    1  0.1446636E-005  0.1368992E+03  0.7546771E-02  0.1224860E+00
         -1   -1    0    0    0  501 -0.00000000000E+00  0.00000000000E+00  0.41102918522E+02  0.41102918522E+02  0.00000000000E+00 0.  1.
          1   -1    0    0  501    0  0.00000000000E+00 -0.00000000000E+00 -0.39378198593E+03  0.39378198593E+03  0.00000000000E+00 0. -1.
         23    2    1    2    0    0  0.53229143888E+02 -0.16820853555E+02 -0.16749107644E+03  0.20458945383E+03  0.10337940345E+03 0.  0.
          5    1    1    2  502    0 -0.45961767634E+02 -0.22611394774E+02 -0.18275001075E+03  0.18985103551E+03  0.47000000000E+01 0. -1.
         -5    1    1    2    0  502 -0.72673762537E+01  0.39432248329E+02 -0.24379802214E+01  0.40444415108E+02  0.47000000000E+01 0. -1.
        -11    1    3    3    0    0 -0.48816898318E+01 -0.17530863043E+02  0.78868554173E+01  0.19833419852E+02  0.00000000000E+00 0.  1.
         11    1    3    3    0    0  0.58110833720E+02  0.71000948844E+00 -0.17537793186E+03  0.18475603398E+03  0.00000000000E+00 0. -1.
<mgrwt>
<rscale>  0 0.13176491E+03</rscale>
<asrwt>0</asrwt>
<pdfrwt beam="2">  1        1 0.60581845E-01 0.13689924E+03</pdfrwt>
<pdfrwt beam="1">  1       -1 0.63235258E-02 0.13689924E+03</pdfrwt>
<totfact> 0.72848626E+03</totfact>
</mgrwt>
</event>
<event>
 7    1  0.1446636E-005  0.1723768E+03  0.7546771E-02  0.1181571E+00
         -1   -1    0    0    0  501 -0.00000000000E+00  0.00000000000E+00  0.88471573491E+02  0.88471573491E+02  0.00000000000E+00 0.  1.
          1   -1    0    0  501    0  0.00000000000E+00 -0.00000000000E+00 -0.33812999513E+03  0.33812999513E+03  0.00000000000E+00 0. -1.
         23    2    1    2    0    0 -0.18998129985E+02  0.11716521391E+03 -0.19452838517E+03  0.24562345928E+03  0.91656831820E+02 0.  0.
          5    1    1    2  502    0  0.59142546413E+02 -0.66658122462E+02 -0.71387484597E+02  0.11427777143E+03  0.47000000000E+01 0. -1.
         -5    1    1    2    0  502 -0.40144416428E+02 -0.50507091447E+02  0.16257448132E+02  0.66700337904E+02  0.47000000000E+01 0. -1.
        -11    1    3    3    0    0  0.22831732139E+02  0.50113958425E+01 -0.65862231489E+02  0.69887306555E+02  0.00000000000E+00 0. -1.
         11    1    3    3    0    0 -0.41829862124E+02  0.11215381807E+03 -0.12866615369E+03  0.17573615273E+03  0.00000000000E+00 0.  1.
<mgrwt>
<rscale>  0 0.16647797E+03</rscale>
<asrwt>0</asrwt>
<pdfrwt beam="2">  1        1 0.52020000E-01 0.17237678E+03</pdfrwt>
<pdfrwt beam="1">  1       -1 0.13611011E-01 0.17237678E+03</pdfrwt>
<totfact> 0.27699003E+03</totfact>
</mgrwt>
</event>
<event>
 7    1  0.1446636E-005  0.2178651E+03  0.7546771E-02  0.1149216E+00
          1   -1    0    0  501    0  0.00000000000E+00  0.00000000000E+00  0.24172312241E+03  0.24172312241E+03  0.00000000000E+00 0. -1.
         -1   -1    0    0    0  501 -0.00000000000E+00 -0.00000000000E+00 -0.15804820242E+03  0.15804820242E+03  0.00000000000E+00 0.  1.
         23    2    1    2    0    0 -0.10660331097E+03 -0.71542927223E+02  0.92135315458E+02  0.18174204394E+03  0.89769693316E+02 0.  0.
          5    1    1    2  502    0  0.19158451940E+02 -0.49772004848E+01 -0.79294013337E+02  0.81862380594E+02  0.47000000000E+01 0. -1.
         -5    1    1    2    0  502  0.87444859026E+02  0.76520127708E+02  0.70833617868E+02  0.13616690029E+03  0.47000000000E+01 0.  1.
        -11    1    3    3    0    0 -0.17408954574E+02 -0.57662585657E+02  0.12828176811E+02  0.61584150594E+02  0.00000000000E+00 0.  1.
         11    1    3    3    0    0 -0.89194356393E+02 -0.13880341566E+02  0.79307138646E+02  0.12015789335E+03  0.00000000000E+00 0. -1.
<mgrwt>
<rscale>  0 0.20062165E+03</rscale>
<asrwt>0</asrwt>
<pdfrwt beam="1">  1        1 0.37188173E-01 0.21786507E+03</pdfrwt>
<pdfrwt beam="2">  1       -1 0.24315108E-01 0.21786507E+03</pdfrwt>
<totfact> 0.16706084E+03</totfact>
</mgrwt>
</event>
<event>
 7    1  0.1446636E-005  0.1421320E+03  0.7546771E-02  0.1220784E+00
          2   -1    0    0  501    0  0.00000000000E+00  0.00000000000E+00  0.34269667803E+03  0.34269667803E+03  0.00000000000E+00 0. -1.
         -2   -1    0    0    0  501 -0.00000000000E+00 -0.00000000000E+00 -0.48497725475E+02  0.48497725475E+02  0.00000000000E+00 0.  1.
         23    2    1    2    0    0  0.20033765771E+02 -0.64612763638E+02  0.15144766264E+03  0.18975102341E+03  0.92156906258E+02 0.  0.
          5    1    1    2  502    0 -0.42897557391E+02 -0.11608524800E+02  0.10319026921E+03  0.11245123360E+03  0.47000000000E+01 0. -1.
         -5    1    1    2    0  502  0.22863791621E+02  0.76221288438E+02  0.39561020705E+02  0.88992146494E+02  0.47000000000E+01 0. -1.
        -11    1    3    3    0    0  0.31136970351E+02 -0.81953081853E+02  0.93117253406E+02  0.12789308593E+03  0.00000000000E+00 0.  1.
         11    1    3    3    0    0 -0.11103204580E+02  0.17340318215E+02  0.58330409231E+02  0.61857937476E+02  0.00000000000E+00 0. -1.
<mgrwt>
<rscale>  0 0.13460135E+03</rscale>
<asrwt>0</asrwt>
<pdfrwt beam="1">  1        2 0.52722564E-01 0.14213200E+03</pdfrwt>
<pdfrwt beam="2">  1       -2 0.74611888E-02 0.14213200E+03</pdfrwt>
<totfact> 0.94929654E+03</totfact>
</mgrwt>
</event>
<event>
 7    1  0.1446636E-005  0.1914679E+03  0.7546771E-02  0.1161073E+00
          2   -1    0    0  501    0  0.00000000000E+00  0.00000000000E+00  0.67814528381E+02  0.67814528381E+02  0.00000000000E+00 0.  1.
         -2   -1    0    0    0  501 -0.00000000000E+00 -0.00000000000E+00 -0.49785836409E+03  0.49785836409E+03  0.00000000000E+00 0. -1.
         23    2    1    2    0    0 -0.96629098260E+02 -0.10815706262E+03 -0.18139226052E+03  0.25184558439E+03  0.97405920638E+02 0.  0.
          5    1    1    2  502    0  0.41356026114E+02 -0.22399958666E+02 -0.42361991513E+02  0.63472099139E+02  0.47000000000E+01 0. -1.
         -5    1    1    2    0  502  0.55273072146E+02  0.13055702129E+03 -0.20628958368E+03  0.25035520895E+03  0.47000000000E+01 0. -1.
        -11    1    3    3    0    0 -0.11312808713E+03 -0.71230217013E+02 -0.13028266448E+03  0.18666890629E+03  0.00000000000E+00 0.  1.
         11    1    3    3    0    0  0.16498988870E+02 -0.36926845606E+02 -0.51109596038E+02  0.65176678094E+02  0.00000000000E+00 0. -1.
<mgrwt>
<rscale>  0 0.18713307E+03</rscale>
<asrwt>0</asrwt>
<pdfrwt beam="1">  1        2 0.10433005E-01 0.19146794E+03</pdfrwt>
<pdfrwt beam="2">  1       -2 0.76593591E-01 0.19146794E+03</pdfrwt>
<totfact> 0.94271802E+02</totfact>
</mgrwt>
</event>
<event>
 7    1  0.1446636E-005  0.1279764E+03  0.7546771E-02  0.1245441E+00
          2   -1    0    0  501    0  0.00000000000E+00  0.00000000000E+00  0.26849350034E+03  0.26849350034E+03  0.00000000000E+00 0.  1.
         -2   -1    0    0    0  501 -0.00000000000E+00 -0.00000000000E+00 -0.47113562267E+02  0.47113562267E+02  0.00000000000E+00 0. -1.
         23    2    1    2    0    0  0.90317092347E+01  0.25902203838E+02  0.11800083907E+03  0.15109200252E+03  0.90288976458E+02 0.  0.
          5    1    1    2  502    0 -0.52685666173E+02  0.26651307749E+02  0.42675600315E+02  0.73002523841E+02  0.47000000000E+01 0. -1.
         -5    1    1    2    0  502  0.43653956939E+02 -0.52553511588E+02  0.60703498687E+02  0.91512536242E+02  0.47000000000E+01 0. -1.
        -11    1    3    3    0    0 -0.13389348780E+02  0.15551601409E+02  0.12399363579E+03  0.12568034327E+03  0.00000000000E+00 0.  1.
         11    1    3    3    0    0  0.22421058015E+02  0.10350602429E+02 -0.59927967290E+01  0.25411659249E+02  0.00000000000E+00 0. -1.
<mgrwt>
<rscale>  0 0.11859033E+03</rscale>
<asrwt>0</asrwt>
<pdfrwt beam="1">  1        2 0.41306691E-01 0.12797643E+03</pdfrwt>
<pdfrwt beam="2">  1       -2 0.72482405E-02 0.12797643E+03</pdfrwt>
<totfact> 0.12750404E+04</totfact>
</mgrwt>
</event>
<event>
 7    1  0.1446636E-005  0.1390502E+03  0.7546771E-02  0.1226235E+00
         -3   -1    0    0    0  501 -0.00000000000E+00  0.00000000000E+00  0.14512377542E+04  0.14512377542E+04  0.00000000000E+00 0.  1.
          3   -1    0    0  501    0  0.00000000000E+00 -0.00000000000E+00 -0.10927154171E+02  0.10927154171E+02  0.00000000000E+00 0. -1.
         23    2    1    2    0    0  0.12933127279E+02 -0.59524241668E+02  0.50905333053E+03  0.52058375588E+03  0.90342417732E+02 0.  0.
          5    1    1    2  502    0 -0.14463369011E+02  0.91212647576E+02  0.45820120158E+03  0.46743915888E+03  0.47000000000E+01 0.  1.
         -5    1    1    2    0  502  0.15302417323E+01 -0.31688405908E+02  0.47305606788E+03  0.47414199357E+03  0.47000000000E+01 0.  1.
        -11    1    3    3    0    0 -0.15473034952E+02 -0.74979147518E+02  0.36579642042E+03  0.37372223450E+03  0.00000000000E+00 0.  1.
         11    1    3    3    0    0  0.28406162230E+02  0.15454905850E+02  0.14325691011E+03  0.14686152138E+03  0.00000000000E+00 0. -1.
<mgrwt>
<rscale>  0 0.13082627E+03</rscale>
<asrwt>0</asrwt>
<pdfrwt beam="2">  1        3 0.16811018E-02 0.13905022E+03</pdfrwt>
<pdfrwt beam="1">  1       -3 0.22326719E+00 0.13905022E+03</pdfrwt>
<totfact> 0.34136034E+02</totfact>
</mgrwt>
</event>
<event>
 7    1  0.1446636E-005  0.2238112E+03  0.7546771E-02  0.1131073E+00
         -1   -1    0    0    0  501 -0.00000000000E+00  0.00000000000E+00  0.29394571279E+03  0.29394571279E+03  0.00000000000E+00 0.  1.
          1   -1    0    0  501    0  0.00000000000E+00 -0.00000000000E+00 -0.42602657306E+02  0.42602657306E+02  0.00000000000E+00 0. -1.
         23    2    1    2    0    0 -0.26492334511E+02 -0.10972812186E+01  0.75453506010E+02  0.11933135569E+03  0.88564626505E+02 0.  0.
          5    1    1    2  502    0  0.51797242165E+02 -0.35662876181E+02  0.15574547591E+03  0.16802838540E+03  0.47000000000E+01 0.  1.
         -5    1    1    2    0  502 -0.25304907655E+02  0.36760157399E+02  0.20144073560E+02  0.49188629001E+02  0.47000000000E+01 0.  1.
        -11    1    3    3    0    0 -0.46826380390E+02 -0.64377221527E+01  0.70744442839E+01  0.47793325150E+02  0.00000000000E+00 0. -1.
         11    1    3    3    0    0  0.20334045879E+02  0.53404409341E+01  0.68379061726E+02  0.71538030541E+02  0.00000000000E+00 0.  1.
<mgrwt>
<rscale>  0 0.22381125E+03</rscale>
<asrwt>0</asrwt>
<pdfrwt beam="2">  1        1 0.65542552E-02 0.22381125E+03</pdfrwt>
<pdfrwt beam="1">  1       -1 0.45222416E-01 0.22381125E+03</pdfrwt>
<totfact> 0.55609539E+03</totfact>
</mgrwt>
</event>
<event>
 7    1  0.1446636E-005  0.1302674E+03  0.7546771E-02  0.1240928E+00
          1   -1    0    0  501    0  0.00000000000E+00  0.00000000000E+00  0.21124372798E+03  0.21124372798E+03  0.00000000000E+00 0. -1.
         -1   -1    0    0    0  501 -0.00000000000E+00 -0.00000000000E+00 -0.63332362731E+02  0.63332362731E+02  0.00000000000E+00 0.  1.
         23    2    1    2    0    0 -0.28177681626E+02 -0.23469220812E+02  0.85787746738E+02  0.13025378974E+03  0.90894038216E+02 0.  0.
          5    1    1    2  502    0  0.38609924067E+01  0.73280415964E+02  0.25999233659E+02  0.77993440603E+02  0.47000000000E+01 0.  1.
         -5    1    1    2    0  502  0.24316689219E+02 -0.49811195151E+02  0.36124384850E+02  0.66328860368E+02  0.47000000000E+01 0.  1.
        -11    1    3    3    0    0 -0.43344540700E+02  0.15528908370E+02  0.15737405336E+02  0.48657600951E+02  0.00000000000E+00 0.  1.
         11    1    3    3    0    0  0.15166859073E+02 -0.38998129182E+02  0.70050341402E+02  0.81596188786E+02  0.00000000000E+00 0. -1.
<mgrwt>
<rscale>  0 0.12132419E+03</rscale>
<asrwt>0</asrwt>
<pdfrwt beam="1">  1        1 0.32499035E-01 0.13026735E+03</pdfrwt>
<pdfrwt beam="2">  1       -1 0.97434406E-02 0.13026735E+03</pdfrwt>
<totfact> 0.81951835E+03</totfact>
</mgrwt>
</event>
<event>
 7    1  0.1446636E-005  0.1671892E+03  0.7546771E-02  0.1187722E+00
          2   -1    0    0  501    0  0.00000000000E+00  0.00000000000E+00  0.94853511341E+03  0.94853511341E+03  0.00000000000E+00 0. -1.
         -2   -1    0    0    0  501 -0.00000000000E+00 -0.00000000000E+00 -0.26454119470E+02  0.26454119470E+02  0.00000000000E+00 0.  1.
         23    2    1    2    0    0  0.42372795121E+02  0.10262146246E+03  0.52362699415E+03  0.54288065050E+03  0.90595548265E+02 0.  0.
          5    1    1    2  502    0 -0.85757515567E+02 -0.71874879468E+02  0.29803592291E+03  0.31838318285E+03  0.47000000000E+01 0.  1.
         -5    1    1    2    0  502  0.43384720446E+02 -0.30746582992E+02  0.10041807688E+03  0.11372539953E+03  0.47000000000E+01 0.  1.
        -11    1    3    3    0    0 -0.20369760680E+02  0.68104785004E+02  0.28570261876E+03  0.29441327290E+03  0.00000000000E+00 0.  1.
         11    1    3    3    0    0  0.62742555801E+02  0.34516677456E+02  0.23792437538E+03  0.24846737760E+03  0.00000000000E+00 0. -1.
<mgrwt>
<rscale>  0 0.16086659E+03</rscale>
<asrwt>0</asrwt>
<pdfrwt beam="1">  1        2 0.14592845E+00 0.16718923E+03</pdfrwt>
<pdfrwt beam="2">  1       -2 0.40698653E-02 0.16718923E+03</pdfrwt>
<totfact> 0.74039134E+03</totfact>
</mgrwt>
</event>
<event>
 7    1  0.1446636E-005  0.1173773E+03  0.7546771E-02  0.1259500E+00
         -1   -1    0    0    0  501 -0.00000000000E+00  0.00000000000E+00  0.77878904665E+02  0.77878904665E+02  0.00000000000E+00 0.  1.
          1   -1    0    0  501    0  0.00000000000E+00 -0.00000000000E+00 -0.17551894357E+03  0.17551894357E+03  0.00000000000E+00 0. -1.
         23    2    1    2    0    0  0.24415863628E+02  0.12776360339E+02 -0.99738659465E+02  0.13600180321E+03  0.88257127214E+02 0.  0.
          5    1    1    2  502    0 -0.41379461716E+02  0.26952082133E+02 -0.34631437914E+02  0.60498769204E+02  0.47000000000E+01 0. -1.
         -5    1    1    2    0  502  0.16963598088E+02 -0.39728442472E+02  0.36730058470E+02  0.56897275827E+02  0.47000000000E+01 0.  1.
        -11    1    3    3    0    0  0.36635260903E+02  0.44885484215E+02 -0.66494788856E+02  0.88195271867E+02  0.00000000000E+00 0. -1.
         11    1    3    3    0    0 -0.12219397275E+02 -0.32109123877E+02 -0.33243870609E+02  0.47806531342E+02  0.00000000000E+00 0.  1.
<mgrwt>
<rscale>  0 0.11057972E+03</rscale>
<asrwt>0</asrwt>
<pdfrwt beam="2">  1        1 0.27002914E-01 0.11737729E+03</pdfrwt>
<pdfrwt beam="1">  1       -1 0.11981370E-01 0.11737729E+03</pdfrwt>
<totfact> 0.74591783E+03</totfact>
</mgrwt>
</event>
<event>
 7    1  0.1446636E-005  0.1421094E+03  0.7546771E-02  0.1221085E+00
         -1   -1    0    0    0  501 -0.00000000000E+00  0.00000000000E+00  0.40034839478E+03  0.40034839478E+03  0.00000000000E+00 0.  1.
          1   -1    0    0  501    0  0.00000000000E+00 -0.00000000000E+00 -0.40998772607E+02  0.40998772607E+02  0.00000000000E+00 0. -1.
         23    2    1    2    0    0 -0.61774094924E+02 -0.27454395633E+02  0.14649071327E+03  0.18540965636E+03  0.91364265199E+02 0.  0.
          5    1    1    2  502    0  0.33292221047E+02 -0.84568901883E+00 -0.53147139442E+01  0.34050306261E+02  0.47000000000E+01 0.  1.
         -5    1    1    2    0  502  0.28481873877E+02  0.28300084651E+02  0.21817362284E+03  0.22188720476E+03  0.47000000000E+01 0.  1.
        -11    1    3    3    0    0 -0.16570185541E+02 -0.87862090041E+01 -0.10139975530E+02  0.21321060510E+02  0.00000000000E+00 0. -1.
         11    1    3    3    0    0 -0.45203909383E+02 -0.18668186629E+02  0.15663068880E+03  0.16408859585E+03  0.00000000000E+00 0.  1.
<mgrwt>
<rscale>  0 0.13438887E+03</rscale>
<asrwt>0</asrwt>
<pdfrwt beam="2">  1        1 0.63075038E-02 0.14210945E+03</pdfrwt>
<pdfrwt beam="1">  1       -1 0.61592058E-01 0.14210945E+03</pdfrwt>
<totfact> 0.32143915E+03</totfact>
</mgrwt>
</event>
<event>
 7    1  0.1446636E-005  0.1677394E+03  0.7546771E-02  0.1186882E+00
         -2   -1    0    0    0  501 -0.00000000000E+00  0.00000000000E+00  0.16478653789E+03  0.16478653789E+03  0.00000000000E+00 0. -1.
          2   -1    0    0  501    0  0.00000000000E+00 -0.00000000000E+00 -0.20315847248E+03  0.20315847248E+03  0.00000000000E+00 0.  1.
         23    2    1    2    0    0  0.68320205955E+02  0.88561772860E+02 -0.11384574710E+03  0.18400807243E+03  0.91582085758E+02 0.  0.
          5    1    1    2  502    0  0.28814906086E+02 -0.20787479907E+01 -0.66965932251E+01  0.30025894937E+02  0.47000000000E+01 0.  1.
         -5    1    1    2    0  502 -0.97135112041E+02 -0.86483024869E+02  0.82170405727E+02  0.15391104301E+03  0.47000000000E+01 0.  1.
        -11    1    3    3    0    0  0.61087667082E+02  0.71187315221E+01 -0.61192142206E+02  0.86757464669E+02  0.00000000000E+00 0.  1.
         11    1    3    3    0    0  0.72325388723E+01  0.81443041338E+02 -0.52653604894E+02  0.97250607758E+02  0.00000000000E+00 0. -1.
<mgrwt>
<rscale>  0 0.16161798E+03</rscale>
<asrwt>0</asrwt>
<pdfrwt beam="2">  1        2 0.31255150E-01 0.16773938E+03</pdfrwt>
<pdfrwt beam="1">  1       -2 0.25351775E-01 0.16773938E+03</pdfrwt>
<totfact> 0.22771067E+03</totfact>
</mgrwt>
</event>
<event>
 7    1  0.1446636E-005  0.1558445E+03  0.7546771E-02  0.1201382E+00
         -1   -1    0    0    0  501 -0.00000000000E+00  0.00000000000E+00  0.33472270480E+02  0.33472270480E+02  0.00000000000E+00 0.  1.
          1   -1    0    0  501    0  0.00000000000E+00 -0.00000000000E+00 -0.67745438759E+03  0.67745438759E+03  0.00000000000E+00 0. -1.
         23    2    1    2    0    0 -0.23529243457E+02 -0.90058799815E+02 -0.40427485710E+03  0.42501218205E+03  0.92374141884E+02 0.  0.
          5    1    1    2  502    0  0.60309918657E+02  0.37562954120E+01 -0.11247126836E+03  0.12776256200E+03  0.47000000000E+01 0. -1.
         -5    1    1    2    0  502 -0.36780675200E+02  0.86302504403E+02 -0.12723599166E+03  0.15815191402E+03  0.47000000000E+01 0. -1.
        -11    1    3    3    0    0 -0.11706486458E+02 -0.10774675940E+03 -0.35869898398E+03  0.37471504787E+03  0.00000000000E+00 0. -1.
         11    1    3    3    0    0 -0.11822756999E+02  0.17687959582E+02 -0.45575873112E+02  0.50297134185E+02  0.00000000000E+00 0.  1.
<mgrwt>
<rscale>  0 0.14926255E+03</rscale>
<asrwt>0</asrwt>
<pdfrwt beam="2">  1        1 0.10422374E+00 0.15584453E+03</pdfrwt>
<pdfrwt beam="1">  1       -1 0.51495808E-02 0.15584453E+03</pdfrwt>
<totfact> 0.48570585E+03</totfact>
</mgrwt>
</event>
<event>
 7    1  0.1510854E-005  0.1716374E+03  0.7546771E-02  0.1182321E+00
         -1   -1    0    0    0  501 -0.00000000000E+00  0.00000000000E+00  0.19680413337E+02  0.19680413337E+02  0.00000000000E+00 0.  1.
          1   -1    0    0  501    0  0.00000000000E+00 -0.00000000000E+00 -0.13194470264E+04  0.13194470264E+04  0.00000000000E+00 0. -1.
         23    2    1    2    0    0  0.65645491543E+02 -0.97597430021E+02 -0.66437409861E+03  0.68096100405E+03  0.92088855056E+02 0.  0.
          5    1    1    2  502    0 -0.85098040489E+02  0.75833387727E+02 -0.60538534052E+03  0.61604048545E+03  0.47000000000E+01 0.  1.
         -5    1    1    2    0  502  0.19452548946E+02  0.21764042294E+02 -0.30007173977E+02  0.42125950287E+02  0.47000000000E+01 0.  1.
        -11    1    3    3    0    0  0.89257782132E+02 -0.73265254021E+02 -0.51371576413E+03  0.52653455294E+03  0.00000000000E+00 0. -1.
         11    1    3    3    0    0 -0.23612290589E+02 -0.24332176000E+02 -0.15065833448E+03  0.15442645112E+03  0.00000000000E+00 0.  1.
<mgrwt>
<rscale>  0 0.16578052E+03</rscale>
<asrwt>0</asrwt>
<pdfrwt beam="2">  1        1 0.20299191E+00 0.17163744E+03</pdfrwt>
<pdfrwt beam="1">  1       -1 0.30277550E-02 0.17163744E+03</pdfrwt>
<totfact> 0.34951208E+03</totfact>
</mgrwt>
</event>
<event>
 7    1  0.1446636E-005  0.2308688E+03  0.7546771E-02  0.1129141E+00
          2   -1    0    0  501    0  0.00000000000E+00  0.00000000000E+00  0.29038042404E+03  0.29038042404E+03  0.00000000000E+00 0. -1.
         -2   -1    0    0    0  501 -0.00000000000E+00 -0.00000000000E+00 -0.19043562864E+03  0.19043562864E+03  0.00000000000E+00 0.  1.
         23    2    1    2    0    0  0.17247694423E+03  0.89036786464E+02 -0.29968210660E+02  0.21590516709E+03  0.89672191303E+02 0.  0.
          5    1    1    2  502    0  0.15359976549E+02 -0.14043108472E+02 -0.47807156895E+01  0.21865109596E+02  0.47000000000E+01 0. -1.
         -5    1    1    2    0  502 -0.18783692078E+03 -0.74993677992E+02  0.13469372175E+03  0.24304577599E+03  0.47000000000E+01 0. -1.
        -11    1    3    3    0    0  0.77850959467E+02 -0.78303639723E+01 -0.14954434121E+02  0.79660037595E+02  0.00000000000E+00 0. -1.
         11    1    3    3    0    0  0.94625984759E+02  0.96867150436E+02 -0.15013776539E+02  0.13624512950E+03  0.00000000000E+00 0.  1.
<mgrwt>
<rscale>  0 0.22648192E+03</rscale>
<asrwt>0</asrwt>
<pdfrwt beam="1">  1        2 0.44673912E-01 0.23086877E+03</pdfrwt>
<pdfrwt beam="2">  1       -2 0.29297789E-01 0.23086877E+03</pdfrwt>
<totfact> 0.12068870E+03</totfact>
</mgrwt>
</event>
<event>
 7    1  0.1446636E-005  0.1463414E+03  0.7546771E-02  0.1215371E+00
         -1   -1    0    0    0  501 -0.00000000000E+00  0.00000000000E+00  0.87564953728E+03  0.87564953728E+03  0.00000000000E+00 0.  1.
          1   -1    0    0  501    0  0.00000000000E+00 -0.00000000000E+00 -0.21023994781E+02  0.21023994781E+02  0.00000000000E+00 0. -1.
         23    2    1    2    0    0 -0.69679831753E+02 -0.30599913498E+02  0.27797034858E+03  0.30173906218E+03  0.89371770124E+02 0.  0.
          5    1    1    2  502    0  0.85656635843E+02 -0.15738039790E+02  0.46188629719E+03  0.47004870672E+03  0.47000000000E+01 0. -1.
         -5    1    1    2    0  502 -0.15976804090E+02  0.46337953288E+02  0.11476889673E+03  0.12488576316E+03  0.47000000000E+01 0. -1.
        -11    1    3    3    0    0 -0.73317746900E+02 -0.54762656625E+02  0.23674557825E+03  0.25381668462E+03  0.00000000000E+00 0.  1.
         11    1    3    3    0    0  0.36379151467E+01  0.24162743126E+02  0.41224770336E+02  0.47922377563E+02  0.00000000000E+00 0. -1.
<mgrwt>
<rscale>  0 0.13849288E+03</rscale>
<asrwt>0</asrwt>
<pdfrwt beam="2">  1        1 0.32344614E-02 0.14634142E+03</pdfrwt>
<pdfrwt beam="1">  1       -1 0.13471529E+00 0.14634142E+03</pdfrwt>
<totfact> 0.14939576E+03</totfact>
</mgrwt>
</event>
<event>
 7    1  0.1446636E-005  0.1286572E+03  0.7546771E-02  0.1242911E+00
         -1   -1    0    0    0  501 -0.00000000000E+00  0.00000000000E+00  0.20904049074E+03  0.20904049074E+03  0.00000000000E+00 0.  1.
          1   -1    0    0  501    0  0.00000000000E+00 -0.00000000000E+00 -0.85288817532E+02  0.85288817532E+02  0.00000000000E+00 0. -1.
         23    2    1    2    0    0 -0.28591387530E+02 -0.10473562183E+02 -0.21725702698E+02  0.10012235165E+03  0.92872580436E+02 0.  0.
          5    1    1    2  502    0 -0.38795798983E+02 -0.22676072476E+02  0.23604420418E+02  0.50976239024E+02  0.47000000000E+01 0.  1.
         -5    1    1    2    0  502  0.67387186513E+02  0.33149634660E+02  0.12187295549E+03  0.14323071760E+03  0.47000000000E+01 0.  1.
        -11    1    3    3    0    0 -0.44192524809E+02 -0.25928736836E+02 -0.44949640203E+02  0.68159730026E+02  0.00000000000E+00 0. -1.
         11    1    3    3    0    0  0.15601137279E+02  0.15455174652E+02  0.23223937505E+02  0.31962621626E+02  0.00000000000E+00 0.  1.
<mgrwt>
<rscale>  0 0.12011302E+03</rscale>
<asrwt>0</asrwt>
<pdfrwt beam="2">  1        1 0.13121357E-01 0.12865720E+03</pdfrwt>
<pdfrwt beam="1">  1       -1 0.32160075E-01 0.12865720E+03</pdfrwt>
<totfact> 0.38592699E+03</totfact>
</mgrwt>
</event>
<event>
 7    1  0.1446636E-005  0.1467284E+03  0.7546771E-02  0.1214818E+00
          2   -1    0    0  501    0  0.00000000000E+00  0.00000000000E+00  0.34832910347E+03  0.34832910347E+03  0.00000000000E+00 0. -1.
         -2   -1    0    0    0  501 -0.00000000000E+00 -0.00000000000E+00 -0.51888701605E+02  0.51888701605E+02  0.00000000000E+00 0.  1.
         23    2    1    2    0    0  0.89416032433E+01 -0.76329402280E+02  0.97009519832E+02  0.15262557289E+03  0.89317347924E+02 0.  0.
          5    1    1    2  502    0 -0.95900070213E+00  0.77974850740E+02  0.21536019014E+03  0.22909189974E+03  0.47000000000E+01 0.  1.
         -5    1    1    2    0  502 -0.79826025412E+01 -0.16454484594E+01 -0.15929308105E+02  0.18500332447E+02  0.47000000000E+01 0.  1.
        -11    1    3    3    0    0 -0.23335590220E+01 -0.53635396710E+02  0.13888583409E+01  0.53704098591E+02  0.00000000000E+00 0.  1.
         11    1    3    3    0    0  0.11275162265E+02 -0.22694005570E+02  0.95620661492E+02  0.98921474297E+02  0.00000000000E+00 0. -1.
<mgrwt>
<rscale>  0 0.13889895E+03</rscale>
<asrwt>0</asrwt>
<pdfrwt beam="1">  1        2 0.53589091E-01 0.14672845E+03</pdfrwt>
<pdfrwt beam="2">  1       -2 0.79828774E-02 0.14672845E+03</pdfrwt>
<totfact> 0.84243035E+03</totfact>
</mgrwt>
</event>
<event>
 7    1  0.1446636E-005  0.1313464E+03  0.7546771E-02  0.1239322E+00
          2   -1    0    0  501    0  0.00000000000E+00  0.00000000000E+00  0.17609543619E+03  0.17609543619E+03  0.00000000000E+00 0. -1.
         -2   -1    0    0    0  501 -0.00000000000E+00 -0.00000000000E+00 -0.10587116649E+03  0.10587116649E+03  0.00000000000E+00 0.  1.
         23    2    1    2    0    0 -0.95411704149E+01  0.39178124855E+02  0.10693921970E+03  0.14558530526E+03  0.90183839994E+02 0.  0.
          5    1    1    2  502    0 -0.44967637650E+01  0.23780731329E+02  0.33060729535E+02  0.41241313076E+02  0.47000000000E+01 0.  1.
         -5    1    1    2    0  502  0.14037934180E+02 -0.62958856183E+02 -0.69775679531E+02  0.95139984349E+02  0.47000000000E+01 0.  1.
        -11    1    3    3    0    0 -0.12413121580E+02 -0.11645085623E+02  0.90508518762E+02  0.92094981270E+02  0.00000000000E+00 0. -1.
         11    1    3    3    0    0  0.28719511647E+01  0.50823210478E+02  0.16430700939E+02  0.53490323986E+02  0.00000000000E+00 0.  1.
<mgrwt>
<rscale>  0 0.12231781E+03</rscale>
<asrwt>0</asrwt>
<pdfrwt beam="1">  1        2 0.27091605E-01 0.13134638E+03</pdfrwt>
<pdfrwt beam="2">  1       -2 0.16287872E-01 0.13134638E+03</pdfrwt>
<totfact> 0.55744934E+03</totfact>
</mgrwt>
</event>
<event>
 7    1  0.1446636E-005  0.1690314E+03  0.7546771E-02  0.1185403E+00
          1   -1    0    0  501    0  0.00000000000E+00  0.00000000000E+00  0.94659132814E+03  0.94659132814E+03  0.00000000000E+00 0. -1.
         -1   -1    0    0    0  501 -0.00000000000E+00 -0.00000000000E+00 -0.26295471617E+02  0.26295471617E+02  0.00000000000E+00 0.  1.
         23    2    1    2    0    0  0.55166652055E+02 -0.99510452187E+02  0.45419484768E+03  0.47708262961E+03  0.91483256534E+02 0.  0.
          5    1    1    2  502    0 -0.26408309708E+02  0.85244744947E+02  0.12776899275E+03  0.15592007847E+03  0.47000000000E+01 0. -1.
         -5    1    1    2    0  502 -0.28758342347E+02  0.14265707240E+02  0.33833201610E+03  0.33988409167E+03  0.47000000000E+01 0. -1.
        -11    1    3    3    0    0  0.54452659854E+02 -0.31536652247E+02  0.11448951363E+03  0.13064264745E+03  0.00000000000E+00 0.  1.
         11    1    3    3    0    0  0.71399220078E+00 -0.67973799940E+02  0.33970533405E+03  0.34643998217E+03  0.00000000000E+00 0. -1.
<mgrwt>
<rscale>  0 0.16295247E+03</rscale>
<asrwt>0</asrwt>
<pdfrwt beam="1">  1        1 0.14562941E+00 0.16903143E+03</pdfrwt>
<pdfrwt beam="2">  1       -1 0.40454579E-02 0.16903143E+03</pdfrwt>
<totfact> 0.41848945E+03</totfact>
</mgrwt>
</event>
<event>
 7    1  0.1446636E-005  0.1389832E+03  0.7546771E-02  0.1226158E+00
          2   -1    0    0  501    0  0.00000000000E+00  0.00000000000E+00  0.78661809644E+03  0.78661809644E+03  0.00000000000E+00 0. -1.
         -2   -1    0    0    0  501 -0.00000000000E+00 -0.00000000000E+00 -0.25092327104E+02  0.25092327104E+02  0.00000000000E+00 0.  1.
         23    2    1    2    0    0  0.23916925393E+02 -0.55839335089E+02  0.53419648182E+03  0.54526167422E+03  0.90853516797E+02 0.  0.
          5    1    1    2  502    0  0.46887179275E+02  0.18687097189E+02  0.46987491772E+02  0.69119675670E+02  0.47000000000E+01 0. -1.
         -5    1    1    2    0  502 -0.70804104668E+02  0.37152237900E+02  0.18034179574E+03  0.19732907366E+03  0.47000000000E+01 0. -1.
        -11    1    3    3    0    0 -0.32998631701E+02 -0.35639943196E+02  0.21736862579E+03  0.22272906125E+03  0.00000000000E+00 0. -1.
         11    1    3    3    0    0  0.56915557094E+02 -0.20199391892E+02  0.31682785603E+03  0.32253261297E+03  0.00000000000E+00 0.  1.
<mgrwt>
<rscale>  0 0.13087821E+03</rscale>
<asrwt>0</asrwt>
<pdfrwt beam="1">  1        2 0.12101815E+00 0.13898320E+03</pdfrwt>
<pdfrwt beam="2">  1       -2 0.38603586E-02 0.13898320E+03</pdfrwt>
<totfact> 0.10101771E+04</totfact>
</mgrwt>
</event>
<event>
 7    1  0.1446636E-005  0.1660574E+03  0.7546771E-02  0.1188694E+00
          4   -1    0    0  501    0  0.00000000000E+00  0.00000000000E+00  0.14692607084E+03  0.14692607084E+03  0.00000000000E+00 0. -1.
         -4   -1    0    0    0  501 -0.00000000000E+00 -0.00000000000E+00 -0.20730878663E+03  0.20730878663E+03  0.00000000000E+00 0.  1.
         23    2    1    2    0    0 -0.10702987484E+03  0.22285152271E+02  0.53583045981E+02  0.15283168033E+03  0.92381586778E+02 0.  0.
          5    1    1    2  502    0  0.11263484122E+03  0.14054713468E+02 -0.11837905381E+03  0.16407264491E+03  0.47000000000E+01 0. -1.
         -5    1    1    2    0  502 -0.56049663853E+01 -0.36339865740E+02  0.44132920361E+01  0.37330532232E+02  0.47000000000E+01 0. -1.
        -11    1    3    3    0    0 -0.39518970612E+02  0.51061424644E+02  0.48772382185E+01  0.64751877019E+02  0.00000000000E+00 0.  1.
         11    1    3    3    0    0 -0.67510904225E+02 -0.28776272372E+02  0.48705807762E+02  0.88079803307E+02  0.00000000000E+00 0. -1.
<mgrwt>
<rscale>  0 0.16000249E+03</rscale>
<asrwt>0</asrwt>
<pdfrwt beam="1">  1        4 0.22604011E-01 0.16605735E+03</pdfrwt>
<pdfrwt beam="2">  1       -4 0.31893659E-01 0.16605735E+03</pdfrwt>
<totfact> 0.29453270E+02</totfact>
</mgrwt>
</event>
<event>
 7    1  0.1446636E-005  0.1688704E+03  0.7546771E-02  0.1185524E+00
         -2   -1    0    0    0  501 -0.00000000000E+00  0.00000000000E+00  0.32903918669E+03  0.32903918669E+03  0.00000000000E+00 0.  1.
          2   -1    0    0  501    0  0.00000000000E+00 -0.00000000000E+00 -0.80389280724E+02  0.80389280724E+02  0.00000000000E+00 0. -1.
         23    2    1    2    0    0  0.19978133359E+02 -0.11177276579E+03  0.64677508212E+02  0.15970252015E+03  0.91811970296E+02 0.  0.
          5    1    1    2  502    0  0.23959323845E+02  0.21738836114E+02  0.13350837851E+03  0.13745254936E+03  0.47000000000E+01 0. -1.
         -5    1    1    2    0  502 -0.43937457204E+02  0.90033929673E+02  0.50464019249E+02  0.11227339790E+03  0.47000000000E+01 0. -1.
        -11    1    3    3    0    0 -0.45160489666E+01 -0.42916744349E+02  0.74366278091E+02  0.85980142829E+02  0.00000000000E+00 0.  1.
         11    1    3    3    0    0  0.24494182325E+02 -0.68856021438E+02 -0.96887698792E+01  0.73722377321E+02  0.00000000000E+00 0. -1.
<mgrwt>
<rscale>  0 0.16284254E+03</rscale>
<asrwt>0</asrwt>
<pdfrwt beam="2">  1        2 0.12367582E-01 0.16887038E+03</pdfrwt>
<pdfrwt beam="1">  1       -2 0.50621412E-01 0.16887038E+03</pdfrwt>
<totfact> 0.18063149E+03</totfact>
</mgrwt>
</event>
<event>
 7    1  0.1446636E-005  0.1547047E+03  0.7546771E-02  0.1202412E+00
          2   -1    0    0  501    0  0.00000000000E+00  0.00000000000E+00  0.28159937602E+03  0.28159937602E+03  0.00000000000E+00 0. -1.
         -2   -1    0    0    0  501 -0.00000000000E+00 -0.00000000000E+00 -0.72623129701E+02  0.72623129701E+02  0.00000000000E+00 0.  1.
         23    2    1    2    0    0 -0.90386168835E+02 -0.11774065204E+02  0.89216849191E+02  0.15858031901E+03  0.94232601943E+02 0.  0.
          5    1    1    2  502    0  0.99533378075E+02  0.23541923236E+01  0.28982622420E+02  0.10380037560E+03  0.47000000000E+01 0.  1.
         -5    1    1    2    0  502 -0.91472092402E+01  0.94198728803E+01  0.90776774711E+02  0.91841811115E+02  0.47000000000E+01 0.  1.
        -11    1    3    3    0    0 -0.39725296018E+01  0.10806952796E+02  0.65039117655E+02  0.66050420479E+02  0.00000000000E+00 0. -1.
         11    1    3    3    0    0 -0.86413639233E+02 -0.22581018000E+02  0.24177731536E+02  0.92529898528E+02  0.00000000000E+00 0.  1.
<mgrwt>
<rscale>  0 0.14843321E+03</rscale>
<asrwt>0</asrwt>
<pdfrwt beam="1">  1        2 0.43322980E-01 0.15470473E+03</pdfrwt>
<pdfrwt beam="2">  1       -2 0.11172789E-01 0.15470473E+03</pdfrwt>
<totfact> 0.62558549E+03</totfact>
</mgrwt>
</event>
<event>
 7    1  0.1446636E-005  0.2554366E+03  0.7546771E-02  0.1112520E+00
         -2   -1    0    0    0  501 -0.00000000000E+00  0.00000000000E+00  0.29332075054E+03  0.29332075054E+03  0.00000000000E+00 0.  1.
          2   -1    0    0  501    0  0.00000000000E+00 -0.00000000000E+00 -0.28937183697E+03  0.28937183697E+03  0.00000000000E+00 0. -1.
         23    2    1    2    0    0  0.22056945071E+03  0.20148846580E+01 -0.15209870501E+03  0.28336213185E+03  0.92223312435E+02 0.  0.
          5    1    1    2  502    0 -0.17485795871E+03 -0.25633131850E+02  0.53839723836E+02  0.18480576029E+03  0.47000000000E+01 0. -1.
         -5    1    1    2    0  502 -0.45711492002E+02  0.23618247192E+02  0.10220789475E+03  0.11452469537E+03  0.47000000000E+01 0.  1.
        -11    1    3    3    0    0  0.15621890124E+03 -0.86193008319E+01 -0.53908548996E+02  0.16548344058E+03  0.00000000000E+00 0. -1.
         11    1    3    3    0    0  0.64350549466E+02  0.10634185490E+02 -0.98190156012E+02  0.11787869127E+03  0.00000000000E+00 0.  1.
<mgrwt>
<rscale>  0 0.25124589E+03</rscale>
<asrwt>0</asrwt>
<pdfrwt beam="2">  1        2 0.44518744E-01 0.25543661E+03</pdfrwt>
<pdfrwt beam="1">  1       -2 0.45126270E-01 0.25543661E+03</pdfrwt>
<totfact> 0.53777579E+02</totfact>
</mgrwt>
</event>
<event>
 7    1  0.1446636E-005  0.1431235E+03  0.7546771E-02  0.1223056E+00
          2   -1    0    0  501    0  0.00000000000E+00  0.00000000000E+00  0.70731779745E+02  0.70731779745E+02  0.00000000000E+00 0. -1.
         -2   -1    0    0    0  501 -0.00000000000E+00 -0.00000000000E+00 -0.23662335703E+03  0.23662335703E+03  0.00000000000E+00 0.  1.
         23    2    1    2    0    0  0.40320116123E+02  0.56861495852E+02 -0.32216453520E+02  0.11151492686E+03  0.80862460757E+02 0.  0.
          5    1    1    2  502    0 -0.13093446745E+01 -0.89904608565E+02 -0.99372157979E+02  0.13409499918E+03  0.47000000000E+01 0.  1.
         -5    1    1    2    0  502 -0.39010771449E+02  0.33043112713E+02 -0.34302965785E+02  0.61745210733E+02  0.47000000000E+01 0.  1.
        -11    1    3    3    0    0  0.40413194488E+02  0.41307727651E+01 -0.41386720105E+02  0.57992673446E+02  0.00000000000E+00 0.  1.
         11    1    3    3    0    0 -0.93078364928E-01  0.52730723087E+02  0.91702665851E+01  0.53522253410E+02  0.00000000000E+00 0. -1.
<mgrwt>
<rscale>  0 0.13301033E+03</rscale>
<asrwt>0</asrwt>
<pdfrwt beam="1">  1        2 0.10881812E-01 0.14312354E+03</pdfrwt>
<pdfrwt beam="2">  1       -2 0.36403594E-01 0.14312354E+03</pdfrwt>
<totfact> 0.39432074E+03</totfact>
</mgrwt>
</event>
<event>
 7    1  0.1446636E-005  0.1560550E+03  0.7546771E-02  0.1201316E+00
         -1   -1    0    0    0  501 -0.00000000000E+00  0.00000000000E+00  0.15014792942E+03  0.15014792942E+03  0.00000000000E+00 0.  1.
          1   -1    0    0  501    0  0.00000000000E+00 -0.00000000000E+00 -0.16849532065E+03  0.16849532065E+03  0.00000000000E+00 0. -1.
         23    2    1    2    0    0 -0.29185110068E+02 -0.88751199233E+02 -0.77176231487E+02  0.15186798316E+03  0.91537793221E+02 0.  0.
          5    1    1    2  502    0  0.17156462924E+02  0.89043081184E+02 -0.14818403559E+02  0.92003747808E+02  0.47000000000E+01 0. -1.
         -5    1    1    2    0  502  0.12028647144E+02 -0.29188195072E+00  0.73647243812E+02  0.74771519098E+02  0.47000000000E+01 0. -1.
        -11    1    3    3    0    0  0.12417487240E+02 -0.19530580230E+02  0.16321438454E+02  0.28320079567E+02  0.00000000000E+00 0.  1.
         11    1    3    3    0    0 -0.41602597307E+02 -0.69220619003E+02 -0.93497669941E+02  0.12354790359E+03  0.00000000000E+00 0. -1.
<mgrwt>
<rscale>  0 0.14931630E+03</rscale>
<asrwt>0</asrwt>
<pdfrwt beam="2">  1        1 0.25922357E-01 0.15605498E+03</pdfrwt>
<pdfrwt beam="1">  1       -1 0.23099682E-01 0.15605498E+03</pdfrwt>
<totfact> 0.28268816E+03</totfact>
</mgrwt>
</event>
<event>
 7    1  0.1446636E-005  0.1667885E+03  0.7546771E-02  0.1189037E+00
         -2   -1    0    0    0  501 -0.00000000000E+00  0.00000000000E+00  0.10020820259E+03  0.10020820259E+03  0.00000000000E+00 0. -1.
          2   -1    0    0  501    0  0.00000000000E+00 -0.00000000000E+00 -0.31469418525E+03  0.31469418525E+03  0.00000000000E+00 0.  1.
         23    2    1    2    0    0  0.90250005308E+02  0.63607965207E+02 -0.20434144587E+03  0.24780566752E+03  0.86378154976E+02 0.  0.
          5    1    1    2  502    0 -0.90711201206E+02 -0.77536830945E+02 -0.46282387358E+02  0.12808056666E+03  0.47000000000E+01 0.  1.
         -5    1    1    2    0  502  0.46119589801E+00  0.13928865738E+02  0.36137850567E+02  0.39016153655E+02  0.47000000000E+01 0.  1.
        -11    1    3    3    0    0  0.39330726572E+01  0.19897042008E+02  0.15220815139E+01  0.20339077494E+02  0.00000000000E+00 0. -1.
         11    1    3    3    0    0  0.86316932651E+02  0.43710923199E+02 -0.20586352738E+03  0.22746659002E+03  0.00000000000E+00 0.  1.
<mgrwt>
<rscale>  0 0.15969857E+03</rscale>
<asrwt>0</asrwt>
<pdfrwt beam="2">  1        2 0.48414489E-01 0.16678850E+03</pdfrwt>
<pdfrwt beam="1">  1       -2 0.15416647E-01 0.16678850E+03</pdfrwt>
<totfact> 0.33139008E+03</totfact>
</mgrwt>
</event>
<event>
 7    1  0.1446636E-005  0.1323961E+03  0.7546771E-02  0.1236452E+00
          1   -1    0    0  501    0  0.00000000000E+00  0.00000000000E+00  0.11423982327E+03  0.11423982327E+03  0.00000000000E+00 0. -1.
         -1   -1    0    0    0  501 -0.00000000000E+00 -0.00000000000E+00 -0.19377011761E+03  0.19377011761E+03  0.00000000000E+00 0.  1.
         23    2    1    2    0    0  0.94276325837E+01  0.42608353208E+02  0.57620469820E+02  0.11738188580E+03  0.92488034647E+02 0.  0.
          5    1    1    2  502    0  0.44996320074E+02  0.19473038393E+02 -0.58902326274E+02  0.76781782247E+02  0.47000000000E+01 0.  1.
         -5    1    1    2    0  502 -0.54423952657E+02 -0.62081391601E+02 -0.78248437888E+02  0.11384627283E+03  0.47000000000E+01 0.  1.
        -11    1    3    3    0    0 -0.72748522924E+01  0.36103591614E+02 -0.17054144747E+02  0.40586163361E+02  0.00000000000E+00 0.  1.
         11    1    3    3    0    0  0.16702484876E+02  0.65047615943E+01  0.74674614567E+02  0.76795722441E+02  0.00000000000E+00 0. -1.
<mgrwt>
<rscale>  0 0.12411934E+03</rscale>
<asrwt>0</asrwt>
<pdfrwt beam="1">  1        1 0.17575358E-01 0.13239608E+03</pdfrwt>
<pdfrwt beam="2">  1       -1 0.29810787E-01 0.13239608E+03</pdfrwt>
<totfact> 0.30112988E+03</totfact>
</mgrwt>
</event>
<event>
 7    1  0.1446636E-005  0.1686221E+03  0.7546771E-02  0.1185653E+00
          1   -1    0    0  501    0  0.00000000000E+00  0.00000000000E+00  0.49518439478E+02  0.49518439478E+02  0.00000000000E+00 0. -1.
         -1   -1    0    0    0  501 -0.00000000000E+00 -0.00000000000E+00 -0.10368470982E+04  0.10368470982E+04  0.00000000000E+00 0.  1.
         23    2    1    2    0    0  0.23645873857E+01 -0.11317021255E+03 -0.86547075219E+02  0.16993721734E+03  0.92602231759E+02 0.  0.
          5    1    1    2  502    0 -0.61420880252E+02  0.36535517482E+02 -0.36469756223E+03  0.37166351781E+03  0.47000000000E+01 0.  1.
         -5    1    1    2    0  502  0.59056292866E+02  0.76634695068E+02 -0.53608402122E+03  0.54476480248E+03  0.47000000000E+01 0.  1.
        -11    1    3    3    0    0 -0.12884194807E+02 -0.98978598017E+02 -0.22132334904E+02  0.10223798506E+03  0.00000000000E+00 0. -1.
         11    1    3    3    0    0  0.15248782192E+02 -0.14191614532E+02 -0.64414740315E+02  0.67699232280E+02  0.00000000000E+00 0.  1.
<mgrwt>
<rscale>  0 0.16272631E+03</rscale>
<asrwt>0</asrwt>
<pdfrwt beam="1">  1        1 0.76182212E-02 0.16862208E+03</pdfrwt>
<pdfrwt beam="2">  1       -1 0.15951494E+00 0.16862208E+03</pdfrwt>
<totfact> 0.29949836E+02</totfact>
</mgrwt>
</event>
<event>
 7    1  0.1446636E-005  0.1614653E+03  0.7546771E-02  0.1194900E+00
          2   -1    0    0  501    0  0.00000000000E+00  0.00000000000E+00  0.38212125758E+02  0.38212125758E+02  0.00000000000E+00 0. -1.
         -2   -1    0    0    0  501 -0.00000000000E+00 -0.00000000000E+00 -0.58696868168E+03  0.58696868168E+03  0.00000000000E+00 0.  1.
         23    2    1    2    0    0 -0.87938041241E+02  0.52085777433E+02 -0.21283064240E+03  0.25246474394E+03  0.89417768237E+02 0.  0.
          5    1    1    2  502    0  0.40996959321E+02  0.28667749901E+02 -0.20959747218E+03  0.21553603157E+03  0.47000000000E+01 0.  1.
         -5    1    1    2    0  502  0.46941081920E+02 -0.80753527334E+02 -0.12632844133E+03  0.15718003193E+03  0.47000000000E+01 0.  1.
        -11    1    3    3    0    0 -0.26207718999E+02  0.49389758822E+02 -0.39520729536E+02  0.68469561665E+02  0.00000000000E+00 0. -1.
         11    1    3    3    0    0 -0.61730322243E+02  0.26960186113E+01 -0.17330991287E+03  0.18399518227E+03  0.00000000000E+00 0.  1.
<mgrwt>
<rscale>  0 0.15462657E+03</rscale>
<asrwt>0</asrwt>
<pdfrwt beam="1">  1        2 0.58787893E-02 0.16146530E+03</pdfrwt>
<pdfrwt beam="2">  1       -2 0.90302863E-01 0.16146530E+03</pdfrwt>
<totfact> 0.13440719E+03</totfact>
</mgrwt>
</event>
<event>
 7    1  0.1446636E-005  0.3157335E+03  0.7546771E-02  0.1077630E+00
         -1   -1    0    0    0  501 -0.00000000000E+00  0.00000000000E+00  0.15400387405E+03  0.15400387405E+03  0.00000000000E+00 0.  1.
          1   -1    0    0  501    0  0.00000000000E+00 -0.00000000000E+00 -0.16182648023E+03  0.16182648023E+03  0.00000000000E+00 0. -1.
         23    2    1    2    0    0  0.44605350063E+02  0.74316626400E+02 -0.30585139364E+02  0.13070863172E+03  0.92933833681E+02 0.  0.
          5    1    1    2  502    0  0.33741102810E+02  0.35166636856E+02  0.42571404363E+01  0.49146389606E+02  0.47000000000E+01 0. -1.
         -5    1    1    2    0  502 -0.78346452873E+02 -0.10948326326E+03  0.18505392755E+02  0.13597533295E+03  0.47000000000E+01 0.  1.
        -11    1    3    3    0    0 -0.15990527149E+02  0.11723529749E+02  0.21467786479E+02  0.29223346225E+02  0.00000000000E+00 0.  1.
         11    1    3    3    0    0  0.60595877212E+02  0.62593096651E+02 -0.52052925843E+02  0.10148528550E+03  0.00000000000E+00 0. -1.
<mgrwt>
<rscale>  0 0.31573346E+03</rscale>
<asrwt>0</asrwt>
<pdfrwt beam="2">  1        1 0.24896381E-01 0.31573346E+03</pdfrwt>
<pdfrwt beam="1">  1       -1 0.23692904E-01 0.31573346E+03</pdfrwt>
<totfact> 0.29308433E+03</totfact>
</mgrwt>
</event>
<event>
 7    1  0.1446636E-005  0.1812214E+03  0.7546771E-02  0.1197134E+00
         -1   -1    0    0    0  501 -0.00000000000E+00  0.00000000000E+00  0.50145521941E+02  0.50145521941E+02  0.00000000000E+00 0.  1.
          1   -1    0    0  501    0  0.00000000000E+00 -0.00000000000E+00 -0.47411179915E+03  0.47411179915E+03  0.00000000000E+00 0. -1.
         23    2    1    2    0    0  0.31770785233E+00  0.38066704134E+02 -0.27453275885E+03  0.28937099248E+03  0.83175481400E+02 0.  0.
          5    1    1    2  502    0 -0.59091538445E+02  0.47650265617E+02 -0.76178804322E+02  0.10764598440E+03  0.47000000000E+01 0. -1.
         -5    1    1    2    0  502  0.58773830593E+02 -0.85716969751E+02 -0.73254714034E+02  0.12724034421E+03  0.47000000000E+01 0.  1.
        -11    1    3    3    0    0 -0.67890811958E+01 -0.21766917750E+02 -0.30923620414E+02  0.38420835901E+02  0.00000000000E+00 0.  1.
         11    1    3    3    0    0  0.71067890481E+01  0.59833621884E+02 -0.24360913844E+03  0.25095015658E+03  0.00000000000E+00 0. -1.
<mgrwt>
<rscale>  0 0.15274978E+03</rscale>
<asrwt>0</asrwt>
<pdfrwt beam="2">  1        1 0.72940275E-01 0.18122144E+03</pdfrwt>
<pdfrwt beam="1">  1       -1 0.77146958E-02 0.18122144E+03</pdfrwt>
<totfact> 0.43228382E+03</totfact>
</mgrwt>
</event>
<event>
 7    1  0.1446636E-005  0.1492758E+03  0.7546771E-02  0.1210597E+00
          2   -1    0    0  501    0  0.00000000000E+00  0.00000000000E+00  0.70726500136E+03  0.70726500136E+03  0.00000000000E+00 0. -1.
         -2   -1    0    0    0  501 -0.00000000000E+00 -0.00000000000E+00 -0.26207697828E+02  0.26207697828E+02  0.00000000000E+00 0.  1.
         23    2    1    2    0    0 -0.28841449116E+02 -0.76295019465E+02  0.33148478804E+03  0.35336192174E+03  0.91267320828E+02 0.  0.
          5    1    1    2  502    0 -0.37325154050E+02  0.28896585660E+02  0.47117689546E+02  0.66860649532E+02  0.47000000000E+01 0. -1.
         -5    1    1    2    0  502  0.66166603167E+02  0.47398433805E+02  0.30245482595E+03  0.31325012792E+03  0.47000000000E+01 0. -1.
        -11    1    3    3    0    0 -0.43756911595E+02 -0.19057555896E+01  0.87444481136E+02  0.97799982096E+02  0.00000000000E+00 0. -1.
         11    1    3    3    0    0  0.14915462479E+02 -0.74389263876E+02  0.24404030690E+03  0.25556193964E+03  0.00000000000E+00 0.  1.
<mgrwt>
<rscale>  0 0.14204959E+03</rscale>
<asrwt>0</asrwt>
<pdfrwt beam="1">  1        2 0.10880999E+00 0.14927578E+03</pdfrwt>
<pdfrwt beam="2">  1       -2 0.40319540E-02 0.14927578E+03</pdfrwt>
<totfact> 0.10823068E+04</totfact>
</mgrwt>
</event>
<event>
 7    1  0.1446636E-005  0.1272280E+03  0.7546771E-02  0.1246907E+00
          4   -1    0    0  501    0  0.00000000000E+00  0.00000000000E+00  0.33354620325E+03  0.33354620325E+03  0.00000000000E+00 0.  1.
         -4   -1    0    0    0  501 -0.00000000000E+00 -0.00000000000E+00 -0.39097044324E+02  0.39097044324E+02  0.00000000000E+00 0. -1.
         23    2    1    2    0    0  0.21519207100E+02 -0.10019143498E+02  0.17415960268E+03  0.19755317312E+03  0.90178874991E+02 0.  0.
          5    1    1    2  502    0  0.14521425185E+02  0.54872504020E+02  0.21913877866E+02  0.61025990610E+02  0.47000000000E+01 0. -1.
         -5    1    1    2    0  502 -0.36040632285E+02 -0.44853360522E+02  0.98375678385E+02  0.11406408384E+03  0.47000000000E+01 0. -1.
        -11    1    3    3    0    0  0.20806617463E+02 -0.22478613638E+02  0.18082775482E+03  0.18340359951E+03  0.00000000000E+00 0.  1.
         11    1    3    3    0    0  0.71258963676E+00  0.12459470140E+02 -0.66681521453E+01  0.14149573605E+02  0.00000000000E+00 0. -1.
<mgrwt>
<rscale>  0 0.11771992E+03</rscale>
<asrwt>0</asrwt>
<pdfrwt beam="1">  1        4 0.51314799E-01 0.12722797E+03</pdfrwt>
<pdfrwt beam="2">  1       -4 0.60149301E-02 0.12722797E+03</pdfrwt>
<totfact> 0.10591154E+03</totfact>
</mgrwt>
</event>
<event>
 7    1  0.1446636E-005  0.1260681E+03  0.7546771E-02  0.1248462E+00
          1   -1    0    0  501    0  0.00000000000E+00  0.00000000000E+00  0.28990462249E+02  0.28990462249E+02  0.00000000000E+00 0. -1.
         -1   -1    0    0    0  501 -0.00000000000E+00 -0.00000000000E+00 -0.44949456370E+03  0.44949456370E+03  0.00000000000E+00 0.  1.
         23    2    1    2    0    0  0.14360821084E+02  0.78220495719E+01 -0.11396866719E+03  0.14703797132E+03  0.91454306991E+02 0.  0.
          5    1    1    2  502    0 -0.46366822990E+01 -0.37778113509E+02 -0.20197935989E+02  0.43344334131E+02  0.47000000000E+01 0.  1.
         -5    1    1    2    0  502 -0.97241387847E+01  0.29956063937E+02 -0.28633749828E+03  0.28810272050E+03  0.47000000000E+01 0.  1.
        -11    1    3    3    0    0  0.10426366040E+02  0.45531146909E+02 -0.31692684716E+02  0.56446618253E+02  0.00000000000E+00 0. -1.
         11    1    3    3    0    0  0.39344550436E+01 -0.37709097338E+02 -0.82275982472E+02  0.90591353065E+02  0.00000000000E+00 0.  1.
<mgrwt>
<rscale>  0 0.11680558E+03</rscale>
<asrwt>0</asrwt>
<pdfrwt beam="1">  1        1 0.44600710E-02 0.12606815E+03</pdfrwt>
<pdfrwt beam="2">  1       -1 0.69153012E-01 0.12606815E+03</pdfrwt>
<totfact> 0.40895149E+03</totfact>
</mgrwt>
</event>
<event>
 7    1  0.1446636E-005  0.1279105E+03  0.7546771E-02  0.1250493E+00
         -2   -1    0    0    0  501 -0.00000000000E+00  0.00000000000E+00  0.41819441435E+03  0.41819441435E+03  0.00000000000E+00 0.  1.
          2   -1    0    0  501    0  0.00000000000E+00 -0.00000000000E+00 -0.27343583695E+02  0.27343583695E+02  0.00000000000E+00 0. -1.
         23    2    1    2    0    0 -0.24745036326E+01 -0.27033264817E+02  0.14104609741E+03  0.16488962187E+03  0.80979412388E+02 0.  0.
          5    1    1    2  502    0  0.51098625147E+02  0.86544378852E+01  0.43444726808E+02  0.67790139950E+02  0.47000000000E+01 0. -1.
         -5    1    1    2    0  502 -0.48624121514E+02  0.18378826932E+02  0.20636000644E+03  0.21285823623E+03  0.47000000000E+01 0. -1.
        -11    1    3    3    0    0 -0.19312657828E+02 -0.50631812459E+02  0.72911229223E+02  0.90843857976E+02  0.00000000000E+00 0. -1.
         11    1    3    3    0    0  0.16838154195E+02  0.23598547642E+02  0.68134868188E+02  0.74045763893E+02  0.00000000000E+00 0.  1.
<mgrwt>
<rscale>  0 0.11562582E+03</rscale>
<asrwt>0</asrwt>
<pdfrwt beam="2">  1        2 0.42067055E-02 0.12791054E+03</pdfrwt>
<pdfrwt beam="1">  1       -2 0.64337597E-01 0.12791054E+03</pdfrwt>
<totfact> 0.42764441E+03</totfact>
</mgrwt>
</event>
<event>
 7    1  0.1446636E-005  0.1590905E+03  0.7546771E-02  0.1193919E+00
          1   -1    0    0  501    0  0.00000000000E+00  0.00000000000E+00  0.69782449778E+02  0.69782449778E+02  0.00000000000E+00 0. -1.
         -1   -1    0    0    0  501 -0.00000000000E+00 -0.00000000000E+00 -0.33428894990E+03  0.33428894990E+03  0.00000000000E+00 0.  1.
         23    2    1    2    0    0 -0.12047713677E+02  0.97671946396E+02 -0.14491935451E+03  0.20504662992E+03  0.10657178150E+03 0.  0.
          5    1    1    2  502    0  0.45187799348E+02  0.60593706142E+00 -0.71659222889E+01  0.45997226133E+02  0.47000000000E+01 0. -1.
         -5    1    1    2    0  502 -0.33140085671E+02 -0.98277883457E+02 -0.11242122332E+03  0.15302754362E+03  0.47000000000E+01 0. -1.
        -11    1    3    3    0    0  0.16315694661E+01  0.41785290886E+02  0.71794990405E+01  0.42428973118E+02  0.00000000000E+00 0. -1.
         11    1    3    3    0    0 -0.13679283143E+02  0.55886655510E+02 -0.15209885355E+03  0.16261765680E+03  0.00000000000E+00 0.  1.
<mgrwt>
<rscale>  0 0.15546057E+03</rscale>
<asrwt>0</asrwt>
<pdfrwt beam="1">  1        1 0.10735762E-01 0.15909046E+03</pdfrwt>
<pdfrwt beam="2">  1       -1 0.51429069E-01 0.15909046E+03</pdfrwt>
<totfact> 0.22201443E+03</totfact>
</mgrwt>
</event>
<event>
 7    1  0.1446636E-005  0.2314843E+03  0.7546771E-02  0.1125599E+00
          1   -1    0    0  501    0  0.00000000000E+00  0.00000000000E+00  0.57405906243E+03  0.57405906243E+03  0.00000000000E+00 0. -1.
         -1   -1    0    0    0  501 -0.00000000000E+00 -0.00000000000E+00 -0.23336006394E+02  0.23336006394E+02  0.00000000000E+00 0.  1.
         23    2    1    2    0    0 -0.14513446103E+02 -0.16717063393E+02  0.27602416289E+03  0.29478221958E+03  0.10107976134E+03 0.  0.
          5    1    1    2  502    0 -0.13920042570E+02 -0.51000885195E+02  0.10537543393E+03  0.11798699061E+03  0.47000000000E+01 0.  1.
         -5    1    1    2    0  502  0.28433488672E+02  0.67717948588E+02  0.16932345921E+03  0.18462585864E+03  0.47000000000E+01 0.  1.
        -11    1    3    3    0    0  0.26640962241E+01  0.38853384642E+02  0.63938996196E+02  0.74865734094E+02  0.00000000000E+00 0.  1.
         11    1    3    3    0    0 -0.17177542327E+02 -0.55570448035E+02  0.21208516669E+03  0.21991648548E+03  0.00000000000E+00 0. -1.
<mgrwt>
<rscale>  0 0.23148431E+03</rscale>
<asrwt>0</asrwt>
<pdfrwt beam="1">  1        1 0.88316768E-01 0.23148431E+03</pdfrwt>
<pdfrwt beam="2">  1       -1 0.35901553E-02 0.23148431E+03</pdfrwt>
<totfact> 0.10662717E+04</totfact>
</mgrwt>
</event>
<event>
 7    1  0.1446636E-005  0.1839510E+03  0.7546771E-02  0.1170678E+00
         -2   -1    0    0    0  501 -0.00000000000E+00  0.00000000000E+00  0.31540247804E+03  0.31540247804E+03  0.00000000000E+00 0.  1.
          2   -1    0    0  501    0  0.00000000000E+00 -0.00000000000E+00 -0.93687832619E+02  0.93687832619E+02  0.00000000000E+00 0. -1.
         23    2    1    2    0    0  0.12937469010E+03  0.38414058183E+02  0.80844352370E+02  0.17739566975E+03  0.81975386744E+02 0.  0.
          5    1    1    2  502    0 -0.85779810359E+02  0.26520922051E+02  0.27759854881E+02  0.94096943173E+02  0.47000000000E+01 0. -1.
         -5    1    1    2    0  502 -0.43594879744E+02 -0.64934980235E+02  0.11311043817E+03  0.13759769773E+03  0.47000000000E+01 0. -1.
        -11    1    3    3    0    0  0.11013666828E+03  0.71939346339E+01  0.86580375678E+02  0.14027829429E+03  0.00000000000E+00 0.  1.
         11    1    3    3    0    0  0.19238021820E+02  0.31220123550E+02 -0.57360233086E+01  0.37117375465E+02  0.00000000000E+00 0. -1.
<mgrwt>
<rscale>  0 0.17706157E+03</rscale>
<asrwt>0</asrwt>
<pdfrwt beam="2">  1        2 0.14413513E-01 0.18395099E+03</pdfrwt>
<pdfrwt beam="1">  1       -2 0.48523458E-01 0.18395099E+03</pdfrwt>
<totfact> 0.16415819E+03</totfact>
</mgrwt>
</event>
<event>
 7    1  0.1446636E-005  0.1621363E+03  0.7546771E-02  0.1193292E+00
          1   -1    0    0  501    0  0.00000000000E+00  0.00000000000E+00  0.59139024071E+02  0.59139024071E+02  0.00000000000E+00 0. -1.
         -1   -1    0    0    0  501 -0.00000000000E+00 -0.00000000000E+00 -0.49425834460E+03  0.49425834460E+03  0.00000000000E+00 0.  1.
         23    2    1    2    0    0 -0.11008063598E+01  0.10327362159E+03 -0.73700591079E+02  0.15727656700E+03  0.92938090750E+02 0.  0.
          5    1    1    2  502    0  0.25797570525E+02 -0.11078513676E+03 -0.18115921588E+03  0.21396170842E+03  0.47000000000E+01 0.  1.
         -5    1    1    2    0  502 -0.24696764166E+02  0.75115151705E+01 -0.18025951357E+03  0.18215909325E+03  0.47000000000E+01 0.  1.
        -11    1    3    3    0    0  0.89094235242E+01  0.10458897088E+03 -0.89889889139E+02  0.13819704348E+03  0.00000000000E+00 0.  1.
         11    1    3    3    0    0 -0.10010229884E+02 -0.13153492947E+01  0.16189298060E+02  0.19079523521E+02  0.00000000000E+00 0. -1.
<mgrwt>
<rscale>  0 0.15599712E+03</rscale>
<asrwt>0</asrwt>
<pdfrwt beam="1">  1        1 0.90983112E-02 0.16213634E+03</pdfrwt>
<pdfrwt beam="2">  1       -1 0.76039747E-01 0.16213634E+03</pdfrwt>
<totfact> 0.13029079E+03</totfact>
</mgrwt>
</event>
<event>
 7    1  0.1446636E-005  0.1834306E+03  0.7546771E-02  0.1171879E+00
         -2   -1    0    0    0  501 -0.00000000000E+00  0.00000000000E+00  0.16305721346E+03  0.16305721346E+03  0.00000000000E+00 0.  1.
          2   -1    0    0  501    0  0.00000000000E+00 -0.00000000000E+00 -0.21513121605E+03  0.21513121605E+03  0.00000000000E+00 0. -1.
         23    2    1    2    0    0 -0.54567369247E+02 -0.12264981257E+03 -0.10512381924E+03  0.18724058339E+03  0.77378578354E+02 0.  0.
          5    1    1    2  502    0  0.93395869128E+02  0.67194138943E+02  0.39573030697E+02  0.12176188007E+03  0.47000000000E+01 0. -1.
         -5    1    1    2    0  502 -0.38828499881E+02  0.55455673627E+02  0.13476785949E+02  0.69185966062E+02  0.47000000000E+01 0. -1.
        -11    1    3    3    0    0 -0.24308719555E+02 -0.51940901422E+02 -0.93171587156E+02  0.10940619608E+03  0.00000000000E+00 0. -1.
         11    1    3    3    0    0 -0.30258649693E+02 -0.70708911148E+02 -0.11952232080E+02  0.77834387315E+02  0.00000000000E+00 0.  1.
<mgrwt>
<rscale>  0 0.17585246E+03</rscale>
<asrwt>0</asrwt>
<pdfrwt beam="2">  1        2 0.33097110E-01 0.18343063E+03</pdfrwt>
<pdfrwt beam="1">  1       -2 0.25085725E-01 0.18343063E+03</pdfrwt>
<totfact> 0.21872323E+03</totfact>
</mgrwt>
</event>
<event>
 7    1  0.1446636E-005  0.2117031E+03  0.7546771E-02  0.1174044E+00
         -2   -1    0    0    0  501 -0.00000000000E+00  0.00000000000E+00  0.40109133312E+03  0.40109133312E+03  0.00000000000E+00 0.  1.
          2   -1    0    0  501    0  0.00000000000E+00 -0.00000000000E+00 -0.62603044598E+02  0.62603044598E+02  0.00000000000E+00 0. -1.
         23    2    1    2    0    0  0.15188431503E+02  0.39401623588E+02  0.57402524201E+02  0.11180315809E+03  0.86149404997E+02 0.  0.
          5    1    1    2  502    0 -0.71288441727E+02  0.28382447227E+02  0.24635099984E+02  0.80725357761E+02  0.47000000000E+01 0. -1.
         -5    1    1    2    0  502  0.56100010224E+02 -0.67784070815E+02  0.25645066434E+03  0.27116586187E+03  0.47000000000E+01 0.  1.
        -11    1    3    3    0    0  0.20790659241E+02 -0.15654336299E+02 -0.69409622587E+01  0.26934860567E+02  0.00000000000E+00 0.  1.
         11    1    3    3    0    0 -0.56022277384E+01  0.55055959887E+02  0.64343486459E+02  0.84868297523E+02  0.00000000000E+00 0. -1.
<mgrwt>
<rscale>  0 0.17369921E+03</rscale>
<asrwt>0</asrwt>
<pdfrwt beam="2">  1        2 0.96312379E-02 0.21170315E+03</pdfrwt>
<pdfrwt beam="1">  1       -2 0.61706357E-01 0.21170315E+03</pdfrwt>
<totfact> 0.16555669E+03</totfact>
</mgrwt>
</event>
<event>
 7    1  0.1446636E-005  0.1442853E+03  0.7546771E-02  0.1217633E+00
          2   -1    0    0  501    0  0.00000000000E+00  0.00000000000E+00  0.16724603783E+03  0.16724603783E+03  0.00000000000E+00 0. -1.
         -2   -1    0    0    0  501 -0.00000000000E+00 -0.00000000000E+00 -0.10430942612E+03  0.10430942612E+03  0.00000000000E+00 0.  1.
         23    2    1    2    0    0 -0.40116144474E+02 -0.59862413924E+02  0.48906470510E+02  0.12658963337E+03  0.91870989815E+02 0.  0.
          5    1    1    2  502    0 -0.19908041510E+02 -0.10733694487E+02  0.42106755285E+02  0.48027191826E+02  0.47000000000E+01 0. -1.
         -5    1    1    2    0  502  0.60024185984E+02  0.70596108411E+02 -0.28076614086E+02  0.96938638758E+02  0.47000000000E+01 0. -1.
        -11    1    3    3    0    0  0.59478849483E+01 -0.50570598111E+02  0.59607003093E+02  0.78394882144E+02  0.00000000000E+00 0. -1.
         11    1    3    3    0    0 -0.46064029422E+02 -0.92918158134E+01 -0.10700532584E+02  0.48194751221E+02  0.00000000000E+00 0.  1.
<mgrwt>
<rscale>  0 0.13684876E+03</rscale>
<asrwt>0</asrwt>
<pdfrwt beam="1">  1        2 0.25730160E-01 0.14428530E+03</pdfrwt>
<pdfrwt beam="2">  1       -2 0.16047604E-01 0.14428530E+03</pdfrwt>
<totfact> 0.60821591E+03</totfact>
</mgrwt>
</event>
<event>
 7    1  0.1446636E-005  0.1387027E+03  0.7546771E-02  0.1227223E+00
         -1   -1    0    0    0  501 -0.00000000000E+00  0.00000000000E+00  0.20691845581E+03  0.20691845581E+03  0.00000000000E+00 0.  1.
          1   -1    0    0  501    0  0.00000000000E+00 -0.00000000000E+00 -0.75420523420E+02  0.75420523420E+02  0.00000000000E+00 0. -1.
         23    2    1    2    0    0 -0.60104219698E+02  0.76053796941E+00  0.33997472313E+02  0.11279612849E+03  0.89185440716E+02 0.  0.
          5    1    1    2  502    0  0.72808109273E+02 -0.19875887062E+01  0.19328875053E+01  0.73012309502E+02  0.47000000000E+01 0.  1.
         -5    1    1    2    0  502 -0.12703889574E+02  0.12270507368E+01  0.95567572577E+02  0.96530541240E+02  0.47000000000E+01 0.  1.
        -11    1    3    3    0    0 -0.10941832616E+02 -0.25151469572E+02  0.48181317232E+02  0.55441495766E+02  0.00000000000E+00 0.  1.
         11    1    3    3    0    0 -0.49162387083E+02  0.25912007541E+02 -0.14183844919E+02  0.57354632726E+02  0.00000000000E+00 0. -1.
<mgrwt>
<rscale>  0 0.13015682E+03</rscale>
<asrwt>0</asrwt>
<pdfrwt beam="2">  1        1 0.11603158E-01 0.13870270E+03</pdfrwt>
<pdfrwt beam="1">  1       -1 0.31833608E-01 0.13870270E+03</pdfrwt>
<totfact> 0.46335530E+03</totfact>
</mgrwt>
</event>
<event>
 7    1  0.1446636E-005  0.1849943E+03  0.7546771E-02  0.1168114E+00
         -4   -1    0    0    0  501 -0.00000000000E+00  0.00000000000E+00  0.50026418376E+03  0.50026418376E+03  0.00000000000E+00 0. -1.
          4   -1    0    0  501    0  0.00000000000E+00 -0.00000000000E+00 -0.75267033155E+02  0.75267033155E+02  0.00000000000E+00 0.  1.
         23    2    1    2    0    0  0.12777335360E+03  0.47675851563E+02  0.77722442939E+02  0.18205615518E+03  0.92220652739E+02 0.  0.
          5    1    1    2  502    0 -0.65182441206E+02 -0.27513047567E+02  0.30944767597E+03  0.31746759298E+03  0.47000000000E+01 0. -1.
         -5    1    1    2    0  502 -0.62590912394E+02 -0.20162803996E+02  0.37827031695E+02  0.76007468752E+02  0.47000000000E+01 0. -1.
        -11    1    3    3    0    0  0.39858065473E+02  0.14454835693E+02 -0.19646544896E+02  0.46728945896E+02  0.00000000000E+00 0.  1.
         11    1    3    3    0    0  0.87915288127E+02  0.33221015870E+02  0.97368987835E+02  0.13532720929E+03  0.00000000000E+00 0. -1.
<mgrwt>
<rscale>  0 0.17967900E+03</rscale>
<asrwt>0</asrwt>
<pdfrwt beam="2">  1        4 0.11579544E-01 0.18499433E+03</pdfrwt>
<pdfrwt beam="1">  1       -4 0.76963718E-01 0.18499433E+03</pdfrwt>
<totfact> 0.16083476E+02</totfact>
</mgrwt>
</event>
<event>
 7    1  0.1446636E-005  0.1574441E+03  0.7546771E-02  0.1199382E+00
         -1   -1    0    0    0  501 -0.00000000000E+00  0.00000000000E+00  0.52582294979E+02  0.52582294979E+02  0.00000000000E+00 0.  1.
          1   -1    0    0  501    0  0.00000000000E+00 -0.00000000000E+00 -0.71950940664E+03  0.71950940664E+03  0.00000000000E+00 0. -1.
         23    2    1    2    0    0  0.65277068010E+02 -0.70015809171E+02 -0.57421814066E+03  0.58937988682E+03  0.92080773106E+02 0.  0.
          5    1    1    2  502    0 -0.36095854741E+02  0.27670428604E+02  0.26464961992E+02  0.52830365907E+02  0.47000000000E+01 0. -1.
         -5    1    1    2    0  502 -0.29181213269E+02  0.42345380567E+02 -0.11917393299E+03  0.12988144890E+03  0.47000000000E+01 0. -1.
        -11    1    3    3    0    0  0.69982191268E+02 -0.12918637665E+02 -0.24156540138E+03  0.25182978664E+03  0.00000000000E+00 0.  1.
         11    1    3    3    0    0 -0.47051232576E+01 -0.57097171506E+02 -0.33265273928E+03  0.33755010018E+03  0.00000000000E+00 0. -1.
<mgrwt>
<rscale>  0 0.15089119E+03</rscale>
<asrwt>0</asrwt>
<pdfrwt beam="2">  1        1 0.11069375E+00 0.15744413E+03</pdfrwt>
<pdfrwt beam="1">  1       -1 0.80895841E-02 0.15744413E+03</pdfrwt>
<totfact> 0.22634199E+03</totfact>
</mgrwt>
</event>
<event>
 7    1  0.1446636E-005  0.1560101E+03  0.7546771E-02  0.1201577E+00
          1   -1    0    0  501    0  0.00000000000E+00  0.00000000000E+00  0.12871012023E+03  0.12871012023E+03  0.00000000000E+00 0. -1.
         -1   -1    0    0    0  501 -0.00000000000E+00 -0.00000000000E+00 -0.16193580483E+03  0.16193580483E+03  0.00000000000E+00 0.  1.
         23    2    1    2    0    0  0.47907366095E+02  0.80120599945E+02  0.40943497831E+01  0.13023417120E+03  0.90717966172E+02 0.  0.
          5    1    1    2  502    0 -0.86069712049E+02 -0.34845636691E+02 -0.39394157572E+02  0.10097625156E+03  0.47000000000E+01 0.  1.
         -5    1    1    2    0  502  0.38162345954E+02 -0.45274963254E+02  0.20741231920E+01  0.59435502298E+02  0.47000000000E+01 0.  1.
        -11    1    3    3    0    0  0.38699589310E+02  0.97385111652E+02  0.17869078649E+02  0.10630532515E+03  0.00000000000E+00 0. -1.
         11    1    3    3    0    0  0.92077767855E+01 -0.17264511707E+02 -0.13774728866E+02  0.23928846047E+02  0.00000000000E+00 0.  1.
<mgrwt>
<rscale>  0 0.14910495E+03</rscale>
<asrwt>0</asrwt>
<pdfrwt beam="1">  1        1 0.19801557E-01 0.15601008E+03</pdfrwt>
<pdfrwt beam="2">  1       -1 0.24913201E-01 0.15601008E+03</pdfrwt>
<totfact> 0.35128485E+03</totfact>
</mgrwt>
</event>
<event>
 7    1  0.1446636E-005  0.2159448E+03  0.7546771E-02  0.1164884E+00
          2   -1    0    0  501    0  0.00000000000E+00  0.00000000000E+00  0.36976783330E+02  0.36976783330E+02  0.00000000000E+00 0. -1.
         -2   -1    0    0    0  501 -0.00000000000E+00 -0.00000000000E+00 -0.73786167337E+03  0.73786167337E+03  0.00000000000E+00 0.  1.
         23    2    1    2    0    0  0.22453919436E+02  0.60651935925E+02 -0.19187129294E+03  0.22191260766E+03  0.90817270130E+02 0.  0.
          5    1    1    2  502    0  0.52704236866E+02 -0.28300094117E+02 -0.30253959635E+02  0.67201368917E+02  0.47000000000E+01 0. -1.
         -5    1    1    2    0  502 -0.75158156302E+02 -0.32351841808E+02 -0.47875963746E+03  0.48572448012E+03  0.47000000000E+01 0.  1.
        -11    1    3    3    0    0  0.27041426217E+02 -0.10893029465E+02 -0.19087316988E+02  0.34845695467E+02  0.00000000000E+00 0.  1.
         11    1    3    3    0    0 -0.45875067809E+01  0.71544965390E+02 -0.17278397595E+03  0.18706691219E+03  0.00000000000E+00 0. -1.
<mgrwt>
<rscale>  0 0.18304953E+03</rscale>
<asrwt>0</asrwt>
<pdfrwt beam="1">  1        2 0.56887359E-02 0.21594479E+03</pdfrwt>
<pdfrwt beam="2">  1       -2 0.11351718E+00 0.21594479E+03</pdfrwt>
<totfact> 0.83452307E+02</totfact>
</mgrwt>
</event>
<event>
 7    1  0.1446636E-005  0.1808672E+03  0.7546771E-02  0.1172691E+00
          1   -1    0    0  501    0  0.00000000000E+00  0.00000000000E+00  0.53906550943E+03  0.53906550943E+03  0.00000000000E+00 0. -1.
         -1   -1    0    0    0  501 -0.00000000000E+00 -0.00000000000E+00 -0.53555286522E+02  0.53555286522E+02  0.00000000000E+00 0.  1.
         23    2    1    2    0    0 -0.98296689551E+01  0.13034750205E+03  0.23916545289E+03  0.28700881955E+03  0.89926942353E+02 0.  0.
          5    1    1    2  502    0  0.64856935644E+02 -0.69476172272E+02  0.16173764541E+03  0.18765531316E+03  0.47000000000E+01 0. -1.
         -5    1    1    2    0  502 -0.55027266689E+02 -0.60871329780E+02  0.84607124606E+02  0.11795666324E+03  0.47000000000E+01 0. -1.
        -11    1    3    3    0    0  0.14205293733E+02  0.81115850811E+01  0.95337343798E+02  0.96730539671E+02  0.00000000000E+00 0. -1.
         11    1    3    3    0    0 -0.24034962688E+02  0.12223591697E+03  0.14382810909E+03  0.19027827988E+03  0.00000000000E+00 0.  1.
<mgrwt>
<rscale>  0 0.17504057E+03</rscale>
<asrwt>0</asrwt>
<pdfrwt beam="1">  1        1 0.82933152E-01 0.18086717E+03</pdfrwt>
<pdfrwt beam="2">  1       -1 0.82392752E-02 0.18086717E+03</pdfrwt>
<totfact> 0.33013940E+03</totfact>
</mgrwt>
</event>
<event>
 7    1  0.1446636E-005  0.1425231E+03  0.7546771E-02  0.1223173E+00
         -4   -1    0    0    0  501 -0.00000000000E+00  0.00000000000E+00  0.89517994714E+03  0.89517994714E+03  0.00000000000E+00 0.  1.
          4   -1    0    0  501    0  0.00000000000E+00 -0.00000000000E+00 -0.18591931507E+02  0.18591931507E+02  0.00000000000E+00 0. -1.
         23    2    1    2    0    0 -0.55732169787E+02  0.39827027152E+02  0.27176689409E+03  0.29238518024E+03  0.83304153921E+02 0.  0.
          5    1    1    2  502    0  0.65258742899E+02 -0.73971898609E+02  0.52067383004E+03  0.52995648180E+03  0.47000000000E+01 0.  1.
         -5    1    1    2    0  502 -0.95265731117E+01  0.34144871456E+02  0.84147291512E+02  0.91430216618E+02  0.47000000000E+01 0.  1.
        -11    1    3    3    0    0  0.28822831201E+01  0.34557595517E+02  0.38525789975E+02  0.51834076216E+02  0.00000000000E+00 0. -1.
         11    1    3    3    0    0 -0.58614452907E+02  0.52694316350E+01  0.23324110411E+03  0.24055110402E+03  0.00000000000E+00 0.  1.
<mgrwt>
<rscale>  0 0.13292911E+03</rscale>
<asrwt>0</asrwt>
<pdfrwt beam="2">  1        4 0.28602978E-02 0.14252312E+03</pdfrwt>
<pdfrwt beam="1">  1       -4 0.13771996E+00 0.14252312E+03</pdfrwt>
<totfact> 0.38673007E+02</totfact>
</mgrwt>
</event>
<event>
 7    1  0.1446636E-005  0.1271502E+03  0.7546771E-02  0.1246481E+00
          2   -1    0    0  501    0  0.00000000000E+00  0.00000000000E+00  0.17648226292E+03  0.17648226292E+03  0.00000000000E+00 0. -1.
         -2   -1    0    0    0  501 -0.00000000000E+00 -0.00000000000E+00 -0.76565754176E+02  0.76565754176E+02  0.00000000000E+00 0.  1.
         23    2    1    2    0    0 -0.11990167983E+02  0.19866670497E+02  0.81481850160E+02  0.12456836512E+03  0.91321065254E+02 0.  0.
          5    1    1    2  502    0  0.34850687932E+02  0.44770455626E+02 -0.14182331366E+01  0.56947919466E+02  0.47000000000E+01 0.  1.
         -5    1    1    2    0  502 -0.22860519949E+02 -0.64637126123E+02  0.19852891721E+02  0.71531732507E+02  0.47000000000E+01 0.  1.
        -11    1    3    3    0    0 -0.40183553484E+02  0.26695039977E+02  0.12649937646E+02  0.49873480452E+02  0.00000000000E+00 0.  1.
         11    1    3    3    0    0  0.28193385501E+02 -0.68283694803E+01  0.68831912514E+02  0.74694884672E+02  0.00000000000E+00 0. -1.
<mgrwt>
<rscale>  0 0.11797153E+03</rscale>
<asrwt>0</asrwt>
<pdfrwt beam="1">  1        2 0.27151117E-01 0.12715024E+03</pdfrwt>
<pdfrwt beam="2">  1       -2 0.11779347E-01 0.12715024E+03</pdfrwt>
<totfact> 0.93740793E+03</totfact>
</mgrwt>
</event>
<event>
 7    1  0.1446636E-005  0.1864857E+03  0.7546771E-02  0.1166706E+00
          1   -1    0    0  501    0  0.00000000000E+00  0.00000000000E+00  0.24122999615E+03  0.24122999615E+03  0.00000000000E+00 0. -1.
         -1   -1    0    0    0  501 -0.00000000000E+00 -0.00000000000E+00 -0.16460752074E+03  0.16460752074E+03  0.00000000000E+00 0.  1.
         23    2    1    2    0    0 -0.23833278828E+02  0.13632797733E+03  0.13113742863E+03  0.21154701672E+03  0.91661183252E+02 0.  0.
          5    1    1    2  502    0  0.24360361197E+01 -0.13600689162E+03 -0.61888652791E+00  0.13611128484E+03  0.47000000000E+01 0. -1.
         -5    1    1    2    0  502  0.21397242708E+02 -0.32108570742E+00 -0.53896066689E+02  0.58179215328E+02  0.47000000000E+01 0. -1.
        -11    1    3    3    0    0 -0.52017956888E+02  0.93594132324E+02  0.11665150296E+03  0.15834551648E+03  0.00000000000E+00 0. -1.
         11    1    3    3    0    0  0.28184678060E+02  0.42733845003E+02  0.14485925663E+02  0.53201500246E+02  0.00000000000E+00 0.  1.
<mgrwt>
<rscale>  0 0.18113795E+03</rscale>
<asrwt>0</asrwt>
<pdfrwt beam="1">  1        1 0.37112307E-01 0.18648571E+03</pdfrwt>
<pdfrwt beam="2">  1       -1 0.25324234E-01 0.18648571E+03</pdfrwt>
<totfact> 0.15600082E+03</totfact>
</mgrwt>
</event>
<event>
 7    1  0.1446636E-005  0.1379473E+03  0.7546771E-02  0.1227722E+00
          3   -1    0    0  501    0  0.00000000000E+00  0.00000000000E+00  0.39677296870E+02  0.39677296870E+02  0.00000000000E+00 0. -1.
         -3   -1    0    0    0  501 -0.00000000000E+00 -0.00000000000E+00 -0.40084698225E+03  0.40084698225E+03  0.00000000000E+00 0.  1.
         23    2    1    2    0    0 -0.38634403150E+02 -0.42483498058E+02 -0.11207728272E+03  0.15578495637E+03  0.91706982357E+02 0.  0.
          5    1    1    2  502    0 -0.34824936717E+02 -0.18669169415E+02 -0.50511695261E+02  0.64302686275E+02  0.47000000000E+01 0. -1.
         -5    1    1    2    0  502  0.73459339867E+02  0.61152667473E+02 -0.19858070740E+03  0.22043663648E+03  0.47000000000E+01 0.  1.
        -11    1    3    3    0    0 -0.51732251984E+02 -0.19012938919E+02 -0.18056637649E+02  0.57997930177E+02  0.00000000000E+00 0.  1.
         11    1    3    3    0    0  0.13097848834E+02 -0.23470559139E+02 -0.94020645076E+02  0.97787026189E+02  0.00000000000E+00 0. -1.
<mgrwt>
<rscale>  0 0.12982058E+03</rscale>
<asrwt>0</asrwt>
<pdfrwt beam="1">  1        3 0.61041994E-02 0.13794730E+03</pdfrwt>
<pdfrwt beam="2">  1       -3 0.61668768E-01 0.13794730E+03</pdfrwt>
<totfact> 0.99548693E+02</totfact>
</mgrwt>
</event>
<event>
 7    1  0.1446636E-005  0.1780951E+03  0.7546771E-02  0.1173767E+00
         -2   -1    0    0    0  501 -0.00000000000E+00  0.00000000000E+00  0.33135754365E+03  0.33135754365E+03  0.00000000000E+00 0.  1.
          2   -1    0    0  501    0  0.00000000000E+00 -0.00000000000E+00 -0.88372587636E+02  0.88372587636E+02  0.00000000000E+00 0. -1.
         23    2    1    2    0    0  0.82496900824E+02  0.96369021941E+02  0.13839429528E+03  0.21319422358E+03  0.10102509078E+03 0.  0.
          5    1    1    2  502    0 -0.66273440802E+02 -0.75856616003E+01  0.94260337695E+02  0.11557167681E+03  0.47000000000E+01 0. -1.
         -5    1    1    2    0  502 -0.16223460022E+02 -0.88783360341E+02  0.10330323037E+02  0.90964230896E+02  0.47000000000E+01 0. -1.
        -11    1    3    3    0    0  0.95480832206E+02  0.93417864378E+02  0.14597764763E+03  0.19787106992E+03  0.00000000000E+00 0.  1.
         11    1    3    3    0    0 -0.12983931381E+02  0.29511575633E+01 -0.75833523548E+01  0.15323153658E+02  0.00000000000E+00 0. -1.
<mgrwt>
<rscale>  0 0.17397266E+03</rscale>
<asrwt>0</asrwt>
<pdfrwt beam="2">  1        2 0.13595783E-01 0.17809513E+03</pdfrwt>
<pdfrwt beam="1">  1       -2 0.50978083E-01 0.17809513E+03</pdfrwt>
<totfact> 0.15934320E+03</totfact>
</mgrwt>
</event>
<event>
 7    1  0.1446636E-005  0.1441521E+03  0.7546771E-02  0.1218012E+00
         -3   -1    0    0    0  501 -0.00000000000E+00  0.00000000000E+00  0.14228756742E+03  0.14228756742E+03  0.00000000000E+00 0.  1.
          3   -1    0    0  501    0  0.00000000000E+00 -0.00000000000E+00 -0.11931565502E+03  0.11931565502E+03  0.00000000000E+00 0. -1.
         23    2    1    2    0    0  0.67217885013E+02  0.25252706703E+02  0.41515016644E+01  0.11622773901E+03  0.91300104540E+02 0.  0.
          5    1    1    2  502    0 -0.96232002071E+01 -0.60128804934E+02 -0.23801842649E+02  0.65549194339E+02  0.47000000000E+01 0.  1.
         -5    1    1    2    0  502 -0.57594684806E+02  0.34876098231E+02  0.42622253380E+02  0.79826289084E+02  0.47000000000E+01 0.  1.
        -11    1    3    3    0    0  0.29304677333E+02  0.45470304941E+02  0.34015870126E+02  0.63901425379E+02  0.00000000000E+00 0.  1.
         11    1    3    3    0    0  0.37913207680E+02 -0.20217598239E+02 -0.29864368461E+02  0.52326313635E+02  0.00000000000E+00 0. -1.
<mgrwt>
<rscale>  0 0.13657583E+03</rscale>
<asrwt>0</asrwt>
<pdfrwt beam="2">  1        3 0.18356255E-01 0.14415208E+03</pdfrwt>
<pdfrwt beam="1">  1       -3 0.21890395E-01 0.14415208E+03</pdfrwt>
<totfact> 0.11597742E+03</totfact>
</mgrwt>
</event>
<event>
 7    1  0.1446636E-005  0.2664732E+03  0.7546771E-02  0.1105372E+00
          1   -1    0    0  501    0  0.00000000000E+00  0.00000000000E+00  0.42431616443E+03  0.42431616443E+03  0.00000000000E+00 0. -1.
         -1   -1    0    0    0  501 -0.00000000000E+00 -0.00000000000E+00 -0.28036965968E+03  0.28036965968E+03  0.00000000000E+00 0.  1.
         23    2    1    2    0    0 -0.11725932725E+03 -0.20404159073E+03  0.30283335883E+03  0.39443911396E+03  0.92149068517E+02 0.  0.
          5    1    1    2  502    0 -0.20586905553E+02  0.40306529709E+02 -0.57612695699E+02  0.73414914855E+02  0.47000000000E+01 0. -1.
         -5    1    1    2    0  502  0.13784623281E+03  0.16373506102E+03 -0.10127415838E+03  0.23683179529E+03  0.47000000000E+01 0. -1.
        -11    1    3    3    0    0 -0.10542479858E+03 -0.96427299746E+02  0.15008911747E+03  0.20721813500E+03  0.00000000000E+00 0. -1.
         11    1    3    3    0    0 -0.11834528669E+02 -0.10761429098E+03  0.15274424137E+03  0.18722097896E+03  0.00000000000E+00 0.  1.
<mgrwt>
<rscale>  0 0.26296979E+03</rscale>
<asrwt>0</asrwt>
<pdfrwt beam="1">  1        1 0.65279410E-01 0.26647324E+03</pdfrwt>
<pdfrwt beam="2">  1       -1 0.43133794E-01 0.26647324E+03</pdfrwt>
<totfact> 0.30483972E+02</totfact>
</mgrwt>
</event>
<event>
 7    1  0.1446636E-005  0.1285916E+03  0.7546771E-02  0.1245139E+00
         -2   -1    0    0    0  501 -0.00000000000E+00  0.00000000000E+00  0.10702320894E+03  0.10702320894E+03  0.00000000000E+00 0.  1.
          2   -1    0    0  501    0  0.00000000000E+00 -0.00000000000E+00 -0.11539311833E+03  0.11539311833E+03  0.00000000000E+00 0. -1.
         23    2    1    2    0    0  0.22674919650E+02 -0.19935481705E+02 -0.65533882226E+01  0.93811932974E+02  0.88578532722E+02 0.  0.
          5    1    1    2  502    0  0.26537266495E+02  0.59363633790E+02  0.23145207618E+01  0.65235837821E+02  0.47000000000E+01 0.  1.
         -5    1    1    2    0  502 -0.49212186146E+02 -0.39428152085E+02 -0.41310419319E+01  0.63368556473E+02  0.47000000000E+01 0.  1.
        -11    1    3    3    0    0 -0.30853346235E+02 -0.20943418668E+02 -0.13850255144E+02  0.39779207219E+02  0.00000000000E+00 0.  1.
         11    1    3    3    0    0  0.53528265886E+02  0.10079369625E+01  0.72968669212E+01  0.54032725755E+02  0.00000000000E+00 0. -1.
<mgrwt>
<rscale>  0 0.11877043E+03</rscale>
<asrwt>0</asrwt>
<pdfrwt beam="2">  1        2 0.17752787E-01 0.12859156E+03</pdfrwt>
<pdfrwt beam="1">  1       -2 0.16465109E-01 0.12859156E+03</pdfrwt>
<totfact> 0.87699519E+03</totfact>
</mgrwt>
</event>
<event>
 7    1  0.1446636E-005  0.2226266E+03  0.7546771E-02  0.1135090E+00
          1   -1    0    0  501    0  0.00000000000E+00  0.00000000000E+00  0.47991458826E+03  0.47991458826E+03  0.00000000000E+00 0. -1.
         -1   -1    0    0    0  501 -0.00000000000E+00 -0.00000000000E+00 -0.96352739486E+02  0.96352739486E+02  0.00000000000E+00 0.  1.
         23    2    1    2    0    0  0.14429890414E+03 -0.11451821494E+03  0.20676380030E+03  0.29197844540E+03  0.92539441166E+02 0.  0.
          5    1    1    2  502    0 -0.13688446939E+03  0.82223115630E+02  0.19006897095E+03  0.24828673428E+03  0.47000000000E+01 0. -1.
         -5    1    1    2    0  502 -0.74144347500E+01  0.32295099315E+02 -0.13270922473E+02  0.36002148071E+02  0.47000000000E+01 0. -1.
        -11    1    3    3    0    0  0.43904036650E+02 -0.92076332197E+02  0.11916307866E+03  0.15686125940E+03  0.00000000000E+00 0.  1.
         11    1    3    3    0    0  0.10039486749E+03 -0.22441882748E+02  0.87600721637E+02  0.13511718599E+03  0.00000000000E+00 0. -1.
<mgrwt>
<rscale>  0 0.21838944E+03</rscale>
<asrwt>0</asrwt>
<pdfrwt beam="1">  1        1 0.73833012E-01 0.22262664E+03</pdfrwt>
<pdfrwt beam="2">  1       -1 0.14823499E-01 0.22262664E+03</pdfrwt>
<totfact> 0.15571110E+03</totfact>
</mgrwt>
</event>
<event>
 7    1  0.1446636E-005  0.1363952E+03  0.7546771E-02  0.1221538E+00
         -1   -1    0    0    0  501 -0.00000000000E+00  0.00000000000E+00  0.60241358022E+02  0.60241358022E+02  0.00000000000E+00 0.  1.
          1   -1    0    0  501    0  0.00000000000E+00 -0.00000000000E+00 -0.29310042719E+03  0.29310042719E+03  0.00000000000E+00 0. -1.
         23    2    1    2    0    0  0.35039223389E+02 -0.68560735785E+02 -0.13427235426E+03  0.18504743495E+03  0.10141580939E+03 0.  0.
          5    1    1    2  502    0 -0.31070136737E+02 -0.21074949924E+02 -0.59053393229E+02  0.70134871234E+02  0.47000000000E+01 0. -1.
         -5    1    1    2    0  502 -0.39690866520E+01  0.89635685709E+02 -0.39533321683E+02  0.98159479036E+02  0.47000000000E+01 0.  1.
        -11    1    3    3    0    0  0.17245673357E+02  0.18317540894E+02 -0.73115275489E+02  0.77322629700E+02  0.00000000000E+00 0.  1.
         11    1    3    3    0    0  0.17793550032E+02 -0.86878276678E+02 -0.61157078771E+02  0.10772480525E+03  0.00000000000E+00 0. -1.
<mgrwt>
<rscale>  0 0.13407069E+03</rscale>
<asrwt>0</asrwt>
<pdfrwt beam="2">  1        1 0.45092373E-01 0.13639519E+03</pdfrwt>
<pdfrwt beam="1">  1       -1 0.92679012E-02 0.13639519E+03</pdfrwt>
<totfact> 0.59170371E+03</totfact>
</mgrwt>
</event>
<event>
 7    1  0.1446636E-005  0.2017494E+03  0.7546771E-02  0.1152341E+00
         -1   -1    0    0    0  501 -0.00000000000E+00  0.00000000000E+00  0.50916049091E+02  0.50916049091E+02  0.00000000000E+00 0.  1.
          1   -1    0    0  501    0  0.00000000000E+00 -0.00000000000E+00 -0.72996720599E+03  0.72996720599E+03  0.00000000000E+00 0. -1.
         23    2    1    2    0    0  0.15231740247E+03 -0.43340279191E+02 -0.34517945691E+03  0.39078952114E+03  0.92133715158E+02 0.  0.
          5    1    1    2  502    0 -0.16552914188E+03  0.51756311192E+02 -0.24790284303E+03  0.30258308304E+03  0.47000000000E+01 0.  1.
         -5    1    1    2    0  502  0.13211739410E+02 -0.84160320009E+01 -0.85968856964E+02  0.87510650898E+02  0.47000000000E+01 0.  1.
        -11    1    3    3    0    0  0.11878434348E+03 -0.54480354203E+02 -0.32455254623E+03  0.34987452682E+03  0.00000000000E+00 0. -1.
         11    1    3    3    0    0  0.33533058994E+02  0.11140075012E+02 -0.20626910675E+02  0.40914994326E+02  0.00000000000E+00 0.  1.
<mgrwt>
<rscale>  0 0.19694691E+03</rscale>
<asrwt>0</asrwt>
<pdfrwt beam="2">  1        1 0.11230264E+00 0.20174937E+03</pdfrwt>
<pdfrwt beam="1">  1       -1 0.78332390E-02 0.20174937E+03</pdfrwt>
<totfact> 0.23397176E+03</totfact>
</mgrwt>
</event>
<event>
 7    1  0.1446636E-005  0.1947365E+03  0.7546771E-02  0.1158933E+00
          1   -1    0    0  501    0  0.00000000000E+00  0.00000000000E+00  0.64074632723E+03  0.64074632723E+03  0.00000000000E+00 0. -1.
         -1   -1    0    0    0  501 -0.00000000000E+00 -0.00000000000E+00 -0.66652974849E+02  0.66652974849E+02  0.00000000000E+00 0.  1.
         23    2    1    2    0    0 -0.12121875234E+03 -0.87191093856E+02  0.43319517459E+03  0.46703580188E+03  0.90377586703E+02 0.  0.
          5    1    1    2  502    0 -0.99700247293E+01 -0.71428586355E+01  0.56497419212E+02  0.58004053308E+02  0.47000000000E+01 0. -1.
         -5    1    1    2    0  502  0.13118877707E+03  0.94333952492E+02  0.84400758574E+02  0.18235944689E+03  0.47000000000E+01 0. -1.
        -11    1    3    3    0    0 -0.12216338812E+03 -0.70743888914E+02  0.42649497000E+03  0.44925109978E+03  0.00000000000E+00 0. -1.
         11    1    3    3    0    0  0.94463577637E+00 -0.16447204942E+02  0.67002045879E+01  0.17784702097E+02  0.00000000000E+00 0.  1.
<mgrwt>
<rscale>  0 0.18947836E+03</rscale>
<asrwt>0</asrwt>
<pdfrwt beam="1">  1        1 0.98576354E-01 0.19473653E+03</pdfrwt>
<pdfrwt beam="2">  1       -1 0.10254304E-01 0.19473653E+03</pdfrwt>
<totfact> 0.18671159E+03</totfact>
</mgrwt>
</event>
<event>
 7    1  0.1446636E-005  0.1266269E+03  0.7546771E-02  0.1246841E+00
         -1   -1    0    0    0  501 -0.00000000000E+00  0.00000000000E+00  0.10661881757E+03  0.10661881757E+03  0.00000000000E+00 0.  1.
          1   -1    0    0  501    0  0.00000000000E+00 -0.00000000000E+00 -0.12840638007E+03  0.12840638007E+03  0.00000000000E+00 0. -1.
         23    2    1    2    0    0  0.19757428047E+02 -0.41442853818E+01 -0.47283593703E+02  0.10585704859E+03  0.92533482800E+02 0.  0.
          5    1    1    2  502    0  0.34739204434E+01 -0.57585434924E+02  0.24982197354E+02  0.63042450962E+02  0.47000000000E+01 0. -1.
         -5    1    1    2    0  502 -0.23231348491E+02  0.61729720306E+02  0.51383385369E+00  0.66125698083E+02  0.47000000000E+01 0. -1.
        -11    1    3    3    0    0  0.36410059606E+02  0.15181579321E+02  0.12069745405E+02  0.41253503431E+02  0.00000000000E+00 0.  1.
         11    1    3    3    0    0 -0.16652631558E+02 -0.19325864703E+02 -0.59353339108E+02  0.64603545163E+02  0.00000000000E+00 0. -1.
<mgrwt>
<rscale>  0 0.11775878E+03</rscale>
<asrwt>0</asrwt>
<pdfrwt beam="2">  1        1 0.19754828E-01 0.12662687E+03</pdfrwt>
<pdfrwt beam="1">  1       -1 0.16402895E-01 0.12662687E+03</pdfrwt>
<totfact> 0.68161465E+03</totfact>
</mgrwt>
</event>
<event>
 7    1  0.1446636E-005  0.1416010E+03  0.7546771E-02  0.1221947E+00
          2   -1    0    0  501    0  0.00000000000E+00  0.00000000000E+00  0.91914410107E+02  0.91914410107E+02  0.00000000000E+00 0. -1.
         -2   -1    0    0    0  501 -0.00000000000E+00 -0.00000000000E+00 -0.17705303439E+03  0.17705303439E+03  0.00000000000E+00 0.  1.
         23    2    1    2    0    0  0.99744505574E+01 -0.65778536784E+02 -0.27823958044E+02  0.11620678485E+03  0.91123754525E+02 0.  0.
          5    1    1    2  502    0  0.42243033318E+02  0.25467284483E+02  0.17828656497E+02  0.52659352781E+02  0.47000000000E+01 0. -1.
         -5    1    1    2    0  502 -0.52217483875E+02  0.40311252301E+02 -0.75143322738E+02  0.10010130687E+03  0.47000000000E+01 0. -1.
        -11    1    3    3    0    0  0.21241689543E+02 -0.26763863212E+02 -0.56823959333E+02  0.66305928113E+02  0.00000000000E+00 0.  1.
         11    1    3    3    0    0 -0.11267238986E+02 -0.39014673573E+02  0.29000001290E+02  0.49900856738E+02  0.00000000000E+00 0. -1.
<mgrwt>
<rscale>  0 0.13378353E+03</rscale>
<asrwt>0</asrwt>
<pdfrwt beam="1">  1        2 0.14140679E-01 0.14160102E+03</pdfrwt>
<pdfrwt beam="2">  1       -2 0.27238928E-01 0.14160102E+03</pdfrwt>
<totfact> 0.48729472E+03</totfact>
</mgrwt>
</event>
<event>
 7    1  0.1446636E-005  0.1586753E+03  0.7546771E-02  0.1197895E+00
         -2   -1    0    0    0  501 -0.00000000000E+00  0.00000000000E+00  0.41597672808E+02  0.41597672808E+02  0.00000000000E+00 0.  1.
          2   -1    0    0  501    0  0.00000000000E+00 -0.00000000000E+00 -0.51605380967E+03  0.51605380967E+03  0.00000000000E+00 0. -1.
         23    2    1    2    0    0  0.96681882146E+02  0.14360928075E+02 -0.20414513992E+03  0.24420949559E+03  0.91702873418E+02 0.  0.
          5    1    1    2  502    0  0.63672272742E+01 -0.35774956265E+02 -0.14582473689E+03  0.15035735089E+03  0.47000000000E+01 0. -1.
         -5    1    1    2    0  502 -0.10304910942E+03  0.21414028190E+02 -0.12448626006E+03  0.16308463600E+03  0.47000000000E+01 0. -1.
        -11    1    3    3    0    0 -0.17204859146E+02 -0.16436823544E+01 -0.15201890081E+02  0.23017522281E+02  0.00000000000E+00 0. -1.
         11    1    3    3    0    0  0.11388674129E+03  0.16004610429E+02 -0.18894324984E+03  0.22119197331E+03  0.00000000000E+00 0.  1.
<mgrwt>
<rscale>  0 0.15211759E+03</rscale>
<asrwt>0</asrwt>
<pdfrwt beam="2">  1        2 0.79392892E-01 0.15867528E+03</pdfrwt>
<pdfrwt beam="1">  1       -2 0.63996421E-02 0.15867528E+03</pdfrwt>
<totfact> 0.77727959E+03</totfact>
</mgrwt>
</event>
<event>
 7    1  0.1446636E-005  0.1488820E+03  0.7546771E-02  0.1211110E+00
          1   -1    0    0  501    0  0.00000000000E+00  0.00000000000E+00  0.12687503429E+03  0.12687503429E+03  0.00000000000E+00 0. -1.
         -1   -1    0    0    0  501 -0.00000000000E+00 -0.00000000000E+00 -0.14673773275E+03  0.14673773275E+03  0.00000000000E+00 0.  1.
         23    2    1    2    0    0 -0.36708049252E+02 -0.72074570451E+02  0.73843070172E+01  0.12225804656E+03  0.91379852118E+02 0.  0.
          5    1    1    2  502    0  0.28023769144E+02  0.52397550808E+02 -0.76749573324E+02  0.97177270866E+02  0.47000000000E+01 0.  1.
         -5    1    1    2    0  502  0.86842801076E+01  0.19677019644E+02  0.49502567843E+02  0.54177449609E+02  0.47000000000E+01 0.  1.
        -11    1    3    3    0    0  0.35593007995E+01 -0.50177580501E+02  0.41424284616E+02  0.65164634297E+02  0.00000000000E+00 0. -1.
         11    1    3    3    0    0 -0.40267350051E+02 -0.21896989950E+02 -0.34039977599E+02  0.57093412264E+02  0.00000000000E+00 0.  1.
<mgrwt>
<rscale>  0 0.14166176E+03</rscale>
<asrwt>0</asrwt>
<pdfrwt beam="1">  1        1 0.19519236E-01 0.14888201E+03</pdfrwt>
<pdfrwt beam="2">  1       -1 0.22575036E-01 0.14888201E+03</pdfrwt>
<totfact> 0.41940392E+03</totfact>
</mgrwt>
</event>
<event>
 7    1  0.1446636E-005  0.1422797E+03  0.7546771E-02  0.1223331E+00
          3   -1    0    0  501    0  0.00000000000E+00  0.00000000000E+00  0.48878230208E+02  0.48878230208E+02  0.00000000000E+00 0. -1.
         -3   -1    0    0    0  501 -0.00000000000E+00 -0.00000000000E+00 -0.32076917378E+03  0.32076917378E+03  0.00000000000E+00 0.  1.
         23    2    1    2    0    0  0.19576937085E+02 -0.65070885598E+02 -0.11217342694E+03  0.15574742461E+03  0.84005392344E+02 0.  0.
          5    1    1    2  502    0 -0.46322311444E+02  0.84104322045E+02 -0.15200677162E+03  0.17985394670E+03  0.47000000000E+01 0. -1.
         -5    1    1    2    0  502  0.26745374359E+02 -0.19033436447E+02 -0.77107450092E+01  0.34046032679E+02  0.47000000000E+01 0. -1.
        -11    1    3    3    0    0  0.17120677756E+02  0.13502141904E+02 -0.53136360874E+02  0.57436036508E+02  0.00000000000E+00 0.  1.
         11    1    3    3    0    0  0.24562593292E+01 -0.78573027502E+02 -0.59037066066E+02  0.98311388102E+02  0.00000000000E+00 0. -1.
<mgrwt>
<rscale>  0 0.13281939E+03</rscale>
<asrwt>0</asrwt>
<pdfrwt beam="1">  1        3 0.75197275E-02 0.14227971E+03</pdfrwt>
<pdfrwt beam="2">  1       -3 0.49349105E-01 0.14227971E+03</pdfrwt>
<totfact> 0.11241175E+03</totfact>
</mgrwt>
</event>
<event>
 7    1  0.1446636E-005  0.1381102E+03  0.7546771E-02  0.1228149E+00
          1   -1    0    0  501    0  0.00000000000E+00  0.00000000000E+00  0.93392335309E+03  0.93392335309E+03  0.00000000000E+00 0. -1.
         -1   -1    0    0    0  501 -0.00000000000E+00 -0.00000000000E+00 -0.16133233410E+02  0.16133233410E+02  0.00000000000E+00 0.  1.
         23    2    1    2    0    0 -0.56436167264E+01  0.58510541823E+02  0.43116489877E+03  0.44421219719E+03  0.89252295735E+02 0.  0.
          5    1    1    2  502    0 -0.52512735594E+02 -0.33445967819E+02  0.34541849809E+03  0.35101602383E+03  0.47000000000E+01 0. -1.
         -5    1    1    2    0  502  0.58156352320E+02 -0.25064574004E+02  0.14120672282E+03  0.15482836547E+03  0.47000000000E+01 0. -1.
        -11    1    3    3    0    0  0.18735872767E+02  0.64110700255E+02  0.39262730780E+03  0.39826802238E+03  0.00000000000E+00 0. -1.
         11    1    3    3    0    0 -0.24379489493E+02 -0.56001584321E+01  0.38537590965E+02  0.45944174819E+02  0.00000000000E+00 0.  1.
<mgrwt>
<rscale>  0 0.12953404E+03</rscale>
<asrwt>0</asrwt>
<pdfrwt beam="1">  1        1 0.14368047E+00 0.13811025E+03</pdfrwt>
<pdfrwt beam="2">  1       -1 0.24820366E-02 0.13811025E+03</pdfrwt>
<totfact> 0.86661996E+03</totfact>
</mgrwt>
</event>
<event>
 7    1  0.1446636E-005  0.1358720E+03  0.7546771E-02  0.1234017E+00
          1   -1    0    0  501    0  0.00000000000E+00  0.00000000000E+00  0.96402130555E+02  0.96402130555E+02  0.00000000000E+00 0. -1.
         -1   -1    0    0    0  501 -0.00000000000E+00 -0.00000000000E+00 -0.15197792888E+03  0.15197792888E+03  0.00000000000E+00 0.  1.
         23    2    1    2    0    0 -0.43874236759E+02  0.30223448099E+02  0.50822078179E+01  0.99582871043E+02  0.83979246857E+02 0.  0.
          5    1    1    2  502    0  0.21909883574E+01 -0.46862717980E+02 -0.85238841291E+02  0.97409777903E+02  0.47000000000E+01 0. -1.
         -5    1    1    2    0  502  0.41683248402E+02  0.16639269882E+02  0.24580835153E+02  0.51387410485E+02  0.47000000000E+01 0. -1.
        -11    1    3    3    0    0 -0.26763941677E+02  0.17283146790E+02  0.44486109921E+02  0.54717727594E+02  0.00000000000E+00 0. -1.
         11    1    3    3    0    0 -0.17110295082E+02  0.12940301308E+02 -0.39403902103E+02  0.44865143449E+02  0.00000000000E+00 0.  1.
<mgrwt>
<rscale>  0 0.12567594E+03</rscale>
<asrwt>0</asrwt>
<pdfrwt beam="1">  1        1 0.14831097E-01 0.13587203E+03</pdfrwt>
<pdfrwt beam="2">  1       -1 0.23381220E-01 0.13587203E+03</pdfrwt>
<totfact> 0.56076282E+03</totfact>
</mgrwt>
</event>
<event>
 7    1  0.1446636E-005  0.1801548E+03  0.7546771E-02  0.1173174E+00
         -2   -1    0    0    0  501 -0.00000000000E+00  0.00000000000E+00  0.34652175550E+03  0.34652175550E+03  0.00000000000E+00 0.  1.
          2   -1    0    0  501    0  0.00000000000E+00 -0.00000000000E+00 -0.89064897147E+02  0.89064897147E+02  0.00000000000E+00 0. -1.
         23    2    1    2    0    0  0.48508334303E+02  0.12032383179E+03  0.63925041597E+02  0.17118109625E+03  0.91573324594E+02 0.  0.
          5    1    1    2  502    0 -0.34928518782E+02 -0.12900865818E+03  0.93998008546E+02  0.16346544258E+03  0.47000000000E+01 0. -1.
         -5    1    1    2    0  502 -0.13579815521E+02  0.86848263847E+01  0.99533808214E+02  0.10094011381E+03  0.47000000000E+01 0. -1.
        -11    1    3    3    0    0  0.59242928047E+02  0.60850760473E+02  0.24307360164E+01  0.84961450384E+02  0.00000000000E+00 0. -1.
         11    1    3    3    0    0 -0.10734593744E+02  0.59473071319E+02  0.61494305581E+02  0.86219645869E+02  0.00000000000E+00 0.  1.
<mgrwt>
<rscale>  0 0.17456011E+03</rscale>
<asrwt>0</asrwt>
<pdfrwt beam="2">  1        2 0.13702292E-01 0.18015475E+03</pdfrwt>
<pdfrwt beam="1">  1       -2 0.53311039E-01 0.18015475E+03</pdfrwt>
<totfact> 0.14438267E+03</totfact>
</mgrwt>
</event>
<event>
 7    1  0.1446636E-005  0.1251748E+03  0.7546771E-02  0.1249231E+00
          2   -1    0    0  501    0  0.00000000000E+00  0.00000000000E+00  0.45917927009E+02  0.45917927009E+02  0.00000000000E+00 0. -1.
         -2   -1    0    0    0  501 -0.00000000000E+00 -0.00000000000E+00 -0.32173973241E+03  0.32173973241E+03  0.00000000000E+00 0.  1.
         23    2    1    2    0    0 -0.58893302501E+01 -0.32257883614E+01 -0.42050794486E+02  0.10248296987E+03  0.93216950580E+02 0.  0.
          5    1    1    2  502    0 -0.12740182184E+02  0.10035397550E+02 -0.24243733933E+03  0.24302463856E+03  0.47000000000E+01 0.  1.
         -5    1    1    2    0  502  0.18629512434E+02 -0.68096091887E+01  0.86663284096E+01  0.22150050992E+02  0.47000000000E+01 0.  1.
        -11    1    3    3    0    0 -0.85565445193E+01  0.32700095098E+02 -0.54700974221E+02  0.64301689358E+02  0.00000000000E+00 0.  1.
         11    1    3    3    0    0  0.26672142692E+01 -0.35925883460E+02  0.12650179735E+02  0.38181280513E+02  0.00000000000E+00 0. -1.
<mgrwt>
<rscale>  0 0.11635696E+03</rscale>
<asrwt>0</asrwt>
<pdfrwt beam="1">  1        2 0.70642963E-02 0.12517480E+03</pdfrwt>
<pdfrwt beam="2">  1       -2 0.49498421E-01 0.12517480E+03</pdfrwt>
<totfact> 0.37130335E+03</totfact>
</mgrwt>
</event>
<event>
 7    1  0.1446636E-005  0.2467323E+03  0.7546771E-02  0.1117918E+00
         -1   -1    0    0    0  501 -0.00000000000E+00  0.00000000000E+00  0.17314278165E+04  0.17314278165E+04  0.00000000000E+00 0.  1.
          1   -1    0    0  501    0  0.00000000000E+00 -0.00000000000E+00 -0.33566760171E+02  0.33566760171E+02  0.00000000000E+00 0. -1.
         23    2    1    2    0    0 -0.12675940395E+02 -0.21234690479E+03  0.71023697348E+03  0.74701710124E+03  0.91357011835E+02 0.  0.
          5    1    1    2  502    0  0.47766962187E+02  0.55464204145E+02  0.17775486250E+03  0.19229363421E+03  0.47000000000E+01 0.  1.
         -5    1    1    2    0  502 -0.35091021792E+02  0.15688270064E+03  0.80986922037E+03  0.82568384124E+03  0.47000000000E+01 0.  1.
        -11    1    3    3    0    0 -0.13003252698E+02 -0.13780036825E+03  0.30441156024E+03  0.33440159102E+03  0.00000000000E+00 0.  1.
         11    1    3    3    0    0  0.32731230379E+00 -0.74546536544E+02  0.40582541324E+03  0.41261551022E+03  0.00000000000E+00 0. -1.
<mgrwt>
<rscale>  0 0.24283597E+03</rscale>
<asrwt>0</asrwt>
<pdfrwt beam="2">  1        1 0.51641183E-02 0.24673227E+03</pdfrwt>
<pdfrwt beam="1">  1       -1 0.26637344E+00 0.24673227E+03</pdfrwt>
<totfact> 0.99986737E+01</totfact>
</mgrwt>
</event>
<event>
 7    1  0.1446636E-005  0.1552741E+03  0.7546771E-02  0.1202066E+00
          2   -1    0    0  501    0  0.00000000000E+00  0.00000000000E+00  0.12117026323E+03  0.12117026323E+03  0.00000000000E+00 0.  1.
         -2   -1    0    0    0  501 -0.00000000000E+00 -0.00000000000E+00 -0.16920411468E+03  0.16920411468E+03  0.00000000000E+00 0. -1.
         23    2    1    2    0    0 -0.82025810510E+02  0.41905204666E+02 -0.13748153863E+02  0.13136009733E+03  0.92640075929E+02 0.  0.
          5    1    1    2  502    0  0.91099888170E+02 -0.13185463766E+02 -0.67265412708E+02  0.11410421476E+03  0.47000000000E+01 0. -1.
         -5    1    1    2    0  502 -0.90740776603E+01 -0.28719740900E+02  0.32979715117E+02  0.44910065820E+02  0.47000000000E+01 0. -1.
        -11    1    3    3    0    0 -0.50469487227E+02 -0.84639279352E+01 -0.41382108848E+02  0.65812507548E+02  0.00000000000E+00 0. -1.
         11    1    3    3    0    0 -0.31556323283E+02  0.50369132601E+02  0.27633954985E+02  0.65547589782E+02  0.00000000000E+00 0.  1.
<mgrwt>
<rscale>  0 0.14871066E+03</rscale>
<asrwt>0</asrwt>
<pdfrwt beam="1">  1        2 0.18641579E-01 0.15527406E+03</pdfrwt>
<pdfrwt beam="2">  1       -2 0.26031402E-01 0.15527406E+03</pdfrwt>
<totfact> 0.38502738E+03</totfact>
</mgrwt>
</event>
<event>
 7    1  0.1446636E-005  0.1332503E+03  0.7546771E-02  0.1235477E+00
         -2   -1    0    0    0  501 -0.00000000000E+00  0.00000000000E+00  0.12021149301E+03  0.12021149301E+03  0.00000000000E+00 0.  1.
          2   -1    0    0  501    0  0.00000000000E+00 -0.00000000000E+00 -0.11786686361E+03  0.11786686361E+03  0.00000000000E+00 0. -1.
         23    2    1    2    0    0  0.36541919066E+02  0.28274022857E+02 -0.15985953985E+02  0.10357310892E+03  0.91307754045E+02 0.  0.
          5    1    1    2  502    0 -0.27870661544E+02  0.53549784125E+01  0.67932218526E+02  0.73772121310E+02  0.47000000000E+01 0. -1.
         -5    1    1    2    0  502 -0.86712575221E+01 -0.33629001270E+02 -0.49601635135E+02  0.60733126393E+02  0.47000000000E+01 0. -1.
        -11    1    3    3    0    0  0.22580398598E+02  0.19532458614E+02  0.37312532734E+02  0.47787199535E+02  0.00000000000E+00 0.  1.
         11    1    3    3    0    0  0.13961520468E+02  0.87415642430E+01 -0.53298486719E+02  0.55785909383E+02  0.00000000000E+00 0. -1.
<mgrwt>
<rscale>  0 0.12473953E+03</rscale>
<asrwt>0</asrwt>
<pdfrwt beam="2">  1        2 0.18133364E-01 0.13325033E+03</pdfrwt>
<pdfrwt beam="1">  1       -2 0.18494076E-01 0.13325033E+03</pdfrwt>
<totfact> 0.70765003E+03</totfact>
</mgrwt>
</event>
<event>
 7    1  0.1446636E-005  0.1258108E+03  0.7546771E-02  0.1248135E+00
          2   -1    0    0  501    0  0.00000000000E+00  0.00000000000E+00  0.37915976772E+03  0.37915976772E+03  0.00000000000E+00 0. -1.
         -2   -1    0    0    0  501 -0.00000000000E+00 -0.00000000000E+00 -0.86110532322E+02  0.86110532322E+02  0.00000000000E+00 0.  1.
         23    2    1    2    0    0 -0.27246977918E+01  0.32424511743E+02  0.32259547240E+03  0.33603665813E+03  0.88283768917E+02 0.  0.
          5    1    1    2  502    0 -0.25741321693E+02  0.37437228176E+02  0.53394796560E+01  0.45986538672E+02  0.47000000000E+01 0. -1.
         -5    1    1    2    0  502  0.28466019484E+02 -0.69861739919E+02 -0.34885716664E+02  0.83247103235E+02  0.47000000000E+01 0.  1.
        -11    1    3    3    0    0 -0.12714942504E+02 -0.28160866236E+02  0.14083025619E+03  0.14417997506E+03  0.00000000000E+00 0.  1.
         11    1    3    3    0    0  0.99902447119E+01  0.60585377979E+02  0.18176521622E+03  0.19185668308E+03  0.00000000000E+00 0. -1.
<mgrwt>
<rscale>  0 0.11699666E+03</rscale>
<asrwt>0</asrwt>
<pdfrwt beam="1">  1        2 0.58332271E-01 0.12581079E+03</pdfrwt>
<pdfrwt beam="2">  1       -2 0.13247774E-01 0.12581079E+03</pdfrwt>
<totfact> 0.34342869E+03</totfact>
</mgrwt>
</event>
<event>
 7    1  0.1528561E-005  0.3680805E+03  0.7546771E-02  0.1056336E+00
          1   -1    0    0  501    0  0.00000000000E+00  0.00000000000E+00  0.99953327921E+03  0.99953327921E+03  0.00000000000E+00 0. -1.
         -1   -1    0    0    0  501 -0.00000000000E+00 -0.00000000000E+00 -0.13299509175E+03  0.13299509175E+03  0.00000000000E+00 0.  1.
         23    2    1    2    0    0 -0.22206233237E+03  0.26560772081E+03  0.38246921468E+03  0.52441158514E+03  0.94157684951E+02 0.  0.
          5    1    1    2  502    0  0.71374061466E+02 -0.45609077151E+02  0.20619711952E+03  0.22296588678E+03  0.47000000000E+01 0.  1.
         -5    1    1    2    0  502  0.15068827090E+03 -0.21999864366E+03  0.27787185326E+03  0.38515089904E+03  0.47000000000E+01 0.  1.
        -11    1    3    3    0    0 -0.11028901897E+03  0.16341726230E+03  0.15338158523E+03  0.24978947138E+03  0.00000000000E+00 0.  1.
         11    1    3    3    0    0 -0.11177331339E+03  0.10219045851E+03  0.22908762945E+03  0.27462211376E+03  0.00000000000E+00 0. -1.
<mgrwt>
<rscale>  0 0.36573363E+03</rscale>
<asrwt>0</asrwt>
<pdfrwt beam="1">  1        1 0.15377435E+00 0.36808050E+03</pdfrwt>
<pdfrwt beam="2">  1       -1 0.20460784E-01 0.36808050E+03</pdfrwt>
<totfact> 0.30964118E+02</totfact>
</mgrwt>
</event>
<event>
 7    1  0.1446636E-005  0.1524532E+03  0.7546771E-02  0.1206160E+00
          3   -1    0    0  501    0  0.00000000000E+00  0.00000000000E+00  0.35446806822E+03  0.35446806822E+03  0.00000000000E+00 0. -1.
         -3   -1    0    0    0  501 -0.00000000000E+00 -0.00000000000E+00 -0.54827130497E+02  0.54827130497E+02  0.00000000000E+00 0.  1.
         23    2    1    2    0    0 -0.42065649619E+02 -0.76467865508E+02  0.13513199707E+03  0.18500709224E+03  0.91378959368E+02 0.  0.
          5    1    1    2  502    0  0.65206616799E+02  0.53372441178E+02  0.36262225591E+02  0.91856188449E+02  0.47000000000E+01 0.  1.
         -5    1    1    2    0  502 -0.23140967179E+02  0.23095424330E+02  0.12824671506E+03  0.13243191802E+03  0.47000000000E+01 0.  1.
        -11    1    3    3    0    0 -0.42740548469E+02 -0.14117332379E+02  0.11371273933E+02  0.46425848703E+02  0.00000000000E+00 0.  1.
         11    1    3    3    0    0  0.67489884965E+00 -0.62350533130E+02  0.12376072314E+03  0.13858124354E+03  0.00000000000E+00 0. -1.
<mgrwt>
<rscale>  0 0.14546386E+03</rscale>
<asrwt>0</asrwt>
<pdfrwt beam="1">  1        3 0.54533547E-01 0.15245315E+03</pdfrwt>
<pdfrwt beam="2">  1       -3 0.84349434E-02 0.15245315E+03</pdfrwt>
<totfact> 0.77115197E+02</totfact>
</mgrwt>
</event>
<event>
 7    1  0.1446636E-005  0.1431177E+03  0.7546771E-02  0.1227557E+00
         -2   -1    0    0    0  501 -0.00000000000E+00  0.00000000000E+00  0.14647151497E+02  0.14647151497E+02  0.00000000000E+00 0.  1.
          2   -1    0    0  501    0  0.00000000000E+00 -0.00000000000E+00 -0.99093636503E+03  0.99093636503E+03  0.00000000000E+00 0. -1.
         23    2    1    2    0    0  0.61735722799E+01 -0.32673161052E+02 -0.36037160927E+03  0.37325673468E+03  0.91363257200E+02 0.  0.
          5    1    1    2  502    0 -0.34374693462E+02 -0.42302664111E+02 -0.35973089873E+03  0.36386748198E+03  0.47000000000E+01 0. -1.
         -5    1    1    2    0  502  0.28201121182E+02  0.74975825164E+02 -0.25618670553E+03  0.26845929986E+03  0.47000000000E+01 0.  1.
        -11    1    3    3    0    0 -0.40270313213E+02 -0.86728829258E+01 -0.10941315615E+03  0.11691088813E+03  0.00000000000E+00 0. -1.
         11    1    3    3    0    0  0.46443885493E+02 -0.24000278127E+02 -0.25095845312E+03  0.25634584655E+03  0.00000000000E+00 0.  1.
<mgrwt>
<rscale>  0 0.12993182E+03</rscale>
<asrwt>0</asrwt>
<pdfrwt beam="2">  1        2 0.15245175E+00 0.14311766E+03</pdfrwt>
<pdfrwt beam="1">  1       -2 0.22534079E-02 0.14311766E+03</pdfrwt>
<totfact> 0.16545700E+04</totfact>
</mgrwt>
</event>
<event>
 7    1  0.1446636E-005  0.1414200E+03  0.7546771E-02  0.1223191E+00
          2   -1    0    0  501    0  0.00000000000E+00  0.00000000000E+00  0.41949443240E+03  0.41949443240E+03  0.00000000000E+00 0. -1.
         -2   -1    0    0    0  501 -0.00000000000E+00 -0.00000000000E+00 -0.38185084243E+02  0.38185084243E+02  0.00000000000E+00 0.  1.
         23    2    1    2    0    0 -0.10145283314E+02  0.65356699710E+02  0.19085059357E+03  0.22045776284E+03  0.88336012817E+02 0.  0.
          5    1    1    2  502    0  0.35280807744E+02  0.27467778543E+02  0.66270180574E+02  0.80081465311E+02  0.47000000000E+01 0. -1.
         -5    1    1    2    0  502 -0.25135524430E+02 -0.92824478253E+02  0.12418857402E+03  0.15714028849E+03  0.47000000000E+01 0. -1.
        -11    1    3    3    0    0  0.25865477063E+02  0.27975106720E+02  0.22412408468E+02  0.44203456347E+02  0.00000000000E+00 0.  1.
         11    1    3    3    0    0 -0.36010760377E+02  0.37381592989E+02  0.16843818510E+03  0.17625430649E+03  0.00000000000E+00 0. -1.
<mgrwt>
<rscale>  0 0.13291645E+03</rscale>
<asrwt>0</asrwt>
<pdfrwt beam="1">  1        2 0.64537602E-01 0.14142002E+03</pdfrwt>
<pdfrwt beam="2">  1       -2 0.58746286E-02 0.14142002E+03</pdfrwt>
<totfact> 0.11016114E+04</totfact>
</mgrwt>
</event>
<event>
 7    1  0.1446636E-005  0.3435598E+03  0.7546771E-02  0.1093708E+00
          2   -1    0    0  501    0  0.00000000000E+00  0.00000000000E+00  0.15252928165E+04  0.15252928165E+04  0.00000000000E+00 0. -1.
         -2   -1    0    0    0  501 -0.00000000000E+00 -0.00000000000E+00 -0.41830759047E+02  0.41830759047E+02  0.00000000000E+00 0.  1.
         23    2    1    2    0    0 -0.10745855309E+03  0.74863044265E+02  0.40818725638E+03  0.43829709833E+03  0.91300022473E+02 0.  0.
          5    1    1    2  502    0  0.33967154608E+02 -0.12114413627E+03  0.10155338312E+04  0.10233087128E+04  0.47000000000E+01 0. -1.
         -5    1    1    2    0  502  0.73491398485E+02  0.46281092002E+02  0.59740969852E+02  0.10551776441E+03  0.47000000000E+01 0.  1.
        -11    1    3    3    0    0  0.37175733937E+01  0.43139910031E+02  0.13079665768E+03  0.13777749399E+03  0.00000000000E+00 0. -1.
         11    1    3    3    0    0 -0.11117612649E+03  0.31723134234E+02  0.27739059870E+03  0.30051960434E+03  0.00000000000E+00 0.  1.
<mgrwt>
<rscale>  0 0.28365645E+03</rscale>
<asrwt>0</asrwt>
<pdfrwt beam="1">  1        2 0.23466039E+00 0.34355977E+03</pdfrwt>
<pdfrwt beam="2">  1       -2 0.64355026E-02 0.34355977E+03</pdfrwt>
<totfact> 0.17521932E+03</totfact>
</mgrwt>
</event>
<event>
 7    1  0.1446636E-005  0.1262685E+03  0.7546771E-02  0.1248755E+00
         -2   -1    0    0    0  501 -0.00000000000E+00  0.00000000000E+00  0.35741361506E+03  0.35741361506E+03  0.00000000000E+00 0.  1.
          2   -1    0    0  501    0  0.00000000000E+00 -0.00000000000E+00 -0.35740288809E+02  0.35740288809E+02  0.00000000000E+00 0. -1.
         23    2    1    2    0    0 -0.75382963256E+01 -0.16230744489E+02  0.86472705099E+02  0.12620249421E+03  0.90162507951E+02 0.  0.
          5    1    1    2  502    0 -0.20162553315E+02 -0.45419985950E+02  0.15005551150E+03  0.15813997031E+03  0.47000000000E+01 0.  1.
         -5    1    1    2    0  502  0.27700849640E+02  0.61650730439E+02  0.85145109661E+02  0.10881143935E+03  0.47000000000E+01 0.  1.
        -11    1    3    3    0    0  0.10861010602E+02  0.13527489326E+02  0.89424080536E+02  0.91091276742E+02  0.00000000000E+00 0.  1.
         11    1    3    3    0    0 -0.18399306928E+02 -0.29758233815E+02 -0.29513754374E+01  0.35111217469E+02  0.00000000000E+00 0. -1.
<mgrwt>
<rscale>  0 0.11663403E+03</rscale>
<asrwt>0</asrwt>
<pdfrwt beam="2">  1        2 0.54985062E-02 0.12626846E+03</pdfrwt>
<pdfrwt beam="1">  1       -2 0.54986707E-01 0.12626846E+03</pdfrwt>
<totfact> 0.41532928E+03</totfact>
</mgrwt>
</event>
<event>
 7    1  0.1446636E-005  0.1265024E+03  0.7546771E-02  0.1245514E+00
          2   -1    0    0  501    0  0.00000000000E+00  0.00000000000E+00  0.42247097694E+02  0.42247097694E+02  0.00000000000E+00 0. -1.
         -2   -1    0    0    0  501 -0.00000000000E+00 -0.00000000000E+00 -0.32437575082E+03  0.32437575082E+03  0.00000000000E+00 0.  1.
         23    2    1    2    0    0  0.92027118130E+00 -0.19419797927E+02 -0.71606782925E+02  0.12101685382E+03  0.95601109294E+02 0.  0.
          5    1    1    2  502    0  0.61481058422E+02  0.63883161067E+01 -0.11552097159E+03  0.13110269259E+03  0.47000000000E+01 0.  1.
         -5    1    1    2    0  502 -0.62401329603E+02  0.13031481821E+02 -0.95000898613E+02  0.11450330210E+03  0.47000000000E+01 0.  1.
        -11    1    3    3    0    0 -0.44234132584E+02 -0.10876462004E+02 -0.56642139065E+02  0.72686228607E+02  0.00000000000E+00 0.  1.
         11    1    3    3    0    0  0.45154403766E+02 -0.85433359232E+01 -0.14964643859E+02  0.48330625218E+02  0.00000000000E+00 0. -1.
<mgrwt>
<rscale>  0 0.11854674E+03</rscale>
<asrwt>0</asrwt>
<pdfrwt beam="1">  1        2 0.64995536E-02 0.12650236E+03</pdfrwt>
<pdfrwt beam="2">  1       -2 0.49903961E-01 0.12650236E+03</pdfrwt>
<totfact> 0.40652660E+03</totfact>
</mgrwt>
</event>
<event>
 7    1  0.1446636E-005  0.1505631E+03  0.7546771E-02  0.1209240E+00
          1   -1    0    0  501    0  0.00000000000E+00  0.00000000000E+00  0.71036701504E+03  0.71036701504E+03  0.00000000000E+00 0. -1.
         -1   -1    0    0    0  501 -0.00000000000E+00 -0.00000000000E+00 -0.26300397588E+02  0.26300397588E+02  0.00000000000E+00 0.  1.
         23    2    1    2    0    0  0.76700058333E+02 -0.34090412582E+02  0.31009379062E+03  0.33352360916E+03  0.89636955029E+02 0.  0.
          5    1    1    2  502    0  0.27211997131E+02  0.78243893383E+01  0.25036047845E+02  0.38086842190E+02  0.47000000000E+01 0.  1.
         -5    1    1    2    0  502 -0.10391205546E+03  0.26266023244E+02  0.34893677899E+03  0.36505696128E+03  0.47000000000E+01 0.  1.
        -11    1    3    3    0    0  0.93729201572E+02 -0.42285466610E+02  0.27616125197E+03  0.29468332325E+03  0.00000000000E+00 0.  1.
         11    1    3    3    0    0 -0.17029143240E+02  0.81950540283E+01  0.33932538650E+02  0.38840285905E+02  0.00000000000E+00 0. -1.
<mgrwt>
<rscale>  0 0.14308316E+03</rscale>
<asrwt>0</asrwt>
<pdfrwt beam="1">  1        1 0.10928722E+00 0.15056311E+03</pdfrwt>
<pdfrwt beam="2">  1       -1 0.40462156E-02 0.15056311E+03</pdfrwt>
<totfact> 0.64726504E+03</totfact>
</mgrwt>
</event>
<event>
 7    1  0.1446636E-005  0.1957243E+03  0.7546771E-02  0.1158288E+00
         -1   -1    0    0    0  501 -0.00000000000E+00  0.00000000000E+00  0.13816945521E+03  0.13816945521E+03  0.00000000000E+00 0.  1.
          1   -1    0    0  501    0  0.00000000000E+00 -0.00000000000E+00 -0.27439624747E+03  0.27439624747E+03  0.00000000000E+00 0. -1.
         23    2    1    2    0    0 -0.70034268181E+02 -0.13339367209E+03 -0.12844095776E+03  0.21668662379E+03  0.88075778883E+02 0.  0.
          5    1    1    2  502    0  0.18851043425E+02  0.77441582740E+02 -0.63210870575E+02  0.10183449678E+03  0.47000000000E+01 0.  1.
         -5    1    1    2    0  502  0.51183224756E+02  0.55952089349E+02  0.55425036087E+02  0.94044582110E+02  0.47000000000E+01 0.  1.
        -11    1    3    3    0    0 -0.82033809155E+01 -0.10201609821E+03 -0.95265542913E+02  0.13982168436E+03  0.00000000000E+00 0. -1.
         11    1    3    3    0    0 -0.61830887265E+02 -0.31377573883E+02 -0.33175414852E+02  0.76864939429E+02  0.00000000000E+00 0.  1.
<mgrwt>
<rscale>  0 0.19019218E+03</rscale>
<asrwt>0</asrwt>
<pdfrwt beam="2">  1        1 0.42214807E-01 0.19572428E+03</pdfrwt>
<pdfrwt beam="1">  1       -1 0.21256839E-01 0.19572428E+03</pdfrwt>
<totfact> 0.17731425E+03</totfact>
</mgrwt>
</event>
<event>
 7    1  0.1446636E-005  0.1257313E+03  0.7546771E-02  0.1248660E+00
         -2   -1    0    0    0  501 -0.00000000000E+00  0.00000000000E+00  0.59080510093E+02  0.59080510093E+02  0.00000000000E+00 0.  1.
          2   -1    0    0  501    0  0.00000000000E+00 -0.00000000000E+00 -0.21154825346E+03  0.21154825346E+03  0.00000000000E+00 0. -1.
         23    2    1    2    0    0  0.55214441988E+01  0.12365981475E+02 -0.92353745626E+02  0.13126571717E+03  0.92293392662E+02 0.  0.
          5    1    1    2  502    0 -0.48977630323E+02 -0.13584812332E+02 -0.77089718524E+02  0.92456855345E+02  0.47000000000E+01 0. -1.
         -5    1    1    2    0  502  0.43456186125E+02  0.12188308562E+01  0.16975720787E+02  0.46906191035E+02  0.47000000000E+01 0. -1.
        -11    1    3    3    0    0  0.20587736078E+01 -0.33175925696E+02 -0.75655602036E+02  0.82635650382E+02  0.00000000000E+00 0. -1.
         11    1    3    3    0    0  0.34626705910E+01  0.45541907171E+02 -0.16698143589E+02  0.48630066788E+02  0.00000000000E+00 0.  1.
<mgrwt>
<rscale>  0 0.11668948E+03</rscale>
<asrwt>0</asrwt>
<pdfrwt beam="2">  1        2 0.32545885E-01 0.12573132E+03</pdfrwt>
<pdfrwt beam="1">  1       -2 0.90893093E-02 0.12573132E+03</pdfrwt>
<totfact> 0.11575064E+04</totfact>
</mgrwt>
</event>
<event>
 7    1  0.1446636E-005  0.1394681E+03  0.7546771E-02  0.1224103E+00
          2   -1    0    0  501    0  0.00000000000E+00  0.00000000000E+00  0.21332158539E+03  0.21332158539E+03  0.00000000000E+00 0. -1.
         -2   -1    0    0    0  501 -0.00000000000E+00 -0.00000000000E+00 -0.81333205718E+02  0.81333205718E+02  0.00000000000E+00 0.  1.
         23    2    1    2    0    0  0.41847049092E+02 -0.45587365001E+02  0.10169178742E+03  0.15193393378E+03  0.94410366165E+02 0.  0.
          5    1    1    2  502    0 -0.41971708250E+02  0.86416625420E+02  0.32594442317E+02  0.10155759505E+03  0.47000000000E+01 0. -1.
         -5    1    1    2    0  502  0.12465915787E+00 -0.40829260420E+02 -0.22978500666E+01  0.41163262276E+02  0.47000000000E+01 0. -1.
        -11    1    3    3    0    0  0.27178662572E+02 -0.30756804963E+02 -0.66697404306E+01  0.41583003597E+02  0.00000000000E+00 0.  1.
         11    1    3    3    0    0  0.14668386521E+02 -0.14830560038E+02  0.10836152785E+03  0.11035093018E+03  0.00000000000E+00 0. -1.
<mgrwt>
<rscale>  0 0.13228601E+03</rscale>
<asrwt>0</asrwt>
<pdfrwt beam="1">  1        2 0.32818705E-01 0.13946813E+03</pdfrwt>
<pdfrwt beam="2">  1       -2 0.12512801E-01 0.13946813E+03</pdfrwt>
<totfact> 0.69787840E+03</totfact>
</mgrwt>
</event>
<event>
 7    1  0.1446636E-005  0.1292465E+03  0.7546771E-02  0.1242872E+00
         -4   -1    0    0    0  501 -0.00000000000E+00  0.00000000000E+00  0.69865097206E+02  0.69865097206E+02  0.00000000000E+00 0.  1.
          4   -1    0    0  501    0  0.00000000000E+00 -0.00000000000E+00 -0.19034733051E+03  0.19034733051E+03  0.00000000000E+00 0. -1.
         23    2    1    2    0    0 -0.27027585947E+02 -0.18692623169E+02 -0.78300287146E+02  0.12425660207E+03  0.90713084109E+02 0.  0.
          5    1    1    2  502    0  0.27013264282E+02 -0.51516657443E+02 -0.25211366430E+02  0.63571891891E+02  0.47000000000E+01 0. -1.
         -5    1    1    2    0  502  0.14321664390E-01  0.70209280612E+02 -0.16970579727E+02  0.72383933752E+02  0.47000000000E+01 0. -1.
        -11    1    3    3    0    0  0.24595695154E+00 -0.44809834578E+02 -0.95477391855E+01  0.45816384550E+02  0.00000000000E+00 0.  1.
         11    1    3    3    0    0 -0.27273542898E+02  0.26117211409E+02 -0.68752547961E+02  0.78440217523E+02  0.00000000000E+00 0. -1.
<mgrwt>
<rscale>  0 0.12013671E+03</rscale>
<asrwt>0</asrwt>
<pdfrwt beam="2">  1        4 0.29284204E-01 0.12924655E+03</pdfrwt>
<pdfrwt beam="1">  1       -4 0.10748477E-01 0.12924655E+03</pdfrwt>
<totfact> 0.12188130E+03</totfact>
</mgrwt>
</event>
<event>
 7    1  0.1446636E-005  0.1449896E+03  0.7546771E-02  0.1217200E+00
          1   -1    0    0  501    0  0.00000000000E+00  0.00000000000E+00  0.59652407286E+02  0.59652407286E+02  0.00000000000E+00 0. -1.
         -1   -1    0    0    0  501 -0.00000000000E+00 -0.00000000000E+00 -0.30270173073E+03  0.30270173073E+03  0.00000000000E+00 0.  1.
         23    2    1    2    0    0 -0.21408633976E+02  0.70258278774E+02 -0.66200700606E+02  0.13366787868E+03  0.89944503362E+02 0.  0.
          5    1    1    2  502    0 -0.13884702030E+02  0.32792583079E+02 -0.41490688563E+02  0.54879009584E+02  0.47000000000E+01 0. -1.
         -5    1    1    2    0  502  0.35293336006E+02 -0.10305086185E+03 -0.13535793427E+03  0.17380724975E+03  0.47000000000E+01 0. -1.
        -11    1    3    3    0    0 -0.32194108134E+02  0.75465120319E+02 -0.17993594848E+02  0.83995323911E+02  0.00000000000E+00 0. -1.
         11    1    3    3    0    0  0.10785474158E+02 -0.52068415455E+01 -0.48207105758E+02  0.49672554769E+02  0.00000000000E+00 0.  1.
<mgrwt>
<rscale>  0 0.13716148E+03</rscale>
<asrwt>0</asrwt>
<pdfrwt beam="1">  1        1 0.91772934E-02 0.14498955E+03</pdfrwt>
<pdfrwt beam="2">  1       -1 0.46569497E-01 0.14498955E+03</pdfrwt>
<totfact> 0.32631974E+03</totfact>
</mgrwt>
</event>
<event>
 7    1  0.1446636E-005  0.1327885E+03  0.7546771E-02  0.1231065E+00
          1   -1    0    0  501    0  0.00000000000E+00  0.00000000000E+00  0.14878852475E+03  0.14878852475E+03  0.00000000000E+00 0. -1.
         -1   -1    0    0    0  501 -0.00000000000E+00 -0.00000000000E+00 -0.13296740080E+03  0.13296740080E+03  0.00000000000E+00 0.  1.
         23    2    1    2    0    0  0.53357519457E+02  0.35579906620E+02  0.75600848492E+02  0.13613178202E+03  0.93292117271E+02 0.  0.
          5    1    1    2  502    0  0.35987735479E+02 -0.59582909363E+01 -0.27791386694E+02  0.46098476224E+02  0.47000000000E+01 0. -1.
         -5    1    1    2    0  502 -0.89345254937E+02 -0.29621615683E+02 -0.31988337850E+02  0.99525667311E+02  0.47000000000E+01 0.  1.
        -11    1    3    3    0    0  0.10678120878E+02 -0.24030786524E+00 -0.21598195294E+02  0.24094855329E+02  0.00000000000E+00 0.  1.
         11    1    3    3    0    0  0.42679398579E+02  0.35820214485E+02  0.97199043786E+02  0.11203692669E+03  0.00000000000E+00 0. -1.
<mgrwt>
<rscale>  0 0.12759713E+03</rscale>
<asrwt>0</asrwt>
<pdfrwt beam="1">  1        1 0.22890542E-01 0.13278846E+03</pdfrwt>
<pdfrwt beam="2">  1       -1 0.20456523E-01 0.13278846E+03</pdfrwt>
<totfact> 0.39937147E+03</totfact>
</mgrwt>
</event>
<event>
 7    1  0.1446636E-005  0.1357587E+03  0.7546771E-02  0.1231940E+00
         -3   -1    0    0    0  501 -0.00000000000E+00  0.00000000000E+00  0.42437022042E+03  0.42437022042E+03  0.00000000000E+00 0.  1.
          3   -1    0    0  501    0  0.00000000000E+00 -0.00000000000E+00 -0.37669905313E+02  0.37669905313E+02  0.00000000000E+00 0. -1.
         23    2    1    2    0    0  0.48375630993E+02  0.21556855348E+02  0.97639255058E+02  0.14268653786E+03  0.89560729521E+02 0.  0.
          5    1    1    2  502    0  0.34975300482E+02 -0.46907474581E-01  0.29978032408E+02  0.46303847261E+02  0.47000000000E+01 0.  1.
         -5    1    1    2    0  502 -0.83350931475E+02 -0.21509947873E+02  0.25908302764E+03  0.27304974061E+03  0.47000000000E+01 0.  1.
        -11    1    3    3    0    0  0.36952132539E+02 -0.20120705177E+02  0.89242324177E+02  0.98663545955E+02  0.00000000000E+00 0.  1.
         11    1    3    3    0    0  0.11423498453E+02  0.41677560525E+02  0.83969308814E+01  0.44022991907E+02  0.00000000000E+00 0. -1.
<mgrwt>
<rscale>  0 0.12702357E+03</rscale>
<asrwt>0</asrwt>
<pdfrwt beam="2">  1        3 0.57953704E-02 0.13575867E+03</pdfrwt>
<pdfrwt beam="1">  1       -3 0.65287723E-01 0.13575867E+03</pdfrwt>
<totfact> 0.95818984E+02</totfact>
</mgrwt>
</event>
<event>
 7    1  0.1446636E-005  0.1506280E+03  0.7546771E-02  0.1208864E+00
         -1   -1    0    0    0  501 -0.00000000000E+00  0.00000000000E+00  0.44969222181E+02  0.44969222181E+02  0.00000000000E+00 0.  1.
          1   -1    0    0  501    0  0.00000000000E+00 -0.00000000000E+00 -0.42363109941E+03  0.42363109941E+03  0.00000000000E+00 0. -1.
         23    2    1    2    0    0  0.82831828934E+02 -0.14239813902E+02 -0.14444526246E+03  0.19012909207E+03  0.90668371671E+02 0.  0.
          5    1    1    2  502    0 -0.88005668290E+02  0.22339653767E+02 -0.72192812906E+02  0.11609457359E+03  0.47000000000E+01 0.  1.
         -5    1    1    2    0  502  0.51738393560E+01 -0.80998398650E+01 -0.16202380187E+03  0.16237665593E+03  0.47000000000E+01 0.  1.
        -11    1    3    3    0    0  0.37822352548E+02 -0.37940167106E+02 -0.12441620595E+03  0.13545987943E+03  0.00000000000E+00 0. -1.
         11    1    3    3    0    0  0.45009476387E+02  0.23700353204E+02 -0.20029056511E+02  0.54669212646E+02  0.00000000000E+00 0.  1.
<mgrwt>
<rscale>  0 0.14337097E+03</rscale>
<asrwt>0</asrwt>
<pdfrwt beam="2">  1        1 0.65174014E-01 0.15062803E+03</pdfrwt>
<pdfrwt beam="1">  1       -1 0.69183420E-02 0.15062803E+03</pdfrwt>
<totfact> 0.58376995E+03</totfact>
</mgrwt>
</event>
<event>
 7    1  0.1446636E-005  0.1812039E+03  0.7546771E-02  0.1172034E+00
          2   -1    0    0  501    0  0.00000000000E+00  0.00000000000E+00  0.93615878030E+03  0.93615878030E+03  0.00000000000E+00 0. -1.
         -2   -1    0    0    0  501 -0.00000000000E+00 -0.00000000000E+00 -0.37347713529E+02  0.37347713529E+02  0.00000000000E+00 0.  1.
         23    2    1    2    0    0 -0.35382151206E+02 -0.12632871704E+03  0.62478982873E+03  0.64499090383E+03  0.91869987253E+02 0.  0.
          5    1    1    2  502    0  0.29831474213E+02  0.15176802457E+03  0.23452737707E+03  0.28097798976E+03  0.47000000000E+01 0. -1.
         -5    1    1    2    0  502  0.55506769933E+01 -0.25439307525E+02  0.39493860963E+02  0.47537600236E+02  0.47000000000E+01 0. -1.
        -11    1    3    3    0    0 -0.55528057544E+02 -0.64493043640E+02  0.46048651565E+03  0.46828468793E+03  0.00000000000E+00 0. -1.
         11    1    3    3    0    0  0.20145906338E+02 -0.61835673401E+02  0.16430331308E+03  0.17670621590E+03  0.00000000000E+00 0.  1.
<mgrwt>
<rscale>  0 0.17569668E+03</rscale>
<asrwt>0</asrwt>
<pdfrwt beam="1">  1        2 0.14402441E+00 0.18120390E+03</pdfrwt>
<pdfrwt beam="2">  1       -2 0.57458028E-02 0.18120390E+03</pdfrwt>
<totfact> 0.44930829E+03</totfact>
</mgrwt>
</event>
<event>
 7    1  0.1446636E-005  0.1282099E+03  0.7546771E-02  0.1243675E+00
         -2   -1    0    0    0  501 -0.00000000000E+00  0.00000000000E+00  0.19710785158E+03  0.19710785158E+03  0.00000000000E+00 0.  1.
          2   -1    0    0  501    0  0.00000000000E+00 -0.00000000000E+00 -0.67247359793E+02  0.67247359793E+02  0.00000000000E+00 0. -1.
         23    2    1    2    0    0 -0.18701770079E+02 -0.21507685266E+02  0.82986875760E+02  0.12784544666E+03  0.92980105148E+02 0.  0.
          5    1    1    2  502    0 -0.25640019154E+02  0.61970752822E+02  0.17266387561E+02  0.69411835641E+02  0.47000000000E+01 0.  1.
         -5    1    1    2    0  502  0.44341789233E+02 -0.40463067557E+02  0.29607228463E+02  0.67097929072E+02  0.47000000000E+01 0.  1.
        -11    1    3    3    0    0  0.17491200556E+02 -0.17590067501E+02  0.87696750630E+02  0.91137657654E+02  0.00000000000E+00 0.  1.
         11    1    3    3    0    0 -0.36192970635E+02 -0.39176177649E+01 -0.47098748694E+01  0.36707789005E+02  0.00000000000E+00 0. -1.
<mgrwt>
<rscale>  0 0.11965036E+03</rscale>
<asrwt>0</asrwt>
<pdfrwt beam="2">  1        2 0.10345748E-01 0.12820991E+03</pdfrwt>
<pdfrwt beam="1">  1       -2 0.30324285E-01 0.12820991E+03</pdfrwt>
<totfact> 0.58144883E+03</totfact>
</mgrwt>
</event>
<event>
 7    1  0.1446636E-005  0.1451394E+03  0.7546771E-02  0.1218922E+00
          2   -1    0    0  501    0  0.00000000000E+00  0.00000000000E+00  0.32394134448E+03  0.32394134448E+03  0.00000000000E+00 0. -1.
         -2   -1    0    0    0  501 -0.00000000000E+00 -0.00000000000E+00 -0.51078103909E+02  0.51078103909E+02  0.00000000000E+00 0.  1.
         23    2    1    2    0    0  0.61796122834E+02 -0.14853955367E+02  0.10728436546E+03  0.15483360494E+03  0.91782947000E+02 0.  0.
          5    1    1    2  502    0  0.89715090702E+00  0.33233488761E+02  0.14883994575E+03  0.15258010718E+03  0.47000000000E+01 0. -1.
         -5    1    1    2    0  502 -0.62693273741E+02 -0.18379533394E+02  0.16738929357E+02  0.67605736267E+02  0.47000000000E+01 0.  1.
        -11    1    3    3    0    0  0.48673882991E+02  0.23884491144E+02  0.18854365240E+02  0.57402986780E+02  0.00000000000E+00 0. -1.
         11    1    3    3    0    0  0.13122239843E+02 -0.38738446511E+02  0.88430000222E+02  0.97430618164E+02  0.00000000000E+00 0.  1.
<mgrwt>
<rscale>  0 0.13592333E+03</rscale>
<asrwt>0</asrwt>
<pdfrwt beam="1">  1        2 0.49837129E-01 0.14513939E+03</pdfrwt>
<pdfrwt beam="2">  1       -2 0.78581700E-02 0.14513939E+03</pdfrwt>
<totfact> 0.93177239E+03</totfact>
</mgrwt>
</event>
<event>
 7    1  0.1446636E-005  0.1321454E+03  0.7546771E-02  0.1236561E+00
         -1   -1    0    0    0  501 -0.00000000000E+00  0.00000000000E+00  0.47497923949E+02  0.47497923949E+02  0.00000000000E+00 0.  1.
          1   -1    0    0  501    0  0.00000000000E+00 -0.00000000000E+00 -0.29045077698E+03  0.29045077698E+03  0.00000000000E+00 0. -1.
         23    2    1    2    0    0  0.25319685747E+02  0.34623134713E+02 -0.11209265575E+03  0.15197347111E+03  0.93227273392E+02 0.  0.
          5    1    1    2  502    0  0.32083255940E+02  0.12088849358E+02 -0.99705138515E+02  0.10553994617E+03  0.47000000000E+01 0. -1.
         -5    1    1    2    0  502 -0.57402941687E+02 -0.46711984071E+02 -0.31155058769E+02  0.80435283657E+02  0.47000000000E+01 0. -1.
        -11    1    3    3    0    0  0.80828734728E+01 -0.26247846859E+02 -0.54836754100E+01  0.28006302939E+02  0.00000000000E+00 0.  1.
         11    1    3    3    0    0  0.17236812274E+02  0.60870981572E+02 -0.10660898034E+03  0.12396716817E+03  0.00000000000E+00 0. -1.
<mgrwt>
<rscale>  0 0.12405050E+03</rscale>
<asrwt>0</asrwt>
<pdfrwt beam="2">  1        1 0.44684735E-01 0.13214536E+03</pdfrwt>
<pdfrwt beam="1">  1       -1 0.73073728E-02 0.13214536E+03</pdfrwt>
<totfact> 0.85500349E+03</totfact>
</mgrwt>
</event>
<event>
 7    1  0.1446636E-005  0.1604141E+03  0.7546771E-02  0.1195875E+00
          2   -1    0    0  501    0  0.00000000000E+00  0.00000000000E+00  0.96787360243E+02  0.96787360243E+02  0.00000000000E+00 0. -1.
         -2   -1    0    0    0  501 -0.00000000000E+00 -0.00000000000E+00 -0.22787536083E+03  0.22787536083E+03  0.00000000000E+00 0.  1.
         23    2    1    2    0    0  0.96232663505E+02  0.29095320350E+02 -0.46531017460E+02  0.14332717735E+03  0.90941085268E+02 0.  0.
          5    1    1    2  502    0 -0.26673898198E+02  0.26427965437E+02 -0.84085946087E+02  0.92208841938E+02  0.47000000000E+01 0.  1.
         -5    1    1    2    0  502 -0.69558765307E+02 -0.55523285787E+02 -0.47103704283E+00  0.89126701788E+02  0.47000000000E+01 0.  1.
        -11    1    3    3    0    0 -0.24482500727E+01  0.24263189511E+02  0.13346501181E+02  0.27799737183E+02  0.00000000000E+00 0. -1.
         11    1    3    3    0    0  0.98680913578E+02  0.48321308386E+01 -0.59877518640E+02  0.11552744017E+03  0.00000000000E+00 0.  1.
<mgrwt>
<rscale>  0 0.15380410E+03</rscale>
<asrwt>0</asrwt>
<pdfrwt beam="1">  1        2 0.14890363E-01 0.16041414E+03</pdfrwt>
<pdfrwt beam="2">  1       -2 0.35057747E-01 0.16041414E+03</pdfrwt>
<totfact> 0.29241712E+03</totfact>
</mgrwt>
</event>
<event>
 7    1  0.1446636E-005  0.1768015E+03  0.7546771E-02  0.1176981E+00
          2   -1    0    0  501    0  0.00000000000E+00  0.00000000000E+00  0.16230958253E+03  0.16230958253E+03  0.00000000000E+00 0. -1.
         -2   -1    0    0    0  501 -0.00000000000E+00 -0.00000000000E+00 -0.20073064223E+03  0.20073064223E+03  0.00000000000E+00 0.  1.
         23    2    1    2    0    0 -0.11818821821E+03  0.40825299345E+02  0.54304152050E+02  0.16339868356E+03  0.90083455030E+02 0.  0.
          5    1    1    2  502    0  0.44582208258E+02  0.66637933600E+01 -0.10181812131E+03  0.11144953685E+03  0.47000000000E+01 0.  1.
         -5    1    1    2    0  502  0.73606009952E+02 -0.47489092705E+02  0.90929095571E+01  0.88192004350E+02  0.47000000000E+01 0.  1.
        -11    1    3    3    0    0 -0.40564203236E+02  0.55691898310E+02  0.48287537356E+02  0.84135179238E+02  0.00000000000E+00 0. -1.
         11    1    3    3    0    0 -0.77624014975E+02 -0.14866598965E+02  0.60166146947E+01  0.79263504326E+02  0.00000000000E+00 0.  1.
<mgrwt>
<rscale>  0 0.17083344E+03</rscale>
<asrwt>0</asrwt>
<pdfrwt beam="1">  1        2 0.24970705E-01 0.17680153E+03</pdfrwt>
<pdfrwt beam="2">  1       -2 0.30881637E-01 0.17680153E+03</pdfrwt>
<totfact> 0.20521607E+03</totfact>
</mgrwt>
</event>
<event>
 7    1  0.1446636E-005  0.3962802E+03  0.7546771E-02  0.1045464E+00
         -1   -1    0    0    0  501 -0.00000000000E+00  0.00000000000E+00  0.17571036584E+03  0.17571036584E+03  0.00000000000E+00 0.  1.
          1   -1    0    0  501    0  0.00000000000E+00 -0.00000000000E+00 -0.10763352154E+04  0.10763352154E+04  0.00000000000E+00 0. -1.
         23    2    1    2    0    0 -0.31789973312E+03  0.20087013279E+03 -0.71300501150E+03  0.81359464206E+03  0.11023177676E+03 0.  0.
          5    1    1    2  502    0  0.21121304786E+03 -0.11704325002E+03 -0.53013018255E+02  0.24727018434E+03  0.47000000000E+01 0. -1.
         -5    1    1    2    0  502  0.10668668526E+03 -0.83826882770E+02 -0.13460681985E+03  0.19118075488E+03  0.47000000000E+01 0. -1.
        -11    1    3    3    0    0 -0.19334924784E+03  0.80033627070E+02 -0.47492191274E+03  0.51897989971E+03  0.00000000000E+00 0. -1.
         11    1    3    3    0    0 -0.12455048528E+03  0.12083650572E+03 -0.23808309876E+03  0.29461474235E+03  0.00000000000E+00 0.  1.
<mgrwt>
<rscale>  0 0.39517240E+03</rscale>
<asrwt>0</asrwt>
<pdfrwt beam="2">  1        1 0.16559003E+00 0.39628023E+03</pdfrwt>
<pdfrwt beam="1">  1       -1 0.27032364E-01 0.39628023E+03</pdfrwt>
<totfact> 0.16973750E+02</totfact>
</mgrwt>
</event>
<event>
 7    1  0.1446636E-005  0.1344272E+03  0.7546771E-02  0.1233558E+00
          1   -1    0    0  501    0  0.00000000000E+00  0.00000000000E+00  0.45977508822E+02  0.45977508822E+02  0.00000000000E+00 0. -1.
         -1   -1    0    0    0  501 -0.00000000000E+00 -0.00000000000E+00 -0.31767531735E+03  0.31767531735E+03  0.00000000000E+00 0.  1.
         23    2    1    2    0    0 -0.33917134180E+01  0.48714163286E+02 -0.87737909973E+02  0.13581096095E+03  0.91444534237E+02 0.  0.
          5    1    1    2  502    0  0.53902547090E+02 -0.40872911023E+02 -0.49610195815E+02  0.84019884355E+02  0.47000000000E+01 0. -1.
         -5    1    1    2    0  502 -0.50510833672E+02 -0.78412522628E+01 -0.13434970274E+03  0.14382198087E+03  0.47000000000E+01 0. -1.
        -11    1    3    3    0    0 -0.20298196781E+01 -0.15882538369E+02 -0.65579478808E+02  0.67505875549E+02  0.00000000000E+00 0.  1.
         11    1    3    3    0    0 -0.13618937399E+01  0.64596701655E+02 -0.22158431165E+02  0.68305085396E+02  0.00000000000E+00 0. -1.
<mgrwt>
<rscale>  0 0.12597218E+03</rscale>
<asrwt>0</asrwt>
<pdfrwt beam="1">  1        1 0.70734628E-02 0.13442720E+03</pdfrwt>
<pdfrwt beam="2">  1       -1 0.48873127E-01 0.13442720E+03</pdfrwt>
<totfact> 0.42217338E+03</totfact>
</mgrwt>
</event>
<event>
 7    1  0.1446636E-005  0.1257614E+03  0.7546771E-02  0.1246800E+00
          2   -1    0    0  501    0  0.00000000000E+00  0.00000000000E+00  0.36301001379E+03  0.36301001379E+03  0.00000000000E+00 0. -1.
         -2   -1    0    0    0  501 -0.00000000000E+00 -0.00000000000E+00 -0.41828143511E+02  0.41828143511E+02  0.00000000000E+00 0.  1.
         23    2    1    2    0    0  0.50968950674E+01  0.13162269935E+02  0.22992766607E+03  0.24945710792E+03  0.95723003390E+02 0.  0.
          5    1    1    2  502    0  0.64962293394E+01 -0.30977858840E+02 -0.22785455116E+02  0.39282256794E+02  0.47000000000E+01 0. -1.
         -5    1    1    2    0  502 -0.11593124407E+02  0.17815588905E+02  0.11403965932E+03  0.11609879258E+03  0.47000000000E+01 0. -1.
        -11    1    3    3    0    0  0.71742209309E+00  0.54646434744E+02  0.11915395462E+03  0.13108932995E+03  0.00000000000E+00 0.  1.
         11    1    3    3    0    0  0.43794729743E+01 -0.41484164809E+02  0.11077371145E+03  0.11836777797E+03  0.00000000000E+00 0. -1.
<mgrwt>
<rscale>  0 0.11778294E+03</rscale>
<asrwt>0</asrwt>
<pdfrwt beam="1">  1        2 0.55847692E-01 0.12576144E+03</pdfrwt>
<pdfrwt beam="2">  1       -2 0.64350992E-02 0.12576144E+03</pdfrwt>
<totfact> 0.11095543E+04</totfact>
</mgrwt>
</event>
<event>
 6    1  0.1446636E-005  0.1186008E+03  0.7546771E-02  0.1286394E+00
         -4   -1    0    0    0  501 -0.00000000000E+00  0.00000000000E+00  0.24982802431E+03  0.24982802431E+03  0.00000000000E+00 0. -1.
          4   -1    0    0  501    0  0.00000000000E+00 -0.00000000000E+00 -0.77051611506E+02  0.77051611506E+02  0.00000000000E+00 0.  1.
          5    1    1    2  502    0 -0.12009765920E+02  0.58246191259E+02  0.16603548828E+03  0.17642768105E+03  0.47000000000E+01 0. -1.
         -5    1    1    2    0  502  0.35783633827E+02 -0.35554024023E+02  0.57594614572E+02  0.76705845291E+02  0.47000000000E+01 0.  1.
        -11    1    1    2    0    0 -0.23603845573E+01 -0.22521301223E+02 -0.50748649406E+01  0.23206349954E+02  0.00000000000E+00 0.  1.
         11    1    1    2    0    0 -0.21413483350E+02 -0.17086601266E+00 -0.45778825104E+02  0.50539759520E+02  0.00000000000E+00 0. -1.
<mgrwt>
<rscale>  0 0.97155402E+02</rscale>
<asrwt>0</asrwt>
<pdfrwt beam="2">  1        4 0.11854094E-01 0.11860084E+03</pdfrwt>
<pdfrwt beam="1">  1       -4 0.38435080E-01 0.11860084E+03</pdfrwt>
<totfact> 0.60185252E+02</totfact>
</mgrwt>
</event>
<event>
 7    1  0.1446636E-005  0.1376544E+03  0.7546771E-02  0.1228841E+00
         -3   -1    0    0    0  501 -0.00000000000E+00  0.00000000000E+00  0.72601242109E+02  0.72601242109E+02  0.00000000000E+00 0.  1.
          3   -1    0    0  501    0  0.00000000000E+00 -0.00000000000E+00 -0.22242782275E+03  0.22242782275E+03  0.00000000000E+00 0. -1.
         23    2    1    2    0    0  0.53173037172E+02 -0.21874495813E+02 -0.10692371721E+03  0.15084376681E+03  0.89528181233E+02 0.  0.
          5    1    1    2  502    0 -0.31547598489E+02  0.74003851542E+02 -0.30826621539E+02  0.86279728841E+02  0.47000000000E+01 0.  1.
         -5    1    1    2    0  502 -0.21625438683E+02 -0.52129355728E+02 -0.12076241894E+02  0.57905569207E+02  0.47000000000E+01 0.  1.
        -11    1    3    3    0    0  0.67167597381E+02 -0.24470686378E+02 -0.11429901761E+03  0.13481307821E+03  0.00000000000E+00 0. -1.
         11    1    3    3    0    0 -0.13994560209E+02  0.25961905652E+01  0.73753004039E+01  0.16030688599E+02  0.00000000000E+00 0.  1.
<mgrwt>
<rscale>  0 0.12907111E+03</rscale>
<asrwt>0</asrwt>
<pdfrwt beam="2">  1        3 0.34219665E-01 0.13765444E+03</pdfrwt>
<pdfrwt beam="1">  1       -3 0.11169422E-01 0.13765444E+03</pdfrwt>
<totfact> 0.11861841E+03</totfact>
</mgrwt>
</event>
<event>
 7    1  0.1446636E-005  0.1270136E+03  0.7546771E-02  0.1245662E+00
         -1   -1    0    0    0  501 -0.00000000000E+00  0.00000000000E+00  0.27983639477E+02  0.27983639477E+02  0.00000000000E+00 0.  1.
          1   -1    0    0  501    0  0.00000000000E+00 -0.00000000000E+00 -0.50510640748E+03  0.50510640748E+03  0.00000000000E+00 0. -1.
         23    2    1    2    0    0 -0.22544853747E+02 -0.28196261014E+00 -0.30084228372E+03  0.31581773969E+03  0.93415282973E+02 0.  0.
          5    1    1    2  502    0 -0.26346518563E+02  0.45688070663E+02 -0.11479172017E+03  0.12641506184E+03  0.47000000000E+01 0.  1.
         -5    1    1    2    0  502  0.48891372310E+02 -0.45406108053E+02 -0.61488764117E+02  0.90857245432E+02  0.47000000000E+01 0.  1.
        -11    1    3    3    0    0 -0.42184833551E+02  0.35485847587E+02 -0.18200204106E+03  0.19016715939E+03  0.00000000000E+00 0.  1.
         11    1    3    3    0    0  0.19639979805E+02 -0.35767810197E+02 -0.11884024267E+03  0.12565058030E+03  0.00000000000E+00 0. -1.
<mgrwt>
<rscale>  0 0.11845839E+03</rscale>
<asrwt>0</asrwt>
<pdfrwt beam="2">  1        1 0.77708681E-01 0.12701357E+03</pdfrwt>
<pdfrwt beam="1">  1       -1 0.43051751E-02 0.12701357E+03</pdfrwt>
<totfact> 0.93155315E+03</totfact>
</mgrwt>
</event>
<event>
 7    1  0.1446636E-005  0.1382078E+03  0.7546771E-02  0.1227852E+00
         -1   -1    0    0    0  501 -0.00000000000E+00  0.00000000000E+00  0.24710211722E+02  0.24710211722E+02  0.00000000000E+00 0.  1.
          1   -1    0    0  501    0  0.00000000000E+00 -0.00000000000E+00 -0.61457823994E+03  0.61457823994E+03  0.00000000000E+00 0. -1.
         23    2    1    2    0    0 -0.54762477832E+02  0.21829222261E+02 -0.28599539652E+03  0.30546217763E+03  0.89656741019E+02 0.  0.
          5    1    1    2  502    0 -0.30099697365E+02  0.19453490767E+02 -0.41910334659E+02  0.55344342400E+02  0.47000000000E+01 0.  1.
         -5    1    1    2    0  502  0.84862175197E+02 -0.41282713028E+02 -0.26196229705E+03  0.27848193164E+03  0.47000000000E+01 0.  1.
        -11    1    3    3    0    0 -0.26594386923E+01 -0.23061988420E+02 -0.19755678768E+02  0.30483024254E+02  0.00000000000E+00 0.  1.
         11    1    3    3    0    0 -0.52103039140E+02  0.44891210681E+02 -0.26623971775E+03  0.27497915338E+03  0.00000000000E+00 0. -1.
<mgrwt>
<rscale>  0 0.12973337E+03</rscale>
<asrwt>0</asrwt>
<pdfrwt beam="2">  1        1 0.94550479E-01 0.13820783E+03</pdfrwt>
<pdfrwt beam="1">  1       -1 0.38015718E-02 0.13820783E+03</pdfrwt>
<totfact> 0.86534523E+03</totfact>
</mgrwt>
</event>
<event>
 7    1  0.1446636E-005  0.1399050E+03  0.7546771E-02  0.1222575E+00
         -1   -1    0    0    0  501 -0.00000000000E+00  0.00000000000E+00  0.16860329022E+04  0.16860329022E+04  0.00000000000E+00 0.  1.
          1   -1    0    0  501    0  0.00000000000E+00 -0.00000000000E+00 -0.10633361875E+02  0.10633361875E+02  0.00000000000E+00 0. -1.
         23    2    1    2    0    0 -0.61297619841E+02  0.13819645208E+02  0.51032492144E+03  0.52322164850E+03  0.96855496631E+02 0.  0.
          5    1    1    2  502    0  0.54965334518E+02  0.10170417944E+02  0.19160905115E+03  0.19965155618E+03  0.47000000000E+01 0.  1.
         -5    1    1    2    0  502  0.63322853231E+01 -0.23990063152E+02  0.97346556774E+03  0.97379305940E+03  0.47000000000E+01 0.  1.
        -11    1    3    3    0    0 -0.57105235983E+02 -0.34325149602E+02  0.27145868321E+03  0.27951572507E+03  0.00000000000E+00 0.  1.
         11    1    3    3    0    0 -0.41923838582E+01  0.48144794810E+02  0.23886623823E+03  0.24370592343E+03  0.00000000000E+00 0. -1.
<mgrwt>
<rscale>  0 0.13334478E+03</rscale>
<asrwt>0</asrwt>
<pdfrwt beam="2">  1        1 0.16359032E-02 0.13990496E+03</pdfrwt>
<pdfrwt beam="1">  1       -1 0.25938946E+00 0.13990496E+03</pdfrwt>
<totfact> 0.55271187E+02</totfact>
</mgrwt>
</event>
<event>
 7    1  0.1446636E-005  0.1474216E+03  0.7546771E-02  0.1213457E+00
          1   -1    0    0  501    0  0.00000000000E+00  0.00000000000E+00  0.16005508677E+03  0.16005508677E+03  0.00000000000E+00 0. -1.
         -1   -1    0    0    0  501 -0.00000000000E+00 -0.00000000000E+00 -0.11560896890E+03  0.11560896890E+03  0.00000000000E+00 0.  1.
         23    2    1    2    0    0 -0.42583191709E+00  0.78145688680E+02  0.46309513597E+02  0.12823068876E+03  0.90507505211E+02 0.  0.
          5    1    1    2  502    0  0.51461627041E+02 -0.71337842640E+02 -0.23836381183E+02  0.91255958261E+02  0.47000000000E+01 0.  1.
         -5    1    1    2    0  502 -0.51035795124E+02 -0.68078460393E+01  0.21972985456E+02  0.56177408640E+02  0.47000000000E+01 0.  1.
        -11    1    3    3    0    0  0.17654387657E+02  0.19512016820E+02 -0.23506624690E+02  0.35283956811E+02  0.00000000000E+00 0.  1.
         11    1    3    3    0    0 -0.18080219574E+02  0.58633671859E+02  0.69816138287E+02  0.92946731954E+02  0.00000000000E+00 0. -1.
<mgrwt>
<rscale>  0 0.13990469E+03</rscale>
<asrwt>0</asrwt>
<pdfrwt beam="1">  1        1 0.24623859E-01 0.14742159E+03</pdfrwt>
<pdfrwt beam="2">  1       -1 0.17785995E-01 0.14742159E+03</pdfrwt>
<totfact> 0.45834211E+03</totfact>
</mgrwt>
</event>
<event>
 7    1  0.1446636E-005  0.1582871E+03  0.7546771E-02  0.1196271E+00
          2   -1    0    0  501    0  0.00000000000E+00  0.00000000000E+00  0.32409602151E+03  0.32409602151E+03  0.00000000000E+00 0. -1.
         -2   -1    0    0    0  501 -0.00000000000E+00 -0.00000000000E+00 -0.69122233819E+02  0.69122233819E+02  0.00000000000E+00 0.  1.
         23    2    1    2    0    0  0.65409643604E+02 -0.71899475659E+02  0.13703790081E+03  0.19582602060E+03  0.10060063622E+03 0.  0.
          5    1    1    2  502    0 -0.45705107873E+02 -0.63639864590E+01 -0.86593158748E+01  0.47186131021E+02  0.47000000000E+01 0.  1.
         -5    1    1    2    0  502 -0.19704535731E+02  0.78263462118E+02  0.12659520275E+03  0.15020610371E+03  0.47000000000E+01 0.  1.
        -11    1    3    3    0    0  0.20282212210E+01 -0.41010253358E+02 -0.72662930169E+00  0.41066805963E+02  0.00000000000E+00 0.  1.
         11    1    3    3    0    0  0.63381422383E+02 -0.30889222301E+02  0.13776453012E+03  0.15475921464E+03  0.00000000000E+00 0. -1.
<mgrwt>
<rscale>  0 0.15347187E+03</rscale>
<asrwt>0</asrwt>
<pdfrwt beam="1">  1        2 0.49860925E-01 0.15828715E+03</pdfrwt>
<pdfrwt beam="2">  1       -2 0.10634190E-01 0.15828715E+03</pdfrwt>
<totfact> 0.58342050E+03</totfact>
</mgrwt>
</event>
<event>
 7    1  0.1446636E-005  0.2258075E+03  0.7546771E-02  0.1129626E+00
          2   -1    0    0  501    0  0.00000000000E+00  0.00000000000E+00  0.13587570640E+03  0.13587570640E+03  0.00000000000E+00 0.  1.
         -2   -1    0    0    0  501 -0.00000000000E+00 -0.00000000000E+00 -0.93815608907E+02  0.93815608907E+02  0.00000000000E+00 0. -1.
         23    2    1    2    0    0  0.20796214405E+02 -0.23315792776E+02  0.24116903734E+02  0.99592151754E+02  0.91437754341E+02 0.  0.
          5    1    1    2  502    0  0.44149712539E+02 -0.20190524057E+02  0.17398499506E+02  0.51784671130E+02  0.47000000000E+01 0. -1.
         -5    1    1    2    0  502 -0.64945926944E+02  0.43506316833E+02  0.54469424742E+00  0.78314492419E+02  0.47000000000E+01 0. -1.
        -11    1    3    3    0    0 -0.67393889738E+01 -0.34866911728E+02 -0.24071777678E+02  0.42901880819E+02  0.00000000000E+00 0. -1.
         11    1    3    3    0    0  0.27535603378E+02  0.11551118953E+02  0.48188681412E+02  0.56690270935E+02  0.00000000000E+00 0.  1.
<mgrwt>
<rscale>  0 0.22580755E+03</rscale>
<asrwt>0</asrwt>
<pdfrwt beam="1">  1        2 0.20903955E-01 0.22580755E+03</pdfrwt>
<pdfrwt beam="2">  1       -2 0.14433171E-01 0.22580755E+03</pdfrwt>
<totfact> 0.94162964E+03</totfact>
</mgrwt>
</event>
<event>
 6    1  0.1848238E-005  0.1158794E+03  0.7546771E-02  0.1310472E+00
          4   -1    0    0  501    0  0.00000000000E+00  0.00000000000E+00  0.45847412931E+02  0.45847412931E+02  0.00000000000E+00 0. -1.
         -4   -1    0    0    0  501 -0.00000000000E+00 -0.00000000000E+00 -0.18095299452E+03  0.18095299452E+03  0.00000000000E+00 0.  1.
          5    1    1    2  502    0 -0.13821373604E+02 -0.13015784529E+02  0.99398106775E+01  0.21939253668E+02  0.47000000000E+01 0. -1.
         -5    1    1    2    0  502  0.15807063641E+02  0.48492979758E+02 -0.15788643414E+03  0.16598689235E+03  0.47000000000E+01 0.  1.
        -11    1    1    2    0    0  0.21869113184E+01 -0.17616344821E+02  0.28220626206E+01  0.17974488126E+02  0.00000000000E+00 0.  1.
         11    1    1    2    0    0 -0.41726013556E+01 -0.17860850408E+02  0.10018979246E+02  0.20899773313E+02  0.00000000000E+00 0. -1.
<mgrwt>
<rscale>  0 0.86925664E+02</rscale>
<asrwt>0</asrwt>
<pdfrwt beam="1">  1        4 0.70534481E-02 0.11587939E+03</pdfrwt>
<pdfrwt beam="2">  1       -4 0.27838922E-01 0.11587939E+03</pdfrwt>
<totfact> 0.26334338E+03</totfact>
</mgrwt>
</event>
<event>
 7    1  0.1446636E-005  0.1635585E+03  0.7546771E-02  0.1191131E+00
         -1   -1    0    0    0  501 -0.00000000000E+00  0.00000000000E+00  0.61551106306E+02  0.61551106306E+02  0.00000000000E+00 0.  1.
          1   -1    0    0  501    0  0.00000000000E+00 -0.00000000000E+00 -0.45637128407E+03  0.45637128407E+03  0.00000000000E+00 0. -1.
         23    2    1    2    0    0  0.36760520711E+02  0.98866350235E+02 -0.29216224654E+03  0.32481608067E+03  0.94977980937E+02 0.  0.
          5    1    1    2  502    0 -0.73548163410E+02 -0.62061763377E+02 -0.25055251436E+02  0.99553254286E+02  0.47000000000E+01 0.  1.
         -5    1    1    2    0  502  0.36787642698E+02 -0.36804586858E+02 -0.77602679779E+02  0.93553055418E+02  0.47000000000E+01 0.  1.
        -11    1    3    3    0    0  0.26193850737E+02  0.97950089981E+02 -0.29650003834E+03  0.31335700196E+03  0.00000000000E+00 0. -1.
         11    1    3    3    0    0  0.10566669974E+02  0.91626025396E+00  0.43377917923E+01  0.11459078708E+02  0.00000000000E+00 0.  1.
<mgrwt>
<rscale>  0 0.15786303E+03</rscale>
<asrwt>0</asrwt>
<pdfrwt beam="2">  1        1 0.70210967E-01 0.16355854E+03</pdfrwt>
<pdfrwt beam="1">  1       -1 0.94694009E-02 0.16355854E+03</pdfrwt>
<totfact> 0.33107838E+03</totfact>
</mgrwt>
</event>
<event>
 7    1  0.1446636E-005  0.1746057E+03  0.7546771E-02  0.1179103E+00
          3   -1    0    0  501    0  0.00000000000E+00  0.00000000000E+00  0.55616517738E+02  0.55616517738E+02  0.00000000000E+00 0. -1.
         -3   -1    0    0    0  501 -0.00000000000E+00 -0.00000000000E+00 -0.49107256932E+03  0.49107256932E+03  0.00000000000E+00 0.  1.
         23    2    1    2    0    0  0.82579795249E+00  0.12192016471E+03 -0.24232998945E+03  0.28633392701E+03  0.91641068656E+02 0.  0.
          5    1    1    2  502    0 -0.15399327533E+02 -0.65395661169E+02 -0.19014215552E+03  0.20171728011E+03  0.47000000000E+01 0. -1.
         -5    1    1    2    0  502  0.14573529580E+02 -0.56524503540E+02 -0.29839066065E+01  0.58637879937E+02  0.47000000000E+01 0. -1.
        -11    1    3    3    0    0  0.12793684157E+02  0.10871616458E+03 -0.24497313598E+03  0.26831831869E+03  0.00000000000E+00 0.  1.
         11    1    3    3    0    0 -0.11967886204E+02  0.13204000131E+02  0.26431465222E+01  0.18015608322E+02  0.00000000000E+00 0. -1.
<mgrwt>
<rscale>  0 0.16880201E+03</rscale>
<asrwt>0</asrwt>
<pdfrwt beam="1">  1        3 0.85563877E-02 0.17460565E+03</pdfrwt>
<pdfrwt beam="2">  1       -3 0.75549623E-01 0.17460565E+03</pdfrwt>
<totfact> 0.38752683E+02</totfact>
</mgrwt>
</event>
<event>
 7    1  0.1446636E-005  0.1985460E+03  0.7546771E-02  0.1164861E+00
          2   -1    0    0  501    0  0.00000000000E+00  0.00000000000E+00  0.18720736984E+03  0.18720736984E+03  0.00000000000E+00 0. -1.
         -2   -1    0    0    0  501 -0.00000000000E+00 -0.00000000000E+00 -0.15934439533E+03  0.15934439533E+03  0.00000000000E+00 0.  1.
         23    2    1    2    0    0  0.68437342061E+02  0.87391892084E+02 -0.12074070762E+02  0.14402899914E+03  0.90981079451E+02 0.  0.
          5    1    1    2  502    0  0.71109260498E+01 -0.26999495831E+02  0.89407656830E+02  0.93783565428E+02  0.47000000000E+01 0. -1.
         -5    1    1    2    0  502 -0.75548268111E+02 -0.60392396253E+02 -0.49470611560E+02  0.10873920060E+03  0.47000000000E+01 0.  1.
        -11    1    3    3    0    0  0.52352115834E+02  0.10617985698E+03 -0.14059061891E+02  0.11921645559E+03  0.00000000000E+00 0.  1.
         11    1    3    3    0    0  0.16085226227E+02 -0.18787964899E+02  0.19849911293E+01  0.24812543554E+02  0.00000000000E+00 0. -1.
<mgrwt>
<rscale>  0 0.18307348E+03</rscale>
<asrwt>0</asrwt>
<pdfrwt beam="1">  1        2 0.28801134E-01 0.19854597E+03</pdfrwt>
<pdfrwt beam="2">  1       -2 0.24514522E-01 0.19854597E+03</pdfrwt>
<totfact> 0.26588548E+03</totfact>
</mgrwt>
</event>
<event>
 7    1  0.1446636E-005  0.2085023E+03  0.7546771E-02  0.1146776E+00
          1   -1    0    0  501    0  0.00000000000E+00  0.00000000000E+00  0.22652799055E+03  0.22652799055E+03  0.00000000000E+00 0. -1.
         -1   -1    0    0    0  501 -0.00000000000E+00 -0.00000000000E+00 -0.18287761662E+03  0.18287761662E+03  0.00000000000E+00 0.  1.
         23    2    1    2    0    0 -0.77040661793E+02  0.14802957403E+03  0.63992882162E+02  0.19991328741E+03  0.89566819507E+02 0.  0.
          5    1    1    2  502    0  0.13741733575E+02 -0.75470337695E+02 -0.67394486138E+02  0.10221895067E+03  0.47000000000E+01 0.  1.
         -5    1    1    2    0  502  0.63298928218E+02 -0.72559236337E+02  0.47051977907E+02  0.10727336909E+03  0.47000000000E+01 0.  1.
        -11    1    3    3    0    0 -0.94727769583E+02  0.14202108868E+03  0.57564888562E+02  0.18015842016E+03  0.00000000000E+00 0. -1.
         11    1    3    3    0    0  0.17687107790E+02  0.60084853548E+01  0.64279936000E+01  0.19754867247E+02  0.00000000000E+00 0.  1.
<mgrwt>
<rscale>  0 0.20355179E+03</rscale>
<asrwt>0</asrwt>
<pdfrwt beam="1">  1        1 0.34850460E-01 0.20850231E+03</pdfrwt>
<pdfrwt beam="2">  1       -1 0.28135018E-01 0.20850231E+03</pdfrwt>
<totfact> 0.14191059E+03</totfact>
</mgrwt>
</event>
<event>
 7    1  0.1446636E-005  0.1891618E+03  0.7546771E-02  0.1164274E+00
          1   -1    0    0  501    0  0.00000000000E+00  0.00000000000E+00  0.48093154033E+02  0.48093154033E+02  0.00000000000E+00 0. -1.
         -1   -1    0    0    0  501 -0.00000000000E+00 -0.00000000000E+00 -0.70930925569E+03  0.70930925569E+03  0.00000000000E+00 0.  1.
         23    2    1    2    0    0 -0.57238001678E+01 -0.14186292764E+03 -0.21686500793E+03  0.27446341187E+03  0.90232370397E+02 0.  0.
          5    1    1    2  502    0 -0.45393261115E+02  0.58383133294E+02 -0.29604923013E+03  0.30518252746E+03  0.47000000000E+01 0. -1.
         -5    1    1    2    0  502  0.51117061282E+02  0.83479794343E+02 -0.14830186360E+03  0.17775647038E+03  0.47000000000E+01 0. -1.
        -11    1    3    3    0    0  0.44153256932E+01 -0.98530643748E+02 -0.20638822502E+03  0.22874414154E+03  0.00000000000E+00 0.  1.
         11    1    3    3    0    0 -0.10139125861E+02 -0.43332283888E+02 -0.10476782905E+02  0.45719270338E+02  0.00000000000E+00 0. -1.
<mgrwt>
<rscale>  0 0.18369522E+03</rscale>
<asrwt>0</asrwt>
<pdfrwt beam="1">  1        1 0.73989472E-02 0.18916179E+03</pdfrwt>
<pdfrwt beam="2">  1       -1 0.10912449E+00 0.18916179E+03</pdfrwt>
<totfact> 0.79551674E+02</totfact>
</mgrwt>
</event>
<event>
 7    1  0.1446636E-005  0.1534010E+03  0.7546771E-02  0.1204563E+00
          2   -1    0    0  501    0  0.00000000000E+00  0.00000000000E+00  0.22985619937E+03  0.22985619937E+03  0.00000000000E+00 0. -1.
         -2   -1    0    0    0  501 -0.00000000000E+00 -0.00000000000E+00 -0.10143830832E+03  0.10143830832E+03  0.00000000000E+00 0.  1.
         23    2    1    2    0    0 -0.77811904031E+02  0.43051062159E+02  0.12301796036E+03  0.17779845243E+03  0.92578532891E+02 0.  0.
          5    1    1    2  502    0  0.71531206610E+02 -0.22908599470E+02  0.59047875162E+02  0.95656986205E+02  0.47000000000E+01 0. -1.
         -5    1    1    2    0  502  0.62806974211E+01 -0.20142462689E+02 -0.53647944475E+02  0.57839069059E+02  0.47000000000E+01 0. -1.
        -11    1    3    3    0    0 -0.60733396911E+02 -0.81919217638E+01  0.10366004870E+03  0.12042034205E+03  0.00000000000E+00 0.  1.
         11    1    3    3    0    0 -0.17078507121E+02  0.51242983922E+02  0.19357911659E+02  0.57378110378E+02  0.00000000000E+00 0. -1.
<mgrwt>
<rscale>  0 0.14671927E+03</rscale>
<asrwt>0</asrwt>
<pdfrwt beam="1">  1        2 0.35362492E-01 0.15340104E+03</pdfrwt>
<pdfrwt beam="2">  1       -2 0.15605894E-01 0.15340104E+03</pdfrwt>
<totfact> 0.45247387E+03</totfact>
</mgrwt>
</event>
<event>
 7    1  0.1446636E-005  0.1479790E+03  0.7546771E-02  0.1212828E+00
          2   -1    0    0  501    0  0.00000000000E+00  0.00000000000E+00  0.70852770695E+03  0.70852770695E+03  0.00000000000E+00 0. -1.
         -2   -1    0    0    0  501 -0.00000000000E+00 -0.00000000000E+00 -0.39237144198E+02  0.39237144198E+02  0.00000000000E+00 0.  1.
         23    2    1    2    0    0 -0.36031329706E+02  0.70531556523E+02  0.53394840768E+03  0.54722735267E+03  0.89910601522E+02 0.  0.
          5    1    1    2  502    0 -0.25006490411E+02 -0.63896051103E+02  0.11797447686E+03  0.13655803565E+03  0.47000000000E+01 0. -1.
         -5    1    1    2    0  502  0.61037820117E+02 -0.66355054200E+01  0.17367678209E+02  0.63979462823E+02  0.47000000000E+01 0. -1.
        -11    1    3    3    0    0 -0.40601608706E+02 -0.73729959565E+00  0.10897632955E+03  0.11629649454E+03  0.00000000000E+00 0.  1.
         11    1    3    3    0    0  0.45702790005E+01  0.71268856118E+02  0.42497207813E+03  0.43093085813E+03  0.00000000000E+00 0. -1.
<mgrwt>
<rscale>  0 0.14037268E+03</rscale>
<asrwt>0</asrwt>
<pdfrwt beam="1">  1        2 0.10900425E+00 0.14797902E+03</pdfrwt>
<pdfrwt beam="2">  1       -2 0.60364843E-02 0.14797902E+03</pdfrwt>
<totfact> 0.58825312E+03</totfact>
</mgrwt>
</event>
<event>
 7    1  0.1446636E-005  0.1389971E+03  0.7546771E-02  0.1227762E+00
          3   -1    0    0  501    0  0.00000000000E+00  0.00000000000E+00  0.22595017555E+03  0.22595017555E+03  0.00000000000E+00 0. -1.
         -3   -1    0    0    0  501 -0.00000000000E+00 -0.00000000000E+00 -0.69355242354E+02  0.69355242354E+02  0.00000000000E+00 0.  1.
         23    2    1    2    0    0  0.44397046747E+02  0.41528369544E+02  0.99128447141E+02  0.14489735051E+03  0.86447035326E+02 0.  0.
          5    1    1    2  502    0  0.33488845777E+02 -0.39565173460E+02 -0.23040657715E+01  0.52098987144E+02  0.47000000000E+01 0.  1.
         -5    1    1    2    0  502 -0.77885892524E+02 -0.19631960838E+01  0.59770551828E+02  0.98309080246E+02  0.47000000000E+01 0.  1.
        -11    1    3    3    0    0  0.47739065660E+02  0.96998858554E+01  0.93744792425E+01  0.49608336363E+02  0.00000000000E+00 0.  1.
         11    1    3    3    0    0 -0.33420189124E+01  0.31828483689E+02  0.89753967899E+02  0.95289014151E+02  0.00000000000E+00 0. -1.
<mgrwt>
<rscale>  0 0.12979413E+03</rscale>
<asrwt>0</asrwt>
<pdfrwt beam="1">  1        3 0.34761565E-01 0.13899709E+03</pdfrwt>
<pdfrwt beam="2">  1       -3 0.10670037E-01 0.13899709E+03</pdfrwt>
<totfact> 0.12445813E+03</totfact>
</mgrwt>
</event>
<event>
 7    1  0.1446636E-005  0.1397593E+03  0.7546771E-02  0.1225035E+00
         -2   -1    0    0    0  501 -0.00000000000E+00  0.00000000000E+00  0.29195601858E+03  0.29195601858E+03  0.00000000000E+00 0.  1.
          2   -1    0    0  501    0  0.00000000000E+00 -0.00000000000E+00 -0.55853759897E+02  0.55853759897E+02  0.00000000000E+00 0. -1.
         23    2    1    2    0    0 -0.61070813223E+02 -0.12851171327E+02  0.68582209770E+02  0.12964558299E+03  0.90607178846E+02 0.  0.
          5    1    1    2  502    0  0.87445185208E+02  0.42800158788E+02  0.13478279858E+03  0.16633402178E+03  0.47000000000E+01 0. -1.
         -5    1    1    2    0  502 -0.26374371984E+02 -0.29948987461E+02  0.32737250327E+02  0.51830173707E+02  0.47000000000E+01 0. -1.
        -11    1    3    3    0    0 -0.16208955315E+02  0.18996539822E+02 -0.15332606578E+02  0.29303371513E+02  0.00000000000E+00 0. -1.
         11    1    3    3    0    0 -0.44861857908E+02 -0.31847711149E+02  0.83914816348E+02  0.10034221147E+03  0.00000000000E+00 0.  1.
<mgrwt>
<rscale>  0 0.13164477E+03</rscale>
<asrwt>0</asrwt>
<pdfrwt beam="2">  1        2 0.85928863E-02 0.13975926E+03</pdfrwt>
<pdfrwt beam="1">  1       -2 0.44916310E-01 0.13975926E+03</pdfrwt>
<totfact> 0.35349668E+03</totfact>
</mgrwt>
</event>
<event>
 7    1  0.1446636E-005  0.2240254E+03  0.7546771E-02  0.1130917E+00
         -1   -1    0    0    0  501 -0.00000000000E+00  0.00000000000E+00  0.64945705967E+02  0.64945705967E+02  0.00000000000E+00 0.  1.
          1   -1    0    0  501    0  0.00000000000E+00 -0.00000000000E+00 -0.19318971255E+03  0.19318971255E+03  0.00000000000E+00 0. -1.
         23    2    1    2    0    0 -0.21880505003E+02  0.97736336794E+01 -0.74882894240E+02  0.12012629458E+03  0.90821794665E+02 0.  0.
          5    1    1    2  502    0 -0.11697489116E+02  0.38636498936E+02 -0.66057409129E+02  0.77558246515E+02  0.47000000000E+01 0. -1.
         -5    1    1    2    0  502  0.33577994120E+02 -0.48410132615E+02  0.12696296784E+02  0.60450877421E+02  0.47000000000E+01 0. -1.
        -11    1    3    3    0    0  0.92279133754E+01  0.41503864642E+02 -0.14021995015E+02  0.44769872791E+02  0.00000000000E+00 0.  1.
         11    1    3    3    0    0 -0.31108418379E+02 -0.31730230963E+02 -0.60860899225E+02  0.75356421793E+02  0.00000000000E+00 0. -1.
<mgrwt>
<rscale>  0 0.22402538E+03</rscale>
<asrwt>0</asrwt>
<pdfrwt beam="2">  1        1 0.29721494E-01 0.22402538E+03</pdfrwt>
<pdfrwt beam="1">  1       -1 0.99916473E-02 0.22402538E+03</pdfrwt>
<totfact> 0.91506549E+03</totfact>
</mgrwt>
</event>
<event>
 7    1  0.1446636E-005  0.1370541E+03  0.7546771E-02  0.1229093E+00
          3   -1    0    0  501    0  0.00000000000E+00  0.00000000000E+00  0.83114820020E+02  0.83114820020E+02  0.00000000000E+00 0. -1.
         -3   -1    0    0    0  501 -0.00000000000E+00 -0.00000000000E+00 -0.19248668422E+03  0.19248668422E+03  0.00000000000E+00 0.  1.
         23    2    1    2    0    0  0.11213940097E+02  0.55076381928E+02 -0.12941801054E+02  0.10802293883E+03  0.91336218453E+02 0.  0.
          5    1    1    2  502    0  0.10679846054E+02 -0.84913449006E+02 -0.28941494408E+02  0.90465756131E+02  0.47000000000E+01 0.  1.
         -5    1    1    2    0  502 -0.21893786151E+02  0.29837067078E+02 -0.67488568738E+02  0.77112809274E+02  0.47000000000E+01 0.  1.
        -11    1    3    3    0    0 -0.30355612761E+02 -0.81486490986E+01 -0.63894800973E+01  0.32073184503E+02  0.00000000000E+00 0.  1.
         11    1    3    3    0    0  0.41569552859E+02  0.63225031026E+02 -0.65523209568E+01  0.75949754332E+02  0.00000000000E+00 0. -1.
<mgrwt>
<rscale>  0 0.12890302E+03</rscale>
<asrwt>0</asrwt>
<pdfrwt beam="1">  1        3 0.12786895E-01 0.13705407E+03</pdfrwt>
<pdfrwt beam="2">  1       -3 0.29613336E-01 0.13705407E+03</pdfrwt>
<totfact> 0.12370275E+03</totfact>
</mgrwt>
</event>
<event>
 7    1  0.1446636E-005  0.1320952E+03  0.7546771E-02  0.1238008E+00
          1   -1    0    0  501    0  0.00000000000E+00  0.00000000000E+00  0.33688141006E+03  0.33688141006E+03  0.00000000000E+00 0. -1.
         -1   -1    0    0    0  501 -0.00000000000E+00 -0.00000000000E+00 -0.44773429251E+02  0.44773429251E+02  0.00000000000E+00 0.  1.
         23    2    1    2    0    0  0.18605238377E+01 -0.42668813557E+02  0.19037821184E+03  0.21492724383E+03  0.90143038531E+02 0.  0.
          5    1    1    2  502    0 -0.38562768178E+02  0.79130740589E+01 -0.12628012429E+02  0.41608418962E+02  0.47000000000E+01 0.  1.
         -5    1    1    2    0  502  0.36702244340E+02  0.34755739498E+02  0.11435778140E+03  0.12511917652E+03  0.47000000000E+01 0.  1.
        -11    1    3    3    0    0  0.18260725112E+02  0.56833839186E+01  0.14030784873E+01  0.19176119618E+02  0.00000000000E+00 0.  1.
         11    1    3    3    0    0 -0.16400201274E+02 -0.48352197476E+02  0.18897513335E+03  0.19575112421E+03  0.00000000000E+00 0. -1.
<mgrwt>
<rscale>  0 0.12313809E+03</rscale>
<asrwt>0</asrwt>
<pdfrwt beam="1">  1        1 0.51827908E-01 0.13209521E+03</pdfrwt>
<pdfrwt beam="2">  1       -1 0.68882201E-02 0.13209521E+03</pdfrwt>
<totfact> 0.77736544E+03</totfact>
</mgrwt>
</event>
<event>
 7    1  0.1446636E-005  0.1586659E+03  0.7546771E-02  0.1206120E+00
         -3   -1    0    0    0  501 -0.00000000000E+00  0.00000000000E+00  0.84012533367E+03  0.84012533367E+03  0.00000000000E+00 0.  1.
          3   -1    0    0  501    0  0.00000000000E+00 -0.00000000000E+00 -0.29574902160E+02  0.29574902160E+02  0.00000000000E+00 0. -1.
         23    2    1    2    0    0  0.92840956085E+02 -0.30429507277E+02  0.13385073586E+03  0.17464818413E+03  0.55141370046E+02 0.  0.
          5    1    1    2  502    0 -0.83254041431E+02 -0.75344013891E+01  0.62204694846E+03  0.62765635399E+03  0.47000000000E+01 0. -1.
         -5    1    1    2    0  502 -0.95869146531E+01  0.37963908666E+02  0.54652747190E+02  0.67395697706E+02  0.47000000000E+01 0. -1.
        -11    1    3    3    0    0  0.70055127997E+02 -0.43058245345E+02  0.11904329959E+03  0.14468255122E+03  0.00000000000E+00 0.  1.
         11    1    3    3    0    0  0.22785828087E+02  0.12628738068E+02  0.14807436272E+02  0.29965632911E+02  0.00000000000E+00 0. -1.
<mgrwt>
<rscale>  0 0.14549517E+03</rscale>
<asrwt>0</asrwt>
<pdfrwt beam="2">  1        3 0.45499856E-02 0.15866593E+03</pdfrwt>
<pdfrwt beam="1">  1       -3 0.12925003E+00 0.15866593E+03</pdfrwt>
<totfact> 0.31159913E+02</totfact>
</mgrwt>
</event>
<event>
 7    1  0.1446636E-005  0.1379981E+03  0.7546771E-02  0.1224619E+00
          2   -1    0    0  501    0  0.00000000000E+00  0.00000000000E+00  0.45667165955E+03  0.45667165955E+03  0.00000000000E+00 0.  1.
         -2   -1    0    0    0  501 -0.00000000000E+00 -0.00000000000E+00 -0.36104036452E+02  0.36104036452E+02  0.00000000000E+00 0. -1.
         23    2    1    2    0    0 -0.58464522658E+02  0.11357803485E+01  0.23248403662E+03  0.25949707823E+03  0.99350470172E+02 0.  0.
          5    1    1    2  502    0 -0.35592660435E+02  0.20528638106E+02  0.55267724894E+02  0.69028065845E+02  0.47000000000E+01 0. -1.
         -5    1    1    2    0  502  0.94057183092E+02 -0.21664418455E+02  0.13281586158E+03  0.16425055192E+03  0.47000000000E+01 0. -1.
        -11    1    3    3    0    0 -0.64776397711E+02  0.37761213248E+02  0.18173326605E+03  0.19659316091E+03  0.00000000000E+00 0.  1.
         11    1    3    3    0    0  0.63118750536E+01 -0.36625432900E+02  0.50750770565E+02  0.62903917324E+02  0.00000000000E+00 0. -1.
<mgrwt>
<rscale>  0 0.13193046E+03</rscale>
<asrwt>0</asrwt>
<pdfrwt beam="1">  1        2 0.70257174E-01 0.13799811E+03</pdfrwt>
<pdfrwt beam="2">  1       -2 0.55544675E-02 0.13799811E+03</pdfrwt>
<totfact> 0.10921575E+04</totfact>
</mgrwt>
</event>
<event>
 7    1  0.1446636E-005  0.1287315E+03  0.7546771E-02  0.1242673E+00
          1   -1    0    0  501    0  0.00000000000E+00  0.00000000000E+00  0.23822350678E+03  0.23822350678E+03  0.00000000000E+00 0. -1.
         -1   -1    0    0    0  501 -0.00000000000E+00 -0.00000000000E+00 -0.61790546705E+02  0.61790546705E+02  0.00000000000E+00 0.  1.
         23    2    1    2    0    0 -0.10978932286E+01 -0.30750169905E+02  0.13073746735E+03  0.16341285211E+03  0.93084351785E+02 0.  0.
          5    1    1    2  502    0 -0.66667923957E+00 -0.37569564596E+02 -0.19007901263E+02  0.42371062715E+02  0.47000000000E+01 0. -1.
         -5    1    1    2    0  502  0.17645724682E+01  0.68319734501E+02  0.64703393990E+02  0.94230138661E+02  0.47000000000E+01 0. -1.
        -11    1    3    3    0    0 -0.67261275838E+00 -0.51164266594E+02  0.27332469228E+02  0.58011192525E+02  0.00000000000E+00 0.  1.
         11    1    3    3    0    0 -0.42528047021E+00  0.20414096689E+02  0.10340499812E+03  0.10540165958E+03  0.00000000000E+00 0. -1.
<mgrwt>
<rscale>  0 0.12025759E+03</rscale>
<asrwt>0</asrwt>
<pdfrwt beam="1">  1        1 0.36649770E-01 0.12873154E+03</pdfrwt>
<pdfrwt beam="2">  1       -1 0.95062381E-02 0.12873154E+03</pdfrwt>
<totfact> 0.73264013E+03</totfact>
</mgrwt>
</event>
<event>
 7    1  0.1446636E-005  0.1653103E+03  0.7546771E-02  0.1189941E+00
         -2   -1    0    0    0  501 -0.00000000000E+00  0.00000000000E+00  0.25241959855E+02  0.25241959855E+02  0.00000000000E+00 0.  1.
          2   -1    0    0  501    0  0.00000000000E+00 -0.00000000000E+00 -0.99416101005E+03  0.99416101005E+03  0.00000000000E+00 0. -1.
         23    2    1    2    0    0  0.53982204291E+02  0.93755760920E+02 -0.57773291981E+03  0.59472181844E+03  0.90633843679E+02 0.  0.
          5    1    1    2  502    0 -0.59723876088E+01 -0.34360696272E+02 -0.31410553631E+03  0.31607072753E+03  0.47000000000E+01 0.  1.
         -5    1    1    2    0  502 -0.48009816682E+02 -0.59395064649E+02 -0.77080594078E+02  0.10861042393E+03  0.47000000000E+01 0.  1.
        -11    1    3    3    0    0  0.43051378236E+02  0.13335428135E+02 -0.94218214168E+02  0.10444293510E+03  0.00000000000E+00 0.  1.
         11    1    3    3    0    0  0.10930826055E+02  0.80420332786E+02 -0.48351470564E+03  0.49027888334E+03  0.00000000000E+00 0. -1.
<mgrwt>
<rscale>  0 0.15890318E+03</rscale>
<asrwt>0</asrwt>
<pdfrwt beam="2">  1        2 0.15294784E+00 0.16531029E+03</pdfrwt>
<pdfrwt beam="1">  1       -2 0.38833786E-02 0.16531029E+03</pdfrwt>
<totfact> 0.74433582E+03</totfact>
</mgrwt>
</event>
<event>
 7    1  0.1446636E-005  0.1371991E+03  0.7546771E-02  0.1229106E+00
         -2   -1    0    0    0  501 -0.00000000000E+00  0.00000000000E+00  0.15495324034E+02  0.15495324034E+02  0.00000000000E+00 0. -1.
          2   -1    0    0  501    0  0.00000000000E+00 -0.00000000000E+00 -0.97979830193E+03  0.97979830193E+03  0.00000000000E+00 0.  1.
         23    2    1    2    0    0  0.55588002203E+02  0.10249873622E+02 -0.35521686834E+03  0.37094638583E+03  0.90703427193E+02 0.  0.
          5    1    1    2  502    0 -0.86076679062E+02  0.17494236553E+02 -0.49917797713E+03  0.50686880535E+03  0.47000000000E+01 0. -1.
         -5    1    1    2    0  502  0.30488676859E+02 -0.27744110175E+02 -0.10990813243E+03  0.11747843479E+03  0.47000000000E+01 0. -1.
        -11    1    3    3    0    0  0.10000410634E+02  0.34936160426E+02 -0.52667968384E+02  0.63987955209E+02  0.00000000000E+00 0. -1.
         11    1    3    3    0    0  0.45587591569E+02 -0.24686286803E+02 -0.30254889996E+03  0.30695843062E+03  0.00000000000E+00 0.  1.
<mgrwt>
<rscale>  0 0.12889382E+03</rscale>
<asrwt>0</asrwt>
<pdfrwt beam="2">  1        2 0.15073818E+00 0.13719908E+03</pdfrwt>
<pdfrwt beam="1">  1       -2 0.23838963E-02 0.13719908E+03</pdfrwt>
<totfact> 0.15435166E+04</totfact>
</mgrwt>
</event>
<event>
 7    1  0.1446636E-005  0.1655526E+03  0.7546771E-02  0.1189774E+00
         -1   -1    0    0    0  501 -0.00000000000E+00  0.00000000000E+00  0.43177114379E+02  0.43177114379E+02  0.00000000000E+00 0.  1.
          1   -1    0    0  501    0  0.00000000000E+00 -0.00000000000E+00 -0.58538342747E+03  0.58538342747E+03  0.00000000000E+00 0. -1.
         23    2    1    2    0    0 -0.53683384633E+02 -0.94343963185E+02 -0.33401681207E+03  0.36257079996E+03  0.90042573616E+02 0.  0.
          5    1    1    2  502    0  0.58126679950E+02  0.38523942298E+02 -0.19654547784E+03  0.20860254052E+03  0.47000000000E+01 0. -1.
         -5    1    1    2    0  502 -0.44432953161E+01  0.55820020887E+02 -0.11644023181E+02  0.57387201369E+02  0.47000000000E+01 0. -1.
        -11    1    3    3    0    0  0.23452343469E+02 -0.40811694949E+02 -0.11703151873E+03  0.12614270980E+03  0.00000000000E+00 0. -1.
         11    1    3    3    0    0 -0.77135728102E+02 -0.53532268236E+02 -0.21698529334E+03  0.23642809016E+03  0.00000000000E+00 0.  1.
<mgrwt>
<rscale>  0 0.15904953E+03</rscale>
<asrwt>0</asrwt>
<pdfrwt beam="2">  1        1 0.90058986E-01 0.16555263E+03</pdfrwt>
<pdfrwt beam="1">  1       -1 0.66426332E-02 0.16555263E+03</pdfrwt>
<totfact> 0.40775739E+03</totfact>
</mgrwt>
</event>
<event>
 7    1  0.1446636E-005  0.1401103E+03  0.7546771E-02  0.1229279E+00
          3   -1    0    0  501    0  0.00000000000E+00  0.00000000000E+00  0.65765822592E+02  0.65765822592E+02  0.00000000000E+00 0. -1.
         -3   -1    0    0    0  501 -0.00000000000E+00 -0.00000000000E+00 -0.22869339033E+03  0.22869339033E+03  0.00000000000E+00 0.  1.
         23    2    1    2    0    0 -0.32783300844E+02  0.55896382566E+01 -0.98096326317E+02  0.14007657932E+03  0.94300424006E+02 0.  0.
          5    1    1    2  502    0  0.81702864697E+01  0.45595150602E+02  0.21223501014E+02  0.51168333319E+02  0.47000000000E+01 0. -1.
         -5    1    1    2    0  502  0.24613014375E+02 -0.51184788858E+02 -0.86054742438E+02  0.10321430028E+03  0.47000000000E+01 0.  1.
        -11    1    3    3    0    0 -0.64626087729E+02  0.12970813915E+02 -0.54140872705E+02  0.85299515391E+02  0.00000000000E+00 0.  1.
         11    1    3    3    0    0  0.31842786884E+02 -0.73811756584E+01 -0.43955453612E+02  0.54777063931E+02  0.00000000000E+00 0. -1.
<mgrwt>
<rscale>  0 0.12877893E+03</rscale>
<asrwt>0</asrwt>
<pdfrwt beam="1">  1        3 0.10117819E-01 0.14011034E+03</pdfrwt>
<pdfrwt beam="2">  1       -3 0.35183599E-01 0.14011034E+03</pdfrwt>
<totfact> 0.13300038E+03</totfact>
</mgrwt>
</event>
<event>
 7    1  0.1446636E-005  0.1544752E+03  0.7546771E-02  0.1203826E+00
         -2   -1    0    0    0  501 -0.00000000000E+00  0.00000000000E+00  0.28922298981E+02  0.28922298981E+02  0.00000000000E+00 0.  1.
          2   -1    0    0  501    0  0.00000000000E+00 -0.00000000000E+00 -0.70964966762E+03  0.70964966762E+03  0.00000000000E+00 0. -1.
         23    2    1    2    0    0  0.28294001702E+02 -0.86230615121E+02 -0.37273843656E+03  0.39401459514E+03  0.89873742441E+02 0.  0.
          5    1    1    2  502    0  0.20365432146E+02  0.52869887224E+01 -0.19942000079E+03  0.20058197773E+03  0.47000000000E+01 0.  1.
         -5    1    1    2    0  502 -0.48659433849E+02  0.80943626399E+02 -0.10856893129E+03  0.14397539373E+03  0.47000000000E+01 0.  1.
        -11    1    3    3    0    0  0.55646714407E+02 -0.83287451627E+02 -0.29675518526E+03  0.31320440035E+03  0.00000000000E+00 0. -1.
         11    1    3    3    0    0 -0.27352712705E+02 -0.29431634941E+01 -0.75983251300E+02  0.80810194789E+02  0.00000000000E+00 0.  1.
<mgrwt>
<rscale>  0 0.14730339E+03</rscale>
<asrwt>0</asrwt>
<pdfrwt beam="2">  1        2 0.10917687E+00 0.15447524E+03</pdfrwt>
<pdfrwt beam="1">  1       -2 0.44495845E-02 0.15447524E+03</pdfrwt>
<totfact> 0.93230512E+03</totfact>
</mgrwt>
</event>
<event>
 7    1  0.1446636E-005  0.1294065E+03  0.7546771E-02  0.1241413E+00
          1   -1    0    0  501    0  0.00000000000E+00  0.00000000000E+00  0.91635488166E+03  0.91635488166E+03  0.00000000000E+00 0. -1.
         -1   -1    0    0    0  501 -0.00000000000E+00 -0.00000000000E+00 -0.15358408804E+02  0.15358408804E+02  0.00000000000E+00 0.  1.
         23    2    1    2    0    0 -0.19286893935E+02 -0.27391413387E+02  0.51996636435E+03  0.52930802792E+03  0.93164878345E+02 0.  0.
          5    1    1    2  502    0  0.58474809492E+02  0.54853945395E+02  0.21330400942E+03  0.22792312105E+03  0.47000000000E+01 0.  1.
         -5    1    1    2    0  502 -0.39187915557E+02 -0.27462532008E+02  0.16772609908E+03  0.17448214150E+03  0.47000000000E+01 0.  1.
        -11    1    3    3    0    0  0.22447788719E+02  0.23388445978E+02  0.14053763832E+03  0.14422811934E+03  0.00000000000E+00 0.  1.
         11    1    3    3    0    0 -0.41734682654E+02 -0.50779859365E+02  0.37942872603E+03  0.38507990857E+03  0.00000000000E+00 0. -1.
<mgrwt>
<rscale>  0 0.12102674E+03</rscale>
<asrwt>0</asrwt>
<pdfrwt beam="1">  1        1 0.14097763E+00 0.12940654E+03</pdfrwt>
<pdfrwt beam="2">  1       -1 0.23628328E-02 0.12940654E+03</pdfrwt>
<totfact> 0.95603417E+03</totfact>
</mgrwt>
</event>
<event>
 7    1  0.1446636E-005  0.1737394E+03  0.7546771E-02  0.1179974E+00
          2   -1    0    0  501    0  0.00000000000E+00  0.00000000000E+00  0.73270576812E+03  0.73270576812E+03  0.00000000000E+00 0. -1.
         -2   -1    0    0    0  501 -0.00000000000E+00 -0.00000000000E+00 -0.36462563339E+02  0.36462563339E+02  0.00000000000E+00 0.  1.
         23    2    1    2    0    0 -0.81100979355E+02  0.89345154976E+02  0.35971914078E+03  0.39044173028E+03  0.92124692274E+02 0.  0.
          5    1    1    2  502    0  0.69981260530E+02 -0.10342844762E+03  0.16903530647E+03  0.21021380886E+03  0.47000000000E+01 0.  1.
         -5    1    1    2    0  502  0.11119718825E+02  0.14083292639E+02  0.16748875753E+03  0.16851279232E+03  0.47000000000E+01 0.  1.
        -11    1    3    3    0    0 -0.89839777798E+02  0.66410052437E+02  0.34302227982E+03  0.36075721086E+03  0.00000000000E+00 0. -1.
         11    1    3    3    0    0  0.87387984430E+01  0.22935102539E+02  0.16696860965E+02  0.29684519413E+02  0.00000000000E+00 0.  1.
<mgrwt>
<rscale>  0 0.16797720E+03</rscale>
<asrwt>0</asrwt>
<pdfrwt beam="1">  1        2 0.11272395E+00 0.17373944E+03</pdfrwt>
<pdfrwt beam="2">  1       -2 0.56096257E-02 0.17373944E+03</pdfrwt>
<totfact> 0.63626715E+03</totfact>
</mgrwt>
</event>
<event>
 7    1  0.1446636E-005  0.1335185E+03  0.7546771E-02  0.1234639E+00
          1   -1    0    0  501    0  0.00000000000E+00  0.00000000000E+00  0.72020894990E+03  0.72020894990E+03  0.00000000000E+00 0. -1.
         -1   -1    0    0    0  501 -0.00000000000E+00 -0.00000000000E+00 -0.20214325815E+02  0.20214325815E+02  0.00000000000E+00 0.  1.
         23    2    1    2    0    0  0.45385814751E+02  0.11920953900E+02  0.37642033284E+03  0.39038396866E+03  0.92224696745E+02 0.  0.
          5    1    1    2  502    0  0.20970405034E+02 -0.42263184046E+02  0.20756571030E+03  0.21291206801E+03  0.47000000000E+01 0. -1.
         -5    1    1    2    0  502 -0.66356219785E+02  0.30342230146E+02  0.11600858095E+03  0.13712723904E+03  0.47000000000E+01 0. -1.
        -11    1    3    3    0    0  0.22907992926E+02 -0.36867323203E+02  0.10359287280E+03  0.11231856016E+03  0.00000000000E+00 0.  1.
         11    1    3    3    0    0  0.22477821824E+02  0.48788277103E+02  0.27282746003E+03  0.27806540850E+03  0.00000000000E+00 0. -1.
<mgrwt>
<rscale>  0 0.12527560E+03</rscale>
<asrwt>0</asrwt>
<pdfrwt beam="1">  1        1 0.11080136E+00 0.13351852E+03</pdfrwt>
<pdfrwt beam="2">  1       -1 0.31098968E-02 0.13351852E+03</pdfrwt>
<totfact> 0.92667491E+03</totfact>
</mgrwt>
</event>
<event>
 7    1  0.1446636E-005  0.1588019E+03  0.7546771E-02  0.1204844E+00
         -1   -1    0    0    0  501 -0.00000000000E+00  0.00000000000E+00  0.85417635268E+02  0.85417635268E+02  0.00000000000E+00 0.  1.
          1   -1    0    0  501    0  0.00000000000E+00 -0.00000000000E+00 -0.22650638905E+03  0.22650638905E+03  0.00000000000E+00 0. -1.
         23    2    1    2    0    0 -0.97931942498E+02  0.15752946371E+01 -0.86820738147E+02  0.14410547297E+03  0.60294277126E+02 0.  0.
          5    1    1    2  502    0  0.11062066196E+03  0.24000100600E+02 -0.71666253742E+02  0.13405624792E+03  0.47000000000E+01 0. -1.
         -5    1    1    2    0  502 -0.12688719462E+02 -0.25575395237E+02  0.17398238108E+02  0.33762303422E+02  0.47000000000E+01 0. -1.
        -11    1    3    3    0    0 -0.46485842671E+02 -0.28694019591E+02 -0.49421605255E+02  0.73666650495E+02  0.00000000000E+00 0. -1.
         11    1    3    3    0    0 -0.51446099827E+02  0.30269314228E+02 -0.37399132892E+02  0.70438822479E+02  0.00000000000E+00 0.  1.
<mgrwt>
<rscale>  0 0.14649771E+03</rscale>
<asrwt>0</asrwt>
<pdfrwt beam="2">  1        1 0.34847136E-01 0.15880192E+03</pdfrwt>
<pdfrwt beam="1">  1       -1 0.13141175E-01 0.15880192E+03</pdfrwt>
<totfact> 0.48019582E+03</totfact>
</mgrwt>
</event>
<event>
 6    1  0.1446636E-005  0.4130464E+03  0.7546771E-02  0.1039354E+00
         -1   -1    0    0    0  501 -0.00000000000E+00  0.00000000000E+00  0.29391612843E+03  0.29391612843E+03  0.00000000000E+00 0.  1.
          1   -1    0    0  501    0  0.00000000000E+00 -0.00000000000E+00 -0.14511563469E+03  0.14511563469E+03  0.00000000000E+00 0. -1.
          5    1    1    2  502    0 -0.72249265206E+02 -0.25892173099E+02  0.28803684581E+02  0.82110311144E+02  0.47000000000E+01 0.  1.
         -5    1    1    2    0  502 -0.37412000737E+01 -0.79698192945E+01  0.15460281383E+03  0.15492460954E+03  0.47000000000E+01 0.  1.
        -11    1    1    2    0    0  0.95308407998E+02  0.54112218377E+02  0.44346761248E+02  0.11823053771E+03  0.00000000000E+00 0.  1.
         11    1    1    2    0    0 -0.19317942718E+02 -0.20250225984E+02 -0.78952765917E+02  0.83766304736E+02  0.00000000000E+00 0. -1.
<mgrwt>
<rscale>  0 0.41304637E+03</rscale>
<asrwt>0</asrwt>
<pdfrwt beam="2">  1        1 0.22325482E-01 0.41304637E+03</pdfrwt>
<pdfrwt beam="1">  1       -1 0.45217866E-01 0.41304637E+03</pdfrwt>
<totfact> 0.10999112E+03</totfact>
</mgrwt>
</event>
<event>
 7    1  0.1446636E-005  0.1847156E+03  0.7546771E-02  0.1168064E+00
         -2   -1    0    0    0  501 -0.00000000000E+00  0.00000000000E+00  0.63157836645E+02  0.63157836645E+02  0.00000000000E+00 0. -1.
          2   -1    0    0  501    0  0.00000000000E+00 -0.00000000000E+00 -0.50343102222E+03  0.50343102222E+03  0.00000000000E+00 0.  1.
         23    2    1    2    0    0 -0.12274272379E+03  0.58575401416E+02 -0.15540976096E+03  0.22707889248E+03  0.94423385430E+02 0.  0.
          5    1    1    2  502    0  0.12116651584E+03 -0.68909847361E+02 -0.29363646933E+03  0.32507592612E+03  0.47000000000E+01 0. -1.
         -5    1    1    2    0  502  0.15762079505E+01  0.10334445945E+02  0.87730447177E+01  0.14434040256E+02  0.47000000000E+01 0. -1.
        -11    1    3    3    0    0 -0.11599551688E+03  0.80362196590E+02 -0.14385026938E+03  0.20150916251E+03  0.00000000000E+00 0.  1.
         11    1    3    3    0    0 -0.67472069043E+01 -0.21786795174E+02 -0.11559491580E+02  0.25569729966E+02  0.00000000000E+00 0. -1.
<mgrwt>
<rscale>  0 0.17973038E+03</rscale>
<asrwt>0</asrwt>
<pdfrwt beam="2">  1        2 0.77450928E-01 0.18471558E+03</pdfrwt>
<pdfrwt beam="1">  1       -2 0.97165900E-02 0.18471558E+03</pdfrwt>
<totfact> 0.42100952E+03</totfact>
</mgrwt>
</event>
<event>
 7    1  0.1446636E-005  0.1286359E+03  0.7546771E-02  0.1251159E+00
         -1   -1    0    0    0  501 -0.00000000000E+00  0.00000000000E+00  0.88628698250E+03  0.88628698250E+03  0.00000000000E+00 0.  1.
          1   -1    0    0  501    0  0.00000000000E+00 -0.00000000000E+00 -0.52970256844E+02  0.52970256844E+02  0.00000000000E+00 0. -1.
         23    2    1    2    0    0 -0.12151519423E+02 -0.27835624726E+02 -0.12424394572E+02  0.83789390581E+02  0.77096141053E+02 0.  0.
          5    1    1    2  502    0 -0.39690548691E+02 -0.17350399623E+02  0.55329157986E+03  0.55500453905E+03  0.47000000000E+01 0.  1.
         -5    1    1    2    0  502  0.51842068114E+02  0.45186024349E+02  0.29244954038E+03  0.30046330972E+03  0.47000000000E+01 0.  1.
        -11    1    3    3    0    0 -0.11157638685E+02 -0.46437968891E+02 -0.31432247894E+02  0.57174855167E+02  0.00000000000E+00 0.  1.
         11    1    3    3    0    0 -0.99388073784E+00  0.18602344165E+02  0.19007853323E+02  0.26614535413E+02  0.00000000000E+00 0. -1.
<mgrwt>
<rscale>  0 0.11524232E+03</rscale>
<asrwt>0</asrwt>
<pdfrwt beam="2">  1        1 0.81492709E-02 0.12863591E+03</pdfrwt>
<pdfrwt beam="1">  1       -1 0.13635183E+00 0.12863591E+03</pdfrwt>
<totfact> 0.40967499E+02</totfact>
</mgrwt>
</event>
<event>
 7    1  0.1446636E-005  0.1435553E+03  0.7546771E-02  0.1219157E+00
          1   -1    0    0  501    0  0.00000000000E+00  0.00000000000E+00  0.36319722834E+02  0.36319722834E+02  0.00000000000E+00 0. -1.
         -1   -1    0    0    0  501 -0.00000000000E+00 -0.00000000000E+00 -0.46578542366E+03  0.46578542366E+03  0.00000000000E+00 0.  1.
         23    2    1    2    0    0 -0.70578869528E+02 -0.12908427027E+01 -0.16211391400E+03  0.19864987548E+03  0.90541751789E+02 0.  0.
          5    1    1    2  502    0 -0.60218038218E+01 -0.35533016221E+02 -0.17129980272E+03  0.17511302000E+03  0.47000000000E+01 0.  1.
         -5    1    1    2    0  502  0.76600673350E+02  0.36823858924E+02 -0.96051984111E+02  0.12834225101E+03  0.47000000000E+01 0.  1.
        -11    1    3    3    0    0 -0.34558411519E+02  0.41548630733E+02 -0.10815405034E+03  0.12090438837E+03  0.00000000000E+00 0.  1.
         11    1    3    3    0    0 -0.36020458009E+02 -0.42839473436E+02 -0.53959863657E+02  0.77745487106E+02  0.00000000000E+00 0. -1.
<mgrwt>
<rscale>  0 0.13575548E+03</rscale>
<asrwt>0</asrwt>
<pdfrwt beam="1">  1        1 0.55876499E-02 0.14355530E+03</pdfrwt>
<pdfrwt beam="2">  1       -1 0.71659293E-01 0.14355530E+03</pdfrwt>
<totfact> 0.28231776E+03</totfact>
</mgrwt>
</event>
<event>
 7    1  0.1446636E-005  0.1542112E+03  0.7546771E-02  0.1203711E+00
         -1   -1    0    0    0  501 -0.00000000000E+00  0.00000000000E+00  0.68157243010E+03  0.68157243010E+03  0.00000000000E+00 0.  1.
          1   -1    0    0  501    0  0.00000000000E+00 -0.00000000000E+00 -0.30815843932E+02  0.30815843932E+02  0.00000000000E+00 0. -1.
         23    2    1    2    0    0 -0.90277972689E+02 -0.25617267488E+01  0.22025950152E+03  0.25510406836E+03  0.91690582337E+02 0.  0.
          5    1    1    2  502    0 -0.12549037372E+02 -0.37890862144E+02  0.16177511356E+03  0.16669275072E+03  0.47000000000E+01 0.  1.
         -5    1    1    2    0  502  0.10282701006E+03  0.40452588893E+02  0.26872197108E+03  0.29059145495E+03  0.47000000000E+01 0.  1.
        -11    1    3    3    0    0 -0.53324458762E+02  0.33520614860E+02  0.17653062738E+03  0.18743049892E+03  0.00000000000E+00 0.  1.
         11    1    3    3    0    0 -0.36953513927E+02 -0.36082341609E+02  0.43728874141E+02  0.67673569444E+02  0.00000000000E+00 0. -1.
<mgrwt>
<rscale>  0 0.14739479E+03</rscale>
<asrwt>0</asrwt>
<pdfrwt beam="2">  1        1 0.47408996E-02 0.15421123E+03</pdfrwt>
<pdfrwt beam="1">  1       -1 0.10485729E+00 0.15421123E+03</pdfrwt>
<totfact> 0.15910438E+03</totfact>
</mgrwt>
</event>
<event>
 7    1  0.1446636E-005  0.1363207E+03  0.7546771E-02  0.1237323E+00
         -2   -1    0    0    0  501 -0.00000000000E+00  0.00000000000E+00  0.94453079388E+02  0.94453079388E+02  0.00000000000E+00 0.  1.
          2   -1    0    0  501    0  0.00000000000E+00 -0.00000000000E+00 -0.20322394515E+03  0.20322394515E+03  0.00000000000E+00 0. -1.
         23    2    1    2    0    0  0.40486540483E+01  0.13409336838E+02 -0.13044458505E+03  0.15964409776E+03  0.90962884010E+02 0.  0.
          5    1    1    2  502    0  0.45623620003E+02  0.34281938126E+02 -0.15926398548E+02  0.59434890044E+02  0.47000000000E+01 0. -1.
         -5    1    1    2    0  502 -0.49672274051E+02 -0.47691274964E+02  0.37600117834E+02  0.78598036733E+02  0.47000000000E+01 0.  1.
        -11    1    3    3    0    0  0.44824021066E+02 -0.83632916680E+01 -0.59348502294E+02  0.74842382622E+02  0.00000000000E+00 0. -1.
         11    1    3    3    0    0 -0.40775367017E+02  0.21772628506E+02 -0.71096082756E+02  0.84801715140E+02  0.00000000000E+00 0.  1.
<mgrwt>
<rscale>  0 0.12356905E+03</rscale>
<asrwt>0</asrwt>
<pdfrwt beam="2">  1        2 0.31265222E-01 0.13632072E+03</pdfrwt>
<pdfrwt beam="1">  1       -2 0.14531243E-01 0.13632072E+03</pdfrwt>
<totfact> 0.57659360E+03</totfact>
</mgrwt>
</event>
<event>
 6    1  0.1446636E-005  0.1294652E+03  0.7546771E-02  0.1268993E+00
          2   -1    0    0  501    0  0.00000000000E+00  0.00000000000E+00  0.21690821960E+03  0.21690821960E+03  0.00000000000E+00 0.  1.
         -2   -1    0    0    0  501 -0.00000000000E+00 -0.00000000000E+00 -0.42940360918E+02  0.42940360918E+02  0.00000000000E+00 0. -1.
          5    1    1    2  502    0 -0.52499203635E+02  0.13320713982E+02  0.36467801478E+02  0.65464481575E+02  0.47000000000E+01 0.  1.
         -5    1    1    2    0  502  0.58892031447E+02 -0.46358880814E+02  0.51451973982E+02  0.91031932996E+02  0.47000000000E+01 0.  1.
        -11    1    1    2    0    0 -0.18182871630E+02  0.23702906552E+02  0.20820413593E+02  0.36413379711E+02  0.00000000000E+00 0. -1.
         11    1    1    2    0    0  0.11790043818E+02  0.93352602800E+01  0.65227669629E+02  0.66938786237E+02  0.00000000000E+00 0.  1.
<mgrwt>
<rscale>  0 0.10557375E+03</rscale>
<asrwt>0</asrwt>
<pdfrwt beam="1">  1        2 0.33370495E-01 0.12946521E+03</pdfrwt>
<pdfrwt beam="2">  1       -2 0.66062095E-02 0.12946521E+03</pdfrwt>
<totfact> 0.18460870E+04</totfact>
</mgrwt>
</event>
<event>
 7    1  0.1446636E-005  0.2507565E+03  0.7546771E-02  0.1150814E+00
         -2   -1    0    0    0  501 -0.00000000000E+00  0.00000000000E+00  0.53501174738E+03  0.53501174738E+03  0.00000000000E+00 0.  1.
          2   -1    0    0  501    0  0.00000000000E+00 -0.00000000000E+00 -0.60298868858E+02  0.60298868858E+02  0.00000000000E+00 0. -1.
         23    2    1    2    0    0 -0.32424011948E+02  0.11349127512E+02  0.77932221874E+02  0.12593472503E+03  0.92768553488E+02 0.  0.
          5    1    1    2  502    0  0.87303741309E+02  0.13338458903E+01  0.21743236118E+02  0.90103167027E+02  0.47000000000E+01 0. -1.
         -5    1    1    2    0  502 -0.54879729362E+02 -0.12682973403E+02  0.37503742053E+03  0.37927272418E+03  0.47000000000E+01 0.  1.
        -11    1    3    3    0    0 -0.28814883059E+02  0.42485851956E+02  0.79405827694E+02  0.94554907720E+02  0.00000000000E+00 0.  1.
         11    1    3    3    0    0 -0.36091288885E+01 -0.31136724443E+02 -0.14736058199E+01  0.31379817311E+02  0.00000000000E+00 0. -1.
<mgrwt>
<rscale>  0 0.19873096E+03</rscale>
<asrwt>0</asrwt>
<pdfrwt beam="2">  1        2 0.92767494E-02 0.25075653E+03</pdfrwt>
<pdfrwt beam="1">  1       -2 0.82309497E-01 0.25075653E+03</pdfrwt>
<totfact> 0.93862047E+02</totfact>
</mgrwt>
</event>
<event>
 7    1  0.1446636E-005  0.1383039E+03  0.7546771E-02  0.1227387E+00
         -1   -1    0    0    0  501 -0.00000000000E+00  0.00000000000E+00  0.17873478708E+03  0.17873478708E+03  0.00000000000E+00 0.  1.
          1   -1    0    0  501    0  0.00000000000E+00 -0.00000000000E+00 -0.92082441993E+02  0.92082441993E+02  0.00000000000E+00 0. -1.
         23    2    1    2    0    0  0.25346858346E+02  0.53525872319E+02  0.96573233676E+00  0.10812072229E+03  0.90452615851E+02 0.  0.
          5    1    1    2  502    0 -0.12935819795E+02  0.24357240698E+02 -0.17301875454E+02  0.32894612058E+02  0.47000000000E+01 0. -1.
         -5    1    1    2    0  502 -0.12411038551E+02 -0.77883113017E+02  0.10298848820E+03  0.12980189472E+03  0.47000000000E+01 0. -1.
        -11    1    3    3    0    0  0.57272985785E+02  0.17412462547E+02 -0.11438563192E+01  0.59872340526E+02  0.00000000000E+00 0.  1.
         11    1    3    3    0    0 -0.31926127440E+02  0.36113409772E+02  0.21095886559E+01  0.48248381765E+02  0.00000000000E+00 0. -1.
<mgrwt>
<rscale>  0 0.13004649E+03</rscale>
<asrwt>0</asrwt>
<pdfrwt beam="2">  1        1 0.14166530E-01 0.13830386E+03</pdfrwt>
<pdfrwt beam="1">  1       -1 0.27497660E-01 0.13830386E+03</pdfrwt>
<totfact> 0.45622174E+03</totfact>
</mgrwt>
</event>
<event>
 7    1  0.1446636E-005  0.2051737E+03  0.7546771E-02  0.1149432E+00
          1   -1    0    0  501    0  0.00000000000E+00  0.00000000000E+00  0.33831563122E+03  0.33831563122E+03  0.00000000000E+00 0. -1.
         -1   -1    0    0    0  501 -0.00000000000E+00 -0.00000000000E+00 -0.11379786549E+03  0.11379786549E+03  0.00000000000E+00 0.  1.
         23    2    1    2    0    0 -0.13551070309E+03  0.90045774843E+02  0.11994199899E+03  0.22182602572E+03  0.91374560726E+02 0.  0.
          5    1    1    2  502    0  0.35373302566E+01 -0.57009045093E+02 -0.20871590667E+01  0.57349718053E+02  0.47000000000E+01 0. -1.
         -5    1    1    2    0  502  0.13197337284E+03 -0.33036729751E+02  0.10666292581E+03  0.17293775294E+03  0.47000000000E+01 0. -1.
        -11    1    3    3    0    0 -0.19043718446E+02  0.86781445053E+00  0.60706901156E+02  0.63629742748E+02  0.00000000000E+00 0. -1.
         11    1    3    3    0    0 -0.11646698465E+03  0.89177960393E+02  0.59235097831E+02  0.15819628298E+03  0.00000000000E+00 0.  1.
<mgrwt>
<rscale>  0 0.20036455E+03</rscale>
<asrwt>0</asrwt>
<pdfrwt beam="1">  1        1 0.52048558E-01 0.20517365E+03</pdfrwt>
<pdfrwt beam="2">  1       -1 0.17507364E-01 0.20517365E+03</pdfrwt>
<totfact> 0.18678907E+03</totfact>
</mgrwt>
</event>
<event>
 7    1  0.1446636E-005  0.1268926E+03  0.7546771E-02  0.1246141E+00
         -4   -1    0    0    0  501 -0.00000000000E+00  0.00000000000E+00  0.11577762326E+03  0.11577762326E+03  0.00000000000E+00 0.  1.
          4   -1    0    0  501    0  0.00000000000E+00 -0.00000000000E+00 -0.11601086673E+03  0.11601086673E+03  0.00000000000E+00 0. -1.
         23    2    1    2    0    0  0.46476078096E+00  0.21732797188E+02 -0.32547770569E+02  0.10084594388E+03  0.92940930446E+02 0.  0.
          5    1    1    2  502    0  0.52628047773E+02  0.22599217743E+02  0.17206147795E+02  0.59988145303E+02  0.47000000000E+01 0.  1.
         -5    1    1    2    0  502 -0.53092808554E+02 -0.44332014931E+02  0.15108379305E+02  0.70954400802E+02  0.47000000000E+01 0.  1.
        -11    1    3    3    0    0  0.35532094587E+02  0.39167154777E+02 -0.31737347107E+02  0.61675399961E+02  0.00000000000E+00 0. -1.
         11    1    3    3    0    0 -0.35067333806E+02 -0.17434357589E+02 -0.81042346251E+00  0.39170543920E+02  0.00000000000E+00 0.  1.
<mgrwt>
<rscale>  0 0.11817352E+03</rscale>
<asrwt>0</asrwt>
<pdfrwt beam="2">  1        4 0.17847826E-01 0.12689256E+03</pdfrwt>
<pdfrwt beam="1">  1       -4 0.17811942E-01 0.12689256E+03</pdfrwt>
<totfact> 0.12500471E+03</totfact>
</mgrwt>
</event>
<event>
 7    1  0.1446636E-005  0.1291248E+03  0.7546771E-02  0.1238571E+00
          2   -1    0    0  501    0  0.00000000000E+00  0.00000000000E+00  0.12167884708E+03  0.12167884708E+03  0.00000000000E+00 0. -1.
         -2   -1    0    0    0  501 -0.00000000000E+00 -0.00000000000E+00 -0.11347426227E+03  0.11347426227E+03  0.00000000000E+00 0.  1.
         23    2    1    2    0    0 -0.55357601010E+02  0.76550122470E+01  0.96913607589E+01  0.10601976665E+03  0.89572346428E+02 0.  0.
          5    1    1    2  502    0  0.25809336058E+02 -0.45649721138E+02  0.39435347506E+02  0.65781878209E+02  0.47000000000E+01 0. -1.
         -5    1    1    2    0  502  0.29548264952E+02  0.37994708891E+02 -0.40922123459E+02  0.63351464496E+02  0.47000000000E+01 0.  1.
        -11    1    3    3    0    0  0.11509682825E+02  0.31330475798E+02 -0.44985487122E+01  0.33679496032E+02  0.00000000000E+00 0. -1.
         11    1    3    3    0    0 -0.66867283836E+02 -0.23675463551E+02  0.14189909471E+02  0.72340270616E+02  0.00000000000E+00 0.  1.
<mgrwt>
<rscale>  0 0.12278587E+03</rscale>
<asrwt>0</asrwt>
<pdfrwt beam="1">  1        2 0.18719823E-01 0.12912478E+03</pdfrwt>
<pdfrwt beam="2">  1       -2 0.17457579E-01 0.12912478E+03</pdfrwt>
<totfact> 0.74949830E+03</totfact>
</mgrwt>
</event>
<event>
 7    1  0.1446636E-005  0.1394575E+03  0.7546771E-02  0.1224896E+00
         -2   -1    0    0    0  501 -0.00000000000E+00  0.00000000000E+00  0.51990504031E+02  0.51990504031E+02  0.00000000000E+00 0.  1.
          2   -1    0    0  501    0  0.00000000000E+00 -0.00000000000E+00 -0.31888149851E+03  0.31888149851E+03  0.00000000000E+00 0. -1.
         23    2    1    2    0    0  0.15081704840E+02 -0.59948559058E+02 -0.16181436319E+03  0.19625956679E+03  0.92263979248E+02 0.  0.
          5    1    1    2  502    0  0.28953508724E+02  0.64168490282E+02 -0.10912021666E+03  0.12994311254E+03  0.47000000000E+01 0.  1.
         -5    1    1    2    0  502 -0.44035213564E+02 -0.42199312244E+01  0.40435853784E+01  0.44669323208E+02  0.47000000000E+01 0.  1.
        -11    1    3    3    0    0  0.38906796112E+02 -0.61713659224E+02 -0.68985376498E+02  0.10040566064E+03  0.00000000000E+00 0.  1.
         11    1    3    3    0    0 -0.23825091273E+02  0.17651001663E+01 -0.92828986691E+02  0.95853906143E+02  0.00000000000E+00 0. -1.
<mgrwt>
<rscale>  0 0.13174046E+03</rscale>
<asrwt>0</asrwt>
<pdfrwt beam="2">  1        2 0.49058692E-01 0.13945754E+03</pdfrwt>
<pdfrwt beam="1">  1       -2 0.79985391E-02 0.13945754E+03</pdfrwt>
<totfact> 0.91932185E+03</totfact>
</mgrwt>
</event>
<event>
 7    1  0.1446636E-005  0.3135569E+03  0.7546771E-02  0.1080098E+00
         -3   -1    0    0    0  501 -0.00000000000E+00  0.00000000000E+00  0.61402206675E+02  0.61402206675E+02  0.00000000000E+00 0.  1.
          3   -1    0    0  501    0  0.00000000000E+00 -0.00000000000E+00 -0.16058829411E+04  0.16058829411E+04  0.00000000000E+00 0. -1.
         23    2    1    2    0    0 -0.21399626884E+03 -0.19207055156E+03 -0.92586116838E+03  0.97373767863E+03  0.90888194036E+02 0.  0.
          5    1    1    2  502    0  0.22402282085E+03  0.16461260363E+03 -0.59064583386E+03  0.65281553642E+03  0.47000000000E+01 0. -1.
         -5    1    1    2    0  502 -0.10026552010E+02  0.27457947934E+02 -0.27973732138E+02  0.40731932678E+02  0.47000000000E+01 0. -1.
        -11    1    3    3    0    0 -0.63021348963E+02 -0.11673181355E+03 -0.42460004041E+03  0.44484064679E+03  0.00000000000E+00 0.  1.
         11    1    3    3    0    0 -0.15097491987E+03 -0.75338738019E+02 -0.50126112797E+03  0.52889703184E+03  0.00000000000E+00 0. -1.
<mgrwt>
<rscale>  0 0.31051695E+03</rscale>
<asrwt>0</asrwt>
<pdfrwt beam="2">  1        3 0.24705889E+00 0.31355689E+03</pdfrwt>
<pdfrwt beam="1">  1       -3 0.94464944E-02 0.31355689E+03</pdfrwt>
<totfact> 0.17374720E+01</totfact>
</mgrwt>
</event>
<event>
 7    1  0.1446636E-005  0.1318694E+03  0.7546771E-02  0.1236656E+00
          4   -1    0    0  501    0  0.00000000000E+00  0.00000000000E+00  0.25969154248E+02  0.25969154248E+02  0.00000000000E+00 0. -1.
         -4   -1    0    0    0  501 -0.00000000000E+00 -0.00000000000E+00 -0.68959691956E+03  0.68959691956E+03  0.00000000000E+00 0.  1.
         23    2    1    2    0    0  0.30998240353E+02 -0.43224771029E+02 -0.13007400830E+03  0.16595790185E+03  0.88280834932E+02 0.  0.
          5    1    1    2  502    0 -0.27276131051E+02 -0.37060545805E+02 -0.27328677216E+03  0.27717363009E+03  0.47000000000E+01 0. -1.
         -5    1    1    2    0  502 -0.37221093021E+01  0.80285316834E+02 -0.26026698485E+03  0.27243454187E+03  0.47000000000E+01 0.  1.
        -11    1    3    3    0    0  0.54205473238E+02 -0.43469008697E+02 -0.58874783876E+02  0.91071555507E+02  0.00000000000E+00 0. -1.
         11    1    3    3    0    0 -0.23207232886E+02  0.24423766777E+00 -0.71199224425E+02  0.74886346345E+02  0.00000000000E+00 0.  1.
<mgrwt>
<rscale>  0 0.12399030E+03</rscale>
<asrwt>0</asrwt>
<pdfrwt beam="1">  1        4 0.39952548E-02 0.13186937E+03</pdfrwt>
<pdfrwt beam="2">  1       -4 0.10609182E+00 0.13186937E+03</pdfrwt>
<totfact> 0.42212923E+02</totfact>
</mgrwt>
</event>
<event>
 7    1  0.1446636E-005  0.1391121E+03  0.7546771E-02  0.1225791E+00
          2   -1    0    0  501    0  0.00000000000E+00  0.00000000000E+00  0.79829739786E+03  0.79829739786E+03  0.00000000000E+00 0. -1.
         -2   -1    0    0    0  501 -0.00000000000E+00 -0.00000000000E+00 -0.19406707693E+02  0.19406707693E+02  0.00000000000E+00 0.  1.
         23    2    1    2    0    0  0.16675631350E+02 -0.58733137500E+02  0.34215093669E+03  0.35934422404E+03  0.91287182842E+02 0.  0.
          5    1    1    2  502    0  0.38118017170E+02  0.50310441035E+02  0.34735393309E+03  0.35307360216E+03  0.47000000000E+01 0.  1.
         -5    1    1    2    0  502 -0.54793648519E+02  0.84226964654E+01  0.89385820393E+02  0.10528627936E+03  0.47000000000E+01 0.  1.
        -11    1    3    3    0    0  0.18320110798E+02 -0.12233784896E+01  0.75823981061E+01  0.19864940866E+02  0.00000000000E+00 0.  1.
         11    1    3    3    0    0 -0.16444794476E+01 -0.57509759011E+02  0.33456853858E+03  0.33947928317E+03  0.00000000000E+00 0. -1.
<mgrwt>
<rscale>  0 0.13112834E+03</rscale>
<asrwt>0</asrwt>
<pdfrwt beam="1">  1        2 0.12281496E+00 0.13911207E+03</pdfrwt>
<pdfrwt beam="2">  1       -2 0.29856480E-02 0.13911207E+03</pdfrwt>
<totfact> 0.14499014E+04</totfact>
</mgrwt>
</event>
<event>
 7    1  0.1446636E-005  0.2047757E+03  0.7546771E-02  0.1150007E+00
         -1   -1    0    0    0  501 -0.00000000000E+00  0.00000000000E+00  0.86724697609E+02  0.86724697609E+02  0.00000000000E+00 0.  1.
          1   -1    0    0  501    0  0.00000000000E+00 -0.00000000000E+00 -0.56489425882E+03  0.56489425882E+03  0.00000000000E+00 0. -1.
         23    2    1    2    0    0 -0.14298039408E+03 -0.76578529075E+02 -0.38383739353E+03  0.42616024270E+03  0.89295820611E+02 0.  0.
          5    1    1    2  502    0 -0.97933951516E+01  0.28050030867E+02 -0.51220441051E+02  0.59399818196E+02  0.47000000000E+01 0. -1.
         -5    1    1    2    0  502  0.15277378923E+03  0.48528498208E+02 -0.43111726636E+02  0.16605889554E+03  0.47000000000E+01 0. -1.
        -11    1    3    3    0    0 -0.44501639611E+02 -0.63052858072E+02 -0.10631927311E+03  0.13137673566E+03  0.00000000000E+00 0.  1.
         11    1    3    3    0    0 -0.98478754469E+02 -0.13525671002E+02 -0.27751812042E+03  0.29478350704E+03  0.00000000000E+00 0. -1.
<mgrwt>
<rscale>  0 0.19968300E+03</rscale>
<asrwt>0</asrwt>
<pdfrwt beam="2">  1        1 0.86906810E-01 0.20477567E+03</pdfrwt>
<pdfrwt beam="1">  1       -1 0.13342261E-01 0.20477567E+03</pdfrwt>
<totfact> 0.14766855E+03</totfact>
</mgrwt>
</event>
<event>
 7    1  0.1446636E-005  0.1292726E+03  0.7546771E-02  0.1243731E+00
         -1   -1    0    0    0  501 -0.00000000000E+00  0.00000000000E+00  0.93123174303E+02  0.93123174303E+02  0.00000000000E+00 0.  1.
          1   -1    0    0  501    0  0.00000000000E+00 -0.00000000000E+00 -0.17684174945E+03  0.17684174945E+03  0.00000000000E+00 0. -1.
         23    2    1    2    0    0 -0.61269752452E+01 -0.32387583258E+02 -0.10220438898E+03  0.13937727763E+03  0.88847020316E+02 0.  0.
          5    1    1    2  502    0  0.50787253544E+02 -0.10979219352E+02 -0.21524421468E+02  0.56438276902E+02  0.47000000000E+01 0. -1.
         -5    1    1    2    0  502 -0.44660278299E+02  0.43366802611E+02  0.40010235300E+02  0.74149369216E+02  0.47000000000E+01 0. -1.
        -11    1    3    3    0    0 -0.33395602133E+02  0.17384500806E+02 -0.34876240158E+02  0.51320943460E+02  0.00000000000E+00 0.  1.
         11    1    3    3    0    0  0.27268626887E+02 -0.49772084064E+02 -0.67328148818E+02  0.88056334171E+02  0.00000000000E+00 0. -1.
<mgrwt>
<rscale>  0 0.11961652E+03</rscale>
<asrwt>0</asrwt>
<pdfrwt beam="2">  1        1 0.27206422E-01 0.12927261E+03</pdfrwt>
<pdfrwt beam="1">  1       -1 0.14326642E-01 0.12927261E+03</pdfrwt>
<totfact> 0.56415163E+03</totfact>
</mgrwt>
</event>
<event>
 7    1  0.1446636E-005  0.1484338E+03  0.7546771E-02  0.1211667E+00
          1   -1    0    0  501    0  0.00000000000E+00  0.00000000000E+00  0.83258161165E+02  0.83258161165E+02  0.00000000000E+00 0. -1.
         -1   -1    0    0    0  501 -0.00000000000E+00 -0.00000000000E+00 -0.22807346238E+03  0.22807346238E+03  0.00000000000E+00 0.  1.
         23    2    1    2    0    0  0.26242569540E+02  0.75622333037E+02 -0.34795790579E+02  0.12656993400E+03  0.91661286486E+02 0.  0.
          5    1    1    2  502    0  0.13267325528E+02 -0.85417266958E+02 -0.24559081468E+02  0.89985387168E+02  0.47000000000E+01 0. -1.
         -5    1    1    2    0  502 -0.39509895068E+02  0.97949339215E+01 -0.85460429165E+02  0.94776302375E+02  0.47000000000E+01 0. -1.
        -11    1    3    3    0    0 -0.25629667343E+01 -0.11468756351E+02 -0.32773187097E+02  0.34816418013E+02  0.00000000000E+00 0.  1.
         11    1    3    3    0    0  0.28805536274E+02  0.87091089388E+02 -0.20226034816E+01  0.91753515985E+02  0.00000000000E+00 0. -1.
<mgrwt>
<rscale>  0 0.14124271E+03</rscale>
<asrwt>0</asrwt>
<pdfrwt beam="1">  1        1 0.12808948E-01 0.14843379E+03</pdfrwt>
<pdfrwt beam="2">  1       -1 0.35088225E-01 0.14843379E+03</pdfrwt>
<totfact> 0.34599227E+03</totfact>
</mgrwt>
</event>
<event>
 7    1  0.1446636E-005  0.2805900E+03  0.7546771E-02  0.1132739E+00
          2   -1    0    0  501    0  0.00000000000E+00  0.00000000000E+00  0.52620207476E+03  0.52620207476E+03  0.00000000000E+00 0. -1.
         -2   -1    0    0    0  501 -0.00000000000E+00 -0.00000000000E+00 -0.84237533888E+02  0.84237533888E+02  0.00000000000E+00 0.  1.
         23    2    1    2    0    0  0.52110858651E+02 -0.16956143460E+02  0.24336351076E+03  0.26667642134E+03  0.94273341604E+02 0.  0.
          5    1    1    2  502    0  0.10655096191E+03 -0.10471363908E+02  0.13052978640E+03  0.16888715784E+03  0.47000000000E+01 0. -1.
         -5    1    1    2    0  502 -0.15866182056E+03  0.27427507368E+02  0.68071243711E+02  0.17487602947E+03  0.47000000000E+01 0.  1.
        -11    1    3    3    0    0 -0.10302034846E+02 -0.29936868207E+02  0.15205564372E+03  0.15531666616E+03  0.00000000000E+00 0.  1.
         11    1    3    3    0    0  0.62412893498E+02  0.12980724748E+02  0.91307867046E+02  0.11135975518E+03  0.00000000000E+00 0. -1.
<mgrwt>
<rscale>  0 0.22154107E+03</rscale>
<asrwt>0</asrwt>
<pdfrwt beam="1">  1        2 0.80954163E-01 0.28059002E+03</pdfrwt>
<pdfrwt beam="2">  1       -2 0.12959621E-01 0.28059002E+03</pdfrwt>
<totfact> 0.25557858E+03</totfact>
</mgrwt>
</event>
<event>
 7    1  0.1446636E-005  0.1367731E+03  0.7546771E-02  0.1230746E+00
          1   -1    0    0  501    0  0.00000000000E+00  0.00000000000E+00  0.47731404275E+03  0.47731404275E+03  0.00000000000E+00 0. -1.
         -1   -1    0    0    0  501 -0.00000000000E+00 -0.00000000000E+00 -0.30477762072E+02  0.30477762072E+02  0.00000000000E+00 0.  1.
         23    2    1    2    0    0  0.78065136558E+01 -0.54915997427E+02  0.20271985149E+03  0.22797095700E+03  0.88310308681E+02 0.  0.
          5    1    1    2  502    0 -0.58864321136E+02 -0.12472937751E+01  0.12865115406E+03  0.14156190690E+03  0.47000000000E+01 0. -1.
         -5    1    1    2    0  502  0.51057807480E+02  0.56163291202E+02  0.11546527513E+03  0.13825894092E+03  0.47000000000E+01 0. -1.
        -11    1    3    3    0    0 -0.17689077864E+02 -0.16069370861E+01  0.10178197351E+01  0.17791056166E+02  0.00000000000E+00 0.  1.
         11    1    3    3    0    0  0.25495591520E+02 -0.53309060341E+02  0.20170203176E+03  0.21017990084E+03  0.00000000000E+00 0. -1.
<mgrwt>
<rscale>  0 0.12780747E+03</rscale>
<asrwt>0</asrwt>
<pdfrwt beam="1">  1        1 0.73432924E-01 0.13677308E+03</pdfrwt>
<pdfrwt beam="2">  1       -1 0.46888868E-02 0.13677308E+03</pdfrwt>
<totfact> 0.88861885E+03</totfact>
</mgrwt>
</event>
<event>
 7    1  0.1446636E-005  0.2012765E+03  0.7546771E-02  0.1156867E+00
          1   -1    0    0  501    0  0.00000000000E+00  0.00000000000E+00  0.64001673992E+03  0.64001673992E+03  0.00000000000E+00 0. -1.
         -1   -1    0    0    0  501 -0.00000000000E+00 -0.00000000000E+00 -0.89415083196E+02  0.89415083196E+02  0.00000000000E+00 0.  1.
         23    2    1    2    0    0  0.27817383825E+02  0.13442867826E+03  0.49287055589E+03  0.52003956410E+03  0.93139073375E+02 0.  0.
          5    1    1    2  502    0 -0.40521743826E+02  0.15956945738E+02 -0.83142775520E+01  0.44585345700E+02  0.47000000000E+01 0. -1.
         -5    1    1    2    0  502  0.12704360000E+02 -0.15038562400E+03  0.66045378384E+02  0.16480691331E+03  0.47000000000E+01 0.  1.
        -11    1    3    3    0    0  0.46364735800E+02  0.49802187696E+02  0.12730645685E+03  0.14434985480E+03  0.00000000000E+00 0.  1.
         11    1    3    3    0    0 -0.18547351975E+02  0.84626490566E+02  0.36556409904E+03  0.37568970930E+03  0.00000000000E+00 0. -1.
<mgrwt>
<rscale>  0 0.19177872E+03</rscale>
<asrwt>0</asrwt>
<pdfrwt beam="1">  1        1 0.98464111E-01 0.20127652E+03</pdfrwt>
<pdfrwt beam="2">  1       -1 0.13756167E-01 0.20127652E+03</pdfrwt>
<totfact> 0.11841665E+03</totfact>
</mgrwt>
</event>
<event>
 7    1  0.1446636E-005  0.1434627E+03  0.7546771E-02  0.1227861E+00
          2   -1    0    0  501    0  0.00000000000E+00  0.00000000000E+00  0.78012575259E+02  0.78012575259E+02  0.00000000000E+00 0. -1.
         -2   -1    0    0    0  501 -0.00000000000E+00 -0.00000000000E+00 -0.36111578974E+03  0.36111578974E+03  0.00000000000E+00 0.  1.
         23    2    1    2    0    0  0.70330078683E+02  0.28292408677E+01  0.25119196130E+02  0.99153932194E+02  0.65162901131E+02 0.  0.
          5    1    1    2  502    0 -0.39417421784E+01 -0.28978594474E+02 -0.23771172312E+03  0.23955009826E+03  0.47000000000E+01 0. -1.
         -5    1    1    2    0  502 -0.66388336504E+02  0.26149353606E+02 -0.70510687495E+02  0.10042433454E+03  0.47000000000E+01 0. -1.
        -11    1    3    3    0    0  0.32352786332E+02  0.27799687389E+02  0.31812869267E+02  0.53212630582E+02  0.00000000000E+00 0.  1.
         11    1    3    3    0    0  0.37977292351E+02 -0.24970446521E+02 -0.66936731369E+01  0.45941301612E+02  0.00000000000E+00 0. -1.
<mgrwt>
<rscale>  0 0.12972717E+03</rscale>
<asrwt>0</asrwt>
<pdfrwt beam="1">  1        2 0.12001935E-01 0.14346275E+03</pdfrwt>
<pdfrwt beam="2">  1       -2 0.55556274E-01 0.14346275E+03</pdfrwt>
<totfact> 0.15429059E+03</totfact>
</mgrwt>
</event>
<event>
 7    1  0.1446636E-005  0.1403153E+03  0.7546771E-02  0.1224422E+00
          3   -1    0    0  501    0  0.00000000000E+00  0.00000000000E+00  0.51691488362E+02  0.51691488362E+02  0.00000000000E+00 0. -1.
         -3   -1    0    0    0  501 -0.00000000000E+00 -0.00000000000E+00 -0.32799484342E+03  0.32799484342E+03  0.00000000000E+00 0.  1.
         23    2    1    2    0    0 -0.59926389186E+02 -0.21692611482E+02 -0.71022992699E+02  0.13103311612E+03  0.89797942701E+02 0.  0.
          5    1    1    2  502    0  0.23404688900E+02 -0.49909743902E+02 -0.54160603501E+02  0.77422367378E+02  0.47000000000E+01 0.  1.
         -5    1    1    2    0  502  0.36521700286E+02  0.71602355383E+02 -0.15111975886E+03  0.17123084829E+03  0.47000000000E+01 0.  1.
        -11    1    3    3    0    0 -0.47256356337E+02  0.14664477869E+02  0.86176589269E+00  0.49486894890E+02  0.00000000000E+00 0. -1.
         11    1    3    3    0    0 -0.12670032849E+02 -0.36357089351E+02 -0.71884758591E+02  0.81546221226E+02  0.00000000000E+00 0.  1.
<mgrwt>
<rscale>  0 0.13206597E+03</rscale>
<asrwt>0</asrwt>
<pdfrwt beam="1">  1        3 0.79525368E-02 0.14031534E+03</pdfrwt>
<pdfrwt beam="2">  1       -3 0.50460744E-01 0.14031534E+03</pdfrwt>
<totfact> 0.97966877E+02</totfact>
</mgrwt>
</event>
<event>
 7    1  0.1446636E-005  0.2201325E+03  0.7546771E-02  0.1133784E+00
         -2   -1    0    0    0  501 -0.00000000000E+00  0.00000000000E+00  0.64079550261E+02  0.64079550261E+02  0.00000000000E+00 0.  1.
          2   -1    0    0  501    0  0.00000000000E+00 -0.00000000000E+00 -0.18905530193E+03  0.18905530193E+03  0.00000000000E+00 0. -1.
         23    2    1    2    0    0  0.80912519691E+01  0.24831020177E+00 -0.70822923561E+02  0.11666108156E+03  0.92349290375E+02 0.  0.
          5    1    1    2  502    0 -0.56620439241E+02 -0.11173361462E+02  0.60716163170E+01  0.58220895484E+02  0.47000000000E+01 0. -1.
         -5    1    1    2    0  502  0.48529187272E+02  0.10925051260E+02 -0.60224444425E+02  0.78252875146E+02  0.47000000000E+01 0. -1.
        -11    1    3    3    0    0  0.38055716479E+02 -0.19084007251E+01  0.17212932280E+01  0.38142396364E+02  0.00000000000E+00 0.  1.
         11    1    3    3    0    0 -0.29964464510E+02  0.21567109269E+01 -0.72544216789E+02  0.78518685196E+02  0.00000000000E+00 0. -1.
<mgrwt>
<rscale>  0 0.22013249E+03</rscale>
<asrwt>0</asrwt>
<pdfrwt beam="2">  1        2 0.29085431E-01 0.22013249E+03</pdfrwt>
<pdfrwt beam="1">  1       -2 0.98583922E-02 0.22013249E+03</pdfrwt>
<totfact> 0.12015840E+04</totfact>
</mgrwt>
</event>
<event>
 7    1  0.1446636E-005  0.1754376E+03  0.7546771E-02  0.1177924E+00
          3   -1    0    0  501    0  0.00000000000E+00  0.00000000000E+00  0.21765896103E+03  0.21765896103E+03  0.00000000000E+00 0. -1.
         -3   -1    0    0    0  501 -0.00000000000E+00 -0.00000000000E+00 -0.14423104127E+03  0.14423104127E+03  0.00000000000E+00 0.  1.
         23    2    1    2    0    0 -0.98041707900E+02  0.74442046678E+02  0.10069777085E+03  0.18434568699E+03  0.93217468625E+02 0.  0.
          5    1    1    2  502    0  0.61550634621E+02  0.27069961509E+02 -0.12726444452E+02  0.68595304699E+02  0.47000000000E+01 0. -1.
         -5    1    1    2    0  502  0.36491073279E+02 -0.10151200819E+03 -0.14543406647E+02  0.10894901061E+03  0.47000000000E+01 0. -1.
        -11    1    3    3    0    0 -0.49511685850E+02  0.88600901548E+02  0.51541464841E+02  0.11383342826E+03  0.00000000000E+00 0.  1.
         11    1    3    3    0    0 -0.48530022050E+02 -0.14158854870E+02  0.49156306013E+02  0.70512258737E+02  0.00000000000E+00 0. -1.
<mgrwt>
<rscale>  0 0.16992713E+03</rscale>
<asrwt>0</asrwt>
<pdfrwt beam="1">  1        3 0.33485994E-01 0.17543756E+03</pdfrwt>
<pdfrwt beam="2">  1       -3 0.22189391E-01 0.17543756E+03</pdfrwt>
<totfact> 0.39128281E+02</totfact>
</mgrwt>
</event>
<event>
 7    1  0.1446636E-005  0.1644637E+03  0.7546771E-02  0.1191116E+00
         -2   -1    0    0    0  501 -0.00000000000E+00  0.00000000000E+00  0.80980162812E+02  0.80980162812E+02  0.00000000000E+00 0.  1.
          2   -1    0    0  501    0  0.00000000000E+00 -0.00000000000E+00 -0.32149406428E+03  0.32149406428E+03  0.00000000000E+00 0. -1.
         23    2    1    2    0    0 -0.10690341117E+03 -0.35732462081E-01 -0.17865587312E+03  0.22676219133E+03  0.89860056868E+02 0.  0.
          5    1    1    2  502    0  0.13306956852E+03 -0.87088786649E+01 -0.63297378267E+02  0.14768887138E+03  0.47000000000E+01 0. -1.
         -5    1    1    2    0  502 -0.26166157348E+02  0.87446111270E+01  0.14393499163E+01  0.28023164388E+02  0.47000000000E+01 0. -1.
        -11    1    3    3    0    0 -0.85926893745E+01 -0.18705935810E+02 -0.92352624075E+02  0.94618991322E+02  0.00000000000E+00 0. -1.
         11    1    3    3    0    0 -0.98310721795E+02  0.18670203348E+02 -0.86303249047E+02  0.13214320001E+03  0.00000000000E+00 0.  1.
<mgrwt>
<rscale>  0 0.15787584E+03</rscale>
<asrwt>0</asrwt>
<pdfrwt beam="2">  1        2 0.49460626E-01 0.16446369E+03</pdfrwt>
<pdfrwt beam="1">  1       -2 0.12458486E-01 0.16446369E+03</pdfrwt>
<totfact> 0.45790461E+03</totfact>
</mgrwt>
</event>
<event>
 7    1  0.1446636E-005  0.1661526E+03  0.7546771E-02  0.1189019E+00
         -1   -1    0    0    0  501 -0.00000000000E+00  0.00000000000E+00  0.24834836289E+03  0.24834836289E+03  0.00000000000E+00 0.  1.
          1   -1    0    0  501    0  0.00000000000E+00 -0.00000000000E+00 -0.18732343182E+03  0.18732343182E+03  0.00000000000E+00 0. -1.
         23    2    1    2    0    0  0.10709034244E+03  0.22665376618E+02 -0.12298420104E+03  0.18774834359E+03  0.90234506008E+02 0.  0.
          5    1    1    2  502    0 -0.12545493429E+03 -0.46346393457E+02  0.16360340683E+03  0.21136483494E+03  0.47000000000E+01 0. -1.
         -5    1    1    2    0  502  0.18364591847E+02  0.23681016839E+02  0.20405725280E+02  0.36558616172E+02  0.47000000000E+01 0. -1.
        -11    1    3    3    0    0  0.12119393112E+03  0.28019322634E+02 -0.11900006570E+03  0.17214548213E+03  0.00000000000E+00 0.  1.
         11    1    3    3    0    0 -0.14103588676E+02 -0.53539460156E+01 -0.39841353433E+01  0.15602861465E+02  0.00000000000E+00 0. -1.
<mgrwt>
<rscale>  0 0.15971491E+03</rscale>
<asrwt>0</asrwt>
<pdfrwt beam="2">  1        1 0.28818989E-01 0.16615257E+03</pdfrwt>
<pdfrwt beam="1">  1       -1 0.38207441E-01 0.16615257E+03</pdfrwt>
<totfact> 0.10610671E+03</totfact>
</mgrwt>
</event>
<event>
 7    1  0.1446636E-005  0.1319885E+03  0.7546771E-02  0.1238347E+00
         -1   -1    0    0    0  501 -0.00000000000E+00  0.00000000000E+00  0.51398270822E+03  0.51398270822E+03  0.00000000000E+00 0.  1.
          1   -1    0    0  501    0  0.00000000000E+00 -0.00000000000E+00 -0.30450629737E+02  0.30450629737E+02  0.00000000000E+00 0. -1.
         23    2    1    2    0    0 -0.31649335739E+02  0.28203515865E+02  0.10962958910E+03  0.14791846228E+03  0.89800367029E+02 0.  0.
          5    1    1    2  502    0 -0.44897938162E+02  0.87098165647E+01  0.10982099170E+03  0.11905639829E+03  0.47000000000E+01 0.  1.
         -5    1    1    2    0  502  0.76547273901E+02 -0.36913332430E+02  0.26408149769E+03  0.27745847739E+03  0.47000000000E+01 0.  1.
        -11    1    3    3    0    0 -0.44121834815E+02  0.21160920152E+02  0.12042178624E+03  0.12998433541E+03  0.00000000000E+00 0.  1.
         11    1    3    3    0    0  0.12472499077E+02  0.70425957131E+01 -0.10792197145E+02  0.17934126876E+02  0.00000000000E+00 0. -1.
<mgrwt>
<rscale>  0 0.12292594E+03</rscale>
<asrwt>0</asrwt>
<pdfrwt beam="2">  1        1 0.46847126E-02 0.13198854E+03</pdfrwt>
<pdfrwt beam="1">  1       -1 0.79074256E-01 0.13198854E+03</pdfrwt>
<totfact> 0.29327650E+03</totfact>
</mgrwt>
</event>
<event>
 7    1  0.1446636E-005  0.1127851E+03  0.7546771E-02  0.1265637E+00
          1   -1    0    0  501    0  0.00000000000E+00  0.00000000000E+00  0.10692090519E+03  0.10692090519E+03  0.00000000000E+00 0. -1.
         -1   -1    0    0    0  501 -0.00000000000E+00 -0.00000000000E+00 -0.10311189357E+03  0.10311189357E+03  0.00000000000E+00 0.  1.
         23    2    1    2    0    0  0.13585029558E+02  0.15797975541E+02  0.23922899606E+02  0.95468236274E+02  0.90043044998E+02 0.  0.
          5    1    1    2  502    0 -0.69236280677E+01 -0.63105007676E+02 -0.34525712439E+01  0.63750991111E+02  0.47000000000E+01 0. -1.
         -5    1    1    2    0  502 -0.66614014904E+01  0.47307032135E+02 -0.16661316743E+02  0.50813571365E+02  0.47000000000E+01 0.  1.
        -11    1    3    3    0    0  0.49874758150E+02 -0.87936629546E+00  0.24392380796E+02  0.55527047702E+02  0.00000000000E+00 0. -1.
         11    1    3    3    0    0 -0.36289728592E+02  0.16677341836E+02 -0.46948118977E+00  0.39941188572E+02  0.00000000000E+00 0.  1.
<mgrwt>
<rscale>  0 0.10730819E+03</rscale>
<asrwt>0</asrwt>
<pdfrwt beam="1">  1        1 0.16449370E-01 0.11278506E+03</pdfrwt>
<pdfrwt beam="2">  1       -1 0.15863368E-01 0.11278506E+03</pdfrwt>
<totfact> 0.89910286E+03</totfact>
</mgrwt>
</event>
<event>
 6    1  0.1446636E-005  0.2753906E+03  0.7546771E-02  0.1098859E+00
          2   -1    0    0  501    0  0.00000000000E+00  0.00000000000E+00  0.21493872861E+04  0.21493872861E+04  0.00000000000E+00 0.  1.
         -2   -1    0    0    0  501 -0.00000000000E+00 -0.00000000000E+00 -0.36884696943E+02  0.36884696943E+02  0.00000000000E+00 0. -1.
          5    1    1    2  502    0 -0.82915232152E+02  0.18023743107E+03  0.72001914552E+03  0.74686687381E+03  0.47000000000E+01 0. -1.
         -5    1    1    2    0  502 -0.46911027436E+02  0.22084698208E+02  0.63140053515E+02  0.81836023534E+02  0.47000000000E+01 0. -1.
        -11    1    1    2    0    0  0.22943140370E+02 -0.15795997172E+03  0.75791571266E+03  0.77454113373E+03  0.00000000000E+00 0.  1.
         11    1    1    2    0    0  0.10688311922E+03 -0.44362157560E+02  0.57142767747E+03  0.58302795197E+03  0.00000000000E+00 0. -1.
<mgrwt>
<rscale>  0 0.27427191E+03</rscale>
<asrwt>0</asrwt>
<pdfrwt beam="1">  1        2 0.33067487E+00 0.27539058E+03</pdfrwt>
<pdfrwt beam="2">  1       -2 0.56745705E-02 0.27539058E+03</pdfrwt>
<totfact> 0.99857816E+02</totfact>
</mgrwt>
</event>
<event>
 7    1  0.1446636E-005  0.1326415E+03  0.7546771E-02  0.1236795E+00
          2   -1    0    0  501    0  0.00000000000E+00  0.00000000000E+00  0.32396838869E+03  0.32396838869E+03  0.00000000000E+00 0. -1.
         -2   -1    0    0    0  501 -0.00000000000E+00 -0.00000000000E+00 -0.47278552682E+02  0.47278552682E+02  0.00000000000E+00 0.  1.
         23    2    1    2    0    0  0.69021289186E+01  0.43865702960E+02  0.18245293059E+03  0.20853750204E+03  0.90702693448E+02 0.  0.
          5    1    1    2  502    0  0.18465755412E+02 -0.53984264365E+02  0.11474514134E+03  0.12823346826E+03  0.47000000000E+01 0.  1.
         -5    1    1    2    0  502 -0.25367884331E+02  0.10118561406E+02 -0.20508235919E+02  0.34475971065E+02  0.47000000000E+01 0.  1.
        -11    1    3    3    0    0  0.35507135674E+02  0.15456911619E+02  0.15499605877E+03  0.15976060539E+03  0.00000000000E+00 0. -1.
         11    1    3    3    0    0 -0.28605006756E+02  0.28408791340E+02  0.27456871814E+02  0.48776896649E+02  0.00000000000E+00 0.  1.
<mgrwt>
<rscale>  0 0.12390199E+03</rscale>
<asrwt>0</asrwt>
<pdfrwt beam="1">  1        2 0.49841289E-01 0.13264150E+03</pdfrwt>
<pdfrwt beam="2">  1       -2 0.72736237E-02 0.13264150E+03</pdfrwt>
<totfact> 0.10426190E+04</totfact>
</mgrwt>
</event>
<event>
 7    1  0.1446636E-005  0.1276708E+03  0.7546771E-02  0.1245881E+00
         -2   -1    0    0    0  501 -0.00000000000E+00  0.00000000000E+00  0.70966115879E+03  0.70966115879E+03  0.00000000000E+00 0.  1.
          2   -1    0    0  501    0  0.00000000000E+00 -0.00000000000E+00 -0.23370537561E+02  0.23370537561E+02  0.00000000000E+00 0. -1.
         23    2    1    2    0    0  0.25756574051E+02 -0.34054746694E+01  0.12017380124E+03  0.15269723114E+03  0.90552214369E+02 0.  0.
          5    1    1    2  502    0  0.40293623957E+02  0.13220799219E+02  0.38293463040E+03  0.38530427823E+03  0.47000000000E+01 0.  1.
         -5    1    1    2    0  502 -0.66050198008E+02 -0.98153245500E+01  0.18318218958E+03  0.19503018698E+03  0.47000000000E+01 0.  1.
        -11    1    3    3    0    0 -0.94821806127E+01 -0.15883502911E+02 -0.72760205145E+01  0.19878075571E+02  0.00000000000E+00 0. -1.
         11    1    3    3    0    0  0.35238754664E+02  0.12478028241E+02  0.12744982176E+03  0.13281915557E+03  0.00000000000E+00 0.  1.
<mgrwt>
<rscale>  0 0.11832812E+03</rscale>
<asrwt>0</asrwt>
<pdfrwt beam="2">  1        2 0.35954679E-02 0.12767082E+03</pdfrwt>
<pdfrwt beam="1">  1       -2 0.10917862E+00 0.12767082E+03</pdfrwt>
<totfact> 0.16353789E+03</totfact>
</mgrwt>
</event>
<event>
 7    1  0.1446636E-005  0.1286816E+03  0.7546771E-02  0.1243880E+00
          2   -1    0    0  501    0  0.00000000000E+00  0.00000000000E+00  0.40658880309E+03  0.40658880309E+03  0.00000000000E+00 0. -1.
         -2   -1    0    0    0  501 -0.00000000000E+00 -0.00000000000E+00 -0.31868369956E+02  0.31868369956E+02  0.00000000000E+00 0.  1.
         23    2    1    2    0    0 -0.22817417037E+02 -0.20305081291E+02  0.19686407246E+03  0.21893078742E+03  0.90787090534E+02 0.  0.
          5    1    1    2  502    0  0.95493413730E+00  0.63340771489E+02  0.15161344468E+03  0.16438276016E+03  0.47000000000E+01 0.  1.
         -5    1    1    2    0  502  0.21862482899E+02 -0.43035690198E+02  0.26242915996E+02  0.55143625464E+02  0.47000000000E+01 0.  1.
        -11    1    3    3    0    0  0.18151572711E+02 -0.33209653522E+02  0.35297622010E+02  0.51752128444E+02  0.00000000000E+00 0.  1.
         11    1    3    3    0    0 -0.40968989747E+02  0.12904572232E+02  0.16156645045E+03  0.16717865897E+03  0.00000000000E+00 0. -1.
<mgrwt>
<rscale>  0 0.11952655E+03</rscale>
<asrwt>0</asrwt>
<pdfrwt beam="1">  1        2 0.62552120E-01 0.12868158E+03</pdfrwt>
<pdfrwt beam="2">  1       -2 0.49028264E-02 0.12868158E+03</pdfrwt>
<totfact> 0.14850026E+04</totfact>
</mgrwt>
</event>
<event>
 7    1  0.1446636E-005  0.1254561E+03  0.7546771E-02  0.1249127E+00
          1   -1    0    0  501    0  0.00000000000E+00  0.00000000000E+00  0.13096186605E+03  0.13096186605E+03  0.00000000000E+00 0. -1.
         -1   -1    0    0    0  501 -0.00000000000E+00 -0.00000000000E+00 -0.10964776245E+03  0.10964776245E+03  0.00000000000E+00 0.  1.
         23    2    1    2    0    0 -0.61519850652E+01  0.87675282266E+01  0.58338683822E+02  0.10980426471E+03  0.92405941622E+02 0.  0.
          5    1    1    2  502    0  0.31616158226E+02 -0.55183501886E+02  0.36509972005E+01  0.63876600738E+02  0.47000000000E+01 0.  1.
         -5    1    1    2    0  502 -0.25464173160E+02  0.46415973659E+02 -0.40675577426E+02  0.66928763057E+02  0.47000000000E+01 0.  1.
        -11    1    3    3    0    0 -0.66222663972E+01  0.42418179930E+02  0.62572968851E+02  0.75884997408E+02  0.00000000000E+00 0. -1.
         11    1    3    3    0    0  0.47028133198E+00 -0.33650651703E+02 -0.42342850291E+01  0.33919267302E+02  0.00000000000E+00 0.  1.
<mgrwt>
<rscale>  0 0.11641748E+03</rscale>
<asrwt>0</asrwt>
<pdfrwt beam="1">  1        1 0.20147979E-01 0.12545606E+03</pdfrwt>
<pdfrwt beam="2">  1       -1 0.16868887E-01 0.12545606E+03</pdfrwt>
<totfact> 0.63563817E+03</totfact>
</mgrwt>
</event>
<event>
 7    1  0.1446636E-005  0.1320679E+03  0.7546771E-02  0.1237040E+00
          2   -1    0    0  501    0  0.00000000000E+00  0.00000000000E+00  0.52896607782E+02  0.52896607782E+02  0.00000000000E+00 0. -1.
         -2   -1    0    0    0  501 -0.00000000000E+00 -0.00000000000E+00 -0.27451381018E+03  0.27451381018E+03  0.00000000000E+00 0.  1.
         23    2    1    2    0    0 -0.13713973750E+02 -0.40354275610E+02 -0.58074710438E+02  0.11720084613E+03  0.92449043827E+02 0.  0.
          5    1    1    2  502    0  0.91638706003E+01  0.42058120094E+02 -0.18381159582E+03  0.18884293672E+03  0.47000000000E+01 0. -1.
         -5    1    1    2    0  502  0.45501031501E+01 -0.17038444850E+01  0.20269103863E+02  0.21366635115E+02  0.47000000000E+01 0. -1.
        -11    1    3    3    0    0 -0.38057797509E+02 -0.57113339099E+02 -0.54077775759E+02  0.87376972283E+02  0.00000000000E+00 0.  1.
         11    1    3    3    0    0  0.24343823758E+02  0.16759063490E+02 -0.39969346783E+01  0.29823873844E+02  0.00000000000E+00 0. -1.
<mgrwt>
<rscale>  0 0.12374722E+03</rscale>
<asrwt>0</asrwt>
<pdfrwt beam="1">  1        2 0.81379398E-02 0.13206785E+03</pdfrwt>
<pdfrwt beam="2">  1       -2 0.42232893E-01 0.13206785E+03</pdfrwt>
<totfact> 0.42438497E+03</totfact>
</mgrwt>
</event>
<event>
 7    1  0.1446636E-005  0.1886114E+03  0.7546771E-02  0.1164560E+00
          2   -1    0    0  501    0  0.00000000000E+00  0.00000000000E+00  0.26268774414E+03  0.26268774414E+03  0.00000000000E+00 0.  1.
         -2   -1    0    0    0  501 -0.00000000000E+00 -0.00000000000E+00 -0.12460509206E+03  0.12460509206E+03  0.00000000000E+00 0. -1.
         23    2    1    2    0    0 -0.21696081762E+02  0.13956734442E+03  0.96147653976E+02  0.19407586881E+03  0.92039708266E+02 0.  0.
          5    1    1    2  502    0  0.45219602584E+02 -0.14160277590E+03  0.62724566350E+02  0.16140823964E+03  0.47000000000E+01 0.  1.
         -5    1    1    2    0  502 -0.23523520822E+02  0.20354314767E+01 -0.20789568238E+02  0.31808727744E+02  0.47000000000E+01 0.  1.
        -11    1    3    3    0    0 -0.21477517102E+02  0.20529500623E+02  0.64328826666E+02  0.70858606231E+02  0.00000000000E+00 0.  1.
         11    1    3    3    0    0 -0.21856465953E+00  0.11903784380E+03  0.31818827310E+02  0.12321726258E+03  0.00000000000E+00 0. -1.
<mgrwt>
<rscale>  0 0.18339225E+03</rscale>
<asrwt>0</asrwt>
<pdfrwt beam="1">  1        2 0.40413499E-01 0.18861138E+03</pdfrwt>
<pdfrwt beam="2">  1       -2 0.19170014E-01 0.18861138E+03</pdfrwt>
<totfact> 0.28078353E+03</totfact>
</mgrwt>
</event>
<event>
 6    1  0.1446636E-005  0.1211448E+03  0.7546771E-02  0.1286822E+00
          2   -1    0    0  501    0  0.00000000000E+00  0.00000000000E+00  0.40751192674E+02  0.40751192674E+02  0.00000000000E+00 0. -1.
         -2   -1    0    0    0  501 -0.00000000000E+00 -0.00000000000E+00 -0.31894840643E+03  0.31894840643E+03  0.00000000000E+00 0.  1.
          5    1    1    2  502    0 -0.56387633152E+02 -0.30041059844E+02 -0.15484804361E+03  0.16757695862E+03  0.47000000000E+01 0. -1.
         -5    1    1    2    0  502  0.56838328806E+02  0.76075458557E+00 -0.13000633245E+03  0.14196799233E+03  0.47000000000E+01 0.  1.
        -11    1    1    2    0    0  0.32960155799E+01  0.17700745495E+02 -0.16225107104E+02  0.24237042112E+02  0.00000000000E+00 0.  1.
         11    1    1    2    0    0 -0.37467112346E+01  0.11579559763E+02  0.22882269414E+02  0.25917606041E+02  0.00000000000E+00 0. -1.
<mgrwt>
<rscale>  0 0.96959734E+02</rscale>
<asrwt>0</asrwt>
<pdfrwt beam="1">  1        2 0.62694141E-02 0.12114479E+03</pdfrwt>
<pdfrwt beam="2">  1       -2 0.49068987E-01 0.12114479E+03</pdfrwt>
<totfact> 0.43864869E+03</totfact>
</mgrwt>
</event>
<event>
 7    1  0.1446636E-005  0.1375830E+03  0.7546771E-02  0.1228068E+00
         -3   -1    0    0    0  501 -0.00000000000E+00  0.00000000000E+00  0.11464329867E+04  0.11464329867E+04  0.00000000000E+00 0.  1.
          3   -1    0    0  501    0  0.00000000000E+00 -0.00000000000E+00 -0.17733901218E+02  0.17733901218E+02  0.00000000000E+00 0. -1.
         23    2    1    2    0    0  0.18840261017E+02  0.54255364810E+02  0.22102955889E+03  0.24612928037E+03  0.91798456976E+02 0.  0.
          5    1    1    2  502    0  0.41249545122E+01  0.29959100511E+02  0.50794518746E+03  0.50886635418E+03  0.47000000000E+01 0. -1.
         -5    1    1    2    0  502 -0.22965215529E+02 -0.84214465321E+02  0.39972433916E+03  0.40917125340E+03  0.47000000000E+01 0. -1.
        -11    1    3    3    0    0  0.13522384723E+02  0.65852329793E+02  0.22327406368E+03  0.23317523826E+03  0.00000000000E+00 0.  1.
         11    1    3    3    0    0  0.53178762945E+01 -0.11596964984E+02 -0.22445047837E+01  0.12954042104E+02  0.00000000000E+00 0. -1.
<mgrwt>
<rscale>  0 0.12958814E+03</rscale>
<asrwt>0</asrwt>
<pdfrwt beam="2">  1        3 0.27282934E-02 0.13758299E+03</pdfrwt>
<pdfrwt beam="1">  1       -3 0.17637425E+00 0.13758299E+03</pdfrwt>
<totfact> 0.31169606E+02</totfact>
</mgrwt>
</event>
<event>
 7    1  0.1446636E-005  0.2635297E+03  0.7546771E-02  0.1107463E+00
         -1   -1    0    0    0  501 -0.00000000000E+00  0.00000000000E+00  0.86960686721E+03  0.86960686721E+03  0.00000000000E+00 0. -1.
          1   -1    0    0  501    0  0.00000000000E+00 -0.00000000000E+00 -0.78913261257E+02  0.78913261257E+02  0.00000000000E+00 0.  1.
         23    2    1    2    0    0 -0.19424490864E+03 -0.12645891669E+03  0.48754313595E+03  0.54683853089E+03  0.87241775025E+02 0.  0.
          5    1    1    2  502    0  0.17105736399E+03  0.14526671436E+03  0.22469188560E+03  0.31760285504E+03  0.47000000000E+01 0.  1.
         -5    1    1    2    0  502  0.23187544655E+02 -0.18807797669E+02  0.78458584404E+02  0.84078742539E+02  0.47000000000E+01 0.  1.
        -11    1    3    3    0    0 -0.29880821088E+02  0.12520052692E+02  0.65742452931E+02  0.73291781980E+02  0.00000000000E+00 0.  1.
         11    1    3    3    0    0 -0.16436408755E+03 -0.13897896938E+03  0.42180068302E+03  0.47354674891E+03  0.00000000000E+00 0. -1.
<mgrwt>
<rscale>  0 0.25946865E+03</rscale>
<asrwt>0</asrwt>
<pdfrwt beam="2">  1        1 0.12140502E-01 0.26352969E+03</pdfrwt>
<pdfrwt beam="1">  1       -1 0.13378566E+00 0.26352969E+03</pdfrwt>
<totfact> 0.25107242E+02</totfact>
</mgrwt>
</event>
<event>
 7    1  0.1446636E-005  0.1257730E+03  0.7546771E-02  0.1249576E+00
         -2   -1    0    0    0  501 -0.00000000000E+00  0.00000000000E+00  0.45229200993E+03  0.45229200993E+03  0.00000000000E+00 0.  1.
          2   -1    0    0  501    0  0.00000000000E+00 -0.00000000000E+00 -0.58307965970E+02  0.58307965970E+02  0.00000000000E+00 0. -1.
         23    2    1    2    0    0 -0.47057435959E+01 -0.13159943788E+02 -0.56199346953E+01  0.91670167243E+02  0.90424044109E+02 0.  0.
          5    1    1    2  502    0  0.14583730198E+02 -0.35504773314E+02  0.39103278442E+02  0.54994822479E+02  0.47000000000E+01 0.  1.
         -5    1    1    2    0  502 -0.98779866025E+01  0.48664717102E+02  0.36050070022E+03  0.36393498618E+03  0.47000000000E+01 0.  1.
        -11    1    3    3    0    0  0.34299839016E+01 -0.51735306764E+02 -0.63725090160E+01  0.52239023983E+02  0.00000000000E+00 0. -1.
         11    1    3    3    0    0 -0.81357274976E+01  0.38575362976E+02  0.75257432072E+00  0.39431143260E+02  0.00000000000E+00 0.  1.
<mgrwt>
<rscale>  0 0.11615640E+03</rscale>
<asrwt>0</asrwt>
<pdfrwt beam="2">  1        2 0.89704566E-02 0.12577299E+03</pdfrwt>
<pdfrwt beam="1">  1       -2 0.69583384E-01 0.12577299E+03</pdfrwt>
<totfact> 0.13733875E+03</totfact>
</mgrwt>
</event>
<event>
 7    1  0.1446636E-005  0.1332080E+03  0.7546771E-02  0.1235679E+00
         -1   -1    0    0    0  501 -0.00000000000E+00  0.00000000000E+00  0.51187912018E+03  0.51187912018E+03  0.00000000000E+00 0.  1.
          1   -1    0    0  501    0  0.00000000000E+00 -0.00000000000E+00 -0.27070304609E+02  0.27070304609E+02  0.00000000000E+00 0. -1.
         23    2    1    2    0    0  0.22848686628E+02 -0.40243331634E+02  0.19891396181E+03  0.22354455740E+03  0.90905537331E+02 0.  0.
          5    1    1    2  502    0 -0.67124183985E+02 -0.75392214495E+01  0.15386865774E+03  0.16810755417E+03  0.47000000000E+01 0.  1.
         -5    1    1    2    0  502  0.44275497357E+02  0.47782553083E+02  0.13202619602E+03  0.14729731321E+03  0.47000000000E+01 0.  1.
        -11    1    3    3    0    0  0.45302298104E+02 -0.28273036055E+02  0.52324392411E+02  0.74762990994E+02  0.00000000000E+00 0. -1.
         11    1    3    3    0    0 -0.22453611476E+02 -0.11970295579E+02  0.14658956940E+03  0.14878156640E+03  0.00000000000E+00 0.  1.
<mgrwt>
<rscale>  0 0.12461061E+03</rscale>
<asrwt>0</asrwt>
<pdfrwt beam="2">  1        1 0.41646627E-02 0.13320797E+03</pdfrwt>
<pdfrwt beam="1">  1       -1 0.78750626E-01 0.13320797E+03</pdfrwt>
<totfact> 0.34771068E+03</totfact>
</mgrwt>
</event>
<event>
 7    1  0.1446636E-005  0.1474034E+03  0.7546771E-02  0.1214876E+00
          1   -1    0    0  501    0  0.00000000000E+00  0.00000000000E+00  0.68235878460E+03  0.68235878460E+03  0.00000000000E+00 0. -1.
         -1   -1    0    0    0  501 -0.00000000000E+00 -0.00000000000E+00 -0.27426709165E+02  0.27426709165E+02  0.00000000000E+00 0.  1.
         23    2    1    2    0    0  0.32702105518E+01  0.78071091547E+02  0.38638495047E+03  0.40344366902E+03  0.85835158918E+02 0.  0.
          5    1    1    2  502    0 -0.60881302263E+02 -0.55962656262E+02  0.12417192937E+03  0.14926188363E+03  0.47000000000E+01 0.  1.
         -5    1    1    2    0  502  0.57611091711E+02 -0.22108435285E+02  0.14437519559E+03  0.15707994111E+03  0.47000000000E+01 0.  1.
        -11    1    3    3    0    0 -0.39503324398E+02  0.52252308104E+02  0.19847296019E+03  0.20900318722E+03  0.00000000000E+00 0.  1.
         11    1    3    3    0    0  0.42773534950E+02  0.25818783443E+02  0.18791199028E+03  0.19444048180E+03  0.00000000000E+00 0. -1.
<mgrwt>
<rscale>  0 0.13885627E+03</rscale>
<asrwt>0</asrwt>
<pdfrwt beam="1">  1        1 0.10497826E+00 0.14740338E+03</pdfrwt>
<pdfrwt beam="2">  1       -1 0.42194942E-02 0.14740338E+03</pdfrwt>
<totfact> 0.64385573E+03</totfact>
</mgrwt>
</event>
<event>
 7    1  0.1446636E-005  0.1361033E+03  0.7546771E-02  0.1230445E+00
          1   -1    0    0  501    0  0.00000000000E+00  0.00000000000E+00  0.52516255374E+03  0.52516255374E+03  0.00000000000E+00 0. -1.
         -1   -1    0    0    0  501 -0.00000000000E+00 -0.00000000000E+00 -0.28290236501E+02  0.28290236501E+02  0.00000000000E+00 0.  1.
         23    2    1    2    0    0  0.51860046756E+02 -0.14499763585E+02  0.24545145870E+03  0.26755673648E+03  0.91872090804E+02 0.  0.
          5    1    1    2  502    0 -0.21209874656E+02 -0.18496195964E+02 -0.18670166247E+01  0.28592722835E+02  0.47000000000E+01 0. -1.
         -5    1    1    2    0  502 -0.30650172101E+02  0.32995959549E+02  0.25328787517E+03  0.25730333092E+03  0.47000000000E+01 0. -1.
        -11    1    3    3    0    0 -0.13709964430E+02  0.58026548161E+01  0.25012776115E+01  0.15096036476E+02  0.00000000000E+00 0.  1.
         11    1    3    3    0    0  0.65570011186E+02 -0.20302418401E+02  0.24295018108E+03  0.25246070001E+03  0.00000000000E+00 0. -1.
<mgrwt>
<rscale>  0 0.12800561E+03</rscale>
<asrwt>0</asrwt>
<pdfrwt beam="1">  1        1 0.80794232E-01 0.13610329E+03</pdfrwt>
<pdfrwt beam="2">  1       -1 0.43523445E-02 0.13610329E+03</pdfrwt>
<totfact> 0.87524284E+03</totfact>
</mgrwt>
</event>
<event>
 7    1  0.1446636E-005  0.1591816E+03  0.7546771E-02  0.1196854E+00
          4   -1    0    0  501    0  0.00000000000E+00  0.00000000000E+00  0.21477188945E+03  0.21477188945E+03  0.00000000000E+00 0. -1.
         -4   -1    0    0    0  501 -0.00000000000E+00 -0.00000000000E+00 -0.10317922678E+03  0.10317922678E+03  0.00000000000E+00 0.  1.
         23    2    1    2    0    0 -0.98511415493E+02 -0.27677862648E+01  0.72915687533E+02  0.15413816152E+03  0.93432947744E+02 0.  0.
          5    1    1    2  502    0  0.77591018538E+02 -0.19696750746E+02  0.79234064972E+02  0.11273178434E+03  0.47000000000E+01 0.  1.
         -5    1    1    2    0  502  0.20920396955E+02  0.22464537010E+02 -0.40557089835E+02  0.51081170383E+02  0.47000000000E+01 0.  1.
        -11    1    3    3    0    0 -0.19370522413E+02 -0.54703290764E+01  0.72194453493E+02  0.74947853564E+02  0.00000000000E+00 0.  1.
         11    1    3    3    0    0 -0.79140893079E+02  0.27025428117E+01  0.72123404036E+00  0.79190307952E+02  0.00000000000E+00 0. -1.
<mgrwt>
<rscale>  0 0.15298373E+03</rscale>
<asrwt>0</asrwt>
<pdfrwt beam="1">  1        4 0.33041829E-01 0.15918158E+03</pdfrwt>
<pdfrwt beam="2">  1       -4 0.15873727E-01 0.15918158E+03</pdfrwt>
<totfact> 0.51537424E+02</totfact>
</mgrwt>
</event>
<event>
 7    1  0.1446636E-005  0.1537192E+03  0.7546771E-02  0.1205013E+00
         -2   -1    0    0    0  501 -0.00000000000E+00  0.00000000000E+00  0.18100490396E+02  0.18100490396E+02  0.00000000000E+00 0.  1.
          2   -1    0    0  501    0  0.00000000000E+00 -0.00000000000E+00 -0.10860413346E+04  0.10860413346E+04  0.00000000000E+00 0. -1.
         23    2    1    2    0    0  0.87901825452E+02 -0.16674271271E+02 -0.50935070287E+03  0.52478654952E+03  0.89207745202E+02 0.  0.
          5    1    1    2  502    0  0.25789211972E+02  0.28769274576E+02 -0.15990570057E+03  0.16457423155E+03  0.47000000000E+01 0. -1.
         -5    1    1    2    0  502 -0.11369103742E+03 -0.12095003305E+02 -0.39868444071E+03  0.41478104388E+03  0.47000000000E+01 0. -1.
        -11    1    3    3    0    0  0.64432095107E+02  0.31829807462E+02 -0.26558161351E+03  0.27513310407E+03  0.00000000000E+00 0.  1.
         11    1    3    3    0    0  0.23469730345E+02 -0.48504078732E+02 -0.24376908937E+03  0.24965344545E+03  0.00000000000E+00 0. -1.
<mgrwt>
<rscale>  0 0.14636413E+03</rscale>
<asrwt>0</asrwt>
<pdfrwt beam="2">  1        2 0.16708333E+00 0.15371919E+03</pdfrwt>
<pdfrwt beam="1">  1       -2 0.27846900E-02 0.15371919E+03</pdfrwt>
<totfact> 0.10711061E+04</totfact>
</mgrwt>
</event>
<event>
 7    1  0.1446636E-005  0.2678725E+03  0.7546771E-02  0.1104607E+00
         -1   -1    0    0    0  501 -0.00000000000E+00  0.00000000000E+00  0.50244788722E+02  0.50244788722E+02  0.00000000000E+00 0.  1.
          1   -1    0    0  501    0  0.00000000000E+00 -0.00000000000E+00 -0.13613471713E+04  0.13613471713E+04  0.00000000000E+00 0. -1.
         23    2    1    2    0    0 -0.27247231218E+02  0.23535229135E+03 -0.69056207000E+03  0.73570296451E+03  0.90828226974E+02 0.  0.
          5    1    1    2  502    0  0.32351894281E+02 -0.21064593914E+02 -0.34962506797E+02  0.52295593141E+02  0.47000000000E+01 0. -1.
         -5    1    1    2    0  502 -0.51046630634E+01 -0.21428769743E+03 -0.58557780573E+03  0.62359340232E+03  0.47000000000E+01 0. -1.
        -11    1    3    3    0    0 -0.44943879876E+02  0.17091920879E+03 -0.39582742741E+03  0.43348896245E+03  0.00000000000E+00 0.  1.
         11    1    3    3    0    0  0.17696648658E+02  0.64433082555E+02 -0.29473464259E+03  0.30221400207E+03  0.00000000000E+00 0. -1.
<mgrwt>
<rscale>  0 0.26426664E+03</rscale>
<asrwt>0</asrwt>
<pdfrwt beam="2">  1        1 0.20943802E+00 0.26787246E+03</pdfrwt>
<pdfrwt beam="1">  1       -1 0.77299678E-02 0.26787246E+03</pdfrwt>
<totfact> 0.80577721E+02</totfact>
</mgrwt>
</event>
<event>
 7    1  0.1446636E-005  0.1369514E+03  0.7546771E-02  0.1227370E+00
         -1   -1    0    0    0  501 -0.00000000000E+00  0.00000000000E+00  0.53331302330E+02  0.53331302330E+02  0.00000000000E+00 0.  1.
          1   -1    0    0  501    0  0.00000000000E+00 -0.00000000000E+00 -0.28910753554E+03  0.28910753554E+03  0.00000000000E+00 0. -1.
         23    2    1    2    0    0 -0.12723526784E+02  0.54568469350E+02 -0.10637126030E+03  0.15402088153E+03  0.96270353421E+02 0.  0.
          5    1    1    2  502    0  0.50796730750E+02 -0.54498788864E+02 -0.27537567793E+02  0.79566534941E+02  0.47000000000E+01 0. -1.
         -5    1    1    2    0  502 -0.38073203966E+02 -0.69680485914E-01 -0.10186740512E+03  0.10885142140E+03  0.47000000000E+01 0. -1.
        -11    1    3    3    0    0  0.28583892780E+02 -0.74163633566E+01 -0.58345710456E+02  0.65393144139E+02  0.00000000000E+00 0. -1.
         11    1    3    3    0    0 -0.41307419564E+02  0.61984832707E+02 -0.48025549842E+02  0.88627737387E+02  0.00000000000E+00 0.  1.
<mgrwt>
<rscale>  0 0.13005759E+03</rscale>
<asrwt>0</asrwt>
<pdfrwt beam="2">  1        1 0.44478082E-01 0.13695138E+03</pdfrwt>
<pdfrwt beam="1">  1       -1 0.82048157E-02 0.13695138E+03</pdfrwt>
<totfact> 0.72404047E+03</totfact>
</mgrwt>
</event>
<event>
 7    1  0.1446636E-005  0.1878143E+03  0.7546771E-02  0.1165474E+00
          1   -1    0    0  501    0  0.00000000000E+00  0.00000000000E+00  0.28725404594E+03  0.28725404594E+03  0.00000000000E+00 0. -1.
         -1   -1    0    0    0  501 -0.00000000000E+00 -0.00000000000E+00 -0.12021748974E+03  0.12021748974E+03  0.00000000000E+00 0.  1.
         23    2    1    2    0    0 -0.10047315402E+03  0.97838796156E+02  0.13932538047E+03  0.21762386312E+03  0.91001645283E+02 0.  0.
          5    1    1    2  502    0  0.80588164725E+02 -0.12261554717E+03  0.44776617773E+02  0.15347983646E+03  0.47000000000E+01 0.  1.
         -5    1    1    2    0  502  0.19884989296E+02  0.24776751012E+02 -0.17065442041E+02  0.36367836093E+02  0.47000000000E+01 0.  1.
        -11    1    3    3    0    0 -0.74083060766E+02  0.40351755507E+02  0.12809709998E+03  0.15338002180E+03  0.00000000000E+00 0.  1.
         11    1    3    3    0    0 -0.26390093255E+02  0.57487040649E+02  0.11228280490E+02  0.64243841319E+02  0.00000000000E+00 0. -1.
<mgrwt>
<rscale>  0 0.18242802E+03</rscale>
<asrwt>0</asrwt>
<pdfrwt beam="1">  1        1 0.44192930E-01 0.18781435E+03</pdfrwt>
<pdfrwt beam="2">  1       -1 0.18494999E-01 0.18781435E+03</pdfrwt>
<totfact> 0.20951107E+03</totfact>
</mgrwt>
</event>
<event>
 7    1  0.1446636E-005  0.1680342E+03  0.7546771E-02  0.1186305E+00
          2   -1    0    0  501    0  0.00000000000E+00  0.00000000000E+00  0.56700106090E+02  0.56700106090E+02  0.00000000000E+00 0. -1.
         -2   -1    0    0    0  501 -0.00000000000E+00 -0.00000000000E+00 -0.46031463107E+03  0.46031463107E+03  0.00000000000E+00 0.  1.
         23    2    1    2    0    0 -0.16487948165E+02  0.11108024462E+03 -0.12642786659E+03  0.19287288910E+03  0.92764609198E+02 0.  0.
          5    1    1    2  502    0 -0.27013681301E+02 -0.93459765693E+01 -0.38506324399E+01  0.29223340426E+02  0.47000000000E+01 0.  1.
         -5    1    1    2    0  502  0.43501629465E+02 -0.10173426805E+03 -0.27333602595E+03  0.29491850763E+03  0.47000000000E+01 0.  1.
        -11    1    3    3    0    0 -0.46981343457E+02  0.93904448347E+02 -0.69073916923E+02  0.12568412013E+03  0.00000000000E+00 0. -1.
         11    1    3    3    0    0  0.30493395293E+02  0.17175796274E+02 -0.57353949666E+02  0.67188768975E+02  0.00000000000E+00 0.  1.
<mgrwt>
<rscale>  0 0.16213660E+03</rscale>
<asrwt>0</asrwt>
<pdfrwt beam="1">  1        2 0.87230933E-02 0.16803421E+03</pdfrwt>
<pdfrwt beam="2">  1       -2 0.70817635E-01 0.16803421E+03</pdfrwt>
<totfact> 0.13879662E+03</totfact>
</mgrwt>
</event>
<event>
 7    1  0.1446636E-005  0.1841048E+03  0.7546771E-02  0.1169129E+00
         -1   -1    0    0    0  501 -0.00000000000E+00  0.00000000000E+00  0.37768314814E+02  0.37768314814E+02  0.00000000000E+00 0.  1.
          1   -1    0    0  501    0  0.00000000000E+00 -0.00000000000E+00 -0.80329174336E+03  0.80329174336E+03  0.00000000000E+00 0. -1.
         23    2    1    2    0    0 -0.77047688386E+02 -0.11105390157E+03 -0.32700578422E+03  0.36546325882E+03  0.91440118615E+02 0.  0.
          5    1    1    2  502    0  0.42116686137E+02  0.36135018647E+02 -0.34995838138E+03  0.35436212202E+03  0.47000000000E+01 0. -1.
         -5    1    1    2    0  502  0.34931002249E+02  0.74918882919E+02 -0.88559262943E+02  0.12123467734E+03  0.47000000000E+01 0. -1.
        -11    1    3    3    0    0 -0.78525350647E+02 -0.40509954057E+02 -0.22215267439E+03  0.23907968925E+03  0.00000000000E+00 0. -1.
         11    1    3    3    0    0  0.14776622612E+01 -0.70543947510E+02 -0.10485310983E+03  0.12638356957E+03  0.00000000000E+00 0.  1.
<mgrwt>
<rscale>  0 0.17863705E+03</rscale>
<asrwt>0</asrwt>
<pdfrwt beam="2">  1        1 0.12358334E+00 0.18410484E+03</pdfrwt>
<pdfrwt beam="1">  1       -1 0.58105104E-02 0.18410484E+03</pdfrwt>
<totfact> 0.31756417E+03</totfact>
</mgrwt>
</event>
<event>
 7    1  0.1446636E-005  0.1471502E+03  0.7546771E-02  0.1213773E+00
         -1   -1    0    0    0  501 -0.00000000000E+00  0.00000000000E+00  0.13396838622E+03  0.13396838622E+03  0.00000000000E+00 0.  1.
          1   -1    0    0  501    0  0.00000000000E+00 -0.00000000000E+00 -0.14231368786E+03  0.14231368786E+03  0.00000000000E+00 0. -1.
         23    2    1    2    0    0  0.58545918824E+02 -0.50986536939E+02 -0.39637157184E+02  0.12584155538E+03  0.90762003454E+02 0.  0.
          5    1    1    2  502    0  0.22665422180E+02 -0.26203981278E+02  0.90229888162E+01  0.36109199999E+02  0.47000000000E+01 0.  1.
         -5    1    1    2    0  502 -0.81211341004E+02  0.77190518217E+02  0.22268866734E+02  0.11433131870E+03  0.47000000000E+01 0.  1.
        -11    1    3    3    0    0  0.69317676521E+02 -0.13686877416E+02 -0.48900960792E+02  0.85927730436E+02  0.00000000000E+00 0. -1.
         11    1    3    3    0    0 -0.10771757696E+02 -0.37299659523E+02  0.92638036081E+01  0.39913824944E+02  0.00000000000E+00 0.  1.
<mgrwt>
<rscale>  0 0.13967044E+03</rscale>
<asrwt>0</asrwt>
<pdfrwt beam="2">  1        1 0.21894413E-01 0.14715016E+03</pdfrwt>
<pdfrwt beam="1">  1       -1 0.20610521E-01 0.14715016E+03</pdfrwt>
<totfact> 0.41977620E+03</totfact>
</mgrwt>
</event>
<event>
 7    1  0.1446636E-005  0.1558456E+03  0.7546771E-02  0.1200253E+00
          2   -1    0    0  501    0  0.00000000000E+00  0.00000000000E+00  0.48798987419E+03  0.48798987419E+03  0.00000000000E+00 0. -1.
         -2   -1    0    0    0  501 -0.00000000000E+00 -0.00000000000E+00 -0.51981312561E+02  0.51981312561E+02  0.00000000000E+00 0.  1.
         23    2    1    2    0    0  0.76705938155E+02 -0.52713355652E+02  0.31562839716E+03  0.34304671086E+03  0.96939475576E+02 0.  0.
          5    1    1    2  502    0 -0.14406505781E+02  0.18693592452E+02 -0.25229930120E+02  0.34865988892E+02  0.47000000000E+01 0.  1.
         -5    1    1    2    0  502 -0.62299432375E+02  0.34019763199E+02  0.14561009459E+03  0.16205848700E+03  0.47000000000E+01 0.  1.
        -11    1    3    3    0    0  0.88357782031E+02 -0.33425103895E+02  0.30263032783E+03  0.31703225472E+03  0.00000000000E+00 0. -1.
         11    1    3    3    0    0 -0.11651843875E+02 -0.19288251757E+02  0.12998069333E+02  0.26014456133E+02  0.00000000000E+00 0.  1.
<mgrwt>
<rscale>  0 0.15017927E+03</rscale>
<asrwt>0</asrwt>
<pdfrwt beam="1">  1        2 0.75075362E-01 0.15584565E+03</pdfrwt>
<pdfrwt beam="2">  1       -2 0.79971253E-02 0.15584565E+03</pdfrwt>
<totfact> 0.58624540E+03</totfact>
</mgrwt>
</event>
<event>
 7    1  0.1446636E-005  0.1654046E+03  0.7546771E-02  0.1189386E+00
          1   -1    0    0  501    0  0.00000000000E+00  0.00000000000E+00  0.64267168842E+03  0.64267168842E+03  0.00000000000E+00 0. -1.
         -1   -1    0    0    0  501 -0.00000000000E+00 -0.00000000000E+00 -0.70999833748E+02  0.70999833748E+02  0.00000000000E+00 0.  1.
         23    2    1    2    0    0 -0.10752976035E+03 -0.13076634263E+02  0.52175448695E+03  0.54089872567E+03  0.92790296156E+02 0.  0.
          5    1    1    2  502    0  0.49692198151E+02 -0.48815572632E+02  0.53343763129E+02  0.87863085270E+02  0.47000000000E+01 0. -1.
         -5    1    1    2    0  502  0.57837562194E+02  0.61892206895E+02 -0.34263954036E+01  0.84909711225E+02  0.47000000000E+01 0. -1.
        -11    1    3    3    0    0 -0.17935264614E+02 -0.22858477934E+01  0.88758679285E+01  0.20141495684E+02  0.00000000000E+00 0.  1.
         11    1    3    3    0    0 -0.89594495731E+02 -0.10790786470E+02  0.51287861902E+03  0.52075722999E+03  0.00000000000E+00 0. -1.
<mgrwt>
<rscale>  0 0.15939125E+03</rscale>
<asrwt>0</asrwt>
<pdfrwt beam="1">  1        1 0.98872564E-01 0.16540464E+03</pdfrwt>
<pdfrwt beam="2">  1       -1 0.10923052E-01 0.16540464E+03</pdfrwt>
<totfact> 0.16819278E+03</totfact>
</mgrwt>
</event>
<event>
 7    1  0.1446636E-005  0.1282181E+03  0.7546771E-02  0.1247029E+00
         -1   -1    0    0    0  501 -0.00000000000E+00  0.00000000000E+00  0.12479249095E+03  0.12479249095E+03  0.00000000000E+00 0.  1.
          1   -1    0    0  501    0  0.00000000000E+00 -0.00000000000E+00 -0.96863825558E+02  0.96863825558E+02  0.00000000000E+00 0. -1.
         23    2    1    2    0    0 -0.23209777821E+02  0.16618698981E+02  0.23592011379E+01  0.90913560844E+02  0.86283455964E+02 0.  0.
          5    1    1    2  502    0 -0.27252271711E+02 -0.13463414423E+02  0.61347139322E+02  0.68625879552E+02  0.47000000000E+01 0.  1.
         -5    1    1    2    0  502  0.50462049533E+02 -0.31552845574E+01 -0.35777675073E+02  0.62116876107E+02  0.47000000000E+01 0.  1.
        -11    1    3    3    0    0  0.28804254858E+02  0.19222338911E+02 -0.12401700776E+02  0.36782952482E+02  0.00000000000E+00 0. -1.
         11    1    3    3    0    0 -0.52014032679E+02 -0.26036399304E+01  0.14760901913E+02  0.54130608363E+02  0.00000000000E+00 0.  1.
<mgrwt>
<rscale>  0 0.11764744E+03</rscale>
<asrwt>0</asrwt>
<pdfrwt beam="2">  1        1 0.14902127E-01 0.12821806E+03</pdfrwt>
<pdfrwt beam="1">  1       -1 0.19198845E-01 0.12821806E+03</pdfrwt>
<totfact> 0.76277382E+03</totfact>
</mgrwt>
</event>
<event>
 7    1  0.1446636E-005  0.3419526E+03  0.7546771E-02  0.1067156E+00
          1   -1    0    0  501    0  0.00000000000E+00  0.00000000000E+00  0.40205763334E+03  0.40205763334E+03  0.00000000000E+00 0. -1.
         -1   -1    0    0    0  501 -0.00000000000E+00 -0.00000000000E+00 -0.31604484137E+03  0.31604484137E+03  0.00000000000E+00 0.  1.
         23    2    1    2    0    0  0.19919630190E+03  0.24825003135E+03  0.16105117006E+03  0.36801344401E+03  0.90494037592E+02 0.  0.
          5    1    1    2  502    0 -0.16547867447E+02 -0.45823803584E+02  0.30520732439E+02  0.57682388999E+02  0.47000000000E+01 0. -1.
         -5    1    1    2    0  502 -0.18264843446E+03 -0.20242622776E+03 -0.10555911053E+03  0.29240664170E+03  0.47000000000E+01 0. -1.
        -11    1    3    3    0    0  0.20544448075E+01  0.54302137712E+02  0.27512070666E+02  0.60908594927E+02  0.00000000000E+00 0.  1.
         11    1    3    3    0    0  0.19714185710E+03  0.19394789364E+03  0.13353909939E+03  0.30710484908E+03  0.00000000000E+00 0. -1.
<mgrwt>
<rscale>  0 0.33915592E+03</rscale>
<asrwt>0</asrwt>
<pdfrwt beam="1">  1        1 0.61855021E-01 0.34195259E+03</pdfrwt>
<pdfrwt beam="2">  1       -1 0.48622283E-01 0.34195259E+03</pdfrwt>
<totfact> 0.26101094E+02</totfact>
</mgrwt>
</event>
<event>
 7    1  0.1446636E-005  0.1432843E+03  0.7546771E-02  0.1218228E+00
          1   -1    0    0  501    0  0.00000000000E+00  0.00000000000E+00  0.51982335093E+02  0.51982335093E+02  0.00000000000E+00 0. -1.
         -1   -1    0    0    0  501 -0.00000000000E+00 -0.00000000000E+00 -0.32895271864E+03  0.32895271864E+03  0.00000000000E+00 0.  1.
         23    2    1    2    0    0  0.46380594879E+02 -0.52479762167E+02 -0.11317839881E+03  0.16331563153E+03  0.94643333237E+02 0.  0.
          5    1    1    2  502    0 -0.48708360427E+02 -0.27392137041E+02 -0.35393962659E+02  0.66314825943E+02  0.47000000000E+01 0. -1.
         -5    1    1    2    0  502  0.23277655480E+01  0.79871899208E+02 -0.12839802208E+03  0.15130459626E+03  0.47000000000E+01 0. -1.
        -11    1    3    3    0    0  0.73262413439E+02 -0.20758948467E+02 -0.72009726220E+02  0.10480322435E+03  0.00000000000E+00 0. -1.
         11    1    3    3    0    0 -0.26881818560E+02 -0.31720813700E+02 -0.41168672587E+02  0.58512407176E+02  0.00000000000E+00 0.  1.
<mgrwt>
<rscale>  0 0.13642055E+03</rscale>
<asrwt>0</asrwt>
<pdfrwt beam="1">  1        1 0.79972825E-02 0.14328433E+03</pdfrwt>
<pdfrwt beam="2">  1       -1 0.50608110E-01 0.14328433E+03</pdfrwt>
<totfact> 0.33707999E+03</totfact>
</mgrwt>
</event>
<event>
 7    1  0.1446636E-005  0.1374617E+03  0.7546771E-02  0.1228260E+00
         -1   -1    0    0    0  501 -0.00000000000E+00  0.00000000000E+00  0.86522010529E+02  0.86522010529E+02  0.00000000000E+00 0.  1.
          1   -1    0    0  501    0  0.00000000000E+00 -0.00000000000E+00 -0.17429743500E+03  0.17429743500E+03  0.00000000000E+00 0. -1.
         23    2    1    2    0    0 -0.50119063019E+02 -0.27537981231E+02 -0.39254841338E+02  0.11504578410E+03  0.91784143416E+02 0.  0.
          5    1    1    2  502    0  0.32402790036E+02  0.73608325819E+02 -0.52296358006E+02  0.96047516848E+02  0.47000000000E+01 0.  1.
         -5    1    1    2    0  502  0.17716272983E+02 -0.46070344588E+02  0.37757748740E+01  0.49726144580E+02  0.47000000000E+01 0.  1.
        -11    1    3    3    0    0 -0.70262482824E+02  0.32772832186E+01 -0.18281618971E+02  0.72675819019E+02  0.00000000000E+00 0.  1.
         11    1    3    3    0    0  0.20143419805E+02 -0.30815264450E+02 -0.20973222367E+02  0.42369965082E+02  0.00000000000E+00 0. -1.
<mgrwt>
<rscale>  0 0.12945963E+03</rscale>
<asrwt>0</asrwt>
<pdfrwt beam="2">  1        1 0.26814990E-01 0.13746168E+03</pdfrwt>
<pdfrwt beam="1">  1       -1 0.13311079E-01 0.13746168E+03</pdfrwt>
<totfact> 0.64675322E+03</totfact>
</mgrwt>
</event>
<event>
 7    1  0.1446636E-005  0.1557895E+03  0.7546771E-02  0.1201899E+00
          2   -1    0    0  501    0  0.00000000000E+00  0.00000000000E+00  0.33045831375E+03  0.33045831375E+03  0.00000000000E+00 0.  1.
         -2   -1    0    0    0  501 -0.00000000000E+00 -0.00000000000E+00 -0.64851142774E+02  0.64851142774E+02  0.00000000000E+00 0. -1.
         23    2    1    2    0    0  0.85127764571E+02  0.37407542802E+02  0.16463673132E+03  0.20966084596E+03  0.90588942311E+02 0.  0.
          5    1    1    2  502    0 -0.59076384101E+02  0.25207148386E+02  0.57644297582E+00  0.64403740378E+02  0.47000000000E+01 0. -1.
         -5    1    1    2    0  502 -0.26051380470E+02 -0.62614691188E+02  0.10039399668E+03  0.12124487019E+03  0.47000000000E+01 0. -1.
        -11    1    3    3    0    0  0.67404397688E+02 -0.39875028456E+01  0.14613117735E+03  0.16097693624E+03  0.00000000000E+00 0.  1.
         11    1    3    3    0    0  0.17723366884E+02  0.41395045648E+02  0.18505553966E+02  0.48683909718E+02  0.00000000000E+00 0. -1.
<mgrwt>
<rscale>  0 0.14884576E+03</rscale>
<asrwt>0</asrwt>
<pdfrwt beam="1">  1        2 0.50839740E-01 0.15578953E+03</pdfrwt>
<pdfrwt beam="2">  1       -2 0.99770991E-02 0.15578953E+03</pdfrwt>
<totfact> 0.63148240E+03</totfact>
</mgrwt>
</event>
<event>
 7    1  0.1446636E-005  0.1449801E+03  0.7546771E-02  0.1215456E+00
         -3   -1    0    0    0  501 -0.00000000000E+00  0.00000000000E+00  0.18348819861E+03  0.18348819861E+03  0.00000000000E+00 0.  1.
          3   -1    0    0  501    0  0.00000000000E+00 -0.00000000000E+00 -0.10328353357E+03  0.10328353357E+03  0.00000000000E+00 0. -1.
         23    2    1    2    0    0  0.62878472932E+01  0.73179659149E+02 -0.11800134727E+01  0.12051077717E+03  0.95533530478E+02 0.  0.
          5    1    1    2  502    0 -0.10855975781E+01 -0.10519507664E+02 -0.33373170779E+02  0.35322756000E+02  0.47000000000E+01 0. -1.
         -5    1    1    2    0  502 -0.52022497151E+01 -0.62660151485E+02  0.11475784929E+03  0.13093819901E+03  0.47000000000E+01 0. -1.
        -11    1    3    3    0    0  0.90214049124E+01 -0.21632461629E+02 -0.95102813273E+01  0.25294161256E+02  0.00000000000E+00 0. -1.
         11    1    3    3    0    0 -0.27335576192E+01  0.94812120778E+02  0.83302678546E+01  0.95216615914E+02  0.00000000000E+00 0.  1.
<mgrwt>
<rscale>  0 0.13843077E+03</rscale>
<asrwt>0</asrwt>
<pdfrwt beam="2">  1        3 0.15889775E-01 0.14498013E+03</pdfrwt>
<pdfrwt beam="1">  1       -3 0.28228953E-01 0.14498013E+03</pdfrwt>
<totfact> 0.94129192E+02</totfact>
</mgrwt>
</event>
<event>
 7    1  0.1446636E-005  0.2786729E+03  0.7546771E-02  0.1134542E+00
         -1   -1    0    0    0  501 -0.00000000000E+00  0.00000000000E+00  0.85235614288E+02  0.85235614288E+02  0.00000000000E+00 0.  1.
          1   -1    0    0  501    0  0.00000000000E+00 -0.00000000000E+00 -0.44255060163E+03  0.44255060163E+03  0.00000000000E+00 0. -1.
         23    2    1    2    0    0 -0.43463806713E+02  0.28678928042E+02 -0.13065358563E+03  0.16857318466E+03  0.92924570179E+02 0.  0.
          5    1    1    2  502    0  0.49177062282E+02  0.11617035450E+03 -0.64874910168E+02  0.14193230319E+03  0.47000000000E+01 0. -1.
         -5    1    1    2    0  502 -0.57132555699E+01 -0.14484928254E+03 -0.16178649154E+03  0.21728072806E+03  0.47000000000E+01 0.  1.
        -11    1    3    3    0    0  0.15149037317E+01 -0.22451748809E+02 -0.14837163255E+01  0.22551660073E+02  0.00000000000E+00 0.  1.
         11    1    3    3    0    0 -0.44978710444E+02  0.51130676851E+02 -0.12916986930E+03  0.14602152459E+03  0.00000000000E+00 0. -1.
<mgrwt>
<rscale>  0 0.21911854E+03</rscale>
<asrwt>0</asrwt>
<pdfrwt beam="2">  1        1 0.68084708E-01 0.27867295E+03</pdfrwt>
<pdfrwt beam="1">  1       -1 0.13113171E-01 0.27867295E+03</pdfrwt>
<totfact> 0.21107681E+03</totfact>
</mgrwt>
</event>
<event>
 7    1  0.1446636E-005  0.1665325E+03  0.7546771E-02  0.1188079E+00
          1   -1    0    0  501    0  0.00000000000E+00  0.00000000000E+00  0.17619097810E+03  0.17619097810E+03  0.00000000000E+00 0. -1.
         -1   -1    0    0    0  501 -0.00000000000E+00 -0.00000000000E+00 -0.13909165667E+03  0.13909165667E+03  0.00000000000E+00 0.  1.
         23    2    1    2    0    0  0.73206570028E+02  0.82150075445E+02  0.37836902000E+02  0.14874854865E+03  0.92664247596E+02 0.  0.
          5    1    1    2  502    0  0.67861175802E+01 -0.87433325159E+01 -0.46934960655E+02  0.48450776950E+02  0.47000000000E+01 0. -1.
         -5    1    1    2    0  502 -0.79992687608E+02 -0.73406742929E+02  0.46197380082E+02  0.11808330917E+03  0.47000000000E+01 0. -1.
        -11    1    3    3    0    0  0.71525135029E+02  0.68822632434E+02 -0.93388004553E+01  0.99697607142E+02  0.00000000000E+00 0.  1.
         11    1    3    3    0    0  0.16814349988E+01  0.13327443011E+02  0.47175702456E+02  0.49050941510E+02  0.00000000000E+00 0. -1.
<mgrwt>
<rscale>  0 0.16054842E+03</rscale>
<asrwt>0</asrwt>
<pdfrwt beam="1">  1        1 0.27106304E-01 0.16653245E+03</pdfrwt>
<pdfrwt beam="2">  1       -1 0.21398716E-01 0.16653245E+03</pdfrwt>
<totfact> 0.30357538E+03</totfact>
</mgrwt>
</event>
<event>
 7    1  0.1446636E-005  0.1699050E+03  0.7546771E-02  0.1184160E+00
          2   -1    0    0  501    0  0.00000000000E+00  0.00000000000E+00  0.20863286490E+03  0.20863286490E+03  0.00000000000E+00 0. -1.
         -2   -1    0    0    0  501 -0.00000000000E+00 -0.00000000000E+00 -0.33722812961E+03  0.33722812961E+03  0.00000000000E+00 0.  1.
         23    2    1    2    0    0 -0.24380141052E+02 -0.11247161545E+03  0.15569247446E+03  0.21467036671E+03  0.92730600027E+02 0.  0.
          5    1    1    2  502    0  0.62241800665E+02  0.27398294476E+02 -0.17337812208E+03  0.18629753489E+03  0.47000000000E+01 0.  1.
         -5    1    1    2    0  502 -0.37861659613E+02  0.85073320975E+02 -0.11090961708E+03  0.14489309290E+03  0.47000000000E+01 0.  1.
        -11    1    3    3    0    0 -0.45706764373E+02 -0.61642655615E+02  0.13596231433E+03  0.15612391303E+03  0.00000000000E+00 0. -1.
         11    1    3    3    0    0  0.21326623321E+02 -0.50828959836E+02  0.19730160125E+02  0.58546453683E+02  0.00000000000E+00 0.  1.
<mgrwt>
<rscale>  0 0.16408513E+03</rscale>
<asrwt>0</asrwt>
<pdfrwt beam="1">  1        2 0.32097364E-01 0.16990501E+03</pdfrwt>
<pdfrwt beam="2">  1       -2 0.51881250E-01 0.16990501E+03</pdfrwt>
<totfact> 0.57959455E+02</totfact>
</mgrwt>
</event>
<event>
 7    1  0.1446636E-005  0.1513728E+03  0.7546771E-02  0.1208299E+00
          1   -1    0    0  501    0  0.00000000000E+00  0.00000000000E+00  0.91493771258E+03  0.91493771258E+03  0.00000000000E+00 0. -1.
         -1   -1    0    0    0  501 -0.00000000000E+00 -0.00000000000E+00 -0.21465841422E+02  0.21465841422E+02  0.00000000000E+00 0.  1.
         23    2    1    2    0    0 -0.64821323566E+02  0.55544567501E+02  0.49567295758E+03  0.51077732301E+03  0.88965104724E+02 0.  0.
          5    1    1    2  502    0  0.63400565415E+02 -0.87941345548E+01  0.35895152140E+03  0.36464400888E+03  0.47000000000E+01 0.  1.
         -5    1    1    2    0  502  0.14207581513E+01 -0.46750432947E+02  0.38847392178E+02  0.60982222110E+02  0.47000000000E+01 0.  1.
        -11    1    3    3    0    0 -0.17324876219E+02  0.68861566753E+02  0.23561027183E+03  0.24607776597E+03  0.00000000000E+00 0. -1.
         11    1    3    3    0    0 -0.47496447347E+02 -0.13316999252E+02  0.26006268575E+03  0.26469955704E+03  0.00000000000E+00 0.  1.
<mgrwt>
<rscale>  0 0.14380456E+03</rscale>
<asrwt>0</asrwt>
<pdfrwt beam="1">  1        1 0.14075962E+00 0.15137276E+03</pdfrwt>
<pdfrwt beam="2">  1       -1 0.33024378E-02 0.15137276E+03</pdfrwt>
<totfact> 0.59366692E+03</totfact>
</mgrwt>
</event>
<event>
 7    1  0.1446636E-005  0.1296945E+03  0.7546771E-02  0.1242086E+00
          2   -1    0    0  501    0  0.00000000000E+00  0.00000000000E+00  0.63910771666E+03  0.63910771666E+03  0.00000000000E+00 0. -1.
         -2   -1    0    0    0  501 -0.00000000000E+00 -0.00000000000E+00 -0.20718392185E+02  0.20718392185E+02  0.00000000000E+00 0.  1.
         23    2    1    2    0    0 -0.29797845578E+02  0.17560396811E+02  0.32213403951E+03  0.33642566038E+03  0.90639982403E+02 0.  0.
          5    1    1    2  502    0  0.13690578281E+02  0.97171103943E+01  0.29030426118E+03  0.29082728247E+03  0.47000000000E+01 0. -1.
         -5    1    1    2    0  502  0.16107267297E+02 -0.27277507206E+02  0.59510237797E+01  0.32573165999E+02  0.47000000000E+01 0. -1.
        -11    1    3    3    0    0  0.16666257862E+02  0.35838353325E+02  0.20986615502E+03  0.21355550741E+03  0.00000000000E+00 0. -1.
         11    1    3    3    0    0 -0.46464103440E+02 -0.18277956513E+02  0.11226788449E+03  0.12287015297E+03  0.00000000000E+00 0.  1.
<mgrwt>
<rscale>  0 0.12061482E+03</rscale>
<asrwt>0</asrwt>
<pdfrwt beam="1">  1        2 0.98324249E-01 0.12969447E+03</pdfrwt>
<pdfrwt beam="2">  1       -2 0.31874454E-02 0.12969447E+03</pdfrwt>
<totfact> 0.17092459E+04</totfact>
</mgrwt>
</event>
<event>
 7    1  0.1446636E-005  0.1771574E+03  0.7546771E-02  0.1176363E+00
         -1   -1    0    0    0  501 -0.00000000000E+00  0.00000000000E+00  0.49339951261E+02  0.49339951261E+02  0.00000000000E+00 0.  1.
          1   -1    0    0  501    0  0.00000000000E+00 -0.00000000000E+00 -0.62117824802E+03  0.62117824802E+03  0.00000000000E+00 0. -1.
         23    2    1    2    0    0 -0.12060892567E+03 -0.34835894084E+02 -0.16414564536E+03  0.22599820217E+03  0.91495038257E+02 0.  0.
          5    1    1    2  502    0  0.11294660919E+03  0.52946330270E+02 -0.40538642712E+03  0.42417036166E+03  0.47000000000E+01 0.  1.
         -5    1    1    2    0  502  0.76623164833E+01 -0.18110436186E+02 -0.23062242829E+01  0.20349635455E+02  0.47000000000E+01 0.  1.
        -11    1    3    3    0    0 -0.70754202407E+02 -0.56262332791E+02 -0.13989939839E+03  0.16656364825E+03  0.00000000000E+00 0. -1.
         11    1    3    3    0    0 -0.49854723264E+02  0.21426438706E+02 -0.24246246971E+02  0.59434553919E+02  0.00000000000E+00 0.  1.
<mgrwt>
<rscale>  0 0.17143212E+03</rscale>
<asrwt>0</asrwt>
<pdfrwt beam="2">  1        1 0.95565886E-01 0.17715736E+03</pdfrwt>
<pdfrwt beam="1">  1       -1 0.75907616E-02 0.17715736E+03</pdfrwt>
<totfact> 0.30801157E+03</totfact>
</mgrwt>
</event>
<event>
 7    1  0.1446636E-005  0.1334579E+03  0.7546771E-02  0.1235721E+00
         -2   -1    0    0    0  501 -0.00000000000E+00  0.00000000000E+00  0.21307802275E+03  0.21307802275E+03  0.00000000000E+00 0.  1.
          2   -1    0    0  501    0  0.00000000000E+00 -0.00000000000E+00 -0.64697482479E+02  0.64697482479E+02  0.00000000000E+00 0. -1.
         23    2    1    2    0    0 -0.40190586346E+02  0.23899805676E+02  0.62296934631E+02  0.11896304334E+03  0.89915591940E+02 0.  0.
          5    1    1    2  502    0 -0.26789214913E+02 -0.37844497419E+02 -0.26357935584E+01  0.46678747073E+02  0.47000000000E+01 0. -1.
         -5    1    1    2    0  502  0.66979801259E+02  0.13944691743E+02  0.88719399195E+02  0.11213371481E+03  0.47000000000E+01 0. -1.
        -11    1    3    3    0    0 -0.65635729710E+02  0.20286335394E+02  0.23858438340E+02  0.72724201600E+02  0.00000000000E+00 0. -1.
         11    1    3    3    0    0  0.25445143364E+02  0.36134702821E+01  0.38438496291E+02  0.46238841740E+02  0.00000000000E+00 0.  1.
<mgrwt>
<rscale>  0 0.12458374E+03</rscale>
<asrwt>0</asrwt>
<pdfrwt beam="2">  1        2 0.99534589E-02 0.13345790E+03</pdfrwt>
<pdfrwt beam="1">  1       -2 0.32781234E-01 0.13345790E+03</pdfrwt>
<totfact> 0.53094021E+03</totfact>
</mgrwt>
</event>
<event>
 7    1  0.1446636E-005  0.3431765E+03  0.7546771E-02  0.1066606E+00
         -2   -1    0    0    0  501 -0.00000000000E+00  0.00000000000E+00  0.10373895868E+03  0.10373895868E+03  0.00000000000E+00 0.  1.
          2   -1    0    0  501    0  0.00000000000E+00 -0.00000000000E+00 -0.11079430578E+04  0.11079430578E+04  0.00000000000E+00 0. -1.
         23    2    1    2    0    0  0.27017553828E+03  0.17074126879E+03 -0.54597644926E+03  0.63919388061E+03  0.91275032223E+02 0.  0.
          5    1    1    2  502    0 -0.23117662624E+03 -0.14456851302E+03 -0.29133958524E+03  0.39905329394E+03  0.47000000000E+01 0.  1.
         -5    1    1    2    0  502 -0.38998912037E+02 -0.26172755771E+02 -0.16688806466E+03  0.17343484197E+03  0.47000000000E+01 0.  1.
        -11    1    3    3    0    0  0.16223910291E+02  0.25674096394E+02 -0.17141427356E+02  0.34874102463E+02  0.00000000000E+00 0.  1.
         11    1    3    3    0    0  0.25395162799E+03  0.14506717239E+03 -0.52883502191E+03  0.60431977815E+03  0.00000000000E+00 0. -1.
<mgrwt>
<rscale>  0 0.34044571E+03</rscale>
<asrwt>0</asrwt>
<pdfrwt beam="2">  1        2 0.17045277E+00 0.34317647E+03</pdfrwt>
<pdfrwt beam="1">  1       -2 0.15959840E-01 0.34317647E+03</pdfrwt>
<totfact> 0.69639143E+02</totfact>
</mgrwt>
</event>
<event>
 7    1  0.1446636E-005  0.1621325E+03  0.7546771E-02  0.1193555E+00
         -1   -1    0    0    0  501 -0.00000000000E+00  0.00000000000E+00  0.64028122248E+02  0.64028122248E+02  0.00000000000E+00 0.  1.
          1   -1    0    0  501    0  0.00000000000E+00 -0.00000000000E+00 -0.41263686157E+03  0.41263686157E+03  0.00000000000E+00 0. -1.
         23    2    1    2    0    0 -0.10348285251E+03 -0.14050441841E+02 -0.25348995446E+03  0.28869012943E+03  0.90436265632E+02 0.  0.
          5    1    1    2  502    0  0.11459206216E+03 -0.25349137294E+02 -0.86519730726E+02  0.14588239536E+03  0.47000000000E+01 0.  1.
         -5    1    1    2    0  502 -0.11109209646E+02  0.39399579135E+02 -0.85990541409E+01  0.42092459029E+02  0.47000000000E+01 0.  1.
        -11    1    3    3    0    0 -0.64137771406E+02 -0.28140924488E+02 -0.23067998176E+03  0.24107845058E+03  0.00000000000E+00 0.  1.
         11    1    3    3    0    0 -0.39345081104E+02  0.14090482646E+02 -0.22809972700E+02  0.47611678850E+02  0.00000000000E+00 0. -1.
<mgrwt>
<rscale>  0 0.15577175E+03</rscale>
<asrwt>0</asrwt>
<pdfrwt beam="2">  1        1 0.63482596E-01 0.16213255E+03</pdfrwt>
<pdfrwt beam="1">  1       -1 0.98504801E-02 0.16213255E+03</pdfrwt>
<totfact> 0.35451772E+03</totfact>
</mgrwt>
</event>
<event>
 7    1  0.1446636E-005  0.1416103E+03  0.7546771E-02  0.1221987E+00
          4   -1    0    0  501    0  0.00000000000E+00  0.00000000000E+00  0.24696402746E+02  0.24696402746E+02  0.00000000000E+00 0. -1.
         -4   -1    0    0    0  501 -0.00000000000E+00 -0.00000000000E+00 -0.71224932153E+03  0.71224932153E+03  0.00000000000E+00 0.  1.
         23    2    1    2    0    0 -0.61741084659E+02 -0.24831494539E+02 -0.20378773070E+03  0.23288003215E+03  0.90967607052E+02 0.  0.
          5    1    1    2  502    0  0.83625896015E+02  0.47168965211E+02 -0.43808864724E+03  0.44851081883E+03  0.47000000000E+01 0.  1.
         -5    1    1    2    0  502 -0.21884811356E+02 -0.22337470672E+02 -0.45676540835E+02  0.55554873294E+02  0.47000000000E+01 0.  1.
        -11    1    3    3    0    0 -0.35595686725E+02 -0.46447171006E+02 -0.55117820463E+02  0.80388847115E+02  0.00000000000E+00 0. -1.
         11    1    3    3    0    0 -0.26145397934E+02  0.21615676468E+02 -0.14866991024E+03  0.15249118503E+03  0.00000000000E+00 0.  1.
<mgrwt>
<rscale>  0 0.13375566E+03</rscale>
<asrwt>0</asrwt>
<pdfrwt beam="1">  1        4 0.37994480E-02 0.14161026E+03</pdfrwt>
<pdfrwt beam="2">  1       -4 0.10957678E+00 0.14161026E+03</pdfrwt>
<totfact> 0.42937749E+02</totfact>
</mgrwt>
</event>
<event>
 7    1  0.1446636E-005  0.3897738E+03  0.7546771E-02  0.1048244E+00
          2   -1    0    0  501    0  0.00000000000E+00  0.00000000000E+00  0.95149084059E+03  0.95149084059E+03  0.00000000000E+00 0. -1.
         -2   -1    0    0    0  501 -0.00000000000E+00 -0.00000000000E+00 -0.16377546587E+03  0.16377546587E+03  0.00000000000E+00 0.  1.
         23    2    1    2    0    0 -0.29272724597E+03  0.22496098185E+03  0.26605159612E+03  0.46406991386E+03  0.90998622331E+02 0.  0.
          5    1    1    2  502    0  0.26853190427E+03 -0.15604918339E+03  0.37226280666E+03  0.48483236120E+03  0.47000000000E+01 0.  1.
         -5    1    1    2    0  502  0.24195341703E+02 -0.68911798452E+02  0.14940097194E+03  0.16636403140E+03  0.47000000000E+01 0.  1.
        -11    1    3    3    0    0 -0.94339203286E+02  0.36301947175E+02  0.38811359990E+02  0.10827759837E+03  0.00000000000E+00 0. -1.
         11    1    3    3    0    0 -0.19838804268E+03  0.18865903467E+03  0.22724023613E+03  0.35579231548E+03  0.00000000000E+00 0.  1.
<mgrwt>
<rscale>  0 0.38736652E+03</rscale>
<asrwt>0</asrwt>
<pdfrwt beam="1">  1        2 0.14638320E+00 0.38977384E+03</pdfrwt>
<pdfrwt beam="2">  1       -2 0.25196226E-01 0.38977384E+03</pdfrwt>
<totfact> 0.39319485E+02</totfact>
</mgrwt>
</event>
<event>
 7    1  0.1446636E-005  0.2753113E+03  0.7546771E-02  0.1100243E+00
         -1   -1    0    0    0  501 -0.00000000000E+00  0.00000000000E+00  0.69850279178E+03  0.69850279178E+03  0.00000000000E+00 0.  1.
          1   -1    0    0  501    0  0.00000000000E+00 -0.00000000000E+00 -0.10338474926E+03  0.10338474926E+03  0.00000000000E+00 0. -1.
         23    2    1    2    0    0  0.14016644703E+03 -0.20130846616E+03  0.30790466839E+03  0.40403349715E+03  0.90917823224E+02 0.  0.
          5    1    1    2  502    0 -0.17086348047E+02  0.81731839029E+02  0.30473578755E+02  0.89009919687E+02  0.47000000000E+01 0. -1.
         -5    1    1    2    0  502 -0.12308009898E+03  0.11957662713E+03  0.25673979538E+03  0.30884412421E+03  0.47000000000E+01 0. -1.
        -11    1    3    3    0    0  0.62886521985E+02 -0.32991270052E+02  0.12480538906E+03  0.14359499882E+03  0.00000000000E+00 0. -1.
         11    1    3    3    0    0  0.77279925046E+02 -0.16831719611E+03  0.18309927933E+03  0.26043849833E+03  0.00000000000E+00 0.  1.
<mgrwt>
<rscale>  0 0.27181914E+03</rscale>
<asrwt>0</asrwt>
<pdfrwt beam="2">  1        1 0.15905346E-01 0.27531131E+03</pdfrwt>
<pdfrwt beam="1">  1       -1 0.10746196E+00 0.27531131E+03</pdfrwt>
<totfact> 0.29604352E+02</totfact>
</mgrwt>
</event>
<event>
 7    1  0.1446636E-005  0.1342127E+03  0.7546771E-02  0.1234872E+00
         -2   -1    0    0    0  501 -0.00000000000E+00  0.00000000000E+00  0.12946349462E+03  0.12946349462E+03  0.00000000000E+00 0.  1.
          2   -1    0    0  501    0  0.00000000000E+00 -0.00000000000E+00 -0.10848154377E+03  0.10848154377E+03  0.00000000000E+00 0. -1.
         23    2    1    2    0    0 -0.48077814691E+02 -0.87021841666E+01 -0.37880006098E+01  0.10146577557E+03  0.88846780411E+02 0.  0.
          5    1    1    2  502    0 -0.78941500856E+01 -0.31940036238E+01 -0.45047689005E+02  0.46085828076E+02  0.47000000000E+01 0.  1.
         -5    1    1    2    0  502  0.55971964777E+02  0.11896187790E+02  0.69817640459E+02  0.90393434740E+02  0.47000000000E+01 0.  1.
        -11    1    3    3    0    0 -0.29643173877E+02 -0.20333328511E+02  0.39249637870E+02  0.53223078441E+02  0.00000000000E+00 0.  1.
         11    1    3    3    0    0 -0.18434640814E+02  0.11631144344E+02 -0.43037638480E+02  0.48242697133E+02  0.00000000000E+00 0. -1.
<mgrwt>
<rscale>  0 0.12512650E+03</rscale>
<asrwt>0</asrwt>
<pdfrwt beam="2">  1        2 0.16689468E-01 0.13421266E+03</pdfrwt>
<pdfrwt beam="1">  1       -2 0.19917461E-01 0.13421266E+03</pdfrwt>
<totfact> 0.68752682E+03</totfact>
</mgrwt>
</event>
<event>
 7    1  0.1446636E-005  0.1394762E+03  0.7546771E-02  0.1224419E+00
          1   -1    0    0  501    0  0.00000000000E+00  0.00000000000E+00  0.77414768667E+03  0.77414768667E+03  0.00000000000E+00 0. -1.
         -1   -1    0    0    0  501 -0.00000000000E+00 -0.00000000000E+00 -0.20972842773E+02  0.20972842773E+02  0.00000000000E+00 0.  1.
         23    2    1    2    0    0  0.38388097956E+02 -0.48527932743E+02  0.27381188520E+03  0.29587863765E+03  0.93501943416E+02 0.  0.
          5    1    1    2  502    0 -0.37595889151E+02  0.24009670032E+02  0.47065888949E+03  0.47279149252E+03  0.47000000000E+01 0.  1.
         -5    1    1    2    0  502 -0.79220880503E+00  0.24518262711E+02  0.87040692102E+01  0.26450399278E+02  0.47000000000E+01 0.  1.
        -11    1    3    3    0    0  0.36682829782E+01 -0.70756917978E+02  0.17703538085E+03  0.19068697862E+03  0.00000000000E+00 0. -1.
         11    1    3    3    0    0  0.34719814978E+02  0.22228985235E+02  0.96776504345E+02  0.10519165903E+03  0.00000000000E+00 0.  1.
<mgrwt>
<rscale>  0 0.13206792E+03</rscale>
<asrwt>0</asrwt>
<pdfrwt beam="1">  1        1 0.11909962E+00 0.13947624E+03</pdfrwt>
<pdfrwt beam="2">  1       -1 0.32265918E-02 0.13947624E+03</pdfrwt>
<totfact> 0.79210103E+03</totfact>
</mgrwt>
</event>
<event>
 7    1  0.1446636E-005  0.1593189E+03  0.7546771E-02  0.1197714E+00
         -2   -1    0    0    0  501 -0.00000000000E+00  0.00000000000E+00  0.41815913919E+03  0.41815913919E+03  0.00000000000E+00 0.  1.
          2   -1    0    0  501    0  0.00000000000E+00 -0.00000000000E+00 -0.63777919326E+02  0.63777919326E+02  0.00000000000E+00 0. -1.
         23    2    1    2    0    0  0.76798274691E+02 -0.56997751854E+02  0.57139842367E+02  0.14469095457E+03  0.92324384848E+02 0.  0.
          5    1    1    2  502    0 -0.46096371873E+02 -0.36492007396E+02  0.87511207167E+02  0.10553124411E+03  0.47000000000E+01 0. -1.
         -5    1    1    2    0  502 -0.30701902817E+02  0.93489759250E+02  0.20973017033E+03  0.23171485983E+03  0.47000000000E+01 0.  1.
        -11    1    3    3    0    0  0.67899640980E+02 -0.35596410625E+02 -0.65216290090E+01  0.76941518958E+02  0.00000000000E+00 0. -1.
         11    1    3    3    0    0  0.88986337105E+01 -0.21401341229E+02  0.63661471376E+02  0.67749435615E+02  0.00000000000E+00 0.  1.
<mgrwt>
<rscale>  0 0.15226726E+03</rscale>
<asrwt>0</asrwt>
<pdfrwt beam="2">  1        2 0.98119879E-02 0.15931886E+03</pdfrwt>
<pdfrwt beam="1">  1       -2 0.64332173E-01 0.15931886E+03</pdfrwt>
<totfact> 0.14657633E+03</totfact>
</mgrwt>
</event>
<event>
 7    1  0.1446636E-005  0.1333831E+03  0.7546771E-02  0.1235221E+00
          2   -1    0    0  501    0  0.00000000000E+00  0.00000000000E+00  0.66619902525E+02  0.66619902525E+02  0.00000000000E+00 0. -1.
         -2   -1    0    0    0  501 -0.00000000000E+00 -0.00000000000E+00 -0.21940904279E+03  0.21940904279E+03  0.00000000000E+00 0.  1.
         23    2    1    2    0    0  0.46518365647E+02  0.10158548828E+01 -0.35866780396E+02  0.10865393348E+03  0.91401646711E+02 0.  0.
          5    1    1    2  502    0 -0.84768173376E+02 -0.22466730234E+02 -0.65061236280E+02  0.10929524990E+03  0.47000000000E+01 0. -1.
         -5    1    1    2    0  502  0.38249807730E+02  0.21450875352E+02 -0.51861123589E+02  0.68079761931E+02  0.47000000000E+01 0. -1.
        -11    1    3    3    0    0  0.11181757062E+02 -0.25752821051E+02 -0.53917160130E+02  0.60788976299E+02  0.00000000000E+00 0.  1.
         11    1    3    3    0    0  0.35336608585E+02  0.26768675934E+02  0.18050379734E+02  0.47864957182E+02  0.00000000000E+00 0. -1.
<mgrwt>
<rscale>  0 0.12490326E+03</rscale>
<asrwt>0</asrwt>
<pdfrwt beam="1">  1        2 0.10249216E-01 0.13338312E+03</pdfrwt>
<pdfrwt beam="2">  1       -2 0.33755237E-01 0.13338312E+03</pdfrwt>
<totfact> 0.48550276E+03</totfact>
</mgrwt>
</event>
<event>
 7    1  0.1446636E-005  0.2002976E+03  0.7546771E-02  0.1151761E+00
         -2   -1    0    0    0  501 -0.00000000000E+00  0.00000000000E+00  0.11731636908E+03  0.11731636908E+03  0.00000000000E+00 0.  1.
          2   -1    0    0  501    0  0.00000000000E+00 -0.00000000000E+00 -0.33649263752E+03  0.33649263752E+03  0.00000000000E+00 0. -1.
         23    2    1    2    0    0  0.15446315991E+03 -0.25204763580E+02 -0.14992203028E+03  0.24187672454E+03  0.10739453820E+03 0.  0.
          5    1    1    2  502    0 -0.12171968125E+03 -0.18217429704E+02  0.74219521625E+00  0.12316735120E+03  0.47000000000E+01 0. -1.
         -5    1    1    2    0  502 -0.32743478657E+02  0.43422193284E+02 -0.69996433382E+02  0.88764930859E+02  0.47000000000E+01 0. -1.
        -11    1    3    3    0    0  0.15412121880E+03  0.75973886775E+01 -0.13787276337E+03  0.20692986560E+03  0.00000000000E+00 0.  1.
         11    1    3    3    0    0  0.34194110152E+00 -0.32802152257E+02 -0.12049266914E+02  0.34946858937E+02  0.00000000000E+00 0. -1.
<mgrwt>
<rscale>  0 0.19762254E+03</rscale>
<asrwt>0</asrwt>
<pdfrwt beam="2">  1        2 0.51768098E-01 0.20029764E+03</pdfrwt>
<pdfrwt beam="1">  1       -2 0.18048672E-01 0.20029764E+03</pdfrwt>
<totfact> 0.23889304E+03</totfact>
</mgrwt>
</event>
<event>
 7    1  0.1446636E-005  0.1559911E+03  0.7546771E-02  0.1201213E+00
         -4   -1    0    0    0  501 -0.00000000000E+00  0.00000000000E+00  0.51251750388E+03  0.51251750388E+03  0.00000000000E+00 0. -1.
          4   -1    0    0  501    0  0.00000000000E+00 -0.00000000000E+00 -0.59888323817E+02  0.59888323817E+02  0.00000000000E+00 0.  1.
         23    2    1    2    0    0 -0.88485374386E+02 -0.29593504596E+02  0.49714109228E+02  0.14034820424E+03  0.92307577066E+02 0.  0.
          5    1    1    2  502    0 -0.18331964842E+01 -0.38009912752E+01 -0.78811137699E+01  0.10100004865E+02  0.47000000000E+01 0.  1.
         -5    1    1    2    0  502  0.90318570870E+02  0.33394495871E+02  0.41079618460E+03  0.42195761858E+03  0.47000000000E+01 0.  1.
        -11    1    3    3    0    0 -0.10535756469E+03 -0.33375315138E+02  0.53285181757E+02  0.12269245573E+03  0.00000000000E+00 0. -1.
         11    1    3    3    0    0  0.16872190304E+02  0.37818105417E+01 -0.35710725289E+01  0.17655748515E+02  0.00000000000E+00 0.  1.
<mgrwt>
<rscale>  0 0.14939924E+03</rscale>
<asrwt>0</asrwt>
<pdfrwt beam="2">  1        4 0.92135886E-02 0.15599114E+03</pdfrwt>
<pdfrwt beam="1">  1       -4 0.78848844E-01 0.15599114E+03</pdfrwt>
<totfact> 0.21876358E+02</totfact>
</mgrwt>
</event>
<event>
 7    1  0.1446636E-005  0.1860446E+03  0.7546771E-02  0.1168978E+00
         -2   -1    0    0    0  501 -0.00000000000E+00  0.00000000000E+00  0.52231344236E+02  0.52231344236E+02  0.00000000000E+00 0. -1.
          2   -1    0    0  501    0  0.00000000000E+00 -0.00000000000E+00 -0.58377459118E+03  0.58377459118E+03  0.00000000000E+00 0.  1.
         23    2    1    2    0    0  0.69721546132E+02  0.11886266868E+03 -0.29598983646E+03  0.33584265945E+03  0.78682149307E+02 0.  0.
          5    1    1    2  502    0  0.31818313619E+02 -0.57008615052E+02 -0.10298742087E+03  0.12202821858E+03  0.47000000000E+01 0. -1.
         -5    1    1    2    0  502 -0.10153985975E+03 -0.61854053628E+02 -0.13256598962E+03  0.17813505739E+03  0.47000000000E+01 0. -1.
        -11    1    3    3    0    0  0.20410688977E+02  0.10174452318E+03 -0.22451670333E+03  0.24733842058E+03  0.00000000000E+00 0.  1.
         11    1    3    3    0    0  0.49310857155E+02  0.17118145501E+02 -0.71473133130E+02  0.88504238871E+02  0.00000000000E+00 0. -1.
<mgrwt>
<rscale>  0 0.17879089E+03</rscale>
<asrwt>0</asrwt>
<pdfrwt beam="2">  1        2 0.89811475E-01 0.18604457E+03</pdfrwt>
<pdfrwt beam="1">  1       -2 0.80355915E-02 0.18604457E+03</pdfrwt>
<totfact> 0.48001238E+03</totfact>
</mgrwt>
</event>
<event>
 7    1  0.1446636E-005  0.1308070E+03  0.7546771E-02  0.1242410E+00
         -1   -1    0    0    0  501 -0.00000000000E+00  0.00000000000E+00  0.25502244930E+03  0.25502244930E+03  0.00000000000E+00 0.  1.
          1   -1    0    0  501    0  0.00000000000E+00 -0.00000000000E+00 -0.50466210419E+02  0.50466210419E+02  0.00000000000E+00 0. -1.
         23    2    1    2    0    0 -0.36562129361E+02  0.12131614704E+02  0.65155892451E+02  0.11432658050E+03  0.85681452537E+02 0.  0.
          5    1    1    2  502    0  0.34302455690E+02 -0.95648613379E+01 -0.13335697480E+02  0.38315478153E+02  0.47000000000E+01 0. -1.
         -5    1    1    2    0  502  0.22596736712E+01 -0.25667533664E+01  0.15273604391E+03  0.15284660106E+03  0.47000000000E+01 0. -1.
        -11    1    3    3    0    0  0.13660086392E+01  0.17991996749E+02 -0.16278676819E+02  0.24301712812E+02  0.00000000000E+00 0. -1.
         11    1    3    3    0    0 -0.37928138000E+02 -0.58603820449E+01  0.81434569271E+02  0.90024867688E+02  0.00000000000E+00 0.  1.
<mgrwt>
<rscale>  0 0.12041744E+03</rscale>
<asrwt>0</asrwt>
<pdfrwt beam="2">  1        1 0.77640325E-02 0.13080705E+03</pdfrwt>
<pdfrwt beam="1">  1       -1 0.39234222E-01 0.13080705E+03</pdfrwt>
<totfact> 0.54969639E+03</totfact>
</mgrwt>
</event>
<event>
 7    1  0.1446636E-005  0.1333767E+03  0.7546771E-02  0.1235678E+00
          2   -1    0    0  501    0  0.00000000000E+00  0.00000000000E+00  0.71402285281E+02  0.71402285281E+02  0.00000000000E+00 0.  1.
         -2   -1    0    0    0  501 -0.00000000000E+00 -0.00000000000E+00 -0.19387616398E+03  0.19387616398E+03  0.00000000000E+00 0. -1.
         23    2    1    2    0    0  0.21756612108E+02 -0.41130309091E+02 -0.46195340259E+02  0.11163028873E+03  0.90345223471E+02 0.  0.
          5    1    1    2  502    0  0.43786742569E+02  0.28404747738E+02 -0.68527586826E+02  0.86268352685E+02  0.47000000000E+01 0.  1.
         -5    1    1    2    0  502 -0.65543354677E+02  0.12725561353E+02 -0.77509516127E+01  0.67379807843E+02  0.47000000000E+01 0.  1.
        -11    1    3    3    0    0 -0.91088892269E+01 -0.62309675411E+02 -0.37172625608E+02  0.73125040905E+02  0.00000000000E+00 0.  1.
         11    1    3    3    0    0  0.30865501335E+02  0.21179366321E+02 -0.90227146506E+01  0.38505247825E+02  0.00000000000E+00 0. -1.
<mgrwt>
<rscale>  0 0.12461157E+03</rscale>
<asrwt>0</asrwt>
<pdfrwt beam="1">  1        2 0.10984967E-01 0.13337669E+03</pdfrwt>
<pdfrwt beam="2">  1       -2 0.29827102E-01 0.13337669E+03</pdfrwt>
<totfact> 0.55848414E+03</totfact>
</mgrwt>
</event>
<event>
 7    1  0.1446636E-005  0.1309635E+03  0.7546771E-02  0.1234376E+00
          1   -1    0    0  501    0  0.00000000000E+00  0.00000000000E+00  0.43169311003E+03  0.43169311003E+03  0.00000000000E+00 0. -1.
         -1   -1    0    0    0  501 -0.00000000000E+00 -0.00000000000E+00 -0.35049177906E+02  0.35049177906E+02  0.00000000000E+00 0.  1.
         23    2    1    2    0    0  0.23395895292E+02 -0.54598086761E+02  0.22767565356E+03  0.25296271757E+03  0.92874185124E+02 0.  0.
          5    1    1    2  502    0  0.97887511539E+01  0.67813470468E+02  0.16350207053E+03  0.17734007865E+03  0.47000000000E+01 0. -1.
         -5    1    1    2    0  502 -0.33184646445E+02 -0.13215383707E+02  0.54662080290E+01  0.36439491715E+02  0.47000000000E+01 0.  1.
        -11    1    3    3    0    0 -0.11260740276E+02 -0.67823784793E+02  0.11134388450E+03  0.13085996588E+03  0.00000000000E+00 0.  1.
         11    1    3    3    0    0  0.34656635568E+02  0.13225698031E+02  0.11633176906E+03  0.12210275169E+03  0.00000000000E+00 0. -1.
<mgrwt>
<rscale>  0 0.12544466E+03</rscale>
<asrwt>0</asrwt>
<pdfrwt beam="1">  1        1 0.66414321E-01 0.13096345E+03</pdfrwt>
<pdfrwt beam="2">  1       -1 0.53921815E-02 0.13096345E+03</pdfrwt>
<totfact> 0.81959345E+03</totfact>
</mgrwt>
</event>
<event>
 7    1  0.1446636E-005  0.1505703E+03  0.7546771E-02  0.1208436E+00
          3   -1    0    0  501    0  0.00000000000E+00  0.00000000000E+00  0.40898642791E+03  0.40898642791E+03  0.00000000000E+00 0. -1.
         -3   -1    0    0    0  501 -0.00000000000E+00 -0.00000000000E+00 -0.46397940367E+02  0.46397940367E+02  0.00000000000E+00 0.  1.
         23    2    1    2    0    0  0.49139063802E+02 -0.68107706910E+02  0.16122970757E+03  0.20395487928E+03  0.92462245518E+02 0.  0.
          5    1    1    2  502    0 -0.53081295190E+02  0.10135346946E+03  0.17213090406E+03  0.20673966190E+03  0.47000000000E+01 0.  1.
         -5    1    1    2    0  502  0.39422313877E+01 -0.33245762548E+02  0.29227875910E+02  0.44689827097E+02  0.47000000000E+01 0.  1.
        -11    1    3    3    0    0 -0.20874414692E+02 -0.16055463559E+02  0.78171047731E+01  0.27470460970E+02  0.00000000000E+00 0.  1.
         11    1    3    3    0    0  0.70013478494E+02 -0.52052243351E+02  0.15341260280E+03  0.17648441831E+03  0.00000000000E+00 0. -1.
<mgrwt>
<rscale>  0 0.14369912E+03</rscale>
<asrwt>0</asrwt>
<pdfrwt beam="1">  1        3 0.62920987E-01 0.15057035E+03</pdfrwt>
<pdfrwt beam="2">  1       -3 0.71381449E-02 0.15057035E+03</pdfrwt>
<totfact> 0.75283620E+02</totfact>
</mgrwt>
</event>
<event>
 7    1  0.1446636E-005  0.1613107E+03  0.7546771E-02  0.1192804E+00
          2   -1    0    0  501    0  0.00000000000E+00  0.00000000000E+00  0.66409629674E+03  0.66409629674E+03  0.00000000000E+00 0. -1.
         -2   -1    0    0    0  501 -0.00000000000E+00 -0.00000000000E+00 -0.35122813231E+02  0.35122813231E+02  0.00000000000E+00 0.  1.
         23    2    1    2    0    0  0.85748550072E+02 -0.55163470551E+02  0.33027737397E+03  0.35974818254E+03  0.99698489260E+02 0.  0.
          5    1    1    2  502    0  0.29529282489E+01  0.54544449171E+02  0.19679095163E+03  0.20428554859E+03  0.47000000000E+01 0.  1.
         -5    1    1    2    0  502 -0.88701478321E+02  0.61902138023E+00  0.10190515791E+03  0.13518537884E+03  0.47000000000E+01 0.  1.
        -11    1    3    3    0    0  0.58342018729E+02  0.13924733022E+02  0.20964546886E+03  0.21805713002E+03  0.00000000000E+00 0. -1.
         11    1    3    3    0    0  0.27406531343E+02 -0.69088203573E+02  0.12063190511E+03  0.14169105251E+03  0.00000000000E+00 0.  1.
<mgrwt>
<rscale>  0 0.15641542E+03</rscale>
<asrwt>0</asrwt>
<pdfrwt beam="1">  1        2 0.10216865E+00 0.16131071E+03</pdfrwt>
<pdfrwt beam="2">  1       -2 0.54035102E-02 0.16131071E+03</pdfrwt>
<totfact> 0.75476009E+03</totfact>
</mgrwt>
</event>
<event>
 7    1  0.1446636E-005  0.1176083E+03  0.7546771E-02  0.1259804E+00
          1   -1    0    0  501    0  0.00000000000E+00  0.00000000000E+00  0.11337418893E+03  0.11337418893E+03  0.00000000000E+00 0. -1.
         -1   -1    0    0    0  501 -0.00000000000E+00 -0.00000000000E+00 -0.17696273020E+03  0.17696273020E+03  0.00000000000E+00 0.  1.
         23    2    1    2    0    0  0.72567891515E+01 -0.10580192533E+01  0.67966994367E+02  0.11387566263E+03  0.91073452900E+02 0.  0.
          5    1    1    2  502    0 -0.21239631891E+02 -0.49184493476E+02 -0.28499206226E+02  0.60864859458E+02  0.47000000000E+01 0. -1.
         -5    1    1    2    0  502  0.13982842739E+02  0.50242512729E+02 -0.10305632941E+03  0.11559639704E+03  0.47000000000E+01 0.  1.
        -11    1    3    3    0    0  0.14971914196E+02  0.40867737765E+02  0.15337810176E+02  0.46147357733E+02  0.00000000000E+00 0.  1.
         11    1    3    3    0    0 -0.77151250448E+01 -0.41925757018E+02  0.52629184190E+02  0.67728304899E+02  0.00000000000E+00 0. -1.
<mgrwt>
<rscale>  0 0.11041481E+03</rscale>
<asrwt>0</asrwt>
<pdfrwt beam="1">  1        1 0.17442183E-01 0.11760832E+03</pdfrwt>
<pdfrwt beam="2">  1       -1 0.27225035E-01 0.11760832E+03</pdfrwt>
<totfact> 0.35138263E+03</totfact>
</mgrwt>
</event>
<event>
 7    1  0.3537275E-005  0.2174056E+03  0.7546771E-02  0.1139223E+00
          2   -1    0    0  501    0  0.00000000000E+00  0.00000000000E+00  0.76717669081E+03  0.76717669081E+03  0.00000000000E+00 0.  1.
         -2   -1    0    0    0  501 -0.00000000000E+00 -0.00000000000E+00 -0.56850718427E+02  0.56850718427E+02  0.00000000000E+00 0. -1.
         23    2    1    2    0    0  0.11014420893E+03 -0.13967156356E+03  0.33672038708E+03  0.39177014127E+03  0.91996369935E+02 0.  0.
          5    1    1    2  502    0  0.36377008287E+01  0.84261196650E+02  0.10097841319E+03  0.13165071993E+03  0.47000000000E+01 0. -1.
         -5    1    1    2    0  502 -0.11378190976E+03  0.55410366912E+02  0.27262717211E+03  0.30060654804E+03  0.47000000000E+01 0. -1.
        -11    1    3    3    0    0  0.19554743023E+02  0.11099336221E+02  0.23386870316E+02  0.32442702452E+02  0.00000000000E+00 0.  1.
         11    1    3    3    0    0  0.90589465912E+02 -0.15077089978E+03  0.31333351677E+03  0.35932743882E+03  0.00000000000E+00 0. -1.
<mgrwt>
<rscale>  0 0.21298573E+03</rscale>
<asrwt>0</asrwt>
<pdfrwt beam="1">  1        2 0.11802718E+00 0.21740564E+03</pdfrwt>
<pdfrwt beam="2">  1       -2 0.87462649E-02 0.21740564E+03</pdfrwt>
<totfact> 0.30512835E+03</totfact>
</mgrwt>
</event>
<event>
 7    1  0.1446636E-005  0.1269856E+03  0.7546771E-02  0.1246777E+00
          3   -1    0    0  501    0  0.00000000000E+00  0.00000000000E+00  0.25120263086E+03  0.25120263086E+03  0.00000000000E+00 0. -1.
         -3   -1    0    0    0  501 -0.00000000000E+00 -0.00000000000E+00 -0.49669479728E+02  0.49669479728E+02  0.00000000000E+00 0.  1.
         23    2    1    2    0    0 -0.21686444179E+02 -0.55523283715E+01  0.10775368820E+03  0.14301166060E+03  0.91325503207E+02 0.  0.
          5    1    1    2  502    0 -0.98857363593E+01 -0.19707089687E+02 -0.24189986316E+02  0.33065731585E+02  0.47000000000E+01 0.  1.
         -5    1    1    2    0  502  0.31572180538E+02  0.25259418058E+02  0.11796944925E+03  0.12479471840E+03  0.47000000000E+01 0.  1.
        -11    1    3    3    0    0 -0.56924227661E+02 -0.11141982391E+02  0.60665649136E+02  0.83933500174E+02  0.00000000000E+00 0. -1.
         11    1    3    3    0    0  0.35237783482E+02  0.55896540191E+01  0.47088039061E+02  0.59078160427E+02  0.00000000000E+00 0.  1.
<mgrwt>
<rscale>  0 0.11779623E+03</rscale>
<asrwt>0</asrwt>
<pdfrwt beam="1">  1        3 0.38646558E-01 0.12698557E+03</pdfrwt>
<pdfrwt beam="2">  1       -3 0.76414586E-02 0.12698557E+03</pdfrwt>
<totfact> 0.17328304E+03</totfact>
</mgrwt>
</event>
<event>
 7    1  0.1446636E-005  0.1461530E+03  0.7546771E-02  0.1214128E+00
          1   -1    0    0  501    0  0.00000000000E+00  0.00000000000E+00  0.25253442818E+03  0.25253442818E+03  0.00000000000E+00 0.  1.
         -1   -1    0    0    0  501 -0.00000000000E+00 -0.00000000000E+00 -0.71536496815E+02  0.71536496815E+02  0.00000000000E+00 0. -1.
         23    2    1    2    0    0  0.58773598727E+02 -0.47809242978E+02  0.64081192031E+02  0.13690731376E+03  0.94324725114E+02 0.  0.
          5    1    1    2  502    0 -0.23233078968E+02 -0.28447564624E+02 -0.66296052497E+01  0.37617569793E+02  0.47000000000E+01 0.  1.
         -5    1    1    2    0  502 -0.35540519759E+02  0.76256807603E+02  0.12354634458E+03  0.14954604144E+03  0.47000000000E+01 0.  1.
        -11    1    3    3    0    0  0.32305453003E+02 -0.66486294734E+02  0.11015972906E+02  0.74735676489E+02  0.00000000000E+00 0.  1.
         11    1    3    3    0    0  0.26468145725E+02  0.18677051756E+02  0.53065219125E+02  0.62171637273E+02  0.00000000000E+00 0. -1.
<mgrwt>
<rscale>  0 0.13940812E+03</rscale>
<asrwt>0</asrwt>
<pdfrwt beam="1">  1        1 0.38851450E-01 0.14615298E+03</pdfrwt>
<pdfrwt beam="2">  1       -1 0.11005615E-01 0.14615298E+03</pdfrwt>
<totfact> 0.54937223E+03</totfact>
</mgrwt>
</event>
<event>
 6    1  0.1446636E-005  0.2037598E+03  0.7546771E-02  0.1220913E+00
          1   -1    0    0  501    0  0.00000000000E+00  0.00000000000E+00  0.94973051859E+02  0.94973051859E+02  0.00000000000E+00 0.  1.
         -1   -1    0    0    0  501 -0.00000000000E+00 -0.00000000000E+00 -0.22075721496E+03  0.22075721496E+03  0.00000000000E+00 0. -1.
          5    1    1    2  502    0 -0.17672549962E+02 -0.58650313233E+02 -0.15634859765E+03  0.16798557156E+03  0.47000000000E+01 0. -1.
         -5    1    1    2    0  502  0.36009664359E+02  0.85804198419E+02 -0.74884173525E+01  0.93473112648E+02  0.47000000000E+01 0.  1.
        -11    1    1    2    0    0 -0.54515895078E+01 -0.23431714403E+02  0.17579265188E+02  0.29795899594E+02  0.00000000000E+00 0.  1.
         11    1    1    2    0    0 -0.12885524889E+02 -0.37221707831E+01  0.20473586706E+02  0.24475683027E+02  0.00000000000E+00 0. -1.
<mgrwt>
<rscale>  0 0.13451033E+03</rscale>
<asrwt>0</asrwt>
<pdfrwt beam="1">  1        1 0.14611239E-01 0.20375985E+03</pdfrwt>
<pdfrwt beam="2">  1       -1 0.33962648E-01 0.20375985E+03</pdfrwt>
<totfact> 0.31273743E+03</totfact>
</mgrwt>
</event>
<event>
 7    1  0.1446636E-005  0.2003767E+03  0.7546771E-02  0.1153833E+00
          1   -1    0    0  501    0  0.00000000000E+00  0.00000000000E+00  0.50280187119E+02  0.50280187119E+02  0.00000000000E+00 0. -1.
         -1   -1    0    0    0  501 -0.00000000000E+00 -0.00000000000E+00 -0.81829227721E+03  0.81829227721E+03  0.00000000000E+00 0.  1.
         23    2    1    2    0    0  0.32275780195E+02  0.15324616258E+03 -0.21716535575E+03  0.28241297509E+03  0.89834205229E+02 0.  0.
          5    1    1    2  502    0  0.43639883019E+02 -0.51968947025E+02 -0.26345411135E+03  0.27209441308E+03  0.47000000000E+01 0. -1.
         -5    1    1    2    0  502 -0.75915663214E+02 -0.10127721555E+03 -0.28739262299E+03  0.31406507616E+03  0.47000000000E+01 0. -1.
        -11    1    3    3    0    0  0.67031644937E+01  0.22398855946E+02 -0.10682123580E+03  0.10934997750E+03  0.00000000000E+00 0.  1.
         11    1    3    3    0    0  0.25572615702E+02  0.13084730663E+03 -0.11034411995E+03  0.17306299759E+03  0.00000000000E+00 0. -1.
<mgrwt>
<rscale>  0 0.19522321E+03</rscale>
<asrwt>0</asrwt>
<pdfrwt beam="1">  1        1 0.77354138E-02 0.20037670E+03</pdfrwt>
<pdfrwt beam="2">  1       -1 0.12589111E+00 0.20037670E+03</pdfrwt>
<totfact> 0.53567242E+02</totfact>
</mgrwt>
</event>
<event>
 7    1  0.1446636E-005  0.1268837E+03  0.7546771E-02  0.1245136E+00
          2   -1    0    0  501    0  0.00000000000E+00  0.00000000000E+00  0.41855903551E+02  0.41855903551E+02  0.00000000000E+00 0. -1.
         -2   -1    0    0    0  501 -0.00000000000E+00 -0.00000000000E+00 -0.30059321340E+03  0.30059321340E+03  0.00000000000E+00 0.  1.
         23    2    1    2    0    0 -0.21700303571E+02  0.79781239723E+00 -0.10949910549E+03  0.14656264367E+03  0.94968493380E+02 0.  0.
          5    1    1    2  502    0 -0.27803305992E+02 -0.40174564750E+02 -0.11212544729E+03  0.12239781618E+03  0.47000000000E+01 0.  1.
         -5    1    1    2    0  502  0.49503609563E+02  0.39376752353E+02 -0.37112757070E+02  0.73488657104E+02  0.47000000000E+01 0.  1.
        -11    1    3    3    0    0  0.23479523351E+02 -0.29361889423E+02 -0.69800008167E+02  0.79280828120E+02  0.00000000000E+00 0.  1.
         11    1    3    3    0    0 -0.45179826923E+02  0.30159701820E+02 -0.39699097326E+02  0.67281815546E+02  0.00000000000E+00 0. -1.
<mgrwt>
<rscale>  0 0.11877247E+03</rscale>
<asrwt>0</asrwt>
<pdfrwt beam="1">  1        2 0.64393700E-02 0.12688368E+03</pdfrwt>
<pdfrwt beam="2">  1       -2 0.46245108E-01 0.12688368E+03</pdfrwt>
<totfact> 0.47766920E+03</totfact>
</mgrwt>
</event>
<event>
 7    1  0.1446636E-005  0.1558758E+03  0.7546771E-02  0.1201722E+00
         -2   -1    0    0    0  501 -0.00000000000E+00  0.00000000000E+00  0.15675767400E+02  0.15675767400E+02  0.00000000000E+00 0.  1.
          2   -1    0    0  501    0  0.00000000000E+00 -0.00000000000E+00 -0.13579940795E+04  0.13579940795E+04  0.00000000000E+00 0. -1.
         23    2    1    2    0    0  0.90761631668E+02 -0.20860061656E+02 -0.47696165935E+03  0.49438639414E+03  0.90844186713E+02 0.  0.
          5    1    1    2  502    0 -0.60127357723E+02  0.57088511389E+02 -0.74824067199E+03  0.75283503538E+03  0.47000000000E+01 0. -1.
         -5    1    1    2    0  502 -0.30634273945E+02 -0.36228449733E+02 -0.11711598079E+03  0.12644841742E+03  0.47000000000E+01 0. -1.
        -11    1    3    3    0    0  0.72400225002E+02  0.59177528530E+01 -0.43652470845E+03  0.44252755108E+03  0.00000000000E+00 0. -1.
         11    1    3    3    0    0  0.18361406666E+02 -0.26777814509E+02 -0.40436950901E+02  0.51858843053E+02  0.00000000000E+00 0.  1.
<mgrwt>
<rscale>  0 0.14898810E+03</rscale>
<asrwt>0</asrwt>
<pdfrwt beam="2">  1        2 0.20892221E+00 0.15587576E+03</pdfrwt>
<pdfrwt beam="1">  1       -2 0.24116560E-02 0.15587576E+03</pdfrwt>
<totfact> 0.93534221E+03</totfact>
</mgrwt>
</event>
<event>
 7    1  0.1446636E-005  0.2273638E+03  0.7546771E-02  0.1153188E+00
          2   -1    0    0  501    0  0.00000000000E+00  0.00000000000E+00  0.35525218952E+02  0.35525218952E+02  0.00000000000E+00 0. -1.
         -2   -1    0    0    0  501 -0.00000000000E+00 -0.00000000000E+00 -0.10821188090E+04  0.10821188090E+04  0.00000000000E+00 0.  1.
         23    2    1    2    0    0  0.13767353842E+02  0.98040279618E+02 -0.16549600535E+03  0.20768399637E+03  0.77086173233E+02 0.  0.
          5    1    1    2  502    0  0.62941533773E+02 -0.10233810032E+03 -0.29097263369E+03  0.31483628604E+03  0.47000000000E+01 0. -1.
         -5    1    1    2    0  502 -0.76708887615E+02  0.42978206982E+01 -0.59012495099E+03  0.59512374552E+03  0.47000000000E+01 0.  1.
        -11    1    3    3    0    0  0.35191977862E+02  0.24184288618E+02 -0.31041654979E+02  0.52791471524E+02  0.00000000000E+00 0.  1.
         11    1    3    3    0    0 -0.21424624020E+02  0.73855991000E+02 -0.13445435037E+03  0.15489252485E+03  0.00000000000E+00 0. -1.
<mgrwt>
<rscale>  0 0.19596541E+03</rscale>
<asrwt>0</asrwt>
<pdfrwt beam="1">  1        2 0.54654193E-02 0.22736382E+03</pdfrwt>
<pdfrwt beam="2">  1       -2 0.16647979E+00 0.22736382E+03</pdfrwt>
<totfact> 0.33532067E+02</totfact>
</mgrwt>
</event>
<event>
 7    1  0.1446636E-005  0.1283712E+03  0.7546771E-02  0.1244868E+00
         -1   -1    0    0    0  501 -0.00000000000E+00  0.00000000000E+00  0.65278319714E+02  0.65278319714E+02  0.00000000000E+00 0.  1.
          1   -1    0    0  501    0  0.00000000000E+00 -0.00000000000E+00 -0.19078324531E+03  0.19078324531E+03  0.00000000000E+00 0. -1.
         23    2    1    2    0    0  0.29220894632E+02  0.11237703811E+01 -0.59158823692E+02  0.11155906520E+03  0.89947401656E+02 0.  0.
          5    1    1    2  502    0  0.10063329513E+02  0.52315087782E+02 -0.55603895037E+02  0.77149349665E+02  0.47000000000E+01 0.  1.
         -5    1    1    2    0  502 -0.39284224145E+02 -0.53438858163E+02 -0.10742206872E+02  0.67353150163E+02  0.47000000000E+01 0.  1.
        -11    1    3    3    0    0  0.41630833538E+02 -0.36211585531E+02 -0.32543923140E+02  0.64058661874E+02  0.00000000000E+00 0.  1.
         11    1    3    3    0    0 -0.12409938906E+02  0.37335355912E+02 -0.26614900552E+02  0.47500403326E+02  0.00000000000E+00 0. -1.
<mgrwt>
<rscale>  0 0.11893297E+03</rscale>
<asrwt>0</asrwt>
<pdfrwt beam="2">  1        1 0.29351269E-01 0.12837121E+03</pdfrwt>
<pdfrwt beam="1">  1       -1 0.10042818E-01 0.12837121E+03</pdfrwt>
<totfact> 0.88703539E+03</totfact>
</mgrwt>
</event>
<event>
 7    1  0.1969361E-005  0.1539749E+03  0.7546771E-02  0.1203123E+00
         -1   -1    0    0    0  501 -0.00000000000E+00  0.00000000000E+00  0.12636484937E+03  0.12636484937E+03  0.00000000000E+00 0.  1.
          1   -1    0    0  501    0  0.00000000000E+00 -0.00000000000E+00 -0.16145236622E+03  0.16145236622E+03  0.00000000000E+00 0. -1.
         23    2    1    2    0    0  0.20008969715E+02 -0.87651169885E+02 -0.26506445124E+02  0.13360343417E+03  0.95206089818E+02 0.  0.
          5    1    1    2  502    0 -0.27181588868E+02 -0.24829715740E+02  0.13069021370E+02  0.39347717554E+02  0.47000000000E+01 0.  1.
         -5    1    1    2    0  502  0.71726191536E+01  0.11248088563E+03 -0.21650093092E+02  0.11486606386E+03  0.47000000000E+01 0.  1.
        -11    1    3    3    0    0  0.56664722335E+02 -0.47370131806E+02 -0.20074466343E+01  0.73884030660E+02  0.00000000000E+00 0.  1.
         11    1    3    3    0    0 -0.36655752621E+02 -0.40281038079E+02 -0.24498998490E+02  0.59719403513E+02  0.00000000000E+00 0. -1.
<mgrwt>
<rscale>  0 0.14786377E+03</rscale>
<asrwt>0</asrwt>
<pdfrwt beam="2">  1        1 0.24838826E-01 0.15397485E+03</pdfrwt>
<pdfrwt beam="1">  1       -1 0.19440746E-01 0.15397485E+03</pdfrwt>
<totfact> 0.39418991E+03</totfact>
</mgrwt>
</event>
<event>
 7    1  0.1446636E-005  0.1271486E+03  0.7546771E-02  0.1247563E+00
          1   -1    0    0  501    0  0.00000000000E+00  0.00000000000E+00  0.20933219655E+03  0.20933219655E+03  0.00000000000E+00 0. -1.
         -1   -1    0    0    0  501 -0.00000000000E+00 -0.00000000000E+00 -0.66365699229E+02  0.66365699229E+02  0.00000000000E+00 0.  1.
         23    2    1    2    0    0  0.13810568772E+02  0.18738247416E+02  0.11155429640E+03  0.14472650849E+03  0.89216296098E+02 0.  0.
          5    1    1    2  502    0  0.51980803914E+02  0.10880174096E+02  0.23403389276E+02  0.58225344941E+02  0.47000000000E+01 0. -1.
         -5    1    1    2    0  502 -0.65791372686E+02 -0.29618421512E+02  0.80088116465E+01  0.72746042344E+02  0.47000000000E+01 0. -1.
        -11    1    3    3    0    0  0.69094992594E+01 -0.26755111980E+02  0.42307812710E+01  0.27954904887E+02  0.00000000000E+00 0.  1.
         11    1    3    3    0    0  0.69010695129E+01  0.45493359395E+02  0.10732351512E+03  0.11677160360E+03  0.00000000000E+00 0. -1.
<mgrwt>
<rscale>  0 0.11733298E+03</rscale>
<asrwt>0</asrwt>
<pdfrwt beam="1">  1        1 0.32204953E-01 0.12714864E+03</pdfrwt>
<pdfrwt beam="2">  1       -1 0.10210108E-01 0.12714864E+03</pdfrwt>
<totfact> 0.77037292E+03</totfact>
</mgrwt>
</event>
<event>
 7    1  0.1446636E-005  0.1337345E+03  0.7546771E-02  0.1235353E+00
          2   -1    0    0  501    0  0.00000000000E+00  0.00000000000E+00  0.14376805431E+03  0.14376805431E+03  0.00000000000E+00 0. -1.
         -2   -1    0    0    0  501 -0.00000000000E+00 -0.00000000000E+00 -0.10130610566E+03  0.10130610566E+03  0.00000000000E+00 0.  1.
         23    2    1    2    0    0  0.52430075675E+01 -0.47265635193E+02  0.45706410649E+02  0.11130026537E+03  0.89650118234E+02 0.  0.
          5    1    1    2  502    0 -0.21073981621E+02 -0.39371459041E+02 -0.72556596651E+01  0.45485811915E+02  0.47000000000E+01 0.  1.
         -5    1    1    2    0  502  0.15830974053E+02  0.86637094235E+02  0.40111976706E+01  0.88288082682E+02  0.47000000000E+01 0.  1.
        -11    1    3    3    0    0  0.30643427727E+02 -0.50481938862E+02  0.58110152254E+02  0.82850682611E+02  0.00000000000E+00 0. -1.
         11    1    3    3    0    0 -0.25400420159E+02  0.32163036688E+01 -0.12403741605E+02  0.28449582763E+02  0.00000000000E+00 0.  1.
<mgrwt>
<rscale>  0 0.12481890E+03</rscale>
<asrwt>0</asrwt>
<pdfrwt beam="1">  1        2 0.22118162E-01 0.13373454E+03</pdfrwt>
<pdfrwt beam="2">  1       -2 0.15585555E-01 0.13373454E+03</pdfrwt>
<totfact> 0.75083722E+03</totfact>
</mgrwt>
</event>
<event>
 7    1  0.1446636E-005  0.2117575E+03  0.7546771E-02  0.1159650E+00
         -4   -1    0    0    0  501 -0.00000000000E+00  0.00000000000E+00  0.44577308236E+03  0.44577308236E+03  0.00000000000E+00 0.  1.
          4   -1    0    0  501    0  0.00000000000E+00 -0.00000000000E+00 -0.95007167243E+02  0.95007167243E+02  0.00000000000E+00 0. -1.
         23    2    1    2    0    0 -0.98927087291E+02 -0.93505828501E+01  0.28934399259E+01  0.13352543161E+03  0.89144079409E+02 0.  0.
          5    1    1    2  502    0  0.98322092449E+02  0.60262451444E+02  0.95643209136E+02  0.14989499782E+03  0.47000000000E+01 0. -1.
         -5    1    1    2    0  502  0.60499484193E+00 -0.50911868594E+02  0.25222926606E+03  0.25735982017E+03  0.47000000000E+01 0.  1.
        -11    1    3    3    0    0 -0.22127576268E+02  0.23448855945E+02  0.31672439760E+02  0.45195374952E+02  0.00000000000E+00 0.  1.
         11    1    3    3    0    0 -0.76799511023E+02 -0.32799438795E+02 -0.28778999835E+02  0.88330056663E+02  0.00000000000E+00 0. -1.
<mgrwt>
<rscale>  0 0.18868812E+03</rscale>
<asrwt>0</asrwt>
<pdfrwt beam="2">  1        4 0.14616488E-01 0.21175747E+03</pdfrwt>
<pdfrwt beam="1">  1       -4 0.68580473E-01 0.21175747E+03</pdfrwt>
<totfact> 0.14086723E+02</totfact>
</mgrwt>
</event>
<event>
 7    1  0.1446636E-005  0.1785335E+03  0.7546771E-02  0.1175145E+00
          1   -1    0    0  501    0  0.00000000000E+00  0.00000000000E+00  0.20570546300E+03  0.20570546300E+03  0.00000000000E+00 0. -1.
         -1   -1    0    0    0  501 -0.00000000000E+00 -0.00000000000E+00 -0.14224771712E+03  0.14224771712E+03  0.00000000000E+00 0.  1.
         23    2    1    2    0    0  0.10443992883E+03 -0.73084481646E+02  0.65983733645E+02  0.16940184222E+03  0.89967165399E+02 0.  0.
          5    1    1    2  502    0 -0.21849345582E+02  0.77733952891E+02  0.34332649355E+02  0.87867981348E+02  0.47000000000E+01 0. -1.
         -5    1    1    2    0  502 -0.82590583251E+02 -0.46494712451E+01 -0.36858637122E+02  0.90683356549E+02  0.47000000000E+01 0. -1.
        -11    1    3    3    0    0 -0.95668374083E+01 -0.34284200655E+02  0.15226225599E+02  0.38713934682E+02  0.00000000000E+00 0.  1.
         11    1    3    3    0    0  0.11400676624E+03 -0.38800280990E+02  0.50757508047E+02  0.13068790754E+03  0.00000000000E+00 0. -1.
<mgrwt>
<rscale>  0 0.17261828E+03</rscale>
<asrwt>0</asrwt>
<pdfrwt beam="1">  1        1 0.31646994E-01 0.17853347E+03</pdfrwt>
<pdfrwt beam="2">  1       -1 0.21884264E-01 0.17853347E+03</pdfrwt>
<totfact> 0.24169683E+03</totfact>
</mgrwt>
</event>
