<event>
 8    1  0.6380238E-009  0.1506269E+03  0.7561462E-02  0.1199705E+00
         -1   -1    0    0    0  501 -0.00000000000E+00  0.00000000000E+00  0.97191545583E+03  0.97191545583E+03  0.00000000000E+00 0.  1.
          1   -1    0    0  501    0  0.00000000000E+00 -0.00000000000E+00 -0.24113256466E+02  0.24113256466E+02  0.00000000000E+00 0. -1.
         25    2    1    2    0    0  0.93760756393E+02  0.55069945987E+02  0.50946840257E+03  0.53575140985E+03  0.12509093312E+03 0.  0.
         23    2    1    2    0    0 -0.93760756393E+02 -0.55069945987E+02  0.43833379679E+03  0.46027730244E+03  0.88853246111E+02 0.  0.
          5    1    3    3  502    0  0.11729827579E+03  0.20913882434E+02  0.42717492249E+03  0.44349990168E+03  0.41800000000E+01 0. -1.
         -5    1    3    3    0  502 -0.23537519398E+02  0.34156063553E+02  0.82293480077E+02  0.92251508172E+02  0.41800000000E+01 0. -1.
        -11    1    4    4    0    0 -0.65895076724E+02  0.12662804455E+02  0.21742790888E+03  0.22754648605E+03  0.00000000000E+00 0.  1.
         11    1    4    4    0    0 -0.27865679670E+02 -0.67732750442E+02  0.22090588791E+03  0.23273081639E+03  0.00000000000E+00 0. -1.
</event>
<event>
 8    1  0.6380238E-009  0.1385695E+03  0.7561462E-02  0.1215267E+00
         -1   -1    0    0    0  501 -0.00000000000E+00  0.00000000000E+00  0.73725971437E+02  0.73725971437E+02  0.00000000000E+00 0.  1.
          1   -1    0    0  501    0  0.00000000000E+00 -0.00000000000E+00 -0.31433876589E+03  0.31433876589E+03  0.00000000000E+00 0. -1.
         25    2    1    2    0    0 -0.33368520885E+02 -0.85061953310E+02 -0.18854545250E+03  0.24401951989E+03  0.12508854600E+03 0.  0.
         23    2    1    2    0    0  0.33368520885E+02  0.85061953310E+02 -0.52067341952E+02  0.14404521744E+03  0.98432832342E+02 0.  0.
          5    1    3    3  502    0 -0.68954843489E+02 -0.95231962802E+02 -0.14445503907E+03  0.18630251714E+03  0.41800000000E+01 0.  1.
         -5    1    3    3    0  502  0.35586322604E+02  0.10170009491E+02 -0.44090413435E+02  0.57717002750E+02  0.41800000000E+01 0.  1.
        -11    1    4    4    0    0  0.30879589113E+02 -0.57388955081E+01  0.11203368300E+02  0.33346655105E+02  0.00000000000E+00 0.  1.
         11    1    4    4    0    0  0.24889317717E+01  0.90800848819E+02 -0.63270710252E+02  0.11069856234E+03  0.00000000000E+00 0. -1.
</event>
<event>
 8    1  0.6380238E-009  0.9443759E+02  0.7561462E-02  0.1292448E+00
         -1   -1    0    0    0  501 -0.00000000000E+00  0.00000000000E+00  0.62961673196E+02  0.62961673196E+02  0.00000000000E+00 0.  1.
          1   -1    0    0  501    0  0.00000000000E+00 -0.00000000000E+00 -0.21387001736E+03  0.21387001736E+03  0.00000000000E+00 0. -1.
         25    2    1    2    0    0  0.35053169956E+02 -0.99605064071E+01 -0.60446385161E+02  0.14364068481E+03  0.12510373473E+03 0.  0.
         23    2    1    2    0    0 -0.35053169956E+02  0.99605064071E+01 -0.90461959005E+02  0.13319100574E+03  0.90711308954E+02 0.  0.
          5    1    3    3  502    0 -0.13245468624E+02 -0.56167073253E+02 -0.48742000409E+02  0.75653404158E+02  0.41800000000E+01 0. -1.
         -5    1    3    3    0  502  0.48298638581E+02  0.46206566846E+02 -0.11704384752E+02  0.67987280655E+02  0.41800000000E+01 0. -1.
        -11    1    4    4    0    0  0.14061947244E+02  0.82174955872E+00  0.12446542352E+02  0.18797075547E+02  0.00000000000E+00 0.  1.
         11    1    4    4    0    0 -0.49115117200E+02  0.91387568484E+01 -0.10290850136E+03  0.11439393020E+03  0.00000000000E+00 0. -1.
</event>
<event>
 8    1  0.6380238E-009  0.1050238E+03  0.7561462E-02  0.1270073E+00
         -1   -1    0    0    0  501 -0.00000000000E+00  0.00000000000E+00  0.17147935747E+02  0.17147935747E+02  0.00000000000E+00 0.  1.
          1   -1    0    0  501    0  0.00000000000E+00 -0.00000000000E+00 -0.69880462993E+03  0.69880462993E+03  0.00000000000E+00 0. -1.
         25    2    1    2    0    0  0.14073701642E+02 -0.38373545950E+02 -0.42300977943E+03  0.44300704190E+03  0.12508943829E+03 0.  0.
         23    2    1    2    0    0 -0.14073701642E+02  0.38373545950E+02 -0.25864691476E+03  0.27294552378E+03  0.77009313288E+02 0.  0.
          5    1    3    3  502    0 -0.53610551855E+02 -0.28580555230E+02 -0.15933836600E+03  0.17057879905E+03  0.41800000000E+01 0. -1.
         -5    1    3    3    0  502  0.67684253497E+02 -0.97929907196E+01 -0.26367141343E+03  0.27242824284E+03  0.41800000000E+01 0. -1.
        -11    1    4    4    0    0  0.13394278150E+02  0.49289190398E+02 -0.10855462779E+03  0.11997057219E+03  0.00000000000E+00 0. -1.
         11    1    4    4    0    0 -0.27467979792E+02 -0.10915644448E+02 -0.15009228697E+03  0.15297495159E+03  0.00000000000E+00 0.  1.
</event>
<event>
 8    1  0.6380238E-009  0.1248333E+03  0.7561462E-02  0.1235330E+00
         -1   -1    0    0    0  501 -0.00000000000E+00  0.00000000000E+00  0.26136109957E+02  0.26136109957E+02  0.00000000000E+00 0.  1.
          1   -1    0    0  501    0  0.00000000000E+00 -0.00000000000E+00 -0.63669263128E+03  0.63669263128E+03  0.00000000000E+00 0. -1.
         25    2    1    2    0    0 -0.60684486653E+02 -0.17751860127E+02 -0.40954187190E+03  0.43286201727E+03  0.12508895113E+03 0.  0.
         23    2    1    2    0    0  0.60684486653E+02  0.17751860127E+02 -0.20101464942E+03  0.22996672396E+03  0.92087292238E+02 0.  0.
          5    1    3    3  502    0  0.37367577953E+02 -0.15394827347E+02 -0.14895942974E+03  0.15440116806E+03  0.41800000000E+01 0.  1.
         -5    1    3    3    0  502 -0.98052064606E+02 -0.23570327800E+01 -0.26058244216E+03  0.27846084921E+03  0.41800000000E+01 0.  1.
        -11    1    4    4    0    0  0.83254064939E+02  0.25390668542E+02 -0.14537347250E+03  0.16943840145E+03  0.00000000000E+00 0.  1.
         11    1    4    4    0    0 -0.22569578286E+02 -0.76388084156E+01 -0.55641176916E+02  0.60528322516E+02  0.00000000000E+00 0. -1.
</event>
<event>
 8    1  0.6380238E-009  0.8400189E+02  0.7561462E-02  0.1318064E+00
          2   -1    0    0  501    0  0.00000000000E+00  0.00000000000E+00  0.87358764336E+02  0.87358764336E+02  0.00000000000E+00 0. -1.
         -2   -1    0    0    0  501 -0.00000000000E+00 -0.00000000000E+00 -0.16226297966E+03  0.16226297966E+03  0.00000000000E+00 0.  1.
         25    2    1    2    0    0  0.43841864457E+02 -0.16183483729E+02 -0.56109968511E+02  0.14484469825E+03  0.12509054249E+03 0.  0.
         23    2    1    2    0    0 -0.43841864457E+02  0.16183483729E+02 -0.18794246812E+02  0.10477704574E+03  0.91874868033E+02 0.  0.
          5    1    3    3  502    0  0.17844000622E+02 -0.39505464933E+02  0.29290913543E+02  0.52483522499E+02  0.41800000000E+01 0. -1.
         -5    1    3    3    0  502  0.25997863836E+02  0.23321981203E+02 -0.85400882054E+02  0.92361175755E+02  0.41800000000E+01 0. -1.
        -11    1    4    4    0    0 -0.31512330176E+02  0.46716303786E+02 -0.36745850537E+02  0.67273304693E+02  0.00000000000E+00 0.  1.
         11    1    4    4    0    0 -0.12329534281E+02 -0.30532820057E+02  0.17951603726E+02  0.37503741047E+02  0.00000000000E+00 0. -1.
</event>
<event>
 8    1  0.6380238E-009  0.1833857E+03  0.7561462E-02  0.1164566E+00
          1   -1    0    0  501    0  0.00000000000E+00  0.00000000000E+00  0.77385231444E+02  0.77385231444E+02  0.00000000000E+00 0. -1.
         -1   -1    0    0    0  501 -0.00000000000E+00 -0.00000000000E+00 -0.52392912028E+03  0.52392912028E+03  0.00000000000E+00 0.  1.
         25    2    1    2    0    0 -0.16806901055E+03  0.96065604008E+01 -0.20794972563E+03  0.29534914710E+03  0.12509417250E+03 0.  0.
         23    2    1    2    0    0  0.16806901055E+03 -0.96065604008E+01 -0.23859416321E+03  0.30596520462E+03  0.91367682531E+02 0.  0.
          5    1    3    3  502    0 -0.93458285646E+02  0.49275509264E+02 -0.51776856900E+02  0.11773207838E+03  0.41800000000E+01 0. -1.
         -5    1    3    3    0  502 -0.74610724907E+02 -0.39668948863E+02 -0.15617286873E+03  0.17761706872E+03  0.41800000000E+01 0. -1.
        -11    1    4    4    0    0  0.15763955827E+03  0.58933953065E+01 -0.24003104364E+03  0.28722789619E+03  0.00000000000E+00 0.  1.
         11    1    4    4    0    0  0.10429452284E+02 -0.15499955707E+02  0.14368804309E+01  0.18737308431E+02  0.00000000000E+00 0. -1.
</event>
<event>
 8    1  0.6380238E-009  0.1120759E+03  0.7561462E-02  0.1256773E+00
         -1   -1    0    0    0  501 -0.00000000000E+00  0.00000000000E+00  0.42835749285E+02  0.42835749285E+02  0.00000000000E+00 0.  1.
          1   -1    0    0  501    0  0.00000000000E+00 -0.00000000000E+00 -0.32856934898E+03  0.32856934898E+03  0.00000000000E+00 0. -1.
         25    2    1    2    0    0 -0.42438893569E+02  0.21835659704E+02 -0.15464875719E+03  0.20454998878E+03  0.12508638649E+03 0.  0.
         23    2    1    2    0    0  0.42438893569E+02 -0.21835659704E+02 -0.13108484250E+03  0.16685510949E+03  0.91539805038E+02 0.  0.
          5    1    3    3  502    0 -0.56408352656E+02 -0.36909660615E+02 -0.11096976260E+03  0.12990760528E+03  0.41800000000E+01 0. -1.
         -5    1    3    3    0  502  0.13969459086E+02  0.58745320318E+02 -0.43678994590E+02  0.74642383502E+02  0.41800000000E+01 0. -1.
        -11    1    4    4    0    0  0.57898626404E+02 -0.41378800425E+02 -0.65592483319E+02  0.96782384410E+02  0.00000000000E+00 0.  1.
         11    1    4    4    0    0 -0.15459732835E+02  0.19543140721E+02 -0.65492359182E+02  0.70072725078E+02  0.00000000000E+00 0. -1.
</event>
<event>
 8    1  0.6380238E-009  0.7082331E+02  0.7561462E-02  0.1357316E+00
          2   -1    0    0  501    0  0.00000000000E+00  0.00000000000E+00  0.73445585964E+02  0.73445585964E+02  0.00000000000E+00 0. -1.
         -2   -1    0    0    0  501 -0.00000000000E+00 -0.00000000000E+00 -0.20627732624E+03  0.20627732624E+03  0.00000000000E+00 0.  1.
         25    2    1    2    0    0 -0.47779178362E+02  0.43379265566E+01 -0.37400572265E+02  0.13909843134E+03  0.12509157967E+03 0.  0.
         23    2    1    2    0    0  0.47779178362E+02 -0.43379265566E+01 -0.95431168015E+02  0.14062448087E+03  0.91468406015E+02 0.  0.
          5    1    3    3  502    0 -0.30333938911E+02 -0.20268961217E+02 -0.79248961953E+02  0.87343282565E+02  0.41800000000E+01 0.  1.
         -5    1    3    3    0  502 -0.17445239450E+02  0.24606887773E+02  0.41848389688E+02  0.51755148776E+02  0.41800000000E+01 0.  1.
        -11    1    4    4    0    0  0.23525357472E+01  0.21892000052E+02 -0.84132402690E+02  0.86965828192E+02  0.00000000000E+00 0.  1.
         11    1    4    4    0    0  0.45426642614E+02 -0.26229926609E+02 -0.11298765325E+02  0.53658652676E+02  0.00000000000E+00 0. -1.
</event>
<event>
 8    1  0.6380238E-009  0.1015949E+03  0.7561462E-02  0.1276977E+00
         -2   -1    0    0    0  501 -0.00000000000E+00  0.00000000000E+00  0.16443571144E+03  0.16443571144E+03  0.00000000000E+00 0.  1.
          2   -1    0    0  501    0  0.00000000000E+00 -0.00000000000E+00 -0.11919193243E+03  0.11919193243E+03  0.00000000000E+00 0. -1.
         25    2    1    2    0    0 -0.59924974317E+02  0.19456312230E+02 -0.37579109163E+02  0.14500711020E+03  0.12508126131E+03 0.  0.
         23    2    1    2    0    0  0.59924974317E+02 -0.19456312230E+02  0.82822888177E+02  0.13862053367E+03  0.91577676955E+02 0.  0.
          5    1    3    3  502    0 -0.67270614907E+02  0.43353548044E+02  0.19565219145E+02  0.82493247955E+02  0.41800000000E+01 0. -1.
         -5    1    3    3    0  502  0.73456405898E+01 -0.23897235814E+02 -0.57144328308E+02  0.62513862247E+02  0.41800000000E+01 0. -1.
        -11    1    4    4    0    0  0.49770062956E+02  0.22438613567E+02  0.12295149748E+02  0.55961783860E+02  0.00000000000E+00 0. -1.
         11    1    4    4    0    0  0.10154911361E+02 -0.41894925797E+02  0.70527738429E+02  0.82658749810E+02  0.00000000000E+00 0.  1.
</event>
<event>
 8    1  0.6380238E-009  0.1300929E+03  0.7561462E-02  0.1227318E+00
          1   -1    0    0  501    0  0.00000000000E+00  0.00000000000E+00  0.13950077619E+03  0.13950077619E+03  0.00000000000E+00 0. -1.
         -1   -1    0    0    0  501 -0.00000000000E+00 -0.00000000000E+00 -0.16252139804E+03  0.16252139804E+03  0.00000000000E+00 0.  1.
         25    2    1    2    0    0 -0.82192624813E+02  0.36484605379E+02  0.39711891408E+02  0.15909479695E+03  0.12508943238E+03 0.  0.
         23    2    1    2    0    0  0.82192624813E+02 -0.36484605379E+02 -0.62732513258E+02  0.14292737729E+03  0.91684856737E+02 0.  0.
          5    1    3    3  502    0 -0.81039337176E+02  0.71710616769E+02  0.53786308342E+02  0.12091412694E+03  0.41800000000E+01 0. -1.
         -5    1    3    3    0  502 -0.11532876368E+01 -0.35226011389E+02 -0.14074416935E+02  0.38180670016E+02  0.41800000000E+01 0. -1.
        -11    1    4    4    0    0 -0.13921303073E+02 -0.10397433074E+01 -0.33660781658E+02  0.36440800858E+02  0.00000000000E+00 0.  1.
         11    1    4    4    0    0  0.96113927886E+02 -0.35444862072E+02 -0.29071731600E+02  0.10648657643E+03  0.00000000000E+00 0. -1.
</event>
<event>
 8    1  0.6380238E-009  0.1749339E+03  0.7561462E-02  0.1172798E+00
         -1   -1    0    0    0  501 -0.00000000000E+00  0.00000000000E+00  0.38348153738E+02  0.38348153738E+02  0.00000000000E+00 0.  1.
          1   -1    0    0  501    0  0.00000000000E+00 -0.00000000000E+00 -0.84416170540E+03  0.84416170540E+03  0.00000000000E+00 0. -1.
         25    2    1    2    0    0 -0.13958157430E+03  0.19595250208E+02 -0.48578812391E+03  0.52106129132E+03  0.12509107991E+03 0.  0.
         23    2    1    2    0    0  0.13958157430E+03 -0.19595250208E+02 -0.32002542775E+03  0.36144856781E+03  0.91442895015E+02 0.  0.
          5    1    3    3  502    0 -0.97692978990E+02 -0.45180716212E+02 -0.23221692159E+03  0.25598317588E+03  0.41800000000E+01 0. -1.
         -5    1    3    3    0  502 -0.41888595311E+02  0.64775966420E+02 -0.25357120232E+03  0.26507811544E+03  0.41800000000E+01 0. -1.
        -11    1    4    4    0    0  0.12455706402E+02 -0.34710426274E+02 -0.10391999353E+03  0.11026932198E+03  0.00000000000E+00 0. -1.
         11    1    4    4    0    0  0.12712586790E+03  0.15115176066E+02 -0.21610543422E+03  0.25117924583E+03  0.00000000000E+00 0.  1.
</event>
<event>
 8    1  0.6380238E-009  0.1463310E+03  0.7561462E-02  0.1205055E+00
          1   -1    0    0  501    0  0.00000000000E+00  0.00000000000E+00  0.86693405069E+02  0.86693405069E+02  0.00000000000E+00 0. -1.
         -1   -1    0    0    0  501 -0.00000000000E+00 -0.00000000000E+00 -0.26311022232E+03  0.26311022232E+03  0.00000000000E+00 0.  1.
         25    2    1    2    0    0  0.57853401890E+02  0.88061289486E+02 -0.84997862777E+02  0.18432569273E+03  0.12509803159E+03 0.  0.
         23    2    1    2    0    0 -0.57853401890E+02 -0.88061289486E+02 -0.91418954470E+02  0.16547793465E+03  0.89015250402E+02 0.  0.
          5    1    3    3  502    0 -0.34836746365E+02  0.30139258214E+02 -0.74711935373E+00  0.46260181261E+02  0.41800000000E+01 0.  1.
         -5    1    3    3    0  502  0.92690148256E+02  0.57922031273E+02 -0.84250743423E+02  0.13806551147E+03  0.41800000000E+01 0.  1.
        -11    1    4    4    0    0 -0.37420579147E+02  0.84623882832E+01 -0.17348969445E+02  0.42105801263E+02  0.00000000000E+00 0.  1.
         11    1    4    4    0    0 -0.20432822743E+02 -0.96523677770E+02 -0.74069985025E+02  0.12337213339E+03  0.00000000000E+00 0. -1.
</event>
<event>
 8    1  0.6380238E-009  0.9162828E+02  0.7561462E-02  0.1298956E+00
          2   -1    0    0  501    0  0.00000000000E+00  0.00000000000E+00  0.30250789891E+03  0.30250789891E+03  0.00000000000E+00 0. -1.
         -2   -1    0    0    0  501 -0.00000000000E+00 -0.00000000000E+00 -0.47506535259E+02  0.47506535259E+02  0.00000000000E+00 0.  1.
         25    2    1    2    0    0 -0.15178342562E+02  0.15394687807E+02  0.19610102249E+03  0.23360636030E+03  0.12509573156E+03 0.  0.
         23    2    1    2    0    0  0.15178342562E+02 -0.15394687807E+02  0.58900341160E+02  0.11640807387E+03  0.98052082989E+02 0.  0.
          5    1    3    3  502    0 -0.61499975285E+02  0.18735651846E+02  0.54044449594E+02  0.84092488023E+02  0.41800000000E+01 0. -1.
         -5    1    3    3    0  502  0.46321632722E+02 -0.33409640383E+01  0.14205657290E+03  0.14951387228E+03  0.41800000000E+01 0. -1.
        -11    1    4    4    0    0  0.42755144785E+02 -0.66411706885E+01 -0.75597046680E+01  0.43923304616E+02  0.00000000000E+00 0.  1.
         11    1    4    4    0    0 -0.27576802223E+02 -0.87535171189E+01  0.66460045828E+02  0.72484769257E+02  0.00000000000E+00 0. -1.
</event>
<event>
 8    1  0.6380238E-009  0.9744956E+02  0.7561462E-02  0.1285752E+00
          2   -1    0    0  501    0  0.00000000000E+00  0.00000000000E+00  0.11095343138E+03  0.11095343138E+03  0.00000000000E+00 0. -1.
         -2   -1    0    0    0  501 -0.00000000000E+00 -0.00000000000E+00 -0.17848914725E+03  0.17848914725E+03  0.00000000000E+00 0.  1.
         25    2    1    2    0    0  0.40035059785E+02  0.32636274106E+02  0.34865566426E+02  0.13976199586E+03  0.12509946189E+03 0.  0.
         23    2    1    2    0    0 -0.40035059785E+02 -0.32636274106E+02 -0.10240128229E+03  0.14968058277E+03  0.96178593482E+02 0.  0.
          5    1    3    3  502    0  0.52412645983E+02  0.50247001702E+02  0.68305106071E+02  0.99774278019E+02  0.41800000000E+01 0.  1.
         -5    1    3    3    0  502 -0.12377586198E+02 -0.17610727596E+02 -0.33439539645E+02  0.39987717842E+02  0.41800000000E+01 0.  1.
        -11    1    4    4    0    0 -0.60494038342E+02 -0.45834809844E+02 -0.47272865885E+02  0.89415224192E+02  0.00000000000E+00 0. -1.
         11    1    4    4    0    0  0.20458978557E+02  0.13198535739E+02 -0.55128416403E+02  0.60265358577E+02  0.00000000000E+00 0.  1.
</event>
<event>
 8    1  0.6380238E-009  0.1460469E+03  0.7561462E-02  0.1205416E+00
         -1   -1    0    0    0  501 -0.00000000000E+00  0.00000000000E+00  0.73696558739E+02  0.73696558739E+02  0.00000000000E+00 0.  1.
          1   -1    0    0  501    0  0.00000000000E+00 -0.00000000000E+00 -0.36905979219E+03  0.36905979219E+03  0.00000000000E+00 0. -1.
         25    2    1    2    0    0  0.63633147100E+02 -0.10168470722E+03 -0.20004089937E+03  0.26467525024E+03  0.12509064544E+03 0.  0.
         23    2    1    2    0    0 -0.63633147100E+02  0.10168470722E+03 -0.95322334083E+02  0.17808110069E+03  0.90761081731E+02 0.  0.
          5    1    3    3  502    0  0.57580104644E+02  0.10806283811E+02 -0.50888498395E+02  0.77713292875E+02  0.41800000000E+01 0.  1.
         -5    1    3    3    0  502  0.60530424562E+01 -0.11249099103E+03 -0.14915240097E+03  0.18696195736E+03  0.41800000000E+01 0.  1.
        -11    1    4    4    0    0 -0.40130231477E+02  0.75057555497E+02 -0.10044127357E+02  0.85702722302E+02  0.00000000000E+00 0.  1.
         11    1    4    4    0    0 -0.23502915623E+02  0.26627151719E+02 -0.85278206726E+02  0.92378378389E+02  0.00000000000E+00 0. -1.
</event>
<event>
 8    1  0.6380238E-009  0.1146927E+03  0.7561462E-02  0.1252118E+00
         -1   -1    0    0    0  501 -0.00000000000E+00  0.00000000000E+00  0.94752297886E+02  0.94752297886E+02  0.00000000000E+00 0.  1.
          1   -1    0    0  501    0  0.00000000000E+00 -0.00000000000E+00 -0.16192967305E+03  0.16192967305E+03  0.00000000000E+00 0. -1.
         25    2    1    2    0    0 -0.46519158238E+02 -0.18292847875E+02 -0.36017970113E+01  0.13476109317E+03  0.12509563910E+03 0.  0.
         23    2    1    2    0    0  0.46519158238E+02  0.18292847875E+02 -0.63575578157E+02  0.12192087777E+03  0.91236976783E+02 0.  0.
          5    1    3    3  502    0 -0.82046269425E+02  0.70367853713E+01  0.20188526326E+02  0.84889078627E+02  0.41800000000E+01 0.  1.
         -5    1    3    3    0  502  0.35527111187E+02 -0.25329633246E+02 -0.23790323337E+02  0.49872014539E+02  0.41800000000E+01 0.  1.
        -11    1    4    4    0    0  0.58375741984E+02 -0.21014731718E+02 -0.30164382147E+02  0.68987217307E+02  0.00000000000E+00 0.  1.
         11    1    4    4    0    0 -0.11856583746E+02  0.39307579593E+02 -0.33411196009E+02  0.52933660467E+02  0.00000000000E+00 0. -1.
</event>
<event>
 8    1  0.6380238E-009  0.9526893E+02  0.7561462E-02  0.1290572E+00
         -2   -1    0    0    0  501 -0.00000000000E+00  0.00000000000E+00  0.43211925428E+02  0.43211925428E+02  0.00000000000E+00 0.  1.
          2   -1    0    0  501    0  0.00000000000E+00 -0.00000000000E+00 -0.38520105897E+03  0.38520105897E+03  0.00000000000E+00 0. -1.
         25    2    1    2    0    0  0.23316392448E+02 -0.13716016038E+02 -0.81940797957E+02  0.15196647356E+03  0.12509089281E+03 0.  0.
         23    2    1    2    0    0 -0.23316392448E+02  0.13716016038E+02 -0.26004833558E+03  0.27644651084E+03  0.89809538810E+02 0.  0.
          5    1    3    3  502    0 -0.16203481538E+02 -0.44995864412E+02 -0.88783757309E+02  0.10093170260E+03  0.41800000000E+01 0. -1.
         -5    1    3    3    0  502  0.39519873986E+02  0.31279848373E+02  0.68429593522E+01  0.51034770959E+02  0.41800000000E+01 0. -1.
        -11    1    4    4    0    0 -0.55874750246E+02 -0.17715920613E+01 -0.13038684655E+03  0.14186562659E+03  0.00000000000E+00 0.  1.
         11    1    4    4    0    0  0.32558357799E+02  0.15487608100E+02 -0.12966148903E+03  0.13458088425E+03  0.00000000000E+00 0. -1.
</event>
<event>
 8    1  0.6380238E-009  0.1109984E+03  0.7561462E-02  0.1258732E+00
         -4   -1    0    0    0  501 -0.00000000000E+00  0.00000000000E+00  0.10492172790E+03  0.10492172790E+03  0.00000000000E+00 0.  1.
          4   -1    0    0  501    0  0.00000000000E+00 -0.00000000000E+00 -0.20300352345E+03  0.20300352345E+03  0.00000000000E+00 0. -1.
         25    2    1    2    0    0 -0.81659503276E+02 -0.37933157612E+02 -0.90737454598E+02  0.17883622090E+03  0.12506761898E+03 0.  0.
         23    2    1    2    0    0  0.81659503276E+02  0.37933157612E+02 -0.73443409560E+01  0.12908903046E+03  0.92210842736E+02 0.  0.
          5    1    3    3  502    0 -0.84425114569E+02 -0.45323178270E+02 -0.11688864822E+03  0.15120257584E+03  0.41800000000E+01 0.  1.
         -5    1    3    3    0  502  0.27656112924E+01  0.73900206579E+01  0.26151193624E+02  0.27633645057E+02  0.41800000000E+01 0.  1.
        -11    1    4    4    0    0  0.73084910560E+02  0.59309683167E+02  0.16923110089E+02  0.95631764200E+02  0.00000000000E+00 0.  1.
         11    1    4    4    0    0  0.85745927164E+01 -0.21376525555E+02 -0.24267451045E+02  0.33457266255E+02  0.00000000000E+00 0. -1.
</event>
<event>
 8    1  0.6380238E-009  0.7047375E+02  0.7561462E-02  0.1358489E+00
         -1   -1    0    0    0  501 -0.00000000000E+00  0.00000000000E+00  0.16439725853E+02  0.16439725853E+02  0.00000000000E+00 0.  1.
          1   -1    0    0  501    0  0.00000000000E+00 -0.00000000000E+00 -0.15510067127E+04  0.15510067127E+04  0.00000000000E+00 0. -1.
         25    2    1    2    0    0 -0.71370712853E+01 -0.54825710311E+01 -0.13833063410E+04  0.13889797603E+04  0.12508934896E+03 0.  0.
         23    2    1    2    0    0  0.71370712853E+01  0.54825710311E+01 -0.15126064590E+03  0.17846667826E+03  0.94284547407E+02 0.  0.
          5    1    3    3  502    0  0.99177735030E+01  0.17113945011E+02 -0.35373484246E+02  0.40743160565E+02  0.41800000000E+01 0.  1.
         -5    1    3    3    0  502 -0.17054844788E+02 -0.22596516042E+02 -0.13479328567E+04  0.13482365997E+04  0.41800000000E+01 0.  1.
        -11    1    4    4    0    0 -0.56720878654E+01  0.47679251407E+02 -0.99418007281E+02  0.11040572343E+03  0.00000000000E+00 0.  1.
         11    1    4    4    0    0  0.12809159151E+02 -0.42196680375E+02 -0.51842638617E+02  0.68060954825E+02  0.00000000000E+00 0. -1.
</event>
<event>
 8    1  0.6380238E-009  0.1060004E+03  0.7561462E-02  0.1268161E+00
         -2   -1    0    0    0  501 -0.00000000000E+00  0.00000000000E+00  0.11294839560E+02  0.11294839560E+02  0.00000000000E+00 0.  1.
          2   -1    0    0  501    0  0.00000000000E+00 -0.00000000000E+00 -0.22327712729E+04  0.22327712729E+04  0.00000000000E+00 0. -1.
         25    2    1    2    0    0 -0.47103088134E+02 -0.40031918482E+02 -0.18879100770E+04  0.18930592256E+04  0.12509003782E+03 0.  0.
         23    2    1    2    0    0  0.47103088134E+02  0.40031918482E+02 -0.33356635639E+03  0.35100688686E+03  0.90100305772E+02 0.  0.
          5    1    3    3  502    0 -0.78658844165E+01  0.35189558571E+02 -0.21892465957E+03  0.22191362315E+03  0.41800000000E+01 0. -1.
         -5    1    3    3    0  502 -0.39237203718E+02 -0.75221477053E+02 -0.16689854174E+04  0.16711456025E+04  0.41800000000E+01 0. -1.
        -11    1    4    4    0    0 -0.98161093557E+01  0.31758645843E+02 -0.40717641062E+02  0.52563236984E+02  0.00000000000E+00 0. -1.
         11    1    4    4    0    0  0.56919197490E+02  0.82732726391E+01 -0.29284871533E+03  0.29844364988E+03  0.00000000000E+00 0.  1.
</event>
<event>
 8    1  0.6380238E-009  0.1021588E+03  0.7561462E-02  0.1275821E+00
          1   -1    0    0  501    0  0.00000000000E+00  0.00000000000E+00  0.16022668429E+03  0.16022668429E+03  0.00000000000E+00 0. -1.
         -1   -1    0    0    0  501 -0.00000000000E+00 -0.00000000000E+00 -0.17751830913E+03  0.17751830913E+03  0.00000000000E+00 0.  1.
         25    2    1    2    0    0 -0.48262150964E+02  0.79845605806E+00  0.10962644659E+03  0.17319125991E+03  0.12508949584E+03 0.  0.
         23    2    1    2    0    0  0.48262150964E+02 -0.79845605806E+00 -0.12691807143E+03  0.16455373350E+03  0.92950855862E+02 0.  0.
          5    1    3    3  502    0 -0.38165259846E+02 -0.58148956103E+02  0.80717701493E+02  0.10663352142E+03  0.41800000000E+01 0.  1.
         -5    1    3    3    0  502 -0.10096891117E+02  0.58947412161E+02  0.28908745099E+02  0.66557738498E+02  0.41800000000E+01 0.  1.
        -11    1    4    4    0    0  0.10531794156E+02  0.26234959460E+02 -0.11243009913E+03  0.11592980194E+03  0.00000000000E+00 0.  1.
         11    1    4    4    0    0  0.37730356807E+02 -0.27033415518E+02 -0.14487972298E+02  0.48623931563E+02  0.00000000000E+00 0. -1.
</event>
<event>
 8    1  0.6380238E-009  0.2015144E+03  0.7561462E-02  0.1148468E+00
         -1   -1    0    0    0  501 -0.00000000000E+00  0.00000000000E+00  0.15502126989E+03  0.15502126989E+03  0.00000000000E+00 0.  1.
          1   -1    0    0  501    0  0.00000000000E+00 -0.00000000000E+00 -0.42119957713E+03  0.42119957713E+03  0.00000000000E+00 0. -1.
         25    2    1    2    0    0  0.39180626778E+02 -0.19345480891E+03 -0.27366976890E+03  0.35986535588E+03  0.12509215544E+03 0.  0.
         23    2    1    2    0    0 -0.39180626778E+02  0.19345480891E+03  0.74914616527E+01  0.21635549113E+03  0.88281889093E+02 0.  0.
          5    1    3    3  502    0  0.33539843478E+02 -0.15011001501E+03 -0.10676431524E+03  0.18728061596E+03  0.41800000000E+01 0.  1.
         -5    1    3    3    0  502  0.56407833005E+01 -0.43344793899E+02 -0.16690545365E+03  0.17258473992E+03  0.41800000000E+01 0.  1.
        -11    1    4    4    0    0 -0.53333191692E+02  0.16609266552E+03  0.31541129982E+02  0.17727392859E+03  0.00000000000E+00 0.  1.
         11    1    4    4    0    0  0.14152564914E+02  0.27362143383E+02 -0.24049668329E+02  0.39081562544E+02  0.00000000000E+00 0. -1.
</event>
<event>
 8    1  0.6380238E-009  0.2046855E+03  0.7561462E-02  0.1145845E+00
          1   -1    0    0  501    0  0.00000000000E+00  0.00000000000E+00  0.10967790072E+04  0.10967790072E+04  0.00000000000E+00 0. -1.
         -1   -1    0    0    0  501 -0.00000000000E+00 -0.00000000000E+00 -0.50214929200E+02  0.50214929200E+02  0.00000000000E+00 0.  1.
         25    2    1    2    0    0  0.17425522733E+03  0.92776150127E+02  0.68338178320E+03  0.72224037105E+03  0.12509274031E+03 0.  0.
         23    2    1    2    0    0 -0.17425522733E+03 -0.92776150127E+02  0.36318229479E+03  0.42475356534E+03  0.97682719736E+02 0.  0.
          5    1    3    3  502    0  0.13228080421E+03  0.39840630278E+02  0.26965030572E+03  0.30300865789E+03  0.41800000000E+01 0.  1.
         -5    1    3    3    0  502  0.41974423123E+02  0.52935519849E+02  0.41373147748E+03  0.41923171315E+03  0.41800000000E+01 0.  1.
        -11    1    4    4    0    0 -0.16935440199E+03 -0.75335376351E+02  0.25603670832E+03  0.31608721646E+03  0.00000000000E+00 0.  1.
         11    1    4    4    0    0 -0.49008253475E+01 -0.17440773776E+02  0.10714558647E+03  0.10866634888E+03  0.00000000000E+00 0. -1.
</event>
<event>
 8    1  0.6380238E-009  0.1267130E+03  0.7561462E-02  0.1232416E+00
          2   -1    0    0  501    0  0.00000000000E+00  0.00000000000E+00  0.36542480113E+03  0.36542480113E+03  0.00000000000E+00 0. -1.
         -2   -1    0    0    0  501 -0.00000000000E+00 -0.00000000000E+00 -0.57474795324E+02  0.57474795324E+02  0.00000000000E+00 0.  1.
         25    2    1    2    0    0  0.64133524718E+02 -0.68756795337E+02  0.13352551835E+03  0.20571059275E+03  0.12508868063E+03 0.  0.
         23    2    1    2    0    0 -0.64133524718E+02  0.68756795337E+02  0.17442448746E+03  0.21718900370E+03  0.88918814691E+02 0.  0.
          5    1    3    3  502    0  0.76538491492E+02 -0.97456509815E+02  0.96822402655E+02  0.15731485003E+03  0.41800000000E+01 0. -1.
         -5    1    3    3    0  502 -0.12404966774E+02  0.28699714478E+02  0.36703115692E+02  0.48395742718E+02  0.41800000000E+01 0. -1.
        -11    1    4    4    0    0 -0.29001350137E+02  0.50658703228E+02  0.26554310587E+02  0.64128885327E+02  0.00000000000E+00 0.  1.
         11    1    4    4    0    0 -0.35132174581E+02  0.18098092110E+02  0.14787017688E+03  0.15306011838E+03  0.00000000000E+00 0. -1.
</event>
<event>
 8    1  0.6380238E-009  0.1366937E+03  0.7561462E-02  0.1217848E+00
         -1   -1    0    0    0  501 -0.00000000000E+00  0.00000000000E+00  0.68100074428E+02  0.68100074428E+02  0.00000000000E+00 0.  1.
          1   -1    0    0  501    0  0.00000000000E+00 -0.00000000000E+00 -0.34520980815E+03  0.34520980815E+03  0.00000000000E+00 0. -1.
         25    2    1    2    0    0  0.97232701881E+02  0.29015174386E+02 -0.99005684419E+02  0.18906464604E+03  0.12508891308E+03 0.  0.
         23    2    1    2    0    0 -0.97232701881E+02 -0.29015174386E+02 -0.17810404930E+03  0.22424523654E+03  0.90932915226E+02 0.  0.
          5    1    3    3  502    0 -0.21214940608E+02  0.79397698637E+01 -0.57146094781E+02  0.61613815003E+02  0.41800000000E+01 0.  1.
         -5    1    3    3    0  502  0.11844764249E+03  0.21075404523E+02 -0.41859589637E+02  0.12745083104E+03  0.41800000000E+01 0.  1.
        -11    1    4    4    0    0 -0.94977446198E+02 -0.51046329983E+02 -0.11630531554E+03  0.15859813844E+03  0.00000000000E+00 0. -1.
         11    1    4    4    0    0 -0.22552556830E+01  0.22031155596E+02 -0.61798733757E+02  0.65647098101E+02  0.00000000000E+00 0.  1.
</event>
<event>
 8    1  0.6380238E-009  0.1028703E+03  0.7561462E-02  0.1274373E+00
         -1   -1    0    0    0  501 -0.00000000000E+00  0.00000000000E+00  0.38784988110E+03  0.38784988110E+03  0.00000000000E+00 0.  1.
          1   -1    0    0  501    0  0.00000000000E+00 -0.00000000000E+00 -0.55517234048E+02  0.55517234048E+02  0.00000000000E+00 0. -1.
         25    2    1    2    0    0  0.96153048314E+02 -0.81285486714E+01  0.15268608211E+03  0.21970623764E+03  0.12508520770E+03 0.  0.
         23    2    1    2    0    0 -0.96153048314E+02  0.81285486714E+01  0.17964656494E+03  0.22366087750E+03  0.91868481138E+02 0.  0.
          5    1    3    3  502    0  0.53832262967E+02 -0.23207764170E+00 -0.68344657834E+01  0.54425625571E+02  0.41800000000E+01 0. -1.
         -5    1    3    3    0  502  0.42320785346E+02 -0.78964710297E+01  0.15952054789E+03  0.16528061207E+03  0.41800000000E+01 0. -1.
        -11    1    4    4    0    0 -0.71616958828E+02  0.28022777148E+02  0.53659501173E+02  0.93774233652E+02  0.00000000000E+00 0. -1.
         11    1    4    4    0    0 -0.24536089486E+02 -0.19894228477E+02  0.12598706377E+03  0.12988664385E+03  0.00000000000E+00 0.  1.
</event>
<event>
 8    1  0.6380238E-009  0.1169267E+03  0.7561462E-02  0.1248255E+00
          1   -1    0    0  501    0  0.00000000000E+00  0.00000000000E+00  0.35202805817E+03  0.35202805817E+03  0.00000000000E+00 0. -1.
         -1   -1    0    0    0  501 -0.00000000000E+00 -0.00000000000E+00 -0.10012905936E+03  0.10012905936E+03  0.00000000000E+00 0.  1.
         25    2    1    2    0    0  0.36260360378E+02  0.44096076914E+02  0.30321862169E+03  0.33293883479E+03  0.12508979749E+03 0.  0.
         23    2    1    2    0    0 -0.36260360378E+02 -0.44096076914E+02 -0.51319622881E+02  0.11921828274E+03  0.91214130012E+02 0.  0.
          5    1    3    3  502    0 -0.45676091285E+02  0.28448815414E+02  0.11742543582E+03  0.12923562122E+03  0.41800000000E+01 0. -1.
         -5    1    3    3    0  502  0.81936451664E+02  0.15647261500E+02  0.18579318587E+03  0.20370321357E+03  0.41800000000E+01 0. -1.
        -11    1    4    4    0    0  0.11125550784E+02 -0.47561892008E+02  0.58754054792E+00  0.48849326050E+02  0.00000000000E+00 0. -1.
         11    1    4    4    0    0 -0.47385911163E+02  0.34658150941E+01 -0.51907163428E+02  0.70368956694E+02  0.00000000000E+00 0.  1.
</event>
<event>
 8    1  0.6380238E-009  0.8534629E+02  0.7561462E-02  0.1314529E+00
         -2   -1    0    0    0  501 -0.00000000000E+00  0.00000000000E+00  0.20546658533E+02  0.20546658533E+02  0.00000000000E+00 0.  1.
          2   -1    0    0  501    0  0.00000000000E+00 -0.00000000000E+00 -0.65253674711E+03  0.65253674711E+03  0.00000000000E+00 0. -1.
         25    2    1    2    0    0 -0.12087357452E+02  0.27040089727E+01 -0.47088964290E+03  0.48737777718E+03  0.12508647419E+03 0.  0.
         23    2    1    2    0    0  0.12087357452E+02 -0.27040089727E+01 -0.16110044567E+03  0.18570562846E+03  0.91541307451E+02 0.  0.
          5    1    3    3  502    0 -0.24852601583E+02 -0.57420696869E+02 -0.20142794562E+03  0.21096321459E+03  0.41800000000E+01 0.  1.
         -5    1    3    3    0  502  0.12765244131E+02  0.60124705841E+02 -0.26946169728E+03  0.27641456259E+03  0.41800000000E+01 0.  1.
        -11    1    4    4    0    0  0.28031058849E+02  0.53161830041E+01 -0.16499065568E+03  0.16743929802E+03  0.00000000000E+00 0. -1.
         11    1    4    4    0    0 -0.15943701397E+02 -0.80201919768E+01  0.38902100056E+01  0.18266330432E+02  0.00000000000E+00 0.  1.
</event>
<event>
 8    1  0.6380238E-009  0.1251554E+03  0.7561462E-02  0.1234827E+00
          3   -1    0    0  501    0  0.00000000000E+00  0.00000000000E+00  0.24131218891E+02  0.24131218891E+02  0.00000000000E+00 0. -1.
         -3   -1    0    0    0  501 -0.00000000000E+00 -0.00000000000E+00 -0.83413304811E+03  0.83413304811E+03  0.00000000000E+00 0.  1.
         25    2    1    2    0    0  0.72850292091E+02  0.49823797845E+02 -0.50370485440E+03  0.52645503110E+03  0.12508694389E+03 0.  0.
         23    2    1    2    0    0 -0.72850292091E+02 -0.49823797845E+02 -0.30629697482E+03  0.33180923591E+03  0.92140959183E+02 0.  0.
          5    1    3    3  502    0  0.80557997070E+02 -0.18526884261E+02 -0.23891613682E+03  0.25284625598E+03  0.41800000000E+01 0. -1.
         -5    1    3    3    0  502 -0.77077049789E+01  0.68350682106E+02 -0.26478871758E+03  0.27360877511E+03  0.41800000000E+01 0. -1.
        -11    1    4    4    0    0 -0.54523356357E+02 -0.10887888108E+02 -0.60077783801E+02  0.81857697270E+02  0.00000000000E+00 0. -1.
         11    1    4    4    0    0 -0.18326935734E+02 -0.38935909737E+02 -0.24621919102E+03  0.24995153863E+03  0.00000000000E+00 0.  1.
</event>
<event>
 8    1  0.6380238E-009  0.1167554E+03  0.7561462E-02  0.1248548E+00
         -2   -1    0    0    0  501 -0.00000000000E+00  0.00000000000E+00  0.38606666883E+02  0.38606666883E+02  0.00000000000E+00 0.  1.
          2   -1    0    0  501    0  0.00000000000E+00 -0.00000000000E+00 -0.85249488743E+03  0.85249488743E+03  0.00000000000E+00 0. -1.
         25    2    1    2    0    0 -0.86159111804E+02  0.62884856616E+02 -0.18850716132E+03  0.25012187000E+03  0.12509237486E+03 0.  0.
         23    2    1    2    0    0  0.86159111804E+02 -0.62884856616E+02 -0.62538105923E+03  0.64097968431E+03  0.91518242544E+02 0.  0.
          5    1    3    3  502    0 -0.43043276861E+02  0.23288567912E+00 -0.16475361914E+03  0.17033497978E+03  0.41800000000E+01 0.  1.
         -5    1    3    3    0  502 -0.43115834942E+02  0.62651970937E+02 -0.23753542182E+02  0.79786890222E+02  0.41800000000E+01 0.  1.
        -11    1    4    4    0    0  0.76277589574E+02 -0.68678962446E+02 -0.61979302069E+03  0.62823439818E+03  0.00000000000E+00 0. -1.
         11    1    4    4    0    0  0.98815222292E+01  0.57941058294E+01 -0.55880385355E+01  0.12745286133E+02  0.00000000000E+00 0.  1.
</event>
<event>
 8    1  0.6380238E-009  0.1568919E+03  0.7561462E-02  0.1192251E+00
         -2   -1    0    0    0  501 -0.00000000000E+00  0.00000000000E+00  0.71781660645E+02  0.71781660645E+02  0.00000000000E+00 0. -1.
          2   -1    0    0  501    0  0.00000000000E+00 -0.00000000000E+00 -0.42998942215E+03  0.42998942215E+03  0.00000000000E+00 0.  1.
         25    2    1    2    0    0 -0.13652909406E+03 -0.23260680304E+02 -0.18322125226E+03  0.26153671965E+03  0.12510066217E+03 0.  0.
         23    2    1    2    0    0  0.13652909406E+03  0.23260680304E+02 -0.17498650925E+03  0.24023436314E+03  0.88943903899E+02 0.  0.
          5    1    3    3  502    0 -0.11495992641E+03  0.10613088945E+02 -0.56620415375E+02  0.12865366755E+03  0.41800000000E+01 0.  1.
         -5    1    3    3    0  502 -0.21569167651E+02 -0.33873769249E+02 -0.12660083688E+03  0.13288305210E+03  0.41800000000E+01 0.  1.
        -11    1    4    4    0    0  0.13604346108E+03  0.39481256324E+02 -0.12946060241E+03  0.19190268492E+03  0.00000000000E+00 0. -1.
         11    1    4    4    0    0  0.48563298117E+00 -0.16220576020E+02 -0.45525906843E+02  0.48331678222E+02  0.00000000000E+00 0.  1.
</event>
<event>
 8    1  0.6380238E-009  0.8498912E+02  0.7561462E-02  0.1315461E+00
          1   -1    0    0  501    0  0.00000000000E+00  0.00000000000E+00  0.42194257377E+02  0.42194257377E+02  0.00000000000E+00 0. -1.
         -1   -1    0    0    0  501 -0.00000000000E+00 -0.00000000000E+00 -0.34655334650E+03  0.34655334650E+03  0.00000000000E+00 0.  1.
         25    2    1    2    0    0  0.32377215663E+02 -0.31409988800E+02 -0.22859378719E+03  0.26445720275E+03  0.12509045148E+03 0.  0.
         23    2    1    2    0    0 -0.32377215663E+02  0.31409988800E+02 -0.75765301925E+02  0.12429040112E+03  0.87594813459E+02 0.  0.
          5    1    3    3  502    0  0.16912301843E+02  0.35133740339E+02 -0.16966892279E+03  0.17414195768E+03  0.41800000000E+01 0.  1.
         -5    1    3    3    0  502  0.15464913820E+02 -0.66543729139E+02 -0.58924864404E+02  0.90315245071E+02  0.41800000000E+01 0.  1.
        -11    1    4    4    0    0  0.52770488795E+01  0.23181689093E+02  0.13300771899E+02  0.27242402376E+02  0.00000000000E+00 0. -1.
         11    1    4    4    0    0 -0.37654264542E+02  0.82282997074E+01 -0.89066073824E+02  0.97047998747E+02  0.00000000000E+00 0.  1.
</event>
<event>
 8    1  0.6380238E-009  0.1081877E+03  0.7561462E-02  0.1263963E+00
          1   -1    0    0  501    0  0.00000000000E+00  0.00000000000E+00  0.53798796364E+03  0.53798796364E+03  0.00000000000E+00 0. -1.
         -1   -1    0    0    0  501 -0.00000000000E+00 -0.00000000000E+00 -0.23867154092E+02  0.23867154092E+02  0.00000000000E+00 0.  1.
         25    2    1    2    0    0  0.10454924024E+02  0.13982565044E+01  0.33826102482E+03  0.36080396477E+03  0.12509084508E+03 0.  0.
         23    2    1    2    0    0 -0.10454924024E+02 -0.13982565044E+01  0.17585978473E+03  0.20105115296E+03  0.96869198743E+02 0.  0.
          5    1    3    3  502    0 -0.12623333596E+02  0.60229109433E+02  0.18333821534E+03  0.19343543569E+03  0.41800000000E+01 0.  1.
         -5    1    3    3    0  502  0.23078257620E+02 -0.58830852929E+02  0.15492280948E+03  0.16736852908E+03  0.41800000000E+01 0.  1.
        -11    1    4    4    0    0 -0.29253879458E+02  0.37854041748E+02  0.12650145859E+03  0.13524546929E+03  0.00000000000E+00 0. -1.
         11    1    4    4    0    0  0.18798955434E+02 -0.39252298252E+02  0.49358326139E+02  0.65805683665E+02  0.00000000000E+00 0.  1.
</event>
<event>
 8    1  0.6380238E-009  0.1410807E+03  0.7561462E-02  0.1211882E+00
         -2   -1    0    0    0  501 -0.00000000000E+00  0.00000000000E+00  0.66227326328E+02  0.66227326328E+02  0.00000000000E+00 0.  1.
          2   -1    0    0  501    0  0.00000000000E+00 -0.00000000000E+00 -0.49078000892E+03  0.49078000892E+03  0.00000000000E+00 0. -1.
         25    2    1    2    0    0 -0.39275863803E+02 -0.93357508340E+02 -0.65846922631E+02  0.17389302355E+03  0.12507896937E+03 0.  0.
         23    2    1    2    0    0  0.39275863803E+02  0.93357508340E+02 -0.35870575996E+03  0.38311431170E+03  0.88591962160E+02 0.  0.
          5    1    3    3  502    0  0.39618833664E+02 -0.30324398901E+02  0.52214888447E+01  0.50338429607E+02  0.41800000000E+01 0.  1.
         -5    1    3    3    0  502 -0.78894697466E+02 -0.63033109439E+02 -0.71068411476E+02  0.12355459394E+03  0.41800000000E+01 0.  1.
        -11    1    4    4    0    0  0.31968917374E+02  0.10909042766E+03 -0.33483628605E+03  0.35360722778E+03  0.00000000000E+00 0. -1.
         11    1    4    4    0    0  0.73069464284E+01 -0.15732919321E+02 -0.23869473914E+02  0.29507083919E+02  0.00000000000E+00 0.  1.
</event>
<event>
 8    1  0.6380238E-009  0.1138592E+03  0.7561462E-02  0.1253586E+00
         -3   -1    0    0    0  501 -0.00000000000E+00  0.00000000000E+00  0.47279680205E+03  0.47279680205E+03  0.00000000000E+00 0.  1.
          3   -1    0    0  501    0  0.00000000000E+00 -0.00000000000E+00 -0.36077571006E+02  0.36077571006E+02  0.00000000000E+00 0. -1.
         25    2    1    2    0    0  0.16597828929E+02 -0.60481887110E+02  0.17134562433E+03  0.22122385295E+03  0.12508846288E+03 0.  0.
         23    2    1    2    0    0 -0.16597828929E+02  0.60481887110E+02  0.26537360671E+03  0.28765052010E+03  0.91575782724E+02 0.  0.
          5    1    3    3  502    0  0.62705468902E+02 -0.59446095566E+02  0.75674034681E+02  0.11493409430E+03  0.41800000000E+01 0. -1.
         -5    1    3    3    0  502 -0.46107639973E+02 -0.10357915442E+01  0.95671589650E+02  0.10628975865E+03  0.41800000000E+01 0. -1.
        -11    1    4    4    0    0  0.28002193022E+02  0.17859824669E+02  0.17566392454E+03  0.17877614644E+03  0.00000000000E+00 0.  1.
         11    1    4    4    0    0 -0.44600021952E+02  0.42622062441E+02  0.89709682179E+02  0.10887437367E+03  0.00000000000E+00 0. -1.
</event>
<event>
 8    1  0.6380238E-009  0.1989838E+03  0.7561462E-02  0.1150599E+00
         -1   -1    0    0    0  501 -0.00000000000E+00  0.00000000000E+00  0.36806496354E+03  0.36806496354E+03  0.00000000000E+00 0.  1.
          1   -1    0    0  501    0  0.00000000000E+00 -0.00000000000E+00 -0.14460876793E+03  0.14460876793E+03  0.00000000000E+00 0. -1.
         25    2    1    2    0    0 -0.14417246753E+03 -0.13014567421E+03  0.17970424502E+03  0.29268619162E+03  0.12509194290E+03 0.  0.
         23    2    1    2    0    0  0.14417246753E+03  0.13014567421E+03  0.43751950583E+02  0.21998753985E+03  0.93577174549E+02 0.  0.
          5    1    3    3  502    0 -0.13790806200E+03 -0.11393545414E+03  0.19816113590E+03  0.26699293896E+03  0.41800000000E+01 0. -1.
         -5    1    3    3    0  502 -0.62644055372E+01 -0.16210220070E+02 -0.18456890879E+02  0.25693252662E+02  0.41800000000E+01 0. -1.
        -11    1    4    4    0    0  0.70028844816E+01  0.31330116542E+02  0.39469749246E+02  0.50877084224E+02  0.00000000000E+00 0.  1.
         11    1    4    4    0    0  0.13716958305E+03  0.98815557672E+02  0.42822013371E+01  0.16911045562E+03  0.00000000000E+00 0. -1.
</event>
<event>
 8    1  0.6380238E-009  0.1865539E+03  0.7561462E-02  0.1161607E+00
         -1   -1    0    0    0  501 -0.00000000000E+00  0.00000000000E+00  0.10738176705E+03  0.10738176705E+03  0.00000000000E+00 0.  1.
          1   -1    0    0  501    0  0.00000000000E+00 -0.00000000000E+00 -0.35564316774E+03  0.35564316774E+03  0.00000000000E+00 0. -1.
         25    2    1    2    0    0 -0.90694490548E+02  0.12819944467E+03 -0.17177860948E+03  0.26422705113E+03  0.12508979034E+03 0.  0.
         23    2    1    2    0    0  0.90694490548E+02 -0.12819944467E+03 -0.76482791217E+02  0.19879788366E+03  0.94923089737E+02 0.  0.
          5    1    3    3  502    0 -0.11787342245E+03  0.10162653060E+03 -0.16214988256E+03  0.22479357699E+03  0.41800000000E+01 0. -1.
         -5    1    3    3    0  502  0.27178931897E+02  0.26572914064E+02 -0.96287269180E+01  0.39433474143E+02  0.41800000000E+01 0. -1.
        -11    1    4    4    0    0  0.96320371185E+02 -0.66090762263E+02 -0.28848450012E+02  0.12032387888E+03  0.00000000000E+00 0.  1.
         11    1    4    4    0    0 -0.56258806372E+01 -0.62108682405E+02 -0.47634341205E+02  0.78474004773E+02  0.00000000000E+00 0. -1.
</event>
<event>
 8    1  0.6380238E-009  0.1065796E+03  0.7561462E-02  0.1267038E+00
          1   -1    0    0  501    0  0.00000000000E+00  0.00000000000E+00  0.55973016940E+02  0.55973016940E+02  0.00000000000E+00 0. -1.
         -1   -1    0    0    0  501 -0.00000000000E+00 -0.00000000000E+00 -0.32663853811E+03  0.32663853811E+03  0.00000000000E+00 0.  1.
         25    2    1    2    0    0  0.54776071316E+02 -0.53418895399E+02 -0.11428529308E+03  0.18591039010E+03  0.12509016171E+03 0.  0.
         23    2    1    2    0    0 -0.54776071316E+02  0.53418895399E+02 -0.15638022809E+03  0.19670116496E+03  0.91556409839E+02 0.  0.
          5    1    3    3  502    0 -0.33548540990E+02 -0.11751494745E+01 -0.22196681344E+01  0.33901104782E+02  0.41800000000E+01 0. -1.
         -5    1    3    3    0  502  0.88324612306E+02 -0.52243745924E+02 -0.11206562495E+03  0.15200928531E+03  0.41800000000E+01 0. -1.
        -11    1    4    4    0    0 -0.29402283326E+02  0.31587094530E+02 -0.15740398011E+03  0.16321229047E+03  0.00000000000E+00 0.  1.
         11    1    4    4    0    0 -0.25373787990E+02  0.21831800869E+02  0.10237520198E+01  0.33488874486E+02  0.00000000000E+00 0. -1.
</event>
<event>
 8    1  0.6380238E-009  0.1141855E+03  0.7561462E-02  0.1253010E+00
          1   -1    0    0  501    0  0.00000000000E+00  0.00000000000E+00  0.39354218692E+03  0.39354218692E+03  0.00000000000E+00 0. -1.
         -1   -1    0    0    0  501 -0.00000000000E+00 -0.00000000000E+00 -0.37172733231E+02  0.37172733231E+02  0.00000000000E+00 0.  1.
         25    2    1    2    0    0 -0.24700569951E+01  0.40937811670E+02  0.14789491010E+03  0.19799558601E+03  0.12508933623E+03 0.  0.
         23    2    1    2    0    0  0.24700569951E+01 -0.40937811670E+02  0.20847454359E+03  0.23271933414E+03  0.94945497800E+02 0.  0.
          5    1    3    3  502    0  0.58736230078E+02  0.36477839104E+02  0.89569107912E+02  0.11322841941E+03  0.41800000000E+01 0. -1.
         -5    1    3    3    0  502 -0.61206287073E+02  0.44599725663E+01  0.58325802184E+02  0.84767166598E+02  0.41800000000E+01 0. -1.
        -11    1    4    4    0    0  0.34649136130E+02 -0.52920468204E+02  0.16872426502E+03  0.18019160967E+03  0.00000000000E+00 0. -1.
         11    1    4    4    0    0 -0.32179079135E+02  0.11982656534E+02  0.39750278566E+02  0.52527724467E+02  0.00000000000E+00 0.  1.
</event>
<event>
 8    1  0.6380238E-009  0.1080336E+03  0.7561462E-02  0.1264255E+00
         -1   -1    0    0    0  501 -0.00000000000E+00  0.00000000000E+00  0.24118981990E+03  0.24118981990E+03  0.00000000000E+00 0.  1.
          1   -1    0    0  501    0  0.00000000000E+00 -0.00000000000E+00 -0.83513837118E+02  0.83513837118E+02  0.00000000000E+00 0. -1.
         25    2    1    2    0    0 -0.82576796138E+02 -0.30358620173E+02  0.58490249218E+02  0.16374178177E+03  0.12509871608E+03 0.  0.
         23    2    1    2    0    0  0.82576796138E+02  0.30358620173E+02  0.99185733560E+02  0.16096187525E+03  0.91270709770E+02 0.  0.
          5    1    3    3  502    0 -0.59516668878E+02 -0.28371164685E+02  0.97746509341E+02  0.11797885127E+03  0.41800000000E+01 0.  1.
         -5    1    3    3    0  502 -0.23060127260E+02 -0.19874554883E+01 -0.39256260122E+02  0.45762930494E+02  0.41800000000E+01 0.  1.
        -11    1    4    4    0    0 -0.12147842401E+02 -0.16748695189E+02  0.20404414521E+02  0.29059060506E+02  0.00000000000E+00 0. -1.
         11    1    4    4    0    0  0.94724638539E+02  0.47107315363E+02  0.78781319039E+02  0.13190281474E+03  0.00000000000E+00 0.  1.
</event>
<event>
 8    1  0.6380238E-009  0.8836971E+02  0.7561462E-02  0.1306848E+00
         -1   -1    0    0    0  501 -0.00000000000E+00  0.00000000000E+00  0.11555239568E+04  0.11555239568E+04  0.00000000000E+00 0.  1.
          1   -1    0    0  501    0  0.00000000000E+00 -0.00000000000E+00 -0.13418903502E+02  0.13418903502E+02  0.00000000000E+00 0. -1.
         25    2    1    2    0    0  0.45606704688E+02  0.36947145945E+02  0.71248347227E+03  0.72575746634E+03  0.12508452573E+03 0.  0.
         23    2    1    2    0    0 -0.45606704688E+02 -0.36947145945E+02  0.42962158107E+03  0.44318539401E+03  0.91616196361E+02 0.  0.
          5    1    3    3  502    0  0.11523056546E+02  0.32736179917E+02  0.67025885273E+03  0.67116975526E+03  0.41800000000E+01 0. -1.
         -5    1    3    3    0  502  0.34083648142E+02  0.42109660280E+01  0.42224619542E+02  0.54587711081E+02  0.41800000000E+01 0. -1.
        -11    1    4    4    0    0 -0.71938499745E+02 -0.16391572547E+02  0.32869459271E+03  0.33687381417E+03  0.00000000000E+00 0.  1.
         11    1    4    4    0    0  0.26331795057E+02 -0.20555573397E+02  0.10092698836E+03  0.10631157984E+03  0.00000000000E+00 0. -1.
</event>
<event>
 8    1  0.6380238E-009  0.1528827E+03  0.7561462E-02  0.1196975E+00
         -2   -1    0    0    0  501 -0.00000000000E+00  0.00000000000E+00  0.21226526811E+02  0.21226526811E+02  0.00000000000E+00 0.  1.
          2   -1    0    0  501    0  0.00000000000E+00 -0.00000000000E+00 -0.15746412997E+04  0.15746412997E+04  0.00000000000E+00 0. -1.
         25    2    1    2    0    0 -0.10029110248E+03 -0.60689472771E+02 -0.12078967380E+04  0.12200017198E+04  0.12509256282E+03 0.  0.
         23    2    1    2    0    0  0.10029110248E+03  0.60689472771E+02 -0.34551803490E+03  0.37586610673E+03  0.90283444811E+02 0.  0.
          5    1    3    3  502    0 -0.10404685929E+03 -0.84777384424E+02 -0.11372564595E+04  0.11451561819E+04  0.41800000000E+01 0. -1.
         -5    1    3    3    0  502  0.37557568066E+01  0.24087911653E+02 -0.70640278454E+02  0.74845537857E+02  0.41800000000E+01 0. -1.
        -11    1    4    4    0    0  0.60974596989E+02  0.81880414366E+02 -0.21717310894E+03  0.23997179622E+03  0.00000000000E+00 0.  1.
         11    1    4    4    0    0  0.39316505494E+02 -0.21190941595E+02 -0.12834492596E+03  0.13589431051E+03  0.00000000000E+00 0. -1.
</event>
<event>
 8    1  0.6380238E-009  0.2182187E+03  0.7561462E-02  0.1135218E+00
         -2   -1    0    0    0  501 -0.00000000000E+00  0.00000000000E+00  0.20064844492E+02  0.20064844492E+02  0.00000000000E+00 0.  1.
          2   -1    0    0  501    0  0.00000000000E+00 -0.00000000000E+00 -0.24077157783E+04  0.24077157783E+04  0.00000000000E+00 0. -1.
         25    2    1    2    0    0  0.57063970152E+01 -0.19087099545E+03 -0.12375946291E+04  0.12584724956E+04  0.12509299072E+03 0.  0.
         23    2    1    2    0    0 -0.57063970152E+01  0.19087099545E+03 -0.11500563047E+04  0.11693081272E+04  0.90485868812E+02 0.  0.
          5    1    3    3  502    0  0.54354989482E+02 -0.16268752558E+03 -0.95961842726E+03  0.97483675258E+03  0.41800000000E+01 0.  1.
         -5    1    3    3    0  502 -0.48648592466E+02 -0.28183469867E+02 -0.27797620187E+03  0.28363574304E+03  0.41800000000E+01 0.  1.
        -11    1    4    4    0    0 -0.32104459283E+02  0.25453462172E+02 -0.15892759324E+03  0.16412359653E+03  0.00000000000E+00 0.  1.
         11    1    4    4    0    0  0.26398062268E+02  0.16541753328E+03 -0.99112871144E+03  0.10051845306E+04  0.00000000000E+00 0. -1.
</event>
<event>
 8    1  0.6380238E-009  0.9825463E+02  0.7561462E-02  0.1284010E+00
          2   -1    0    0  501    0  0.00000000000E+00  0.00000000000E+00  0.43335918494E+02  0.43335918494E+02  0.00000000000E+00 0. -1.
         -2   -1    0    0    0  501 -0.00000000000E+00 -0.00000000000E+00 -0.29036475127E+03  0.29036475127E+03  0.00000000000E+00 0.  1.
         25    2    1    2    0    0  0.22279093014E+02  0.17258896542E+02 -0.15514425953E+03  0.20125809616E+03  0.12506339396E+03 0.  0.
         23    2    1    2    0    0 -0.22279093014E+02 -0.17258896542E+02 -0.91884573243E+02  0.13244257360E+03  0.91126467103E+02 0.  0.
          5    1    3    3  502    0 -0.39093671655E+02 -0.55751726349E+01 -0.85088752190E+01  0.40611218535E+02  0.41800000000E+01 0. -1.
         -5    1    3    3    0  502  0.61372764670E+02  0.22834069177E+02 -0.14663538431E+03  0.16064687762E+03  0.41800000000E+01 0. -1.
        -11    1    4    4    0    0 -0.19336740926E+02  0.34388440567E+02 -0.59564454112E+02  0.71445073923E+02  0.00000000000E+00 0.  1.
         11    1    4    4    0    0 -0.29423520885E+01 -0.51647337109E+02 -0.32320119131E+02  0.60997499678E+02  0.00000000000E+00 0. -1.
</event>
<event>
 8    1  0.6380238E-009  0.1032327E+03  0.7561462E-02  0.1273641E+00
         -2   -1    0    0    0  501 -0.00000000000E+00  0.00000000000E+00  0.20953489035E+02  0.20953489035E+02  0.00000000000E+00 0.  1.
          2   -1    0    0  501    0  0.00000000000E+00 -0.00000000000E+00 -0.67531208456E+03  0.67531208456E+03  0.00000000000E+00 0. -1.
         25    2    1    2    0    0 -0.25944992069E+02  0.79073994618E+01 -0.49147982329E+03  0.50787176131E+03  0.12508253139E+03 0.  0.
         23    2    1    2    0    0  0.25944992069E+02 -0.79073994618E+01 -0.16287877224E+03  0.18839381229E+03  0.90703166876E+02 0.  0.
          5    1    3    3  502    0  0.38771173164E+02  0.34150177456E+02 -0.13536877359E+03  0.14495384007E+03  0.41800000000E+01 0.  1.
         -5    1    3    3    0  502 -0.64716165233E+02 -0.26242777995E+02 -0.35611104970E+03  0.36291792124E+03  0.41800000000E+01 0.  1.
        -11    1    4    4    0    0 -0.13634498611E+02  0.28055259833E+02 -0.23339594594E+02  0.38958103553E+02  0.00000000000E+00 0.  1.
         11    1    4    4    0    0  0.39579490680E+02 -0.35962659295E+02 -0.13953917765E+03  0.14943570873E+03  0.00000000000E+00 0. -1.
</event>
<event>
 8    1  0.6380238E-009  0.1235663E+03  0.7561462E-02  0.1237327E+00
         -1   -1    0    0    0  501 -0.00000000000E+00  0.00000000000E+00  0.22049819961E+02  0.22049819961E+02  0.00000000000E+00 0.  1.
          1   -1    0    0  501    0  0.00000000000E+00 -0.00000000000E+00 -0.12973538254E+04  0.12973538254E+04  0.00000000000E+00 0. -1.
         25    2    1    2    0    0 -0.98789861331E+02 -0.33101920729E+02 -0.97877774140E+03  0.99222397335E+03  0.12508945747E+03 0.  0.
         23    2    1    2    0    0  0.98789861331E+02  0.33101920729E+02 -0.29652626401E+03  0.32717967198E+03  0.90904007908E+02 0.  0.
          5    1    3    3  502    0 -0.76181931988E+02  0.25089009848E+01 -0.23184038272E+03  0.24408485575E+03  0.41800000000E+01 0. -1.
         -5    1    3    3    0  502 -0.22607929342E+02 -0.35610821713E+02 -0.74693735868E+03  0.74813911760E+03  0.41800000000E+01 0. -1.
        -11    1    4    4    0    0  0.20002414945E+02 -0.23896942816E+02 -0.29161456124E+02  0.42679632178E+02  0.00000000000E+00 0.  1.
         11    1    4    4    0    0  0.78787446386E+02  0.56998863545E+02 -0.26736480788E+03  0.28450003980E+03  0.00000000000E+00 0. -1.
</event>
<event>
 8    1  0.6380238E-009  0.1198211E+03  0.7561462E-02  0.1243392E+00
          1   -1    0    0  501    0  0.00000000000E+00  0.00000000000E+00  0.25893718878E+03  0.25893718878E+03  0.00000000000E+00 0. -1.
         -1   -1    0    0    0  501 -0.00000000000E+00 -0.00000000000E+00 -0.62820973538E+02  0.62820973538E+02  0.00000000000E+00 0.  1.
         25    2    1    2    0    0  0.46029305906E+02 -0.49495872184E+02  0.10888209467E+03  0.17907784640E+03  0.12508007901E+03 0.  0.
         23    2    1    2    0    0 -0.46029305906E+02  0.49495872184E+02  0.87234120570E+02  0.14268031592E+03  0.90439716910E+02 0.  0.
          5    1    3    3  502    0 -0.12032606640E+01 -0.80992607573E+02  0.84570380204E+02  0.11717880323E+03  0.41800000000E+01 0. -1.
         -5    1    3    3    0  502  0.47232566570E+02  0.31496735389E+02  0.24311714468E+02  0.61899043169E+02  0.41800000000E+01 0. -1.
        -11    1    4    4    0    0  0.19898957328E+02  0.23364675942E+02  0.56646227808E+00  0.30695235202E+02  0.00000000000E+00 0.  1.
         11    1    4    4    0    0 -0.65928263234E+02  0.26131196242E+02  0.86667658292E+02  0.11198508072E+03  0.00000000000E+00 0. -1.
</event>
<event>
 8    1  0.6380238E-009  0.2163084E+03  0.7561462E-02  0.1136666E+00
         -1   -1    0    0    0  501 -0.00000000000E+00  0.00000000000E+00  0.25971040140E+02  0.25971040140E+02  0.00000000000E+00 0.  1.
          1   -1    0    0  501    0  0.00000000000E+00 -0.00000000000E+00 -0.21904539680E+04  0.21904539680E+04  0.00000000000E+00 0. -1.
         25    2    1    2    0    0  0.67323662262E+02  0.19612409589E+03 -0.13424867551E+04  0.13641536479E+04  0.12508937172E+03 0.  0.
         23    2    1    2    0    0 -0.67323662262E+02 -0.19612409589E+03 -0.82199617273E+03  0.85227136023E+03  0.87701921285E+02 0.  0.
          5    1    3    3  502    0  0.15407128144E+02  0.45427022528E+02 -0.71872246013E+03  0.72033356237E+03  0.41800000000E+01 0. -1.
         -5    1    3    3    0  502  0.51916534117E+02  0.15069707336E+03 -0.62376429501E+03  0.64382008556E+03  0.41800000000E+01 0. -1.
        -11    1    4    4    0    0 -0.83469293943E+02 -0.11379887147E+03 -0.50200322983E+03  0.52146385199E+03  0.00000000000E+00 0.  1.
         11    1    4    4    0    0  0.16145631681E+02 -0.82325224417E+02 -0.31999294290E+03  0.33080750823E+03  0.00000000000E+00 0. -1.
</event>
<event>
 8    1  0.6380238E-009  0.8745482E+02  0.7561462E-02  0.1309135E+00
         -1   -1    0    0    0  501 -0.00000000000E+00  0.00000000000E+00  0.88806911085E+01  0.88806911085E+01  0.00000000000E+00 0.  1.
          1   -1    0    0  501    0  0.00000000000E+00 -0.00000000000E+00 -0.17108852307E+04  0.17108852307E+04  0.00000000000E+00 0. -1.
         25    2    1    2    0    0  0.42575170397E+02 -0.24235246347E+02 -0.13155300306E+04  0.13223712382E+04  0.12508572216E+03 0.  0.
         23    2    1    2    0    0 -0.42575170397E+02  0.24235246347E+02 -0.38647450893E+03  0.39739468355E+03  0.78485643051E+02 0.  0.
          5    1    3    3  502    0  0.21286344164E+02  0.22404830383E+02 -0.81397016232E+02  0.87166688155E+02  0.41800000000E+01 0.  1.
         -5    1    3    3    0  502  0.21288826233E+02 -0.46640076730E+02 -0.12341330144E+04  0.12352045501E+04  0.41800000000E+01 0.  1.
        -11    1    4    4    0    0  0.17722219235E+02  0.26574586508E+02 -0.12058526305E+03  0.12474410353E+03  0.00000000000E+00 0. -1.
         11    1    4    4    0    0 -0.60297389633E+02 -0.23393401608E+01 -0.26588924588E+03  0.27265058002E+03  0.00000000000E+00 0.  1.
</event>
<event>
 8    1  0.6380238E-009  0.1237986E+03  0.7561462E-02  0.1236959E+00
          2   -1    0    0  501    0  0.00000000000E+00  0.00000000000E+00  0.11507154250E+03  0.11507154250E+03  0.00000000000E+00 0. -1.
         -2   -1    0    0    0  501 -0.00000000000E+00 -0.00000000000E+00 -0.14891737166E+03  0.14891737166E+03  0.00000000000E+00 0.  1.
         25    2    1    2    0    0 -0.30776529552E+02 -0.64529562122E+02 -0.45543652155E+01  0.14414742757E+03  0.12508588838E+03 0.  0.
         23    2    1    2    0    0  0.30776529552E+02  0.64529562122E+02 -0.29291463944E+02  0.11984148659E+03  0.91611859978E+02 0.  0.
          5    1    3    3  502    0  0.51218115103E+01 -0.92681328474E+02  0.15390148353E+02  0.94182751431E+02  0.41800000000E+01 0.  1.
         -5    1    3    3    0  502 -0.35898341062E+02  0.28151766352E+02 -0.19944513569E+02  0.49964676134E+02  0.41800000000E+01 0.  1.
        -11    1    4    4    0    0 -0.60205570732E+01 -0.17746121695E+02 -0.22750978305E+02  0.29475056515E+02  0.00000000000E+00 0.  1.
         11    1    4    4    0    0  0.36797086625E+02  0.82275683818E+02 -0.65404856391E+01  0.90366430073E+02  0.00000000000E+00 0. -1.
</event>
<event>
 8    1  0.6380238E-009  0.1252937E+03  0.7561462E-02  0.1234611E+00
          2   -1    0    0  501    0  0.00000000000E+00  0.00000000000E+00  0.13313695499E+03  0.13313695499E+03  0.00000000000E+00 0. -1.
         -2   -1    0    0    0  501 -0.00000000000E+00 -0.00000000000E+00 -0.16305218976E+03  0.16305218976E+03  0.00000000000E+00 0.  1.
         25    2    1    2    0    0  0.79100365743E+02 -0.26472380893E+02  0.38794328627E+02  0.15527304392E+03  0.12508822257E+03 0.  0.
         23    2    1    2    0    0 -0.79100365743E+02  0.26472380893E+02 -0.68709563406E+02  0.14091610082E+03  0.90436102069E+02 0.  0.
          5    1    3    3  502    0  0.96146030730E+02 -0.49034715001E+02  0.56251511670E+02  0.12177917501E+03  0.41800000000E+01 0. -1.
         -5    1    3    3    0  502 -0.17045664987E+02  0.22562334108E+02 -0.17457183043E+02  0.33493868917E+02  0.41800000000E+01 0. -1.
        -11    1    4    4    0    0  0.49025660671E+01  0.29530861753E+02 -0.44152806385E+02  0.53343952437E+02  0.00000000000E+00 0.  1.
         11    1    4    4    0    0 -0.84002931810E+02 -0.30584808597E+01 -0.24556757020E+02  0.87572148388E+02  0.00000000000E+00 0. -1.
</event>
<event>
 8    1  0.6380238E-009  0.1389673E+03  0.7561462E-02  0.1214725E+00
         -1   -1    0    0    0  501 -0.00000000000E+00  0.00000000000E+00  0.70979728896E+02  0.70979728896E+02  0.00000000000E+00 0.  1.
          1   -1    0    0  501    0  0.00000000000E+00 -0.00000000000E+00 -0.35767902238E+03  0.35767902238E+03  0.00000000000E+00 0. -1.
         25    2    1    2    0    0  0.10818302486E+03 -0.31305964978E+02 -0.14429525554E+03  0.22170606760E+03  0.12509528100E+03 0.  0.
         23    2    1    2    0    0 -0.10818302486E+03  0.31305964978E+02 -0.14240403794E+03  0.20695268367E+03  0.99332134502E+02 0.  0.
          5    1    3    3  502    0 -0.51095772500E+01  0.83911715680E+01  0.17316535529E+02  0.20343410301E+02  0.41800000000E+01 0.  1.
         -5    1    3    3    0  502  0.11329260211E+03 -0.39697136546E+02 -0.16161179107E+03  0.20136265730E+03  0.41800000000E+01 0.  1.
        -11    1    4    4    0    0 -0.67138714821E+02 -0.29858978593E+02 -0.91797305636E+02  0.11758363386E+03  0.00000000000E+00 0. -1.
         11    1    4    4    0    0 -0.41044310042E+02  0.61164943571E+02 -0.50606732307E+02  0.89369049808E+02  0.00000000000E+00 0.  1.
</event>
<event>
 8    1  0.6380238E-009  0.8165418E+02  0.7561462E-02  0.1324422E+00
          2   -1    0    0  501    0  0.00000000000E+00  0.00000000000E+00  0.48453932318E+03  0.48453932318E+03  0.00000000000E+00 0. -1.
         -2   -1    0    0    0  501 -0.00000000000E+00 -0.00000000000E+00 -0.31575320548E+02  0.31575320548E+02  0.00000000000E+00 0.  1.
         25    2    1    2    0    0  0.26727971153E+02 -0.33815374309E+02  0.33688001669E+03  0.36193065735E+03  0.12509113121E+03 0.  0.
         23    2    1    2    0    0 -0.26727971153E+02  0.33815374309E+02  0.11608398595E+03  0.15418398638E+03  0.91865912505E+02 0.  0.
          5    1    3    3  502    0  0.12053909219E+02 -0.67354502992E+02  0.30679900830E+03  0.31436448543E+03  0.41800000000E+01 0.  1.
         -5    1    3    3    0  502  0.14674061933E+02  0.33539128683E+02  0.30081008387E+02  0.47566171929E+02  0.41800000000E+01 0.  1.
        -11    1    4    4    0    0 -0.25274648223E+01  0.33613336638E+02  0.12417273689E+03  0.12866667426E+03  0.00000000000E+00 0. -1.
         11    1    4    4    0    0 -0.24200506330E+02  0.20203767185E+00 -0.80887509437E+01  0.25517312117E+02  0.00000000000E+00 0.  1.
</event>
<event>
 8    1  0.6380238E-009  0.1220746E+03  0.7561462E-02  0.1239713E+00
          1   -1    0    0  501    0  0.00000000000E+00  0.00000000000E+00  0.15789544578E+02  0.15789544578E+02  0.00000000000E+00 0. -1.
         -1   -1    0    0    0  501 -0.00000000000E+00 -0.00000000000E+00 -0.10378025076E+04  0.10378025076E+04  0.00000000000E+00 0.  1.
         25    2    1    2    0    0 -0.65653078686E+02 -0.43568765198E+00 -0.50784134685E+03  0.52712438045E+03  0.12508701903E+03 0.  0.
         23    2    1    2    0    0  0.65653078686E+02  0.43568765198E+00 -0.51417161616E+03  0.52646767172E+03  0.92115372946E+02 0.  0.
          5    1    3    3  502    0  0.20488838933E+02  0.33104045865E+02 -0.25280867315E+03  0.25582292312E+03  0.41800000000E+01 0.  1.
         -5    1    3    3    0  502 -0.86141917619E+02 -0.33539733517E+02 -0.25503267370E+03  0.27130145733E+03  0.41800000000E+01 0.  1.
        -11    1    4    4    0    0  0.86075433015E+02  0.15002769840E+02 -0.37412241047E+03  0.38418959029E+03  0.00000000000E+00 0.  1.
         11    1    4    4    0    0 -0.20422354329E+02 -0.14567082188E+02 -0.14004920569E+03  0.14227808143E+03  0.00000000000E+00 0. -1.
</event>
<event>
 8    1  0.6380238E-009  0.1295359E+03  0.7561462E-02  0.1228146E+00
         -2   -1    0    0    0  501 -0.00000000000E+00  0.00000000000E+00  0.18265061258E+02  0.18265061258E+02  0.00000000000E+00 0.  1.
          2   -1    0    0  501    0  0.00000000000E+00 -0.00000000000E+00 -0.11789980938E+04  0.11789980938E+04  0.00000000000E+00 0. -1.
         25    2    1    2    0    0  0.42975310548E+02  0.88789333064E+02 -0.61850606897E+03  0.63869409712E+03  0.12509983756E+03 0.  0.
         23    2    1    2    0    0 -0.42975310548E+02 -0.88789333064E+02 -0.54222696357E+03  0.55856905794E+03  0.90878432436E+02 0.  0.
          5    1    3    3  502    0 -0.15276037961E+02  0.56296227912E+02 -0.49342095259E+03  0.49687456311E+03  0.41800000000E+01 0.  1.
         -5    1    3    3    0  502  0.58251348509E+02  0.32493105152E+02 -0.12508511638E+03  0.14181953401E+03  0.41800000000E+01 0.  1.
        -11    1    4    4    0    0  0.27246664360E+02 -0.12211731501E+02 -0.13904576759E+03  0.14221544427E+03  0.00000000000E+00 0. -1.
         11    1    4    4    0    0 -0.70221974908E+02 -0.76577601563E+02 -0.40318119598E+03  0.41635361367E+03  0.00000000000E+00 0.  1.
</event>
<event>
 8    1  0.6380238E-009  0.8048493E+02  0.7561462E-02  0.1327681E+00
         -1   -1    0    0    0  501 -0.00000000000E+00  0.00000000000E+00  0.37254919582E+02  0.37254919582E+02  0.00000000000E+00 0.  1.
          1   -1    0    0  501    0  0.00000000000E+00 -0.00000000000E+00 -0.35959106093E+03  0.35959106093E+03  0.00000000000E+00 0. -1.
         25    2    1    2    0    0 -0.10637466384E+02  0.49997124623E+01 -0.22721086855E+03  0.25963429417E+03  0.12508810935E+03 0.  0.
         23    2    1    2    0    0  0.10637466384E+02 -0.49997124623E+01 -0.95125272797E+02  0.13721168635E+03  0.98183891401E+02 0.  0.
          5    1    3    3  502    0 -0.19510327494E+02 -0.49530760257E+02 -0.17693862270E+03  0.18482071770E+03  0.41800000000E+01 0. -1.
         -5    1    3    3    0  502  0.88728611105E+01  0.54530472720E+02 -0.50272245857E+02  0.74813576460E+02  0.41800000000E+01 0. -1.
        -11    1    4    4    0    0 -0.16518491042E+02  0.11739406384E+02 -0.10248816007E+03  0.10447247084E+03  0.00000000000E+00 0. -1.
         11    1    4    4    0    0  0.27155957425E+02 -0.16739118846E+02  0.73628872724E+01  0.32739215513E+02  0.00000000000E+00 0.  1.
</event>
<event>
 8    1  0.6380238E-009  0.1506227E+03  0.7561462E-02  0.1199710E+00
          2   -1    0    0  501    0  0.00000000000E+00  0.00000000000E+00  0.94297708841E+03  0.94297708841E+03  0.00000000000E+00 0. -1.
         -2   -1    0    0    0  501 -0.00000000000E+00 -0.00000000000E+00 -0.32742064873E+02  0.32742064873E+02  0.00000000000E+00 0.  1.
         25    2    1    2    0    0  0.82136450128E+02 -0.10383267346E+03  0.58508411072E+03  0.61277848875E+03  0.12508572716E+03 0.  0.
         23    2    1    2    0    0 -0.82136450128E+02  0.10383267346E+03  0.32515091282E+03  0.36294066454E+03  0.92060791597E+02 0.  0.
          5    1    3    3  502    0 -0.48663019162E+01 -0.27889725377E+02  0.17488898288E+02  0.33538807958E+02  0.41800000000E+01 0. -1.
         -5    1    3    3    0  502  0.87002752044E+02 -0.75942948086E+02  0.56759521243E+03  0.57923968079E+03  0.41800000000E+01 0. -1.
        -11    1    4    4    0    0 -0.69869779988E+02  0.11873380511E+03  0.25103657632E+03  0.28635443996E+03  0.00000000000E+00 0.  1.
         11    1    4    4    0    0 -0.12266670140E+02 -0.14901131651E+02  0.74114336495E+02  0.76586224577E+02  0.00000000000E+00 0. -1.
</event>
<event>
 8    1  0.6380238E-009  0.1101966E+03  0.7561462E-02  0.1260206E+00
         -1   -1    0    0    0  501 -0.00000000000E+00  0.00000000000E+00  0.27545826985E+02  0.27545826985E+02  0.00000000000E+00 0.  1.
          1   -1    0    0  501    0  0.00000000000E+00 -0.00000000000E+00 -0.48233389592E+03  0.48233389592E+03  0.00000000000E+00 0. -1.
         25    2    1    2    0    0 -0.22308406466E+02 -0.25380055165E+02 -0.20899807170E+03  0.24590482138E+03  0.12508866858E+03 0.  0.
         23    2    1    2    0    0  0.22308406466E+02  0.25380055165E+02 -0.24578999723E+03  0.26397490152E+03  0.90156606486E+02 0.  0.
          5    1    3    3  502    0 -0.43629240668E+02 -0.67099928569E+02 -0.15342479913E+03  0.17309694521E+03  0.41800000000E+01 0. -1.
         -5    1    3    3    0  502  0.21320834202E+02  0.41719873405E+02 -0.55573272574E+02  0.72807876171E+02  0.41800000000E+01 0. -1.
        -11    1    4    4    0    0  0.15658202200E+02  0.57918511499E+02 -0.12422568252E+03  0.13795562138E+03  0.00000000000E+00 0.  1.
         11    1    4    4    0    0  0.66502042651E+01 -0.32538456334E+02 -0.12156431471E+03  0.12601928014E+03  0.00000000000E+00 0. -1.
</event>
<event>
 8    1  0.6380238E-009  0.1442380E+03  0.7561462E-02  0.1207738E+00
         -1   -1    0    0    0  501 -0.00000000000E+00  0.00000000000E+00  0.80812852869E+02  0.80812852869E+02  0.00000000000E+00 0.  1.
          1   -1    0    0  501    0  0.00000000000E+00 -0.00000000000E+00 -0.30132664415E+03  0.30132664415E+03  0.00000000000E+00 0. -1.
         25    2    1    2    0    0  0.90355903318E+02  0.48305425688E+02 -0.66650182563E+02  0.17489262811E+03  0.12509029186E+03 0.  0.
         23    2    1    2    0    0 -0.90355903318E+02 -0.48305425688E+02 -0.15386360872E+03  0.20724686891E+03  0.93699792787E+02 0.  0.
          5    1    3    3  502    0  0.71544450363E+02  0.84851476015E+02 -0.73259609510E+02  0.13305196032E+03  0.41800000000E+01 0.  1.
         -5    1    3    3    0  502  0.18811452955E+02 -0.36546050328E+02  0.66094269463E+01  0.41840667793E+02  0.41800000000E+01 0.  1.
        -11    1    4    4    0    0  0.11420178798E+02 -0.30766417328E+02 -0.56342923222E+02  0.65203664898E+02  0.00000000000E+00 0. -1.
         11    1    4    4    0    0 -0.10177608212E+03 -0.17539008360E+02 -0.97520685500E+02  0.14204320401E+03  0.00000000000E+00 0.  1.
</event>
<event>
 8    1  0.6380238E-009  0.1798677E+03  0.7561462E-02  0.1167931E+00
          1   -1    0    0  501    0  0.00000000000E+00  0.00000000000E+00  0.30505784855E+03  0.30505784855E+03  0.00000000000E+00 0. -1.
         -1   -1    0    0    0  501 -0.00000000000E+00 -0.00000000000E+00 -0.10953474140E+03  0.10953474140E+03  0.00000000000E+00 0.  1.
         25    2    1    2    0    0 -0.12931424381E+03  0.68948022312E+02  0.10814359549E+03  0.22094874249E+03  0.12508919271E+03 0.  0.
         23    2    1    2    0    0  0.12931424381E+03 -0.68948022312E+02  0.87379511656E+02  0.19364384746E+03  0.91579239831E+02 0.  0.
          5    1    3    3  502    0 -0.14974238927E+02 -0.31363014604E+02  0.13140455043E+01  0.35029496600E+02  0.41800000000E+01 0.  1.
         -5    1    3    3    0  502 -0.11434000488E+03  0.10031103692E+03  0.10682954998E+03  0.18591924589E+03  0.41800000000E+01 0.  1.
        -11    1    4    4    0    0  0.95771438378E+02 -0.91254097101E+02  0.62596689230E+02  0.14634829739E+03  0.00000000000E+00 0. -1.
         11    1    4    4    0    0  0.33542805430E+02  0.22306074788E+02  0.24782822427E+02  0.47295550066E+02  0.00000000000E+00 0.  1.
</event>
<event>
 8    1  0.6380238E-009  0.8701521E+02  0.7561462E-02  0.1310245E+00
          2   -1    0    0  501    0  0.00000000000E+00  0.00000000000E+00  0.24582008360E+03  0.24582008360E+03  0.00000000000E+00 0. -1.
         -2   -1    0    0    0  501 -0.00000000000E+00 -0.00000000000E+00 -0.60556758841E+02  0.60556758841E+02  0.00000000000E+00 0.  1.
         25    2    1    2    0    0 -0.31219082109E+02 -0.48486161224E+02  0.11620511624E+03  0.18021388650E+03  0.12509147425E+03 0.  0.
         23    2    1    2    0    0  0.31219082109E+02  0.48486161224E+02  0.69058208520E+02  0.12616295594E+03  0.88444990643E+02 0.  0.
          5    1    3    3  502    0 -0.12690985099E+02  0.57249810177E+01  0.12164883650E+03  0.12251427808E+03  0.41800000000E+01 0.  1.
         -5    1    3    3    0  502 -0.18528097010E+02 -0.54211142241E+02 -0.54437202620E+01  0.57699608423E+02  0.41800000000E+01 0.  1.
        -11    1    4    4    0    0 -0.15940582724E+02 -0.15719373578E+02  0.28315414522E+01  0.22565870474E+02  0.00000000000E+00 0. -1.
         11    1    4    4    0    0  0.47159664833E+02  0.64205534801E+02  0.66226667068E+02  0.10359708547E+03  0.00000000000E+00 0.  1.
</event>
<event>
 8    1  0.6380238E-009  0.8625050E+02  0.7561462E-02  0.1312194E+00
         -2   -1    0    0    0  501 -0.00000000000E+00  0.00000000000E+00  0.43628341820E+02  0.43628341820E+02  0.00000000000E+00 0.  1.
          2   -1    0    0  501    0  0.00000000000E+00 -0.00000000000E+00 -0.27550671219E+03  0.27550671219E+03  0.00000000000E+00 0. -1.
         25    2    1    2    0    0  0.60697340827E+01 -0.19409908155E+02 -0.11413976288E+03  0.17055431552E+03  0.12508917966E+03 0.  0.
         23    2    1    2    0    0 -0.60697340827E+01  0.19409908155E+02 -0.11773860749E+03  0.14858073849E+03  0.88319136936E+02 0.  0.
          5    1    3    3  502    0  0.55477646517E+02 -0.16934374970E+00 -0.14319149636E+02  0.57448310564E+02  0.41800000000E+01 0.  1.
         -5    1    3    3    0  502 -0.49407912434E+02 -0.19240564405E+02 -0.99820613244E+02  0.11310600496E+03  0.41800000000E+01 0.  1.
        -11    1    4    4    0    0  0.22030167389E+02 -0.89287564350E+01  0.51304930531E+00  0.23776336687E+02  0.00000000000E+00 0.  1.
         11    1    4    4    0    0 -0.28099901472E+02  0.28338664590E+02 -0.11825165680E+03  0.12480440180E+03  0.00000000000E+00 0. -1.
</event>
<event>
 8    1  0.6380238E-009  0.8874919E+02  0.7561462E-02  0.1305909E+00
          1   -1    0    0  501    0  0.00000000000E+00  0.00000000000E+00  0.63231416531E+03  0.63231416531E+03  0.00000000000E+00 0. -1.
         -1   -1    0    0    0  501 -0.00000000000E+00 -0.00000000000E+00 -0.29723815692E+02  0.29723815692E+02  0.00000000000E+00 0.  1.
         25    2    1    2    0    0  0.12912055559E+02  0.74955447417E+02  0.23115584441E+03  0.27361396098E+03  0.12508611018E+03 0.  0.
         23    2    1    2    0    0 -0.12912055559E+02 -0.74955447417E+02  0.37143450521E+03  0.38842402003E+03  0.84407270995E+02 0.  0.
          5    1    3    3  502    0  0.28403423796E+02  0.32317325609E+02  0.22322438845E+03  0.22737142304E+03  0.41800000000E+01 0.  1.
         -5    1    3    3    0  502 -0.15491368237E+02  0.42638121807E+02  0.79314559621E+01  0.46242537936E+02  0.41800000000E+01 0.  1.
        -11    1    4    4    0    0  0.12367940819E+02 -0.55369206620E+02  0.33573746205E+03  0.34049722235E+03  0.00000000000E+00 0. -1.
         11    1    4    4    0    0 -0.25279996378E+02 -0.19586240797E+02  0.35697043156E+02  0.47926797676E+02  0.00000000000E+00 0.  1.
</event>
<event>
 8    1  0.6380238E-009  0.9649194E+02  0.7561462E-02  0.1287851E+00
         -2   -1    0    0    0  501 -0.00000000000E+00  0.00000000000E+00  0.99048802200E+02  0.99048802200E+02  0.00000000000E+00 0.  1.
          2   -1    0    0  501    0  0.00000000000E+00 -0.00000000000E+00 -0.19755020248E+03  0.19755020248E+03  0.00000000000E+00 0. -1.
         25    2    1    2    0    0 -0.69355989665E+02 -0.48153067630E+02 -0.26934285205E+02  0.15330434800E+03  0.12509115145E+03 0.  0.
         23    2    1    2    0    0  0.69355989665E+02  0.48153067630E+02 -0.71567115077E+02  0.14329465668E+03  0.91008436137E+02 0.  0.
          5    1    3    3  502    0 -0.36308389602E+02 -0.62400397744E+02  0.35928040463E+02  0.80749026531E+02  0.41800000000E+01 0. -1.
         -5    1    3    3    0  502 -0.33047600063E+02  0.14247330114E+02 -0.62862325669E+02  0.72555321471E+02  0.41800000000E+01 0. -1.
        -11    1    4    4    0    0  0.53115362432E+02  0.36404198930E+02 -0.93534108890E+02  0.11355675652E+03  0.00000000000E+00 0. -1.
         11    1    4    4    0    0  0.16240627233E+02  0.11748868700E+02  0.21966993813E+02  0.29737900158E+02  0.00000000000E+00 0.  1.
</event>
<event>
 8    1  0.6380238E-009  0.1513255E+03  0.7561462E-02  0.1198854E+00
          2   -1    0    0  501    0  0.00000000000E+00  0.00000000000E+00  0.39175846817E+03  0.39175846817E+03  0.00000000000E+00 0. -1.
         -2   -1    0    0    0  501 -0.00000000000E+00 -0.00000000000E+00 -0.61475072481E+02  0.61475072481E+02  0.00000000000E+00 0.  1.
         25    2    1    2    0    0 -0.48998608823E+02 -0.93791039681E+02  0.20321796331E+03  0.26104007028E+03  0.12508698928E+03 0.  0.
         23    2    1    2    0    0  0.48998608823E+02  0.93791039681E+02  0.12706543238E+03  0.19219347038E+03  0.97954495342E+02 0.  0.
          5    1    3    3  502    0 -0.80914033262E+02 -0.21678386569E+02  0.11902457535E+03  0.14560685135E+03  0.41800000000E+01 0. -1.
         -5    1    3    3    0  502  0.31915424438E+02 -0.72112653112E+02  0.84193387960E+02  0.11543321893E+03  0.41800000000E+01 0. -1.
        -11    1    4    4    0    0  0.30902438693E+02 -0.11500775516E+02  0.52184868616E+02  0.61729158969E+02  0.00000000000E+00 0. -1.
         11    1    4    4    0    0  0.18096170131E+02  0.10529181520E+03  0.74880563765E+02  0.13046431141E+03  0.00000000000E+00 0.  1.
</event>
<event>
 8    1  0.6380238E-009  0.8962184E+02  0.7561462E-02  0.1303770E+00
         -2   -1    0    0    0  501 -0.00000000000E+00  0.00000000000E+00  0.13313182982E+02  0.13313182982E+02  0.00000000000E+00 0.  1.
          2   -1    0    0  501    0  0.00000000000E+00 -0.00000000000E+00 -0.13252958922E+04  0.13252958922E+04  0.00000000000E+00 0. -1.
         25    2    1    2    0    0  0.34513168089E+02  0.32109135206E+02 -0.10442610914E+04  0.10527827061E+04  0.12509214203E+03 0.  0.
         23    2    1    2    0    0 -0.34513168089E+02 -0.32109135206E+02 -0.26772161777E+03  0.28582636900E+03  0.88315872056E+02 0.  0.
          5    1    3    3  502    0  0.60584077296E+02 -0.81046709748E+01 -0.86536832606E+03  0.86753439601E+03  0.41800000000E+01 0. -1.
         -5    1    3    3    0  502 -0.26070909207E+02  0.40213806181E+02 -0.17889276535E+03  0.18524831014E+03  0.41800000000E+01 0. -1.
        -11    1    4    4    0    0  0.76194093749E+01  0.84565497541E+01  0.40984833510E+00  0.11390197919E+02  0.00000000000E+00 0.  1.
         11    1    4    4    0    0 -0.42132577464E+02 -0.40565684960E+02 -0.26813146611E+03  0.27443617108E+03  0.00000000000E+00 0. -1.
</event>
<event>
 8    1  0.6380238E-009  0.1356752E+03  0.7561462E-02  0.1219270E+00
         -2   -1    0    0    0  501 -0.00000000000E+00  0.00000000000E+00  0.22992666308E+02  0.22992666308E+02  0.00000000000E+00 0.  1.
          2   -1    0    0  501    0  0.00000000000E+00 -0.00000000000E+00 -0.10226345997E+04  0.10226345997E+04  0.00000000000E+00 0. -1.
         25    2    1    2    0    0  0.85672964857E+02  0.33160516420E+02 -0.72674823253E+03  0.74313530402E+03  0.12509040667E+03 0.  0.
         23    2    1    2    0    0 -0.85672964857E+02 -0.33160516420E+02 -0.27289370088E+03  0.30249196200E+03  0.92687314886E+02 0.  0.
          5    1    3    3  502    0  0.56447622575E+02  0.74826255130E+02 -0.32880571753E+03  0.34192978056E+03  0.41800000000E+01 0.  1.
         -5    1    3    3    0  502  0.29225342282E+02 -0.41665738711E+02 -0.39794251500E+03  0.40120552346E+03  0.41800000000E+01 0.  1.
        -11    1    4    4    0    0 -0.16824557967E+02 -0.52352085060E+02 -0.82710072466E+02  0.99321511509E+02  0.00000000000E+00 0.  1.
         11    1    4    4    0    0 -0.68848406890E+02  0.19191568641E+02 -0.19018362841E+03  0.20317045050E+03  0.00000000000E+00 0. -1.
</event>
<event>
 8    1  0.6380238E-009  0.1621596E+03  0.7561462E-02  0.1186280E+00
         -1   -1    0    0    0  501 -0.00000000000E+00  0.00000000000E+00  0.64464685319E+02  0.64464685319E+02  0.00000000000E+00 0.  1.
          1   -1    0    0  501    0  0.00000000000E+00 -0.00000000000E+00 -0.51952393765E+03  0.51952393765E+03  0.00000000000E+00 0. -1.
         25    2    1    2    0    0 -0.11941958708E+03 -0.80678108006E+02 -0.19250082401E+03  0.27106099738E+03  0.12508997629E+03 0.  0.
         23    2    1    2    0    0  0.11941958708E+03  0.80678108006E+02 -0.26255842832E+03  0.31292762558E+03  0.90646432263E+02 0.  0.
          5    1    3    3  502    0 -0.34953019294E+02 -0.62007927186E+02 -0.14007595667E+02  0.72666235130E+02  0.41800000000E+01 0. -1.
         -5    1    3    3    0  502 -0.84466567785E+02 -0.18670180821E+02 -0.17849322834E+03  0.19839476225E+03  0.41800000000E+01 0. -1.
        -11    1    4    4    0    0  0.92483837966E+02  0.12778612928E+02 -0.17942020193E+03  0.20225766263E+03  0.00000000000E+00 0. -1.
         11    1    4    4    0    0  0.26935749113E+02  0.67899495078E+02 -0.83138226389E+02  0.11066996295E+03  0.00000000000E+00 0.  1.
</event>
<event>
 8    1  0.6380238E-009  0.8805234E+02  0.7561462E-02  0.1307638E+00
          1   -1    0    0  501    0  0.00000000000E+00  0.00000000000E+00  0.38471334065E+03  0.38471334065E+03  0.00000000000E+00 0. -1.
         -1   -1    0    0    0  501 -0.00000000000E+00 -0.00000000000E+00 -0.37985096011E+02  0.37985096011E+02  0.00000000000E+00 0.  1.
         25    2    1    2    0    0 -0.51622020392E+02  0.12225692607E+02  0.17949761908E+03  0.22511885096E+03  0.12507917993E+03 0.  0.
         23    2    1    2    0    0  0.51622020392E+02 -0.12225692607E+02  0.16723062556E+03  0.19757958570E+03  0.90869742012E+02 0.  0.
          5    1    3    3  502    0  0.81637129847E+01  0.17703080709E+02 -0.12753807840E+02  0.23668064786E+02  0.41800000000E+01 0. -1.
         -5    1    3    3    0  502 -0.59785733376E+02 -0.54773881023E+01  0.19225142692E+03  0.20145078617E+03  0.41800000000E+01 0. -1.
        -11    1    4    4    0    0  0.45223824460E+02 -0.44283849765E+02  0.67076306387E+02  0.92225183802E+02  0.00000000000E+00 0. -1.
         11    1    4    4    0    0  0.63981959321E+01  0.32058157158E+02  0.10015431917E+03  0.10535440190E+03  0.00000000000E+00 0.  1.
</event>
<event>
 8    1  0.6380238E-009  0.1253639E+03  0.7561462E-02  0.1234502E+00
          2   -1    0    0  501    0  0.00000000000E+00  0.00000000000E+00  0.36592320973E+02  0.36592320973E+02  0.00000000000E+00 0. -1.
         -2   -1    0    0    0  501 -0.00000000000E+00 -0.00000000000E+00 -0.51569214179E+03  0.51569214179E+03  0.00000000000E+00 0.  1.
         25    2    1    2    0    0 -0.53121238285E+02  0.48003488793E+02 -0.17525775683E+03  0.22691200717E+03  0.12509027450E+03 0.  0.
         23    2    1    2    0    0  0.53121238285E+02 -0.48003488793E+02 -0.30384206398E+03  0.32537245559E+03  0.91766192679E+02 0.  0.
          5    1    3    3  502    0 -0.85911678637E+02  0.25437029693E+01 -0.12337235789E+03  0.15041774510E+03  0.41800000000E+01 0.  1.
         -5    1    3    3    0  502  0.32790440352E+02  0.45459785824E+02 -0.51885398943E+02  0.76494262067E+02  0.41800000000E+01 0.  1.
        -11    1    4    4    0    0 -0.11112288485E+02  0.14885088380E+02 -0.11179436981E+03  0.11332709266E+03  0.00000000000E+00 0.  1.
         11    1    4    4    0    0  0.64233526769E+02 -0.62888577172E+02 -0.19204769417E+03  0.21204536292E+03  0.00000000000E+00 0. -1.
</event>
<event>
 8    1  0.6380238E-009  0.3428128E+03  0.7561462E-02  0.1065604E+00
          2   -1    0    0  501    0  0.00000000000E+00  0.00000000000E+00  0.76168618183E+03  0.76168618183E+03  0.00000000000E+00 0.  1.
         -2   -1    0    0    0  501 -0.00000000000E+00 -0.00000000000E+00 -0.19936473217E+03  0.19936473217E+03  0.00000000000E+00 0. -1.
         25    2    1    2    0    0  0.19296454196E+03  0.26393030128E+03  0.50856305661E+03  0.61739679752E+03  0.12509158505E+03 0.  0.
         23    2    1    2    0    0 -0.19296454196E+03 -0.26393030128E+03  0.53758393053E+02  0.34365411649E+03  0.91179320944E+02 0.  0.
          5    1    3    3  502    0 -0.29968367653E+01  0.71092875971E+02  0.14492469219E+03  0.16150485086E+03  0.41800000000E+01 0. -1.
         -5    1    3    3    0  502  0.19596137872E+03  0.19283742531E+03  0.36363836442E+03  0.45589194666E+03  0.41800000000E+01 0. -1.
        -11    1    4    4    0    0 -0.18535417480E+03 -0.19134297126E+03  0.40043772859E+02  0.26939154870E+03  0.00000000000E+00 0.  1.
         11    1    4    4    0    0 -0.76103671635E+01 -0.72587330018E+02  0.13714620194E+02  0.74262567789E+02  0.00000000000E+00 0. -1.
</event>
<event>
 8    1  0.6380238E-009  0.1224234E+03  0.7561462E-02  0.1239152E+00
          2   -1    0    0  501    0  0.00000000000E+00  0.00000000000E+00  0.99312425371E+03  0.99312425371E+03  0.00000000000E+00 0. -1.
         -2   -1    0    0    0  501 -0.00000000000E+00 -0.00000000000E+00 -0.15606371837E+02  0.15606371837E+02  0.00000000000E+00 0.  1.
         25    2    1    2    0    0  0.14890083015E+02 -0.53929814892E+02  0.57796826869E+03  0.59398919214E+03  0.12508277762E+03 0.  0.
         23    2    1    2    0    0 -0.14890083015E+02  0.53929814892E+02  0.39954961318E+03  0.41474143341E+03  0.96127122530E+02 0.  0.
          5    1    3    3  502    0  0.52692792280E+02 -0.76134658061E+02  0.37300292100E+03  0.38434576619E+03  0.41800000000E+01 0.  1.
         -5    1    3    3    0  502 -0.37802709265E+02  0.22204843169E+02  0.20496534769E+03  0.20964342595E+03  0.41800000000E+01 0.  1.
        -11    1    4    4    0    0  0.37958750262E+02  0.96298321810E+01  0.10088988933E+03  0.10822370424E+03  0.00000000000E+00 0. -1.
         11    1    4    4    0    0 -0.52848833277E+02  0.44299982711E+02  0.29865972385E+03  0.30651772917E+03  0.00000000000E+00 0.  1.
</event>
<event>
 8    1  0.6380238E-009  0.9694775E+02  0.7561462E-02  0.1286849E+00
         -2   -1    0    0    0  501 -0.00000000000E+00  0.00000000000E+00  0.15871592034E+02  0.15871592034E+02  0.00000000000E+00 0.  1.
          2   -1    0    0  501    0  0.00000000000E+00 -0.00000000000E+00 -0.91499997074E+03  0.91499997074E+03  0.00000000000E+00 0. -1.
         25    2    1    2    0    0 -0.11292951724E+02 -0.51485532362E+02 -0.43532971352E+03  0.45600087266E+03  0.12508615266E+03 0.  0.
         23    2    1    2    0    0  0.11292951724E+02  0.51485532362E+02 -0.46379866519E+03  0.47487069012E+03  0.87262132133E+02 0.  0.
          5    1    3    3  502    0 -0.11336064428E+02  0.19772874073E+02 -0.10894923323E+02  0.25605559162E+02  0.41800000000E+01 0. -1.
         -5    1    3    3    0  502  0.43112703160E-01 -0.71258406435E+02 -0.42443479020E+03  0.43039531349E+03  0.41800000000E+01 0. -1.
        -11    1    4    4    0    0  0.28127736645E+02  0.69324923358E+02 -0.38974226976E+03  0.39685784786E+03  0.00000000000E+00 0.  1.
         11    1    4    4    0    0 -0.16834784921E+02 -0.17839390995E+02 -0.74056395424E+02  0.78012842260E+02  0.00000000000E+00 0. -1.
</event>
<event>
 8    1  0.6380238E-009  0.1371897E+03  0.7561462E-02  0.1217161E+00
         -2   -1    0    0    0  501 -0.00000000000E+00  0.00000000000E+00  0.97953161758E+02  0.97953161758E+02  0.00000000000E+00 0. -1.
          2   -1    0    0  501    0  0.00000000000E+00 -0.00000000000E+00 -0.24253020048E+03  0.24253020048E+03  0.00000000000E+00 0.  1.
         25    2    1    2    0    0  0.64646359637E+02  0.80075502372E+02 -0.11966297453E+03  0.20138986195E+03  0.12508961239E+03 0.  0.
         23    2    1    2    0    0 -0.64646359637E+02 -0.80075502372E+02 -0.24914064191E+02  0.13909350029E+03  0.90194530511E+02 0.  0.
          5    1    3    3  502    0 -0.16524797701E+02  0.46628890894E+02  0.38515273594E+01  0.49795874006E+02  0.41800000000E+01 0. -1.
         -5    1    3    3    0  502  0.81171157338E+02  0.33446611479E+02 -0.12351450189E+03  0.15159398794E+03  0.41800000000E+01 0. -1.
        -11    1    4    4    0    0 -0.59753554545E+00 -0.72322329739E+02 -0.13616694198E+02  0.73595453586E+02  0.00000000000E+00 0.  1.
         11    1    4    4    0    0 -0.64048824091E+02 -0.77531726329E+01 -0.11297369993E+02  0.65498046705E+02  0.00000000000E+00 0. -1.
</event>
<event>
 8    1  0.6380238E-009  0.2118650E+03  0.7561462E-02  0.1140098E+00
          2   -1    0    0  501    0  0.00000000000E+00  0.00000000000E+00  0.87018429111E+03  0.87018429111E+03  0.00000000000E+00 0. -1.
         -2   -1    0    0    0  501 -0.00000000000E+00 -0.00000000000E+00 -0.68932519163E+02  0.68932519163E+02  0.00000000000E+00 0.  1.
         25    2    1    2    0    0  0.18922825970E+03 -0.61312301355E+02  0.23951731306E+03  0.33553378142E+03  0.12509133722E+03 0.  0.
         23    2    1    2    0    0 -0.18922825970E+03  0.61312301355E+02  0.56173445889E+03  0.60358302886E+03  0.95918391676E+02 0.  0.
          5    1    3    3  502    0  0.13758994490E+03 -0.67856704903E+02  0.91734693033E+02  0.17879667682E+03  0.41800000000E+01 0.  1.
         -5    1    3    3    0  502  0.51638314802E+02  0.65444035480E+01  0.14778262003E+03  0.15673710459E+03  0.41800000000E+01 0.  1.
        -11    1    4    4    0    0 -0.70620216927E+02  0.69587971130E+02  0.20842616360E+03  0.23080547316E+03  0.00000000000E+00 0.  1.
         11    1    4    4    0    0 -0.11860804277E+03 -0.82756697745E+01  0.35330829529E+03  0.37277755571E+03  0.00000000000E+00 0. -1.
</event>
<event>
 8    1  0.6380238E-009  0.1016721E+03  0.7561462E-02  0.1276818E+00
          1   -1    0    0  501    0  0.00000000000E+00  0.00000000000E+00  0.39965015931E+03  0.39965015931E+03  0.00000000000E+00 0. -1.
         -1   -1    0    0    0  501 -0.00000000000E+00 -0.00000000000E+00 -0.48992855830E+02  0.48992855830E+02  0.00000000000E+00 0.  1.
         25    2    1    2    0    0 -0.74408318280E+02  0.40516908124E+02  0.17422913779E+03  0.23061043575E+03  0.12508862037E+03 0.  0.
         23    2    1    2    0    0  0.74408318280E+02 -0.40516908124E+02  0.17642816569E+03  0.21803257940E+03  0.96088971045E+02 0.  0.
          5    1    3    3  502    0 -0.46043922735E+02 -0.42430195214E+01  0.17118399761E+03  0.17736820311E+03  0.41800000000E+01 0. -1.
         -5    1    3    3    0  502 -0.28364395545E+02  0.44759927646E+02  0.30451401819E+01  0.53242232638E+02  0.41800000000E+01 0. -1.
        -11    1    4    4    0    0  0.10613719237E+02  0.15552571311E+02 -0.34211559339E+01  0.19137340943E+02  0.00000000000E+00 0.  1.
         11    1    4    4    0    0  0.63794599043E+02 -0.56069479435E+02  0.17984932162E+03  0.19889523845E+03  0.00000000000E+00 0. -1.
</event>
<event>
 8    1  0.6380238E-009  0.1205836E+03  0.7561462E-02  0.1242137E+00
         -1   -1    0    0    0  501 -0.00000000000E+00  0.00000000000E+00  0.46888604858E+02  0.46888604858E+02  0.00000000000E+00 0.  1.
          1   -1    0    0  501    0  0.00000000000E+00 -0.00000000000E+00 -0.58225307351E+03  0.58225307351E+03  0.00000000000E+00 0. -1.
         25    2    1    2    0    0 -0.24274904474E+01 -0.57806687491E+02 -0.49911294704E+03  0.51779133082E+03  0.12508646025E+03 0.  0.
         23    2    1    2    0    0  0.24274904474E+01  0.57806687491E+02 -0.36251521605E+02  0.11135034754E+03  0.87961475947E+02 0.  0.
          5    1    3    3  502    0 -0.62120979597E+02 -0.20201417225E+02 -0.19986191384E+03  0.21030779911E+03  0.41800000000E+01 0.  1.
         -5    1    3    3    0  502  0.59693489150E+02 -0.37605270266E+02 -0.29925103320E+03  0.30748353171E+03  0.41800000000E+01 0.  1.
        -11    1    4    4    0    0  0.20219602589E+01  0.81406779916E+02 -0.24862898242E+02  0.85142914260E+02  0.00000000000E+00 0. -1.
         11    1    4    4    0    0  0.40553018847E+00 -0.23600092425E+02 -0.11388623363E+02  0.26207433284E+02  0.00000000000E+00 0.  1.
</event>
<event>
 8    1  0.6380238E-009  0.6819709E+02  0.7561462E-02  0.1366333E+00
          1   -1    0    0  501    0  0.00000000000E+00  0.00000000000E+00  0.10411033614E+03  0.10411033614E+03  0.00000000000E+00 0. -1.
         -1   -1    0    0    0  501 -0.00000000000E+00 -0.00000000000E+00 -0.11136928503E+03  0.11136928503E+03  0.00000000000E+00 0.  1.
         25    2    1    2    0    0  0.20096363324E+02 -0.43271228734E+01 -0.16004008521E+02  0.12778249591E+03  0.12509856179E+03 0.  0.
         23    2    1    2    0    0 -0.20096363324E+02  0.43271228734E+01  0.87450596245E+01  0.87697125256E+02  0.84804020536E+02 0.  0.
          5    1    3    3  502    0  0.24343790057E+01 -0.27379288234E+02 -0.64986992434E+02  0.70684745249E+02  0.41800000000E+01 0.  1.
         -5    1    3    3    0  502  0.17661984319E+02  0.23052165360E+02  0.48982983913E+02  0.57097750664E+02  0.41800000000E+01 0.  1.
        -11    1    4    4    0    0  0.12017371048E+02  0.33670166920E+02  0.22297785699E+02  0.42134173713E+02  0.00000000000E+00 0. -1.
         11    1    4    4    0    0 -0.32113734373E+02 -0.29343044047E+02 -0.13552726075E+02  0.45562951544E+02  0.00000000000E+00 0.  1.
</event>
<event>
 8    1  0.6380238E-009  0.1709097E+03  0.7561462E-02  0.1176902E+00
         -1   -1    0    0    0  501 -0.00000000000E+00  0.00000000000E+00  0.59165112488E+02  0.59165112488E+02  0.00000000000E+00 0.  1.
          1   -1    0    0  501    0  0.00000000000E+00 -0.00000000000E+00 -0.69026983137E+03  0.69026983137E+03  0.00000000000E+00 0. -1.
         25    2    1    2    0    0  0.10820761684E+03 -0.10837023823E+03 -0.19367133302E+03  0.27678460460E+03  0.12509250670E+03 0.  0.
         23    2    1    2    0    0 -0.10820761684E+03  0.10837023823E+03 -0.43743338586E+03  0.47265033926E+03  0.92722053784E+02 0.  0.
          5    1    3    3  502    0  0.94072291782E+02 -0.38507982955E+02 -0.17590737036E+03  0.20320761841E+03  0.41800000000E+01 0.  1.
         -5    1    3    3    0  502  0.14135325057E+02 -0.69862255279E+02 -0.17763962657E+02  0.73576986188E+02  0.41800000000E+01 0.  1.
        -11    1    4    4    0    0 -0.54790060065E+02  0.85268799419E+01 -0.22712029314E+03  0.23379111599E+03  0.00000000000E+00 0. -1.
         11    1    4    4    0    0 -0.53417556774E+02  0.99843358292E+02 -0.21031309272E+03  0.23885922326E+03  0.00000000000E+00 0.  1.
</event>
<event>
 8    1  0.6380238E-009  0.9782713E+02  0.7561462E-02  0.1284933E+00
          3   -1    0    0  501    0  0.00000000000E+00  0.00000000000E+00  0.30076893338E+02  0.30076893338E+02  0.00000000000E+00 0. -1.
         -3   -1    0    0    0  501 -0.00000000000E+00 -0.00000000000E+00 -0.44735462762E+03  0.44735462762E+03  0.00000000000E+00 0.  1.
         25    2    1    2    0    0 -0.65978721155E+01 -0.15126129115E+02 -0.16167737731E+03  0.20508399105E+03  0.12509011693E+03 0.  0.
         23    2    1    2    0    0  0.65978721155E+01  0.15126129115E+02 -0.25560035697E+03  0.27234752991E+03  0.92570529135E+02 0.  0.
          5    1    3    3  502    0 -0.43152855351E+02 -0.49189437422E+02 -0.13048572188E+03  0.14603344033E+03  0.41800000000E+01 0. -1.
         -5    1    3    3    0  502  0.36554983236E+02  0.34063308307E+02 -0.31191655428E+02  0.59050550722E+02  0.41800000000E+01 0. -1.
        -11    1    4    4    0    0  0.31928378710E+02  0.35274778819E+02 -0.21612166133E+03  0.22129686822E+03  0.00000000000E+00 0.  1.
         11    1    4    4    0    0 -0.25330506594E+02 -0.20148649704E+02 -0.39478695642E+02  0.51050661689E+02  0.00000000000E+00 0. -1.
</event>
<event>
 8    1  0.6380238E-009  0.1579493E+03  0.7561462E-02  0.1191032E+00
         -1   -1    0    0    0  501 -0.00000000000E+00  0.00000000000E+00  0.40674737573E+02  0.40674737573E+02  0.00000000000E+00 0.  1.
          1   -1    0    0  501    0  0.00000000000E+00 -0.00000000000E+00 -0.63490725477E+03  0.63490725477E+03  0.00000000000E+00 0. -1.
         25    2    1    2    0    0  0.54148259113E+02 -0.11466314430E+03 -0.34586377743E+03  0.38903498602E+03  0.12508715834E+03 0.  0.
         23    2    1    2    0    0 -0.54148259113E+02  0.11466314430E+03 -0.24836873977E+03  0.28654700632E+03  0.65897536472E+02 0.  0.
          5    1    3    3  502    0  0.84758807449E+00  0.26663670736E+02 -0.54267380594E+02  0.60614278344E+02  0.41800000000E+01 0.  1.
         -5    1    3    3    0  502  0.53300671039E+02 -0.14132681504E+03 -0.29159639684E+03  0.32842070768E+03  0.41800000000E+01 0.  1.
        -11    1    4    4    0    0 -0.87590066463E+01  0.80524997256E+02 -0.18189496011E+03  0.19911497155E+03  0.00000000000E+00 0. -1.
         11    1    4    4    0    0 -0.45389252467E+02  0.34138147047E+02 -0.66473779653E+02  0.87432034774E+02  0.00000000000E+00 0.  1.
</event>
<event>
 8    1  0.6380238E-009  0.1501590E+03  0.7561462E-02  0.1200278E+00
         -4   -1    0    0    0  501 -0.00000000000E+00  0.00000000000E+00  0.77335008924E+02  0.77335008924E+02  0.00000000000E+00 0.  1.
          4   -1    0    0  501    0  0.00000000000E+00 -0.00000000000E+00 -0.42587568232E+03  0.42587568232E+03  0.00000000000E+00 0. -1.
         25    2    1    2    0    0 -0.12930141665E+03 -0.31916814266E+01 -0.27487337766E+03  0.32852840736E+03  0.12508596050E+03 0.  0.
         23    2    1    2    0    0  0.12930141665E+03  0.31916814266E+01 -0.73667295728E+02  0.17468228388E+03  0.91422025054E+02 0.  0.
          5    1    3    3  502    0 -0.23468078100E+01  0.36934216011E+02 -0.11249739320E+03  0.11850223498E+03  0.41800000000E+01 0.  1.
         -5    1    3    3    0  502 -0.12695460884E+03 -0.40125897438E+02 -0.16237598446E+03  0.21002617237E+03  0.41800000000E+01 0.  1.
        -11    1    4    4    0    0  0.55221196410E+02  0.71254138300E+01 -0.82965663257E+02  0.99917232422E+02  0.00000000000E+00 0. -1.
         11    1    4    4    0    0  0.74080220240E+02 -0.39337324034E+01  0.92983675288E+01  0.74765051462E+02  0.00000000000E+00 0.  1.
</event>
<event>
 7    1  0.6380238E-009  0.9118182E+02  0.7561462E-02  0.1300015E+00
         -2   -1    0    0    0  501 -0.00000000000E+00  0.00000000000E+00  0.15674903886E+02  0.15674903886E+02  0.00000000000E+00 0.  1.
          2   -1    0    0  501    0  0.00000000000E+00 -0.00000000000E+00 -0.81494372902E+03  0.81494372902E+03  0.00000000000E+00 0. -1.
         25    2    1    2    0    0  0.48447337529E+02  0.63115139519E+01 -0.71570297976E+03  0.72819325621E+03  0.12509070079E+03 0.  0.
          5    1    3    3  502    0  0.67630514980E+02 -0.36346844744E+02 -0.29419670967E+03  0.30407919373E+03  0.41800000000E+01 0.  1.
         -5    1    3    3    0  502 -0.19183177451E+02  0.42658358696E+02 -0.42150627009E+03  0.42411406247E+03  0.41800000000E+01 0.  1.
        -11    1    1    2    0    0 -0.30327460878E+01 -0.12332206705E+02 -0.12129680618E+02  0.17561606502E+02  0.00000000000E+00 0.  1.
         11    1    1    2    0    0 -0.45414591441E+02  0.60206927533E+01 -0.71436164751E+02  0.84863770193E+02  0.00000000000E+00 0. -1.
</event>
<event>
 8    1  0.6380238E-009  0.1204631E+03  0.7561462E-02  0.1242335E+00
         -3   -1    0    0    0  501 -0.00000000000E+00  0.00000000000E+00  0.20439612800E+02  0.20439612800E+02  0.00000000000E+00 0.  1.
          3   -1    0    0  501    0  0.00000000000E+00 -0.00000000000E+00 -0.12107542042E+04  0.12107542042E+04  0.00000000000E+00 0. -1.
         25    2    1    2    0    0 -0.10769680472E+03  0.27169958568E+02 -0.54954689082E+03  0.57444451444E+03  0.12509159274E+03 0.  0.
         23    2    1    2    0    0  0.10769680472E+03 -0.27169958568E+02 -0.64076770054E+03  0.65674930251E+03  0.91649287504E+02 0.  0.
          5    1    3    3  502    0 -0.12427742200E+02  0.57615257246E+01  0.18608750439E+01  0.14442271663E+02  0.41800000000E+01 0. -1.
         -5    1    3    3    0  502 -0.95269062518E+02  0.21408432843E+02 -0.55140776586E+03  0.56000224278E+03  0.41800000000E+01 0. -1.
        -11    1    4    4    0    0  0.10299220719E+03 -0.17382596671E+01 -0.59771135633E+03  0.60652228465E+03  0.00000000000E+00 0. -1.
         11    1    4    4    0    0  0.47045975277E+01 -0.25431698901E+02 -0.43056344214E+02  0.50227017868E+02  0.00000000000E+00 0.  1.
</event>
<event>
 8    1  0.6380238E-009  0.1382869E+03  0.7561462E-02  0.1215653E+00
          2   -1    0    0  501    0  0.00000000000E+00  0.00000000000E+00  0.28423682600E+03  0.28423682600E+03  0.00000000000E+00 0. -1.
         -2   -1    0    0    0  501 -0.00000000000E+00 -0.00000000000E+00 -0.82210337270E+02  0.82210337270E+02  0.00000000000E+00 0.  1.
         25    2    1    2    0    0 -0.29690828073E+01  0.10298569266E+03  0.14168340431E+03  0.21525845635E+03  0.12508855913E+03 0.  0.
         23    2    1    2    0    0  0.29690828073E+01 -0.10298569266E+03  0.60343084421E+02  0.15118870693E+03  0.92746260949E+02 0.  0.
          5    1    3    3  502    0  0.62448659077E+01 -0.21496208481E+02 -0.42643444890E+01  0.23167700861E+02  0.41800000000E+01 0.  1.
         -5    1    3    3    0  502 -0.92139487150E+01  0.12448190114E+03  0.14594774880E+03  0.19209075548E+03  0.41800000000E+01 0.  1.
        -11    1    4    4    0    0 -0.34504572117E+02 -0.25719664925E+02 -0.49389805208E+01  0.43318127723E+02  0.00000000000E+00 0.  1.
         11    1    4    4    0    0  0.37473654924E+02 -0.77266027733E+02  0.65282064942E+02  0.10787057921E+03  0.00000000000E+00 0. -1.
</event>
<event>
 8    1  0.6380238E-009  0.1013378E+03  0.7561462E-02  0.1277508E+00
         -2   -1    0    0    0  501 -0.00000000000E+00  0.00000000000E+00  0.38699441059E+02  0.38699441059E+02  0.00000000000E+00 0. -1.
          2   -1    0    0  501    0  0.00000000000E+00 -0.00000000000E+00 -0.36172796258E+03  0.36172796258E+03  0.00000000000E+00 0.  1.
         25    2    1    2    0    0 -0.39311950188E+02  0.60687872040E+01 -0.21931297139E+03  0.25559341096E+03  0.12509017829E+03 0.  0.
         23    2    1    2    0    0  0.39311950188E+02 -0.60687872040E+01 -0.10371555013E+03  0.14483399267E+03  0.92939283886E+02 0.  0.
          5    1    3    3  502    0 -0.50363128203E+02  0.51151698337E+02 -0.18265394900E+03  0.19629793277E+03  0.41800000000E+01 0. -1.
         -5    1    3    3    0  502  0.11051178016E+02 -0.45082911133E+02 -0.36659022392E+02  0.59295478196E+02  0.41800000000E+01 0. -1.
        -11    1    4    4    0    0  0.31652806646E+02  0.32190788547E+02 -0.94517369205E+02  0.10474578806E+03  0.00000000000E+00 0.  1.
         11    1    4    4    0    0  0.76591435416E+01 -0.38259575751E+02 -0.91981809251E+01  0.40088204609E+02  0.00000000000E+00 0. -1.
</event>
<event>
 8    1  0.6380238E-009  0.9605922E+02  0.7561462E-02  0.1288808E+00
          1   -1    0    0  501    0  0.00000000000E+00  0.00000000000E+00  0.77626441342E+03  0.77626441342E+03  0.00000000000E+00 0. -1.
         -1   -1    0    0    0  501 -0.00000000000E+00 -0.00000000000E+00 -0.28031078770E+02  0.28031078770E+02  0.00000000000E+00 0.  1.
         25    2    1    2    0    0 -0.25637381754E+02 -0.30361937486E+02  0.64788180373E+03  0.66104309986E+03  0.12509206877E+03 0.  0.
         23    2    1    2    0    0  0.25637381754E+02  0.30361937486E+02  0.10035153092E+03  0.14325239233E+03  0.94189678630E+02 0.  0.
          5    1    3    3  502    0 -0.14843493568E+02  0.43417510068E+02  0.13258537236E+03  0.14036296821E+03  0.41800000000E+01 0. -1.
         -5    1    3    3    0  502 -0.10793888186E+02 -0.73779447554E+02  0.51529643137E+03  0.52068013164E+03  0.41800000000E+01 0. -1.
        -11    1    4    4    0    0  0.32063823945E+02 -0.75239173314E+01 -0.29193248291E+01  0.33063886575E+02  0.00000000000E+00 0.  1.
         11    1    4    4    0    0 -0.64264421912E+01  0.37885854817E+02  0.10327085574E+03  0.11018850576E+03  0.00000000000E+00 0. -1.
</event>
<event>
 8    1  0.6380238E-009  0.1134474E+03  0.7561462E-02  0.1254316E+00
         -1   -1    0    0    0  501 -0.00000000000E+00  0.00000000000E+00  0.36234093416E+02  0.36234093416E+02  0.00000000000E+00 0.  1.
          1   -1    0    0  501    0  0.00000000000E+00 -0.00000000000E+00 -0.49863261862E+03  0.49863261862E+03  0.00000000000E+00 0. -1.
         25    2    1    2    0    0  0.19293757083E+02 -0.57887329401E+02 -0.36629454372E+03  0.39184031526E+03  0.12507576878E+03 0.  0.
         23    2    1    2    0    0 -0.19293757083E+02  0.57887329401E+02 -0.96103981482E+02  0.14302639677E+03  0.86587429514E+02 0.  0.
          5    1    3    3  502    0  0.62041496577E+02  0.51126410086E+01 -0.14805707476E+03  0.16066628826E+03  0.41800000000E+01 0. -1.
         -5    1    3    3    0  502 -0.42747739493E+02 -0.62999970409E+02 -0.21823746895E+03  0.23117402700E+03  0.41800000000E+01 0. -1.
        -11    1    4    4    0    0 -0.25444951052E+02  0.70102624026E+02 -0.10342853093E+03  0.12751189921E+03  0.00000000000E+00 0. -1.
         11    1    4    4    0    0  0.61511939690E+01 -0.12215294625E+02  0.73245494500E+01  0.15514497564E+02  0.00000000000E+00 0.  1.
</event>
<event>
 8    1  0.6380238E-009  0.9867266E+02  0.7561462E-02  0.1283112E+00
         -1   -1    0    0    0  501 -0.00000000000E+00  0.00000000000E+00  0.10680111032E+03  0.10680111032E+03  0.00000000000E+00 0. -1.
          1   -1    0    0  501    0  0.00000000000E+00 -0.00000000000E+00 -0.13644242566E+03  0.13644242566E+03  0.00000000000E+00 0.  1.
         25    2    1    2    0    0  0.20805874080E+02  0.48808200612E+02 -0.17302960921E+02  0.13698933286E+03  0.12510619496E+03 0.  0.
         23    2    1    2    0    0 -0.20805874080E+02 -0.48808200612E+02 -0.12338354416E+02  0.10625420313E+03  0.91228262339E+02 0.  0.
          5    1    3    3  502    0  0.21668708499E+02 -0.40020594120E+02 -0.14744057696E+02  0.48021250703E+02  0.41800000000E+01 0. -1.
         -5    1    3    3    0  502 -0.86283441971E+00  0.88828794731E+02 -0.25589032250E+01  0.88968082155E+02  0.41800000000E+01 0. -1.
        -11    1    4    4    0    0 -0.16271533604E+02 -0.28358154607E+01 -0.46143701912E+02  0.49010671097E+02  0.00000000000E+00 0.  1.
         11    1    4    4    0    0 -0.45343404752E+01 -0.45972385151E+02  0.33805347496E+02  0.57243532031E+02  0.00000000000E+00 0. -1.
</event>
<event>
 8    1  0.6380238E-009  0.1487066E+03  0.7561462E-02  0.1202071E+00
          1   -1    0    0  501    0  0.00000000000E+00  0.00000000000E+00  0.70248620835E+03  0.70248620835E+03  0.00000000000E+00 0. -1.
         -1   -1    0    0    0  501 -0.00000000000E+00 -0.00000000000E+00 -0.35659628641E+02  0.35659628641E+02  0.00000000000E+00 0.  1.
         25    2    1    2    0    0  0.60695245647E+02  0.96069163379E+02  0.38288558899E+03  0.41852405714E+03  0.12509122733E+03 0.  0.
         23    2    1    2    0    0 -0.60695245647E+02 -0.96069163379E+02  0.28394099072E+03  0.31962177985E+03  0.92856873446E+02 0.  0.
          5    1    3    3  502    0  0.29334365712E+02  0.12137579324E+03  0.32201186864E+03  0.34540078769E+03  0.41800000000E+01 0.  1.
         -5    1    3    3    0  502  0.31360879935E+02 -0.25306629863E+02  0.60873720348E+02  0.73123269445E+02  0.41800000000E+01 0.  1.
        -11    1    4    4    0    0 -0.99452261820E+01 -0.77163214537E+02  0.23154680556E+03  0.24426827949E+03  0.00000000000E+00 0. -1.
         11    1    4    4    0    0 -0.50750019465E+02 -0.18905948842E+02  0.52394185161E+02  0.75353500357E+02  0.00000000000E+00 0.  1.
</event>
<event>
 8    1  0.6380238E-009  0.1078099E+03  0.7561462E-02  0.1264680E+00
         -2   -1    0    0    0  501 -0.00000000000E+00  0.00000000000E+00  0.17081841793E+03  0.17081841793E+03  0.00000000000E+00 0.  1.
          2   -1    0    0  501    0  0.00000000000E+00 -0.00000000000E+00 -0.10299020812E+03  0.10299020812E+03  0.00000000000E+00 0. -1.
         25    2    1    2    0    0  0.47200565901E+02  0.11554385322E+01 -0.24211429138E+02  0.13587870419E+03  0.12509036930E+03 0.  0.
         23    2    1    2    0    0 -0.47200565901E+02 -0.11554385322E+01  0.92039638939E+02  0.13792992186E+03  0.91236723682E+02 0.  0.
          5    1    3    3  502    0 -0.27168762314E+02 -0.40018232438E+02 -0.10502800628E+02  0.49672746997E+02  0.41800000000E+01 0.  1.
         -5    1    3    3    0  502  0.74369328216E+02  0.41173670970E+02 -0.13708628510E+02  0.86205957196E+02  0.41800000000E+01 0.  1.
        -11    1    4    4    0    0 -0.64557288887E+02  0.12119901004E+00  0.99811636483E+02  0.11886976493E+03  0.00000000000E+00 0.  1.
         11    1    4    4    0    0  0.17356722986E+02 -0.12766375423E+01 -0.77719975444E+01  0.19060156926E+02  0.00000000000E+00 0. -1.
</event>
<event>
 8    1  0.6380238E-009  0.9074509E+02  0.7561462E-02  0.1301057E+00
          1   -1    0    0  501    0  0.00000000000E+00  0.00000000000E+00  0.75009030044E+03  0.75009030044E+03  0.00000000000E+00 0. -1.
         -1   -1    0    0    0  501 -0.00000000000E+00 -0.00000000000E+00 -0.36410287897E+02  0.36410287897E+02  0.00000000000E+00 0.  1.
         25    2    1    2    0    0 -0.18073870318E+02 -0.38056303916E+02  0.66000574151E+03  0.67307436320E+03  0.12508626029E+03 0.  0.
         23    2    1    2    0    0  0.18073870318E+02  0.38056303916E+02  0.53674271032E+02  0.11342622514E+03  0.90607031305E+02 0.  0.
          5    1    3    3  502    0 -0.66393682165E+02  0.43856224235E+01  0.29688943743E+03  0.30428303465E+03  0.41800000000E+01 0.  1.
         -5    1    3    3    0  502  0.48319811846E+02 -0.42441926339E+02  0.36311630408E+03  0.36879132855E+03  0.41800000000E+01 0.  1.
        -11    1    4    4    0    0  0.16936135348E+02  0.55155527389E+01 -0.23602923748E+02  0.29569443890E+02  0.00000000000E+00 0.  1.
         11    1    4    4    0    0  0.11377349700E+01  0.32540751177E+02  0.77277194779E+02  0.83856781246E+02  0.00000000000E+00 0. -1.
</event>
<event>
 8    1  0.6380238E-009  0.1088068E+03  0.7561462E-02  0.1262796E+00
         -2   -1    0    0    0  501 -0.00000000000E+00  0.00000000000E+00  0.85017292424E+03  0.85017292424E+03  0.00000000000E+00 0.  1.
          2   -1    0    0  501    0  0.00000000000E+00 -0.00000000000E+00 -0.58307875529E+02  0.58307875529E+02  0.00000000000E+00 0. -1.
         25    2    1    2    0    0  0.47429889488E+02  0.82698677779E+02  0.75655630202E+03  0.77273206955E+03  0.12509495379E+03 0.  0.
         23    2    1    2    0    0 -0.47429889488E+02 -0.82698677779E+02  0.35308746686E+02  0.13574873021E+03  0.89957459053E+02 0.  0.
          5    1    3    3  502    0  0.44714502541E+02  0.41951407663E+02  0.70082223893E+03  0.70351161350E+03  0.41800000000E+01 0.  1.
         -5    1    3    3    0  502  0.27153869466E+01  0.40747270116E+02  0.55734063091E+02  0.69220456058E+02  0.41800000000E+01 0.  1.
        -11    1    4    4    0    0 -0.57573849050E+02 -0.37327144732E+02 -0.11730967684E+02  0.69610914598E+02  0.00000000000E+00 0. -1.
         11    1    4    4    0    0  0.10143959563E+02 -0.45371533047E+02  0.47039714370E+02  0.66137815617E+02  0.00000000000E+00 0.  1.
</event>
<event>
 8    1  0.6380238E-009  0.6760103E+03  0.7561462E-02  0.9759161E-01
          1   -1    0    0  501    0  0.00000000000E+00  0.00000000000E+00  0.15955669477E+04  0.15955669477E+04  0.00000000000E+00 0. -1.
         -1   -1    0    0    0  501 -0.00000000000E+00 -0.00000000000E+00 -0.47151343652E+03  0.47151343652E+03  0.00000000000E+00 0.  1.
         25    2    1    2    0    0 -0.10284209106E+03  0.66752522354E+03  0.11985984788E+04  0.13814672378E+04  0.12508795268E+03 0.  0.
         23    2    1    2    0    0  0.10284209106E+03 -0.66752522354E+03 -0.74544967649E+02  0.68561314642E+03  0.91334629702E+02 0.  0.
          5    1    3    3  502    0 -0.30205431008E+02  0.32499351401E+03  0.45983150433E+03  0.56391101868E+03  0.41800000000E+01 0.  1.
         -5    1    3    3    0  502 -0.72636660048E+02  0.34253170954E+03  0.73876697447E+03  0.81755621910E+03  0.41800000000E+01 0.  1.
        -11    1    4    4    0    0  0.10035048718E+03 -0.64437688770E+03 -0.53679674194E+02  0.65434952518E+03  0.00000000000E+00 0.  1.
         11    1    4    4    0    0  0.24916038714E+01 -0.23148335843E+02 -0.20865293455E+02  0.31263621241E+02  0.00000000000E+00 0. -1.
</event>
<event>
 8    1  0.6380238E-009  0.2832761E+03  0.7561462E-02  0.1093913E+00
          1   -1    0    0  501    0  0.00000000000E+00  0.00000000000E+00  0.42275190783E+03  0.42275190783E+03  0.00000000000E+00 0. -1.
         -1   -1    0    0    0  501 -0.00000000000E+00 -0.00000000000E+00 -0.22370596933E+03  0.22370596933E+03  0.00000000000E+00 0.  1.
         25    2    1    2    0    0 -0.32439212560E+02  0.28034421493E+03  0.15982196573E+03  0.34761426699E+03  0.12508971392E+03 0.  0.
         23    2    1    2    0    0  0.32439212560E+02 -0.28034421493E+03  0.39223972768E+02  0.29884361016E+03  0.90132135975E+02 0.  0.
          5    1    3    3  502    0 -0.18162451873E+02  0.24672441254E+03  0.17972114924E+03  0.30581035673E+03  0.41800000000E+01 0.  1.
         -5    1    3    3    0  502 -0.14276760687E+02  0.33619802396E+02 -0.19899183508E+02  0.41803910261E+02  0.41800000000E+01 0.  1.
        -11    1    4    4    0    0  0.73640387481E+01 -0.36821892273E+02  0.38852681318E+02  0.54033430974E+02  0.00000000000E+00 0. -1.
         11    1    4    4    0    0  0.25075173812E+02 -0.24352232266E+03  0.37129144969E+00  0.24481017918E+03  0.00000000000E+00 0.  1.
</event>
<event>
 8    1  0.6380238E-009  0.3771290E+03  0.7561462E-02  0.1052000E+00
         -1   -1    0    0    0  501 -0.00000000000E+00  0.00000000000E+00  0.48931126492E+03  0.48931126492E+03  0.00000000000E+00 0.  1.
          1   -1    0    0  501    0  0.00000000000E+00 -0.00000000000E+00 -0.39918856558E+03  0.39918856558E+03  0.00000000000E+00 0. -1.
         25    2    1    2    0    0 -0.27341420096E+03 -0.25033909148E+03  0.26008833249E+03  0.46980418805E+03  0.12508016787E+03 0.  0.
         23    2    1    2    0    0  0.27341420096E+03  0.25033909148E+03 -0.16996563315E+03  0.41869564245E+03  0.94830050836E+02 0.  0.
          5    1    3    3  502    0 -0.19123101673E+03 -0.15594605794E+03  0.99337370037E+02  0.26603356974E+03  0.41800000000E+01 0.  1.
         -5    1    3    3    0  502 -0.82183184234E+02 -0.94393033548E+02  0.16075096246E+03  0.20377061830E+03  0.41800000000E+01 0.  1.
        -11    1    4    4    0    0  0.81839254104E+02  0.23129239495E+02 -0.45930970854E+02  0.96655467075E+02  0.00000000000E+00 0. -1.
         11    1    4    4    0    0  0.19157494686E+03  0.22720985199E+03 -0.12403466229E+03  0.32204017537E+03  0.00000000000E+00 0.  1.
</event>
<event>
 8    1  0.6380238E-009  0.1025324E+03  0.7561462E-02  0.1275059E+00
         -3   -1    0    0    0  501 -0.00000000000E+00  0.00000000000E+00  0.24823617662E+02  0.24823617662E+02  0.00000000000E+00 0.  1.
          3   -1    0    0  501    0  0.00000000000E+00 -0.00000000000E+00 -0.57415124476E+03  0.57415124476E+03  0.00000000000E+00 0. -1.
         25    2    1    2    0    0 -0.37268003920E+02  0.33300382418E+02 -0.32143576234E+03  0.34851980646E+03  0.12508911463E+03 0.  0.
         23    2    1    2    0    0  0.37268003920E+02 -0.33300382418E+02 -0.22789186476E+03  0.25045505596E+03  0.91078062385E+02 0.  0.
          5    1    3    3  502    0 -0.60280541054E+02 -0.26136966398E+02 -0.11596668111E+03  0.13335152107E+03  0.41800000000E+01 0. -1.
         -5    1    3    3    0  502  0.23012537135E+02  0.59437348817E+02 -0.20546908123E+03  0.21516828540E+03  0.41800000000E+01 0. -1.
        -11    1    4    4    0    0  0.49565938331E+02 -0.12380958775E+02 -0.21856725031E+03  0.22445871178E+03  0.00000000000E+00 0. -1.
         11    1    4    4    0    0 -0.12297934411E+02 -0.20919423643E+02 -0.93246144435E+01  0.25996344183E+02  0.00000000000E+00 0.  1.
</event>
<event>
 8    1  0.6380238E-009  0.8203911E+02  0.7561462E-02  0.1323362E+00
          1   -1    0    0  501    0  0.00000000000E+00  0.00000000000E+00  0.10121710489E+04  0.10121710489E+04  0.00000000000E+00 0. -1.
         -1   -1    0    0    0  501 -0.00000000000E+00 -0.00000000000E+00 -0.17941591961E+02  0.17941591961E+02  0.00000000000E+00 0.  1.
         25    2    1    2    0    0  0.40277806115E+02 -0.14037175268E+02  0.80848594254E+03  0.81921697143E+03  0.12509029953E+03 0.  0.
         23    2    1    2    0    0 -0.40277806115E+02  0.14037175268E+02  0.18574351441E+03  0.21089566944E+03  0.90316035615E+02 0.  0.
          5    1    3    3  502    0  0.30532276702E+00 -0.53012433190E+02  0.62799688760E+03  0.63024437683E+03  0.41800000000E+01 0. -1.
         -5    1    3    3    0  502  0.39972483348E+02  0.38975257922E+02  0.18048905494E+03  0.18897259459E+03  0.41800000000E+01 0. -1.
        -11    1    4    4    0    0 -0.80292930073E+01  0.20508051582E+02 -0.24097274869E+00  0.22025162741E+02  0.00000000000E+00 0.  1.
         11    1    4    4    0    0 -0.32248513108E+02 -0.64708763137E+01  0.18598448716E+03  0.18887050670E+03  0.00000000000E+00 0. -1.
</event>
<event>
 8    1  0.6380238E-009  0.8812330E+02  0.7561462E-02  0.1307461E+00
         -1   -1    0    0    0  501 -0.00000000000E+00  0.00000000000E+00  0.25223095817E+03  0.25223095817E+03  0.00000000000E+00 0.  1.
          1   -1    0    0  501    0  0.00000000000E+00 -0.00000000000E+00 -0.52493128457E+02  0.52493128457E+02  0.00000000000E+00 0. -1.
         25    2    1    2    0    0  0.37246948181E+02 -0.70983310140E+01  0.13142730526E+03  0.18536344588E+03  0.12509496012E+03 0.  0.
         23    2    1    2    0    0 -0.37246948181E+02  0.70983310140E+01  0.68310524449E+02  0.11936064075E+03  0.90238092605E+02 0.  0.
          5    1    3    3  502    0  0.35804302671E+02 -0.57935859100E+02  0.11121050203E+03  0.13047513181E+03  0.41800000000E+01 0. -1.
         -5    1    3    3    0  502  0.14426455099E+01  0.50837528086E+02  0.20216803227E+02  0.54888314063E+02  0.41800000000E+01 0. -1.
        -11    1    4    4    0    0 -0.26437356601E+02  0.24795052010E+02  0.85217242215E+02  0.92605112164E+02  0.00000000000E+00 0.  1.
         11    1    4    4    0    0 -0.10809591580E+02 -0.17696720996E+02 -0.16906717766E+02  0.26755528583E+02  0.00000000000E+00 0. -1.
</event>
<event>
 7    1  0.6380238E-009  0.1505061E+03  0.7561462E-02  0.1199853E+00
         -1   -1    0    0    0  501 -0.00000000000E+00  0.00000000000E+00  0.35567405536E+02  0.35567405536E+02  0.00000000000E+00 0.  1.
          1   -1    0    0  501    0  0.00000000000E+00 -0.00000000000E+00 -0.83062357891E+03  0.83062357891E+03  0.00000000000E+00 0. -1.
         23    2    1    2    0    0 -0.43658897358E+02 -0.94795281480E+02 -0.26835650445E+03  0.30227329951E+03  0.91987441572E+02 0.  0.
          5    1    1    2  502    0  0.62960633511E+02  0.11958244748E+03 -0.23995359850E+03  0.27542549800E+03  0.41800000000E+01 0. -1.
         -5    1    1    2    0  502 -0.19301736153E+02 -0.24787166001E+02 -0.28674607042E+03  0.28849218693E+03  0.41800000000E+01 0. -1.
        -11    1    3    3    0    0 -0.69256663513E+02 -0.68304118043E+02 -0.22656537207E+03  0.24656399941E+03  0.00000000000E+00 0.  1.
         11    1    3    3    0    0  0.25597766155E+02 -0.26491163437E+02 -0.41791132380E+02  0.55709300103E+02  0.00000000000E+00 0. -1.
</event>
<event>
 8    1  0.6380238E-009  0.9394945E+02  0.7561462E-02  0.1293560E+00
          2   -1    0    0  501    0  0.00000000000E+00  0.00000000000E+00  0.20602988207E+03  0.20602988207E+03  0.00000000000E+00 0.  1.
         -2   -1    0    0    0  501 -0.00000000000E+00 -0.00000000000E+00 -0.83055440007E+02  0.83055440007E+02  0.00000000000E+00 0. -1.
         25    2    1    2    0    0 -0.39138760450E+01 -0.44417859913E+02  0.13065787059E+03  0.18629719621E+03  0.12508757518E+03 0.  0.
         23    2    1    2    0    0  0.39138760450E+01  0.44417859913E+02 -0.76834285320E+01  0.10278812586E+03  0.92293548198E+02 0.  0.
          5    1    3    3  502    0 -0.50332555287E+02 -0.57120905713E+02  0.46636214215E+02  0.89378816660E+02  0.41800000000E+01 0. -1.
         -5    1    3    3    0  502  0.46418679242E+02  0.12703045800E+02  0.84021656376E+02  0.96918379554E+02  0.41800000000E+01 0. -1.
        -11    1    4    4    0    0  0.11125829931E+02 -0.58447667263E+01  0.34535988678E+02  0.36751597294E+02  0.00000000000E+00 0.  1.
         11    1    4    4    0    0 -0.72119538855E+01  0.50262626640E+02 -0.42219417210E+02  0.66036528566E+02  0.00000000000E+00 0. -1.
</event>
<event>
 8    1  0.6380238E-009  0.1321769E+03  0.7561462E-02  0.1224261E+00
         -2   -1    0    0    0  501 -0.00000000000E+00  0.00000000000E+00  0.32549561083E+02  0.32549561083E+02  0.00000000000E+00 0.  1.
          2   -1    0    0  501    0  0.00000000000E+00 -0.00000000000E+00 -0.70999973920E+03  0.70999973920E+03  0.00000000000E+00 0. -1.
         25    2    1    2    0    0 -0.99539019024E+02  0.17863494921E+02 -0.44303663434E+03  0.47133269514E+03  0.12508368952E+03 0.  0.
         23    2    1    2    0    0  0.99539019024E+02 -0.17863494921E+02 -0.23441354378E+03  0.27121660515E+03  0.91551169512E+02 0.  0.
          5    1    3    3  502    0 -0.76712754613E+02 -0.46968890509E+02 -0.21413208107E+03  0.23229495031E+03  0.41800000000E+01 0. -1.
         -5    1    3    3    0  502 -0.22826264411E+02  0.64832385429E+02 -0.22890455326E+03  0.23903774483E+03  0.41800000000E+01 0. -1.
        -11    1    4    4    0    0  0.30197707631E+02  0.83260626234E+01 -0.17047083778E+03  0.17332493011E+03  0.00000000000E+00 0. -1.
         11    1    4    4    0    0  0.69341311393E+02 -0.26189557544E+02 -0.63942706004E+02  0.97891675035E+02  0.00000000000E+00 0.  1.
</event>
<event>
 8    1  0.6380238E-009  0.9834713E+02  0.7561462E-02  0.1283811E+00
         -2   -1    0    0    0  501 -0.00000000000E+00  0.00000000000E+00  0.17551494252E+02  0.17551494252E+02  0.00000000000E+00 0.  1.
          2   -1    0    0  501    0  0.00000000000E+00 -0.00000000000E+00 -0.88177335022E+03  0.88177335022E+03  0.00000000000E+00 0. -1.
         25    2    1    2    0    0 -0.17335539072E+02 -0.38222659691E+02 -0.65062437216E+03  0.66386790947E+03  0.12508810878E+03 0.  0.
         23    2    1    2    0    0  0.17335539072E+02  0.38222659691E+02 -0.21359748382E+03  0.23545693500E+03  0.89747370543E+02 0.  0.
          5    1    3    3  502    0 -0.57429048419E+02 -0.38529194506E+02 -0.20432498265E+03  0.21575162888E+03  0.41800000000E+01 0. -1.
         -5    1    3    3    0  502  0.40093509347E+02  0.30653481468E+00 -0.44629938951E+03  0.44811628059E+03  0.41800000000E+01 0. -1.
        -11    1    4    4    0    0  0.26253402602E+01  0.60416509264E+02 -0.86140159008E+02  0.10524815436E+03  0.00000000000E+00 0.  1.
         11    1    4    4    0    0  0.14710198812E+02 -0.22193849573E+02 -0.12745732481E+03  0.13020878064E+03  0.00000000000E+00 0. -1.
</event>
<event>
 8    1  0.6380238E-009  0.1127559E+03  0.7561462E-02  0.1255550E+00
         -1   -1    0    0    0  501 -0.00000000000E+00  0.00000000000E+00  0.90038138091E+03  0.90038138091E+03  0.00000000000E+00 0.  1.
          1   -1    0    0  501    0  0.00000000000E+00 -0.00000000000E+00 -0.19427772448E+02  0.19427772448E+02  0.00000000000E+00 0. -1.
         25    2    1    2    0    0 -0.60897533932E+02  0.41319303193E+02  0.54959730761E+03  0.56843714477E+03  0.12509113705E+03 0.  0.
         23    2    1    2    0    0  0.60897533932E+02 -0.41319303193E+02  0.33135630085E+03  0.35137200859E+03  0.90826735323E+02 0.  0.
          5    1    3    3  502    0 -0.46663670768E+02  0.65425024233E+02  0.17324049216E+03  0.19101746645E+03  0.41800000000E+01 0.  1.
         -5    1    3    3    0  502 -0.14233863164E+02 -0.24105721040E+02  0.37635681545E+03  0.37741967832E+03  0.41800000000E+01 0.  1.
        -11    1    4    4    0    0  0.69038889562E+02  0.54600853825E+01  0.20556584098E+03  0.21691817762E+03  0.00000000000E+00 0.  1.
         11    1    4    4    0    0 -0.81413556309E+01 -0.46779388575E+02  0.12579045987E+03  0.13445383097E+03  0.00000000000E+00 0. -1.
</event>
<event>
 8    1  0.6380238E-009  0.1337321E+03  0.7561462E-02  0.1222021E+00
         -1   -1    0    0    0  501 -0.00000000000E+00  0.00000000000E+00  0.12209541068E+02  0.12209541068E+02  0.00000000000E+00 0.  1.
          1   -1    0    0  501    0  0.00000000000E+00 -0.00000000000E+00 -0.14832741445E+04  0.14832741445E+04  0.00000000000E+00 0. -1.
         25    2    1    2    0    0 -0.30835510657E+01  0.78608031387E+02 -0.87448070392E+03  0.88687775711E+03  0.12508766380E+03 0.  0.
         23    2    1    2    0    0  0.30835510657E+01 -0.78608031387E+02 -0.59658389955E+03  0.60860592850E+03  0.91104863307E+02 0.  0.
          5    1    3    3  502    0  0.16727491868E+02 -0.31364266922E+02 -0.23004879870E+03  0.23281634051E+03  0.41800000000E+01 0. -1.
         -5    1    3    3    0  502 -0.19811042933E+02  0.10997229831E+03 -0.64443190522E+03  0.65406141660E+03  0.41800000000E+01 0. -1.
        -11    1    4    4    0    0  0.34549302832E+02 -0.81235601671E+02 -0.46305541633E+03  0.47139494683E+03  0.00000000000E+00 0. -1.
         11    1    4    4    0    0 -0.31465751766E+02  0.26275702837E+01 -0.13352848322E+03  0.13721098167E+03  0.00000000000E+00 0.  1.
</event>
<event>
 7    1  0.6380238E-009  0.1069460E+03  0.7561462E-02  0.1266332E+00
          3   -1    0    0  501    0  0.00000000000E+00  0.00000000000E+00  0.70919467461E+02  0.70919467461E+02  0.00000000000E+00 0. -1.
         -3   -1    0    0    0  501 -0.00000000000E+00 -0.00000000000E+00 -0.18581794612E+03  0.18581794612E+03  0.00000000000E+00 0.  1.
         23    2    1    2    0    0  0.20977731816E+02 -0.92877092671E+01 -0.81559142370E+01  0.90885381995E+02  0.87563159763E+02 0.  0.
          5    1    1    2  502    0 -0.28904632656E+02 -0.53678756835E+02 -0.67802013257E+02  0.91276898096E+02  0.41800000000E+01 0.  1.
         -5    1    1    2    0  502  0.79269008401E+01  0.62966466102E+02 -0.38940551169E+02  0.74575133493E+02  0.41800000000E+01 0.  1.
        -11    1    3    3    0    0  0.62856909398E+01  0.38590920602E+02 -0.11314806380E+02  0.40703733329E+02  0.00000000000E+00 0. -1.
         11    1    3    3    0    0  0.14692040876E+02 -0.47878629869E+02  0.31588921426E+01  0.50181648666E+02  0.00000000000E+00 0.  1.
</event>
<event>
 8    1  0.6380238E-009  0.1098356E+03  0.7561462E-02  0.1260875E+00
          1   -1    0    0  501    0  0.00000000000E+00  0.00000000000E+00  0.28079943464E+03  0.28079943464E+03  0.00000000000E+00 0. -1.
         -1   -1    0    0    0  501 -0.00000000000E+00 -0.00000000000E+00 -0.79901868493E+02  0.79901868493E+02  0.00000000000E+00 0.  1.
         25    2    1    2    0    0  0.30266236511E+02 -0.69148196351E+02  0.24229817706E+02  0.14809427304E+03  0.12508921420E+03 0.  0.
         23    2    1    2    0    0 -0.30266236511E+02  0.69148196351E+02  0.17666774844E+03  0.21260703010E+03  0.91064470438E+02 0.  0.
          5    1    3    3  502    0  0.60425727659E+02  0.76147975664E+01 -0.30528254766E+01  0.61123202210E+02  0.41800000000E+01 0. -1.
         -5    1    3    3    0  502 -0.30159491148E+02 -0.76762993918E+02  0.27282643183E+02  0.86971070825E+02  0.41800000000E+01 0. -1.
        -11    1    4    4    0    0 -0.21196178088E+02  0.37012761032E+02  0.11607979301E+02  0.44203706046E+02  0.00000000000E+00 0.  1.
         11    1    4    4    0    0 -0.90700584226E+01  0.32135435320E+02  0.16505976914E+03  0.16840332405E+03  0.00000000000E+00 0. -1.
</event>
<event>
 8    1  0.6380238E-009  0.6732229E+02  0.7561462E-02  0.1369443E+00
          1   -1    0    0  501    0  0.00000000000E+00  0.00000000000E+00  0.45632780993E+03  0.45632780993E+03  0.00000000000E+00 0. -1.
         -1   -1    0    0    0  501 -0.00000000000E+00 -0.00000000000E+00 -0.29755344205E+02  0.29755344205E+02  0.00000000000E+00 0.  1.
         25    2    1    2    0    0  0.30008095472E+02  0.30251645185E+02  0.23045210135E+03  0.26565092969E+03  0.12508636055E+03 0.  0.
         23    2    1    2    0    0 -0.30008095472E+02 -0.30251645185E+02  0.19612036438E+03  0.22043222445E+03  0.91167540398E+02 0.  0.
          5    1    3    3  502    0  0.13801018115E+02  0.41720700312E+02  0.11305728544E+02  0.45567278100E+02  0.41800000000E+01 0. -1.
         -5    1    3    3    0  502  0.16207077357E+02 -0.11469055127E+02  0.21914637280E+03  0.22008365159E+03  0.41800000000E+01 0. -1.
        -11    1    4    4    0    0 -0.27497043214E+02  0.10462814737E+02  0.16878128385E+03  0.17132623750E+03  0.00000000000E+00 0. -1.
         11    1    4    4    0    0 -0.25110522586E+01 -0.40714459922E+02  0.27339080526E+02  0.49105986949E+02  0.00000000000E+00 0.  1.
</event>
<event>
 8    1  0.6380238E-009  0.1927898E+03  0.7561462E-02  0.1155969E+00
          1   -1    0    0  501    0  0.00000000000E+00  0.00000000000E+00  0.91227406619E+02  0.91227406619E+02  0.00000000000E+00 0. -1.
         -1   -1    0    0    0  501 -0.00000000000E+00 -0.00000000000E+00 -0.59313258550E+03  0.59313258550E+03  0.00000000000E+00 0.  1.
         25    2    1    2    0    0  0.87237619533E+02  0.15057066407E+03 -0.40001747759E+03  0.45381022178E+03  0.12509119823E+03 0.  0.
         23    2    1    2    0    0 -0.87237619533E+02 -0.15057066407E+03 -0.10188770129E+03  0.23054977034E+03  0.11175941029E+03 0.  0.
          5    1    3    3  502    0  0.10379805193E+03  0.15599225852E+03 -0.39133311354E+03  0.43389710584E+03  0.41800000000E+01 0. -1.
         -5    1    3    3    0  502 -0.16560432397E+02 -0.54215944499E+01 -0.86843640490E+01  0.19913115942E+02  0.41800000000E+01 0. -1.
        -11    1    4    4    0    0 -0.51830979036E+02 -0.44146002093E+02  0.13745642683E+02  0.69456911689E+02  0.00000000000E+00 0. -1.
         11    1    4    4    0    0 -0.35406640496E+02 -0.10642466198E+03 -0.11563334398E+03  0.16109285865E+03  0.00000000000E+00 0.  1.
</event>
<event>
 8    1  0.6380238E-009  0.1098462E+03  0.7561462E-02  0.1260855E+00
         -2   -1    0    0    0  501 -0.00000000000E+00  0.00000000000E+00  0.33431640673E+02  0.33431640673E+02  0.00000000000E+00 0.  1.
          2   -1    0    0  501    0  0.00000000000E+00 -0.00000000000E+00 -0.45000720655E+03  0.45000720655E+03  0.00000000000E+00 0. -1.
         25    2    1    2    0    0  0.10201033702E+02 -0.56083419206E+02 -0.21760385995E+03  0.25738604373E+03  0.12508686839E+03 0.  0.
         23    2    1    2    0    0 -0.10201033702E+02  0.56083419206E+02 -0.19897170593E+03  0.22605280350E+03  0.90888498776E+02 0.  0.
          5    1    3    3  502    0  0.53439737835E+02 -0.38506039457E+02 -0.48485756605E+02  0.81895431179E+02  0.41800000000E+01 0.  1.
         -5    1    3    3    0  502 -0.43238704133E+02 -0.17577379749E+02 -0.16911810334E+03  0.17549061255E+03  0.41800000000E+01 0.  1.
        -11    1    4    4    0    0 -0.49125334425E+02  0.17844352612E+02 -0.86972254451E+02  0.10146867717E+03  0.00000000000E+00 0. -1.
         11    1    4    4    0    0  0.38924300724E+02  0.38239066594E+02 -0.11199945148E+03  0.12458412632E+03  0.00000000000E+00 0.  1.
</event>
<event>
 8    1  0.6380238E-009  0.1037494E+03  0.7561462E-02  0.1272603E+00
          2   -1    0    0  501    0  0.00000000000E+00  0.00000000000E+00  0.28437997096E+03  0.28437997096E+03  0.00000000000E+00 0. -1.
         -2   -1    0    0    0  501 -0.00000000000E+00 -0.00000000000E+00 -0.56841346545E+02  0.56841346545E+02  0.00000000000E+00 0.  1.
         25    2    1    2    0    0 -0.51318598730E+02 -0.41861969370E+02  0.13019065078E+03  0.19230905352E+03  0.12508854249E+03 0.  0.
         23    2    1    2    0    0  0.51318598730E+02  0.41861969370E+02  0.97347973639E+02  0.14891226398E+03  0.91171329582E+02 0.  0.
          5    1    3    3  502    0  0.29281499210E+02 -0.52091434178E+02  0.49260791061E+02  0.77556570622E+02  0.41800000000E+01 0. -1.
         -5    1    3    3    0  502 -0.80600097940E+02  0.10229464807E+02  0.80929859718E+02  0.11475248290E+03  0.41800000000E+01 0. -1.
        -11    1    4    4    0    0  0.14560014061E+02  0.11082088450E+02 -0.16965047622E+02  0.24952345275E+02  0.00000000000E+00 0.  1.
         11    1    4    4    0    0  0.36758584669E+02  0.30779880920E+02  0.11431302126E+03  0.12395991871E+03  0.00000000000E+00 0. -1.
</event>
<event>
 8    1  0.6380238E-009  0.9500851E+02  0.7561462E-02  0.1291157E+00
          1   -1    0    0  501    0  0.00000000000E+00  0.00000000000E+00  0.49653284409E+02  0.49653284409E+02  0.00000000000E+00 0. -1.
         -1   -1    0    0    0  501 -0.00000000000E+00 -0.00000000000E+00 -0.32427417677E+03  0.32427417677E+03  0.00000000000E+00 0.  1.
         25    2    1    2    0    0 -0.96483352207E+01  0.43350773672E+02 -0.22555112580E+03  0.26171166212E+03  0.12508918333E+03 0.  0.
         23    2    1    2    0    0  0.96483352207E+01 -0.43350773672E+02 -0.49069766562E+02  0.11221579906E+03  0.90620988842E+02 0.  0.
          5    1    3    3  502    0 -0.59607477694E+02  0.35811051599E+02 -0.18199911523E+03  0.19487594300E+03  0.41800000000E+01 0.  1.
         -5    1    3    3    0  502  0.49959142474E+02  0.75397220729E+01 -0.43552010570E+02  0.66835719120E+02  0.41800000000E+01 0.  1.
        -11    1    4    4    0    0 -0.10875362542E+02 -0.47490091182E+02  0.98337471150E+01  0.49701960255E+02  0.00000000000E+00 0. -1.
         11    1    4    4    0    0  0.20523697762E+02  0.41393175098E+01 -0.58903513677E+02  0.62513838810E+02  0.00000000000E+00 0.  1.
</event>
<event>
 8    1  0.6380238E-009  0.1595398E+03  0.7561462E-02  0.1189217E+00
          3   -1    0    0  501    0  0.00000000000E+00  0.00000000000E+00  0.99033805134E+02  0.99033805134E+02  0.00000000000E+00 0. -1.
         -3   -1    0    0    0  501 -0.00000000000E+00 -0.00000000000E+00 -0.33562379761E+03  0.33562379761E+03  0.00000000000E+00 0.  1.
         25    2    1    2    0    0 -0.14570658177E+03 -0.14749146774E+02 -0.12658339208E+03  0.23047461829E+03  0.12508896523E+03 0.  0.
         23    2    1    2    0    0  0.14570658177E+03  0.14749146774E+02 -0.11000660040E+03  0.20418298446E+03  0.90229117863E+02 0.  0.
          5    1    3    3  502    0 -0.26278644355E+02 -0.70477711782E+01 -0.10531331596E+03  0.10885129833E+03  0.41800000000E+01 0.  1.
         -5    1    3    3    0  502 -0.11942793741E+03 -0.77013755953E+01 -0.21270076118E+02  0.12162331996E+03  0.41800000000E+01 0.  1.
        -11    1    4    4    0    0  0.12244031200E+03 -0.25730213722E+02 -0.84551001261E+02  0.15100511817E+03  0.00000000000E+00 0.  1.
         11    1    4    4    0    0  0.23266269769E+02  0.40479360496E+02 -0.25455599137E+02  0.53177866284E+02  0.00000000000E+00 0. -1.
</event>
<event>
 8    1  0.6380238E-009  0.7617224E+02  0.7561462E-02  0.1340279E+00
         -1   -1    0    0    0  501 -0.00000000000E+00  0.00000000000E+00  0.33365781474E+02  0.33365781474E+02  0.00000000000E+00 0.  1.
          1   -1    0    0  501    0  0.00000000000E+00 -0.00000000000E+00 -0.38469680973E+03  0.38469680973E+03  0.00000000000E+00 0. -1.
         25    2    1    2    0    0 -0.18867168884E+02 -0.18015001908E+02 -0.16356319150E+03  0.20756075294E+03  0.12509211881E+03 0.  0.
         23    2    1    2    0    0  0.18867168884E+02  0.18015001908E+02 -0.18776783675E+03  0.21050183826E+03  0.91508212964E+02 0.  0.
          5    1    3    3  502    0  0.99124360691E+01 -0.31378686909E+02 -0.17142440483E+03  0.17460434517E+03  0.41800000000E+01 0.  1.
         -5    1    3    3    0  502 -0.28779604953E+02  0.13363685001E+02  0.78612133239E+01  0.32956407768E+02  0.41800000000E+01 0.  1.
        -11    1    4    4    0    0 -0.13524635464E+02 -0.27883520327E+02 -0.11182027206E+03  0.11603525204E+03  0.00000000000E+00 0. -1.
         11    1    4    4    0    0  0.32391804348E+02  0.45898522235E+02 -0.75947564683E+02  0.94466586228E+02  0.00000000000E+00 0.  1.
</event>
<event>
 8    1  0.6380238E-009  0.1087394E+03  0.7561462E-02  0.1262922E+00
          1   -1    0    0  501    0  0.00000000000E+00  0.00000000000E+00  0.42353252541E+03  0.42353252541E+03  0.00000000000E+00 0. -1.
         -1   -1    0    0    0  501 -0.00000000000E+00 -0.00000000000E+00 -0.30727506330E+02  0.30727506330E+02  0.00000000000E+00 0.  1.
         25    2    1    2    0    0  0.53066884542E+01 -0.27291804623E+02  0.27534504101E+03  0.30370292879E+03  0.12509026263E+03 0.  0.
         23    2    1    2    0    0 -0.53066884542E+01  0.27291804623E+02  0.11745997807E+03  0.15055710295E+03  0.89986617106E+02 0.  0.
          5    1    3    3  502    0 -0.26372272788E+02 -0.68803639740E+02  0.18637700570E+03  0.20045772189E+03  0.41800000000E+01 0.  1.
         -5    1    3    3    0  502  0.31678961242E+02  0.41511835117E+02  0.88968035313E+02  0.10324520690E+03  0.41800000000E+01 0.  1.
        -11    1    4    4    0    0 -0.20602479457E+02  0.55500511298E+02  0.57383283366E+02  0.82447620487E+02  0.00000000000E+00 0.  1.
         11    1    4    4    0    0  0.15295791003E+02 -0.28208706675E+02  0.60076694701E+02  0.68109482459E+02  0.00000000000E+00 0. -1.
</event>
<event>
 8    1  0.6380238E-009  0.9116072E+02  0.7561462E-02  0.1300065E+00
         -4   -1    0    0    0  501 -0.00000000000E+00  0.00000000000E+00  0.95712027430E+03  0.95712027430E+03  0.00000000000E+00 0. -1.
          4   -1    0    0  501    0  0.00000000000E+00 -0.00000000000E+00 -0.43115833602E+02  0.43115833602E+02  0.00000000000E+00 0.  1.
         25    2    1    2    0    0  0.58071706680E+02  0.70013550440E+02  0.83646410420E+03  0.85064276048E+03  0.12508672183E+03 0.  0.
         23    2    1    2    0    0 -0.58071706680E+02 -0.70013550440E+02  0.77540336500E+02  0.14959334742E+03  0.89952462152E+02 0.  0.
          5    1    3    3  502    0  0.33776908374E+02  0.41017430929E+02  0.78409686738E+03  0.78590627878E+03  0.41800000000E+01 0.  1.
         -5    1    3    3    0  502  0.24294798306E+02  0.28996119512E+02  0.52367236813E+02  0.64736481699E+02  0.41800000000E+01 0.  1.
        -11    1    4    4    0    0 -0.39607609170E+02 -0.48020884877E+02 -0.47578306776E+01  0.62429200230E+02  0.00000000000E+00 0.  1.
         11    1    4    4    0    0 -0.18464097510E+02 -0.21992665563E+02  0.82298167178E+02  0.87164147195E+02  0.00000000000E+00 0. -1.
</event>
<event>
 8    1  0.6380238E-009  0.1390617E+03  0.7561462E-02  0.1214597E+00
         -1   -1    0    0    0  501 -0.00000000000E+00  0.00000000000E+00  0.11736496820E+03  0.11736496820E+03  0.00000000000E+00 0.  1.
          1   -1    0    0  501    0  0.00000000000E+00 -0.00000000000E+00 -0.28895236712E+03  0.28895236712E+03  0.00000000000E+00 0. -1.
         25    2    1    2    0    0 -0.89564852998E+02 -0.61645615062E+02  0.19950392885E+02  0.16693690767E+03  0.12509143942E+03 0.  0.
         23    2    1    2    0    0  0.89564852998E+02  0.61645615062E+02 -0.19153779181E+03  0.23938042765E+03  0.93777495708E+02 0.  0.
          5    1    3    3  502    0 -0.10003362417E+03  0.84576618112E-01 -0.28785495417E+01  0.10016232608E+03  0.41800000000E+01 0. -1.
         -5    1    3    3    0  502  0.10468771170E+02 -0.61730191681E+02  0.22828942427E+02  0.66774581594E+02  0.41800000000E+01 0. -1.
        -11    1    4    4    0    0  0.66366976823E+02  0.23116291858E+02 -0.39048470921E+02  0.80397273854E+02  0.00000000000E+00 0.  1.
         11    1    4    4    0    0  0.23197876175E+02  0.38529323204E+02 -0.15248932089E+03  0.15898315379E+03  0.00000000000E+00 0. -1.
</event>
<event>
 8    1  0.6380238E-009  0.1054306E+03  0.7561462E-02  0.1269274E+00
         -1   -1    0    0    0  501 -0.00000000000E+00  0.00000000000E+00  0.25050172023E+03  0.25050172023E+03  0.00000000000E+00 0.  1.
          1   -1    0    0  501    0  0.00000000000E+00 -0.00000000000E+00 -0.83326304492E+02  0.83326304492E+02  0.00000000000E+00 0. -1.
         25    2    1    2    0    0 -0.33038236588E+02  0.64625518321E+02  0.14828352512E+02  0.14537994808E+03  0.12508983400E+03 0.  0.
         23    2    1    2    0    0  0.33038236588E+02 -0.64625518321E+02  0.15234706323E+03  0.18844807665E+03  0.83875307589E+02 0.  0.
          5    1    3    3  502    0 -0.19012282355E+02 -0.28006731733E+02  0.35625500056E+02  0.49320305727E+02  0.41800000000E+01 0.  1.
         -5    1    3    3    0  502 -0.14025954233E+02  0.92632250054E+02 -0.20797147545E+02  0.96059642349E+02  0.41800000000E+01 0.  1.
        -11    1    4    4    0    0  0.51597721513E+01 -0.52192954997E+02  0.26137265724E+02  0.58599355453E+02  0.00000000000E+00 0. -1.
         11    1    4    4    0    0  0.27878464436E+02 -0.12432563324E+02  0.12620979750E+03  0.12984872120E+03  0.00000000000E+00 0.  1.
</event>
<event>
 8    1  0.6380238E-009  0.1243868E+03  0.7561462E-02  0.1236031E+00
         -1   -1    0    0    0  501 -0.00000000000E+00  0.00000000000E+00  0.77345197146E+03  0.77345197146E+03  0.00000000000E+00 0.  1.
          1   -1    0    0  501    0  0.00000000000E+00 -0.00000000000E+00 -0.37962189206E+02  0.37962189206E+02  0.00000000000E+00 0. -1.
         25    2    1    2    0    0 -0.37642776225E+02  0.44484320202E+02  0.64694556764E+03  0.66149479834E+03  0.12506385327E+03 0.  0.
         23    2    1    2    0    0  0.37642776225E+02 -0.44484320202E+02  0.88544214612E+02  0.14991936233E+03  0.10601841309E+03 0.  0.
          5    1    3    3  502    0  0.31926276357E+02 -0.18582698739E+02  0.10335469772E+03  0.10983746972E+03  0.41800000000E+01 0.  1.
         -5    1    3    3    0  502 -0.69569052581E+02  0.63067018941E+02  0.54359086992E+03  0.55165732862E+03  0.41800000000E+01 0.  1.
        -11    1    4    4    0    0  0.59346694540E+01 -0.74027823858E+02  0.38277407829E+02  0.83549380350E+02  0.00000000000E+00 0. -1.
         11    1    4    4    0    0  0.31708106771E+02  0.29543503657E+02  0.50266806783E+02  0.66369981976E+02  0.00000000000E+00 0.  1.
</event>
<event>
 8    1  0.6380238E-009  0.7746706E+02  0.7561462E-02  0.1336397E+00
          2   -1    0    0  501    0  0.00000000000E+00  0.00000000000E+00  0.67383428956E+02  0.67383428956E+02  0.00000000000E+00 0. -1.
         -2   -1    0    0    0  501 -0.00000000000E+00 -0.00000000000E+00 -0.19904035149E+03  0.19904035149E+03  0.00000000000E+00 0.  1.
         25    2    1    2    0    0  0.44459234294E+02 -0.22184884463E+02 -0.12485324018E+03  0.18358911703E+03  0.12509132543E+03 0.  0.
         23    2    1    2    0    0 -0.44459234294E+02  0.22184884463E+02 -0.68036823626E+01  0.82834663416E+02  0.65927981592E+02 0.  0.
          5    1    3    3  502    0  0.66755189821E+02 -0.99685146820E+01 -0.13071386232E+02  0.68876412443E+02  0.41800000000E+01 0. -1.
         -5    1    3    3    0  502 -0.22295955527E+02 -0.12216369781E+02 -0.11178185394E+03  0.11471270459E+03  0.41800000000E+01 0. -1.
        -11    1    4    4    0    0 -0.43667223902E+02  0.45629602830E+01  0.21961730197E+02  0.49091390723E+02  0.00000000000E+00 0.  1.
         11    1    4    4    0    0 -0.79201039198E+00  0.17621924180E+02 -0.28765412560E+02  0.33743272692E+02  0.00000000000E+00 0. -1.
</event>
<event>
 8    1  0.6380238E-009  0.1337501E+03  0.7561462E-02  0.1221995E+00
         -2   -1    0    0    0  501 -0.00000000000E+00  0.00000000000E+00  0.54619829225E+02  0.54619829225E+02  0.00000000000E+00 0. -1.
          2   -1    0    0  501    0  0.00000000000E+00 -0.00000000000E+00 -0.35023783421E+03  0.35023783421E+03  0.00000000000E+00 0.  1.
         25    2    1    2    0    0  0.83477923856E+02  0.19250152209E+02 -0.15603967173E+03  0.21757012049E+03  0.12509694658E+03 0.  0.
         23    2    1    2    0    0 -0.83477923856E+02 -0.19250152209E+02 -0.13957833325E+03  0.18728754295E+03  0.90859124466E+02 0.  0.
          5    1    3    3  502    0  0.49567767078E+02  0.67599565210E+02 -0.12543525407E+03  0.15092428603E+03  0.41800000000E+01 0.  1.
         -5    1    3    3    0  502  0.33910156778E+02 -0.48349413000E+02 -0.30604417663E+02  0.66645834459E+02  0.41800000000E+01 0.  1.
        -11    1    4    4    0    0 -0.89886135526E-01  0.28349930517E+02 -0.39236997660E+02  0.48407319954E+02  0.00000000000E+00 0. -1.
         11    1    4    4    0    0 -0.83388037720E+02 -0.47600082726E+02 -0.10034133559E+03  0.13888022299E+03  0.00000000000E+00 0.  1.
</event>
<event>
 8    1  0.6380238E-009  0.1515845E+03  0.7561462E-02  0.1198539E+00
          1   -1    0    0  501    0  0.00000000000E+00  0.00000000000E+00  0.10409935456E+04  0.10409935456E+04  0.00000000000E+00 0. -1.
         -1   -1    0    0    0  501 -0.00000000000E+00 -0.00000000000E+00 -0.27254206317E+02  0.27254206317E+02  0.00000000000E+00 0.  1.
         25    2    1    2    0    0  0.78573626894E+02  0.10002297613E+03  0.56917961795E+03  0.59648288851E+03  0.12509191897E+03 0.  0.
         23    2    1    2    0    0 -0.78573626894E+02 -0.10002297613E+03  0.44455972135E+03  0.47176486343E+03  0.93543198169E+02 0.  0.
          5    1    3    3  502    0  0.79820146815E+02  0.40859349678E+02  0.16379648821E+03  0.18678196981E+03  0.41800000000E+01 0. -1.
         -5    1    3    3    0  502 -0.12465199209E+01  0.59163626452E+02  0.40538312974E+03  0.40970091870E+03  0.41800000000E+01 0. -1.
        -11    1    4    4    0    0 -0.31162825619E+02  0.11244944620E+02  0.14444185751E+03  0.14819251223E+03  0.00000000000E+00 0. -1.
         11    1    4    4    0    0 -0.47410801274E+02 -0.11126792075E+03  0.30011786384E+03  0.32357235120E+03  0.00000000000E+00 0.  1.
</event>
<event>
 8    1  0.6380238E-009  0.1542091E+03  0.7561462E-02  0.1195394E+00
         -1   -1    0    0    0  501 -0.00000000000E+00  0.00000000000E+00  0.87715453125E+02  0.87715453125E+02  0.00000000000E+00 0.  1.
          1   -1    0    0  501    0  0.00000000000E+00 -0.00000000000E+00 -0.32047265382E+03  0.32047265382E+03  0.00000000000E+00 0. -1.
         25    2    1    2    0    0  0.23818635890E+02  0.12329594379E+03 -0.14242383528E+03  0.22737991753E+03  0.12509141005E+03 0.  0.
         23    2    1    2    0    0 -0.23818635890E+02 -0.12329594379E+03 -0.90333365411E+02  0.18080818942E+03  0.93606983079E+02 0.  0.
          5    1    3    3  502    0  0.57971167842E+00 -0.23743367158E+02 -0.39750058076E+02  0.46493258293E+02  0.41800000000E+01 0. -1.
         -5    1    3    3    0  502  0.23238924211E+02  0.14703931095E+03 -0.10267377721E+03  0.18088665924E+03  0.41800000000E+01 0. -1.
        -11    1    4    4    0    0  0.15267965557E+02 -0.50451688485E+02  0.69238294317E+01  0.53164114375E+02  0.00000000000E+00 0.  1.
         11    1    4    4    0    0 -0.39086601447E+02 -0.72844255310E+02 -0.97257194842E+02  0.12764407504E+03  0.00000000000E+00 0. -1.
</event>
<event>
 8    1  0.6380238E-009  0.1036383E+03  0.7561462E-02  0.1272826E+00
         -1   -1    0    0    0  501 -0.00000000000E+00  0.00000000000E+00  0.10283718635E+04  0.10283718635E+04  0.00000000000E+00 0.  1.
          1   -1    0    0  501    0  0.00000000000E+00 -0.00000000000E+00 -0.20543485698E+02  0.20543485698E+02  0.00000000000E+00 0. -1.
         25    2    1    2    0    0 -0.32228649616E+02 -0.63953172022E+01  0.83159318776E+03  0.84159077987E+03  0.12509286510E+03 0.  0.
         23    2    1    2    0    0  0.32228649616E+02  0.63953172022E+01  0.17623519005E+03  0.20732456934E+03  0.10413956453E+03 0.  0.
          5    1    3    3  502    0 -0.64575090590E+02 -0.20048705052E+02  0.74476074915E+03  0.74783550248E+03  0.41800000000E+01 0. -1.
         -5    1    3    3    0  502  0.32346440974E+02  0.13653387850E+02  0.86832438608E+02  0.93755277388E+02  0.41800000000E+01 0. -1.
        -11    1    4    4    0    0 -0.35870303887E+02  0.28226350851E+01  0.33616967822E+02  0.49241714992E+02  0.00000000000E+00 0. -1.
         11    1    4    4    0    0  0.68098953503E+02  0.35726821171E+01  0.14261822223E+03  0.15808285435E+03  0.00000000000E+00 0.  1.
</event>
<event>
 8    1  0.6380238E-009  0.1215872E+03  0.7561462E-02  0.1240501E+00
          2   -1    0    0  501    0  0.00000000000E+00  0.00000000000E+00  0.53503809332E+02  0.53503809332E+02  0.00000000000E+00 0. -1.
         -2   -1    0    0    0  501 -0.00000000000E+00 -0.00000000000E+00 -0.30907358481E+03  0.30907358481E+03  0.00000000000E+00 0.  1.
         25    2    1    2    0    0 -0.55245790510E+02  0.42357354640E+02 -0.14922248161E+03  0.20679506091E+03  0.12510237942E+03 0.  0.
         23    2    1    2    0    0  0.55245790510E+02 -0.42357354640E+02 -0.10634729387E+03  0.15578233324E+03  0.90067450137E+02 0.  0.
          5    1    3    3  502    0 -0.22094017844E+02 -0.38518211747E+02 -0.91996200292E+02  0.10223781849E+03  0.41800000000E+01 0. -1.
         -5    1    3    3    0  502 -0.33151772666E+02  0.80875566387E+02 -0.57226281322E+02  0.10455724242E+03  0.41800000000E+01 0. -1.
        -11    1    4    4    0    0 -0.19187864533E+02 -0.30004196363E+02 -0.19024610781E+02  0.40377738422E+02  0.00000000000E+00 0. -1.
         11    1    4    4    0    0  0.74433655043E+02 -0.12353158277E+02 -0.87322683087E+02  0.11540459481E+03  0.00000000000E+00 0.  1.
</event>
<event>
 8    1  0.6380238E-009  0.9409746E+02  0.7561462E-02  0.1293222E+00
         -1   -1    0    0    0  501 -0.00000000000E+00  0.00000000000E+00  0.14668503482E+03  0.14668503482E+03  0.00000000000E+00 0.  1.
          1   -1    0    0  501    0  0.00000000000E+00 -0.00000000000E+00 -0.12669108884E+03  0.12669108884E+03  0.00000000000E+00 0. -1.
         25    2    1    2    0    0  0.71591873094E+02  0.26489246531E+02  0.24725144033E+02  0.14861308056E+03  0.12508972177E+03 0.  0.
         23    2    1    2    0    0 -0.71591873094E+02 -0.26489246531E+02 -0.47311980460E+01  0.12476304309E+03  0.98571579130E+02 0.  0.
          5    1    3    3  502    0 -0.12899244335E+02  0.10774565498E+02  0.54796089684E+02  0.57467952902E+02  0.41800000000E+01 0.  1.
         -5    1    3    3    0  502  0.84491117429E+02  0.15714681032E+02 -0.30070945651E+02  0.91145127663E+02  0.41800000000E+01 0.  1.
        -11    1    4    4    0    0 -0.52987501186E+02 -0.64687345818E+00  0.42411626601E+02  0.67873704762E+02  0.00000000000E+00 0.  1.
         11    1    4    4    0    0 -0.18604371908E+02 -0.25842373072E+02 -0.47142824647E+02  0.56889338331E+02  0.00000000000E+00 0. -1.
</event>
<event>
 8    1  0.6380238E-009  0.1281345E+03  0.7561462E-02  0.1230250E+00
          1   -1    0    0  501    0  0.00000000000E+00  0.00000000000E+00  0.60387687798E+03  0.60387687798E+03  0.00000000000E+00 0. -1.
         -1   -1    0    0    0  501 -0.00000000000E+00 -0.00000000000E+00 -0.33118911784E+02  0.33118911784E+02  0.00000000000E+00 0.  1.
         25    2    1    2    0    0 -0.66052324077E+02 -0.47342165175E+02  0.27022494640E+03  0.30866531204E+03  0.12509421682E+03 0.  0.
         23    2    1    2    0    0  0.66052324077E+02  0.47342165175E+02  0.30053301980E+03  0.32833047773E+03  0.10429101827E+03 0.  0.
          5    1    3    3  502    0  0.30992564603E+02 -0.35653577771E+02  0.57603385361E+02  0.74614603622E+02  0.41800000000E+01 0.  1.
         -5    1    3    3    0  502 -0.97044888680E+02 -0.11688587404E+02  0.21262156103E+03  0.23405070842E+03  0.41800000000E+01 0.  1.
        -11    1    4    4    0    0  0.82569650648E+02  0.45793221720E+02  0.29662097613E+03  0.31128567240E+03  0.00000000000E+00 0. -1.
         11    1    4    4    0    0 -0.16517326571E+02  0.15489434553E+01  0.39120436763E+01  0.17044805326E+02  0.00000000000E+00 0.  1.
</event>
<event>
 8    1  0.6380238E-009  0.1971037E+03  0.7561462E-02  0.1152206E+00
         -1   -1    0    0    0  501 -0.00000000000E+00  0.00000000000E+00  0.35193049123E+02  0.35193049123E+02  0.00000000000E+00 0.  1.
          1   -1    0    0  501    0  0.00000000000E+00 -0.00000000000E+00 -0.13237075489E+04  0.13237075489E+04  0.00000000000E+00 0. -1.
         25    2    1    2    0    0  0.11336982617E+03  0.14334848064E+03 -0.78374755020E+03  0.81443799884E+03  0.12509007607E+03 0.  0.
         23    2    1    2    0    0 -0.11336982617E+03 -0.14334848064E+03 -0.50476694954E+03  0.54446259914E+03  0.90820394897E+02 0.  0.
          5    1    3    3  502    0  0.98440259122E+02  0.39748995550E+02 -0.27065072691E+03  0.29075721081E+03  0.41800000000E+01 0.  1.
         -5    1    3    3    0  502  0.14929567045E+02  0.10359948509E+03 -0.51309682329E+03  0.52368078803E+03  0.41800000000E+01 0.  1.
        -11    1    4    4    0    0 -0.80082292804E+02 -0.91501535281E+02 -0.20433815512E+03  0.23778096269E+03  0.00000000000E+00 0.  1.
         11    1    4    4    0    0 -0.33287533363E+02 -0.51846945358E+02 -0.30042879442E+03  0.30668163645E+03  0.00000000000E+00 0. -1.
</event>
<event>
 8    1  0.6380238E-009  0.1305359E+03  0.7561462E-02  0.1226663E+00
          2   -1    0    0  501    0  0.00000000000E+00  0.00000000000E+00  0.78268127263E+03  0.78268127263E+03  0.00000000000E+00 0. -1.
         -2   -1    0    0    0  501 -0.00000000000E+00 -0.00000000000E+00 -0.25889931332E+02  0.25889931332E+02  0.00000000000E+00 0.  1.
         25    2    1    2    0    0 -0.26897543359E+02 -0.81281461788E+02  0.31742209861E+03  0.35176610910E+03  0.12510976364E+03 0.  0.
         23    2    1    2    0    0  0.26897543359E+02  0.81281461788E+02  0.43936924269E+03  0.45680509486E+03  0.91079138109E+02 0.  0.
          5    1    3    3  502    0 -0.20934842093E+02  0.30339923302E+02  0.53358443839E+02  0.64987494862E+02  0.41800000000E+01 0. -1.
         -5    1    3    3    0  502 -0.59627012659E+01 -0.11162138509E+03  0.26406365477E+03  0.28677861424E+03  0.41800000000E+01 0. -1.
        -11    1    4    4    0    0 -0.22488896080E+02  0.46676706375E+02  0.10552853127E+03  0.11756162757E+03  0.00000000000E+00 0.  1.
         11    1    4    4    0    0  0.49386439438E+02  0.34604755413E+02  0.33384071142E+03  0.33924346729E+03  0.00000000000E+00 0. -1.
</event>
<event>
 8    1  0.6380238E-009  0.1340659E+03  0.7561462E-02  0.1221544E+00
          3   -1    0    0  501    0  0.00000000000E+00  0.00000000000E+00  0.13871924881E+03  0.13871924881E+03  0.00000000000E+00 0. -1.
         -3   -1    0    0    0  501 -0.00000000000E+00 -0.00000000000E+00 -0.20121214895E+03  0.20121214895E+03  0.00000000000E+00 0.  1.
         25    2    1    2    0    0 -0.80009156003E+02 -0.71604221496E+02 -0.10100423052E+03  0.19333370311E+03  0.12508971419E+03 0.  0.
         23    2    1    2    0    0  0.80009156003E+02  0.71604221496E+02  0.38511330373E+02  0.14659769466E+03  0.92082202032E+02 0.  0.
          5    1    3    3  502    0  0.26716358281E+02  0.67907196712E+01 -0.20259305298E+01  0.27954507114E+02  0.41800000000E+01 0.  1.
         -5    1    3    3    0  502 -0.10672551428E+03 -0.78394941167E+02 -0.98978299987E+02  0.16537919600E+03  0.41800000000E+01 0.  1.
        -11    1    4    4    0    0  0.62236530217E+02  0.50335468884E+02  0.68794803060E+02  0.10554510907E+03  0.00000000000E+00 0. -1.
         11    1    4    4    0    0  0.17772625786E+02  0.21268752612E+02 -0.30283472687E+02  0.41052585582E+02  0.00000000000E+00 0.  1.
</event>
<event>
 8    1  0.6380238E-009  0.1489184E+03  0.7561462E-02  0.1201808E+00
          2   -1    0    0  501    0  0.00000000000E+00  0.00000000000E+00  0.32642326514E+03  0.32642326514E+03  0.00000000000E+00 0. -1.
         -2   -1    0    0    0  501 -0.00000000000E+00 -0.00000000000E+00 -0.10200808561E+03  0.10200808561E+03  0.00000000000E+00 0.  1.
         25    2    1    2    0    0  0.10511459892E+03 -0.26021898654E+02  0.30315886467E+01  0.16547989907E+03  0.12509271902E+03 0.  0.
         23    2    1    2    0    0 -0.10511459892E+03  0.26021898654E+02  0.22138359089E+03  0.26295145168E+03  0.91687259276E+02 0.  0.
          5    1    3    3  502    0 -0.74775187366E+01 -0.41739045297E+02 -0.23509078983E+02  0.48664261870E+02  0.41800000000E+01 0. -1.
         -5    1    3    3    0  502  0.11259211765E+03  0.15717146643E+02  0.26540667630E+02  0.11681563720E+03  0.41800000000E+01 0. -1.
        -11    1    4    4    0    0 -0.28580614943E+02  0.53084317912E+02  0.84410952426E+02  0.10373044514E+03  0.00000000000E+00 0.  1.
         11    1    4    4    0    0 -0.76533983972E+02 -0.27062419258E+02  0.13697263846E+03  0.15922100655E+03  0.00000000000E+00 0. -1.
</event>
<event>
 8    1  0.6380238E-009  0.1216046E+03  0.7561462E-02  0.1240473E+00
          2   -1    0    0  501    0  0.00000000000E+00  0.00000000000E+00  0.58555968016E+02  0.58555968016E+02  0.00000000000E+00 0.  1.
         -2   -1    0    0    0  501 -0.00000000000E+00 -0.00000000000E+00 -0.66195455405E+03  0.66195455405E+03  0.00000000000E+00 0. -1.
         25    2    1    2    0    0  0.29430988130E+02  0.58221075047E+02 -0.59352106672E+03  0.61005785048E+03  0.12508975836E+03 0.  0.
         23    2    1    2    0    0 -0.29430988130E+02 -0.58221075047E+02 -0.98775193098E+01  0.11045267159E+03  0.88579628757E+02 0.  0.
          5    1    3    3  502    0 -0.30941537109E+02 -0.20684509707E+02 -0.10398537212E+03  0.11052446641E+03  0.41800000000E+01 0. -1.
         -5    1    3    3    0  502  0.60372525239E+02  0.78905584754E+02 -0.48953569460E+03  0.49953338407E+03  0.41800000000E+01 0. -1.
        -11    1    4    4    0    0  0.16196010726E+02  0.13652773741E+02  0.93829795612E+01  0.23167850563E+02  0.00000000000E+00 0.  1.
         11    1    4    4    0    0 -0.45626998856E+02 -0.71873848788E+02 -0.19260498871E+02  0.87284821023E+02  0.00000000000E+00 0. -1.
</event>
<event>
 8    1  0.6380238E-009  0.1052668E+03  0.7561462E-02  0.1269595E+00
         -1   -1    0    0    0  501 -0.00000000000E+00  0.00000000000E+00  0.24956618287E+03  0.24956618287E+03  0.00000000000E+00 0. -1.
          1   -1    0    0  501    0  0.00000000000E+00 -0.00000000000E+00 -0.63583701500E+02  0.63583701500E+02  0.00000000000E+00 0.  1.
         25    2    1    2    0    0  0.23988621627E+02  0.57476627142E+02  0.12336650574E+03  0.18640229408E+03  0.12508998307E+03 0.  0.
         23    2    1    2    0    0 -0.23988621627E+02 -0.57476627142E+02  0.62615975638E+02  0.12674759030E+03  0.90913005703E+02 0.  0.
          5    1    3    3  502    0  0.61810910145E+02 -0.93847816154E+01  0.51137934704E+02  0.80877830737E+02  0.41800000000E+01 0. -1.
         -5    1    3    3    0  502 -0.37822288517E+02  0.66861408758E+02  0.72228571032E+02  0.10552446334E+03  0.41800000000E+01 0. -1.
        -11    1    4    4    0    0  0.83668182857E+01 -0.18379830167E+02  0.72313703364E+02  0.75080580042E+02  0.00000000000E+00 0. -1.
         11    1    4    4    0    0 -0.32355439913E+02 -0.39096796976E+02 -0.96977277259E+01  0.51667010256E+02  0.00000000000E+00 0.  1.
</event>
<event>
 8    1  0.6380238E-009  0.7985815E+02  0.7561462E-02  0.1329454E+00
         -1   -1    0    0    0  501 -0.00000000000E+00  0.00000000000E+00  0.55004711340E+02  0.55004711340E+02  0.00000000000E+00 0.  1.
          1   -1    0    0  501    0  0.00000000000E+00 -0.00000000000E+00 -0.27187366819E+03  0.27187366819E+03  0.00000000000E+00 0. -1.
         25    2    1    2    0    0 -0.48880541127E+02  0.22118150056E+02 -0.14204129706E+03  0.19672883976E+03  0.12509191206E+03 0.  0.
         23    2    1    2    0    0  0.48880541127E+02 -0.22118150056E+02 -0.74827659791E+02  0.13014953976E+03  0.91984804006E+02 0.  0.
          5    1    3    3  502    0 -0.96335896922E+01  0.51818726527E+02 -0.74935490006E+01  0.53400488255E+02  0.41800000000E+01 0.  1.
         -5    1    3    3    0  502 -0.39246951435E+02 -0.29700576471E+02 -0.13454774806E+03  0.14332835151E+03  0.41800000000E+01 0.  1.
        -11    1    4    4    0    0  0.10868575025E+02  0.37187892737E+01  0.20962472606E+02  0.23903568238E+02  0.00000000000E+00 0.  1.
         11    1    4    4    0    0  0.38011966102E+02 -0.25836939330E+02 -0.95790132397E+02  0.10624597153E+03  0.00000000000E+00 0. -1.
</event>
<event>
 8    1  0.6380238E-009  0.1375020E+03  0.7561462E-02  0.1216730E+00
          2   -1    0    0  501    0  0.00000000000E+00  0.00000000000E+00  0.89646099251E+03  0.89646099251E+03  0.00000000000E+00 0. -1.
         -2   -1    0    0    0  501 -0.00000000000E+00 -0.00000000000E+00 -0.30336174775E+02  0.30336174775E+02  0.00000000000E+00 0.  1.
         25    2    1    2    0    0 -0.84941364893E+02  0.81713442115E+02  0.56790675859E+03  0.59334368599E+03  0.12508605501E+03 0.  0.
         23    2    1    2    0    0  0.84941364893E+02 -0.81713442115E+02  0.29821805914E+03  0.33345348129E+03  0.91460873032E+02 0.  0.
          5    1    3    3  502    0 -0.93865736887E+02  0.21855093031E+02  0.22047669386E+03  0.24065715569E+03  0.41800000000E+01 0. -1.
         -5    1    3    3    0  502  0.89243719947E+01  0.59858349084E+02  0.34743006473E+03  0.35268653029E+03  0.41800000000E+01 0. -1.
        -11    1    4    4    0    0  0.75009664101E+02 -0.72764422961E+02  0.30199168342E+03  0.31956233791E+03  0.00000000000E+00 0. -1.
         11    1    4    4    0    0  0.99317007915E+01 -0.89490191540E+01 -0.37736242716E+01  0.13891143386E+02  0.00000000000E+00 0.  1.
</event>
<event>
 8    1  0.6380238E-009  0.1308225E+03  0.7561462E-02  0.1226240E+00
         -2   -1    0    0    0  501 -0.00000000000E+00  0.00000000000E+00  0.13874395596E+03  0.13874395596E+03  0.00000000000E+00 0.  1.
          2   -1    0    0  501    0  0.00000000000E+00 -0.00000000000E+00 -0.20628452165E+03  0.20628452165E+03  0.00000000000E+00 0. -1.
         25    2    1    2    0    0 -0.11430827224E+03 -0.24828837052E+01  0.24982147671E+02  0.17129743692E+03  0.12508460488E+03 0.  0.
         23    2    1    2    0    0  0.11430827224E+03  0.24828837052E+01 -0.92522713361E+02  0.17373104069E+03  0.92463377601E+02 0.  0.
          5    1    3    3  502    0 -0.75763027006E+02  0.12835865874E+01 -0.47132621720E+02  0.89334429454E+02  0.41800000000E+01 0. -1.
         -5    1    3    3    0  502 -0.38545245233E+02 -0.37664702926E+01  0.72114769391E+02  0.81963007466E+02  0.41800000000E+01 0. -1.
        -11    1    4    4    0    0  0.67727304779E+02  0.46945877576E+02 -0.46973275993E+02  0.94854582870E+02  0.00000000000E+00 0.  1.
         11    1    4    4    0    0  0.46580967461E+02 -0.44462993871E+02 -0.45549437367E+02  0.78876457819E+02  0.00000000000E+00 0. -1.
</event>
<event>
 8    1  0.6380238E-009  0.1221257E+03  0.7561462E-02  0.1239631E+00
         -4   -1    0    0    0  501 -0.00000000000E+00  0.00000000000E+00  0.50870892026E+03  0.50870892026E+03  0.00000000000E+00 0.  1.
          4   -1    0    0  501    0  0.00000000000E+00 -0.00000000000E+00 -0.44630595901E+02  0.44630595901E+02  0.00000000000E+00 0. -1.
         25    2    1    2    0    0  0.27601845693E+02  0.99150709913E+02  0.22511593026E+03  0.27733911204E+03  0.12508827222E+03 0.  0.
         23    2    1    2    0    0 -0.27601845693E+02 -0.99150709913E+02  0.23896239409E+03  0.27600040412E+03  0.92089478887E+02 0.  0.
          5    1    3    3  502    0  0.17362125447E+00  0.63478912551E+02  0.22321974294E+03  0.23210801047E+03  0.41800000000E+01 0.  1.
         -5    1    3    3    0  502  0.27428224439E+02  0.35671797362E+02  0.18961873175E+01  0.45231101570E+02  0.41800000000E+01 0.  1.
        -11    1    4    4    0    0  0.12815624168E+02  0.11762646971E+02  0.15616974207E+02  0.23377124929E+02  0.00000000000E+00 0.  1.
         11    1    4    4    0    0 -0.40417469861E+02 -0.11091335688E+03  0.22334541989E+03  0.25262327919E+03  0.00000000000E+00 0. -1.
</event>
<event>
 8    1  0.6380238E-009  0.1126926E+03  0.7561462E-02  0.1255663E+00
          1   -1    0    0  501    0  0.00000000000E+00  0.00000000000E+00  0.93650154069E+02  0.93650154069E+02  0.00000000000E+00 0. -1.
         -1   -1    0    0    0  501 -0.00000000000E+00 -0.00000000000E+00 -0.19044593838E+03  0.19044593838E+03  0.00000000000E+00 0.  1.
         25    2    1    2    0    0 -0.46468061794E+02 -0.62495074145E+02 -0.50540427720E+02  0.15577745756E+03  0.12508943357E+03 0.  0.
         23    2    1    2    0    0  0.46468061794E+02  0.62495074145E+02 -0.46255356588E+02  0.12831863489E+03  0.90891138111E+02 0.  0.
          5    1    3    3  502    0 -0.69815373500E+02 -0.65665652406E+02 -0.74839189890E+02  0.12167391268E+03  0.41800000000E+01 0. -1.
         -5    1    3    3    0  502  0.23347311706E+02  0.31705782604E+01  0.24298762170E+02  0.34103544880E+02  0.41800000000E+01 0. -1.
        -11    1    4    4    0    0  0.11113040785E+02  0.68727233508E+02 -0.57928460384E+02  0.90568420676E+02  0.00000000000E+00 0.  1.
         11    1    4    4    0    0  0.35355021009E+02 -0.62321593628E+01  0.11673103796E+02  0.37750214213E+02  0.00000000000E+00 0. -1.
</event>
<event>
 8    1  0.6380238E-009  0.1515143E+03  0.7561462E-02  0.1198624E+00
         -2   -1    0    0    0  501 -0.00000000000E+00  0.00000000000E+00  0.93685878578E+02  0.93685878578E+02  0.00000000000E+00 0. -1.
          2   -1    0    0  501    0  0.00000000000E+00 -0.00000000000E+00 -0.36725077306E+03  0.36725077306E+03  0.00000000000E+00 0.  1.
         25    2    1    2    0    0  0.46032410562E+02 -0.14273857136E+03 -0.13530509437E+03  0.23758815669E+03  0.12508949221E+03 0.  0.
         23    2    1    2    0    0 -0.46032410562E+02  0.14273857136E+03 -0.13825980011E+03  0.22334849495E+03  0.90969749319E+02 0.  0.
          5    1    3    3  502    0  0.39324644473E+02 -0.13847952669E+03 -0.15763770054E+03  0.21351843950E+03  0.41800000000E+01 0. -1.
         -5    1    3    3    0  502  0.67077660889E+01 -0.42590446794E+01  0.22332606170E+02  0.24069717194E+02  0.41800000000E+01 0. -1.
        -11    1    4    4    0    0 -0.38964484504E+02  0.11555002364E+03 -0.14964401543E+03  0.19303722535E+03  0.00000000000E+00 0.  1.
         11    1    4    4    0    0 -0.70679260582E+01  0.27188547728E+02  0.11384215320E+02  0.30311269600E+02  0.00000000000E+00 0. -1.
</event>
<event>
 8    1  0.6380238E-009  0.1027428E+03  0.7561462E-02  0.1274632E+00
          4   -1    0    0  501    0  0.00000000000E+00  0.00000000000E+00  0.34671003176E+03  0.34671003176E+03  0.00000000000E+00 0. -1.
         -4   -1    0    0    0  501 -0.00000000000E+00 -0.00000000000E+00 -0.49685304157E+02  0.49685304157E+02  0.00000000000E+00 0.  1.
         25    2    1    2    0    0 -0.35126829692E+02  0.24006808884E+02  0.74543321604E+02  0.15171024934E+03  0.12509625063E+03 0.  0.
         23    2    1    2    0    0  0.35126829692E+02 -0.24006808884E+02  0.22248140600E+03  0.24468508658E+03  0.92534288451E+02 0.  0.
          5    1    3    3  502    0  0.87336957980E+01 -0.45973658421E+02  0.41401485951E+02  0.62621163754E+02  0.41800000000E+01 0. -1.
         -5    1    3    3    0  502 -0.43860525490E+02  0.69980467305E+02  0.33141835653E+02  0.89089085589E+02  0.41800000000E+01 0. -1.
        -11    1    4    4    0    0 -0.31495188705E+01 -0.35658881067E+02  0.26184466365E+02  0.44352018521E+02  0.00000000000E+00 0.  1.
         11    1    4    4    0    0  0.38276348563E+02  0.11652072184E+02  0.19629693964E+03  0.20033306806E+03  0.00000000000E+00 0. -1.
</event>
<event>
 8    1  0.6380238E-009  0.1114815E+03  0.7561462E-02  0.1257851E+00
         -1   -1    0    0    0  501 -0.00000000000E+00  0.00000000000E+00  0.60677046860E+03  0.60677046860E+03  0.00000000000E+00 0.  1.
          1   -1    0    0  501    0  0.00000000000E+00 -0.00000000000E+00 -0.39901770740E+02  0.39901770740E+02  0.00000000000E+00 0. -1.
         25    2    1    2    0    0  0.73379533498E+02  0.73102971245E+02  0.38898661303E+03  0.42152461631E+03  0.12507524413E+03 0.  0.
         23    2    1    2    0    0 -0.73379533498E+02 -0.73102971245E+02  0.17788208483E+03  0.22514762303E+03  0.91218505319E+02 0.  0.
          5    1    3    3  502    0  0.38589124876E+02  0.30481239002E+02  0.35119704286E+03  0.35464779966E+03  0.41800000000E+01 0.  1.
         -5    1    3    3    0  502  0.34790408623E+02  0.42621732243E+02  0.37789570177E+02  0.66876816653E+02  0.41800000000E+01 0.  1.
        -11    1    4    4    0    0 -0.22766425268E+02 -0.62777339456E+02  0.39845160141E+02  0.77762081090E+02  0.00000000000E+00 0. -1.
         11    1    4    4    0    0 -0.50613108230E+02 -0.10325631789E+02  0.13803692469E+03  0.14738554194E+03  0.00000000000E+00 0.  1.
</event>
<event>
 8    1  0.6380238E-009  0.2780766E+03  0.7561462E-02  0.1096744E+00
         -1   -1    0    0    0  501 -0.00000000000E+00  0.00000000000E+00  0.37898537282E+02  0.37898537282E+02  0.00000000000E+00 0.  1.
          1   -1    0    0  501    0  0.00000000000E+00 -0.00000000000E+00 -0.24657348509E+04  0.24657348509E+04  0.00000000000E+00 0. -1.
         25    2    1    2    0    0  0.25110992451E+03 -0.91490904846E+02 -0.16459155682E+04  0.16721579596E+04  0.12508958583E+03 0.  0.
         23    2    1    2    0    0 -0.25110992451E+03  0.91490904846E+02 -0.78192074546E+03  0.83147542859E+03  0.92328523795E+02 0.  0.
          5    1    3    3  502    0  0.21177870755E+03 -0.11581044509E+03 -0.14915590546E+04  0.15109692803E+04  0.41800000000E+01 0. -1.
         -5    1    3    3    0  502  0.39331216953E+02  0.24319540242E+02 -0.15435651353E+03  0.16118867930E+03  0.41800000000E+01 0. -1.
        -11    1    4    4    0    0 -0.20585975040E+03  0.84480421190E+02 -0.52043029611E+03  0.56600607020E+03  0.00000000000E+00 0.  1.
         11    1    4    4    0    0 -0.45250174105E+02  0.70104836559E+01 -0.26149044936E+03  0.26546935839E+03  0.00000000000E+00 0. -1.
</event>
<event>
 8    1  0.6380238E-009  0.1266962E+03  0.7561462E-02  0.1232442E+00
         -2   -1    0    0    0  501 -0.00000000000E+00  0.00000000000E+00  0.48014741379E+02  0.48014741379E+02  0.00000000000E+00 0.  1.
          2   -1    0    0  501    0  0.00000000000E+00 -0.00000000000E+00 -0.39501313077E+03  0.39501313077E+03  0.00000000000E+00 0. -1.
         25    2    1    2    0    0  0.74844389869E+02  0.38972295171E+02 -0.20018884674E+03  0.25068611585E+03  0.12508969517E+03 0.  0.
         23    2    1    2    0    0 -0.74844389869E+02 -0.38972295171E+02 -0.14680954265E+03  0.19234175629E+03  0.91223828660E+02 0.  0.
          5    1    3    3  502    0 -0.34246849489E+02  0.11824486178E+00 -0.54965494102E+02  0.64896368339E+02  0.41800000000E+01 0.  1.
         -5    1    3    3    0  502  0.10909123936E+03  0.38854050309E+02 -0.14522335263E+03  0.18578974751E+03  0.41800000000E+01 0.  1.
        -11    1    4    4    0    0 -0.43118208588E+02 -0.52999079142E+02 -0.38092679860E+02  0.78224897319E+02  0.00000000000E+00 0.  1.
         11    1    4    4    0    0 -0.31726181281E+02  0.14026783971E+02 -0.10871686279E+03  0.11411685897E+03  0.00000000000E+00 0. -1.
</event>
<event>
 7    1  0.6380238E-009  0.2370678E+03  0.7561462E-02  0.1121762E+00
          2   -1    0    0  501    0  0.00000000000E+00  0.00000000000E+00  0.75112292930E+03  0.75112292930E+03  0.00000000000E+00 0.  1.
         -2   -1    0    0    0  501 -0.00000000000E+00 -0.00000000000E+00 -0.11043416772E+03  0.11043416772E+03  0.00000000000E+00 0. -1.
         25    2    1    2    0    0  0.73567430062E+02 -0.22013570659E+03  0.15075731041E+03  0.30372198445E+03  0.12508949242E+03 0.  0.
          5    1    3    3  502    0  0.70186083898E+02 -0.11143443730E+03  0.19474536246E+02  0.13319328118E+03  0.41800000000E+01 0. -1.
         -5    1    3    3    0  502  0.33813461639E+01 -0.10870126929E+03  0.13128277416E+03  0.17052870327E+03  0.41800000000E+01 0. -1.
        -11    1    1    2    0    0 -0.43191591945E+02  0.88934355567E+02  0.82643198173E+02  0.12885934743E+03  0.00000000000E+00 0. -1.
         11    1    1    2    0    0 -0.30375838117E+02  0.13120135102E+03  0.40728825300E+03  0.42897576514E+03  0.00000000000E+00 0.  1.
</event>
<event>
 8    1  0.6380238E-009  0.8777427E+02  0.7561462E-02  0.1308333E+00
         -2   -1    0    0    0  501 -0.00000000000E+00  0.00000000000E+00  0.99202937489E+03  0.99202937489E+03  0.00000000000E+00 0.  1.
          2   -1    0    0  501    0  0.00000000000E+00 -0.00000000000E+00 -0.12872218338E+02  0.12872218338E+02  0.00000000000E+00 0. -1.
         25    2    1    2    0    0  0.31111140394E+02 -0.83736877201E+01  0.59233171966E+03  0.60625231399E+03  0.12508789071E+03 0.  0.
         23    2    1    2    0    0 -0.31111140394E+02  0.83736877201E+01  0.38682543689E+03  0.39864927923E+03  0.90825698490E+02 0.  0.
          5    1    3    3  502    0  0.38119389780E+02  0.26795971912E+02  0.80183260901E+02  0.92832859035E+02  0.41800000000E+01 0.  1.
         -5    1    3    3    0  502 -0.70082493863E+01 -0.35169659632E+02  0.51214845876E+03  0.51341945496E+03  0.41800000000E+01 0.  1.
        -11    1    4    4    0    0  0.26079129155E+02 -0.15889003258E+02  0.18419784713E+03  0.18671215357E+03  0.00000000000E+00 0.  1.
         11    1    4    4    0    0 -0.57190269548E+02  0.24262690978E+02  0.20262758976E+03  0.21193712567E+03  0.00000000000E+00 0. -1.
</event>
<event>
 8    1  0.6380238E-009  0.1610067E+03  0.7561462E-02  0.1187565E+00
          2   -1    0    0  501    0  0.00000000000E+00  0.00000000000E+00  0.10383339903E+04  0.10383339903E+04  0.00000000000E+00 0. -1.
         -2   -1    0    0    0  501 -0.00000000000E+00 -0.00000000000E+00 -0.31167726613E+02  0.31167726613E+02  0.00000000000E+00 0.  1.
         25    2    1    2    0    0 -0.12679538604E+03  0.43011190340E+02  0.37454276437E+03  0.41696189782E+03  0.12509160433E+03 0.  0.
         23    2    1    2    0    0  0.12679538604E+03 -0.43011190340E+02  0.63262349935E+03  0.65253981913E+03  0.87571063739E+02 0.  0.
          5    1    3    3  502    0 -0.12127968200E+03  0.67100704650E+02  0.21758424496E+03  0.25801480944E+03  0.41800000000E+01 0. -1.
         -5    1    3    3    0  502 -0.55157040322E+01 -0.24089514310E+02  0.15695851941E+03  0.15894708838E+03  0.41800000000E+01 0. -1.
        -11    1    4    4    0    0  0.42951472763E+02  0.25548458909E+02  0.24644998178E+03  0.25146599429E+03  0.00000000000E+00 0. -1.
         11    1    4    4    0    0  0.83843913273E+02 -0.68559649249E+02  0.38617351757E+03  0.40107382484E+03  0.00000000000E+00 0.  1.
</event>
<event>
 8    1  0.6380238E-009  0.1243823E+03  0.7561462E-02  0.1236038E+00
          1   -1    0    0  501    0  0.00000000000E+00  0.00000000000E+00  0.58243586406E+03  0.58243586406E+03  0.00000000000E+00 0. -1.
         -1   -1    0    0    0  501 -0.00000000000E+00 -0.00000000000E+00 -0.27733315727E+02  0.27733315727E+02  0.00000000000E+00 0.  1.
         25    2    1    2    0    0 -0.15718671955E+02  0.62407919668E+02  0.32924720169E+03  0.35804135588E+03  0.12509223642E+03 0.  0.
         23    2    1    2    0    0  0.15718671955E+02 -0.62407919668E+02  0.22545534664E+03  0.25212782391E+03  0.92717318626E+02 0.  0.
          5    1    3    3  502    0 -0.13076956279E+02  0.99993859140E+02  0.26317746454E+03  0.28186810549E+03  0.41800000000E+01 0.  1.
         -5    1    3    3    0  502 -0.26417156762E+01 -0.37585939472E+02  0.66069737152E+02  0.76173250390E+02  0.41800000000E+01 0.  1.
        -11    1    4    4    0    0  0.41841513269E+02  0.45950168843E+00  0.59397906572E+02  0.72656965802E+02  0.00000000000E+00 0.  1.
         11    1    4    4    0    0 -0.26122841314E+02 -0.62867421357E+02  0.16605744007E+03  0.17947085810E+03  0.00000000000E+00 0. -1.
</event>
<event>
 8    1  0.6380238E-009  0.1498195E+03  0.7561462E-02  0.1200695E+00
         -1   -1    0    0    0  501 -0.00000000000E+00  0.00000000000E+00  0.12732731136E+03  0.12732731136E+03  0.00000000000E+00 0.  1.
          1   -1    0    0  501    0  0.00000000000E+00 -0.00000000000E+00 -0.24824566106E+03  0.24824566106E+03  0.00000000000E+00 0. -1.
         25    2    1    2    0    0  0.10977805115E+03  0.52832052216E+02  0.85831528303E+01  0.17482370274E+03  0.12508880954E+03 0.  0.
         23    2    1    2    0    0 -0.10977805115E+03 -0.52832052216E+02 -0.12950150253E+03  0.20074926967E+03  0.93205063480E+02 0.  0.
          5    1    3    3  502    0  0.13264751110E+03  0.23952312346E+02 -0.59834314452E+01  0.13499018231E+03  0.41800000000E+01 0.  1.
         -5    1    3    3    0  502 -0.22869459943E+02  0.28879739870E+02  0.14566584276E+02  0.39833520439E+02  0.41800000000E+01 0.  1.
        -11    1    4    4    0    0 -0.54579934860E+02 -0.52512239376E+01 -0.31923451566E+01  0.54924818705E+02  0.00000000000E+00 0.  1.
         11    1    4    4    0    0 -0.55198116293E+02 -0.47580828278E+02 -0.12630915738E+03  0.14582445097E+03  0.00000000000E+00 0. -1.
</event>
<event>
 8    1  0.6380238E-009  0.9772741E+02  0.7561462E-02  0.1285149E+00
         -1   -1    0    0    0  501 -0.00000000000E+00  0.00000000000E+00  0.34730299464E+03  0.34730299464E+03  0.00000000000E+00 0.  1.
          1   -1    0    0  501    0  0.00000000000E+00 -0.00000000000E+00 -0.33580078360E+02  0.33580078360E+02  0.00000000000E+00 0. -1.
         25    2    1    2    0    0 -0.37044791526E+01  0.46531922093E+01  0.18005209144E+03  0.21932075024E+03  0.12508980969E+03 0.  0.
         23    2    1    2    0    0  0.37044791526E+01 -0.46531922093E+01  0.13367082484E+03  0.16156232276E+03  0.90548988726E+02 0.  0.
          5    1    3    3  502    0 -0.80054861943E+01 -0.59546036759E+02  0.97010772411E+02  0.11418572882E+03  0.41800000000E+01 0.  1.
         -5    1    3    3    0  502  0.43010070418E+01  0.64199228969E+02  0.83041319026E+02  0.10513502141E+03  0.41800000000E+01 0.  1.
        -11    1    4    4    0    0  0.36853172707E+02 -0.70205821304E+01  0.18765152105E+02  0.41947298429E+02  0.00000000000E+00 0. -1.
         11    1    4    4    0    0 -0.33148693554E+02  0.23673899210E+01  0.11490567274E+03  0.11961502433E+03  0.00000000000E+00 0.  1.
</event>
<event>
 8    1  0.6380238E-009  0.1083432E+03  0.7561462E-02  0.1263669E+00
         -1   -1    0    0    0  501 -0.00000000000E+00  0.00000000000E+00  0.29273790741E+02  0.29273790741E+02  0.00000000000E+00 0.  1.
          1   -1    0    0  501    0  0.00000000000E+00 -0.00000000000E+00 -0.61366399902E+03  0.61366399902E+03  0.00000000000E+00 0. -1.
         25    2    1    2    0    0  0.66391218949E+02 -0.13579653878E+02 -0.22851826048E+03  0.26918162845E+03  0.12508378300E+03 0.  0.
         23    2    1    2    0    0 -0.66391218949E+02  0.13579653878E+02 -0.35587194780E+03  0.37375616131E+03  0.91959903955E+02 0.  0.
          5    1    3    3  502    0  0.88696146677E+02 -0.12778077578E+02 -0.22954387382E+03  0.24645110693E+03  0.41800000000E+01 0. -1.
         -5    1    3    3    0  502 -0.22304927728E+02 -0.80157629991E+00  0.10256133402E+01  0.22730521513E+02  0.41800000000E+01 0. -1.
        -11    1    4    4    0    0 -0.32109129791E+02 -0.33256461528E+02 -0.23705359739E+03  0.24151893608E+03  0.00000000000E+00 0. -1.
         11    1    4    4    0    0 -0.34282089157E+02  0.46836115406E+02 -0.11881835041E+03  0.13223722524E+03  0.00000000000E+00 0.  1.
</event>
<event>
 8    1  0.6380238E-009  0.1254244E+03  0.7561462E-02  0.1234407E+00
          2   -1    0    0  501    0  0.00000000000E+00  0.00000000000E+00  0.58227938606E+02  0.58227938606E+02  0.00000000000E+00 0.  1.
         -2   -1    0    0    0  501 -0.00000000000E+00 -0.00000000000E+00 -0.51512135890E+03  0.51512135890E+03  0.00000000000E+00 0. -1.
         25    2    1    2    0    0  0.12036151687E+03  0.27892739221E+02 -0.15448910767E+03  0.23404998905E+03  0.12509042066E+03 0.  0.
         23    2    1    2    0    0 -0.12036151687E+03 -0.27892739221E+02 -0.30240431262E+03  0.33929930845E+03  0.91710156374E+02 0.  0.
          5    1    3    3  502    0  0.10100555636E+03  0.13248619456E+02 -0.28765361637E+02  0.10593661673E+03  0.41800000000E+01 0.  1.
         -5    1    3    3    0  502  0.19355960508E+02  0.14644119765E+02 -0.12572374603E+03  0.12811337232E+03  0.41800000000E+01 0.  1.
        -11    1    4    4    0    0 -0.83885834530E+02 -0.25646986345E+02 -0.97460155260E+02  0.13112239704E+03  0.00000000000E+00 0.  1.
         11    1    4    4    0    0 -0.36475682338E+02 -0.22457528759E+01 -0.20494415736E+03  0.20817691141E+03  0.00000000000E+00 0. -1.
</event>
<event>
 8    1  0.6380238E-009  0.1058905E+03  0.7561462E-02  0.1268375E+00
          1   -1    0    0  501    0  0.00000000000E+00  0.00000000000E+00  0.92171482609E+02  0.92171482609E+02  0.00000000000E+00 0. -1.
         -1   -1    0    0    0  501 -0.00000000000E+00 -0.00000000000E+00 -0.13644500341E+03  0.13644500341E+03  0.00000000000E+00 0.  1.
         25    2    1    2    0    0 -0.15866940837E+02 -0.55926498363E+01 -0.49431029829E+02  0.13553513714E+03  0.12507321514E+03 0.  0.
         23    2    1    2    0    0  0.15866940837E+02  0.55926498363E+01  0.51575090246E+01  0.93081348885E+02  0.91402954368E+02 0.  0.
          5    1    3    3  502    0  0.43897474157E+02  0.26336548602E+02 -0.43644800725E+02  0.67401357998E+02  0.41800000000E+01 0.  1.
         -5    1    3    3    0  502 -0.59764414994E+02 -0.31929198439E+02 -0.57862291032E+01  0.68133779139E+02  0.41800000000E+01 0.  1.
        -11    1    4    4    0    0  0.59701936478E+01  0.48312483524E+02 -0.16336612888E+01  0.48707372396E+02  0.00000000000E+00 0.  1.
         11    1    4    4    0    0  0.98967471890E+01 -0.42719833688E+02  0.67911703134E+01  0.44373976489E+02  0.00000000000E+00 0. -1.
</event>
<event>
 8    1  0.6380238E-009  0.8828364E+02  0.7561462E-02  0.1307062E+00
          1   -1    0    0  501    0  0.00000000000E+00  0.00000000000E+00  0.46106495999E+02  0.46106495999E+02  0.00000000000E+00 0. -1.
         -1   -1    0    0    0  501 -0.00000000000E+00 -0.00000000000E+00 -0.32332415804E+03  0.32332415804E+03  0.00000000000E+00 0.  1.
         25    2    1    2    0    0 -0.40502716811E+02  0.35299907557E+02 -0.13521128098E+03  0.19187863010E+03  0.12509502245E+03 0.  0.
         23    2    1    2    0    0  0.40502716811E+02 -0.35299907557E+02 -0.14200638106E+03  0.17755202394E+03  0.92045398587E+02 0.  0.
          5    1    3    3  502    0 -0.34068063553E+02 -0.10320776364E+02 -0.14079129983E+03  0.14528184293E+03  0.41800000000E+01 0.  1.
         -5    1    3    3    0  502 -0.64346532580E+01  0.45620683922E+02  0.55800188441E+01  0.46596787167E+02  0.41800000000E+01 0.  1.
        -11    1    4    4    0    0 -0.12659742216E+02  0.16124101916E+02 -0.38729526051E+01  0.20862777798E+02  0.00000000000E+00 0. -1.
         11    1    4    4    0    0  0.53162459027E+02 -0.51424009473E+02 -0.13813342845E+03  0.15668924614E+03  0.00000000000E+00 0.  1.
</event>
<event>
 8    1  0.6380238E-009  0.8688720E+02  0.7561462E-02  0.1310570E+00
         -2   -1    0    0    0  501 -0.00000000000E+00  0.00000000000E+00  0.26029989986E+02  0.26029989986E+02  0.00000000000E+00 0.  1.
          2   -1    0    0  501    0  0.00000000000E+00 -0.00000000000E+00 -0.53259252057E+03  0.53259252057E+03  0.00000000000E+00 0. -1.
         25    2    1    2    0    0 -0.65282115212E+01  0.39677822442E+02 -0.25248426389E+03  0.28462746283E+03  0.12509013530E+03 0.  0.
         23    2    1    2    0    0  0.65282115212E+01 -0.39677822442E+02 -0.25407826669E+03  0.27399504772E+03  0.94342850446E+02 0.  0.
          5    1    3    3  502    0  0.37381895863E+02  0.21456394784E+02 -0.22587053656E+03  0.22998424881E+03  0.41800000000E+01 0. -1.
         -5    1    3    3    0  502 -0.43910107384E+02  0.18221427659E+02 -0.26613727330E+02  0.54643214023E+02  0.41800000000E+01 0. -1.
        -11    1    4    4    0    0  0.15452664135E+02 -0.59251766161E+02 -0.24135526966E+03  0.24900185303E+03  0.00000000000E+00 0. -1.
         11    1    4    4    0    0 -0.89244526139E+01  0.19573943719E+02 -0.12722997036E+02  0.24993194689E+02  0.00000000000E+00 0.  1.
</event>
<event>
 8    1  0.6380238E-009  0.1905240E+03  0.7561462E-02  0.1157990E+00
          1   -1    0    0  501    0  0.00000000000E+00  0.00000000000E+00  0.79025988475E+03  0.79025988475E+03  0.00000000000E+00 0. -1.
         -1   -1    0    0    0  501 -0.00000000000E+00 -0.00000000000E+00 -0.59900798155E+02  0.59900798155E+02  0.00000000000E+00 0.  1.
         25    2    1    2    0    0  0.10958812436E+03 -0.14137034482E+03  0.26239021730E+03  0.34130760056E+03  0.12508845138E+03 0.  0.
         23    2    1    2    0    0 -0.10958812436E+03  0.14137034482E+03  0.46796886929E+03  0.50885308235E+03  0.89114899940E+02 0.  0.
          5    1    3    3  502    0  0.81022403685E+02 -0.12747925856E+03  0.26905535595E+03  0.30858361626E+03  0.41800000000E+01 0. -1.
         -5    1    3    3    0  502  0.28565720678E+02 -0.13891086253E+02 -0.66651386427E+01  0.32723984297E+02  0.41800000000E+01 0. -1.
        -11    1    4    4    0    0 -0.47124682939E+02  0.43592064982E+01  0.14452409520E+03  0.15207548295E+03  0.00000000000E+00 0.  1.
         11    1    4    4    0    0 -0.62463441423E+02  0.13701113832E+03  0.32344477410E+03  0.35677759939E+03  0.00000000000E+00 0. -1.
</event>
<event>
 8    1  0.6380238E-009  0.1378337E+03  0.7561462E-02  0.1216274E+00
         -2   -1    0    0    0  501 -0.00000000000E+00  0.00000000000E+00  0.31463863657E+02  0.31463863657E+02  0.00000000000E+00 0.  1.
          2   -1    0    0  501    0  0.00000000000E+00 -0.00000000000E+00 -0.63986637739E+03  0.63986637739E+03  0.00000000000E+00 0. -1.
         25    2    1    2    0    0  0.87486099064E+02 -0.18927851790E+02 -0.37498363839E+03  0.40530433609E+03  0.12508714838E+03 0.  0.
         23    2    1    2    0    0 -0.87486099064E+02  0.18927851790E+02 -0.23341887534E+03  0.26602590496E+03  0.90957845397E+02 0.  0.
          5    1    3    3  502    0  0.11053572788E+03 -0.42468585932E+02 -0.31789459499E+03  0.33925827014E+03  0.41800000000E+01 0. -1.
         -5    1    3    3    0  502 -0.23049628812E+02  0.23540734142E+02 -0.57089043396E+02  0.66046065955E+02  0.41800000000E+01 0. -1.
        -11    1    4    4    0    0 -0.34951755467E+02 -0.34450456271E+02 -0.12467993746E+03  0.13399084280E+03  0.00000000000E+00 0. -1.
         11    1    4    4    0    0 -0.52534343596E+02  0.53378308061E+02 -0.10873893788E+03  0.13203506216E+03  0.00000000000E+00 0.  1.
</event>
<event>
 8    1  0.6380238E-009  0.1031457E+03  0.7561462E-02  0.1273817E+00
         -1   -1    0    0    0  501 -0.00000000000E+00  0.00000000000E+00  0.21253705141E+02  0.21253705141E+02  0.00000000000E+00 0.  1.
          1   -1    0    0  501    0  0.00000000000E+00 -0.00000000000E+00 -0.84878583041E+03  0.84878583041E+03  0.00000000000E+00 0. -1.
         25    2    1    2    0    0 -0.34538114087E+02  0.67822323885E+02 -0.49569726993E+03  0.51686748861E+03  0.12507385187E+03 0.  0.
         23    2    1    2    0    0  0.34538114087E+02 -0.67822323885E+02 -0.33183485533E+03  0.35317204694E+03  0.93932819516E+02 0.  0.
          5    1    3    3  502    0 -0.39869375637E+02  0.67794274601E+02 -0.50168279686E+03  0.50782746267E+03  0.41800000000E+01 0.  1.
         -5    1    3    3    0  502  0.53312615494E+01  0.28049284114E-01  0.59855269218E+01  0.90400259403E+01  0.41800000000E+01 0. -1.
        -11    1    4    4    0    0 -0.32450733284E+02 -0.27746839124E+02 -0.10931187412E+03  0.11735426279E+03  0.00000000000E+00 0.  1.
         11    1    4    4    0    0  0.66988847371E+02 -0.40075484761E+02 -0.22252298121E+03  0.23581778414E+03  0.00000000000E+00 0. -1.
</event>
<event>
 8    1  0.6380238E-009  0.1291152E+03  0.7561462E-02  0.1228775E+00
         -2   -1    0    0    0  501 -0.00000000000E+00  0.00000000000E+00  0.12994759507E+02  0.12994759507E+02  0.00000000000E+00 0.  1.
          2   -1    0    0  501    0  0.00000000000E+00 -0.00000000000E+00 -0.18599954598E+04  0.18599954598E+04  0.00000000000E+00 0. -1.
         25    2    1    2    0    0  0.54701922092E+02  0.74586841154E+02 -0.13612920846E+04  0.13701546285E+04  0.12510823052E+03 0.  0.
         23    2    1    2    0    0 -0.54701922092E+02 -0.74586841154E+02 -0.48570861577E+03  0.50283559085E+03  0.91516527672E+02 0.  0.
          5    1    3    3  502    0  0.73822352496E+02  0.16015500383E+02 -0.10544068821E+04  0.10571175816E+04  0.41800000000E+01 0. -1.
         -5    1    3    3    0  502 -0.19120430404E+02  0.58571340771E+02 -0.30688520252E+03  0.31303704692E+03  0.41800000000E+01 0. -1.
        -11    1    4    4    0    0 -0.30563241458E+02  0.10545969230E+02 -0.61338451020E+02  0.69337830720E+02  0.00000000000E+00 0.  1.
         11    1    4    4    0    0 -0.24138680633E+02 -0.85132810384E+02 -0.42437016475E+03  0.43349776013E+03  0.00000000000E+00 0. -1.
</event>
<event>
 8    1  0.6380238E-009  0.4471226E+03  0.7561462E-02  0.1028584E+00
         -1   -1    0    0    0  501 -0.00000000000E+00  0.00000000000E+00  0.32006904177E+03  0.32006904177E+03  0.00000000000E+00 0.  1.
          1   -1    0    0  501    0  0.00000000000E+00 -0.00000000000E+00 -0.66088005367E+03  0.66088005367E+03  0.00000000000E+00 0. -1.
         25    2    1    2    0    0  0.31226156849E+03 -0.31638066830E+03 -0.21861389681E+03  0.51092467343E+03  0.12509185268E+03 0.  0.
         23    2    1    2    0    0 -0.31226156849E+03  0.31638066830E+03 -0.12219711509E+03  0.47002442201E+03  0.91579516890E+02 0.  0.
          5    1    3    3  502    0  0.20804637830E+03 -0.23627538662E+03 -0.91134643048E+02  0.32776874380E+03  0.41800000000E+01 0. -1.
         -5    1    3    3    0  502  0.10421519019E+03 -0.80105281687E+02 -0.12747925377E+03  0.18315592963E+03  0.41800000000E+01 0. -1.
        -11    1    4    4    0    0 -0.96576467563E+02  0.13551722795E+03 -0.82568710680E+02  0.18576739526E+03  0.00000000000E+00 0.  1.
         11    1    4    4    0    0 -0.21568510093E+03  0.18086344035E+03 -0.39628404410E+02  0.28425702675E+03  0.00000000000E+00 0. -1.
</event>
<event>
 8    1  0.6380238E-009  0.1374338E+03  0.7561462E-02  0.1216824E+00
         -2   -1    0    0    0  501 -0.00000000000E+00  0.00000000000E+00  0.55717235664E+02  0.55717235664E+02  0.00000000000E+00 0.  1.
          2   -1    0    0  501    0  0.00000000000E+00 -0.00000000000E+00 -0.40584130693E+03  0.40584130693E+03  0.00000000000E+00 0. -1.
         25    2    1    2    0    0 -0.65039389332E+02 -0.74679911020E+02 -0.13408414373E+03  0.20840472492E+03  0.12508701169E+03 0.  0.
         23    2    1    2    0    0  0.65039389332E+02  0.74679911020E+02 -0.21603992753E+03  0.25315381767E+03  0.87214642346E+02 0.  0.
          5    1    3    3  502    0 -0.21756197574E+02 -0.93487767053E+02 -0.12886742944E+03  0.16074072755E+03  0.41800000000E+01 0. -1.
         -5    1    3    3    0  502 -0.43283191758E+02  0.18807856032E+02 -0.52167142881E+01  0.47663997370E+02  0.41800000000E+01 0. -1.
        -11    1    4    4    0    0  0.58077318232E+02  0.17004893874E+01 -0.84179052307E+02  0.10228381790E+03  0.00000000000E+00 0.  1.
         11    1    4    4    0    0  0.69620711003E+01  0.72979421633E+02 -0.13186087522E+03  0.15086999977E+03  0.00000000000E+00 0. -1.
</event>
<event>
 8    1  0.6380238E-009  0.7356693E+02  0.7561462E-02  0.1348367E+00
          1   -1    0    0  501    0  0.00000000000E+00  0.00000000000E+00  0.50678553369E+02  0.50678553369E+02  0.00000000000E+00 0. -1.
         -1   -1    0    0    0  501 -0.00000000000E+00 -0.00000000000E+00 -0.30573373996E+03  0.30573373996E+03  0.00000000000E+00 0.  1.
         25    2    1    2    0    0 -0.25720347879E+02 -0.53118015192E+02 -0.12653281286E+03  0.18746010273E+03  0.12509067732E+03 0.  0.
         23    2    1    2    0    0  0.25720347879E+02  0.53118015192E+02 -0.12852237373E+03  0.16895219060E+03  0.92432582603E+02 0.  0.
          5    1    3    3  502    0  0.98600590187E+01 -0.50902936529E+02  0.39147822046E+01  0.52164428788E+02  0.41800000000E+01 0.  1.
         -5    1    3    3    0  502 -0.35580406897E+02 -0.22150786632E+01 -0.13044759507E+03  0.13529567394E+03  0.41800000000E+01 0.  1.
        -11    1    4    4    0    0  0.80023545455E+01  0.22058801779E+02  0.10279617853E+02  0.25618332448E+02  0.00000000000E+00 0. -1.
         11    1    4    4    0    0  0.17717993333E+02  0.31059213413E+02 -0.13880199158E+03  0.14333385815E+03  0.00000000000E+00 0.  1.
</event>
<event>
 8    1  0.6380238E-009  0.1356050E+03  0.7561462E-02  0.1219368E+00
          2   -1    0    0  501    0  0.00000000000E+00  0.00000000000E+00  0.59387437018E+02  0.59387437018E+02  0.00000000000E+00 0. -1.
         -2   -1    0    0    0  501 -0.00000000000E+00 -0.00000000000E+00 -0.51613627631E+03  0.51613627631E+03  0.00000000000E+00 0.  1.
         25    2    1    2    0    0  0.11556188708E+03 -0.25125436183E+02 -0.35770327298E+03  0.39696983325E+03  0.12509028627E+03 0.  0.
         23    2    1    2    0    0 -0.11556188708E+03  0.25125436183E+02 -0.99045566309E+02  0.17855388008E+03  0.89920112307E+02 0.  0.
          5    1    3    3  502    0  0.14769269353E+02 -0.47239503521E+02 -0.21593072274E+03  0.22156996961E+03  0.41800000000E+01 0.  1.
         -5    1    3    3    0  502  0.10079261772E+03  0.22114067338E+02 -0.14177255024E+03  0.17539986364E+03  0.41800000000E+01 0.  1.
        -11    1    4    4    0    0 -0.75294448153E+02  0.16772222283E+02 -0.11150126916E+03  0.13558427043E+03  0.00000000000E+00 0.  1.
         11    1    4    4    0    0 -0.40267438925E+02  0.83532138998E+01  0.12455702852E+02  0.42969609651E+02  0.00000000000E+00 0. -1.
</event>
<event>
 8    1  0.6380238E-009  0.1158918E+03  0.7561462E-02  0.1250032E+00
          2   -1    0    0  501    0  0.00000000000E+00  0.00000000000E+00  0.22711309647E+03  0.22711309647E+03  0.00000000000E+00 0. -1.
         -2   -1    0    0    0  501 -0.00000000000E+00 -0.00000000000E+00 -0.72023184013E+02  0.72023184013E+02  0.00000000000E+00 0.  1.
         25    2    1    2    0    0  0.47792645189E+02  0.47214036934E+02  0.96086230154E+02  0.17144559885E+03  0.12509087706E+03 0.  0.
         23    2    1    2    0    0 -0.47792645189E+02 -0.47214036934E+02  0.59003682299E+02  0.12769068163E+03  0.91160152651E+02 0.  0.
          5    1    3    3  502    0 -0.14890334935E+02 -0.22777803719E+02  0.67888684983E+02  0.73259104318E+02  0.41800000000E+01 0.  1.
         -5    1    3    3    0  502  0.62682980125E+02  0.69991840653E+02  0.28197545171E+02  0.98186494534E+02  0.41800000000E+01 0.  1.
        -11    1    4    4    0    0  0.59001291917E+01 -0.55552209793E+02  0.15197000927E+02  0.57894804383E+02  0.00000000000E+00 0.  1.
         11    1    4    4    0    0 -0.53692774381E+02  0.83381728586E+01  0.43806681372E+02  0.69795877243E+02  0.00000000000E+00 0. -1.
</event>
<event>
 8    1  0.6380238E-009  0.1441853E+03  0.7561462E-02  0.1207806E+00
         -2   -1    0    0    0  501 -0.00000000000E+00  0.00000000000E+00  0.25692031993E+02  0.25692031993E+02  0.00000000000E+00 0.  1.
          2   -1    0    0  501    0  0.00000000000E+00 -0.00000000000E+00 -0.13014850822E+04  0.13014850822E+04  0.00000000000E+00 0. -1.
         25    2    1    2    0    0  0.98963699806E+01  0.13376776489E+03 -0.45605238565E+03  0.49154859706E+03  0.12507794271E+03 0.  0.
         23    2    1    2    0    0 -0.98963699806E+01 -0.13376776489E+03 -0.81974066453E+03  0.83562851710E+03  0.91151020025E+02 0.  0.
          5    1    3    3  502    0  0.17334794358E+02  0.60114386494E+02 -0.54104227468E+02  0.82818925307E+02  0.41800000000E+01 0. -1.
         -5    1    3    3    0  502 -0.74384243774E+01  0.73653378395E+02 -0.40194815818E+03  0.40872967176E+03  0.41800000000E+01 0. -1.
        -11    1    4    4    0    0 -0.11542439808E+02  0.51177346948E+01 -0.18250342500E+02  0.22192208689E+02  0.00000000000E+00 0.  1.
         11    1    4    4    0    0  0.16460698274E+01 -0.13888549958E+03 -0.80149032203E+03  0.81343630842E+03  0.00000000000E+00 0. -1.
</event>
<event>
 8    1  0.6380238E-009  0.1083505E+03  0.7561462E-02  0.1263655E+00
         -2   -1    0    0    0  501 -0.00000000000E+00  0.00000000000E+00  0.29575194371E+02  0.29575194371E+02  0.00000000000E+00 0.  1.
          2   -1    0    0  501    0  0.00000000000E+00 -0.00000000000E+00 -0.50653064212E+03  0.50653064212E+03  0.00000000000E+00 0. -1.
         25    2    1    2    0    0  0.42903106565E+02  0.38116696259E+02 -0.27934905386E+03  0.31140890278E+03  0.12508417867E+03 0.  0.
         23    2    1    2    0    0 -0.42903106565E+02 -0.38116696259E+02 -0.19760639389E+03  0.22469693371E+03  0.90259991283E+02 0.  0.
          5    1    3    3  502    0  0.12048235099E+02 -0.40670760933E+02 -0.43923627374E+02  0.61204805412E+02  0.41800000000E+01 0. -1.
         -5    1    3    3    0  502  0.30854871466E+02  0.78787457192E+02 -0.23542542649E+03  0.25020409737E+03  0.41800000000E+01 0. -1.
        -11    1    4    4    0    0 -0.29527417355E+02  0.16022012911E+02 -0.14209176460E+03  0.14600905054E+03  0.00000000000E+00 0. -1.
         11    1    4    4    0    0 -0.13375689210E+02 -0.54138709170E+02 -0.55514629293E+02  0.78687883171E+02  0.00000000000E+00 0.  1.
</event>
<event>
 8    1  0.6380238E-009  0.9460048E+02  0.7561462E-02  0.1292078E+00
         -2   -1    0    0    0  501 -0.00000000000E+00  0.00000000000E+00  0.38327012634E+02  0.38327012634E+02  0.00000000000E+00 0.  1.
          2   -1    0    0  501    0  0.00000000000E+00 -0.00000000000E+00 -0.45693150772E+03  0.45693150772E+03  0.00000000000E+00 0. -1.
         25    2    1    2    0    0  0.42823933902E+01  0.71009753568E+02 -0.28194060467E+03  0.31654224997E+03  0.12509103668E+03 0.  0.
         23    2    1    2    0    0 -0.42823933902E+01 -0.71009753568E+02 -0.13666389042E+03  0.17871627039E+03  0.90563581873E+02 0.  0.
          5    1    3    3  502    0 -0.40770372280E+01  0.90920448294E+02 -0.10835091136E+03  0.14156462321E+03  0.41800000000E+01 0. -1.
         -5    1    3    3    0  502  0.83594306182E+01 -0.19910694726E+02 -0.17358969331E+03  0.17497762676E+03  0.41800000000E+01 0. -1.
        -11    1    4    4    0    0 -0.15452598071E+02 -0.32252563225E+02  0.47749344212E+00  0.35766445472E+02  0.00000000000E+00 0.  1.
         11    1    4    4    0    0  0.11170204681E+02 -0.38757190343E+02 -0.13714138386E+03  0.14294982491E+03  0.00000000000E+00 0. -1.
</event>
<event>
 8    1  0.6380238E-009  0.2584230E+03  0.7561462E-02  0.1108094E+00
         -1   -1    0    0    0  501 -0.00000000000E+00  0.00000000000E+00  0.10504029311E+04  0.10504029311E+04  0.00000000000E+00 0.  1.
          1   -1    0    0  501    0  0.00000000000E+00 -0.00000000000E+00 -0.68984016615E+02  0.68984016615E+02  0.00000000000E+00 0. -1.
         25    2    1    2    0    0 -0.71441364666E+02  0.23541622517E+03  0.47710424061E+03  0.55118122446E+03  0.12509043980E+03 0.  0.
         23    2    1    2    0    0  0.71441364666E+02 -0.23541622517E+03  0.50431467387E+03  0.56820572326E+03  0.89441522774E+02 0.  0.
          5    1    3    3  502    0 -0.40496604272E+02  0.16595524691E+02  0.15065914157E+03  0.15694277854E+03  0.41800000000E+01 0. -1.
         -5    1    3    3    0  502 -0.30944760394E+02  0.21882070048E+03  0.32644509904E+03  0.39423844592E+03  0.41800000000E+01 0. -1.
        -11    1    4    4    0    0  0.67079656728E+02 -0.12953528006E+03  0.21254401907E+03  0.25778679014E+03  0.00000000000E+00 0. -1.
         11    1    4    4    0    0  0.43617079380E+01 -0.10588094511E+03  0.29177065480E+03  0.31041893312E+03  0.00000000000E+00 0.  1.
</event>
<event>
 8    1  0.6380238E-009  0.8427112E+02  0.7561462E-02  0.1317350E+00
          2   -1    0    0  501    0  0.00000000000E+00  0.00000000000E+00  0.45588980054E+03  0.45588980054E+03  0.00000000000E+00 0. -1.
         -2   -1    0    0    0  501 -0.00000000000E+00 -0.00000000000E+00 -0.33901653914E+02  0.33901653914E+02  0.00000000000E+00 0.  1.
         25    2    1    2    0    0  0.30846861550E+02 -0.51220893250E+02  0.20770382245E+03  0.24972588267E+03  0.12508808834E+03 0.  0.
         23    2    1    2    0    0 -0.30846861550E+02  0.51220893250E+02  0.21428432417E+03  0.24006557178E+03  0.90214180667E+02 0.  0.
          5    1    3    3  502    0  0.19464174953E+02 -0.22370394571E+02  0.21542162753E+03  0.21749307728E+03  0.41800000000E+01 0.  1.
         -5    1    3    3    0  502  0.11382686598E+02 -0.28850498679E+02 -0.77178050759E+01  0.32232805392E+02  0.41800000000E+01 0.  1.
        -11    1    4    4    0    0 -0.52501799923E+02  0.89000086944E+00  0.12059021264E+03  0.13152653907E+03  0.00000000000E+00 0. -1.
         11    1    4    4    0    0  0.21654938373E+02  0.50330892381E+02  0.93694111539E+02  0.10853903271E+03  0.00000000000E+00 0.  1.
</event>
<event>
 8    1  0.6380238E-009  0.1085031E+03  0.7561462E-02  0.1263367E+00
         -2   -1    0    0    0  501 -0.00000000000E+00  0.00000000000E+00  0.30241389570E+02  0.30241389570E+02  0.00000000000E+00 0.  1.
          2   -1    0    0  501    0  0.00000000000E+00 -0.00000000000E+00 -0.42100796900E+03  0.42100796900E+03  0.00000000000E+00 0. -1.
         25    2    1    2    0    0  0.22151885445E+02 -0.10355449146E+00 -0.18179021614E+03  0.22177819979E+03  0.12508865043E+03 0.  0.
         23    2    1    2    0    0 -0.22151885445E+02  0.10355449146E+00 -0.20897636329E+03  0.22947115878E+03  0.92169276577E+02 0.  0.
          5    1    3    3  502    0  0.71609693662E+02 -0.85937982962E+01 -0.13462184224E+03  0.15278191779E+03  0.41800000000E+01 0.  1.
         -5    1    3    3    0  502 -0.49457808217E+02  0.84902438047E+01 -0.47168373895E+02  0.68996281997E+02  0.41800000000E+01 0.  1.
        -11    1    4    4    0    0 -0.89207989295E+01  0.45888848700E+02 -0.93127723456E+02  0.10420239904E+03  0.00000000000E+00 0.  1.
         11    1    4    4    0    0 -0.13231086515E+02 -0.45785294209E+02 -0.11584863984E+03  0.12526875974E+03  0.00000000000E+00 0. -1.
</event>
<event>
 8    1  0.6380238E-009  0.7589657E+02  0.7561462E-02  0.1341117E+00
         -1   -1    0    0    0  501 -0.00000000000E+00  0.00000000000E+00  0.30382945838E+02  0.30382945838E+02  0.00000000000E+00 0.  1.
          1   -1    0    0  501    0  0.00000000000E+00 -0.00000000000E+00 -0.47931596322E+03  0.47931596322E+03  0.00000000000E+00 0. -1.
         25    2    1    2    0    0  0.47688066641E+02 -0.14552668363E+02 -0.27422426987E+03  0.30549649704E+03  0.12507288939E+03 0.  0.
         23    2    1    2    0    0 -0.47688066641E+02  0.14552668363E+02 -0.17470874751E+03  0.20420241202E+03  0.93217738450E+02 0.  0.
          5    1    3    3  502    0  0.16695099501E+02 -0.13255777047E+02  0.67779242387E+01  0.22756419521E+02  0.41800000000E+01 0. -1.
         -5    1    3    3    0  502  0.30992967140E+02 -0.12968913167E+01 -0.28100219411E+03  0.28274007752E+03  0.41800000000E+01 0. -1.
        -11    1    4    4    0    0 -0.68181605188E+02  0.28585547844E+02 -0.93022838757E+02  0.11882387539E+03  0.00000000000E+00 0.  1.
         11    1    4    4    0    0  0.20493538548E+02 -0.14032879481E+02 -0.81685908752E+02  0.85378536632E+02  0.00000000000E+00 0. -1.
</event>
<event>
 8    1  0.6380238E-009  0.6301103E+02  0.7561462E-02  0.1385613E+00
          2   -1    0    0  501    0  0.00000000000E+00  0.00000000000E+00  0.74542012395E+02  0.74542012395E+02  0.00000000000E+00 0. -1.
         -2   -1    0    0    0  501 -0.00000000000E+00 -0.00000000000E+00 -0.17872311608E+03  0.17872311608E+03  0.00000000000E+00 0.  1.
         25    2    1    2    0    0 -0.12859765411E+02  0.33919155601E+02 -0.45038515744E+02  0.13781407801E+03  0.12509344313E+03 0.  0.
         23    2    1    2    0    0  0.12859765411E+02 -0.33919155601E+02 -0.59142587939E+02  0.11545105046E+03  0.92277931605E+02 0.  0.
          5    1    3    3  502    0 -0.70282869948E+01 -0.11090411736E+02 -0.79493193050E+02  0.80678585708E+02  0.41800000000E+01 0. -1.
         -5    1    3    3    0  502 -0.58314784165E+01  0.45009567337E+02  0.34454677307E+02  0.57135492303E+02  0.41800000000E+01 0. -1.
        -11    1    4    4    0    0  0.84234843850E+01  0.15182852080E+02 -0.63619399889E+02  0.65946206325E+02  0.00000000000E+00 0.  1.
         11    1    4    4    0    0  0.44362810262E+01 -0.49102007681E+02  0.44768119495E+01  0.49504844136E+02  0.00000000000E+00 0. -1.
</event>
<event>
 8    1  0.6380238E-009  0.9603168E+02  0.7561462E-02  0.1288869E+00
          1   -1    0    0  501    0  0.00000000000E+00  0.00000000000E+00  0.37271580992E+03  0.37271580992E+03  0.00000000000E+00 0. -1.
         -1   -1    0    0    0  501 -0.00000000000E+00 -0.00000000000E+00 -0.34227144288E+02  0.34227144288E+02  0.00000000000E+00 0.  1.
         25    2    1    2    0    0  0.18780100109E+02 -0.29078288734E+01  0.19879644068E+03  0.23564628810E+03  0.12509196874E+03 0.  0.
         23    2    1    2    0    0 -0.18780100109E+02  0.29078288734E+01  0.13969222496E+03  0.17129666611E+03  0.97300989081E+02 0.  0.
          5    1    3    3  502    0  0.68766302917E+02 -0.58257624192E+01  0.15199253095E+03  0.16697887827E+03  0.41800000000E+01 0. -1.
         -5    1    3    3    0  502 -0.49986202808E+02  0.29179335457E+01  0.46803909725E+02  0.68667409831E+02  0.41800000000E+01 0. -1.
        -11    1    4    4    0    0 -0.18230085319E+01  0.35708053018E+02  0.12748949900E+03  0.13240831079E+03  0.00000000000E+00 0. -1.
         11    1    4    4    0    0 -0.16957091577E+02 -0.32800224144E+02  0.12202725962E+02  0.38888355321E+02  0.00000000000E+00 0.  1.
</event>
<event>
 8    1  0.6380238E-009  0.1077831E+03  0.7561462E-02  0.1264731E+00
          1   -1    0    0  501    0  0.00000000000E+00  0.00000000000E+00  0.26227893659E+03  0.26227893659E+03  0.00000000000E+00 0. -1.
         -1   -1    0    0    0  501 -0.00000000000E+00 -0.00000000000E+00 -0.67721120926E+02  0.67721120926E+02  0.00000000000E+00 0.  1.
         25    2    1    2    0    0  0.53352864992E+02  0.28999551284E+02  0.16856498212E+03  0.21852067183E+03  0.12509847578E+03 0.  0.
         23    2    1    2    0    0 -0.53352864992E+02 -0.28999551284E+02  0.25992833552E+02  0.11147938569E+03  0.89802694061E+02 0.  0.
          5    1    3    3  502    0 -0.24893736483E+02  0.11364826728E+02 -0.41990222262E+01  0.27999314104E+02  0.41800000000E+01 0.  1.
         -5    1    3    3    0  502  0.78246601475E+02  0.17634724556E+02  0.17276400434E+03  0.19052135772E+03  0.41800000000E+01 0.  1.
        -11    1    4    4    0    0 -0.78467257475E+02 -0.21772807433E+02  0.25535791640E+02  0.85341914051E+02  0.00000000000E+00 0. -1.
         11    1    4    4    0    0  0.25114392483E+02 -0.72267438506E+01  0.45704191258E+00  0.26137471641E+02  0.00000000000E+00 0.  1.
</event>
<event>
 8    1  0.6380238E-009  0.1430152E+03  0.7561462E-02  0.1209328E+00
         -1   -1    0    0    0  501 -0.00000000000E+00  0.00000000000E+00  0.32433742417E+02  0.32433742417E+02  0.00000000000E+00 0. -1.
          1   -1    0    0  501    0  0.00000000000E+00 -0.00000000000E+00 -0.10316744653E+04  0.10316744653E+04  0.00000000000E+00 0.  1.
         25    2    1    2    0    0  0.90765411434E+02  0.87113004900E+02 -0.30603793424E+03  0.35374794377E+03  0.12510537553E+03 0.  0.
         23    2    1    2    0    0 -0.90765411434E+02 -0.87113004900E+02 -0.69320278863E+03  0.71036026394E+03  0.90854625014E+02 0.  0.
          5    1    3    3  502    0  0.93437872892E+02  0.80971140783E+02 -0.31697372021E+03  0.34025986163E+03  0.41800000000E+01 0.  1.
         -5    1    3    3    0  502 -0.26724614586E+01  0.61418641175E+01  0.10935785967E+02  0.13488082140E+02  0.41800000000E+01 0.  1.
        -11    1    4    4    0    0 -0.11122781094E+02 -0.72628026990E+02 -0.29495480873E+03  0.30396856048E+03  0.00000000000E+00 0.  1.
         11    1    4    4    0    0 -0.79642630339E+02 -0.14484977910E+02 -0.39824797989E+03  0.40639170346E+03  0.00000000000E+00 0. -1.
</event>
<event>
 8    1  0.6380238E-009  0.9236517E+02  0.7561462E-02  0.1297223E+00
         -1   -1    0    0    0  501 -0.00000000000E+00  0.00000000000E+00  0.18734336473E+02  0.18734336473E+02  0.00000000000E+00 0.  1.
          1   -1    0    0  501    0  0.00000000000E+00 -0.00000000000E+00 -0.56320668329E+03  0.56320668329E+03  0.00000000000E+00 0. -1.
         25    2    1    2    0    0  0.52835888197E+01  0.23133665880E+01 -0.38139671068E+03  0.40142789366E+03  0.12509050690E+03 0.  0.
         23    2    1    2    0    0 -0.52835888197E+01 -0.23133665880E+01 -0.16307563614E+03  0.18051312611E+03  0.77188455208E+02 0.  0.
          5    1    3    3  502    0 -0.56755534538E+02  0.15392377012E+02 -0.14222051956E+03  0.15395539793E+03  0.41800000000E+01 0. -1.
         -5    1    3    3    0  502  0.62039123357E+02 -0.13079010424E+02 -0.23917619112E+03  0.24747249573E+03  0.41800000000E+01 0. -1.
        -11    1    4    4    0    0 -0.31992063192E+02  0.89941314846E+01 -0.13870348730E+03  0.14262904297E+03  0.00000000000E+00 0. -1.
         11    1    4    4    0    0  0.26708474372E+02 -0.11307498073E+02 -0.24372148838E+02  0.37884083135E+02  0.00000000000E+00 0.  1.
</event>
<event>
 8    1  0.6380238E-009  0.7393786E+02  0.7561462E-02  0.1347192E+00
         -2   -1    0    0    0  501 -0.00000000000E+00  0.00000000000E+00  0.24677578823E+03  0.24677578823E+03  0.00000000000E+00 0.  1.
          2   -1    0    0  501    0  0.00000000000E+00 -0.00000000000E+00 -0.50788698033E+02  0.50788698033E+02  0.00000000000E+00 0. -1.
         25    2    1    2    0    0  0.16781562521E+02  0.21936699767E+02  0.12661564781E+03  0.18011106252E+03  0.12508250451E+03 0.  0.
         23    2    1    2    0    0 -0.16781562521E+02 -0.21936699767E+02  0.69371442385E+02  0.11745342374E+03  0.90664602199E+02 0.  0.
          5    1    3    3  502    0  0.13541270953E+02  0.39853440812E+02 -0.89747557046E+01  0.43239812714E+02  0.41800000000E+01 0. -1.
         -5    1    3    3    0  502  0.32402915681E+01 -0.17916741045E+02  0.13559040351E+03  0.13687124981E+03  0.41800000000E+01 0. -1.
        -11    1    4    4    0    0  0.30985674312E+02 -0.23833636968E+02  0.84145587237E+01  0.39986986160E+02  0.00000000000E+00 0. -1.
         11    1    4    4    0    0 -0.47767236832E+02  0.18969372008E+01  0.60956883661E+02  0.77466437578E+02  0.00000000000E+00 0.  1.
</event>
<event>
 8    1  0.6380238E-009  0.7745569E+02  0.7561462E-02  0.1336431E+00
          3   -1    0    0  501    0  0.00000000000E+00  0.00000000000E+00  0.18217384828E+03  0.18217384828E+03  0.00000000000E+00 0. -1.
         -3   -1    0    0    0  501 -0.00000000000E+00 -0.00000000000E+00 -0.75889560787E+02  0.75889560787E+02  0.00000000000E+00 0.  1.
         25    2    1    2    0    0 -0.13052715934E+01 -0.40409132763E+02  0.81532038884E+02  0.15468649721E+03  0.12508332147E+03 0.  0.
         23    2    1    2    0    0  0.13052715934E+01  0.40409132763E+02  0.24752248613E+02  0.10337691186E+03  0.91866807665E+02 0.  0.
          5    1    3    3  502    0 -0.10832270378E+02 -0.68129122328E+02  0.12543157973E+01  0.69122797244E+02  0.41800000000E+01 0.  1.
         -5    1    3    3    0  502  0.95269987846E+01  0.27719989565E+02  0.80277723086E+02  0.85563699962E+02  0.41800000000E+01 0.  1.
        -11    1    4    4    0    0 -0.18380903595E+02  0.13295887050E+02  0.54208313356E+02  0.58763759804E+02  0.00000000000E+00 0. -1.
         11    1    4    4    0    0  0.19686175188E+02  0.27113245713E+02 -0.29456064742E+02  0.44613152060E+02  0.00000000000E+00 0.  1.
</event>
<event>
 8    1  0.6380238E-009  0.1358024E+03  0.7561462E-02  0.1219091E+00
          2   -1    0    0  501    0  0.00000000000E+00  0.00000000000E+00  0.42959636137E+03  0.42959636137E+03  0.00000000000E+00 0. -1.
         -2   -1    0    0    0  501 -0.00000000000E+00 -0.00000000000E+00 -0.57940136227E+02  0.57940136227E+02  0.00000000000E+00 0.  1.
         25    2    1    2    0    0  0.10794360258E+03 -0.17362599995E+02  0.13919996458E+03  0.21674335879E+03  0.12509105573E+03 0.  0.
         23    2    1    2    0    0 -0.10794360258E+03  0.17362599995E+02  0.23245626056E+03  0.27079313881E+03  0.85672222658E+02 0.  0.
          5    1    3    3  502    0  0.12911647245E+03 -0.35174347742E+02  0.13162823639E+03  0.18775452914E+03  0.41800000000E+01 0.  1.
         -5    1    3    3    0  502 -0.21172869874E+02  0.17811747747E+02  0.75717281932E+01  0.28988829648E+02  0.41800000000E+01 0.  1.
        -11    1    4    4    0    0 -0.35849312975E+02  0.12980300983E+01  0.17095532683E+03  0.17467851012E+03  0.00000000000E+00 0.  1.
         11    1    4    4    0    0 -0.72094289605E+02  0.16064569897E+02  0.61500933728E+02  0.96114628694E+02  0.00000000000E+00 0. -1.
</event>
<event>
 8    1  0.6380238E-009  0.1006295E+03  0.7561462E-02  0.1278978E+00
         -2   -1    0    0    0  501 -0.00000000000E+00  0.00000000000E+00  0.22613661060E+02  0.22613661060E+02  0.00000000000E+00 0.  1.
          2   -1    0    0  501    0  0.00000000000E+00 -0.00000000000E+00 -0.71868040097E+03  0.71868040097E+03  0.00000000000E+00 0. -1.
         25    2    1    2    0    0 -0.24829768044E+02 -0.63264136059E+02 -0.47197593494E+03  0.49297834077E+03  0.12508993969E+03 0.  0.
         23    2    1    2    0    0  0.24829768044E+02  0.63264136059E+02 -0.22409080497E+03  0.24831572127E+03  0.82614407106E+02 0.  0.
          5    1    3    3  502    0 -0.56836085393E+02 -0.49127587566E+02 -0.43663837640E+03  0.44307381395E+03  0.41800000000E+01 0.  1.
         -5    1    3    3    0  502  0.32006317349E+02 -0.14136548492E+02 -0.35337558542E+02  0.49904526821E+02  0.41800000000E+01 0.  1.
        -11    1    4    4    0    0 -0.16675601370E+02  0.20224387350E+01 -0.57067593484E+01  0.17740717058E+02  0.00000000000E+00 0.  1.
         11    1    4    4    0    0  0.41505369414E+02  0.61241697324E+02 -0.21838404563E+03  0.23057500421E+03  0.00000000000E+00 0. -1.
</event>
<event>
 8    1  0.6380238E-009  0.1065033E+03  0.7561462E-02  0.1267186E+00
         -2   -1    0    0    0  501 -0.00000000000E+00  0.00000000000E+00  0.65267732922E+02  0.65267732922E+02  0.00000000000E+00 0. -1.
          2   -1    0    0  501    0  0.00000000000E+00 -0.00000000000E+00 -0.49908412691E+03  0.49908412691E+03  0.00000000000E+00 0.  1.
         25    2    1    2    0    0 -0.48426411576E+02  0.31931548180E+02 -0.43568022095E+03  0.45697887775E+03  0.12509076176E+03 0.  0.
         23    2    1    2    0    0  0.48426411576E+02 -0.31931548180E+02  0.18638269622E+01  0.10737298208E+03  0.90336827054E+02 0.  0.
          5    1    3    3  502    0  0.20582108783E+02  0.29844498976E+02 -0.35662723366E+02  0.51025675488E+02  0.41800000000E+01 0.  1.
         -5    1    3    3    0  502 -0.69008520359E+02  0.20870492035E+01 -0.40001749759E+03  0.40595320227E+03  0.41800000000E+01 0.  1.
        -11    1    4    4    0    0  0.73390362363E+02 -0.99076559952E+01  0.59783430071E+00  0.74058519705E+02  0.00000000000E+00 0.  1.
         11    1    4    4    0    0 -0.24963950787E+02 -0.22023892184E+02  0.12659926615E+01  0.33314462374E+02  0.00000000000E+00 0. -1.
</event>
<event>
 8    1  0.6380238E-009  0.1737518E+03  0.7561462E-02  0.1173991E+00
          2   -1    0    0  501    0  0.00000000000E+00  0.00000000000E+00  0.33959374250E+03  0.33959374250E+03  0.00000000000E+00 0.  1.
         -2   -1    0    0    0  501 -0.00000000000E+00 -0.00000000000E+00 -0.10817946233E+03  0.10817946233E+03  0.00000000000E+00 0. -1.
         25    2    1    2    0    0  0.10590843820E+03  0.11405606837E+03  0.88246260500E+02  0.21831023522E+03  0.12508625941E+03 0.  0.
         23    2    1    2    0    0 -0.10590843820E+03 -0.11405606837E+03  0.14316801967E+03  0.22946296962E+03  0.89054974903E+02 0.  0.
          5    1    3    3  502    0  0.69751683766E+01 -0.16855886620E+02  0.44743066195E+02  0.48499363503E+02  0.41800000000E+01 0. -1.
         -5    1    3    3    0  502  0.98933269828E+02  0.13091195499E+03  0.43503194305E+02  0.16981087172E+03  0.41800000000E+01 0. -1.
        -11    1    4    4    0    0 -0.54031092859E+02 -0.95167581773E+02  0.48128800023E+02  0.11955170015E+03  0.00000000000E+00 0.  1.
         11    1    4    4    0    0 -0.51877345346E+02 -0.18888486597E+02  0.95039219646E+02  0.10991126947E+03  0.00000000000E+00 0. -1.
</event>
<event>
 8    1  0.6380238E-009  0.9188515E+02  0.7561462E-02  0.1298350E+00
         -1   -1    0    0    0  501 -0.00000000000E+00  0.00000000000E+00  0.23954433665E+02  0.23954433665E+02  0.00000000000E+00 0.  1.
          1   -1    0    0  501    0  0.00000000000E+00 -0.00000000000E+00 -0.60187494372E+03  0.60187494372E+03  0.00000000000E+00 0. -1.
         25    2    1    2    0    0 -0.14805719062E+02 -0.11354340625E+02 -0.43848302533E+03  0.45635773253E+03  0.12508751402E+03 0.  0.
         23    2    1    2    0    0  0.14805719062E+02  0.11354340625E+02 -0.13943748473E+03  0.16947164486E+03  0.94497068195E+02 0.  0.
          5    1    3    3  502    0  0.38999099796E+01 -0.47743461972E+02 -0.38923834309E+03  0.39219715398E+03  0.41800000000E+01 0. -1.
         -5    1    3    3    0  502 -0.18705629042E+02  0.36389121347E+02 -0.49244682242E+02  0.64160578546E+02  0.41800000000E+01 0. -1.
        -11    1    4    4    0    0 -0.38326096555E+02  0.15327291214E+02 -0.77206875936E+02  0.87548370772E+02  0.00000000000E+00 0.  1.
         11    1    4    4    0    0  0.53131815617E+02 -0.39729505890E+01 -0.62230608789E+02  0.81923274089E+02  0.00000000000E+00 0. -1.
</event>
<event>
 8    1  0.6380238E-009  0.1370137E+03  0.7561462E-02  0.1217405E+00
         -1   -1    0    0    0  501 -0.00000000000E+00  0.00000000000E+00  0.26544167731E+02  0.26544167731E+02  0.00000000000E+00 0.  1.
          1   -1    0    0  501    0  0.00000000000E+00 -0.00000000000E+00 -0.10663169224E+04  0.10663169224E+04  0.00000000000E+00 0. -1.
         25    2    1    2    0    0 -0.12321898120E+03  0.26146472567E+02 -0.48482540674E+03  0.51630354302E+03  0.12508844133E+03 0.  0.
         23    2    1    2    0    0  0.12321898120E+03 -0.26146472567E+02 -0.55494734794E+03  0.57655754713E+03  0.92657923612E+02 0.  0.
          5    1    3    3  502    0 -0.42871487241E+02  0.51069065423E+01 -0.27235197299E+02  0.51217900041E+02  0.41800000000E+01 0. -1.
         -5    1    3    3    0  502 -0.80347493957E+02  0.21039566024E+02 -0.45759020944E+03  0.46508564298E+03  0.41800000000E+01 0. -1.
        -11    1    4    4    0    0  0.35643717316E+02 -0.45502073365E+02 -0.31786614076E+03  0.32307862311E+03  0.00000000000E+00 0. -1.
         11    1    4    4    0    0  0.87575263882E+02  0.19355600798E+02 -0.23708120718E+03  0.25347892402E+03  0.00000000000E+00 0.  1.
</event>
<event>
 8    1  0.6380238E-009  0.1849383E+03  0.7561462E-02  0.1163108E+00
          1   -1    0    0  501    0  0.00000000000E+00  0.00000000000E+00  0.51011319420E+03  0.51011319420E+03  0.00000000000E+00 0. -1.
         -1   -1    0    0    0  501 -0.00000000000E+00 -0.00000000000E+00 -0.94412087578E+02  0.94412087578E+02  0.00000000000E+00 0.  1.
         25    2    1    2    0    0  0.12523807252E+03  0.95513124802E+02  0.35898133693E+03  0.41148877905E+03  0.12509229874E+03 0.  0.
         23    2    1    2    0    0 -0.12523807252E+03 -0.95513124802E+02  0.56719769696E+02  0.19303650273E+03  0.96117778241E+02 0.  0.
          5    1    3    3  502    0  0.80465141258E+02 -0.13847585754E+02  0.12564224036E+03  0.14989943146E+03  0.41800000000E+01 0.  1.
         -5    1    3    3    0  502  0.44772931261E+02  0.10936071056E+03  0.23333909657E+03  0.26158934760E+03  0.41800000000E+01 0.  1.
        -11    1    4    4    0    0 -0.39905257748E+02 -0.70403448187E+02 -0.10416319600E+02  0.81593963175E+02  0.00000000000E+00 0.  1.
         11    1    4    4    0    0 -0.85332814771E+02 -0.25109676615E+02  0.67136089296E+02  0.11144253955E+03  0.00000000000E+00 0. -1.
</event>
<event>
 8    1  0.6380238E-009  0.1698376E+03  0.7561462E-02  0.1178017E+00
          1   -1    0    0  501    0  0.00000000000E+00  0.00000000000E+00  0.92867687590E+03  0.92867687590E+03  0.00000000000E+00 0. -1.
         -1   -1    0    0    0  501 -0.00000000000E+00 -0.00000000000E+00 -0.48020332374E+02  0.48020332374E+02  0.00000000000E+00 0.  1.
         25    2    1    2    0    0 -0.52194378001E+02  0.12897344773E+03  0.71990791973E+03  0.74382314390E+03  0.12508818165E+03 0.  0.
         23    2    1    2    0    0  0.52194378001E+02 -0.12897344773E+03  0.16074862379E+03  0.23287406437E+03  0.95035816892E+02 0.  0.
          5    1    3    3  502    0 -0.92387343775E+02  0.89860548955E+02  0.54725332407E+03  0.56224017346E+03  0.41800000000E+01 0.  1.
         -5    1    3    3    0  502  0.40192965775E+02  0.39112898779E+02  0.17265459566E+03  0.18158297043E+03  0.41800000000E+01 0.  1.
        -11    1    4    4    0    0  0.47498671484E+02 -0.31709358041E+02  0.17631046682E+02  0.59770067653E+02  0.00000000000E+00 0.  1.
         11    1    4    4    0    0  0.46957065169E+01 -0.97264089693E+02  0.14311757711E+03  0.17310399672E+03  0.00000000000E+00 0. -1.
</event>
<event>
 8    1  0.6380238E-009  0.7798750E+02  0.7561462E-02  0.1334862E+00
          1   -1    0    0  501    0  0.00000000000E+00  0.00000000000E+00  0.10263896185E+03  0.10263896185E+03  0.00000000000E+00 0. -1.
         -1   -1    0    0    0  501 -0.00000000000E+00 -0.00000000000E+00 -0.14520219433E+03  0.14520219433E+03  0.00000000000E+00 0.  1.
         25    2    1    2    0    0 -0.17037907394E+02  0.16093351594E+02  0.27612220582E+02  0.13023007107E+03  0.12509256745E+03 0.  0.
         23    2    1    2    0    0  0.17037907394E+02 -0.16093351594E+02 -0.70175453056E+02  0.11761108511E+03  0.91424760732E+02 0.  0.
          5    1    3    3  502    0  0.20407541124E+02  0.25281220097E+02 -0.40354815682E+02  0.51976834965E+02  0.41800000000E+01 0.  1.
         -5    1    3    3    0  502 -0.37445448518E+02 -0.91878685026E+01  0.67967036264E+02  0.78253236105E+02  0.41800000000E+01 0.  1.
        -11    1    4    4    0    0  0.40695801434E+02  0.16708026593E+02 -0.62525698000E+02  0.76451091015E+02  0.00000000000E+00 0.  1.
         11    1    4    4    0    0 -0.23657894040E+02 -0.32801378187E+02 -0.76497550556E+01  0.41159994094E+02  0.00000000000E+00 0. -1.
</event>
<event>
 8    1  0.6380238E-009  0.1042046E+03  0.7561462E-02  0.1271695E+00
          2   -1    0    0  501    0  0.00000000000E+00  0.00000000000E+00  0.15688108544E+02  0.15688108544E+02  0.00000000000E+00 0. -1.
         -2   -1    0    0    0  501 -0.00000000000E+00 -0.00000000000E+00 -0.12891151591E+04  0.12891151591E+04  0.00000000000E+00 0.  1.
         25    2    1    2    0    0 -0.47257141524E+02 -0.16169926128E+02 -0.10384193429E+04  0.10471190559E+04  0.12509549061E+03 0.  0.
         23    2    1    2    0    0  0.47257141524E+02  0.16169926128E+02 -0.23500770767E+03  0.25768421167E+03  0.93154851417E+02 0.  0.
          5    1    3    3  502    0  0.39443858254E+02  0.12704143872E+02 -0.40343935566E+03  0.40558352940E+03  0.41800000000E+01 0. -1.
         -5    1    3    3    0  502 -0.86700999778E+02 -0.28874070000E+02 -0.63497998720E+03  0.64153552655E+03  0.41800000000E+01 0. -1.
        -11    1    4    4    0    0  0.32467261493E+02 -0.18655712957E+02 -0.20763591134E+03  0.21098537953E+03  0.00000000000E+00 0.  1.
         11    1    4    4    0    0  0.14789880031E+02  0.34825639085E+02 -0.27371796323E+02  0.46698832137E+02  0.00000000000E+00 0. -1.
</event>
<event>
 8    1  0.6380238E-009  0.2777431E+03  0.7561462E-02  0.1096928E+00
          2   -1    0    0  501    0  0.00000000000E+00  0.00000000000E+00  0.77499664989E+03  0.77499664989E+03  0.00000000000E+00 0. -1.
         -2   -1    0    0    0  501 -0.00000000000E+00 -0.00000000000E+00 -0.11960464039E+03  0.11960464039E+03  0.00000000000E+00 0.  1.
         25    2    1    2    0    0 -0.17152546145E+03  0.21469198363E+03  0.44019042715E+03  0.53378691078E+03  0.12508885724E+03 0.  0.
         23    2    1    2    0    0  0.17152546145E+03 -0.21469198363E+03  0.21520158236E+03  0.36081437950E+03  0.91442132772E+02 0.  0.
          5    1    3    3  502    0 -0.12261303951E+03  0.14859458659E+03  0.39588040290E+03  0.44028749065E+03  0.41800000000E+01 0.  1.
         -5    1    3    3    0  502 -0.48912421938E+02  0.66097397040E+02  0.44310024244E+02  0.93499420125E+02  0.41800000000E+01 0.  1.
        -11    1    4    4    0    0  0.92941686761E+02 -0.15888779923E+03  0.96261172016E+02  0.20772506618E+03  0.00000000000E+00 0.  1.
         11    1    4    4    0    0  0.78583774689E+02 -0.55804184400E+02  0.11894041034E+03  0.15308931332E+03  0.00000000000E+00 0. -1.
</event>
<event>
 8    1  0.6380238E-009  0.1276412E+03  0.7561462E-02  0.1230998E+00
         -1   -1    0    0    0  501 -0.00000000000E+00  0.00000000000E+00  0.12138448455E+03  0.12138448455E+03  0.00000000000E+00 0.  1.
          1   -1    0    0  501    0  0.00000000000E+00 -0.00000000000E+00 -0.13659568392E+03  0.13659568392E+03  0.00000000000E+00 0. -1.
         25    2    1    2    0    0 -0.43374916335E+01  0.50824985619E+02 -0.23265196751E+02  0.13707772670E+03  0.12508813205E+03 0.  0.
         23    2    1    2    0    0  0.43374916335E+01 -0.50824985619E+02  0.80539973771E+01  0.12090244178E+03  0.10931852797E+03 0.  0.
          5    1    3    3  502    0 -0.64476613548E+02  0.26241396498E+02 -0.16174826624E+02  0.71588700234E+02  0.41800000000E+01 0.  1.
         -5    1    3    3    0  502  0.60139121915E+02  0.24583589121E+02 -0.70903701266E+01  0.65489026465E+02  0.41800000000E+01 0.  1.
        -11    1    4    4    0    0 -0.42622296320E+02 -0.58989482611E+02  0.15195590460E+01  0.72792364037E+02  0.00000000000E+00 0.  1.
         11    1    4    4    0    0  0.46959787954E+02  0.81644969925E+01  0.65344383312E+01  0.48110077740E+02  0.00000000000E+00 0. -1.
</event>
<event>
 8    1  0.6380238E-009  0.7848818E+02  0.7561462E-02  0.1333397E+00
         -2   -1    0    0    0  501 -0.00000000000E+00  0.00000000000E+00  0.28742506271E+03  0.28742506271E+03  0.00000000000E+00 0.  1.
          2   -1    0    0  501    0  0.00000000000E+00 -0.00000000000E+00 -0.56621085496E+02  0.56621085496E+02  0.00000000000E+00 0. -1.
         25    2    1    2    0    0  0.18126981953E+02 -0.47285402485E+02  0.18801645047E+03  0.23143420019E+03  0.12508839517E+03 0.  0.
         23    2    1    2    0    0 -0.18126981953E+02  0.47285402485E+02  0.42787526736E+02  0.11261194801E+03  0.91028466028E+02 0.  0.
          5    1    3    3  502    0 -0.39590488120E+01 -0.13279965058E+02 -0.17044406295E+02  0.22361031402E+02  0.41800000000E+01 0. -1.
         -5    1    3    3    0  502  0.22086030765E+02 -0.34005437428E+02  0.20506085677E+03  0.20907316879E+03  0.41800000000E+01 0. -1.
        -11    1    4    4    0    0 -0.33349103152E+02 -0.15757431002E+02  0.27424467134E+02  0.45962601214E+02  0.00000000000E+00 0. -1.
         11    1    4    4    0    0  0.15222121199E+02  0.63042833487E+02  0.15363059602E+02  0.66649346795E+02  0.00000000000E+00 0.  1.
</event>
<event>
 8    1  0.6380238E-009  0.6901327E+02  0.7561462E-02  0.1363481E+00
          2   -1    0    0  501    0  0.00000000000E+00  0.00000000000E+00  0.65506625315E+03  0.65506625315E+03  0.00000000000E+00 0.  1.
         -2   -1    0    0    0  501 -0.00000000000E+00 -0.00000000000E+00 -0.33490576975E+02  0.33490576975E+02  0.00000000000E+00 0. -1.
         25    2    1    2    0    0  0.14119345177E+02  0.51896969235E+02  0.53682017552E+03  0.55382037334E+03  0.12509377987E+03 0.  0.
         23    2    1    2    0    0 -0.14119345177E+02 -0.51896969235E+02  0.84755500657E+02  0.13473645678E+03  0.89876396069E+02 0.  0.
          5    1    3    3  502    0  0.12038939251E+02  0.46454058113E+02  0.54252345904E+03  0.54465777474E+03  0.41800000000E+01 0.  1.
         -5    1    3    3    0  502  0.20804059264E+01  0.54429111218E+01 -0.57032835213E+01  0.91625986064E+01  0.41800000000E+01 0.  1.
        -11    1    4    4    0    0  0.12949209040E+02 -0.54003731005E+02  0.91249500087E+02  0.10682020522E+03  0.00000000000E+00 0.  1.
         11    1    4    4    0    0 -0.27068554217E+02  0.21067617706E+01 -0.64939994304E+01  0.27916251560E+02  0.00000000000E+00 0. -1.
</event>
<event>
 8    1  0.6380238E-009  0.2078365E+03  0.7561462E-02  0.1143291E+00
         -1   -1    0    0    0  501 -0.00000000000E+00  0.00000000000E+00  0.50692716428E+02  0.50692716428E+02  0.00000000000E+00 0.  1.
          1   -1    0    0  501    0  0.00000000000E+00 -0.00000000000E+00 -0.93273646027E+03  0.93273646027E+03  0.00000000000E+00 0. -1.
         25    2    1    2    0    0  0.16476354455E+03  0.85930452135E+02 -0.53223247523E+03  0.57744890374E+03  0.12507901714E+03 0.  0.
         23    2    1    2    0    0 -0.16476354455E+03 -0.85930452135E+02 -0.34981126861E+03  0.40598027296E+03  0.88999944750E+02 0.  0.
          5    1    3    3  502    0  0.15645501576E+03  0.36219640934E+02 -0.30570657231E+03  0.34534622497E+03  0.41800000000E+01 0. -1.
         -5    1    3    3    0  502  0.83085287867E+01  0.49710811201E+02 -0.22652590292E+03  0.23210267877E+03  0.41800000000E+01 0. -1.
        -11    1    4    4    0    0 -0.94314240781E+01 -0.41974016202E+02 -0.95736429447E+02  0.10495824751E+03  0.00000000000E+00 0. -1.
         11    1    4    4    0    0 -0.15533212047E+03 -0.43956435933E+02 -0.25407483917E+03  0.30102202545E+03  0.00000000000E+00 0.  1.
</event>
<event>
 7    1  0.6380238E-009  0.1422604E+03  0.7561462E-02  0.1210319E+00
         -1   -1    0    0    0  501 -0.00000000000E+00  0.00000000000E+00  0.36140167717E+02  0.36140167717E+02  0.00000000000E+00 0.  1.
          1   -1    0    0  501    0  0.00000000000E+00 -0.00000000000E+00 -0.10530901826E+04  0.10530901826E+04  0.00000000000E+00 0. -1.
         25    2    1    2    0    0  0.37568932645E+02  0.91113353488E+02 -0.72596211219E+03  0.74322423006E+03  0.12509276530E+03 0.  0.
          5    1    3    3  502    0 -0.31175640076E+02  0.36766067109E+02 -0.99412359792E+02  0.11056199123E+03  0.41800000000E+01 0.  1.
         -5    1    3    3    0  502  0.68744572721E+02  0.54347286378E+02 -0.62654975240E+03  0.63266223883E+03  0.41800000000E+01 0.  1.
        -11    1    1    2    0    0 -0.76561424899E+02 -0.71498569294E+02 -0.28282427927E+03  0.30160117729E+03  0.00000000000E+00 0. -1.
         11    1    1    2    0    0  0.38992492254E+02 -0.19614784193E+02 -0.81636233956E+01  0.44404942946E+02  0.00000000000E+00 0.  1.
</event>
<event>
 8    1  0.6380238E-009  0.1139470E+03  0.7561462E-02  0.1253430E+00
         -1   -1    0    0    0  501 -0.00000000000E+00  0.00000000000E+00  0.53849728206E+03  0.53849728206E+03  0.00000000000E+00 0.  1.
          1   -1    0    0  501    0  0.00000000000E+00 -0.00000000000E+00 -0.47563131408E+02  0.47563131408E+02  0.00000000000E+00 0. -1.
         25    2    1    2    0    0  0.49922083974E+02 -0.79378806419E+02  0.12896211922E+03  0.20266193107E+03  0.12508965079E+03 0.  0.
         23    2    1    2    0    0 -0.49922083974E+02  0.79378806419E+02  0.36197203144E+03  0.38339848240E+03  0.84719746144E+02 0.  0.
          5    1    3    3  502    0  0.44983013641E+01 -0.82245212913E+02  0.13329987083E+03  0.15675087791E+03  0.41800000000E+01 0. -1.
         -5    1    3    3    0  502  0.45423782609E+02  0.28664064942E+01 -0.43377516188E+01  0.45911053155E+02  0.41800000000E+01 0. -1.
        -11    1    4    4    0    0 -0.19900789999E+02  0.65673712583E+01  0.10940522924E+02  0.23640364838E+02  0.00000000000E+00 0. -1.
         11    1    4    4    0    0 -0.30021293974E+02  0.72811435161E+02  0.35103150851E+03  0.35975811756E+03  0.00000000000E+00 0.  1.
</event>
<event>
 8    1  0.6380238E-009  0.1143730E+03  0.7561462E-02  0.1252680E+00
          1   -1    0    0  501    0  0.00000000000E+00  0.00000000000E+00  0.60858847533E+02  0.60858847533E+02  0.00000000000E+00 0. -1.
         -1   -1    0    0    0  501 -0.00000000000E+00 -0.00000000000E+00 -0.28062460870E+03  0.28062460870E+03  0.00000000000E+00 0.  1.
         25    2    1    2    0    0  0.60746371395E+02 -0.97933906627E+01 -0.17245761777E+03  0.22175392586E+03  0.12508853493E+03 0.  0.
         23    2    1    2    0    0 -0.60746371395E+02  0.97933906627E+01 -0.47308143401E+02  0.11972953037E+03  0.91165058401E+02 0.  0.
          5    1    3    3  502    0  0.48284144156E+02 -0.65425570708E+02 -0.11295741783E+03  0.13924336437E+03  0.41800000000E+01 0.  1.
         -5    1    3    3    0  502  0.12462227239E+02  0.55632180045E+02 -0.59500199941E+02  0.82510561490E+02  0.41800000000E+01 0.  1.
        -11    1    4    4    0    0 -0.54012464604E+02  0.34807563749E+02 -0.62549586085E+02  0.89673650234E+02  0.00000000000E+00 0.  1.
         11    1    4    4    0    0 -0.67339067905E+01 -0.25014173086E+02  0.15241442685E+02  0.30055880140E+02  0.00000000000E+00 0. -1.
</event>
<event>
 8    1  0.6380238E-009  0.1305513E+03  0.7561462E-02  0.1226640E+00
         -2   -1    0    0    0  501 -0.00000000000E+00  0.00000000000E+00  0.63731975437E+03  0.63731975437E+03  0.00000000000E+00 0.  1.
          2   -1    0    0  501    0  0.00000000000E+00 -0.00000000000E+00 -0.42003493522E+02  0.42003493522E+02  0.00000000000E+00 0. -1.
         25    2    1    2    0    0 -0.79352067674E+02  0.83642708254E+02  0.40888600851E+03  0.44287465774E+03  0.12512929802E+03 0.  0.
         23    2    1    2    0    0  0.79352067674E+02 -0.83642708254E+02  0.18643025233E+03  0.23644859015E+03  0.88650118506E+02 0.  0.
          5    1    3    3  502    0 -0.68849361394E+02  0.78318487677E+02  0.14478065506E+03  0.17847389321E+03  0.41800000000E+01 0. -1.
         -5    1    3    3    0  502 -0.10502706280E+02  0.53242205762E+01  0.26410535345E+03  0.26440076453E+03  0.41800000000E+01 0. -1.
        -11    1    4    4    0    0  0.32527844580E+02  0.14416935219E+02  0.59809882926E+02  0.69592605856E+02  0.00000000000E+00 0. -1.
         11    1    4    4    0    0  0.46824223093E+02 -0.98059643473E+02  0.12662036941E+03  0.16685598430E+03  0.00000000000E+00 0.  1.
</event>
<event>
 8    1  0.6380238E-009  0.1151322E+03  0.7561462E-02  0.1251350E+00
         -2   -1    0    0    0  501 -0.00000000000E+00  0.00000000000E+00  0.17460797010E+02  0.17460797010E+02  0.00000000000E+00 0.  1.
          2   -1    0    0  501    0  0.00000000000E+00 -0.00000000000E+00 -0.85782979585E+03  0.85782979585E+03  0.00000000000E+00 0. -1.
         25    2    1    2    0    0 -0.20489476318E+02 -0.25644099506E+02 -0.41377272397E+03  0.43351081998E+03  0.12508527275E+03 0.  0.
         23    2    1    2    0    0  0.20489476318E+02  0.25644099506E+02 -0.42659627487E+03  0.44177977288E+03  0.11003430153E+03 0.  0.
          5    1    3    3  502    0 -0.18479165067E+02 -0.73290749090E+02 -0.18701670454E+03  0.20175661977E+03  0.41800000000E+01 0. -1.
         -5    1    3    3    0  502 -0.20103112510E+01  0.47646649584E+02 -0.22675601942E+03  0.23175420021E+03  0.41800000000E+01 0. -1.
        -11    1    4    4    0    0  0.44484665765E+02  0.53728054385E+02 -0.34818484756E+03  0.35510319259E+03  0.00000000000E+00 0.  1.
         11    1    4    4    0    0 -0.23995189447E+02 -0.28083954879E+02 -0.78411427311E+02  0.86676580292E+02  0.00000000000E+00 0. -1.
</event>
<event>
 8    1  0.6380238E-009  0.9297177E+02  0.7561462E-02  0.1295811E+00
         -1   -1    0    0    0  501 -0.00000000000E+00  0.00000000000E+00  0.26901515555E+02  0.26901515555E+02  0.00000000000E+00 0.  1.
          1   -1    0    0  501    0  0.00000000000E+00 -0.00000000000E+00 -0.46877401066E+03  0.46877401066E+03  0.00000000000E+00 0. -1.
         25    2    1    2    0    0  0.17121499317E+02  0.12255406448E+02 -0.28639178860E+03  0.31322582835E+03  0.12508725852E+03 0.  0.
         23    2    1    2    0    0 -0.17121499317E+02 -0.12255406448E+02 -0.15548070651E+03  0.18244969786E+03  0.93114453382E+02 0.  0.
          5    1    3    3  502    0 -0.32207317500E+02 -0.29314792150E+02 -0.20327334342E+03  0.20792833593E+03  0.41800000000E+01 0. -1.
         -5    1    3    3    0  502  0.49328816817E+02  0.41570198599E+02 -0.83118445178E+02  0.10529749241E+03  0.41800000000E+01 0. -1.
        -11    1    4    4    0    0 -0.31209763871E+02 -0.37408826041E+02 -0.38860091890E+02  0.62318346964E+02  0.00000000000E+00 0.  1.
         11    1    4    4    0    0  0.14088264554E+02  0.25153419593E+02 -0.11662061462E+03  0.12013135090E+03  0.00000000000E+00 0. -1.
</event>
<event>
 8    1  0.6380238E-009  0.1848752E+03  0.7561462E-02  0.1163167E+00
          1   -1    0    0  501    0  0.00000000000E+00  0.00000000000E+00  0.98115532512E+03  0.98115532512E+03  0.00000000000E+00 0. -1.
         -1   -1    0    0    0  501 -0.00000000000E+00 -0.00000000000E+00 -0.53245523764E+02  0.53245523764E+02  0.00000000000E+00 0.  1.
         25    2    1    2    0    0 -0.75306625789E+02 -0.14090175817E+03  0.75511014093E+03  0.78189713486E+03  0.12508961283E+03 0.  0.
         23    2    1    2    0    0  0.75306625789E+02  0.14090175817E+03  0.17279966043E+03  0.25250371402E+03  0.91509614827E+02 0.  0.
          5    1    3    3  502    0  0.26745971897E+02 -0.78762108447E+02  0.30010211763E+03  0.31144432913E+03  0.41800000000E+01 0. -1.
         -5    1    3    3    0  502 -0.10205259769E+03 -0.62139649725E+02  0.45500802330E+03  0.47045280574E+03  0.41800000000E+01 0. -1.
        -11    1    4    4    0    0  0.59923340888E+02  0.60880596827E+02  0.34797500951E+02  0.92239470540E+02  0.00000000000E+00 0.  1.
         11    1    4    4    0    0  0.15383284902E+02  0.80021161345E+02  0.13800215948E+03  0.16026424348E+03  0.00000000000E+00 0. -1.
</event>
<event>
 8    1  0.6380238E-009  0.1036321E+03  0.7561462E-02  0.1272838E+00
         -2   -1    0    0    0  501 -0.00000000000E+00  0.00000000000E+00  0.15163850802E+03  0.15163850802E+03  0.00000000000E+00 0. -1.
          2   -1    0    0  501    0  0.00000000000E+00 -0.00000000000E+00 -0.11855149511E+03  0.11855149511E+03  0.00000000000E+00 0.  1.
         25    2    1    2    0    0  0.57532986469E+02  0.28134037201E+02 -0.29349113789E+02  0.14356589920E+03  0.12509287890E+03 0.  0.
         23    2    1    2    0    0 -0.57532986469E+02 -0.28134037201E+02  0.62436126699E+02  0.12662410393E+03  0.89631608250E+02 0.  0.
          5    1    3    3  502    0  0.35188987490E+02 -0.30012699843E+02  0.31715652607E+02  0.56235060351E+02  0.41800000000E+01 0.  1.
         -5    1    3    3    0  502  0.22343998979E+02  0.58146737044E+02 -0.61064766396E+02  0.87330838850E+02  0.41800000000E+01 0.  1.
        -11    1    4    4    0    0 -0.18665180711E+02 -0.50298845468E+02  0.50949611863E+01  0.53891756846E+02  0.00000000000E+00 0.  1.
         11    1    4    4    0    0 -0.38867805758E+02  0.22164808267E+02  0.57341165512E+02  0.72732347084E+02  0.00000000000E+00 0. -1.
</event>
<event>
 8    1  0.6380238E-009  0.8714516E+02  0.7561462E-02  0.1309916E+00
          2   -1    0    0  501    0  0.00000000000E+00  0.00000000000E+00  0.17001091347E+04  0.17001091347E+04  0.00000000000E+00 0. -1.
         -2   -1    0    0    0  501 -0.00000000000E+00 -0.00000000000E+00 -0.12292645346E+02  0.12292645346E+02  0.00000000000E+00 0.  1.
         25    2    1    2    0    0 -0.75374069187E+01  0.31085130232E+02  0.14422665524E+04  0.14480340488E+04  0.12508677251E+03 0.  0.
         23    2    1    2    0    0  0.75374069187E+01 -0.31085130232E+02  0.24554993699E+03  0.26436773123E+03  0.92587406984E+02 0.  0.
          5    1    3    3  502    0  0.63259991367E+00  0.52755151860E+02  0.13864442609E+04  0.13874540234E+04  0.41800000000E+01 0.  1.
         -5    1    3    3    0  502 -0.81700068324E+01 -0.21670021628E+02  0.55822291489E+02  0.60580025389E+02  0.41800000000E+01 0.  1.
        -11    1    4    4    0    0 -0.20982990939E+02 -0.56100584409E+02  0.15674035815E+03  0.16779481921E+03  0.00000000000E+00 0.  1.
         11    1    4    4    0    0  0.28520397857E+02  0.25015454177E+02  0.88809578837E+02  0.96572912014E+02  0.00000000000E+00 0. -1.
</event>
<event>
 8    1  0.6380238E-009  0.1109857E+03  0.7561462E-02  0.1258755E+00
          1   -1    0    0  501    0  0.00000000000E+00  0.00000000000E+00  0.62818440993E+03  0.62818440993E+03  0.00000000000E+00 0. -1.
         -1   -1    0    0    0  501 -0.00000000000E+00 -0.00000000000E+00 -0.30953852677E+02  0.30953852677E+02  0.00000000000E+00 0.  1.
         25    2    1    2    0    0  0.78021717117E+01 -0.84622915291E+02  0.36814504102E+03  0.39800051572E+03  0.12510686477E+03 0.  0.
         23    2    1    2    0    0 -0.78021717117E+01  0.84622915291E+02  0.22908551623E+03  0.26113774688E+03  0.92145740125E+02 0.  0.
          5    1    3    3  502    0 -0.16943518164E+02 -0.55906500081E+02  0.48368713207E+02  0.75958043527E+02  0.41800000000E+01 0.  1.
         -5    1    3    3    0  502  0.24745689876E+02 -0.28716415210E+02  0.31977632781E+03  0.32204247220E+03  0.41800000000E+01 0.  1.
        -11    1    4    4    0    0 -0.37073341958E+02  0.14586747636E+01  0.63565909982E+02  0.73601530744E+02  0.00000000000E+00 0. -1.
         11    1    4    4    0    0  0.29271170246E+02  0.83164240527E+02  0.16551960625E+03  0.18753621614E+03  0.00000000000E+00 0.  1.
</event>
<event>
 8    1  0.6380238E-009  0.2006117E+03  0.7561462E-02  0.1149224E+00
          1   -1    0    0  501    0  0.00000000000E+00  0.00000000000E+00  0.67341982827E+03  0.67341982827E+03  0.00000000000E+00 0. -1.
         -1   -1    0    0    0  501 -0.00000000000E+00 -0.00000000000E+00 -0.84643082286E+02  0.84643082286E+02  0.00000000000E+00 0.  1.
         25    2    1    2    0    0 -0.18216247501E+03  0.44185196640E+02  0.14437956558E+03  0.26763537987E+03  0.12509092173E+03 0.  0.
         23    2    1    2    0    0  0.18216247501E+03 -0.44185196640E+02  0.44439718040E+03  0.49042753068E+03  0.88852743338E+02 0.  0.
          5    1    3    3  502    0 -0.73904043531E+02 -0.32045391839E+02  0.14190017160E+02  0.81899595697E+02  0.41800000000E+01 0. -1.
         -5    1    3    3    0  502 -0.10825843147E+03  0.76230588480E+02  0.13018954842E+03  0.18573578417E+03  0.41800000000E+01 0. -1.
        -11    1    4    4    0    0  0.12824494106E+03 -0.23714607763E+02  0.38969161138E+03  0.41093636917E+03  0.00000000000E+00 0. -1.
         11    1    4    4    0    0  0.53917533949E+02 -0.20470588877E+02  0.54705569021E+02  0.79491161509E+02  0.00000000000E+00 0.  1.
</event>
<event>
 8    1  0.6380238E-009  0.1289188E+03  0.7561462E-02  0.1229069E+00
          2   -1    0    0  501    0  0.00000000000E+00  0.00000000000E+00  0.80652502948E+03  0.80652502948E+03  0.00000000000E+00 0. -1.
         -2   -1    0    0    0  501 -0.00000000000E+00 -0.00000000000E+00 -0.22436853974E+02  0.22436853974E+02  0.00000000000E+00 0.  1.
         25    2    1    2    0    0  0.67704501735E+02  0.28916032381E+02  0.52453739750E+03  0.54424557105E+03  0.12507487257E+03 0.  0.
         23    2    1    2    0    0 -0.67704501735E+02 -0.28916032381E+02  0.25955077800E+03  0.28471631240E+03  0.90976566770E+02 0.  0.
          5    1    3    3  502    0  0.88347234328E+02 -0.17383533745E+02  0.39327287321E+03  0.40347050234E+03  0.41800000000E+01 0.  1.
         -5    1    3    3    0  502 -0.20642732594E+02  0.46299566126E+02  0.13126452429E+03  0.14077506871E+03  0.41800000000E+01 0.  1.
        -11    1    4    4    0    0 -0.80105564459E+02  0.54586370709E+01  0.17051362106E+03  0.18847173036E+03  0.00000000000E+00 0.  1.
         11    1    4    4    0    0  0.12401062725E+02 -0.34374669452E+02  0.89037156941E+02  0.96244582044E+02  0.00000000000E+00 0. -1.
</event>
<event>
 8    1  0.6380238E-009  0.1235514E+03  0.7561462E-02  0.1237351E+00
         -1   -1    0    0    0  501 -0.00000000000E+00  0.00000000000E+00  0.30316425407E+03  0.30316425407E+03  0.00000000000E+00 0.  1.
          1   -1    0    0  501    0  0.00000000000E+00 -0.00000000000E+00 -0.65032927163E+02  0.65032927163E+02  0.00000000000E+00 0. -1.
         25    2    1    2    0    0  0.28980022869E+02 -0.63861144131E+02  0.58766815961E+02  0.15500225440E+03  0.12511623698E+03 0.  0.
         23    2    1    2    0    0 -0.28980022869E+02  0.63861144131E+02  0.17936451094E+03  0.21319492683E+03  0.91445948971E+02 0.  0.
          5    1    3    3  502    0  0.64087108697E+02 -0.65605409823E+01  0.59315665812E+02  0.87669942454E+02  0.41800000000E+01 0. -1.
         -5    1    3    3    0  502 -0.35107085828E+02 -0.57300603148E+02 -0.54884985077E+00  0.67332311951E+02  0.41800000000E+01 0. -1.
        -11    1    4    4    0    0 -0.60585963030E+02  0.26089833821E+02  0.10045927920E+03  0.12018071860E+03  0.00000000000E+00 0. -1.
         11    1    4    4    0    0  0.31605940161E+02  0.37771310309E+02  0.78905231743E+02  0.93014208228E+02  0.00000000000E+00 0.  1.
</event>
<event>
 8    1  0.6380238E-009  0.8697314E+02  0.7561462E-02  0.1310352E+00
         -1   -1    0    0    0  501 -0.00000000000E+00  0.00000000000E+00  0.10126317593E+03  0.10126317593E+03  0.00000000000E+00 0.  1.
          1   -1    0    0  501    0  0.00000000000E+00 -0.00000000000E+00 -0.13682522833E+03  0.13682522833E+03  0.00000000000E+00 0. -1.
         25    2    1    2    0    0 -0.39918766449E+01 -0.40068459993E+02 -0.39342618268E+02  0.13717397183E+03  0.12508972927E+03 0.  0.
         23    2    1    2    0    0  0.39918766449E+01  0.40068459993E+02  0.37805658647E+01  0.10091443244E+03  0.92455467287E+02 0.  0.
          5    1    3    3  502    0 -0.90425691222E+00 -0.68245088207E+02 -0.68152350346E+02  0.96542348235E+02  0.41800000000E+01 0.  1.
         -5    1    3    3    0  502 -0.30876197327E+01  0.28176628214E+02  0.28809732079E+02  0.40631623590E+02  0.41800000000E+01 0.  1.
        -11    1    4    4    0    0 -0.28076836426E+02  0.35265594247E+01  0.33562494675E+02  0.43899731364E+02  0.00000000000E+00 0.  1.
         11    1    4    4    0    0  0.32068713071E+02  0.36541900568E+02 -0.29781928810E+02  0.57014701076E+02  0.00000000000E+00 0. -1.
</event>
<event>
 8    1  0.6380238E-009  0.1059008E+03  0.7561462E-02  0.1268355E+00
         -3   -1    0    0    0  501 -0.00000000000E+00  0.00000000000E+00  0.89755470411E+02  0.89755470411E+02  0.00000000000E+00 0.  1.
          3   -1    0    0  501    0  0.00000000000E+00 -0.00000000000E+00 -0.19380809650E+03  0.19380809650E+03  0.00000000000E+00 0. -1.
         25    2    1    2    0    0 -0.70241971358E+02 -0.23376846964E+02 -0.60397233815E+02  0.15741083579E+03  0.12509969568E+03 0.  0.
         23    2    1    2    0    0  0.70241971358E+02  0.23376846964E+02 -0.43655392274E+02  0.12615273112E+03  0.92348832042E+02 0.  0.
          5    1    3    3  502    0  0.30663545882E+02 -0.13441703644E+02  0.84485654662E+01  0.34781936423E+02  0.41800000000E+01 0. -1.
         -5    1    3    3    0  502 -0.10090551724E+03 -0.99351433196E+01 -0.68845799281E+02  0.12262889937E+03  0.41800000000E+01 0. -1.
        -11    1    4    4    0    0  0.16658838677E+02 -0.28885490878E+01  0.28119518877E+02  0.32811095132E+02  0.00000000000E+00 0.  1.
         11    1    4    4    0    0  0.53583132681E+02  0.26265396052E+02 -0.71774911151E+02  0.93341635986E+02  0.00000000000E+00 0. -1.
</event>
<event>
 8    1  0.6380238E-009  0.1644845E+03  0.7561462E-02  0.1183725E+00
         -2   -1    0    0    0  501 -0.00000000000E+00  0.00000000000E+00  0.12773597021E+03  0.12773597021E+03  0.00000000000E+00 0.  1.
          2   -1    0    0  501    0  0.00000000000E+00 -0.00000000000E+00 -0.21745280538E+03  0.21745280538E+03  0.00000000000E+00 0. -1.
         25    2    1    2    0    0  0.10962767670E+03 -0.64820370781E+02 -0.38382641714E+02  0.18259364522E+03  0.12508918467E+03 0.  0.
         23    2    1    2    0    0 -0.10962767670E+03  0.64820370781E+02 -0.51334193456E+02  0.16259513038E+03  0.87075077025E+02 0.  0.
          5    1    3    3  502    0  0.23679019959E+02  0.36095893977E+02 -0.22969978359E+02  0.49078527423E+02  0.41800000000E+01 0. -1.
         -5    1    3    3    0  502  0.85948656741E+02 -0.10091626476E+03 -0.15412663356E+02  0.13351511780E+03  0.41800000000E+01 0. -1.
        -11    1    4    4    0    0 -0.42961802634E+02  0.74112931501E+02 -0.18222950999E+02  0.87581499441E+02  0.00000000000E+00 0.  1.
         11    1    4    4    0    0 -0.66665874066E+02 -0.92925607202E+01 -0.33111242457E+02  0.75013630939E+02  0.00000000000E+00 0. -1.
</event>
<event>
 8    1  0.6380238E-009  0.1817799E+03  0.7561462E-02  0.1166092E+00
         -2   -1    0    0    0  501 -0.00000000000E+00  0.00000000000E+00  0.18421549363E+03  0.18421549363E+03  0.00000000000E+00 0.  1.
          2   -1    0    0  501    0  0.00000000000E+00 -0.00000000000E+00 -0.21407779848E+03  0.21407779848E+03  0.00000000000E+00 0. -1.
         25    2    1    2    0    0 -0.16363096611E+03 -0.46591954189E+01 -0.42510989934E+02  0.21038143259E+03  0.12512538408E+03 0.  0.
         23    2    1    2    0    0  0.16363096611E+03  0.46591954189E+01  0.12648685080E+02  0.18791185952E+03  0.91400637532E+02 0.  0.
          5    1    3    3  502    0  0.35944828564E+01  0.28723685385E+02  0.11546202783E+02  0.31444516339E+02  0.41800000000E+01 0. -1.
         -5    1    3    3    0  502 -0.16722544897E+03 -0.33382880804E+02 -0.54057192717E+02  0.17893691625E+03  0.41800000000E+01 0. -1.
        -11    1    4    4    0    0  0.15951738483E+02 -0.59626654018E+00  0.34990553382E+02  0.38459749354E+02  0.00000000000E+00 0.  1.
         11    1    4    4    0    0  0.14767922763E+03  0.52554619591E+01 -0.22341868302E+02  0.14945211017E+03  0.00000000000E+00 0. -1.
</event>
<event>
 8    1  0.6380238E-009  0.9358381E+02  0.7561462E-02  0.1294398E+00
         -2   -1    0    0    0  501 -0.00000000000E+00  0.00000000000E+00  0.59766614875E+02  0.59766614875E+02  0.00000000000E+00 0.  1.
          2   -1    0    0  501    0  0.00000000000E+00 -0.00000000000E+00 -0.24458597298E+03  0.24458597298E+03  0.00000000000E+00 0. -1.
         25    2    1    2    0    0  0.28054708145E+02  0.27495350674E+02 -0.14954400634E+03  0.19887446555E+03  0.12507830451E+03 0.  0.
         23    2    1    2    0    0 -0.28054708145E+02 -0.27495350674E+02 -0.35275351761E+02  0.10547812230E+03  0.91313870164E+02 0.  0.
          5    1    3    3  502    0 -0.47904454915E+02  0.68266532278E+01 -0.80826191716E+02  0.94296265368E+02  0.41800000000E+01 0.  1.
         -5    1    3    3    0  502  0.75959163060E+02  0.20668697446E+02 -0.68717814627E+02  0.10457820019E+03  0.41800000000E+01 0.  1.
        -11    1    4    4    0    0 -0.11672070874E+02 -0.38368476491E+02  0.21422519144E+02  0.45467587941E+02  0.00000000000E+00 0.  1.
         11    1    4    4    0    0 -0.16382637271E+02  0.10873125816E+02 -0.56697870905E+02  0.60010534359E+02  0.00000000000E+00 0. -1.
</event>
<event>
 8    1  0.6380238E-009  0.1021908E+03  0.7561462E-02  0.1275755E+00
          1   -1    0    0  501    0  0.00000000000E+00  0.00000000000E+00  0.10745546756E+04  0.10745546756E+04  0.00000000000E+00 0. -1.
         -1   -1    0    0    0  501 -0.00000000000E+00 -0.00000000000E+00 -0.17772411544E+02  0.17772411544E+02  0.00000000000E+00 0.  1.
         25    2    1    2    0    0  0.78463053518E+02 -0.16839249281E+02  0.68365207166E+03  0.69961754833E+03  0.12507816662E+03 0.  0.
         23    2    1    2    0    0 -0.78463053518E+02  0.16839249281E+02  0.37313019238E+03  0.39270953880E+03  0.92491244517E+02 0.  0.
          5    1    3    3  502    0  0.41121925418E+02 -0.18059893621E+02  0.61177467648E+02  0.76008732758E+02  0.41800000000E+01 0.  1.
         -5    1    3    3    0  502  0.37341128099E+02  0.12206443397E+01  0.62247460401E+03  0.62360881557E+03  0.41800000000E+01 0.  1.
        -11    1    4    4    0    0 -0.42698471557E+02  0.54836110943E+02  0.23457921882E+03  0.24465806433E+03  0.00000000000E+00 0. -1.
         11    1    4    4    0    0 -0.35764581961E+02 -0.37996861661E+02  0.13855097356E+03  0.14805147447E+03  0.00000000000E+00 0.  1.
</event>
<event>
 8    1  0.6380238E-009  0.2083534E+03  0.7561462E-02  0.1142877E+00
          2   -1    0    0  501    0  0.00000000000E+00  0.00000000000E+00  0.10295485174E+04  0.10295485174E+04  0.00000000000E+00 0. -1.
         -2   -1    0    0    0  501 -0.00000000000E+00 -0.00000000000E+00 -0.78795388649E+02  0.78795388649E+02  0.00000000000E+00 0.  1.
         25    2    1    2    0    0 -0.19709696088E+03  0.12519423263E+02  0.82758477601E+03  0.85996903826E+03  0.12508492045E+03 0.  0.
         23    2    1    2    0    0  0.19709696088E+03 -0.12519423263E+02  0.12316835278E+03  0.24837486783E+03  0.86693044103E+02 0.  0.
          5    1    3    3  502    0 -0.79059925292E+02  0.48165550086E+02  0.52640694318E+03  0.53450176261E+03  0.41800000000E+01 0.  1.
         -5    1    3    3    0  502 -0.11803703559E+03 -0.35646126823E+02  0.30117783283E+03  0.32546727565E+03  0.41800000000E+01 0.  1.
        -11    1    4    4    0    0  0.53144777131E+02 -0.19327549786E+02 -0.32890631452E+01  0.56645736409E+02  0.00000000000E+00 0.  1.
         11    1    4    4    0    0  0.14395218375E+03  0.68081265232E+01  0.12645741592E+03  0.19172913142E+03  0.00000000000E+00 0. -1.
</event>
<event>
 8    1  0.6380238E-009  0.1136338E+03  0.7561462E-02  0.1253985E+00
          2   -1    0    0  501    0  0.00000000000E+00  0.00000000000E+00  0.15195189977E+04  0.15195189977E+04  0.00000000000E+00 0. -1.
         -2   -1    0    0    0  501 -0.00000000000E+00 -0.00000000000E+00 -0.12063272797E+02  0.12063272797E+02  0.00000000000E+00 0.  1.
         25    2    1    2    0    0  0.38915158138E+02 -0.31557874672E+02  0.11836314400E+04  0.11912771014E+04  0.12508979782E+03 0.  0.
         23    2    1    2    0    0 -0.38915158138E+02  0.31557874672E+02  0.32382428491E+03  0.34030516912E+03  0.91843081670E+02 0.  0.
          5    1    3    3  502    0  0.25008790352E+02 -0.73955272349E+02  0.96130069947E+03  0.96447463891E+03  0.41800000000E+01 0.  1.
         -5    1    3    3    0  502  0.13906367786E+02  0.42397397677E+02  0.22233074051E+03  0.22680246244E+03  0.41800000000E+01 0.  1.
        -11    1    4    4    0    0  0.29753242682E+02  0.30100527767E+01  0.10590656097E+03  0.11004778746E+03  0.00000000000E+00 0. -1.
         11    1    4    4    0    0 -0.68668400820E+02  0.28547821896E+02  0.21791772393E+03  0.23025738166E+03  0.00000000000E+00 0.  1.
</event>
<event>
 8    1  0.6380238E-009  0.8680271E+02  0.7561462E-02  0.1310784E+00
          2   -1    0    0  501    0  0.00000000000E+00  0.00000000000E+00  0.97405071803E+02  0.97405071803E+02  0.00000000000E+00 0. -1.
         -2   -1    0    0    0  501 -0.00000000000E+00 -0.00000000000E+00 -0.14571953221E+03  0.14571953221E+03  0.00000000000E+00 0.  1.
         25    2    1    2    0    0  0.30135106914E+02 -0.15414485737E+02  0.96591127238E+01  0.12994661981E+03  0.12508834679E+03 0.  0.
         23    2    1    2    0    0 -0.30135106914E+02  0.15414485737E+02 -0.57973573132E+02  0.11317798420E+03  0.91118548532E+02 0.  0.
          5    1    3    3  502    0  0.62136120667E+02 -0.43154410714E+02  0.31569531528E+02  0.82081108524E+02  0.41800000000E+01 0. -1.
         -5    1    3    3    0  502 -0.32001013753E+02  0.27739924977E+02 -0.21910418804E+02  0.47865511291E+02  0.41800000000E+01 0. -1.
        -11    1    4    4    0    0 -0.14012621799E+02  0.30271730105E+02 -0.77148644284E+02  0.84051439774E+02  0.00000000000E+00 0.  1.
         11    1    4    4    0    0 -0.16122485115E+02 -0.14857244368E+02  0.19175071152E+02  0.29126544425E+02  0.00000000000E+00 0. -1.
</event>
<event>
 8    1  0.6380238E-009  0.8769430E+02  0.7561462E-02  0.1308533E+00
          1   -1    0    0  501    0  0.00000000000E+00  0.00000000000E+00  0.14934232730E+03  0.14934232730E+03  0.00000000000E+00 0. -1.
         -1   -1    0    0    0  501 -0.00000000000E+00 -0.00000000000E+00 -0.12041509229E+03  0.12041509229E+03  0.00000000000E+00 0.  1.
         25    2    1    2    0    0 -0.44383630706E+02  0.11131240390E+02  0.80176251964E+02  0.15546395490E+03  0.12508796388E+03 0.  0.
         23    2    1    2    0    0  0.44383630706E+02 -0.11131240390E+02 -0.51249016956E+02  0.11429346469E+03  0.91338508553E+02 0.  0.
          5    1    3    3  502    0 -0.55263845412E+02 -0.56159529122E+01 -0.15350969231E+02  0.57781971177E+02  0.41800000000E+01 0.  1.
         -5    1    3    3    0  502  0.10880214705E+02  0.16747193302E+02  0.95527221195E+02  0.97681983727E+02  0.41800000000E+01 0.  1.
        -11    1    4    4    0    0  0.58177675623E+02  0.22927973586E+02 -0.44947734237E+02  0.77010601392E+02  0.00000000000E+00 0. -1.
         11    1    4    4    0    0 -0.13794044917E+02 -0.34059213976E+02 -0.63012827188E+01  0.37282863299E+02  0.00000000000E+00 0.  1.
</event>
<event>
 8    1  0.6380238E-009  0.7978963E+02  0.7561462E-02  0.1329650E+00
          2   -1    0    0  501    0  0.00000000000E+00  0.00000000000E+00  0.21599607595E+03  0.21599607595E+03  0.00000000000E+00 0. -1.
         -2   -1    0    0    0  501 -0.00000000000E+00 -0.00000000000E+00 -0.86093557587E+02  0.86093557587E+02  0.00000000000E+00 0.  1.
         25    2    1    2    0    0  0.33221191854E+02  0.69967596225E+02  0.10309313631E+03  0.17965025687E+03  0.12508760102E+03 0.  0.
         23    2    1    2    0    0 -0.33221191854E+02 -0.69967596225E+02  0.26809382053E+02  0.12243937667E+03  0.90959034092E+02 0.  0.
          5    1    3    3  502    0  0.30959607596E+02  0.55958430316E+02  0.13224706297E+03  0.14695782146E+03  0.41800000000E+01 0.  1.
         -5    1    3    3    0  502  0.22615842576E+01  0.14009165909E+02 -0.29153926660E+02  0.32692435402E+02  0.41800000000E+01 0.  1.
        -11    1    4    4    0    0 -0.29880460862E+02 -0.36989463036E+02 -0.30316827923E+02  0.56393017053E+02  0.00000000000E+00 0.  1.
         11    1    4    4    0    0 -0.33407309919E+01 -0.32978133189E+02  0.57126209975E+02  0.66046359615E+02  0.00000000000E+00 0. -1.
</event>
<event>
 7    1  0.6380238E-009  0.7562854E+02  0.7561462E-02  0.1341936E+00
          2   -1    0    0  501    0  0.00000000000E+00  0.00000000000E+00  0.37216889001E+02  0.37216889001E+02  0.00000000000E+00 0. -1.
         -2   -1    0    0    0  501 -0.00000000000E+00 -0.00000000000E+00 -0.41233986682E+03  0.41233986682E+03  0.00000000000E+00 0.  1.
         23    2    1    2    0    0 -0.40961639607E+02  0.41516002683E+02 -0.13600141400E+03  0.17349202917E+03  0.90563045322E+02 0.  0.
          5    1    1    2  502    0  0.33732402752E+01 -0.13151090306E+02 -0.22675425626E+03  0.22719880074E+03  0.41800000000E+01 0.  1.
         -5    1    1    2    0  502  0.37588399331E+02 -0.28364912377E+02 -0.12367307555E+02  0.48865925906E+02  0.41800000000E+01 0.  1.
        -11    1    3    3    0    0 -0.54078270411E+02  0.91413113772E+01 -0.31368315840E+02  0.63182229645E+02  0.00000000000E+00 0. -1.
         11    1    3    3    0    0  0.13116630804E+02  0.32374691306E+02 -0.10463309816E+03  0.11030979953E+03  0.00000000000E+00 0.  1.
</event>
<event>
 8    1  0.6380238E-009  0.1022042E+03  0.7561462E-02  0.1275728E+00
          1   -1    0    0  501    0  0.00000000000E+00  0.00000000000E+00  0.84856425233E+02  0.84856425233E+02  0.00000000000E+00 0. -1.
         -1   -1    0    0    0  501 -0.00000000000E+00 -0.00000000000E+00 -0.14691175615E+03  0.14691175615E+03  0.00000000000E+00 0.  1.
         25    2    1    2    0    0  0.66429397017E+01 -0.15608149834E+02 -0.51851995827E+02  0.13647489777E+03  0.12509606413E+03 0.  0.
         23    2    1    2    0    0 -0.66429397017E+01  0.15608149834E+02 -0.10203335093E+02  0.95293283615E+02  0.93214585049E+02 0.  0.
          5    1    3    3  502    0 -0.20476645391E+02 -0.61344227959E+02 -0.41831849352E+01  0.64941348512E+02  0.41800000000E+01 0. -1.
         -5    1    3    3    0  502  0.27119585093E+02  0.45736078124E+02 -0.47668810892E+02  0.71533549259E+02  0.41800000000E+01 0. -1.
        -11    1    4    4    0    0  0.38988466542E+02  0.10305454888E+02 -0.24494108806E+02  0.47183305203E+02  0.00000000000E+00 0.  1.
         11    1    4    4    0    0 -0.45631406243E+02  0.53026949467E+01  0.14290773713E+02  0.48109978411E+02  0.00000000000E+00 0. -1.
</event>
<event>
 8    1  0.6380238E-009  0.8619877E+02  0.7561462E-02  0.1312327E+00
         -3   -1    0    0    0  501 -0.00000000000E+00  0.00000000000E+00  0.12712253279E+03  0.12712253279E+03  0.00000000000E+00 0.  1.
          3   -1    0    0  501    0  0.00000000000E+00 -0.00000000000E+00 -0.11159831583E+03  0.11159831583E+03  0.00000000000E+00 0. -1.
         25    2    1    2    0    0 -0.18911008113E+02 -0.37738300236E+02  0.19064967823E+02  0.13338988892E+03  0.12509030312E+03 0.  0.
         23    2    1    2    0    0  0.18911008113E+02  0.37738300236E+02 -0.35407508582E+01  0.10533095970E+03  0.96437900336E+02 0.  0.
          5    1    3    3  502    0 -0.11192208750E+01  0.31210338228E+02 -0.32582000708E+02  0.45325456840E+02  0.41800000000E+01 0.  1.
         -5    1    3    3    0  502 -0.17791787238E+02 -0.68948638464E+02  0.51646968531E+02  0.88064432080E+02  0.41800000000E+01 0.  1.
        -11    1    4    4    0    0  0.22090817294E+02 -0.81606277697E+01 -0.40141380583E+02  0.46539558328E+02  0.00000000000E+00 0. -1.
         11    1    4    4    0    0 -0.31798091805E+01  0.45898928006E+02  0.36600629725E+02  0.58791401368E+02  0.00000000000E+00 0.  1.
</event>
<event>
 8    1  0.6380238E-009  0.9727240E+02  0.7561462E-02  0.1286139E+00
         -2   -1    0    0    0  501 -0.00000000000E+00  0.00000000000E+00  0.33023877862E+02  0.33023877862E+02  0.00000000000E+00 0. -1.
          2   -1    0    0  501    0  0.00000000000E+00 -0.00000000000E+00 -0.56255845559E+03  0.56255845559E+03  0.00000000000E+00 0.  1.
         25    2    1    2    0    0 -0.63871337249E+02  0.19436737035E+02 -0.39955727847E+03  0.42397153809E+03  0.12509401209E+03 0.  0.
         23    2    1    2    0    0  0.63871337249E+02 -0.19436737035E+02 -0.12997729926E+03  0.17161079537E+03  0.89993512516E+02 0.  0.
          5    1    3    3  502    0 -0.75859871137E+02 -0.23587214204E+02 -0.14405419417E+03  0.16456050553E+03  0.41800000000E+01 0.  1.
         -5    1    3    3    0  502  0.11988533888E+02  0.43023951239E+02 -0.25550308430E+03  0.25941103256E+03  0.41800000000E+01 0.  1.
        -11    1    4    4    0    0  0.33495852171E+02  0.10222919938E+01 -0.13075349083E+03  0.13497960052E+03  0.00000000000E+00 0.  1.
         11    1    4    4    0    0  0.30375485079E+02 -0.20459029029E+02  0.77619156530E+00  0.36631194847E+02  0.00000000000E+00 0. -1.
</event>
<event>
 8    1  0.6380238E-009  0.1117069E+03  0.7561462E-02  0.1257441E+00
         -1   -1    0    0    0  501 -0.00000000000E+00  0.00000000000E+00  0.33656028464E+02  0.33656028464E+02  0.00000000000E+00 0.  1.
          1   -1    0    0  501    0  0.00000000000E+00 -0.00000000000E+00 -0.51984467113E+03  0.51984467113E+03  0.00000000000E+00 0. -1.
         25    2    1    2    0    0 -0.74682029039E+02 -0.10376565934E+02 -0.28750501350E+03  0.32247805672E+03  0.12509150929E+03 0.  0.
         23    2    1    2    0    0  0.74682029039E+02  0.10376565934E+02 -0.19868362917E+03  0.23102264287E+03  0.90615663328E+02 0.  0.
          5    1    3    3  502    0  0.22422106542E+02  0.31536948014E+02 -0.59449901721E+02  0.71056971273E+02  0.41800000000E+01 0. -1.
         -5    1    3    3    0  502 -0.97104135581E+02 -0.41913513948E+02 -0.22805511178E+03  0.25142108545E+03  0.41800000000E+01 0. -1.
        -11    1    4    4    0    0  0.40439977432E+02 -0.56629231055E+01 -0.15023638894E+02  0.43510575707E+02  0.00000000000E+00 0.  1.
         11    1    4    4    0    0  0.34242051608E+02  0.16039489039E+02 -0.18365999027E+03  0.18751206717E+03  0.00000000000E+00 0. -1.
</event>
<event>
 8    1  0.6380238E-009  0.1286288E+03  0.7561462E-02  0.1229505E+00
         -2   -1    0    0    0  501 -0.00000000000E+00  0.00000000000E+00  0.26223044638E+03  0.26223044638E+03  0.00000000000E+00 0.  1.
          2   -1    0    0  501    0  0.00000000000E+00 -0.00000000000E+00 -0.95446026568E+02  0.95446026568E+02  0.00000000000E+00 0. -1.
         25    2    1    2    0    0  0.11414108923E+03  0.48502298899E+00  0.66009193953E+02  0.18175179870E+03  0.12509228252E+03 0.  0.
         23    2    1    2    0    0 -0.11414108923E+03 -0.48502298899E+00  0.10077522586E+03  0.17592467425E+03  0.88121628245E+02 0.  0.
          5    1    3    3  502    0  0.15694571546E+02  0.24366397047E+02  0.74461007488E+02  0.80012217300E+02  0.41800000000E+01 0. -1.
         -5    1    3    3    0  502  0.98446517685E+02 -0.23881374058E+02 -0.84518135349E+01  0.10173958140E+03  0.41800000000E+01 0. -1.
        -11    1    4    4    0    0 -0.25087053746E+02  0.23483434201E+02 -0.59490621873E+01  0.34874393018E+02  0.00000000000E+00 0.  1.
         11    1    4    4    0    0 -0.89054035486E+02 -0.23968457190E+02  0.10672428804E+03  0.14105028123E+03  0.00000000000E+00 0. -1.
</event>
<event>
 8    1  0.6380238E-009  0.8452498E+02  0.7561462E-02  0.1316679E+00
         -1   -1    0    0    0  501 -0.00000000000E+00  0.00000000000E+00  0.29831603866E+02  0.29831603866E+02  0.00000000000E+00 0.  1.
          1   -1    0    0  501    0  0.00000000000E+00 -0.00000000000E+00 -0.40069312115E+03  0.40069312115E+03  0.00000000000E+00 0. -1.
         25    2    1    2    0    0  0.20569573188E+02  0.41682220134E+00 -0.23526574106E+03  0.26723632373E+03  0.12506799240E+03 0.  0.
         23    2    1    2    0    0 -0.20569573188E+02 -0.41682220134E+00 -0.13559577622E+03  0.16328840128E+03  0.88620575389E+02 0.  0.
          5    1    3    3  502    0  0.51459727156E+02 -0.34920392281E+02 -0.62923987403E+02  0.88568831463E+02  0.41800000000E+01 0. -1.
         -5    1    3    3    0  502 -0.30890153968E+02  0.35337214482E+02 -0.17234175366E+03  0.17866749227E+03  0.41800000000E+01 0. -1.
        -11    1    4    4    0    0 -0.40066336780E+02  0.67129457772E+00 -0.13792003451E+03  0.14362345874E+03  0.00000000000E+00 0. -1.
         11    1    4    4    0    0  0.19496763592E+02 -0.10881167791E+01  0.23242582927E+01  0.19664942545E+02  0.00000000000E+00 0.  1.
</event>
<event>
 8    1  0.6380238E-009  0.1243658E+03  0.7561462E-02  0.1236064E+00
          3   -1    0    0  501    0  0.00000000000E+00  0.00000000000E+00  0.13941657091E+03  0.13941657091E+03  0.00000000000E+00 0. -1.
         -3   -1    0    0    0  501 -0.00000000000E+00 -0.00000000000E+00 -0.11808867926E+03  0.11808867926E+03  0.00000000000E+00 0.  1.
         25    2    1    2    0    0  0.45818539498E+02 -0.32976286285E+02  0.24373148440E+02  0.13938632218E+03  0.12509085668E+03 0.  0.
         23    2    1    2    0    0 -0.45818539498E+02  0.32976286285E+02 -0.30452567832E+01  0.11811892799E+03  0.10371129901E+03 0.  0.
          5    1    3    3  502    0  0.26710289455E+01 -0.73410518058E+02  0.30789273655E+02  0.79760205173E+02  0.41800000000E+01 0.  1.
         -5    1    3    3    0  502  0.43147510552E+02  0.40434231773E+02 -0.64161252149E+01  0.59626117002E+02  0.41800000000E+01 0.  1.
        -11    1    4    4    0    0 -0.43890064152E+02 -0.29810948967E+02 -0.12722852098E+02  0.54560987666E+02  0.00000000000E+00 0.  1.
         11    1    4    4    0    0 -0.19284753458E+01  0.62787235251E+02  0.96775953147E+01  0.63557940328E+02  0.00000000000E+00 0. -1.
</event>
<event>
 8    1  0.6380238E-009  0.1231577E+03  0.7561462E-02  0.1237977E+00
         -1   -1    0    0    0  501 -0.00000000000E+00  0.00000000000E+00  0.66570026384E+02  0.66570026384E+02  0.00000000000E+00 0.  1.
          1   -1    0    0  501    0  0.00000000000E+00 -0.00000000000E+00 -0.36337875794E+03  0.36337875794E+03  0.00000000000E+00 0. -1.
         25    2    1    2    0    0  0.68377909679E+02 -0.46385670013E+01 -0.27452084216E+03  0.30936629010E+03  0.12509497924E+03 0.  0.
         23    2    1    2    0    0 -0.68377909679E+02  0.46385670013E+01 -0.22287889395E+02  0.12058249423E+03  0.96676434898E+02 0.  0.
          5    1    3    3  502    0  0.79130894073E+02  0.36397874848E+02 -0.11544051995E+03  0.14467373548E+03  0.41800000000E+01 0. -1.
         -5    1    3    3    0  502 -0.10752984394E+02 -0.41036441849E+02 -0.15908032221E+03  0.16469255462E+03  0.41800000000E+01 0. -1.
        -11    1    4    4    0    0 -0.50827138142E+02 -0.42457622417E+02 -0.16433501183E+01  0.66247628431E+02  0.00000000000E+00 0.  1.
         11    1    4    4    0    0 -0.17550771537E+02  0.47096189419E+02 -0.20644539277E+02  0.54334865798E+02  0.00000000000E+00 0. -1.
</event>
<event>
 8    1  0.6380238E-009  0.1368679E+03  0.7561462E-02  0.1217607E+00
         -2   -1    0    0    0  501 -0.00000000000E+00  0.00000000000E+00  0.44438664346E+03  0.44438664346E+03  0.00000000000E+00 0.  1.
          2   -1    0    0  501    0  0.00000000000E+00 -0.00000000000E+00 -0.44124322336E+02  0.44124322336E+02  0.00000000000E+00 0. -1.
         25    2    1    2    0    0  0.36390802492E+02  0.76518896399E+02  0.26592598552E+03  0.30585010552E+03  0.12509286653E+03 0.  0.
         23    2    1    2    0    0 -0.36390802492E+02 -0.76518896399E+02  0.13433633560E+03  0.18266086028E+03  0.90218106849E+02 0.  0.
          5    1    3    3  502    0  0.66671934643E+02 -0.14837411443E+01  0.13032102738E+03  0.14645269179E+03  0.41800000000E+01 0. -1.
         -5    1    3    3    0  502 -0.30281132151E+02  0.78002637543E+02  0.13560495814E+03  0.15939741372E+03  0.41800000000E+01 0. -1.
        -11    1    4    4    0    0  0.22530831300E+02 -0.56634446557E+02  0.75710576448E+02  0.97196657772E+02  0.00000000000E+00 0.  1.
         11    1    4    4    0    0 -0.58921633792E+02 -0.19884449842E+02  0.58625759156E+02  0.85464202511E+02  0.00000000000E+00 0. -1.
</event>
<event>
 7    1  0.6380238E-009  0.1078630E+03  0.7561462E-02  0.1264579E+00
          1   -1    0    0  501    0  0.00000000000E+00  0.00000000000E+00  0.13265816737E+03  0.13265816737E+03  0.00000000000E+00 0. -1.
         -1   -1    0    0    0  501 -0.00000000000E+00 -0.00000000000E+00 -0.12906187018E+03  0.12906187018E+03  0.00000000000E+00 0.  1.
         25    2    1    2    0    0  0.22575937222E+02 -0.91606547391E+01 -0.17427804986E+02  0.12862382725E+03  0.12508704974E+03 0.  0.
          5    1    3    3  502    0 -0.50762359684E+02  0.91077136366E+01 -0.68575047506E+01  0.52194495685E+02  0.41800000000E+01 0. -1.
         -5    1    3    3    0  502  0.73338296906E+02 -0.18268368376E+02 -0.10570300235E+02  0.76429331563E+02  0.41800000000E+01 0. -1.
        -11    1    1    2    0    0  0.30365838168E+02 -0.10025332067E+02 -0.39238609708E+02  0.50618770259E+02  0.00000000000E+00 0.  1.
         11    1    1    2    0    0 -0.52941775390E+02  0.19185986806E+02  0.60262711888E+02  0.82477440038E+02  0.00000000000E+00 0. -1.
</event>
<event>
 8    1  0.6380238E-009  0.1313076E+03  0.7561462E-02  0.1225528E+00
          1   -1    0    0  501    0  0.00000000000E+00  0.00000000000E+00  0.40689120293E+03  0.40689120293E+03  0.00000000000E+00 0. -1.
         -1   -1    0    0    0  501 -0.00000000000E+00 -0.00000000000E+00 -0.61297000840E+02  0.61297000840E+02  0.00000000000E+00 0.  1.
         25    2    1    2    0    0  0.75657858791E+02  0.72348058459E+02  0.25506158000E+03  0.30276571241E+03  0.12510920773E+03 0.  0.
         23    2    1    2    0    0 -0.75657858791E+02 -0.72348058459E+02  0.90532622086E+02  0.16542249136E+03  0.90609557036E+02 0.  0.
          5    1    3    3  502    0  0.99095191393E+02  0.81043172501E+02  0.16313249375E+03  0.20740669151E+03  0.41800000000E+01 0.  1.
         -5    1    3    3    0  502 -0.23437332602E+02 -0.86951140419E+01  0.91929086250E+02  0.95359020897E+02  0.41800000000E+01 0.  1.
        -11    1    4    4    0    0 -0.12889418381E+01 -0.15564784854E+02 -0.16862296149E+02  0.22983927646E+02  0.00000000000E+00 0.  1.
         11    1    4    4    0    0 -0.74368916953E+02 -0.56783273606E+02  0.10739491824E+03  0.14243856371E+03  0.00000000000E+00 0. -1.
</event>
<event>
 7    1  0.6380238E-009  0.6010164E+02  0.7561462E-02  0.1397406E+00
         -1   -1    0    0    0  501 -0.00000000000E+00  0.00000000000E+00  0.46608194879E+03  0.46608194879E+03  0.00000000000E+00 0.  1.
          1   -1    0    0  501    0  0.00000000000E+00 -0.00000000000E+00 -0.63143152645E+02  0.63143152645E+02  0.00000000000E+00 0. -1.
         23    2    1    2    0    0  0.35672081618E+02  0.34050823312E+02 -0.54753327250E+00  0.10467056771E+03  0.92323734633E+02 0.  0.
          5    1    1    2  502    0 -0.94187140932E+01 -0.28318878582E+02  0.39488288045E+03  0.39603110072E+03  0.41800000000E+01 0.  1.
         -5    1    1    2    0  502 -0.26253367524E+02 -0.57319447302E+01  0.86034489675E+01  0.28523433014E+02  0.41800000000E+01 0.  1.
        -11    1    3    3    0    0 -0.43831061307E+01  0.19922618851E+02 -0.41139398740E+02  0.45919195222E+02  0.00000000000E+00 0. -1.
         11    1    3    3    0    0  0.40055187748E+02  0.14128204462E+02  0.40591865467E+02  0.58751372486E+02  0.00000000000E+00 0.  1.
</event>
<event>
 8    1  0.6380238E-009  0.1068632E+03  0.7561462E-02  0.1266491E+00
          2   -1    0    0  501    0  0.00000000000E+00  0.00000000000E+00  0.75045674668E+02  0.75045674668E+02  0.00000000000E+00 0. -1.
         -2   -1    0    0    0  501 -0.00000000000E+00 -0.00000000000E+00 -0.26176399007E+03  0.26176399007E+03  0.00000000000E+00 0.  1.
         25    2    1    2    0    0  0.45883489456E+02  0.53716469258E+02 -0.38925819341E+02  0.14884183871E+03  0.12509164586E+03 0.  0.
         23    2    1    2    0    0 -0.45883489456E+02 -0.53716469258E+02 -0.14779249606E+03  0.18796782603E+03  0.92187461492E+02 0.  0.
          5    1    3    3  502    0  0.33611985694E+02 -0.28246942695E+02 -0.48211954865E+02  0.65341566754E+02  0.41800000000E+01 0.  1.
         -5    1    3    3    0  502  0.12271503762E+02  0.81963411953E+02  0.92861355245E+01  0.83500271955E+02  0.41800000000E+01 0.  1.
        -11    1    4    4    0    0 -0.26474471075E+02 -0.60533088855E+02 -0.15307886270E+03  0.16672819398E+03  0.00000000000E+00 0.  1.
         11    1    4    4    0    0 -0.19409018381E+02  0.68166195972E+01  0.52863666350E+01  0.21239632046E+02  0.00000000000E+00 0. -1.
</event>
<event>
 8    1  0.6380238E-009  0.6821088E+02  0.7561462E-02  0.1366285E+00
          1   -1    0    0  501    0  0.00000000000E+00  0.00000000000E+00  0.10882512091E+03  0.10882512091E+03  0.00000000000E+00 0. -1.
         -1   -1    0    0    0  501 -0.00000000000E+00 -0.00000000000E+00 -0.11761079120E+03  0.11761079120E+03  0.00000000000E+00 0.  1.
         25    2    1    2    0    0 -0.21683368841E+02  0.55697118657E+01  0.15415694123E+02  0.12801019522E+03  0.12509107195E+03 0.  0.
         23    2    1    2    0    0  0.21683368841E+02 -0.55697118657E+01 -0.24201364407E+02  0.98425716893E+02  0.92740096680E+02 0.  0.
          5    1    3    3  502    0 -0.17956822446E+00 -0.13826649211E+02 -0.52292117043E+02  0.54250773064E+02  0.41800000000E+01 0.  1.
         -5    1    3    3    0  502 -0.21503800617E+02  0.19396361077E+02  0.67707811166E+02  0.73759422157E+02  0.41800000000E+01 0.  1.
        -11    1    4    4    0    0  0.34916329633E+02 -0.41612888463E+02 -0.25499043105E+02  0.60008197445E+02  0.00000000000E+00 0.  1.
         11    1    4    4    0    0 -0.13232960792E+02  0.36043176598E+02  0.12976786980E+01  0.38417519448E+02  0.00000000000E+00 0. -1.
</event>
<event>
 8    1  0.6380238E-009  0.1282437E+03  0.7561462E-02  0.1230085E+00
          1   -1    0    0  501    0  0.00000000000E+00  0.00000000000E+00  0.25345228616E+02  0.25345228616E+02  0.00000000000E+00 0. -1.
         -1   -1    0    0    0  501 -0.00000000000E+00 -0.00000000000E+00 -0.71762583156E+03  0.71762583156E+03  0.00000000000E+00 0.  1.
         25    2    1    2    0    0 -0.23865112592E+02  0.76203097581E+02 -0.36884405341E+03  0.39757934749E+03  0.12508775374E+03 0.  0.
         23    2    1    2    0    0  0.23865112592E+02 -0.76203097581E+02 -0.32343654954E+03  0.34539171269E+03  0.91147012770E+02 0.  0.
          5    1    3    3  502    0 -0.36011013189E+02 -0.19712046153E+02 -0.18795621967E+03  0.19243276942E+03  0.41800000000E+01 0.  1.
         -5    1    3    3    0  502  0.12145900597E+02  0.95915143734E+02 -0.18088783374E+03  0.20514657807E+03  0.41800000000E+01 0.  1.
        -11    1    4    4    0    0  0.51182675098E+02 -0.18174845547E+02 -0.18522116518E+03  0.19302039082E+03  0.00000000000E+00 0. -1.
         11    1    4    4    0    0 -0.27317562506E+02 -0.58028252034E+02 -0.13821538436E+03  0.15237132187E+03  0.00000000000E+00 0.  1.
</event>
<event>
 8    1  0.6380238E-009  0.8787704E+02  0.7561462E-02  0.1308076E+00
         -3   -1    0    0    0  501 -0.00000000000E+00  0.00000000000E+00  0.40480359568E+02  0.40480359568E+02  0.00000000000E+00 0.  1.
          3   -1    0    0  501    0  0.00000000000E+00 -0.00000000000E+00 -0.28326211129E+03  0.28326211129E+03  0.00000000000E+00 0. -1.
         25    2    1    2    0    0 -0.18042259934E+02  0.13951316737E+02 -0.11230400670E+03  0.16964708354E+03  0.12509108942E+03 0.  0.
         23    2    1    2    0    0  0.18042259934E+02 -0.13951316737E+02 -0.13047774502E+03  0.15409538731E+03  0.78745057378E+02 0.  0.
          5    1    3    3  502    0 -0.91887550045E+01 -0.55775518414E+02 -0.52696900986E+02  0.77393652494E+02  0.41800000000E+01 0. -1.
         -5    1    3    3    0  502 -0.88535049291E+01  0.69726835150E+02 -0.59607105709E+02  0.92253431050E+02  0.41800000000E+01 0. -1.
        -11    1    4    4    0    0  0.75214155237E+01  0.15586289226E+02  0.24866623139E+01  0.17483923838E+02  0.00000000000E+00 0.  1.
         11    1    4    4    0    0  0.10520844410E+02 -0.29537605963E+02 -0.13296440734E+03  0.13661146347E+03  0.00000000000E+00 0. -1.
</event>
<event>
 8    1  0.6380238E-009  0.9086822E+02  0.7561462E-02  0.1300763E+00
          2   -1    0    0  501    0  0.00000000000E+00  0.00000000000E+00  0.32432640779E+03  0.32432640779E+03  0.00000000000E+00 0. -1.
         -2   -1    0    0    0  501 -0.00000000000E+00 -0.00000000000E+00 -0.38941215454E+02  0.38941215454E+02  0.00000000000E+00 0.  1.
         25    2    1    2    0    0 -0.16578068725E+02 -0.55561283803E+00  0.16417321144E+03  0.20706491561E+03  0.12509154590E+03 0.  0.
         23    2    1    2    0    0  0.16578068725E+02  0.55561283803E+00  0.12121198090E+03  0.15620270763E+03  0.97117457189E+02 0.  0.
          5    1    3    3  502    0  0.74192663266E+01  0.56660497542E+02  0.11234805537E+03  0.12611508808E+03  0.41800000000E+01 0.  1.
         -5    1    3    3    0  502 -0.23997335051E+02 -0.57216110380E+02  0.51825156069E+02  0.80949827536E+02  0.41800000000E+01 0.  1.
        -11    1    4    4    0    0  0.12827595438E+02 -0.29393756398E+02  0.81635960127E+00  0.32081249397E+02  0.00000000000E+00 0.  1.
         11    1    4    4    0    0  0.37504732864E+01  0.29949369236E+02  0.12039562130E+03  0.12412145824E+03  0.00000000000E+00 0. -1.
</event>
<event>
 8    1  0.6380238E-009  0.1631338E+03  0.7561462E-02  0.1185203E+00
         -1   -1    0    0    0  501 -0.00000000000E+00  0.00000000000E+00  0.25884701330E+03  0.25884701330E+03  0.00000000000E+00 0.  1.
          1   -1    0    0  501    0  0.00000000000E+00 -0.00000000000E+00 -0.12590517512E+03  0.12590517512E+03  0.00000000000E+00 0. -1.
         25    2    1    2    0    0  0.47675845505E+02  0.12180922210E+03  0.76554257474E+01  0.18115312482E+03  0.12508947300E+03 0.  0.
         23    2    1    2    0    0 -0.47675845505E+02 -0.12180922210E+03  0.12528641244E+03  0.20359906360E+03  0.92980754578E+02 0.  0.
          5    1    3    3  502    0  0.30499181605E+00  0.12881893054E+03  0.22517381450E+02  0.13083927068E+03  0.41800000000E+01 0.  1.
         -5    1    3    3    0  502  0.47370853689E+02 -0.70097084343E+01 -0.14861955703E+02  0.50313854144E+02  0.41800000000E+01 0.  1.
        -11    1    4    4    0    0 -0.66943696363E+02 -0.90937585500E+02  0.57630236053E+02  0.12677676067E+03  0.00000000000E+00 0.  1.
         11    1    4    4    0    0  0.19267850858E+02 -0.30871636601E+02  0.67656176387E+02  0.76822302923E+02  0.00000000000E+00 0. -1.
</event>
<event>
 8    1  0.6380238E-009  0.1028237E+03  0.7561462E-02  0.1274468E+00
         -3   -1    0    0    0  501 -0.00000000000E+00  0.00000000000E+00  0.60936882062E+03  0.60936882062E+03  0.00000000000E+00 0.  1.
          3   -1    0    0  501    0  0.00000000000E+00 -0.00000000000E+00 -0.22983840434E+02  0.22983840434E+02  0.00000000000E+00 0. -1.
         25    2    1    2    0    0  0.21667914517E+02  0.17860027413E+02  0.23363246995E+03  0.26649220503E+03  0.12508191408E+03 0.  0.
         23    2    1    2    0    0 -0.21667914517E+02 -0.17860027413E+02  0.35275251024E+03  0.36586045602E+03  0.92903502101E+02 0.  0.
          5    1    3    3  502    0  0.61626455131E+02 -0.59468924670E+01  0.19872285048E+03  0.20818604469E+03  0.41800000000E+01 0.  1.
         -5    1    3    3    0  502 -0.39958540614E+02  0.23806919880E+02  0.34909619467E+02  0.58306160339E+02  0.41800000000E+01 0.  1.
        -11    1    4    4    0    0 -0.47977939736E+02  0.19002952269E+02  0.17732159746E+03  0.18467794622E+03  0.00000000000E+00 0.  1.
         11    1    4    4    0    0  0.26310025219E+02 -0.36862979681E+02  0.17543091278E+03  0.18118250980E+03  0.00000000000E+00 0. -1.
</event>
<event>
 8    1  0.6380238E-009  0.9422848E+02  0.7561462E-02  0.1292923E+00
          1   -1    0    0  501    0  0.00000000000E+00  0.00000000000E+00  0.18142388843E+03  0.18142388843E+03  0.00000000000E+00 0. -1.
         -1   -1    0    0    0  501 -0.00000000000E+00 -0.00000000000E+00 -0.10701741786E+03  0.10701741786E+03  0.00000000000E+00 0.  1.
         25    2    1    2    0    0 -0.48644526788E+02  0.23606893667E+02  0.11158569570E+03  0.17613187010E+03  0.12508993870E+03 0.  0.
         23    2    1    2    0    0  0.48644526788E+02 -0.23606893667E+02 -0.37179225127E+02  0.11230943620E+03  0.91145703478E+02 0.  0.
          5    1    3    3  502    0  0.15453511687E+02  0.26871840706E+02  0.10719469554E+03  0.11166504376E+03  0.41800000000E+01 0.  1.
         -5    1    3    3    0  502 -0.64098038475E+02 -0.32649470395E+01  0.43910001633E+01  0.64466826337E+02  0.41800000000E+01 0.  1.
        -11    1    4    4    0    0  0.36368130681E+02 -0.51117874244E+02 -0.49348844318E+02  0.79818459218E+02  0.00000000000E+00 0.  1.
         11    1    4    4    0    0  0.12276396108E+02  0.27510980577E+02  0.12169619191E+02  0.32490976978E+02  0.00000000000E+00 0. -1.
</event>
<event>
 8    1  0.6380238E-009  0.1727017E+03  0.7561462E-02  0.1175059E+00
         -1   -1    0    0    0  501 -0.00000000000E+00  0.00000000000E+00  0.39826160493E+02  0.39826160493E+02  0.00000000000E+00 0.  1.
          1   -1    0    0  501    0  0.00000000000E+00 -0.00000000000E+00 -0.10554821453E+04  0.10554821453E+04  0.00000000000E+00 0. -1.
         25    2    1    2    0    0 -0.13611032292E+03 -0.67790722871E+02 -0.33047168646E+03  0.38468261504E+03  0.12509027400E+03 0.  0.
         23    2    1    2    0    0  0.13611032292E+03  0.67790722871E+02 -0.68518429839E+03  0.71062569080E+03  0.11130924286E+03 0.  0.
          5    1    3    3  502    0 -0.69426339927E+02 -0.81716786151E+01 -0.26408142559E+03  0.27320919595E+03  0.41800000000E+01 0.  1.
         -5    1    3    3    0  502 -0.66683982994E+02 -0.59619044256E+02 -0.66390260865E+02  0.11147341909E+03  0.41800000000E+01 0.  1.
        -11    1    4    4    0    0  0.56333969500E+02  0.87114888428E+02 -0.44005714625E+03  0.45212035109E+03  0.00000000000E+00 0.  1.
         11    1    4    4    0    0  0.79776353420E+02 -0.19324165557E+02 -0.24512715215E+03  0.25850533971E+03  0.00000000000E+00 0. -1.
</event>
<event>
 8    1  0.6380238E-009  0.8968103E+02  0.7561462E-02  0.1303626E+00
          1   -1    0    0  501    0  0.00000000000E+00  0.00000000000E+00  0.13568025836E+03  0.13568025836E+03  0.00000000000E+00 0. -1.
         -1   -1    0    0    0  501 -0.00000000000E+00 -0.00000000000E+00 -0.13143409416E+03  0.13143409416E+03  0.00000000000E+00 0.  1.
         25    2    1    2    0    0  0.68577590066E+01  0.66537092754E+02  0.40140179293E+02  0.14737151438E+03  0.12503165874E+03 0.  0.
         23    2    1    2    0    0 -0.68577590066E+01 -0.66537092754E+02 -0.35894015094E+02  0.11974283814E+03  0.92605363754E+02 0.  0.
          5    1    3    3  502    0  0.12984093842E+01 -0.12100868813E+02  0.63699398124E+02  0.64986172486E+02  0.41800000000E+01 0. -1.
         -5    1    3    3    0  502  0.55593496224E+01  0.78637961567E+02 -0.23559218831E+02  0.82385341898E+02  0.41800000000E+01 0. -1.
        -11    1    4    4    0    0 -0.24699874873E+02 -0.65124299881E+02  0.10109010835E+02  0.70380752722E+02  0.00000000000E+00 0.  1.
         11    1    4    4    0    0  0.17842115867E+02 -0.14127928731E+01 -0.46003025929E+02  0.49362085419E+02  0.00000000000E+00 0. -1.
</event>
<event>
 8    1  0.6380238E-009  0.1433139E+03  0.7561462E-02  0.1208938E+00
         -2   -1    0    0    0  501 -0.00000000000E+00  0.00000000000E+00  0.10980780981E+03  0.10980780981E+03  0.00000000000E+00 0.  1.
          2   -1    0    0  501    0  0.00000000000E+00 -0.00000000000E+00 -0.20710296228E+03  0.20710296228E+03  0.00000000000E+00 0. -1.
         25    2    1    2    0    0  0.98370096943E+02 -0.34606786475E+02 -0.66781428988E+02  0.17601489578E+03  0.12508868309E+03 0.  0.
         23    2    1    2    0    0 -0.98370096943E+02  0.34606786475E+02 -0.30513723478E+02  0.14089587631E+03  0.89700919722E+02 0.  0.
          5    1    3    3  502    0  0.11183852927E+03 -0.57033642388E+02 -0.77322850468E+02  0.14750250370E+03  0.41800000000E+01 0.  1.
         -5    1    3    3    0  502 -0.13468432326E+02  0.22426855913E+02  0.10541421479E+02  0.28512392082E+02  0.41800000000E+01 0.  1.
        -11    1    4    4    0    0 -0.75494310345E+02  0.62812699321E+02 -0.35097914521E+02  0.10429136922E+03  0.00000000000E+00 0. -1.
         11    1    4    4    0    0 -0.22875786598E+02 -0.28205912846E+02  0.45841910426E+01  0.36604507092E+02  0.00000000000E+00 0.  1.
</event>
<event>
 8    1  0.6380238E-009  0.8126310E+02  0.7561462E-02  0.1325505E+00
          1   -1    0    0  501    0  0.00000000000E+00  0.00000000000E+00  0.64420727772E+03  0.64420727772E+03  0.00000000000E+00 0. -1.
         -1   -1    0    0    0  501 -0.00000000000E+00 -0.00000000000E+00 -0.19616955468E+02  0.19616955468E+02  0.00000000000E+00 0.  1.
         25    2    1    2    0    0 -0.18735260430E+02  0.19469226466E+02  0.39696964149E+03  0.41708879378E+03  0.12509238533E+03 0.  0.
         23    2    1    2    0    0  0.18735260430E+02 -0.19469226466E+02  0.22762068076E+03  0.24673543941E+03  0.91307951390E+02 0.  0.
          5    1    3    3  502    0 -0.66504997504E+01 -0.30524963139E+02  0.21651135058E+02  0.38239332772E+02  0.41800000000E+01 0.  1.
         -5    1    3    3    0  502 -0.12084760679E+02  0.49994189604E+02  0.37531850643E+03  0.37884946101E+03  0.41800000000E+01 0.  1.
        -11    1    4    4    0    0  0.46948491207E+02 -0.20366310045E+02  0.20276802140E+03  0.20912632047E+03  0.00000000000E+00 0. -1.
         11    1    4    4    0    0 -0.28213230777E+02  0.89708357928E+00  0.24852659362E+02  0.37609118937E+02  0.00000000000E+00 0.  1.
</event>
<event>
 8    1  0.6380238E-009  0.1673152E+03  0.7561462E-02  0.1180677E+00
          1   -1    0    0  501    0  0.00000000000E+00  0.00000000000E+00  0.12307320290E+04  0.12307320290E+04  0.00000000000E+00 0. -1.
         -1   -1    0    0    0  501 -0.00000000000E+00 -0.00000000000E+00 -0.31523101476E+02  0.31523101476E+02  0.00000000000E+00 0.  1.
         25    2    1    2    0    0  0.75893641937E+02  0.14139982420E+03  0.67748101413E+03  0.70737657786E+03  0.12508934100E+03 0.  0.
         23    2    1    2    0    0 -0.75893641937E+02 -0.14139982420E+03  0.52172791344E+03  0.55487855266E+03  0.99681680194E+02 0.  0.
          5    1    3    3  502    0  0.42386043533E+02  0.27329080235E+02  0.42802353854E+03  0.43100472997E+03  0.41800000000E+01 0.  1.
         -5    1    3    3    0  502  0.33507598404E+02  0.11407074397E+03  0.24945747559E+03  0.27637184789E+03  0.41800000000E+01 0.  1.
        -11    1    4    4    0    0 -0.47938786182E+02 -0.12187075659E+03  0.49358937781E+03  0.51066729132E+03  0.00000000000E+00 0. -1.
         11    1    4    4    0    0 -0.27954855754E+02 -0.19529067609E+02  0.28138535626E+02  0.44211261338E+02  0.00000000000E+00 0.  1.
</event>
<event>
 8    1  0.6380238E-009  0.1187732E+03  0.7561462E-02  0.1245135E+00
         -1   -1    0    0    0  501 -0.00000000000E+00  0.00000000000E+00  0.87547144445E+02  0.87547144445E+02  0.00000000000E+00 0.  1.
          1   -1    0    0  501    0  0.00000000000E+00 -0.00000000000E+00 -0.22416106101E+03  0.22416106101E+03  0.00000000000E+00 0. -1.
         25    2    1    2    0    0  0.23781659351E+02 -0.81942523830E+02 -0.10062454470E+03  0.18180501090E+03  0.12509044112E+03 0.  0.
         23    2    1    2    0    0 -0.23781659351E+02  0.81942523830E+02 -0.35989371863E+02  0.12990319455E+03  0.91101375043E+02 0.  0.
          5    1    3    3  502    0  0.40898159091E+02 -0.10896644037E+03 -0.91983008292E+02  0.14840717893E+03  0.41800000000E+01 0. -1.
         -5    1    3    3    0  502 -0.17116499740E+02  0.27023916543E+02 -0.86415364090E+01  0.33397831968E+02  0.41800000000E+01 0. -1.
        -11    1    4    4    0    0  0.22075567376E+01  0.35767310749E+02 -0.61435533719E+02  0.71123123022E+02  0.00000000000E+00 0. -1.
         11    1    4    4    0    0 -0.25989216089E+02  0.46175213080E+02  0.25446161857E+02  0.58780071531E+02  0.00000000000E+00 0.  1.
</event>
<event>
 8    1  0.6380238E-009  0.1089833E+03  0.7561462E-02  0.1262464E+00
          2   -1    0    0  501    0  0.00000000000E+00  0.00000000000E+00  0.53055838466E+02  0.53055838466E+02  0.00000000000E+00 0. -1.
         -2   -1    0    0    0  501 -0.00000000000E+00 -0.00000000000E+00 -0.23840928398E+03  0.23840928398E+03  0.00000000000E+00 0.  1.
         25    2    1    2    0    0  0.20795655233E+02  0.56009378499E+01 -0.13520840829E+03  0.18545253698E+03  0.12508996770E+03 0.  0.
         23    2    1    2    0    0 -0.20795655233E+02 -0.56009378499E+01 -0.50145037222E+02  0.10601258546E+03  0.90886268146E+02 0.  0.
          5    1    3    3  502    0 -0.51398148987E+02 -0.40180359457E+01 -0.39344686017E+02  0.64987622283E+02  0.41800000000E+01 0.  1.
         -5    1    3    3    0  502  0.72193804221E+02  0.96189737956E+01 -0.95863722272E+02  0.12046491470E+03  0.41800000000E+01 0.  1.
        -11    1    4    4    0    0  0.18322917456E+02  0.33372298831E+02 -0.17920979855E+02  0.42078511765E+02  0.00000000000E+00 0. -1.
         11    1    4    4    0    0 -0.39118572689E+02 -0.38973236681E+02 -0.32224057367E+02  0.63934073700E+02  0.00000000000E+00 0.  1.
</event>
<event>
 8    1  0.6380238E-009  0.3807884E+03  0.7561462E-02  0.1050643E+00
         -2   -1    0    0    0  501 -0.00000000000E+00  0.00000000000E+00  0.20066302742E+03  0.20066302742E+03  0.00000000000E+00 0. -1.
          2   -1    0    0  501    0  0.00000000000E+00 -0.00000000000E+00 -0.14247891013E+04  0.14247891013E+04  0.00000000000E+00 0.  1.
         25    2    1    2    0    0 -0.22432672540E+03 -0.30069085550E+03 -0.61230516551E+02  0.40017938326E+03  0.12512750425E+03 0.  0.
         23    2    1    2    0    0  0.22432672540E+03  0.30069085550E+03 -0.11628955573E+04  0.12252727454E+04  0.90717987087E+02 0.  0.
          5    1    3    3  502    0 -0.14962822732E+03 -0.22661174920E+03 -0.97897426376E+02  0.28869165173E+03  0.41800000000E+01 0. -1.
         -5    1    3    3    0  502 -0.74698498086E+02 -0.74079106296E+02  0.36666909825E+02  0.11148773153E+03  0.41800000000E+01 0. -1.
        -11    1    4    4    0    0  0.20962399718E+03  0.22467299095E+03 -0.96628289009E+03  0.10139639031E+04  0.00000000000E+00 0.  1.
         11    1    4    4    0    0  0.14702728220E+02  0.76017864549E+02 -0.19661266720E+03  0.21130884234E+03  0.00000000000E+00 0. -1.
</event>
<event>
 8    1  0.6380238E-009  0.1497488E+03  0.7561462E-02  0.1200782E+00
          2   -1    0    0  501    0  0.00000000000E+00  0.00000000000E+00  0.53882286211E+02  0.53882286211E+02  0.00000000000E+00 0. -1.
         -2   -1    0    0    0  501 -0.00000000000E+00 -0.00000000000E+00 -0.57206337987E+03  0.57206337987E+03  0.00000000000E+00 0.  1.
         25    2    1    2    0    0 -0.20115962299E+02  0.13103307065E+03 -0.33485963299E+03  0.38125464181E+03  0.12509920285E+03 0.  0.
         23    2    1    2    0    0  0.20115962299E+02 -0.13103307065E+03 -0.18332146066E+03  0.24469102427E+03  0.93234231242E+02 0.  0.
          5    1    3    3  502    0  0.24395766421E+02  0.88973668515E+02 -0.90497143803E+02  0.12930070589E+03  0.41800000000E+01 0.  1.
         -5    1    3    3    0  502 -0.44511728720E+02  0.42059402131E+02 -0.24436248919E+03  0.25195393592E+03  0.41800000000E+01 0.  1.
        -11    1    4    4    0    0 -0.20362625711E+02 -0.24856378184E+02 -0.39748602800E+01  0.32377084126E+02  0.00000000000E+00 0. -1.
         11    1    4    4    0    0  0.40478588010E+02 -0.10617669246E+03 -0.17934660038E+03  0.21231394014E+03  0.00000000000E+00 0.  1.
</event>
<event>
 8    1  0.6380238E-009  0.2059824E+03  0.7561462E-02  0.1144788E+00
         -2   -1    0    0    0  501 -0.00000000000E+00  0.00000000000E+00  0.26138913055E+03  0.26138913055E+03  0.00000000000E+00 0.  1.
          2   -1    0    0  501    0  0.00000000000E+00 -0.00000000000E+00 -0.18610064902E+03  0.18610064902E+03  0.00000000000E+00 0. -1.
         25    2    1    2    0    0 -0.14705282983E+03 -0.99175338619E+02 -0.39403308627E+02  0.22059052445E+03  0.12508907304E+03 0.  0.
         23    2    1    2    0    0  0.14705282983E+03  0.99175338619E+02  0.11469179016E+03  0.22689925513E+03  0.82878119529E+02 0.  0.
          5    1    3    3  502    0 -0.11249805517E+02 -0.77826360299E+02 -0.54945162147E+01  0.78937713357E+02  0.41800000000E+01 0.  1.
         -5    1    3    3    0  502 -0.13580302431E+03 -0.21348978319E+02 -0.33908792412E+02  0.14165281109E+03  0.41800000000E+01 0.  1.
        -11    1    4    4    0    0  0.63392236352E+02  0.91987686373E+02  0.68949123460E+02  0.13127944127E+03  0.00000000000E+00 0.  1.
         11    1    4    4    0    0  0.83660593475E+02  0.71876522455E+01  0.45742666701E+02  0.95619813858E+02  0.00000000000E+00 0. -1.
</event>
<event>
 8    1  0.6380238E-009  0.1346655E+03  0.7561462E-02  0.1220693E+00
          1   -1    0    0  501    0  0.00000000000E+00  0.00000000000E+00  0.41220213571E+02  0.41220213571E+02  0.00000000000E+00 0. -1.
         -1   -1    0    0    0  501 -0.00000000000E+00 -0.00000000000E+00 -0.52644910610E+03  0.52644910610E+03  0.00000000000E+00 0.  1.
         25    2    1    2    0    0  0.83994536562E+02 -0.11474162673E+02 -0.34132955814E+03  0.37328278817E+03  0.12508970424E+03 0.  0.
         23    2    1    2    0    0 -0.83994536562E+02  0.11474162673E+02 -0.14389933439E+03  0.19438653150E+03  0.99460377074E+02 0.  0.
          5    1    3    3  502    0  0.69388958817E+02  0.51382409543E+02 -0.19541370510E+03  0.21367959228E+03  0.41800000000E+01 0.  1.
         -5    1    3    3    0  502  0.14605577745E+02 -0.62856572216E+02 -0.14591585304E+03  0.15960319589E+03  0.41800000000E+01 0.  1.
        -11    1    4    4    0    0 -0.64045966375E+02  0.45649668733E+02 -0.51880441430E+02  0.94219733959E+02  0.00000000000E+00 0. -1.
         11    1    4    4    0    0 -0.19948570186E+02 -0.34175506060E+02 -0.92018892964E+02  0.10016679754E+03  0.00000000000E+00 0.  1.
</event>
<event>
 8    1  0.6380238E-009  0.1008718E+03  0.7561462E-02  0.1278473E+00
          1   -1    0    0  501    0  0.00000000000E+00  0.00000000000E+00  0.23008775092E+03  0.23008775092E+03  0.00000000000E+00 0. -1.
         -1   -1    0    0    0  501 -0.00000000000E+00 -0.00000000000E+00 -0.67641998196E+02  0.67641998196E+02  0.00000000000E+00 0.  1.
         25    2    1    2    0    0  0.27520257189E+01 -0.39000683721E+02  0.41072589079E+02  0.13734372420E+03  0.12509082312E+03 0.  0.
         23    2    1    2    0    0 -0.27520257189E+01  0.39000683721E+02  0.12137316365E+03  0.16038602492E+03  0.97281062690E+02 0.  0.
          5    1    3    3  502    0  0.32759050006E+02 -0.63806308723E+02 -0.10480216760E+02  0.72606526797E+02  0.41800000000E+01 0. -1.
         -5    1    3    3    0  502 -0.30007024287E+02  0.24805625002E+02  0.51552805839E+02  0.64737197408E+02  0.41800000000E+01 0. -1.
        -11    1    4    4    0    0  0.33450613702E+02  0.42820849430E+02  0.10924981067E+03  0.12201676047E+03  0.00000000000E+00 0. -1.
         11    1    4    4    0    0 -0.36202639421E+02 -0.38201657089E+01  0.12123352979E+02  0.38369264451E+02  0.00000000000E+00 0.  1.
</event>
<event>
 8    1  0.6380238E-009  0.2739035E+03  0.7561462E-02  0.1099066E+00
         -2   -1    0    0    0  501 -0.00000000000E+00  0.00000000000E+00  0.51791017446E+02  0.51791017446E+02  0.00000000000E+00 0.  1.
          2   -1    0    0  501    0  0.00000000000E+00 -0.00000000000E+00 -0.17417994855E+04  0.17417994855E+04  0.00000000000E+00 0. -1.
         25    2    1    2    0    0 -0.17713866688E+03 -0.20093230898E+03 -0.62235838565E+03  0.68900662632E+03  0.12509304866E+03 0.  0.
         23    2    1    2    0    0  0.17713866688E+03  0.20093230898E+03 -0.10676500824E+04  0.11045838766E+04  0.92070309830E+02 0.  0.
          5    1    3    3  502    0 -0.35595266911E+02 -0.59506698876E+02 -0.31256148964E+03  0.32018780027E+03  0.41800000000E+01 0. -1.
         -5    1    3    3    0  502 -0.14154339997E+03 -0.14142561011E+03 -0.30979689602E+03  0.36881882605E+03  0.41800000000E+01 0. -1.
        -11    1    4    4    0    0  0.36290882561E+02  0.46030174395E+01 -0.82708549563E+02  0.90437382190E+02  0.00000000000E+00 0. -1.
         11    1    4    4    0    0  0.14084778432E+03  0.19632929154E+03 -0.98494153282E+03  0.10141464944E+04  0.00000000000E+00 0.  1.
</event>
<event>
 8    1  0.6380238E-009  0.1341318E+03  0.7561462E-02  0.1221451E+00
         -2   -1    0    0    0  501 -0.00000000000E+00  0.00000000000E+00  0.20812496197E+02  0.20812496197E+02  0.00000000000E+00 0.  1.
          2   -1    0    0  501    0  0.00000000000E+00 -0.00000000000E+00 -0.11684991978E+04  0.11684991978E+04  0.00000000000E+00 0. -1.
         25    2    1    2    0    0 -0.10057947528E+03 -0.25344484369E+02 -0.77031199560E+03  0.78726582766E+03  0.12509332153E+03 0.  0.
         23    2    1    2    0    0  0.10057947528E+03  0.25344484369E+02 -0.37737470605E+03  0.40204586639E+03  0.92036059124E+02 0.  0.
          5    1    3    3  502    0 -0.12308761783E+02 -0.39060930872E+02 -0.51691223947E+03  0.51854893467E+03  0.41800000000E+01 0.  1.
         -5    1    3    3    0  502 -0.88270713501E+02  0.13716446503E+02 -0.25339975614E+03  0.26871689299E+03  0.41800000000E+01 0.  1.
        -11    1    4    4    0    0  0.92906927110E+02 -0.17158940930E+02 -0.28036998688E+03  0.29586053455E+03  0.00000000000E+00 0. -1.
         11    1    4    4    0    0  0.76725481742E+01  0.42503425299E+02 -0.97004719166E+02  0.10618533184E+03  0.00000000000E+00 0.  1.
</event>
<event>
 8    1  0.6380238E-009  0.1242294E+03  0.7561462E-02  0.1236278E+00
          2   -1    0    0  501    0  0.00000000000E+00  0.00000000000E+00  0.84935152521E+03  0.84935152521E+03  0.00000000000E+00 0.  1.
         -2   -1    0    0    0  501 -0.00000000000E+00 -0.00000000000E+00 -0.23281252123E+02  0.23281252123E+02  0.00000000000E+00 0. -1.
         25    2    1    2    0    0  0.64446886466E+02 -0.54328981713E+02  0.36345873972E+03  0.39351629118E+03  0.12509107289E+03 0.  0.
         23    2    1    2    0    0 -0.64446886466E+02  0.54328981713E+02  0.46261153337E+03  0.47911648616E+03  0.91859333055E+02 0.  0.
          5    1    3    3  502    0  0.30414322274E+02  0.30106383662E+02  0.21546970740E+03  0.21971821168E+03  0.41800000000E+01 0. -1.
         -5    1    3    3    0  502  0.34032564193E+02 -0.84435365375E+02  0.14798903232E+03  0.17379807950E+03  0.41800000000E+01 0. -1.
        -11    1    4    4    0    0 -0.54670022779E+01  0.55072925383E+02  0.12961153936E+03  0.14093284344E+03  0.00000000000E+00 0. -1.
         11    1    4    4    0    0 -0.58979884188E+02 -0.74394366975E+00  0.33299999401E+03  0.33818364272E+03  0.00000000000E+00 0.  1.
</event>
<event>
 8    1  0.6380238E-009  0.1075094E+03  0.7561462E-02  0.1265253E+00
         -1   -1    0    0    0  501 -0.00000000000E+00  0.00000000000E+00  0.22764137803E+03  0.22764137803E+03  0.00000000000E+00 0.  1.
          1   -1    0    0  501    0  0.00000000000E+00 -0.00000000000E+00 -0.56955872053E+02  0.56955872053E+02  0.00000000000E+00 0. -1.
         25    2    1    2    0    0  0.88481106638E+01  0.27453752038E+02  0.12902327418E+03  0.18200912272E+03  0.12509323686E+03 0.  0.
         23    2    1    2    0    0 -0.88481106638E+01 -0.27453752038E+02  0.41662231794E+02  0.10258812736E+03  0.89199690329E+02 0.  0.
          5    1    3    3  502    0 -0.34566199049E+02  0.60950851462E+02  0.91970964710E+02  0.11569770594E+03  0.41800000000E+01 0.  1.
         -5    1    3    3    0  502  0.43414309713E+02 -0.33497099424E+02  0.37052309474E+02  0.66311416778E+02  0.41800000000E+01 0.  1.
        -11    1    4    4    0    0  0.24004296738E+02 -0.46157855096E+02  0.38362135068E+02  0.64640600677E+02  0.00000000000E+00 0. -1.
         11    1    4    4    0    0 -0.32852407402E+02  0.18704103058E+02  0.33000967255E+01  0.37947526687E+02  0.00000000000E+00 0.  1.
</event>
<event>
 8    1  0.6380238E-009  0.1892725E+03  0.7561462E-02  0.1159119E+00
          1   -1    0    0  501    0  0.00000000000E+00  0.00000000000E+00  0.47507303738E+03  0.47507303738E+03  0.00000000000E+00 0. -1.
         -1   -1    0    0    0  501 -0.00000000000E+00 -0.00000000000E+00 -0.89239841907E+02  0.89239841907E+02  0.00000000000E+00 0.  1.
         25    2    1    2    0    0  0.12377945620E+02  0.17429764765E+03  0.21718082126E+03  0.30553380623E+03  0.12510201482E+03 0.  0.
         23    2    1    2    0    0 -0.12377945620E+02 -0.17429764765E+03  0.16865237421E+03  0.25877907305E+03  0.89387369399E+02 0.  0.
          5    1    3    3  502    0  0.33840319737E+02  0.88797159509E+02  0.31928879662E+02  0.10033458294E+03  0.41800000000E+01 0.  1.
         -5    1    3    3    0  502 -0.21462374118E+02  0.85500488143E+02  0.18525194159E+03  0.20519922329E+03  0.41800000000E+01 0.  1.
        -11    1    4    4    0    0  0.32453265640E+02 -0.30448525807E+02  0.27467457856E+02  0.52295204518E+02  0.00000000000E+00 0. -1.
         11    1    4    4    0    0 -0.44831211260E+02 -0.14384912185E+03  0.14118491636E+03  0.20648386854E+03  0.00000000000E+00 0.  1.
</event>
<event>
 8    1  0.6380238E-009  0.9440044E+02  0.7561462E-02  0.1292532E+00
          2   -1    0    0  501    0  0.00000000000E+00  0.00000000000E+00  0.20608756983E+03  0.20608756983E+03  0.00000000000E+00 0. -1.
         -2   -1    0    0    0  501 -0.00000000000E+00 -0.00000000000E+00 -0.11119088587E+03  0.11119088587E+03  0.00000000000E+00 0.  1.
         25    2    1    2    0    0 -0.22852474921E+02 -0.74239047030E+02 -0.21685063287E+02  0.14883675751E+03  0.12509383160E+03 0.  0.
         23    2    1    2    0    0  0.22852474921E+02  0.74239047030E+02  0.11658174725E+03  0.16844169819E+03  0.93528766620E+02 0.  0.
          5    1    3    3  502    0 -0.24258364033E+02 -0.34597483736E+02  0.50735374489E+02  0.66158935383E+02  0.41800000000E+01 0. -1.
         -5    1    3    3    0  502  0.14058891115E+01 -0.39641563295E+02 -0.72420437777E+02  0.82677822132E+02  0.41800000000E+01 0. -1.
        -11    1    4    4    0    0  0.10976872656E+02 -0.13791114679E+02 -0.45754982521E+01  0.18210484938E+02  0.00000000000E+00 0.  1.
         11    1    4    4    0    0  0.11875602265E+02  0.88030161710E+02  0.12115724550E+03  0.15023121326E+03  0.00000000000E+00 0. -1.
</event>
<event>
 8    1  0.6380238E-009  0.1652200E+03  0.7561462E-02  0.1182926E+00
          1   -1    0    0  501    0  0.00000000000E+00  0.00000000000E+00  0.32650432270E+03  0.32650432270E+03  0.00000000000E+00 0. -1.
         -1   -1    0    0    0  501 -0.00000000000E+00 -0.00000000000E+00 -0.86328598960E+02  0.86328598960E+02  0.00000000000E+00 0.  1.
         25    2    1    2    0    0 -0.11070801866E+03  0.59917896463E+02  0.97042350142E+02  0.20226799224E+03  0.12509477709E+03 0.  0.
         23    2    1    2    0    0  0.11070801866E+03 -0.59917896463E+02  0.14313337359E+03  0.21056492941E+03  0.89465116948E+02 0.  0.
          5    1    3    3  502    0 -0.12065950658E+03  0.85732044509E+02  0.71714168891E+02  0.16452688049E+03  0.41800000000E+01 0.  1.
         -5    1    3    3    0  502  0.99514879207E+01 -0.25814148046E+02  0.25328181251E+02  0.37741111757E+02  0.41800000000E+01 0.  1.
        -11    1    4    4    0    0  0.94467098042E+02 -0.83278373530E+02  0.11463391375E+03  0.17029461028E+03  0.00000000000E+00 0. -1.
         11    1    4    4    0    0  0.16240920615E+02  0.23360477068E+02  0.28499459847E+02  0.40270319130E+02  0.00000000000E+00 0.  1.
</event>
<event>
 8    1  0.6380238E-009  0.9998556E+02  0.7561462E-02  0.1280326E+00
          2   -1    0    0  501    0  0.00000000000E+00  0.00000000000E+00  0.25471123045E+03  0.25471123045E+03  0.00000000000E+00 0. -1.
         -2   -1    0    0    0  501 -0.00000000000E+00 -0.00000000000E+00 -0.73358871559E+02  0.73358871559E+02  0.00000000000E+00 0.  1.
         25    2    1    2    0    0  0.62549708127E+02  0.46630906807E+02  0.78038810418E+02  0.16680691700E+03  0.12509030407E+03 0.  0.
         23    2    1    2    0    0 -0.62549708127E+02 -0.46630906807E+02  0.10331354847E+03  0.16126318500E+03  0.96152057098E+02 0.  0.
          5    1    3    3  502    0  0.42951759497E+02  0.72982319735E+02  0.96858994874E+02  0.12872610429E+03  0.41800000000E+01 0.  1.
         -5    1    3    3    0  502  0.19597948630E+02 -0.26351412927E+02 -0.18820184456E+02  0.38080812711E+02  0.41800000000E+01 0.  1.
        -11    1    4    4    0    0 -0.33960067624E+02 -0.95892623853E+01 -0.11634425217E+02  0.37156426043E+02  0.00000000000E+00 0.  1.
         11    1    4    4    0    0 -0.28589640502E+02 -0.37041644422E+02  0.11494797369E+03  0.12410675896E+03  0.00000000000E+00 0. -1.
</event>
<event>
 8    1  0.6380238E-009  0.1977091E+03  0.7561462E-02  0.1151686E+00
          2   -1    0    0  501    0  0.00000000000E+00  0.00000000000E+00  0.11339698792E+03  0.11339698792E+03  0.00000000000E+00 0. -1.
         -2   -1    0    0    0  501 -0.00000000000E+00 -0.00000000000E+00 -0.36566578239E+03  0.36566578239E+03  0.00000000000E+00 0.  1.
         25    2    1    2    0    0 -0.16980337454E+03 -0.14822516071E+02 -0.11000502786E+03  0.23832943867E+03  0.12508765804E+03 0.  0.
         23    2    1    2    0    0  0.16980337454E+03  0.14822516071E+02 -0.14226376661E+03  0.24073333165E+03  0.93062692243E+02 0.  0.
          5    1    3    3  502    0  0.14211849802E+02 -0.15088856249E+02  0.44150315681E+01  0.21601276848E+02  0.41800000000E+01 0.  1.
         -5    1    3    3    0  502 -0.18401522434E+03  0.26634017841E+00 -0.11442005943E+03  0.21672816182E+03  0.41800000000E+01 0.  1.
        -11    1    4    4    0    0  0.54458728424E+01  0.24953266925E+02 -0.42838154266E+01  0.25897377007E+02  0.00000000000E+00 0. -1.
         11    1    4    4    0    0  0.16435750170E+03 -0.10130750854E+02 -0.13797995118E+03  0.21483595464E+03  0.00000000000E+00 0.  1.
</event>
<event>
 8    1  0.6380238E-009  0.1146122E+03  0.7561462E-02  0.1252260E+00
          1   -1    0    0  501    0  0.00000000000E+00  0.00000000000E+00  0.10484157452E+04  0.10484157452E+04  0.00000000000E+00 0. -1.
         -1   -1    0    0    0  501 -0.00000000000E+00 -0.00000000000E+00 -0.16651192965E+02  0.16651192965E+02  0.00000000000E+00 0.  1.
         25    2    1    2    0    0  0.70029191590E+02  0.28773527343E+02  0.52672338369E+03  0.54664069338E+03  0.12508605511E+03 0.  0.
         23    2    1    2    0    0 -0.70029191590E+02 -0.28773527343E+02  0.50504116854E+03  0.51842624478E+03  0.89259093694E+02 0.  0.
          5    1    3    3  502    0  0.38529490169E+02  0.57997425901E+02  0.12961777631E+03  0.14719532383E+03  0.41800000000E+01 0.  1.
         -5    1    3    3    0  502  0.31499701421E+02 -0.29223898557E+02  0.39710560738E+03  0.39944536954E+03  0.41800000000E+01 0.  1.
        -11    1    4    4    0    0 -0.49135205487E+02 -0.60730077390E+02  0.36557884877E+03  0.37383192130E+03  0.00000000000E+00 0. -1.
         11    1    4    4    0    0 -0.20893986103E+02  0.31956550046E+02  0.13946231978E+03  0.14459432348E+03  0.00000000000E+00 0.  1.
</event>
<event>
 8    1  0.6380238E-009  0.9254173E+02  0.7561462E-02  0.1296811E+00
         -2   -1    0    0    0  501 -0.00000000000E+00  0.00000000000E+00  0.38723329412E+03  0.38723329412E+03  0.00000000000E+00 0.  1.
          2   -1    0    0  501    0  0.00000000000E+00 -0.00000000000E+00 -0.35284333747E+02  0.35284333747E+02  0.00000000000E+00 0. -1.
         25    2    1    2    0    0 -0.28367595753E+02 -0.10760419871E+01  0.26138378973E+03  0.29116184828E+03  0.12509139859E+03 0.  0.
         23    2    1    2    0    0  0.28367595753E+02  0.10760419871E+01  0.90565170646E+02  0.13135577959E+03  0.90809759077E+02 0.  0.
          5    1    3    3  502    0  0.49198687192E+02 -0.58564111043E+01  0.87146087421E+02  0.10033305201E+03  0.41800000000E+01 0.  1.
         -5    1    3    3    0  502 -0.77566282945E+02  0.47803691172E+01  0.17423770231E+03  0.19082879627E+03  0.41800000000E+01 0.  1.
        -11    1    4    4    0    0 -0.13933182419E+02 -0.49948960623E+01  0.87246254814E+02  0.88492889760E+02  0.00000000000E+00 0.  1.
         11    1    4    4    0    0  0.42300778172E+02  0.60709380494E+01  0.33189158323E+01  0.42862889835E+02  0.00000000000E+00 0. -1.
</event>
<event>
 8    1  0.6380238E-009  0.8820257E+02  0.7561462E-02  0.1307264E+00
          3   -1    0    0  501    0  0.00000000000E+00  0.00000000000E+00  0.70640205463E+03  0.70640205463E+03  0.00000000000E+00 0.  1.
         -3   -1    0    0    0  501 -0.00000000000E+00 -0.00000000000E+00 -0.17067746146E+02  0.17067746146E+02  0.00000000000E+00 0. -1.
         25    2    1    2    0    0  0.86672301028E+01 -0.18947713394E+02  0.43336039663E+03  0.45153395540E+03  0.12509013865E+03 0.  0.
         23    2    1    2    0    0 -0.86672301028E+01  0.18947713394E+02  0.25597391185E+03  0.27193584538E+03  0.89399797160E+02 0.  0.
          5    1    3    3  502    0 -0.86784053440E+00 -0.55092230128E+02  0.39099467898E+03  0.39488000501E+03  0.41800000000E+01 0. -1.
         -5    1    3    3    0  502  0.95350706372E+01  0.36144516735E+02  0.42365717649E+02  0.56653950383E+02  0.41800000000E+01 0. -1.
        -11    1    4    4    0    0 -0.44437672054E+02  0.35161081620E+01  0.78847592841E+02  0.90576004609E+02  0.00000000000E+00 0. -1.
         11    1    4    4    0    0  0.35770441951E+02  0.15431605232E+02  0.17712631901E+03  0.18135984077E+03  0.00000000000E+00 0.  1.
</event>
<event>
 8    1  0.6380238E-009  0.1100418E+03  0.7561462E-02  0.1260492E+00
         -2   -1    0    0    0  501 -0.00000000000E+00  0.00000000000E+00  0.16086082929E+03  0.16086082929E+03  0.00000000000E+00 0.  1.
          2   -1    0    0  501    0  0.00000000000E+00 -0.00000000000E+00 -0.17037065009E+03  0.17037065009E+03  0.00000000000E+00 0. -1.
         25    2    1    2    0    0  0.74283640420E+02  0.49541600610E+02 -0.94643765056E+02  0.18049331892E+03  0.12509183222E+03 0.  0.
         23    2    1    2    0    0 -0.74283640420E+02 -0.49541600610E+02  0.85133944256E+02  0.15073816045E+03  0.86612788477E+02 0.  0.
          5    1    3    3  502    0  0.52497509361E+02 -0.40964911832E+01  0.16301967085E+02  0.55281066017E+02  0.41800000000E+01 0.  1.
         -5    1    3    3    0  502  0.21786131059E+02  0.53638091794E+02 -0.11094573214E+03  0.12521225291E+03  0.41800000000E+01 0.  1.
        -11    1    4    4    0    0  0.10450520407E+02  0.10907049055E+01 -0.93737746703E+01  0.14080861676E+02  0.00000000000E+00 0. -1.
         11    1    4    4    0    0 -0.84734160827E+02 -0.50632305516E+02  0.94507718926E+02  0.13665729878E+03  0.00000000000E+00 0.  1.
</event>
<event>
 8    1  0.6380238E-009  0.9431413E+02  0.7561462E-02  0.1292728E+00
         -1   -1    0    0    0  501 -0.00000000000E+00  0.00000000000E+00  0.14301690290E+02  0.14301690290E+02  0.00000000000E+00 0.  1.
          1   -1    0    0  501    0  0.00000000000E+00 -0.00000000000E+00 -0.88342351961E+03  0.88342351961E+03  0.00000000000E+00 0. -1.
         25    2    1    2    0    0 -0.29105610760E+02 -0.42252011878E+01 -0.47269656010E+03  0.48985138433E+03  0.12508937564E+03 0.  0.
         23    2    1    2    0    0  0.29105610760E+02  0.42252011878E+01 -0.39642526922E+03  0.40787382557E+03  0.91340432479E+02 0.  0.
          5    1    3    3  502    0 -0.26332936411E+02 -0.47728399484E+02 -0.94868136143E+02  0.10949364964E+03  0.41800000000E+01 0.  1.
         -5    1    3    3    0  502 -0.27726743496E+01  0.43503198296E+02 -0.37782842395E+03  0.38035773468E+03  0.41800000000E+01 0.  1.
        -11    1    4    4    0    0  0.21162989790E+02 -0.39989220630E+02 -0.26861985535E+03  0.27240344453E+03  0.00000000000E+00 0. -1.
         11    1    4    4    0    0  0.79426209702E+01  0.44214421817E+02 -0.12780541387E+03  0.13547038104E+03  0.00000000000E+00 0.  1.
</event>
<event>
 8    1  0.6380238E-009  0.1085283E+03  0.7561462E-02  0.1263320E+00
          1   -1    0    0  501    0  0.00000000000E+00  0.00000000000E+00  0.14838913657E+03  0.14838913657E+03  0.00000000000E+00 0. -1.
         -1   -1    0    0    0  501 -0.00000000000E+00 -0.00000000000E+00 -0.16252590838E+03  0.16252590838E+03  0.00000000000E+00 0.  1.
         25    2    1    2    0    0 -0.67591847004E+01 -0.20707274823E+02  0.10104242917E+03  0.16227429417E+03  0.12509554847E+03 0.  0.
         23    2    1    2    0    0  0.67591847004E+01  0.20707274823E+02 -0.11517920099E+03  0.14864075078E+03  0.91396644607E+02 0.  0.
          5    1    3    3  502    0  0.43498574227E+02 -0.48726419916E+02  0.73266898709E+02  0.98244087884E+02  0.41800000000E+01 0.  1.
         -5    1    3    3    0  502 -0.50257758928E+02  0.28019145093E+02  0.27775530461E+02  0.64030206282E+02  0.41800000000E+01 0.  1.
        -11    1    4    4    0    0 -0.40318485084E+02 -0.44016187681E+01 -0.47511945573E+02  0.62468707842E+02  0.00000000000E+00 0. -1.
         11    1    4    4    0    0  0.47077669785E+02  0.25108893591E+02 -0.67667255413E+02  0.86172042942E+02  0.00000000000E+00 0.  1.
</event>
<event>
 8    1  0.6380238E-009  0.1092879E+03  0.7561462E-02  0.1261894E+00
          1   -1    0    0  501    0  0.00000000000E+00  0.00000000000E+00  0.46781567265E+02  0.46781567265E+02  0.00000000000E+00 0. -1.
         -1   -1    0    0    0  501 -0.00000000000E+00 -0.00000000000E+00 -0.44533681268E+03  0.44533681268E+03  0.00000000000E+00 0.  1.
         25    2    1    2    0    0 -0.44617472241E+02  0.19439647499E+02 -0.78117389638E+02  0.15531396305E+03  0.12510588248E+03 0.  0.
         23    2    1    2    0    0  0.44617472241E+02 -0.19439647499E+02 -0.32043785578E+03  0.33680441689E+03  0.91586991976E+02 0.  0.
          5    1    3    3  502    0 -0.45950582197E+02  0.65422408080E+02 -0.73865327493E+02  0.10892706959E+03  0.41800000000E+01 0. -1.
         -5    1    3    3    0  502  0.13331099556E+01 -0.45982760581E+02 -0.42520621452E+01  0.46386893465E+02  0.41800000000E+01 0. -1.
        -11    1    4    4    0    0  0.39807459288E+02  0.25406653612E+02 -0.86434706716E+02  0.98494113468E+02  0.00000000000E+00 0. -1.
         11    1    4    4    0    0  0.48100129532E+01 -0.44846301111E+02 -0.23400314906E+03  0.23831030343E+03  0.00000000000E+00 0.  1.
</event>
<event>
 8    1  0.6380238E-009  0.1151430E+03  0.7561462E-02  0.1251332E+00
         -2   -1    0    0    0  501 -0.00000000000E+00  0.00000000000E+00  0.28822308860E+02  0.28822308860E+02  0.00000000000E+00 0.  1.
          2   -1    0    0  501    0  0.00000000000E+00 -0.00000000000E+00 -0.48930761597E+03  0.48930761597E+03  0.00000000000E+00 0. -1.
         25    2    1    2    0    0  0.27213311560E+02  0.39553977115E+02 -0.30843531605E+03  0.33628207920E+03  0.12509281026E+03 0.  0.
         23    2    1    2    0    0 -0.27213311560E+02 -0.39553977115E+02 -0.15204999107E+03  0.18184784563E+03  0.87432017847E+02 0.  0.
          5    1    3    3  502    0  0.55873458671E+02  0.71146299221E+02 -0.22336615854E+03  0.24102604104E+03  0.41800000000E+01 0. -1.
         -5    1    3    3    0  502 -0.28660147111E+02 -0.31592322107E+02 -0.85069157503E+02  0.95256038165E+02  0.41800000000E+01 0. -1.
        -11    1    4    4    0    0 -0.45437360764E+02  0.78224131608E+01 -0.50910353566E+02  0.68684845498E+02  0.00000000000E+00 0.  1.
         11    1    4    4    0    0  0.18224049204E+02 -0.47376390275E+02 -0.10113963750E+03  0.11316300013E+03  0.00000000000E+00 0. -1.
</event>
<event>
 8    1  0.6380238E-009  0.9251732E+02  0.7561462E-02  0.1296868E+00
          2   -1    0    0  501    0  0.00000000000E+00  0.00000000000E+00  0.16138888303E+03  0.16138888303E+03  0.00000000000E+00 0.  1.
         -2   -1    0    0    0  501 -0.00000000000E+00 -0.00000000000E+00 -0.11677386678E+03  0.11677386678E+03  0.00000000000E+00 0. -1.
         25    2    1    2    0    0  0.46832311014E+01  0.15222712732E+01 -0.59805022090E+02  0.13874109984E+03  0.12509277419E+03 0.  0.
         23    2    1    2    0    0 -0.46832311014E+01 -0.15222712732E+01  0.10442003834E+03  0.13942164997E+03  0.92252924663E+02 0.  0.
          5    1    3    3  502    0  0.38748697690E+02 -0.31586302914E+02  0.12894524190E+02  0.51796691579E+02  0.41800000000E+01 0.  1.
         -5    1    3    3    0  502 -0.34065466589E+02  0.33108574187E+02 -0.72699546280E+02  0.86944408261E+02  0.41800000000E+01 0.  1.
        -11    1    4    4    0    0 -0.45585202635E+02 -0.62303399760E+01  0.31756454880E+02  0.55904384998E+02  0.00000000000E+00 0. -1.
         11    1    4    4    0    0  0.40901971534E+02  0.47080687029E+01  0.72663583465E+02  0.83517264971E+02  0.00000000000E+00 0.  1.
</event>
<event>
 8    1  0.6380238E-009  0.1110437E+03  0.7561462E-02  0.1258649E+00
         -1   -1    0    0    0  501 -0.00000000000E+00  0.00000000000E+00  0.12835054228E+02  0.12835054228E+02  0.00000000000E+00 0.  1.
          1   -1    0    0  501    0  0.00000000000E+00 -0.00000000000E+00 -0.11615229520E+04  0.11615229520E+04  0.00000000000E+00 0. -1.
         25    2    1    2    0    0 -0.34723549262E+02  0.71612398770E+00 -0.85263224820E+03  0.86246623577E+03  0.12513999942E+03 0.  0.
         23    2    1    2    0    0  0.34723549262E+02 -0.71612398770E+00 -0.29605564958E+03  0.31189177048E+03  0.91767593048E+02 0.  0.
          5    1    3    3  502    0 -0.34501939194E+02 -0.59823424885E+02 -0.45369626455E+03  0.45894117144E+03  0.41800000000E+01 0. -1.
         -5    1    3    3    0  502 -0.22161006749E+00  0.60539548873E+02 -0.39893598365E+03  0.40352506433E+03  0.41800000000E+01 0. -1.
        -11    1    4    4    0    0  0.18016617344E+02 -0.43070547011E+02 -0.20293615521E+03  0.20823725318E+03  0.00000000000E+00 0.  1.
         11    1    4    4    0    0  0.16706931918E+02  0.42354423023E+02 -0.93119494370E+02  0.10365451729E+03  0.00000000000E+00 0. -1.
</event>
<event>
 8    1  0.6380238E-009  0.1148927E+03  0.7561462E-02  0.1251768E+00
         -4   -1    0    0    0  501 -0.00000000000E+00  0.00000000000E+00  0.90275006236E+02  0.90275006236E+02  0.00000000000E+00 0.  1.
          4   -1    0    0  501    0  0.00000000000E+00 -0.00000000000E+00 -0.24614290839E+03  0.24614290839E+03  0.00000000000E+00 0. -1.
         25    2    1    2    0    0 -0.79765243748E+01 -0.96359876237E+02 -0.47484599088E+02  0.16508053215E+03  0.12509174335E+03 0.  0.
         23    2    1    2    0    0  0.79765243748E+01  0.96359876237E+02 -0.10838330306E+03  0.17133738247E+03  0.90888434689E+02 0.  0.
          5    1    3    3  502    0 -0.29748192565E+02 -0.23803362815E+02  0.35781599673E+02  0.52434247561E+02  0.41800000000E+01 0. -1.
         -5    1    3    3    0  502  0.21771668190E+02 -0.72556513422E+02 -0.83266198761E+02  0.11264628459E+03  0.41800000000E+01 0. -1.
        -11    1    4    4    0    0 -0.27835471903E+02  0.37708220272E+02 -0.49138545821E+01  0.47126100401E+02  0.00000000000E+00 0.  1.
         11    1    4    4    0    0  0.35811996278E+02  0.58651655966E+02 -0.10346944848E+03  0.12421128207E+03  0.00000000000E+00 0. -1.
</event>
<event>
 8    1  0.6380238E-009  0.1264782E+03  0.7561462E-02  0.1232777E+00
          1   -1    0    0  501    0  0.00000000000E+00  0.00000000000E+00  0.14646197846E+03  0.14646197846E+03  0.00000000000E+00 0. -1.
         -1   -1    0    0    0  501 -0.00000000000E+00 -0.00000000000E+00 -0.13350261326E+03  0.13350261326E+03  0.00000000000E+00 0.  1.
         25    2    1    2    0    0  0.82742200099E+02  0.21788666125E+02  0.55014397864E+02  0.16123012161E+03  0.12509016945E+03 0.  0.
         23    2    1    2    0    0 -0.82742200099E+02 -0.21788666125E+02 -0.42055032668E+02  0.11873447011E+03  0.70768855936E+02 0.  0.
          5    1    3    3  502    0  0.10895363808E+03 -0.17673790305E+01  0.61439590385E+02  0.12516514908E+03  0.41800000000E+01 0.  1.
         -5    1    3    3    0  502 -0.26211437977E+02  0.23556045156E+02 -0.64251925210E+01  0.36064972523E+02  0.41800000000E+01 0.  1.
        -11    1    4    4    0    0 -0.32158850953E+02 -0.42894033921E+02 -0.33617748216E+02  0.63279086875E+02  0.00000000000E+00 0.  1.
         11    1    4    4    0    0 -0.50583349146E+02  0.21105367796E+02 -0.84372844523E+01  0.55455383233E+02  0.00000000000E+00 0. -1.
</event>
<event>
 8    1  0.6380238E-009  0.9388604E+02  0.7561462E-02  0.1293705E+00
         -1   -1    0    0    0  501 -0.00000000000E+00  0.00000000000E+00  0.28984603394E+02  0.28984603394E+02  0.00000000000E+00 0.  1.
          1   -1    0    0  501    0  0.00000000000E+00 -0.00000000000E+00 -0.42041019137E+03  0.42041019137E+03  0.00000000000E+00 0. -1.
         25    2    1    2    0    0 -0.20480020099E+02 -0.33570840318E+00 -0.23743762832E+03  0.26915294561E+03  0.12508851612E+03 0.  0.
         23    2    1    2    0    0  0.20480020099E+02  0.33570840318E+00 -0.15398795966E+03  0.18024184916E+03  0.91407267458E+02 0.  0.
          5    1    3    3  502    0 -0.14706592097E+02 -0.54753764918E+02 -0.18388429502E+03  0.19247120559E+03  0.41800000000E+01 0. -1.
         -5    1    3    3    0  502 -0.57734280029E+01  0.54418056515E+02 -0.53553333295E+02  0.76681740022E+02  0.41800000000E+01 0. -1.
        -11    1    4    4    0    0 -0.13604892946E+02  0.28658773398E+02 -0.16439880494E+02  0.35730772107E+02  0.00000000000E+00 0.  1.
         11    1    4    4    0    0  0.34084913045E+02 -0.28323064995E+02 -0.13754807916E+03  0.14451107705E+03  0.00000000000E+00 0. -1.
</event>
<event>
 8    1  0.6380238E-009  0.8970901E+02  0.7561462E-02  0.1303558E+00
         -2   -1    0    0    0  501 -0.00000000000E+00  0.00000000000E+00  0.27366502267E+02  0.27366502267E+02  0.00000000000E+00 0.  1.
          2   -1    0    0  501    0  0.00000000000E+00 -0.00000000000E+00 -0.57843907878E+03  0.57843907878E+03  0.00000000000E+00 0. -1.
         25    2    1    2    0    0 -0.16091117271E+00  0.30822794680E+02 -0.44374326241E+03  0.46206750783E+03  0.12509287867E+03 0.  0.
         23    2    1    2    0    0  0.16091117271E+00 -0.30822794680E+02 -0.10732931410E+03  0.14373807321E+03  0.90504041136E+02 0.  0.
          5    1    3    3  502    0  0.56992309096E+02 -0.21109140538E+01 -0.27413426820E+03  0.28003508469E+03  0.41800000000E+01 0. -1.
         -5    1    3    3    0  502 -0.57153220268E+02  0.32933708734E+02 -0.16960899421E+03  0.18203242314E+03  0.41800000000E+01 0. -1.
        -11    1    4    4    0    0 -0.19507179211E+02 -0.30814733075E+02 -0.11647234649E+03  0.12204870057E+03  0.00000000000E+00 0. -1.
         11    1    4    4    0    0  0.19668090384E+02 -0.80616049602E-02  0.91430323875E+01  0.21689372641E+02  0.00000000000E+00 0.  1.
</event>
<event>
 8    1  0.6380238E-009  0.9979306E+02  0.7561462E-02  0.1280732E+00
         -2   -1    0    0    0  501 -0.00000000000E+00  0.00000000000E+00  0.36888925205E+02  0.36888925205E+02  0.00000000000E+00 0.  1.
          2   -1    0    0  501    0  0.00000000000E+00 -0.00000000000E+00 -0.35968089071E+03  0.35968089071E+03  0.00000000000E+00 0. -1.
         25    2    1    2    0    0  0.33715116523E+02  0.14808713484E+02 -0.20470243792E+03  0.24268767457E+03  0.12505283772E+03 0.  0.
         23    2    1    2    0    0 -0.33715116523E+02 -0.14808713484E+02 -0.11808952759E+03  0.15388214135E+03  0.91534528034E+02 0.  0.
          5    1    3    3  502    0  0.28489233384E+02  0.54367212196E+02 -0.40501875767E+02  0.73656666510E+02  0.41800000000E+01 0. -1.
         -5    1    3    3    0  502  0.52258831398E+01 -0.39558498711E+02 -0.16420056215E+03  0.16903100806E+03  0.41800000000E+01 0. -1.
        -11    1    4    4    0    0 -0.37228532884E+02  0.33154905173E+02 -0.50813824969E+02  0.71184662714E+02  0.00000000000E+00 0. -1.
         11    1    4    4    0    0  0.35134163610E+01 -0.47963618658E+02 -0.67275702623E+02  0.82697478636E+02  0.00000000000E+00 0.  1.
</event>
<event>
 8    1  0.6380238E-009  0.1087771E+03  0.7561462E-02  0.1262851E+00
          2   -1    0    0  501    0  0.00000000000E+00  0.00000000000E+00  0.41427896345E+03  0.41427896345E+03  0.00000000000E+00 0. -1.
         -2   -1    0    0    0  501 -0.00000000000E+00 -0.00000000000E+00 -0.85158205349E+02  0.85158205349E+02  0.00000000000E+00 0.  1.
         25    2    1    2    0    0 -0.69812346085E+02  0.31198489181E+02  0.34885005119E+03  0.37840670349E+03  0.12509262824E+03 0.  0.
         23    2    1    2    0    0  0.69812346085E+02 -0.31198489181E+02 -0.19729293093E+02  0.12103046530E+03  0.91717060207E+02 0.  0.
          5    1    3    3  502    0 -0.80469297891E+02  0.45162141949E+02  0.34830171053E+03  0.36034217200E+03  0.41800000000E+01 0.  1.
         -5    1    3    3    0  502  0.10656951807E+02 -0.13963652768E+02  0.54834066540E+00  0.18064531489E+02  0.41800000000E+01 0.  1.
        -11    1    4    4    0    0 -0.96092289027E+01  0.13053702211E+02 -0.25183709353E+02  0.29949217657E+02  0.00000000000E+00 0. -1.
         11    1    4    4    0    0  0.79421574987E+02 -0.44252191391E+02  0.54544162599E+01  0.91081247648E+02  0.00000000000E+00 0.  1.
</event>
<event>
 8    1  0.6380238E-009  0.1716862E+03  0.7561462E-02  0.1176101E+00
         -2   -1    0    0    0  501 -0.00000000000E+00  0.00000000000E+00  0.35992512218E+02  0.35992512218E+02  0.00000000000E+00 0.  1.
          2   -1    0    0  501    0  0.00000000000E+00 -0.00000000000E+00 -0.94496194272E+03  0.94496194272E+03  0.00000000000E+00 0. -1.
         25    2    1    2    0    0 -0.14725699087E+03  0.18416319293E+02 -0.45983864172E+03  0.49912218883E+03  0.12509037045E+03 0.  0.
         23    2    1    2    0    0  0.14725699087E+03 -0.18416319293E+02 -0.44913078878E+03  0.48183226611E+03  0.91761021466E+02 0.  0.
          5    1    3    3  502    0 -0.10480403143E+03 -0.30162676053E+02 -0.38527091984E+03  0.40043080064E+03  0.41800000000E+01 0. -1.
         -5    1    3    3    0  502 -0.42452959443E+02  0.48578995346E+02 -0.74567721883E+02  0.98691388181E+02  0.41800000000E+01 0. -1.
        -11    1    4    4    0    0 -0.22270808970E+01 -0.19968114659E+02 -0.10071846122E+03  0.10270294019E+03  0.00000000000E+00 0.  1.
         11    1    4    4    0    0  0.14948407177E+03  0.15517953666E+01 -0.34841232756E+03  0.37912932592E+03  0.00000000000E+00 0. -1.
</event>
<event>
 8    1  0.6380238E-009  0.5642068E+02  0.7561462E-02  0.1413497E+00
         -3   -1    0    0    0  501 -0.00000000000E+00  0.00000000000E+00  0.16214672098E+03  0.16214672098E+03  0.00000000000E+00 0.  1.
          3   -1    0    0  501    0  0.00000000000E+00 -0.00000000000E+00 -0.74647102135E+02  0.74647102135E+02  0.00000000000E+00 0. -1.
         25    2    1    2    0    0 -0.27109694911E+01  0.30800403864E+01  0.72440574771E+02  0.14460905000E+03  0.12508918604E+03 0.  0.
         23    2    1    2    0    0  0.27109694911E+01 -0.30800403864E+01  0.15059044079E+02  0.92184773119E+02  0.90853847371E+02 0.  0.
          5    1    3    3  502    0 -0.36278368739E+01 -0.28636539648E+02  0.98882838952E+02  0.10309462082E+03  0.41800000000E+01 0.  1.
         -5    1    3    3    0  502  0.91686738282E+00  0.31716580035E+02 -0.26442264181E+02  0.41514429177E+02  0.41800000000E+01 0.  1.
        -11    1    4    4    0    0 -0.11293733492E+01 -0.27211915942E+02 -0.30251503523E+02  0.40705249278E+02  0.00000000000E+00 0. -1.
         11    1    4    4    0    0  0.38403428403E+01  0.24131875556E+02  0.45310547602E+02  0.51479523841E+02  0.00000000000E+00 0.  1.
</event>
<event>
 8    1  0.6380238E-009  0.1288541E+03  0.7561462E-02  0.1229166E+00
         -1   -1    0    0    0  501 -0.00000000000E+00  0.00000000000E+00  0.46151538405E+03  0.46151538405E+03  0.00000000000E+00 0.  1.
          1   -1    0    0  501    0  0.00000000000E+00 -0.00000000000E+00 -0.60318651918E+02  0.60318651918E+02  0.00000000000E+00 0. -1.
         25    2    1    2    0    0  0.84193067836E+02 -0.60540328743E+02  0.99303209856E+02  0.19042300049E+03  0.12508472150E+03 0.  0.
         23    2    1    2    0    0 -0.84193067836E+02  0.60540328743E+02  0.30189352227E+03  0.33141103548E+03  0.89106518106E+02 0.  0.
          5    1    3    3  502    0  0.71697607100E+02 -0.30733465300E+01 -0.34377530904E+01  0.71967234691E+02  0.41800000000E+01 0.  1.
         -5    1    3    3    0  502  0.12495460736E+02 -0.57466982212E+02  0.10274096295E+03  0.11845576580E+03  0.41800000000E+01 0.  1.
        -11    1    4    4    0    0 -0.53113941841E+02  0.75549318759E+02  0.15421206445E+03  0.17975024675E+03  0.00000000000E+00 0. -1.
         11    1    4    4    0    0 -0.31079125994E+02 -0.15008990017E+02  0.14768145782E+03  0.15166078873E+03  0.00000000000E+00 0.  1.
</event>
<event>
 8    1  0.6380238E-009  0.2538254E+03  0.7561462E-02  0.1110911E+00
         -1   -1    0    0    0  501 -0.00000000000E+00  0.00000000000E+00  0.11554099782E+03  0.11554099782E+03  0.00000000000E+00 0.  1.
          1   -1    0    0  501    0  0.00000000000E+00 -0.00000000000E+00 -0.63717177796E+03  0.63717177796E+03  0.00000000000E+00 0. -1.
         25    2    1    2    0    0 -0.23576582616E+03  0.65626690176E+02 -0.31471489847E+03  0.41784412473E+03  0.12512337113E+03 0.  0.
         23    2    1    2    0    0  0.23576582616E+03 -0.65626690176E+02 -0.20691588167E+03  0.33486865105E+03  0.97110473788E+02 0.  0.
          5    1    3    3  502    0 -0.20559797679E+03  0.62960708702E+02 -0.32123906877E+03  0.38658322598E+03  0.41800000000E+01 0. -1.
         -5    1    3    3    0  502 -0.30167849369E+02  0.26659814744E+01  0.65241703015E+01  0.31260898753E+02  0.41800000000E+01 0. -1.
        -11    1    4    4    0    0  0.18893903022E+03 -0.89938800530E+02 -0.15140574210E+03  0.25828403691E+03  0.00000000000E+00 0. -1.
         11    1    4    4    0    0  0.46826795945E+02  0.24312110354E+02 -0.55510139567E+02  0.76584614141E+02  0.00000000000E+00 0.  1.
</event>
<event>
 8    1  0.6380238E-009  0.1547558E+03  0.7561462E-02  0.1194748E+00
         -1   -1    0    0    0  501 -0.00000000000E+00  0.00000000000E+00  0.12505604106E+03  0.12505604106E+03  0.00000000000E+00 0.  1.
          1   -1    0    0  501    0  0.00000000000E+00 -0.00000000000E+00 -0.22801608344E+03  0.22801608344E+03  0.00000000000E+00 0. -1.
         25    2    1    2    0    0 -0.10885063530E+03  0.61987369249E+02 -0.35478198527E+02  0.18055784922E+03  0.12510611334E+03 0.  0.
         23    2    1    2    0    0  0.10885063530E+03 -0.61987369249E+02 -0.67481843854E+02  0.17251427527E+03  0.97552453441E+02 0.  0.
          5    1    3    3  502    0  0.13324139756E+02  0.18752749060E+02  0.27758483108E+02  0.36293306298E+02  0.41800000000E+01 0. -1.
         -5    1    3    3    0  502 -0.12217477505E+03  0.43234620189E+02 -0.63236681635E+02  0.14426454293E+03  0.41800000000E+01 0. -1.
        -11    1    4    4    0    0  0.88184765069E+02  0.30348057483E+01 -0.23406577109E+02  0.91288721583E+02  0.00000000000E+00 0.  1.
         11    1    4    4    0    0  0.20665870226E+02 -0.65022174998E+02 -0.44075266746E+02  0.81225553690E+02  0.00000000000E+00 0. -1.
</event>
<event>
 8    1  0.6380238E-009  0.2292189E+03  0.7561462E-02  0.1127191E+00
          2   -1    0    0  501    0  0.00000000000E+00  0.00000000000E+00  0.45945297868E+03  0.45945297868E+03  0.00000000000E+00 0. -1.
         -2   -1    0    0    0  501 -0.00000000000E+00 -0.00000000000E+00 -0.14194509583E+03  0.14194509583E+03  0.00000000000E+00 0.  1.
         25    2    1    2    0    0 -0.16605447030E+03  0.15033808429E+03  0.22889630682E+03  0.34382681071E+03  0.12509088613E+03 0.  0.
         23    2    1    2    0    0  0.16605447030E+03 -0.15033808429E+03  0.88611576024E+02  0.25757126380E+03  0.91188364583E+02 0.  0.
          5    1    3    3  502    0 -0.33802250718E+02  0.58035665649E+02  0.14964939888E+03  0.16408274018E+03  0.41800000000E+01 0.  1.
         -5    1    3    3    0  502 -0.13225221958E+03  0.92302418642E+02  0.79246907943E+02  0.17974407053E+03  0.41800000000E+01 0.  1.
        -11    1    4    4    0    0  0.74606832112E+02 -0.10201195736E+03  0.83626958048E+01  0.12665920228E+03  0.00000000000E+00 0.  1.
         11    1    4    4    0    0  0.91447638184E+02 -0.48326126934E+02  0.80248880219E+02  0.13091206152E+03  0.00000000000E+00 0. -1.
</event>
<event>
 8    1  0.6380238E-009  0.9923540E+02  0.7561462E-02  0.1281912E+00
         -2   -1    0    0    0  501 -0.00000000000E+00  0.00000000000E+00  0.20660166662E+03  0.20660166662E+03  0.00000000000E+00 0.  1.
          2   -1    0    0  501    0  0.00000000000E+00 -0.00000000000E+00 -0.93754234658E+02  0.93754234658E+02  0.00000000000E+00 0. -1.
         25    2    1    2    0    0 -0.19496776518E+02 -0.54103251214E+02 -0.91533487364E+01  0.13797979524E+03  0.12508938411E+03 0.  0.
         23    2    1    2    0    0  0.19496776518E+02  0.54103251214E+02  0.12200078070E+03  0.16237610604E+03  0.90413070039E+02 0.  0.
          5    1    3    3  502    0  0.68823592649E+01 -0.67731795217E+02 -0.51939531068E+02  0.85733017210E+02  0.41800000000E+01 0.  1.
         -5    1    3    3    0  502 -0.26379135783E+02  0.13628544004E+02  0.42786182332E+02  0.52246778033E+02  0.41800000000E+01 0.  1.
        -11    1    4    4    0    0  0.24982576305E+02  0.74802315818E+02  0.11576097769E+03  0.14007183702E+03  0.00000000000E+00 0. -1.
         11    1    4    4    0    0 -0.54857997869E+01 -0.20699064604E+02  0.62398030116E+01  0.22304269018E+02  0.00000000000E+00 0.  1.
</event>
<event>
 8    1  0.6380238E-009  0.1134924E+03  0.7561462E-02  0.1254236E+00
          1   -1    0    0  501    0  0.00000000000E+00  0.00000000000E+00  0.25062827573E+03  0.25062827573E+03  0.00000000000E+00 0. -1.
         -1   -1    0    0    0  501 -0.00000000000E+00 -0.00000000000E+00 -0.86174143320E+02  0.86174143320E+02  0.00000000000E+00 0.  1.
         25    2    1    2    0    0 -0.59306942921E+02  0.77047433382E+02  0.65204380235E+02  0.17134478927E+03  0.12511516751E+03 0.  0.
         23    2    1    2    0    0  0.59306942921E+02 -0.77047433382E+02  0.99249752179E+02  0.16545762978E+03  0.89844829989E+02 0.  0.
          5    1    3    3  502    0 -0.54446274308E+02  0.17429508891E+02  0.89799838981E+02  0.10653482082E+03  0.41800000000E+01 0.  1.
         -5    1    3    3    0  502 -0.48606686130E+01  0.59617924490E+02 -0.24595458747E+02  0.64809968453E+02  0.41800000000E+01 0.  1.
        -11    1    4    4    0    0  0.26317194431E+02 -0.47001239241E+00 -0.98843947535E+01  0.28116132274E+02  0.00000000000E+00 0.  1.
         11    1    4    4    0    0  0.32989748490E+02 -0.76577420989E+02  0.10913414693E+03  0.13734149751E+03  0.00000000000E+00 0. -1.
</event>
<event>
 8    1  0.6380238E-009  0.9678245E+02  0.7561462E-02  0.1287211E+00
          2   -1    0    0  501    0  0.00000000000E+00  0.00000000000E+00  0.34313630960E+02  0.34313630960E+02  0.00000000000E+00 0. -1.
         -2   -1    0    0    0  501 -0.00000000000E+00 -0.00000000000E+00 -0.45671397597E+03  0.45671397597E+03  0.00000000000E+00 0.  1.
         25    2    1    2    0    0 -0.46838536916E+01  0.17406227914E+02 -0.34917239423E+03  0.37134076271E+03  0.12509071069E+03 0.  0.
         23    2    1    2    0    0  0.46838536916E+01 -0.17406227914E+02 -0.73227950785E+02  0.11968684423E+03  0.92939187909E+02 0.  0.
          5    1    3    3  502    0  0.14415820610E+02  0.69308468937E+02 -0.19430246940E+03  0.20683907214E+03  0.41800000000E+01 0. -1.
         -5    1    3    3    0  502 -0.19099674301E+02 -0.51902241023E+02 -0.15486992483E+03  0.16450169057E+03  0.41800000000E+01 0. -1.
        -11    1    4    4    0    0 -0.20339274835E+02  0.15695775104E+02  0.92928084417E+01  0.27320317452E+02  0.00000000000E+00 0. -1.
         11    1    4    4    0    0  0.25023128527E+02 -0.33102003018E+02 -0.82520759227E+02  0.92366526775E+02  0.00000000000E+00 0.  1.
</event>
<event>
 8    1  0.6380238E-009  0.1200654E+03  0.7561462E-02  0.1242989E+00
         -2   -1    0    0    0  501 -0.00000000000E+00  0.00000000000E+00  0.53369143803E+02  0.53369143803E+02  0.00000000000E+00 0.  1.
          2   -1    0    0  501    0  0.00000000000E+00 -0.00000000000E+00 -0.34685019279E+03  0.34685019279E+03  0.00000000000E+00 0. -1.
         25    2    1    2    0    0  0.71166120515E+02 -0.30725305201E+02 -0.12116948509E+03  0.19062800151E+03  0.12509328422E+03 0.  0.
         23    2    1    2    0    0 -0.71166120515E+02  0.30725305201E+02 -0.17231156390E+03  0.20959133508E+03  0.90711584698E+02 0.  0.
          5    1    3    3  502    0 -0.25602778733E+02 -0.28984718446E+02 -0.47701900839E+01  0.39189836637E+02  0.41800000000E+01 0. -1.
         -5    1    3    3    0  502  0.96768899248E+02 -0.17405867548E+01 -0.11639929500E+03  0.15143816488E+03  0.41800000000E+01 0. -1.
        -11    1    4    4    0    0 -0.20350360304E+02  0.46822117062E+02 -0.33934374754E+02  0.61302443676E+02  0.00000000000E+00 0.  1.
         11    1    4    4    0    0 -0.50815760211E+02 -0.16096811861E+02 -0.13837718915E+03  0.14828889141E+03  0.00000000000E+00 0. -1.
</event>
<event>
 8    1  0.6380238E-009  0.1840326E+03  0.7561462E-02  0.1163956E+00
         -1   -1    0    0    0  501 -0.00000000000E+00  0.00000000000E+00  0.30456666686E+03  0.30456666686E+03  0.00000000000E+00 0.  1.
          1   -1    0    0  501    0  0.00000000000E+00 -0.00000000000E+00 -0.14171730730E+03  0.14171730730E+03  0.00000000000E+00 0. -1.
         25    2    1    2    0    0  0.45559005258E+02 -0.16294702274E+03  0.86454550500E+02  0.22748470349E+03  0.12509015085E+03 0.  0.
         23    2    1    2    0    0 -0.45559005258E+02  0.16294702274E+03  0.76394809058E+02  0.21879927068E+03  0.11579982219E+03 0.  0.
          5    1    3    3  502    0 -0.23977940780E+02 -0.10126815274E+03  0.57400138674E+01  0.10431011726E+03  0.41800000000E+01 0. -1.
         -5    1    3    3    0  502  0.69536946038E+02 -0.61678869993E+02  0.80714536632E+02  0.12317458622E+03  0.41800000000E+01 0. -1.
        -11    1    4    4    0    0 -0.40594323667E+02  0.10290515350E+03 -0.12591074076E+02  0.11133689809E+03  0.00000000000E+00 0. -1.
         11    1    4    4    0    0 -0.49646815910E+01  0.60041869240E+02  0.88985883134E+02  0.10746237259E+03  0.00000000000E+00 0.  1.
</event>
<event>
 8    1  0.6380238E-009  0.1873430E+03  0.7561462E-02  0.1160880E+00
          2   -1    0    0  501    0  0.00000000000E+00  0.00000000000E+00  0.15442904641E+04  0.15442904641E+04  0.00000000000E+00 0. -1.
         -2   -1    0    0    0  501 -0.00000000000E+00 -0.00000000000E+00 -0.26626843183E+02  0.26626843183E+02  0.00000000000E+00 0.  1.
         25    2    1    2    0    0  0.15678902921E+03 -0.20430234351E+02  0.10454977136E+04  0.10647599945E+04  0.12509269644E+03 0.  0.
         23    2    1    2    0    0 -0.15678902921E+03  0.20430234351E+02  0.47216590740E+03  0.50615731281E+03  0.90853657309E+02 0.  0.
          5    1    3    3  502    0  0.28929624014E+02  0.44337743413E+02  0.40119727220E+03  0.40469677817E+03  0.41800000000E+01 0.  1.
         -5    1    3    3    0  502  0.12785940520E+03 -0.64767977764E+02  0.64430044136E+03  0.66006321635E+03  0.41800000000E+01 0.  1.
        -11    1    4    4    0    0 -0.88167940865E+02 -0.29890506023E+02  0.19246381132E+03  0.21379744342E+03  0.00000000000E+00 0.  1.
         11    1    4    4    0    0 -0.68621088344E+02  0.50320740374E+02  0.27970209608E+03  0.29235986939E+03  0.00000000000E+00 0. -1.
</event>
<event>
 8    1  0.6380238E-009  0.9257874E+02  0.7561462E-02  0.1296724E+00
         -1   -1    0    0    0  501 -0.00000000000E+00  0.00000000000E+00  0.10510691263E+03  0.10510691263E+03  0.00000000000E+00 0.  1.
          1   -1    0    0  501    0  0.00000000000E+00 -0.00000000000E+00 -0.14464041558E+03  0.14464041558E+03  0.00000000000E+00 0. -1.
         25    2    1    2    0    0  0.46253497678E+02  0.12126067724E+02 -0.57426061522E+02  0.14570927224E+03  0.12508801665E+03 0.  0.
         23    2    1    2    0    0 -0.46253497678E+02 -0.12126067724E+02  0.17892558572E+02  0.10403805598E+03  0.90649577351E+02 0.  0.
          5    1    3    3  502    0  0.47946776300E+02  0.35315749346E+02 -0.88452976865E+02  0.10671221592E+03  0.41800000000E+01 0. -1.
         -5    1    3    3    0  502 -0.16932786219E+01 -0.23189681622E+02  0.31026915343E+02  0.38997056324E+02  0.41800000000E+01 0. -1.
        -11    1    4    4    0    0 -0.73383862741E+02 -0.38990357840E+01  0.18113769107E+02  0.75686870870E+02  0.00000000000E+00 0. -1.
         11    1    4    4    0    0  0.27130365064E+02 -0.82270319397E+01 -0.22121053521E+00  0.28351185110E+02  0.00000000000E+00 0.  1.
</event>
<event>
 8    1  0.6380238E-009  0.9710193E+02  0.7561462E-02  0.1286511E+00
          1   -1    0    0  501    0  0.00000000000E+00  0.00000000000E+00  0.83461615960E+03  0.83461615960E+03  0.00000000000E+00 0. -1.
         -1   -1    0    0    0  501 -0.00000000000E+00 -0.00000000000E+00 -0.15276514279E+02  0.15276514279E+02  0.00000000000E+00 0.  1.
         25    2    1    2    0    0  0.27604687360E+02  0.10719880809E+02  0.44005681190E+03  0.45844761693E+03  0.12508910889E+03 0.  0.
         23    2    1    2    0    0 -0.27604687360E+02 -0.10719880809E+02  0.37928283342E+03  0.39144505695E+03  0.92178252700E+02 0.  0.
          5    1    3    3  502    0 -0.70867753683E+01  0.51850649920E+02  0.89505585742E+02  0.10376624962E+03  0.41800000000E+01 0. -1.
         -5    1    3    3    0  502  0.34691462728E+02 -0.41130769111E+02  0.35055122616E+03  0.35468136731E+03  0.41800000000E+01 0. -1.
        -11    1    4    4    0    0  0.21060093722E+02 -0.28922234116E+02  0.79317596741E+02  0.87013242248E+02  0.00000000000E+00 0.  1.
         11    1    4    4    0    0 -0.48664781082E+02  0.18202353306E+02  0.29996523668E+03  0.30443181470E+03  0.00000000000E+00 0. -1.
</event>
<event>
 8    1  0.6380238E-009  0.7815146E+02  0.7561462E-02  0.1334381E+00
         -1   -1    0    0    0  501 -0.00000000000E+00  0.00000000000E+00  0.10758787616E+03  0.10758787616E+03  0.00000000000E+00 0.  1.
          1   -1    0    0  501    0  0.00000000000E+00 -0.00000000000E+00 -0.13553374832E+03  0.13553374832E+03  0.00000000000E+00 0. -1.
         25    2    1    2    0    0  0.64186496672E+01 -0.40769184697E+02  0.14267242813E+02  0.13249423210E+03  0.12509133398E+03 0.  0.
         23    2    1    2    0    0 -0.64186496672E+01  0.40769184697E+02 -0.42213114969E+02  0.11062739238E+03  0.93558256638E+02 0.  0.
          5    1    3    3  502    0 -0.72639976023E+01 -0.39004240730E+02  0.66916997876E+02  0.77906697150E+02  0.41800000000E+01 0. -1.
         -5    1    3    3    0  502  0.13682647270E+02 -0.17649439673E+01 -0.52649755063E+02  0.54587534948E+02  0.41800000000E+01 0. -1.
        -11    1    4    4    0    0  0.13158367403E+02 -0.27760941721E+02 -0.91133386865E+01  0.32044741534E+02  0.00000000000E+00 0.  1.
         11    1    4    4    0    0 -0.19577017071E+02  0.68530126418E+02 -0.33099776282E+02  0.78582650847E+02  0.00000000000E+00 0. -1.
</event>
<event>
 8    1  0.6380238E-009  0.1631859E+03  0.7561462E-02  0.1185146E+00
         -1   -1    0    0    0  501 -0.00000000000E+00  0.00000000000E+00  0.51682860841E+02  0.51682860841E+02  0.00000000000E+00 0.  1.
          1   -1    0    0  501    0  0.00000000000E+00 -0.00000000000E+00 -0.54454747751E+03  0.54454747751E+03  0.00000000000E+00 0. -1.
         25    2    1    2    0    0  0.12126781195E+03  0.36448338921E+02 -0.31429470760E+03  0.36119697947E+03  0.12509089146E+03 0.  0.
         23    2    1    2    0    0 -0.12126781195E+03 -0.36448338921E+02 -0.17856990907E+03  0.23503335888E+03  0.85551760579E+02 0.  0.
          5    1    3    3  502    0  0.12563038640E+03  0.67033050116E+02 -0.22197276139E+03  0.26375329950E+03  0.41800000000E+01 0.  1.
         -5    1    3    3    0  502 -0.43625744567E+01 -0.30584711194E+02 -0.92321946209E+02  0.97443679973E+02  0.41800000000E+01 0.  1.
        -11    1    4    4    0    0 -0.80881047343E+02 -0.64597030179E+02 -0.12451530147E+03  0.16192152553E+03  0.00000000000E+00 0. -1.
         11    1    4    4    0    0 -0.40386764602E+02  0.28148691257E+02 -0.54054607591E+02  0.73111833354E+02  0.00000000000E+00 0.  1.
</event>
<event>
 8    1  0.6380238E-009  0.8437408E+02  0.7561462E-02  0.1317078E+00
         -2   -1    0    0    0  501 -0.00000000000E+00  0.00000000000E+00  0.97080767787E+02  0.97080767787E+02  0.00000000000E+00 0.  1.
          2   -1    0    0  501    0  0.00000000000E+00 -0.00000000000E+00 -0.13369889640E+03  0.13369889640E+03  0.00000000000E+00 0. -1.
         25    2    1    2    0    0 -0.35873870203E+01  0.27040626155E+02 -0.38926259221E+02  0.13384025893E+03  0.12511553239E+03 0.  0.
         23    2    1    2    0    0  0.35873870203E+01 -0.27040626155E+02  0.23081306067E+01  0.96939405262E+02  0.92993849351E+02 0.  0.
          5    1    3    3  502    0 -0.63672799814E+02  0.21516902498E+02 -0.16490200831E+02  0.69329659257E+02  0.41800000000E+01 0.  1.
         -5    1    3    3    0  502  0.60085412794E+02  0.55237236575E+01 -0.22436058389E+02  0.64510599670E+02  0.41800000000E+01 0.  1.
        -11    1    4    4    0    0 -0.62119297569E+01 -0.30040901561E+02  0.44205533245E+02  0.53806811905E+02  0.00000000000E+00 0.  1.
         11    1    4    4    0    0  0.97993167772E+01  0.30002754051E+01 -0.41897402639E+02  0.43132593357E+02  0.00000000000E+00 0. -1.
</event>
<event>
 8    1  0.6380238E-009  0.8640613E+02  0.7561462E-02  0.1311796E+00
          2   -1    0    0  501    0  0.00000000000E+00  0.00000000000E+00  0.76087567760E+03  0.76087567760E+03  0.00000000000E+00 0. -1.
         -2   -1    0    0    0  501 -0.00000000000E+00 -0.00000000000E+00 -0.16111773867E+02  0.16111773867E+02  0.00000000000E+00 0.  1.
         25    2    1    2    0    0 -0.56159039921E+01  0.66013546541E+01  0.36508301960E+03  0.38601331637E+03  0.12508218481E+03 0.  0.
         23    2    1    2    0    0  0.56159039921E+01 -0.66013546541E+01  0.37968088413E+03  0.39097413509E+03  0.92887481800E+02 0.  0.
          5    1    3    3  502    0 -0.36242265393E+02  0.26754739704E+02  0.33599438698E+03  0.33902657474E+03  0.41800000000E+01 0. -1.
         -5    1    3    3    0  502  0.30626361401E+02 -0.20153385049E+02  0.29088632618E+02  0.46986741632E+02  0.41800000000E+01 0. -1.
        -11    1    4    4    0    0 -0.19822215337E+02 -0.42370861672E+02  0.14956532310E+03  0.15670991038E+03  0.00000000000E+00 0.  1.
         11    1    4    4    0    0  0.25438119329E+02  0.35769507018E+02  0.23011556104E+03  0.23426422471E+03  0.00000000000E+00 0. -1.
</event>
<event>
 8    1  0.6380238E-009  0.1100351E+03  0.7561462E-02  0.1260505E+00
          1   -1    0    0  501    0  0.00000000000E+00  0.00000000000E+00  0.27773271565E+03  0.27773271565E+03  0.00000000000E+00 0. -1.
         -1   -1    0    0    0  501 -0.00000000000E+00 -0.00000000000E+00 -0.60051115403E+02  0.60051115403E+02  0.00000000000E+00 0.  1.
         25    2    1    2    0    0 -0.62010269259E+02  0.31431397473E+02  0.13076268304E+03  0.19385859189E+03  0.12509623549E+03 0.  0.
         23    2    1    2    0    0  0.62010269259E+02 -0.31431397473E+02  0.86918917207E+02  0.14392523916E+03  0.91248945516E+02 0.  0.
          5    1    3    3  502    0  0.16613521995E+02 -0.97587135639E+01 -0.13873280726E+02  0.24107714981E+02  0.41800000000E+01 0. -1.
         -5    1    3    3    0  502 -0.78623791253E+02  0.41190111036E+02  0.14463596377E+03  0.16975087691E+03  0.41800000000E+01 0. -1.
        -11    1    4    4    0    0  0.44782954287E+02  0.25830798558E+02  0.23591296202E+02  0.56826863412E+02  0.00000000000E+00 0.  1.
         11    1    4    4    0    0  0.17227314972E+02 -0.57262196031E+02  0.63327621005E+02  0.87098375746E+02  0.00000000000E+00 0. -1.
</event>
<event>
 8    1  0.6380238E-009  0.1715572E+03  0.7561462E-02  0.1176234E+00
          2   -1    0    0  501    0  0.00000000000E+00  0.00000000000E+00  0.17450631474E+04  0.17450631474E+04  0.00000000000E+00 0. -1.
         -2   -1    0    0    0  501 -0.00000000000E+00 -0.00000000000E+00 -0.23575028299E+02  0.23575028299E+02  0.00000000000E+00 0.  1.
         25    2    1    2    0    0  0.11781135821E+03  0.91725730868E+02  0.12647800653E+04  0.12796912518E+04  0.12509180895E+03 0.  0.
         23    2    1    2    0    0 -0.11781135821E+03 -0.91725730868E+02  0.45670805385E+03  0.48894692390E+03  0.90519180884E+02 0.  0.
          5    1    3    3  502    0  0.10825683591E+03  0.36650078237E+02  0.50240381735E+03  0.51525706094E+03  0.41800000000E+01 0. -1.
         -5    1    3    3    0  502  0.95545223005E+01  0.55075652632E+02  0.76237624794E+03  0.76443419091E+03  0.41800000000E+01 0. -1.
        -11    1    4    4    0    0 -0.10237831045E+03 -0.26621794648E+02  0.31382880560E+03  0.33117753188E+03  0.00000000000E+00 0.  1.
         11    1    4    4    0    0 -0.15433047756E+02 -0.65103936221E+02  0.14287924826E+03  0.15776939201E+03  0.00000000000E+00 0. -1.
</event>
<event>
 8    1  0.6380238E-009  0.9871699E+02  0.7561462E-02  0.1283017E+00
         -3   -1    0    0    0  501 -0.00000000000E+00  0.00000000000E+00  0.21069714358E+03  0.21069714358E+03  0.00000000000E+00 0.  1.
          3   -1    0    0  501    0  0.00000000000E+00 -0.00000000000E+00 -0.83248840007E+02  0.83248840007E+02  0.00000000000E+00 0. -1.
         25    2    1    2    0    0  0.31667844945E+02 -0.61508876863E+02  0.98813050668E+02  0.17377444775E+03  0.12508934956E+03 0.  0.
         23    2    1    2    0    0 -0.31667844945E+02  0.61508876863E+02  0.28635252904E+02  0.12017153583E+03  0.93994818896E+02 0.  0.
          5    1    3    3  502    0 -0.17136228828E+02 -0.72748913506E+02  0.98247316512E+02  0.12351543368E+03  0.41800000000E+01 0.  1.
         -5    1    3    3    0  502  0.48804073773E+02  0.11240036643E+02  0.56573415602E+00  0.50259014074E+02  0.41800000000E+01 0.  1.
        -11    1    4    4    0    0 -0.31322851695E+02  0.39976151408E+02  0.62195250820E+02  0.80296095448E+02  0.00000000000E+00 0.  1.
         11    1    4    4    0    0 -0.34499325068E+00  0.21532725455E+02 -0.33559997916E+02  0.39875440386E+02  0.00000000000E+00 0. -1.
</event>
<event>
 8    1  0.6380238E-009  0.2369389E+03  0.7561462E-02  0.1121849E+00
         -1   -1    0    0    0  501 -0.00000000000E+00  0.00000000000E+00  0.42106508320E+03  0.42106508320E+03  0.00000000000E+00 0.  1.
          1   -1    0    0  501    0  0.00000000000E+00 -0.00000000000E+00 -0.14805932261E+03  0.14805932261E+03  0.00000000000E+00 0. -1.
         25    2    1    2    0    0  0.62993690301E+02  0.20636417383E+03  0.66948567366E+02  0.25823224836E+03  0.12508959256E+03 0.  0.
         23    2    1    2    0    0 -0.62993690301E+02 -0.20636417383E+03  0.20605719323E+03  0.31089215744E+03  0.87407033017E+02 0.  0.
          5    1    3    3  502    0  0.48921948706E+02  0.16189503648E+02  0.40483486126E+02  0.65664618650E+02  0.41800000000E+01 0. -1.
         -5    1    3    3    0  502  0.14071741595E+02  0.19017467018E+03  0.26465081240E+02  0.19256762971E+03  0.41800000000E+01 0. -1.
        -11    1    4    4    0    0 -0.71328735905E+02 -0.90297430638E+02  0.11923596723E+03  0.16570645862E+03  0.00000000000E+00 0.  1.
         11    1    4    4    0    0  0.83350456043E+01 -0.11606674319E+03  0.86821225993E+02  0.14518569882E+03  0.00000000000E+00 0. -1.
</event>
<event>
 8    1  0.6380238E-009  0.8881710E+02  0.7561462E-02  0.1305742E+00
          1   -1    0    0  501    0  0.00000000000E+00  0.00000000000E+00  0.17553916757E+03  0.17553916757E+03  0.00000000000E+00 0. -1.
         -1   -1    0    0    0  501 -0.00000000000E+00 -0.00000000000E+00 -0.80529510876E+02  0.80529510876E+02  0.00000000000E+00 0.  1.
         25    2    1    2    0    0 -0.25633690305E+02 -0.47224503082E+01  0.10113592071E+03  0.16295893375E+03  0.12509097496E+03 0.  0.
         23    2    1    2    0    0  0.25633690305E+02  0.47224503082E+01 -0.61262640227E+01  0.93109744690E+02  0.89176823389E+02 0.  0.
          5    1    3    3  502    0 -0.26063238999E+02 -0.45576986282E+02  0.10907783674E+03  0.12112803546E+03  0.41800000000E+01 0. -1.
         -5    1    3    3    0  502  0.42954869352E+00  0.40854535974E+02 -0.79419160301E+01  0.41830898293E+02  0.41800000000E+01 0. -1.
        -11    1    4    4    0    0 -0.21520684420E+02  0.24632835848E+02 -0.22116278100E+02  0.39484759298E+02  0.00000000000E+00 0. -1.
         11    1    4    4    0    0  0.47154374725E+02 -0.19910385540E+02  0.15990014077E+02  0.53624985392E+02  0.00000000000E+00 0.  1.
</event>
<event>
 8    1  0.6380238E-009  0.1278902E+03  0.7561462E-02  0.1230620E+00
          2   -1    0    0  501    0  0.00000000000E+00  0.00000000000E+00  0.39976435046E+03  0.39976435046E+03  0.00000000000E+00 0. -1.
         -2   -1    0    0    0  501 -0.00000000000E+00 -0.00000000000E+00 -0.46522149292E+02  0.46522149292E+02  0.00000000000E+00 0.  1.
         25    2    1    2    0    0  0.35129422156E+02 -0.73542847130E+02  0.21712160715E+03  0.26349794411E+03  0.12508696014E+03 0.  0.
         23    2    1    2    0    0 -0.35129422156E+02  0.73542847130E+02  0.13612059402E+03  0.18278855564E+03  0.90775620572E+02 0.  0.
          5    1    3    3  502    0 -0.43248672224E+02 -0.51828786155E+02  0.10575539779E+03  0.12553225596E+03  0.41800000000E+01 0. -1.
         -5    1    3    3    0  502  0.78378094380E+02 -0.21714060975E+02  0.11136620935E+03  0.13796568815E+03  0.41800000000E+01 0. -1.
        -11    1    4    4    0    0 -0.14882019001E+02  0.83028111940E+02  0.13646116262E+03  0.16042690163E+03  0.00000000000E+00 0. -1.
         11    1    4    4    0    0 -0.20247403155E+02 -0.94852648094E+01 -0.34056860210E+00  0.22361654008E+02  0.00000000000E+00 0.  1.
</event>
<event>
 8    1  0.6380238E-009  0.9472592E+02  0.7561462E-02  0.1291795E+00
          2   -1    0    0  501    0  0.00000000000E+00  0.00000000000E+00  0.16446036422E+03  0.16446036422E+03  0.00000000000E+00 0. -1.
         -2   -1    0    0    0  501 -0.00000000000E+00 -0.00000000000E+00 -0.92557870794E+02  0.92557870794E+02  0.00000000000E+00 0.  1.
         25    2    1    2    0    0  0.21548402490E+00 -0.47686852051E+02  0.71179499464E+02  0.15161124417E+03  0.12508143716E+03 0.  0.
         23    2    1    2    0    0 -0.21548402490E+00  0.47686852051E+02  0.72299395767E+00  0.10540699084E+03  0.94000152693E+02 0.  0.
          5    1    3    3  502    0  0.22556850190E-01  0.22888887576E+02  0.77224537929E+02  0.80653600922E+02  0.41800000000E+01 0. -1.
         -5    1    3    3    0  502  0.19292717471E+00 -0.70575739628E+02 -0.60450384652E+01  0.70957643245E+02  0.41800000000E+01 0. -1.
        -11    1    4    4    0    0  0.41251236187E+02  0.23194768448E+02  0.22679022285E+02  0.52478565359E+02  0.00000000000E+00 0. -1.
         11    1    4    4    0    0 -0.41466720211E+02  0.24492083603E+02 -0.21956028328E+02  0.52928425484E+02  0.00000000000E+00 0.  1.
</event>
<event>
 8    1  0.6380238E-009  0.1207713E+03  0.7561462E-02  0.1241830E+00
         -2   -1    0    0    0  501 -0.00000000000E+00  0.00000000000E+00  0.17407734942E+02  0.17407734942E+02  0.00000000000E+00 0.  1.
          2   -1    0    0  501    0  0.00000000000E+00 -0.00000000000E+00 -0.10398322055E+04  0.10398322055E+04  0.00000000000E+00 0. -1.
         25    2    1    2    0    0 -0.77271912871E+02 -0.14142822594E+02 -0.60105592020E+03  0.61893644744E+03  0.12507253421E+03 0.  0.
         23    2    1    2    0    0  0.77271912871E+02  0.14142822594E+02 -0.42136855037E+03  0.43830349302E+03  0.91583452642E+02 0.  0.
          5    1    3    3  502    0 -0.21647461532E+02  0.41545113164E+02 -0.87244652264E+02  0.99114634476E+02  0.41800000000E+01 0. -1.
         -5    1    3    3    0  502 -0.55624451339E+02 -0.55687935757E+02 -0.51381126794E+03  0.51982181297E+03  0.41800000000E+01 0. -1.
        -11    1    4    4    0    0  0.29570728290E+02 -0.35928890727E+02 -0.23395125557E+03  0.23853407124E+03  0.00000000000E+00 0. -1.
         11    1    4    4    0    0  0.47701184580E+02  0.50071713320E+02 -0.18741729481E+03  0.19976942178E+03  0.00000000000E+00 0.  1.
</event>
<event>
 8    1  0.6380238E-009  0.9199147E+02  0.7561462E-02  0.1298099E+00
          1   -1    0    0  501    0  0.00000000000E+00  0.00000000000E+00  0.26934118955E+03  0.26934118955E+03  0.00000000000E+00 0. -1.
         -1   -1    0    0    0  501 -0.00000000000E+00 -0.00000000000E+00 -0.56393828794E+02  0.56393828794E+02  0.00000000000E+00 0.  1.
         25    2    1    2    0    0  0.34366075483E+02 -0.46261986374E+02  0.11391106303E+03  0.17873230651E+03  0.12509319958E+03 0.  0.
         23    2    1    2    0    0 -0.34366075483E+02  0.46261986374E+02  0.99036297720E+02  0.14700271183E+03  0.92089144267E+02 0.  0.
          5    1    3    3  502    0  0.54411953269E+02 -0.46567317823E+02  0.95407653745E+01  0.72371778697E+02  0.41800000000E+01 0.  1.
         -5    1    3    3    0  502 -0.20045877786E+02  0.30533144930E+00  0.10437029766E+03  0.10636052781E+03  0.41800000000E+01 0.  1.
        -11    1    4    4    0    0 -0.47329437944E+02  0.57593371804E+02  0.38173408980E+02  0.83751306408E+02  0.00000000000E+00 0.  1.
         11    1    4    4    0    0  0.12963362461E+02 -0.11331385430E+02  0.60862888740E+02  0.63251405421E+02  0.00000000000E+00 0. -1.
</event>
<event>
 8    1  0.6380238E-009  0.2247199E+03  0.7561462E-02  0.1130412E+00
          2   -1    0    0  501    0  0.00000000000E+00  0.00000000000E+00  0.13611116220E+04  0.13611116220E+04  0.00000000000E+00 0. -1.
         -2   -1    0    0    0  501 -0.00000000000E+00 -0.00000000000E+00 -0.42970459217E+02  0.42970459217E+02  0.00000000000E+00 0.  1.
         25    2    1    2    0    0  0.19429594939E+03  0.34762096642E+02  0.42587785416E+03  0.48577787703E+03  0.12509548289E+03 0.  0.
         23    2    1    2    0    0 -0.19429594939E+03 -0.34762096642E+02  0.89226330860E+03  0.91830420416E+03  0.90495746796E+02 0.  0.
          5    1    3    3  502    0  0.16264978018E+01 -0.29957626840E+02  0.50577173753E+02  0.58954455352E+02  0.41800000000E+01 0. -1.
         -5    1    3    3    0  502  0.19266945159E+03  0.64719723482E+02  0.37530068041E+03  0.42682342168E+03  0.41800000000E+01 0. -1.
        -11    1    4    4    0    0 -0.11241984289E+03  0.24154958676E+02  0.42525797622E+03  0.44052926060E+03  0.00000000000E+00 0.  1.
         11    1    4    4    0    0 -0.81876106505E+02 -0.58917055318E+02  0.46700533238E+03  0.47777494356E+03  0.00000000000E+00 0. -1.
</event>
<event>
 8    1  0.6380238E-009  0.1445740E+03  0.7561462E-02  0.1207304E+00
         -2   -1    0    0    0  501 -0.00000000000E+00  0.00000000000E+00  0.48224782971E+02  0.48224782971E+02  0.00000000000E+00 0. -1.
          2   -1    0    0  501    0  0.00000000000E+00 -0.00000000000E+00 -0.57626351291E+03  0.57626351291E+03  0.00000000000E+00 0.  1.
         25    2    1    2    0    0 -0.42314070871E+02 -0.11738438785E+03 -0.32203601451E+03  0.36731976987E+03  0.12508814327E+03 0.  0.
         23    2    1    2    0    0  0.42314070871E+02  0.11738438785E+03 -0.20600271542E+03  0.25716852601E+03  0.90160728176E+02 0.  0.
          5    1    3    3  502    0 -0.51092555179E+02 -0.69529519769E+02 -0.71695460858E+02  0.11226092295E+03  0.41800000000E+01 0. -1.
         -5    1    3    3    0  502  0.87784843082E+01 -0.47854868078E+02 -0.25034055366E+03  0.25505884692E+03  0.41800000000E+01 0. -1.
        -11    1    4    4    0    0 -0.23797775005E+02  0.66119075208E+02 -0.95671476486E+02  0.11870592915E+03  0.00000000000E+00 0.  1.
         11    1    4    4    0    0  0.66111845876E+02  0.51265312639E+02 -0.11033123893E+03  0.13846259686E+03  0.00000000000E+00 0. -1.
</event>
<event>
 8    1  0.6380238E-009  0.1062805E+03  0.7561462E-02  0.1267617E+00
          2   -1    0    0  501    0  0.00000000000E+00  0.00000000000E+00  0.20704532130E+04  0.20704532130E+04  0.00000000000E+00 0. -1.
         -2   -1    0    0    0  501 -0.00000000000E+00 -0.00000000000E+00 -0.87211202486E+01  0.87211202486E+01  0.00000000000E+00 0.  1.
         25    2    1    2    0    0 -0.18101843387E+02  0.53262768836E+02  0.15725298183E+04  0.15785000886E+04  0.12509157010E+03 0.  0.
         23    2    1    2    0    0  0.18101843387E+02 -0.53262768836E+02  0.48920227446E+03  0.50067424468E+03  0.90505440022E+02 0.  0.
          5    1    3    3  502    0 -0.54292127892E+02  0.44201901724E+02  0.14078352462E+04  0.14095811421E+04  0.41800000000E+01 0.  1.
         -5    1    3    3    0  502  0.36190284505E+02  0.90608671128E+01  0.16469457210E+03  0.16891894649E+03  0.41800000000E+01 0.  1.
        -11    1    4    4    0    0  0.53769120889E+02 -0.39219237232E+02  0.26567857178E+03  0.27388751420E+03  0.00000000000E+00 0.  1.
         11    1    4    4    0    0 -0.35667277502E+02 -0.14043531604E+02  0.22352370268E+03  0.22678673048E+03  0.00000000000E+00 0. -1.
</event>
<event>
 8    1  0.6380238E-009  0.9193209E+02  0.7561462E-02  0.1298239E+00
          4   -1    0    0  501    0  0.00000000000E+00  0.00000000000E+00  0.18888673209E+03  0.18888673209E+03  0.00000000000E+00 0. -1.
         -4   -1    0    0    0  501 -0.00000000000E+00 -0.00000000000E+00 -0.82280989549E+02  0.82280989549E+02  0.00000000000E+00 0.  1.
         25    2    1    2    0    0  0.10710741650E+02  0.46985719182E+02  0.11647313654E+03  0.17758190868E+03  0.12508782899E+03 0.  0.
         23    2    1    2    0    0 -0.10710741650E+02 -0.46985719182E+02 -0.98673939983E+01  0.93585812960E+02  0.79615081042E+02 0.  0.
          5    1    3    3  502    0  0.47574973051E+02  0.48665270146E+02  0.12226701996E+03  0.13999422541E+03  0.41800000000E+01 0. -1.
         -5    1    3    3    0  502 -0.36864231401E+02 -0.16795509643E+01 -0.57938834189E+01  0.37587683266E+02  0.41800000000E+01 0. -1.
        -11    1    4    4    0    0 -0.36708493073E+02 -0.30784917498E+02  0.18958214296E+02  0.51523184086E+02  0.00000000000E+00 0. -1.
         11    1    4    4    0    0  0.25997751423E+02 -0.16200801684E+02 -0.28825608295E+02  0.42062628874E+02  0.00000000000E+00 0.  1.
</event>
<event>
 8    1  0.6380238E-009  0.1914949E+03  0.7561462E-02  0.1157120E+00
          1   -1    0    0  501    0  0.00000000000E+00  0.00000000000E+00  0.10020190778E+03  0.10020190778E+03  0.00000000000E+00 0. -1.
         -1   -1    0    0    0  501 -0.00000000000E+00 -0.00000000000E+00 -0.44368274286E+03  0.44368274286E+03  0.00000000000E+00 0.  1.
         25    2    1    2    0    0  0.17730697829E+03  0.29593382484E+02 -0.17248961933E+03  0.27877179303E+03  0.12509001149E+03 0.  0.
         23    2    1    2    0    0 -0.17730697829E+03 -0.29593382484E+02 -0.17099121576E+03  0.26511285762E+03  0.93452119135E+02 0.  0.
          5    1    3    3  502    0  0.44096806160E+02  0.18347451059E+02 -0.12980532345E+03  0.13837648524E+03  0.41800000000E+01 0. -1.
         -5    1    3    3    0  502  0.13321017213E+03  0.11245931426E+02 -0.42684295881E+02  0.14039530778E+03  0.41800000000E+01 0. -1.
        -11    1    4    4    0    0 -0.13821566675E+03  0.18358325928E+02 -0.13188647980E+03  0.19192353223E+03  0.00000000000E+00 0.  1.
         11    1    4    4    0    0 -0.39091311535E+02 -0.47951708412E+02 -0.39104735954E+02  0.73189325391E+02  0.00000000000E+00 0. -1.
</event>
<event>
 8    1  0.6380238E-009  0.1268759E+03  0.7561462E-02  0.1232166E+00
         -1   -1    0    0    0  501 -0.00000000000E+00  0.00000000000E+00  0.17638829885E+03  0.17638829885E+03  0.00000000000E+00 0.  1.
          1   -1    0    0  501    0  0.00000000000E+00 -0.00000000000E+00 -0.11272755490E+03  0.11272755490E+03  0.00000000000E+00 0. -1.
         25    2    1    2    0    0  0.17251014000E+02 -0.87800670114E+02  0.43544650193E+02  0.15984607228E+03  0.12509226637E+03 0.  0.
         23    2    1    2    0    0 -0.17251014000E+02  0.87800670114E+02  0.20116093755E+02  0.12926978147E+03  0.91101394150E+02 0.  0.
          5    1    3    3  502    0 -0.25886825487E+02  0.19989057526E+02 -0.60570298048E+01  0.33523874547E+02  0.41800000000E+01 0.  1.
         -5    1    3    3    0  502  0.43137839488E+02 -0.10778972764E+03  0.49601679998E+02  0.12632219773E+03  0.41800000000E+01 0.  1.
        -11    1    4    4    0    0 -0.31154604996E+02  0.24059761870E+02 -0.27914405284E+02  0.48256559927E+02  0.00000000000E+00 0. -1.
         11    1    4    4    0    0  0.13903590995E+02  0.63740908244E+02  0.48030499038E+02  0.81013221540E+02  0.00000000000E+00 0.  1.
</event>
<event>
 8    1  0.6380238E-009  0.1383934E+03  0.7561462E-02  0.1215507E+00
          1   -1    0    0  501    0  0.00000000000E+00  0.00000000000E+00  0.10707418123E+03  0.10707418123E+03  0.00000000000E+00 0. -1.
         -1   -1    0    0    0  501 -0.00000000000E+00 -0.00000000000E+00 -0.33566888581E+03  0.33566888581E+03  0.00000000000E+00 0.  1.
         25    2    1    2    0    0 -0.19017336465E+02  0.12995861125E+03 -0.23921956133E+02  0.18294404739E+03  0.12508143253E+03 0.  0.
         23    2    1    2    0    0  0.19017336465E+02 -0.12995861125E+03 -0.20467274844E+03  0.25979901965E+03  0.91398560889E+02 0.  0.
          5    1    3    3  502    0  0.69594662561E+01  0.76857794854E+02 -0.72763795996E+02  0.10614893880E+03  0.41800000000E+01 0.  1.
         -5    1    3    3    0  502 -0.25976802721E+02  0.53100816399E+02  0.48841839862E+02  0.76795108587E+02  0.41800000000E+01 0.  1.
        -11    1    4    4    0    0  0.32362943566E+02 -0.52752521388E+02 -0.15533017397E+03  0.16720541730E+03  0.00000000000E+00 0.  1.
         11    1    4    4    0    0 -0.13345607101E+02 -0.77206089864E+02 -0.49342574473E+02  0.92593602353E+02  0.00000000000E+00 0. -1.
</event>
<event>
 8    1  0.6380238E-009  0.9101898E+02  0.7561462E-02  0.1300403E+00
          2   -1    0    0  501    0  0.00000000000E+00  0.00000000000E+00  0.18621166656E+03  0.18621166656E+03  0.00000000000E+00 0. -1.
         -2   -1    0    0    0  501 -0.00000000000E+00 -0.00000000000E+00 -0.79727153516E+02  0.79727153516E+02  0.00000000000E+00 0.  1.
         25    2    1    2    0    0 -0.44408742680E+02  0.39382279770E+02  0.33322826405E+02  0.14242090020E+03  0.12510076606E+03 0.  0.
         23    2    1    2    0    0  0.44408742680E+02 -0.39382279770E+02  0.73161686639E+02  0.12351791988E+03  0.79880809661E+02 0.  0.
          5    1    3    3  502    0  0.18615585037E+02  0.49166895551E+02 -0.22710415339E+02  0.57420893317E+02  0.41800000000E+01 0. -1.
         -5    1    3    3    0  502 -0.63024327717E+02 -0.97846157815E+01  0.56033241743E+02  0.85000006885E+02  0.41800000000E+01 0. -1.
        -11    1    4    4    0    0  0.26718434546E+02 -0.56735725672E+01 -0.12303766713E+02  0.29957417205E+02  0.00000000000E+00 0.  1.
         11    1    4    4    0    0  0.17690308134E+02 -0.33708707202E+02  0.85465453352E+02  0.93560502670E+02  0.00000000000E+00 0. -1.
</event>
<event>
 8    1  0.6380238E-009  0.1330073E+03  0.7561462E-02  0.1223060E+00
          1   -1    0    0  501    0  0.00000000000E+00  0.00000000000E+00  0.90402665772E+03  0.90402665772E+03  0.00000000000E+00 0. -1.
         -1   -1    0    0    0  501 -0.00000000000E+00 -0.00000000000E+00 -0.21343643559E+02  0.21343643559E+02  0.00000000000E+00 0.  1.
         25    2    1    2    0    0 -0.19519547572E+02  0.84674621462E+02  0.48951688378E+03  0.51266215993E+03  0.12507960053E+03 0.  0.
         23    2    1    2    0    0  0.19519547572E+02 -0.84674621462E+02  0.39316613038E+03  0.41270814134E+03  0.90540596394E+02 0.  0.
          5    1    3    3  502    0 -0.21150102438E+01 -0.30851582373E+02  0.61453316175E+02  0.68922245118E+02  0.41800000000E+01 0.  1.
         -5    1    3    3    0  502 -0.17404537328E+02  0.11552620383E+03  0.42806356760E+03  0.44373991482E+03  0.41800000000E+01 0.  1.
        -11    1    4    4    0    0  0.47979376795E+02 -0.72526867165E+02  0.34226278224E+03  0.35313733754E+03  0.00000000000E+00 0. -1.
         11    1    4    4    0    0 -0.28459829223E+02 -0.12147754297E+02  0.50903348144E+02  0.59570803807E+02  0.00000000000E+00 0.  1.
</event>
<event>
 8    1  0.6380238E-009  0.8919491E+02  0.7561462E-02  0.1304813E+00
         -2   -1    0    0    0  501 -0.00000000000E+00  0.00000000000E+00  0.32525691692E+02  0.32525691692E+02  0.00000000000E+00 0.  1.
          2   -1    0    0  501    0  0.00000000000E+00 -0.00000000000E+00 -0.42454260957E+03  0.42454260957E+03  0.00000000000E+00 0. -1.
         25    2    1    2    0    0  0.78570844590E+01  0.15201220700E+02 -0.27056341084E+03  0.29857517324E+03  0.12509901639E+03 0.  0.
         23    2    1    2    0    0 -0.78570844590E+01 -0.15201220700E+02 -0.12145350704E+03  0.15849312803E+03  0.10038080679E+03 0.  0.
          5    1    3    3  502    0  0.51214644591E+02 -0.71635184634E+01 -0.47970559471E+02  0.70660475468E+02  0.41800000000E+01 0.  1.
         -5    1    3    3    0  502 -0.43357560132E+02  0.22364739164E+02 -0.22259285137E+03  0.22791469777E+03  0.41800000000E+01 0.  1.
        -11    1    4    4    0    0 -0.20588302276E+02  0.26719843836E+02 -0.50371707830E+01  0.34105737564E+02  0.00000000000E+00 0.  1.
         11    1    4    4    0    0  0.12731217817E+02 -0.41921064537E+02 -0.11641633626E+03  0.12438739047E+03  0.00000000000E+00 0. -1.
</event>
<event>
 8    1  0.6380238E-009  0.1107814E+03  0.7561462E-02  0.1259130E+00
         -3   -1    0    0    0  501 -0.00000000000E+00  0.00000000000E+00  0.32982661837E+03  0.32982661837E+03  0.00000000000E+00 0.  1.
          3   -1    0    0  501    0  0.00000000000E+00 -0.00000000000E+00 -0.43391512419E+02  0.43391512419E+02  0.00000000000E+00 0. -1.
         25    2    1    2    0    0  0.26455452212E+02  0.39062477494E+02  0.13157542116E+03  0.18760853864E+03  0.12513634251E+03 0.  0.
         23    2    1    2    0    0 -0.26455452212E+02 -0.39062477494E+02  0.15485968479E+03  0.18560959215E+03  0.90794441599E+02 0.  0.
          5    1    3    3  502    0  0.21913464364E+02 -0.37561512911E+02  0.90401436418E+02  0.10040398039E+03  0.41800000000E+01 0. -1.
         -5    1    3    3    0  502  0.45419878476E+01  0.76623990405E+02  0.41173984744E+02  0.87204558246E+02  0.41800000000E+01 0. -1.
        -11    1    4    4    0    0  0.11116825648E+02  0.24648292698E+02  0.29190352540E+02  0.39789431095E+02  0.00000000000E+00 0.  1.
         11    1    4    4    0    0 -0.37572277860E+02 -0.63710770192E+02  0.12566933225E+03  0.14582016106E+03  0.00000000000E+00 0. -1.
</event>
<event>
 8    1  0.6380238E-009  0.1312242E+03  0.7561462E-02  0.1225650E+00
          1   -1    0    0  501    0  0.00000000000E+00  0.00000000000E+00  0.11712309046E+04  0.11712309046E+04  0.00000000000E+00 0. -1.
         -1   -1    0    0    0  501 -0.00000000000E+00 -0.00000000000E+00 -0.23390027580E+02  0.23390027580E+02  0.00000000000E+00 0.  1.
         25    2    1    2    0    0  0.10844025186E+03  0.29226246230E+02  0.80805926506E+03  0.82536087754E+03  0.12508933063E+03 0.  0.
         23    2    1    2    0    0 -0.10844025186E+03 -0.29226246230E+02  0.33978161197E+03  0.36926005464E+03  0.91038356936E+02 0.  0.
          5    1    3    3  502    0  0.72846973861E+02 -0.38302696113E+01  0.72776217312E+03  0.73142094965E+03  0.41800000000E+01 0. -1.
         -5    1    3    3    0  502  0.35593277996E+02  0.33056515842E+02  0.80297091937E+02  0.93939927888E+02  0.41800000000E+01 0. -1.
        -11    1    4    4    0    0 -0.10511865609E+03  0.59557904822E+01  0.21234346468E+03  0.23701297494E+03  0.00000000000E+00 0.  1.
         11    1    4    4    0    0 -0.33215957649E+01 -0.35182036713E+02  0.12743814729E+03  0.13224707970E+03  0.00000000000E+00 0. -1.
</event>
<event>
 8    1  0.6380238E-009  0.2250342E+03  0.7561462E-02  0.1130185E+00
         -2   -1    0    0    0  501 -0.00000000000E+00  0.00000000000E+00  0.18838822603E+03  0.18838822603E+03  0.00000000000E+00 0.  1.
          2   -1    0    0  501    0  0.00000000000E+00 -0.00000000000E+00 -0.31101799887E+03  0.31101799887E+03  0.00000000000E+00 0. -1.
         25    2    1    2    0    0  0.11295561459E+03 -0.17330606964E+03 -0.12977312932E+03  0.27437202134E+03  0.12507987992E+03 0.  0.
         23    2    1    2    0    0 -0.11295561459E+03  0.17330606964E+03  0.71433564800E+01  0.22503420356E+03  0.88291565782E+02 0.  0.
          5    1    3    3  502    0 -0.25394154569E+02 -0.20586142121E+02 -0.47230150266E+01  0.33293116476E+02  0.41800000000E+01 0.  1.
         -5    1    3    3    0  502  0.13834976916E+03 -0.15271992752E+03 -0.12505011429E+03  0.24107890487E+03  0.41800000000E+01 0.  1.
        -11    1    4    4    0    0 -0.98867630949E+02  0.11807344081E+03  0.40174218138E+02  0.15915437059E+03  0.00000000000E+00 0.  1.
         11    1    4    4    0    0 -0.14087983641E+02  0.55232628826E+02 -0.33030861658E+02  0.65879832969E+02  0.00000000000E+00 0. -1.
</event>
<event>
 8    1  0.6380238E-009  0.1744789E+03  0.7561462E-02  0.1173256E+00
          2   -1    0    0  501    0  0.00000000000E+00  0.00000000000E+00  0.70348158960E+03  0.70348158960E+03  0.00000000000E+00 0. -1.
         -2   -1    0    0    0  501 -0.00000000000E+00 -0.00000000000E+00 -0.43735451291E+02  0.43735451291E+02  0.00000000000E+00 0.  1.
         25    2    1    2    0    0  0.12808740618E+03 -0.49116500282E+02  0.37755283916E+03  0.42073043637E+03  0.12509652077E+03 0.  0.
         23    2    1    2    0    0 -0.12808740618E+03  0.49116500282E+02  0.28219329915E+03  0.32648660452E+03  0.90230984828E+02 0.  0.
          5    1    3    3  502    0  0.14456451492E+03 -0.12386302094E+02  0.29821642892E+03  0.33166674590E+03  0.41800000000E+01 0.  1.
         -5    1    3    3    0  502 -0.16477108741E+02 -0.36730198189E+02  0.79336410238E+02  0.89063690474E+02  0.41800000000E+01 0.  1.
        -11    1    4    4    0    0 -0.84882387308E+02 -0.14818180696E+02  0.16551024284E+03  0.18659645934E+03  0.00000000000E+00 0. -1.
         11    1    4    4    0    0 -0.43205018875E+02  0.63934680978E+02  0.11668305631E+03  0.13989014517E+03  0.00000000000E+00 0.  1.
</event>
<event>
 8    1  0.6380238E-009  0.1332097E+03  0.7561462E-02  0.1222769E+00
         -1   -1    0    0    0  501 -0.00000000000E+00  0.00000000000E+00  0.34047722333E+02  0.34047722333E+02  0.00000000000E+00 0.  1.
          1   -1    0    0  501    0  0.00000000000E+00 -0.00000000000E+00 -0.10977157520E+04  0.10977157520E+04  0.00000000000E+00 0. -1.
         25    2    1    2    0    0 -0.68684619790E+02  0.71100592489E+02 -0.92346039267E+03  0.93712282549E+03  0.12508885633E+03 0.  0.
         23    2    1    2    0    0  0.68684619790E+02 -0.71100592489E+02 -0.14020763698E+03  0.19464064883E+03  0.91945252511E+02 0.  0.
          5    1    3    3  502    0 -0.89799846174E+02  0.37480177946E+02 -0.82718022809E+03  0.83289457812E+03  0.41800000000E+01 0.  1.
         -5    1    3    3    0  502  0.21115226384E+02  0.33620414543E+02 -0.96280164575E+02  0.10422824737E+03  0.41800000000E+01 0.  1.
        -11    1    4    4    0    0  0.67695671050E+02 -0.10514559632E+02 -0.10245216122E+03  0.12324652199E+03  0.00000000000E+00 0. -1.
         11    1    4    4    0    0  0.98894873997E+00 -0.60586032857E+02 -0.37755475759E+02  0.71394126837E+02  0.00000000000E+00 0.  1.
</event>
<event>
 8    1  0.6380238E-009  0.9318449E+02  0.7561462E-02  0.1295318E+00
          1   -1    0    0  501    0  0.00000000000E+00  0.00000000000E+00  0.48381396462E+02  0.48381396462E+02  0.00000000000E+00 0. -1.
         -1   -1    0    0    0  501 -0.00000000000E+00 -0.00000000000E+00 -0.31473549579E+03  0.31473549579E+03  0.00000000000E+00 0.  1.
         25    2    1    2    0    0  0.38594861857E+02  0.48487441479E+02 -0.11854589342E+03  0.18314402551E+03  0.12509200570E+03 0.  0.
         23    2    1    2    0    0 -0.38594861857E+02 -0.48487441479E+02 -0.14780820590E+03  0.17997286674E+03  0.81868013824E+02 0.  0.
          5    1    3    3  502    0  0.59738951661E+01  0.78913127486E+02 -0.11297012445E+03  0.13799525546E+03  0.41800000000E+01 0.  1.
         -5    1    3    3    0  502  0.32620966691E+02 -0.30425686006E+02 -0.55757689732E+01  0.45148770044E+02  0.41800000000E+01 0.  1.
        -11    1    4    4    0    0 -0.31640266238E+02 -0.35277852466E+02 -0.15593438868E+03  0.16297597030E+03  0.00000000000E+00 0.  1.
         11    1    4    4    0    0 -0.69545956191E+01 -0.13209589013E+02  0.81261827758E+01  0.16996896441E+02  0.00000000000E+00 0. -1.
</event>
<event>
 8    1  0.6380238E-009  0.9681933E+02  0.7561462E-02  0.1287130E+00
          1   -1    0    0  501    0  0.00000000000E+00  0.00000000000E+00  0.73372193368E+03  0.73372193368E+03  0.00000000000E+00 0. -1.
         -1   -1    0    0    0  501 -0.00000000000E+00 -0.00000000000E+00 -0.25641965456E+02  0.25641965456E+02  0.00000000000E+00 0.  1.
         25    2    1    2    0    0  0.59901276849E+02 -0.43895080714E+02  0.28219309162E+03  0.31748100798E+03  0.12508520451E+03 0.  0.
         23    2    1    2    0    0 -0.59901276849E+02  0.43895080714E+02  0.42588687660E+03  0.44188289116E+03  0.91465385578E+02 0.  0.
          5    1    3    3  502    0  0.52316878755E+02 -0.18300674126E+02  0.28495047486E+03  0.29032088454E+03  0.41800000000E+01 0.  1.
         -5    1    3    3    0  502  0.75843980933E+01 -0.25594406588E+02 -0.27573832340E+01  0.27160123441E+02  0.41800000000E+01 0.  1.
        -11    1    4    4    0    0 -0.18476321487E+02  0.62828885587E+02  0.17410483202E+03  0.18601434313E+03  0.00000000000E+00 0.  1.
         11    1    4    4    0    0 -0.41424955362E+02 -0.18933804873E+02  0.25178204458E+03  0.25586854802E+03  0.00000000000E+00 0. -1.
</event>
<event>
 8    1  0.6380238E-009  0.1556576E+03  0.7561462E-02  0.1193688E+00
         -2   -1    0    0    0  501 -0.00000000000E+00  0.00000000000E+00  0.10650380250E+03  0.10650380250E+03  0.00000000000E+00 0. -1.
          2   -1    0    0  501    0  0.00000000000E+00 -0.00000000000E+00 -0.27773826683E+03  0.27773826683E+03  0.00000000000E+00 0.  1.
         25    2    1    2    0    0  0.12625637015E+03  0.11941040992E+02 -0.13817018839E+03  0.22546887858E+03  0.12514773184E+03 0.  0.
         23    2    1    2    0    0 -0.12625637015E+03 -0.11941040992E+02 -0.33064275945E+02  0.15877319076E+03  0.89623770815E+02 0.  0.
          5    1    3    3  502    0  0.99625039360E+02 -0.48961176852E+02 -0.78232982521E+02  0.13586838212E+03  0.41800000000E+01 0. -1.
         -5    1    3    3    0  502  0.26631330793E+02  0.60902217844E+02 -0.59937205866E+02  0.89600496456E+02  0.41800000000E+01 0. -1.
        -11    1    4    4    0    0 -0.12096591289E+03 -0.21348944466E+02 -0.54800164436E+02  0.13450497215E+03  0.00000000000E+00 0.  1.
         11    1    4    4    0    0 -0.52904572631E+01  0.94079034740E+01  0.21735888491E+02  0.24268218606E+02  0.00000000000E+00 0. -1.
</event>
<event>
 8    1  0.6380238E-009  0.1066655E+03  0.7561462E-02  0.1266872E+00
         -2   -1    0    0    0  501 -0.00000000000E+00  0.00000000000E+00  0.53042405695E+02  0.53042405695E+02  0.00000000000E+00 0.  1.
          2   -1    0    0  501    0  0.00000000000E+00 -0.00000000000E+00 -0.33724356522E+03  0.33724356522E+03  0.00000000000E+00 0. -1.
         25    2    1    2    0    0 -0.42833170168E+02  0.11345263409E+02 -0.63334258968E+02  0.14704449545E+03  0.12508980700E+03 0.  0.
         23    2    1    2    0    0  0.42833170168E+02 -0.11345263409E+02 -0.22086690056E+03  0.24324147547E+03  0.91765092259E+02 0.  0.
          5    1    3    3  502    0  0.33644176052E+02 -0.39830445024E+01  0.14213527186E+02  0.36976911456E+02  0.41800000000E+01 0. -1.
         -5    1    3    3    0  502 -0.76477346221E+02  0.15328307912E+02 -0.77547786154E+02  0.11006758399E+03  0.41800000000E+01 0. -1.
        -11    1    4    4    0    0  0.10132455315E+02 -0.49676898942E+02 -0.95389952194E+02  0.10802640380E+03  0.00000000000E+00 0. -1.
         11    1    4    4    0    0  0.32700714854E+02  0.38331635532E+02 -0.12547694837E+03  0.13521507167E+03  0.00000000000E+00 0.  1.
</event>
<event>
 8    1  0.6380238E-009  0.1465863E+03  0.7561462E-02  0.1204732E+00
          1   -1    0    0  501    0  0.00000000000E+00  0.00000000000E+00  0.22685510930E+02  0.22685510930E+02  0.00000000000E+00 0. -1.
         -1   -1    0    0    0  501 -0.00000000000E+00 -0.00000000000E+00 -0.10333022050E+04  0.10333022050E+04  0.00000000000E+00 0.  1.
         25    2    1    2    0    0 -0.91380617995E+02 -0.47207195394E+02 -0.66808671609E+03  0.68743964309E+03  0.12511780859E+03 0.  0.
         23    2    1    2    0    0  0.91380617995E+02  0.47207195394E+02 -0.34252997795E+03  0.36854807281E+03  0.89005390501E+02 0.  0.
          5    1    3    3  502    0 -0.23805602078E+02 -0.82232871352E+02 -0.36002049715E+03  0.37008266994E+03  0.41800000000E+01 0.  1.
         -5    1    3    3    0  502 -0.67575015917E+02  0.35025675959E+02 -0.30806621894E+03  0.31735697314E+03  0.41800000000E+01 0.  1.
        -11    1    4    4    0    0  0.78034960575E+02  0.69993815230E+02 -0.22694999373E+03  0.24998977758E+03  0.00000000000E+00 0.  1.
         11    1    4    4    0    0  0.13345657420E+02 -0.22786619836E+02 -0.11557998422E+03  0.11855829523E+03  0.00000000000E+00 0. -1.
</event>
<event>
 8    1  0.6380238E-009  0.1420274E+03  0.7561462E-02  0.1210627E+00
         -1   -1    0    0    0  501 -0.00000000000E+00  0.00000000000E+00  0.25390036003E+03  0.25390036003E+03  0.00000000000E+00 0.  1.
          1   -1    0    0  501    0  0.00000000000E+00 -0.00000000000E+00 -0.10075741314E+03  0.10075741314E+03  0.00000000000E+00 0. -1.
         25    2    1    2    0    0 -0.96669609195E+02  0.62108826558E+02  0.61257090569E+02  0.18056289552E+03  0.12509199981E+03 0.  0.
         23    2    1    2    0    0  0.96669609195E+02 -0.62108826558E+02  0.91885856317E+02  0.17409487766E+03  0.93077903695E+02 0.  0.
          5    1    3    3  502    0  0.44755976126E+00  0.35621730449E+02  0.70793146472E+02  0.79361514460E+02  0.41800000000E+01 0. -1.
         -5    1    3    3    0  502 -0.97117168957E+02  0.26487096109E+02 -0.95360559027E+01  0.10120138106E+03  0.41800000000E+01 0. -1.
        -11    1    4    4    0    0  0.68431652097E+02  0.10772354031E+02  0.36516030224E+02  0.78309355018E+02  0.00000000000E+00 0. -1.
         11    1    4    4    0    0  0.28237957098E+02 -0.72881180589E+02  0.55369826094E+02  0.95785522637E+02  0.00000000000E+00 0.  1.
</event>
<event>
 8    1  0.6380238E-009  0.1082013E+03  0.7561462E-02  0.1263937E+00
          2   -1    0    0  501    0  0.00000000000E+00  0.00000000000E+00  0.44263273242E+03  0.44263273242E+03  0.00000000000E+00 0. -1.
         -2   -1    0    0    0  501 -0.00000000000E+00 -0.00000000000E+00 -0.39196346810E+02  0.39196346810E+02  0.00000000000E+00 0.  1.
         25    2    1    2    0    0 -0.16326795315E+01 -0.49593593312E+02  0.33074904380E+03  0.35707902782E+03  0.12509321322E+03 0.  0.
         23    2    1    2    0    0  0.16326795315E+01  0.49593593312E+02  0.72687341811E+02  0.12475005141E+03  0.88413435222E+02 0.  0.
          5    1    3    3  502    0 -0.47049398057E+02  0.21974246459E+01  0.23096551813E+03  0.23575626715E+03  0.41800000000E+01 0.  1.
         -5    1    3    3    0  502  0.45416718526E+02 -0.51791017958E+02  0.99783525671E+02  0.12132276068E+03  0.41800000000E+01 0.  1.
        -11    1    4    4    0    0 -0.16584305410E+02 -0.21251373961E+02  0.11199631098E+02  0.29190611811E+02  0.00000000000E+00 0.  1.
         11    1    4    4    0    0  0.18216984941E+02  0.70844967273E+02  0.61487710713E+02  0.95559439602E+02  0.00000000000E+00 0. -1.
</event>
<event>
 8    1  0.6380238E-009  0.5082272E+02  0.7561462E-02  0.1440954E+00
         -2   -1    0    0    0  501 -0.00000000000E+00  0.00000000000E+00  0.10547736299E+03  0.10547736299E+03  0.00000000000E+00 0.  1.
          2   -1    0    0  501    0  0.00000000000E+00 -0.00000000000E+00 -0.11947503179E+03  0.11947503179E+03  0.00000000000E+00 0. -1.
         25    2    1    2    0    0 -0.15739575664E+02  0.16858669553E+01 -0.73444150386E+01  0.12631673857E+03  0.12510556191E+03 0.  0.
         23    2    1    2    0    0  0.15739575664E+02 -0.16858669553E+01 -0.66532537599E+01  0.98635656212E+02  0.97129555240E+02 0.  0.
          5    1    3    3  502    0 -0.69562328389E+01  0.21669937913E+02  0.55246525966E+02  0.59896798043E+02  0.41800000000E+01 0.  1.
         -5    1    3    3    0  502 -0.87833428251E+01 -0.19984070957E+02 -0.62590941005E+02  0.66419940523E+02  0.41800000000E+01 0.  1.
        -11    1    4    4    0    0  0.17450339392E+02 -0.26323899693E+02  0.36898141116E+02  0.48568867166E+02  0.00000000000E+00 0.  1.
         11    1    4    4    0    0 -0.17107637275E+01  0.24638032737E+02 -0.43551394876E+02  0.50066789046E+02  0.00000000000E+00 0. -1.
</event>
<event>
 8    1  0.6380238E-009  0.8889664E+02  0.7561462E-02  0.1305546E+00
          1   -1    0    0  501    0  0.00000000000E+00  0.00000000000E+00  0.56385385232E+03  0.56385385232E+03  0.00000000000E+00 0. -1.
         -1   -1    0    0    0  501 -0.00000000000E+00 -0.00000000000E+00 -0.27452579051E+02  0.27452579051E+02  0.00000000000E+00 0.  1.
         25    2    1    2    0    0  0.25365715556E+02  0.37940074750E+02  0.39574518508E+03  0.41754196822E+03  0.12507667613E+03 0.  0.
         23    2    1    2    0    0 -0.25365715556E+02 -0.37940074750E+02  0.14065608819E+03  0.17376446316E+03  0.91252861392E+02 0.  0.
          5    1    3    3  502    0  0.12728795760E+02  0.69962601472E+02  0.36273822524E+03  0.36966644464E+03  0.41800000000E+01 0. -1.
         -5    1    3    3    0  502  0.12636919797E+02 -0.32022526723E+02  0.33006959840E+02  0.47875523575E+02  0.41800000000E+01 0. -1.
        -11    1    4    4    0    0 -0.42017415975E+02 -0.35588991756E+02  0.14606480136E+03  0.15609921772E+03  0.00000000000E+00 0. -1.
         11    1    4    4    0    0  0.16651700418E+02 -0.23510829939E+01 -0.54087131617E+01  0.17665245431E+02  0.00000000000E+00 0.  1.
</event>
<event>
 8    1  0.6380238E-009  0.7202636E+02  0.7561462E-02  0.1353335E+00
          2   -1    0    0  501    0  0.00000000000E+00  0.00000000000E+00  0.26281490856E+03  0.26281490856E+03  0.00000000000E+00 0. -1.
         -2   -1    0    0    0  501 -0.00000000000E+00 -0.00000000000E+00 -0.61158867136E+02  0.61158867136E+02  0.00000000000E+00 0.  1.
         25    2    1    2    0    0  0.35392869615E+02 -0.34431826240E+02  0.58161127968E+02  0.14652084467E+03  0.12508970876E+03 0.  0.
         23    2    1    2    0    0 -0.35392869615E+02  0.34431826240E+02  0.14349491346E+03  0.17745293103E+03  0.91981229964E+02 0.  0.
          5    1    3    3  502    0  0.16881685639E+02 -0.83597572773E+01  0.95358597346E+02  0.97291373408E+02  0.41800000000E+01 0.  1.
         -5    1    3    3    0  502  0.18511183976E+02 -0.26072068963E+02 -0.37197469378E+02  0.49229471258E+02  0.41800000000E+01 0.  1.
        -11    1    4    4    0    0  0.52780355129E+01  0.49018236673E+02  0.34409186838E+02  0.60121853966E+02  0.00000000000E+00 0.  1.
         11    1    4    4    0    0 -0.40670905128E+02 -0.14586410434E+02  0.10908572662E+03  0.11733107707E+03  0.00000000000E+00 0. -1.
</event>
<event>
 8    1  0.6380238E-009  0.9106167E+02  0.7561462E-02  0.1300301E+00
          2   -1    0    0  501    0  0.00000000000E+00  0.00000000000E+00  0.54492457243E+03  0.54492457243E+03  0.00000000000E+00 0. -1.
         -2   -1    0    0    0  501 -0.00000000000E+00 -0.00000000000E+00 -0.33120138209E+02  0.33120138209E+02  0.00000000000E+00 0.  1.
         25    2    1    2    0    0  0.17452857511E+02 -0.65845581970E+02  0.36964338227E+03  0.39613803292E+03  0.12509543624E+03 0.  0.
         23    2    1    2    0    0 -0.17452857511E+02  0.65845581970E+02  0.14216105194E+03  0.18190667771E+03  0.90774620941E+02 0.  0.
          5    1    3    3  502    0  0.26577825328E+02 -0.60952798803E+02  0.37695071685E+03  0.38279359950E+03  0.41800000000E+01 0. -1.
         -5    1    3    3    0  502 -0.91249678171E+01 -0.48927831674E+01 -0.73073345771E+01  0.13344433424E+02  0.41800000000E+01 0. -1.
        -11    1    4    4    0    0 -0.45287406627E+02  0.61164510715E+02  0.66191125055E+02  0.10086283560E+03  0.00000000000E+00 0.  1.
         11    1    4    4    0    0  0.27834549116E+02  0.46810712554E+01  0.75969926889E+02  0.81043842111E+02  0.00000000000E+00 0. -1.
</event>
<event>
 8    1  0.6380238E-009  0.9357908E+02  0.7561462E-02  0.1294409E+00
          1   -1    0    0  501    0  0.00000000000E+00  0.00000000000E+00  0.34831516777E+02  0.34831516777E+02  0.00000000000E+00 0. -1.
         -1   -1    0    0    0  501 -0.00000000000E+00 -0.00000000000E+00 -0.38211033004E+03  0.38211033004E+03  0.00000000000E+00 0.  1.
         25    2    1    2    0    0  0.52920303612E+01  0.32654974597E+02 -0.15738608864E+03  0.20374655383E+03  0.12509166378E+03 0.  0.
         23    2    1    2    0    0 -0.52920303612E+01 -0.32654974597E+02 -0.18989272462E+03  0.21319529299E+03  0.91096833842E+02 0.  0.
          5    1    3    3  502    0  0.54269309481E+02  0.18567823592E+02 -0.13721182242E+03  0.14877660649E+03  0.41800000000E+01 0.  1.
         -5    1    3    3    0  502 -0.48977279120E+02  0.14087151006E+02 -0.20174266215E+02  0.54969947342E+02  0.41800000000E+01 0.  1.
        -11    1    4    4    0    0  0.19012016527E+02 -0.46715425311E+02 -0.17350001227E+03  0.18068215737E+03  0.00000000000E+00 0.  1.
         11    1    4    4    0    0 -0.24304046888E+02  0.14060450714E+02 -0.16392712355E+02  0.32513135619E+02  0.00000000000E+00 0. -1.
</event>
<event>
 8    1  0.6380238E-009  0.2118444E+03  0.7561462E-02  0.1140114E+00
          2   -1    0    0  501    0  0.00000000000E+00  0.00000000000E+00  0.80218853518E+03  0.80218853518E+03  0.00000000000E+00 0. -1.
         -2   -1    0    0    0  501 -0.00000000000E+00 -0.00000000000E+00 -0.67322887728E+02  0.67322887728E+02  0.00000000000E+00 0.  1.
         25    2    1    2    0    0 -0.64923791434E+02  0.19192136877E+03  0.43968670476E+03  0.50002120745E+03  0.12509156277E+03 0.  0.
         23    2    1    2    0    0  0.64923791434E+02 -0.19192136877E+03  0.29517894269E+03  0.36949021546E+03  0.91342764483E+02 0.  0.
          5    1    3    3  502    0 -0.51995957237E+02  0.62201538458E+02  0.67283514286E+02  0.10543791847E+03  0.41800000000E+01 0. -1.
         -5    1    3    3    0  502 -0.12927834196E+02  0.12971983031E+03  0.37240319047E+03  0.39458328899E+03  0.41800000000E+01 0. -1.
        -11    1    4    4    0    0  0.31535547510E+02 -0.20906162432E+02  0.17541602426E+02  0.41704510548E+02  0.00000000000E+00 0.  1.
         11    1    4    4    0    0  0.33388243924E+02 -0.17101520634E+03  0.27763734027E+03  0.32778570491E+03  0.00000000000E+00 0. -1.
</event>
<event>
 8    1  0.6380238E-009  0.1019197E+03  0.7561462E-02  0.1276310E+00
          2   -1    0    0  501    0  0.00000000000E+00  0.00000000000E+00  0.26690669580E+03  0.26690669580E+03  0.00000000000E+00 0. -1.
         -2   -1    0    0    0  501 -0.00000000000E+00 -0.00000000000E+00 -0.63987834683E+02  0.63987834683E+02  0.00000000000E+00 0.  1.
         25    2    1    2    0    0 -0.66609540359E+02  0.22910682775E+02  0.95927766500E+02  0.17265754067E+03  0.12508700857E+03 0.  0.
         23    2    1    2    0    0  0.66609540359E+02 -0.22910682775E+02  0.10699109462E+03  0.15823698981E+03  0.92898441131E+02 0.  0.
          5    1    3    3  502    0 -0.25092749036E+02 -0.45871485960E+02  0.71314430584E+02  0.88527169208E+02  0.41800000000E+01 0. -1.
         -5    1    3    3    0  502 -0.41516791323E+02  0.68782168736E+02  0.24613335915E+02  0.84130371464E+02  0.41800000000E+01 0. -1.
        -11    1    4    4    0    0  0.18465504097E+02 -0.24568915689E+01  0.10420193276E+03  0.10585392741E+03  0.00000000000E+00 0. -1.
         11    1    4    4    0    0  0.48144036262E+02 -0.20453791206E+02  0.27891618573E+01  0.52383062398E+02  0.00000000000E+00 0.  1.
</event>
<event>
 7    1  0.6380238E-009  0.1321630E+03  0.7561462E-02  0.1224281E+00
          1   -1    0    0  501    0  0.00000000000E+00  0.00000000000E+00  0.18469233254E+03  0.18469233254E+03  0.00000000000E+00 0. -1.
         -1   -1    0    0    0  501 -0.00000000000E+00 -0.00000000000E+00 -0.99458764262E+02  0.99458764262E+02  0.00000000000E+00 0.  1.
         23    2    1    2    0    0 -0.77714486359E+02 -0.90823799701E+01  0.61741255826E+02  0.13468021000E+03  0.90580049009E+02 0.  0.
          5    1    1    2  502    0 -0.30631300307E+02 -0.13742054999E+02  0.18491213197E+02  0.38555388723E+02  0.41800000000E+01 0. -1.
         -5    1    1    2    0  502  0.10834578667E+03  0.22824434969E+02  0.50010992503E+01  0.11091549808E+03  0.41800000000E+01 0. -1.
        -11    1    3    3    0    0 -0.98530247681E+02 -0.74001951378E+01  0.50597724971E+02  0.11100946972E+03  0.00000000000E+00 0.  1.
         11    1    3    3    0    0  0.20815761322E+02 -0.16821848323E+01  0.11143530854E+02  0.23670740274E+02  0.00000000000E+00 0. -1.
</event>
<event>
 8    1  0.6380238E-009  0.3066518E+03  0.7561462E-02  0.1081962E+00
          1   -1    0    0  501    0  0.00000000000E+00  0.00000000000E+00  0.86767904436E+03  0.86767904436E+03  0.00000000000E+00 0. -1.
         -1   -1    0    0    0  501 -0.00000000000E+00 -0.00000000000E+00 -0.11528657639E+03  0.11528657639E+03  0.00000000000E+00 0.  1.
         25    2    1    2    0    0  0.90105355262E+02 -0.28118015564E+03  0.34012159040E+03  0.46745572254E+03  0.12510356232E+03 0.  0.
         23    2    1    2    0    0 -0.90105355262E+02  0.28118015564E+03  0.41227087756E+03  0.51550989821E+03  0.92746556257E+02 0.  0.
          5    1    3    3  502    0  0.57551506621E+02 -0.72480726454E+02  0.17973641669E+03  0.20220851492E+03  0.41800000000E+01 0.  1.
         -5    1    3    3    0  502  0.32553848641E+02 -0.20869942918E+03  0.16038517371E+03  0.26524720762E+03  0.41800000000E+01 0.  1.
        -11    1    4    4    0    0 -0.54185833418E+02  0.26413461933E+03  0.35493474803E+03  0.44573745303E+03  0.00000000000E+00 0.  1.
         11    1    4    4    0    0 -0.35919521843E+02  0.17045536310E+02  0.57336129533E+02  0.69772445187E+02  0.00000000000E+00 0. -1.
</event>
<event>
 8    1  0.6380238E-009  0.7202253E+02  0.7561462E-02  0.1353347E+00
         -1   -1    0    0    0  501 -0.00000000000E+00  0.00000000000E+00  0.33656696389E+02  0.33656696389E+02  0.00000000000E+00 0.  1.
          1   -1    0    0  501    0  0.00000000000E+00 -0.00000000000E+00 -0.42261233199E+03  0.42261233199E+03  0.00000000000E+00 0. -1.
         25    2    1    2    0    0 -0.18319126844E+00 -0.17456890550E+02 -0.30536658396E+03  0.33045496377E+03  0.12508779272E+03 0.  0.
         23    2    1    2    0    0  0.18319126844E+00  0.17456890550E+02 -0.83589051632E+02  0.12581406461E+03  0.92397363133E+02 0.  0.
          5    1    3    3  502    0 -0.25897454062E+02 -0.53065527430E+01 -0.32347751825E+01  0.26958742541E+02  0.41800000000E+01 0. -1.
         -5    1    3    3    0  502  0.25714262793E+02 -0.12150337807E+02 -0.30213180878E+03  0.30349622123E+03  0.41800000000E+01 0. -1.
        -11    1    4    4    0    0 -0.15350552079E+02  0.50092258086E+02 -0.27719670341E+02  0.59272707826E+02  0.00000000000E+00 0.  1.
         11    1    4    4    0    0  0.15533743347E+02 -0.32635367536E+02 -0.55869381291E+02  0.66541356782E+02  0.00000000000E+00 0. -1.
</event>
<event>
 8    1  0.6380238E-009  0.1328254E+03  0.7561462E-02  0.1223322E+00
         -2   -1    0    0    0  501 -0.00000000000E+00  0.00000000000E+00  0.35401244928E+03  0.35401244928E+03  0.00000000000E+00 0.  1.
          2   -1    0    0  501    0  0.00000000000E+00 -0.00000000000E+00 -0.61890930093E+02  0.61890930093E+02  0.00000000000E+00 0. -1.
         25    2    1    2    0    0  0.61096784873E+02  0.62538300708E+02  0.22767494154E+03  0.27409365106E+03  0.12509034482E+03 0.  0.
         23    2    1    2    0    0 -0.61096784873E+02 -0.62538300708E+02  0.64446577639E+02  0.14180972831E+03  0.91174456381E+02 0.  0.
          5    1    3    3  502    0  0.31556799116E+01 -0.30364085450E+02  0.13750404535E+02  0.33741399286E+02  0.41800000000E+01 0. -1.
         -5    1    3    3    0  502  0.57941104961E+02  0.92902386158E+02  0.21392453701E+03  0.24035225177E+03  0.41800000000E+01 0. -1.
        -11    1    4    4    0    0 -0.84252253821E+02 -0.41223594260E+02  0.40051352907E+02  0.10198989101E+03  0.00000000000E+00 0.  1.
         11    1    4    4    0    0  0.23155468948E+02 -0.21314706448E+02  0.24395224731E+02  0.39819837303E+02  0.00000000000E+00 0. -1.
</event>
<event>
 8    1  0.6380238E-009  0.1280495E+03  0.7561462E-02  0.1230379E+00
         -2   -1    0    0    0  501 -0.00000000000E+00  0.00000000000E+00  0.77779120259E+02  0.77779120259E+02  0.00000000000E+00 0.  1.
          2   -1    0    0  501    0  0.00000000000E+00 -0.00000000000E+00 -0.26203220142E+03  0.26203220142E+03  0.00000000000E+00 0. -1.
         25    2    1    2    0    0 -0.22409641719E+02  0.85048979358E+02 -0.65617772001E+02  0.16639843012E+03  0.12508886686E+03 0.  0.
         23    2    1    2    0    0  0.22409641719E+02 -0.85048979358E+02 -0.11863530916E+03  0.17341289155E+03  0.90896498540E+02 0.  0.
          5    1    3    3  502    0  0.51726587571E+02  0.26864681978E+02 -0.21619136651E+02  0.62307386954E+02  0.41800000000E+01 0.  1.
         -5    1    3    3    0  502 -0.74136229290E+02  0.58184297380E+02 -0.43998635350E+02  0.10409104317E+03  0.41800000000E+01 0.  1.
        -11    1    4    4    0    0  0.39622191169E+02 -0.46375693841E+02 -0.11592767418E+03  0.13099560547E+03  0.00000000000E+00 0. -1.
         11    1    4    4    0    0 -0.17212549451E+02 -0.38673285518E+02 -0.27076349753E+01  0.42417286081E+02  0.00000000000E+00 0.  1.
</event>
<event>
 8    1  0.6380238E-009  0.8694523E+02  0.7561462E-02  0.1310423E+00
         -1   -1    0    0    0  501 -0.00000000000E+00  0.00000000000E+00  0.89114615532E+02  0.89114615532E+02  0.00000000000E+00 0.  1.
          1   -1    0    0  501    0  0.00000000000E+00 -0.00000000000E+00 -0.17701802782E+03  0.17701802782E+03  0.00000000000E+00 0. -1.
         25    2    1    2    0    0 -0.40314323422E+02 -0.36945258830E+02 -0.81091391375E+02  0.15879272703E+03  0.12509644111E+03 0.  0.
         23    2    1    2    0    0  0.40314323422E+02  0.36945258830E+02 -0.68120209185E+01  0.10733991633E+03  0.92115455738E+02 0.  0.
          5    1    3    3  502    0 -0.28956125000E+02 -0.64549455067E+02  0.14869634373E+01  0.70885631722E+02  0.41800000000E+01 0.  1.
         -5    1    3    3    0  502 -0.11358198422E+02  0.27604196236E+02 -0.82578354812E+02  0.87907095304E+02  0.41800000000E+01 0.  1.
        -11    1    4    4    0    0  0.71368112203E+01  0.38991246285E+02 -0.42809130064E+02  0.58342720009E+02  0.00000000000E+00 0. -1.
         11    1    4    4    0    0  0.33177512202E+02 -0.20459874543E+01  0.35997109145E+02  0.48997196322E+02  0.00000000000E+00 0.  1.
</event>
<event>
 8    1  0.6380238E-009  0.1063767E+03  0.7561462E-02  0.1267431E+00
         -1   -1    0    0    0  501 -0.00000000000E+00  0.00000000000E+00  0.22350228535E+02  0.22350228535E+02  0.00000000000E+00 0.  1.
          1   -1    0    0  501    0  0.00000000000E+00 -0.00000000000E+00 -0.52950700302E+03  0.52950700302E+03  0.00000000000E+00 0. -1.
         25    2    1    2    0    0  0.26921002059E+01 -0.12558600655E+02 -0.27266280591E+03  0.30026216944E+03  0.12508956318E+03 0.  0.
         23    2    1    2    0    0 -0.26921002059E+01  0.12558600655E+02 -0.23449396858E+03  0.25159506212E+03  0.90264545241E+02 0.  0.
          5    1    3    3  502    0  0.30116665546E+02  0.46953505743E+02 -0.88009199871E+02  0.10428200663E+03  0.41800000000E+01 0.  1.
         -5    1    3    3    0  502 -0.27424565340E+02 -0.59512106398E+02 -0.18465360604E+03  0.19598016281E+03  0.41800000000E+01 0.  1.
        -11    1    4    4    0    0 -0.46487096789E+02  0.68490827612E+01 -0.11829529720E+03  0.12728604575E+03  0.00000000000E+00 0. -1.
         11    1    4    4    0    0  0.43794996583E+02  0.57095178938E+01 -0.11619867138E+03  0.12430901637E+03  0.00000000000E+00 0.  1.
</event>
<event>
 8    1  0.6380238E-009  0.1242209E+03  0.7561462E-02  0.1236292E+00
         -2   -1    0    0    0  501 -0.00000000000E+00  0.00000000000E+00  0.26003909801E+02  0.26003909801E+02  0.00000000000E+00 0.  1.
          2   -1    0    0  501    0  0.00000000000E+00 -0.00000000000E+00 -0.60479517185E+03  0.60479517185E+03  0.00000000000E+00 0. -1.
         25    2    1    2    0    0  0.59548981777E+02  0.24742566160E+02 -0.30575270159E+03  0.33658646670E+03  0.12508980465E+03 0.  0.
         23    2    1    2    0    0 -0.59548981777E+02 -0.24742566160E+02 -0.27303856046E+03  0.29421261495E+03  0.88615639062E+02 0.  0.
          5    1    3    3  502    0  0.22947309598E+02  0.74115148539E+02 -0.19397408538E+03  0.20895705889E+03  0.41800000000E+01 0. -1.
         -5    1    3    3    0  502  0.36601672179E+02 -0.49372582379E+02 -0.11177861621E+03  0.12762940781E+03  0.41800000000E+01 0. -1.
        -11    1    4    4    0    0 -0.19058287085E+02 -0.55249463369E+02 -0.13279103000E+03  0.14508335245E+03  0.00000000000E+00 0.  1.
         11    1    4    4    0    0 -0.40490694692E+02  0.30506897209E+02 -0.14024753046E+03  0.14912926250E+03  0.00000000000E+00 0. -1.
</event>
<event>
 8    1  0.6380238E-009  0.1079339E+03  0.7561462E-02  0.1264445E+00
          2   -1    0    0  501    0  0.00000000000E+00  0.00000000000E+00  0.14795338282E+03  0.14795338282E+03  0.00000000000E+00 0. -1.
         -2   -1    0    0    0  501 -0.00000000000E+00 -0.00000000000E+00 -0.15083363683E+03  0.15083363683E+03  0.00000000000E+00 0.  1.
         25    2    1    2    0    0 -0.48256545245E+02 -0.46931027527E+02  0.72575532073E+02  0.15951896316E+03  0.12509147152E+03 0.  0.
         23    2    1    2    0    0  0.48256545245E+02  0.46931027527E+02 -0.75455786076E+02  0.13926805649E+03  0.95764296077E+02 0.  0.
          5    1    3    3  502    0  0.53425343711E+01  0.32612457553E+02  0.51325813004E+02  0.61187633895E+02  0.41800000000E+01 0.  1.
         -5    1    3    3    0  502 -0.53599079616E+02 -0.79543485080E+02  0.21249719069E+02  0.98331329264E+02  0.41800000000E+01 0.  1.
        -11    1    4    4    0    0  0.56834628380E+02  0.23327733214E+02 -0.18148372485E+01  0.61462604519E+02  0.00000000000E+00 0. -1.
         11    1    4    4    0    0 -0.85780831349E+01  0.23603294313E+02 -0.73640948827E+02  0.77805451974E+02  0.00000000000E+00 0.  1.
</event>
<event>
 8    1  0.6380238E-009  0.9677018E+02  0.7561462E-02  0.1287238E+00
          2   -1    0    0  501    0  0.00000000000E+00  0.00000000000E+00  0.36236274050E+03  0.36236274050E+03  0.00000000000E+00 0. -1.
         -2   -1    0    0    0  501 -0.00000000000E+00 -0.00000000000E+00 -0.35947036741E+02  0.35947036741E+02  0.00000000000E+00 0.  1.
         25    2    1    2    0    0  0.21362265725E+02  0.49827823340E+01  0.23413741823E+03  0.26636247406E+03  0.12508981755E+03 0.  0.
         23    2    1    2    0    0 -0.21362265725E+02 -0.49827823340E+01  0.92278285526E+02  0.13194730318E+03  0.91725865056E+02 0.  0.
          5    1    3    3  502    0 -0.27053651830E+02  0.40037326794E+02  0.39011318388E+02  0.62243417134E+02  0.41800000000E+01 0.  1.
         -5    1    3    3    0  502  0.48415917555E+02 -0.35054544460E+02  0.19512609984E+03  0.20411905692E+03  0.41800000000E+01 0.  1.
        -11    1    4    4    0    0 -0.44239965195E+02 -0.28248740490E+02  0.27134448663E+02  0.59088443574E+02  0.00000000000E+00 0.  1.
         11    1    4    4    0    0  0.22877699470E+02  0.23265958156E+02  0.65143836863E+02  0.72858859607E+02  0.00000000000E+00 0. -1.
</event>
<event>
 8    1  0.6380238E-009  0.1348265E+03  0.7561462E-02  0.1220465E+00
          2   -1    0    0  501    0  0.00000000000E+00  0.00000000000E+00  0.52930087633E+03  0.52930087633E+03  0.00000000000E+00 0. -1.
         -2   -1    0    0    0  501 -0.00000000000E+00 -0.00000000000E+00 -0.42318807359E+02  0.42318807359E+02  0.00000000000E+00 0.  1.
         25    2    1    2    0    0  0.99360978031E+02 -0.97698014711E+01  0.21381473008E+03  0.26708071283E+03  0.12508922971E+03 0.  0.
         23    2    1    2    0    0 -0.99360978031E+02  0.97698014711E+01  0.27316733889E+03  0.30453897086E+03  0.90308010491E+02 0.  0.
          5    1    3    3  502    0 -0.64119619665E+01 -0.36538647085E+02  0.11098102810E+03  0.11709161791E+03  0.41800000000E+01 0.  1.
         -5    1    3    3    0  502  0.10577294000E+03  0.26768845614E+02  0.10283370197E+03  0.14998909491E+03  0.41800000000E+01 0.  1.
        -11    1    4    4    0    0 -0.24173938707E+02  0.36119833507E+02  0.16227094874E+03  0.16799072144E+03  0.00000000000E+00 0. -1.
         11    1    4    4    0    0 -0.75187039324E+02 -0.26350032036E+02  0.11089639015E+03  0.13654824942E+03  0.00000000000E+00 0.  1.
</event>
<event>
 8    1  0.6380238E-009  0.8288121E+02  0.7561462E-02  0.1321068E+00
          1   -1    0    0  501    0  0.00000000000E+00  0.00000000000E+00  0.14113591881E+02  0.14113591881E+02  0.00000000000E+00 0. -1.
         -1   -1    0    0    0  501 -0.00000000000E+00 -0.00000000000E+00 -0.83370883109E+03  0.83370883109E+03  0.00000000000E+00 0.  1.
         25    2    1    2    0    0 -0.33339599162E+01 -0.17179776826E+02 -0.48962377146E+03  0.50564885213E+03  0.12507223539E+03 0.  0.
         23    2    1    2    0    0  0.33339599162E+01  0.17179776826E+02 -0.32997146776E+03  0.34217357084E+03  0.88855630268E+02 0.  0.
          5    1    3    3  502    0 -0.25954447092E+02  0.18954762515E+02 -0.43512766761E+03  0.43633298736E+03  0.41800000000E+01 0.  1.
         -5    1    3    3    0  502  0.22620487176E+02 -0.36134539341E+02 -0.54496103852E+02  0.69315864768E+02  0.41800000000E+01 0.  1.
        -11    1    4    4    0    0 -0.37415990889E+02  0.29827145428E+02 -0.16902743396E+03  0.17566982783E+03  0.00000000000E+00 0.  1.
         11    1    4    4    0    0  0.40749950805E+02 -0.12647368602E+02 -0.16094403380E+03  0.16650374301E+03  0.00000000000E+00 0. -1.
</event>
<event>
 8    1  0.6380238E-009  0.1317357E+03  0.7561462E-02  0.1224903E+00
         -1   -1    0    0    0  501 -0.00000000000E+00  0.00000000000E+00  0.46756316092E+02  0.46756316092E+02  0.00000000000E+00 0.  1.
          1   -1    0    0  501    0  0.00000000000E+00 -0.00000000000E+00 -0.73327220723E+03  0.73327220723E+03  0.00000000000E+00 0. -1.
         25    2    1    2    0    0  0.95545360043E+02 -0.61496084353E+02 -0.56693288586E+03  0.59158508998E+03  0.12509731172E+03 0.  0.
         23    2    1    2    0    0 -0.95545360043E+02  0.61496084353E+02 -0.11958300527E+03  0.18844343333E+03  0.91105149146E+02 0.  0.
          5    1    3    3  502    0  0.59287305207E+02 -0.19104749359E+02 -0.50205371313E+03  0.50592032898E+03  0.41800000000E+01 0.  1.
         -5    1    3    3    0  502  0.36258054836E+02 -0.42391334994E+02 -0.64879172731E+02  0.85664761001E+02  0.41800000000E+01 0.  1.
        -11    1    4    4    0    0 -0.46242090682E+02 -0.19577017973E+02 -0.33829811187E+02  0.60547887728E+02  0.00000000000E+00 0. -1.
         11    1    4    4    0    0 -0.49303269360E+02  0.81073102326E+02 -0.85753194083E+02  0.12789554561E+03  0.00000000000E+00 0.  1.
</event>
<event>
 8    1  0.6380238E-009  0.1317482E+03  0.7561462E-02  0.1224885E+00
         -1   -1    0    0    0  501 -0.00000000000E+00  0.00000000000E+00  0.66925873048E+03  0.66925873048E+03  0.00000000000E+00 0.  1.
          1   -1    0    0  501    0  0.00000000000E+00 -0.00000000000E+00 -0.52346679211E+02  0.52346679211E+02  0.00000000000E+00 0. -1.
         25    2    1    2    0    0 -0.67915704014E+02  0.54425644537E+02  0.80026115339E+02  0.17212354385E+03  0.12509053352E+03 0.  0.
         23    2    1    2    0    0  0.67915704014E+02 -0.54425644537E+02  0.53688593593E+03  0.54948186584E+03  0.78160853695E+02 0.  0.
          5    1    3    3  502    0 -0.25789598945E+02  0.91013417798E+02  0.37501477620E+02  0.10184487644E+03  0.41800000000E+01 0.  1.
         -5    1    3    3    0  502 -0.42126105069E+02 -0.36587773261E+02  0.42524637719E+02  0.70278667415E+02  0.41800000000E+01 0.  1.
        -11    1    4    4    0    0  0.61826535477E+02 -0.38854208868E+01  0.36487221353E+03  0.37009370326E+03  0.00000000000E+00 0. -1.
         11    1    4    4    0    0  0.60891685369E+01 -0.50540223650E+02  0.17201372240E+03  0.17938816258E+03  0.00000000000E+00 0.  1.
</event>
<event>
 8    1  0.6380238E-009  0.1207136E+03  0.7561462E-02  0.1241924E+00
          1   -1    0    0  501    0  0.00000000000E+00  0.00000000000E+00  0.98571786098E+03  0.98571786098E+03  0.00000000000E+00 0. -1.
         -1   -1    0    0    0  501 -0.00000000000E+00 -0.00000000000E+00 -0.43944667404E+02  0.43944667404E+02  0.00000000000E+00 0.  1.
         25    2    1    2    0    0 -0.81425631307E+02 -0.78836230037E+02  0.82898794039E+03  0.84599879120E+03  0.12509062636E+03 0.  0.
         23    2    1    2    0    0  0.81425631307E+02  0.78836230037E+02  0.11278525319E+03  0.18366373718E+03  0.90369078889E+02 0.  0.
          5    1    3    3  502    0 -0.72066003049E+02 -0.45108324378E+02  0.21851858506E+03  0.23451250316E+03  0.41800000000E+01 0. -1.
         -5    1    3    3    0  502 -0.93596282575E+01 -0.33727905659E+02  0.61046935533E+03  0.61148628804E+03  0.41800000000E+01 0. -1.
        -11    1    4    4    0    0  0.44905600188E+02  0.70512752005E+02  0.23496796213E+02  0.86836976893E+02  0.00000000000E+00 0.  1.
         11    1    4    4    0    0  0.36520031119E+02  0.83234780315E+01  0.89288456973E+02  0.96826760289E+02  0.00000000000E+00 0. -1.
</event>
<event>
 8    1  0.6380238E-009  0.8176919E+02  0.7561462E-02  0.1324104E+00
          1   -1    0    0  501    0  0.00000000000E+00  0.00000000000E+00  0.55982273893E+03  0.55982273893E+03  0.00000000000E+00 0. -1.
         -1   -1    0    0    0  501 -0.00000000000E+00 -0.00000000000E+00 -0.21808883300E+02  0.21808883300E+02  0.00000000000E+00 0.  1.
         25    2    1    2    0    0  0.20068597752E+02  0.47638208110E+01  0.38378657769E+03  0.40418200370E+03  0.12508202226E+03 0.  0.
         23    2    1    2    0    0 -0.20068597752E+02 -0.47638208110E+01  0.15422727794E+03  0.17744961854E+03  0.85304579317E+02 0.  0.
          5    1    3    3  502    0 -0.29531894518E+02  0.35952831077E+01  0.32813915551E+03  0.32951151214E+03  0.41800000000E+01 0.  1.
         -5    1    3    3    0  502  0.49600492270E+02  0.11685377033E+01  0.55647422178E+02  0.74670491554E+02  0.41800000000E+01 0.  1.
        -11    1    4    4    0    0  0.22197512527E+02  0.23914802249E+02  0.35585785972E+02  0.48280384135E+02  0.00000000000E+00 0.  1.
         11    1    4    4    0    0 -0.42266110279E+02 -0.28678623060E+02  0.11864149197E+03  0.12916923440E+03  0.00000000000E+00 0. -1.
</event>
<event>
 7    1  0.6380238E-009  0.1069287E+03  0.7561462E-02  0.1266365E+00
          2   -1    0    0  501    0  0.00000000000E+00  0.00000000000E+00  0.11354565520E+03  0.11354565520E+03  0.00000000000E+00 0. -1.
         -2   -1    0    0    0  501 -0.00000000000E+00 -0.00000000000E+00 -0.11991191385E+03  0.11991191385E+03  0.00000000000E+00 0.  1.
         23    2    1    2    0    0  0.34143676453E+02  0.19055827982E+02 -0.17744276459E+02  0.10211215091E+03  0.92645112088E+02 0.  0.
          5    1    1    2  502    0 -0.65788659932E+02  0.15245363429E+02 -0.24889165269E+02  0.72093771086E+02  0.41800000000E+01 0.  1.
         -5    1    1    2    0  502  0.31644983478E+02 -0.34301191411E+02  0.36267183074E+02  0.59251647063E+02  0.41800000000E+01 0.  1.
        -11    1    3    3    0    0  0.64622143701E+02  0.25334207525E+01 -0.39256340460E+01  0.64790819411E+02  0.00000000000E+00 0.  1.
         11    1    3    3    0    0 -0.30478467248E+02  0.16522407230E+02 -0.13818642413E+02  0.37321331495E+02  0.00000000000E+00 0. -1.
</event>
<event>
 8    1  0.6380238E-009  0.9331847E+02  0.7561462E-02  0.1295009E+00
          1   -1    0    0  501    0  0.00000000000E+00  0.00000000000E+00  0.29604194337E+03  0.29604194337E+03  0.00000000000E+00 0. -1.
         -1   -1    0    0    0  501 -0.00000000000E+00 -0.00000000000E+00 -0.59662729206E+02  0.59662729206E+02  0.00000000000E+00 0.  1.
         25    2    1    2    0    0 -0.14237219342E+01  0.69041968483E+02  0.86397776119E+02  0.16697475885E+03  0.12508866446E+03 0.  0.
         23    2    1    2    0    0  0.14237219342E+01 -0.69041968483E+02  0.14998143805E+03  0.18872991374E+03  0.91409672262E+02 0.  0.
          5    1    3    3  502    0  0.58990278923E+01  0.57312410979E+02 -0.18831471007E+02  0.60758601717E+02  0.41800000000E+01 0. -1.
         -5    1    3    3    0  502 -0.73227498265E+01  0.11729557504E+02  0.10522924713E+03  0.10621615713E+03  0.41800000000E+01 0. -1.
        -11    1    4    4    0    0  0.62581747824E+01  0.22194624163E+02  0.34047829762E+02  0.41122023355E+02  0.00000000000E+00 0.  1.
         11    1    4    4    0    0 -0.48344528482E+01 -0.91236592646E+02  0.11593360829E+03  0.14760789038E+03  0.00000000000E+00 0. -1.
</event>
<event>
 8    1  0.6380238E-009  0.1358941E+03  0.7561462E-02  0.1218963E+00
         -1   -1    0    0    0  501 -0.00000000000E+00  0.00000000000E+00  0.26694313668E+03  0.26694313668E+03  0.00000000000E+00 0.  1.
          1   -1    0    0  501    0  0.00000000000E+00 -0.00000000000E+00 -0.75994606148E+02  0.75994606148E+02  0.00000000000E+00 0. -1.
         25    2    1    2    0    0  0.25388356062E+02 -0.88571216420E+02  0.11530202744E+03  0.19347210033E+03  0.12508983601E+03 0.  0.
         23    2    1    2    0    0 -0.25388356062E+02  0.88571216420E+02  0.75646503098E+02  0.14946564251E+03  0.90156285732E+02 0.  0.
          5    1    3    3  502    0 -0.30624525842E+02  0.14581002844E+02  0.96985208508E+01  0.35524652478E+02  0.41800000000E+01 0. -1.
         -5    1    3    3    0  502  0.56012881904E+02 -0.10315221926E+03  0.10560350659E+03  0.15794744785E+03  0.41800000000E+01 0. -1.
        -11    1    4    4    0    0  0.27780178207E+02  0.25992492987E+02  0.51202252709E+02  0.63788860120E+02  0.00000000000E+00 0.  1.
         11    1    4    4    0    0 -0.53168534270E+02  0.62578723433E+02  0.24444250389E+02  0.85676782385E+02  0.00000000000E+00 0. -1.
</event>
<event>
 8    1  0.6380238E-009  0.1163813E+03  0.7561462E-02  0.1249189E+00
          1   -1    0    0  501    0  0.00000000000E+00  0.00000000000E+00  0.34492948667E+03  0.34492948667E+03  0.00000000000E+00 0. -1.
         -1   -1    0    0    0  501 -0.00000000000E+00 -0.00000000000E+00 -0.41035385743E+02  0.41035385743E+02  0.00000000000E+00 0.  1.
         25    2    1    2    0    0  0.16602770282E+02  0.37021279164E+02  0.13145725637E+03  0.18594269983E+03  0.12508976886E+03 0.  0.
         23    2    1    2    0    0 -0.16602770282E+02 -0.37021279164E+02  0.17243684456E+03  0.20002217259E+03  0.92887981323E+02 0.  0.
          5    1    3    3  502    0 -0.77671777275E+01  0.80758649738E+02  0.82939315083E+02  0.11609776459E+03  0.41800000000E+01 0.  1.
         -5    1    3    3    0  502  0.24369948010E+02 -0.43737370574E+02  0.48517941291E+02  0.69844935234E+02  0.41800000000E+01 0.  1.
        -11    1    4    4    0    0  0.35869111938E+02  0.19468615851E+01  0.57357693851E+02  0.67677828756E+02  0.00000000000E+00 0.  1.
         11    1    4    4    0    0 -0.52471882220E+02 -0.38968140749E+02  0.11507915071E+03  0.13234434383E+03  0.00000000000E+00 0. -1.
</event>
<event>
 8    1  0.6380238E-009  0.7510432E+02  0.7561462E-02  0.1343548E+00
          1   -1    0    0  501    0  0.00000000000E+00  0.00000000000E+00  0.13029816456E+03  0.13029816456E+03  0.00000000000E+00 0. -1.
         -1   -1    0    0    0  501 -0.00000000000E+00 -0.00000000000E+00 -0.98264074337E+02  0.98264074337E+02  0.00000000000E+00 0.  1.
         25    2    1    2    0    0 -0.15760039234E+02  0.12829546407E+02  0.41362256008E+02  0.13330479205E+03  0.12508539189E+03 0.  0.
         23    2    1    2    0    0  0.15760039234E+02 -0.12829546407E+02 -0.93281657809E+01  0.95257446849E+02  0.92595844430E+02 0.  0.
          5    1    3    3  502    0  0.23977363787E+02 -0.13611944254E+02  0.71469498564E+02  0.76717407578E+02  0.41800000000E+01 0. -1.
         -5    1    3    3    0  502 -0.39737403021E+02  0.26441490661E+02 -0.30107242556E+02  0.56587384473E+02  0.41800000000E+01 0. -1.
        -11    1    4    4    0    0 -0.84456442642E+01 -0.38329806467E+02  0.24662101270E+02  0.46354311664E+02  0.00000000000E+00 0. -1.
         11    1    4    4    0    0  0.24205683498E+02  0.25500260059E+02 -0.33990267051E+02  0.48903135185E+02  0.00000000000E+00 0.  1.
</event>
<event>
 8    1  0.6380238E-009  0.1378838E+03  0.7561462E-02  0.1216205E+00
         -2   -1    0    0    0  501 -0.00000000000E+00  0.00000000000E+00  0.63233538631E+03  0.63233538631E+03  0.00000000000E+00 0.  1.
          2   -1    0    0  501    0  0.00000000000E+00 -0.00000000000E+00 -0.46182007999E+02  0.46182007999E+02  0.00000000000E+00 0. -1.
         25    2    1    2    0    0 -0.94544061739E+02 -0.59587840625E+02  0.44780070203E+03  0.47817661925E+03  0.12505246938E+03 0.  0.
         23    2    1    2    0    0  0.94544061739E+02  0.59587840625E+02  0.13835267628E+03  0.20034077506E+03  0.92226204286E+02 0.  0.
          5    1    3    3  502    0  0.14438298044E+02 -0.25702256830E+02  0.23307290974E+03  0.23496707027E+03  0.41800000000E+01 0.  1.
         -5    1    3    3    0  502 -0.10898235978E+03 -0.33885583796E+02  0.21472779229E+03  0.24320954898E+03  0.41800000000E+01 0.  1.
        -11    1    4    4    0    0 -0.11307098848E+02  0.90891781334E+01  0.53899377385E+02  0.55817618419E+02  0.00000000000E+00 0.  1.
         11    1    4    4    0    0  0.10585116059E+03  0.50498662492E+02  0.84453298898E+02  0.14452315664E+03  0.00000000000E+00 0. -1.
</event>
<event>
 8    1  0.6380238E-009  0.2755863E+03  0.7561462E-02  0.1098124E+00
         -1   -1    0    0    0  501 -0.00000000000E+00  0.00000000000E+00  0.57558943705E+02  0.57558943705E+02  0.00000000000E+00 0.  1.
          1   -1    0    0  501    0  0.00000000000E+00 -0.00000000000E+00 -0.13396923233E+04  0.13396923233E+04  0.00000000000E+00 0. -1.
         25    2    1    2    0    0 -0.30817044801E+02  0.25267102039E+03 -0.60764711392E+03  0.67057799498E+03  0.12508995764E+03 0.  0.
         23    2    1    2    0    0  0.30817044801E+02 -0.25267102039E+03 -0.67448626564E+03  0.72667327200E+03  0.91268761896E+02 0.  0.
          5    1    3    3  502    0 -0.68464940158E+02  0.22454265003E+03 -0.53072714890E+03  0.58034095900E+03  0.41800000000E+01 0. -1.
         -5    1    3    3    0  502  0.37647895356E+02  0.28128370355E+02 -0.76919965026E+02  0.90237035984E+02  0.41800000000E+01 0. -1.
        -11    1    4    4    0    0 -0.75413879945E+01 -0.21602280600E+03 -0.51241577671E+03  0.55614085758E+03  0.00000000000E+00 0.  1.
         11    1    4    4    0    0  0.38358432796E+02 -0.36648214383E+02 -0.16207048893E+03  0.17053241441E+03  0.00000000000E+00 0. -1.
</event>
<event>
 8    1  0.6380238E-009  0.2089384E+03  0.7561462E-02  0.1142409E+00
         -2   -1    0    0    0  501 -0.00000000000E+00  0.00000000000E+00  0.40888062051E+02  0.40888062051E+02  0.00000000000E+00 0.  1.
          2   -1    0    0  501    0  0.00000000000E+00 -0.00000000000E+00 -0.19088222849E+04  0.19088222849E+04  0.00000000000E+00 0. -1.
         25    2    1    2    0    0 -0.62497650308E+01 -0.20155976543E+03 -0.15073529005E+04  0.15259177739E+04  0.12508751850E+03 0.  0.
         23    2    1    2    0    0  0.62497650308E+01  0.20155976543E+03 -0.36058132231E+03  0.42379257307E+03  0.94423812592E+02 0.  0.
          5    1    3    3  502    0  0.31677263599E+02 -0.65765983465E+02 -0.87375947747E+03  0.87681338406E+03  0.41800000000E+01 0. -1.
         -5    1    3    3    0  502 -0.37927028630E+02 -0.13579378197E+03 -0.63359342306E+03  0.64910438980E+03  0.41800000000E+01 0. -1.
        -11    1    4    4    0    0 -0.11319536793E+02  0.10002921301E+03 -0.92973743601E+02  0.13703317981E+03  0.00000000000E+00 0.  1.
         11    1    4    4    0    0  0.17569301824E+02  0.10153055243E+03 -0.26760757871E+03  0.28675939327E+03  0.00000000000E+00 0. -1.
</event>
<event>
 8    1  0.6380238E-009  0.9015827E+02  0.7561462E-02  0.1302469E+00
          2   -1    0    0  501    0  0.00000000000E+00  0.00000000000E+00  0.43561215153E+03  0.43561215153E+03  0.00000000000E+00 0. -1.
         -2   -1    0    0    0  501 -0.00000000000E+00 -0.00000000000E+00 -0.33125295277E+02  0.33125295277E+02  0.00000000000E+00 0.  1.
         25    2    1    2    0    0 -0.38048996004E+02  0.35255450758E+02  0.22914600123E+03  0.26616898349E+03  0.12508942797E+03 0.  0.
         23    2    1    2    0    0  0.38048996004E+02 -0.35255450758E+02  0.17334085503E+03  0.20256846332E+03  0.91083793307E+02 0.  0.
          5    1    3    3  502    0 -0.68722680957E+02  0.21004246287E+02  0.60252225487E+02  0.93871126104E+02  0.41800000000E+01 0. -1.
         -5    1    3    3    0  502  0.30673684953E+02  0.14251204471E+02  0.16889377574E+03  0.17229785739E+03  0.41800000000E+01 0. -1.
        -11    1    4    4    0    0 -0.80693841077E+01 -0.25990573555E+02  0.14525410242E+03  0.14778152504E+03  0.00000000000E+00 0. -1.
         11    1    4    4    0    0  0.46118380112E+02 -0.92648772028E+01  0.28086752613E+02  0.54786938279E+02  0.00000000000E+00 0.  1.
</event>
<event>
 8    1  0.6380238E-009  0.1832497E+03  0.7561462E-02  0.1164695E+00
         -1   -1    0    0    0  501 -0.00000000000E+00  0.00000000000E+00  0.68454472857E+02  0.68454472857E+02  0.00000000000E+00 0.  1.
          1   -1    0    0  501    0  0.00000000000E+00 -0.00000000000E+00 -0.63956779926E+03  0.63956779926E+03  0.00000000000E+00 0. -1.
         25    2    1    2    0    0  0.26874180545E+02  0.16255984495E+03 -0.40664331279E+03  0.45623979250E+03  0.12509212468E+03 0.  0.
         23    2    1    2    0    0 -0.26874180545E+02 -0.16255984495E+03 -0.16447001361E+03  0.25178247961E+03  0.95896334081E+02 0.  0.
          5    1    3    3  502    0  0.61594054003E+01 -0.18170345983E+02 -0.79578919434E+02  0.81965703598E+02  0.41800000000E+01 0.  1.
         -5    1    3    3    0  502  0.20714775145E+02  0.18073019094E+03 -0.32706439335E+03  0.37427408891E+03  0.41800000000E+01 0.  1.
        -11    1    4    4    0    0 -0.22009221427E+02 -0.11446994842E+03 -0.16668055000E+03  0.20339660928E+03  0.00000000000E+00 0. -1.
         11    1    4    4    0    0 -0.48649591182E+01 -0.48089896537E+02  0.22105363929E+01  0.48385870328E+02  0.00000000000E+00 0.  1.
</event>
<event>
 8    1  0.6380238E-009  0.1073709E+03  0.7561462E-02  0.1265517E+00
          3   -1    0    0  501    0  0.00000000000E+00  0.00000000000E+00  0.79678855345E+02  0.79678855345E+02  0.00000000000E+00 0. -1.
         -3   -1    0    0    0  501 -0.00000000000E+00 -0.00000000000E+00 -0.24005109891E+03  0.24005109891E+03  0.00000000000E+00 0.  1.
         25    2    1    2    0    0  0.61060520455E+02 -0.32947794397E+02 -0.14777987197E+03  0.20567220512E+03  0.12509284986E+03 0.  0.
         23    2    1    2    0    0 -0.61060520455E+02  0.32947794397E+02 -0.12592371599E+02  0.11405774914E+03  0.89647409346E+02 0.  0.
          5    1    3    3  502    0  0.74177989462E+02  0.28869604257E+02 -0.81373074489E+02  0.11390732120E+03  0.41800000000E+01 0.  1.
         -5    1    3    3    0  502 -0.13117469007E+02 -0.61817398655E+02 -0.66406797480E+02  0.91764883922E+02  0.41800000000E+01 0.  1.
        -11    1    4    4    0    0 -0.37995032003E+02  0.10276165311E+02 -0.50629541657E+02  0.64129342105E+02  0.00000000000E+00 0.  1.
         11    1    4    4    0    0 -0.23065488452E+02  0.22671629086E+02  0.38037170058E+02  0.49928407034E+02  0.00000000000E+00 0. -1.
</event>
<event>
 8    1  0.6380238E-009  0.3290202E+03  0.7561462E-02  0.1071571E+00
         -1   -1    0    0    0  501 -0.00000000000E+00  0.00000000000E+00  0.14611485063E+03  0.14611485063E+03  0.00000000000E+00 0.  1.
          1   -1    0    0  501    0  0.00000000000E+00 -0.00000000000E+00 -0.99356117110E+03  0.99356117110E+03  0.00000000000E+00 0. -1.
         25    2    1    2    0    0 -0.11855067476E+03 -0.29682616648E+03 -0.16536885417E+03  0.38099040498E+03  0.12508715028E+03 0.  0.
         23    2    1    2    0    0  0.11855067476E+03  0.29682616648E+03 -0.68207746630E+03  0.75868561675E+03  0.90632000035E+02 0.  0.
          5    1    3    3  502    0 -0.92122787988E+02 -0.11695507868E+03 -0.24453002650E+02  0.15093217097E+03  0.41800000000E+01 0. -1.
         -5    1    3    3    0  502 -0.26427886772E+02 -0.17987108780E+03 -0.14091585152E+03  0.23005823401E+03  0.41800000000E+01 0. -1.
        -11    1    4    4    0    0  0.12468839398E+03  0.24344446845E+03 -0.51423478254E+03  0.58245155711E+03  0.00000000000E+00 0.  1.
         11    1    4    4    0    0 -0.61377192215E+01  0.53381698026E+02 -0.16784268377E+03  0.17623405963E+03  0.00000000000E+00 0. -1.
</event>
<event>
 8    1  0.6380238E-009  0.2203670E+03  0.7561462E-02  0.1133610E+00
          2   -1    0    0  501    0  0.00000000000E+00  0.00000000000E+00  0.44330454901E+03  0.44330454901E+03  0.00000000000E+00 0. -1.
         -2   -1    0    0    0  501 -0.00000000000E+00 -0.00000000000E+00 -0.11817184167E+03  0.11817184167E+03  0.00000000000E+00 0.  1.
         25    2    1    2    0    0 -0.18444787269E+03 -0.65971616299E+02  0.11227047946E+03  0.25811950438E+03  0.12509095125E+03 0.  0.
         23    2    1    2    0    0  0.18444787269E+03  0.65971616299E+02  0.21286222789E+03  0.30335688630E+03  0.91333457778E+02 0.  0.
          5    1    3    3  502    0 -0.16714216957E+03 -0.54704310233E+01  0.96458017159E+02  0.19310114432E+03  0.41800000000E+01 0.  1.
         -5    1    3    3    0  502 -0.17305703121E+02 -0.60501185276E+02  0.15812462297E+02  0.65018360055E+02  0.41800000000E+01 0.  1.
        -11    1    4    4    0    0  0.82185953088E+02 -0.10275013033E+02  0.50980413769E+02  0.97257952712E+02  0.00000000000E+00 0.  1.
         11    1    4    4    0    0  0.10226191960E+03  0.76246629332E+02  0.16188181412E+03  0.20609893359E+03  0.00000000000E+00 0. -1.
</event>
<event>
 8    1  0.6380238E-009  0.1085745E+03  0.7561462E-02  0.1263233E+00
          2   -1    0    0  501    0  0.00000000000E+00  0.00000000000E+00  0.49567403390E+03  0.49567403390E+03  0.00000000000E+00 0. -1.
         -2   -1    0    0    0  501 -0.00000000000E+00 -0.00000000000E+00 -0.28479721716E+02  0.28479721716E+02  0.00000000000E+00 0.  1.
         25    2    1    2    0    0 -0.21063736979E+02  0.10797046931E+02  0.35428478288E+03  0.37646489298E+03  0.12509137073E+03 0.  0.
         23    2    1    2    0    0  0.21063736979E+02 -0.10797046931E+02  0.11290952930E+03  0.14768886263E+03  0.92212694897E+02 0.  0.
          5    1    3    3  502    0  0.51769296584E+02  0.53632948645E+01  0.11614212989E+03  0.12733927806E+03  0.41800000000E+01 0. -1.
         -5    1    3    3    0  502 -0.72833033563E+02  0.54337520663E+01  0.23814265298E+03  0.24912561492E+03  0.41800000000E+01 0. -1.
        -11    1    4    4    0    0  0.31854923371E+02 -0.45440988321E+02  0.48218796584E+02  0.73516473709E+02  0.00000000000E+00 0.  1.
         11    1    4    4    0    0 -0.10791186392E+02  0.34643941390E+02  0.64690732719E+02  0.74172388923E+02  0.00000000000E+00 0. -1.
</event>
<event>
 8    1  0.6380238E-009  0.1158298E+03  0.7561462E-02  0.1250139E+00
          1   -1    0    0  501    0  0.00000000000E+00  0.00000000000E+00  0.28761898591E+02  0.28761898591E+02  0.00000000000E+00 0. -1.
         -1   -1    0    0    0  501 -0.00000000000E+00 -0.00000000000E+00 -0.77551747985E+03  0.77551747985E+03  0.00000000000E+00 0.  1.
         25    2    1    2    0    0  0.97249076558E+02  0.31079930322E+02 -0.37675457476E+03  0.40989630927E+03  0.12509048641E+03 0.  0.
         23    2    1    2    0    0 -0.97249076558E+02 -0.31079930322E+02 -0.37000100650E+03  0.39438306917E+03  0.90630654189E+02 0.  0.
          5    1    3    3  502    0  0.10834566823E+03  0.24669706982E+02 -0.38008037593E+03  0.39601255389E+03  0.41800000000E+01 0.  1.
         -5    1    3    3    0  502 -0.11096591677E+02  0.64102233400E+01  0.33258011703E+01  0.13883755383E+02  0.41800000000E+01 0.  1.
        -11    1    4    4    0    0 -0.18548547222E+02 -0.20381865554E+02 -0.16610628872E+02  0.32177352891E+02  0.00000000000E+00 0. -1.
         11    1    4    4    0    0 -0.78700529336E+02 -0.10698064767E+02 -0.35339037762E+03  0.36220571628E+03  0.00000000000E+00 0.  1.
</event>
<event>
 8    1  0.6380238E-009  0.5779498E+02  0.7561462E-02  0.1407325E+00
         -3   -1    0    0    0  501 -0.00000000000E+00  0.00000000000E+00  0.22428343351E+03  0.22428343351E+03  0.00000000000E+00 0.  1.
          3   -1    0    0  501    0  0.00000000000E+00 -0.00000000000E+00 -0.58972294993E+02  0.58972294993E+02  0.00000000000E+00 0. -1.
         25    2    1    2    0    0  0.16988472325E+02 -0.18289861677E+02  0.58778721897E+02  0.14044772819E+03  0.12508996352E+03 0.  0.
         23    2    1    2    0    0 -0.16988472325E+02  0.18289861677E+02  0.10653241662E+03  0.14280800031E+03  0.91770594037E+02 0.  0.
          5    1    3    3  502    0  0.83740348433E+01  0.13171085571E+02  0.92173466915E+02  0.93578963223E+02  0.41800000000E+01 0. -1.
         -5    1    3    3    0  502  0.86144374815E+01 -0.31460947248E+02 -0.33394745019E+02  0.46868764969E+02  0.41800000000E+01 0. -1.
        -11    1    4    4    0    0 -0.95621765487E+01 -0.22835080281E+02 -0.35969568905E+01  0.25016278913E+02  0.00000000000E+00 0. -1.
         11    1    4    4    0    0 -0.74262957761E+01  0.41124941958E+02  0.11012937351E+03  0.11779172140E+03  0.00000000000E+00 0.  1.
</event>
<event>
 8    1  0.6380238E-009  0.1747097E+03  0.7561462E-02  0.1173024E+00
          2   -1    0    0  501    0  0.00000000000E+00  0.00000000000E+00  0.23102935072E+03  0.23102935072E+03  0.00000000000E+00 0. -1.
         -2   -1    0    0    0  501 -0.00000000000E+00 -0.00000000000E+00 -0.16361771829E+03  0.16361771829E+03  0.00000000000E+00 0.  1.
         25    2    1    2    0    0  0.54130557269E+02 -0.14143139993E+03  0.85085968052E+02  0.21405705636E+03  0.12509133982E+03 0.  0.
         23    2    1    2    0    0 -0.54130557269E+02  0.14143139993E+03 -0.17674335624E+02  0.18059001265E+03  0.96785393581E+02 0.  0.
          5    1    3    3  502    0 -0.28611403789E+02 -0.99374271116E+02  0.46070538147E+02  0.11328647347E+03  0.41800000000E+01 0.  1.
         -5    1    3    3    0  502  0.82741961058E+02 -0.42057128819E+02  0.39015429905E+02  0.10077058288E+03  0.41800000000E+01 0.  1.
        -11    1    4    4    0    0 -0.20435167274E+02  0.83781014199E+02  0.37433815937E+02  0.94011408762E+02  0.00000000000E+00 0.  1.
         11    1    4    4    0    0 -0.33695389995E+02  0.57650385735E+02 -0.55108151561E+02  0.86578603886E+02  0.00000000000E+00 0. -1.
</event>
<event>
 8    1  0.6380238E-009  0.1782784E+03  0.7561462E-02  0.1169480E+00
         -1   -1    0    0    0  501 -0.00000000000E+00  0.00000000000E+00  0.24870800983E+03  0.24870800983E+03  0.00000000000E+00 0.  1.
          1   -1    0    0  501    0  0.00000000000E+00 -0.00000000000E+00 -0.14349227015E+03  0.14349227015E+03  0.00000000000E+00 0. -1.
         25    2    1    2    0    0  0.14930126113E+03  0.36880235743E+02  0.44745660117E+02  0.20322491178E+03  0.12508865778E+03 0.  0.
         23    2    1    2    0    0 -0.14930126113E+03 -0.36880235743E+02  0.60470079560E+02  0.18897536820E+03  0.91673556171E+02 0.  0.
          5    1    3    3  502    0  0.10879132469E+03 -0.18537302201E+02  0.69091958903E+02  0.13027031544E+03  0.41800000000E+01 0.  1.
         -5    1    3    3    0  502  0.40509936449E+02  0.55417537944E+02 -0.24346298786E+02  0.72954596342E+02  0.41800000000E+01 0.  1.
        -11    1    4    4    0    0 -0.48049660013E+02  0.29399163083E+02  0.31503243097E+02  0.64540955548E+02  0.00000000000E+00 0.  1.
         11    1    4    4    0    0 -0.10125160112E+03 -0.66279398827E+02  0.28966836464E+02  0.12443441266E+03  0.00000000000E+00 0. -1.
</event>
<event>
 8    1  0.6380238E-009  0.1117031E+03  0.7561462E-02  0.1257448E+00
          4   -1    0    0  501    0  0.00000000000E+00  0.00000000000E+00  0.44489892329E+03  0.44489892329E+03  0.00000000000E+00 0.  1.
         -4   -1    0    0    0  501 -0.00000000000E+00 -0.00000000000E+00 -0.40025757442E+02  0.40025757442E+02  0.00000000000E+00 0. -1.
         25    2    1    2    0    0 -0.18995685569E+02  0.73813907261E+02  0.24346594136E+03  0.28413252161E+03  0.12508515603E+03 0.  0.
         23    2    1    2    0    0  0.18995685569E+02 -0.73813907261E+02  0.16140722450E+03  0.20079215913E+03  0.91955805001E+02 0.  0.
          5    1    3    3  502    0  0.31279749371E+02  0.28122162700E+02  0.13604450201E+02  0.44405317485E+02  0.41800000000E+01 0. -1.
         -5    1    3    3    0  502 -0.50275434940E+02  0.45691744561E+02  0.22986149115E+03  0.23972720412E+03  0.41800000000E+01 0. -1.
        -11    1    4    4    0    0  0.38000445399E+02 -0.83500150103E+02  0.99621901037E+02  0.13542832822E+03  0.00000000000E+00 0. -1.
         11    1    4    4    0    0 -0.19004759831E+02  0.96862428414E+01  0.61785323460E+02  0.65363830913E+02  0.00000000000E+00 0.  1.
</event>
<event>
 8    1  0.6380238E-009  0.1491559E+03  0.7561462E-02  0.1201514E+00
          1   -1    0    0  501    0  0.00000000000E+00  0.00000000000E+00  0.28836488387E+03  0.28836488387E+03  0.00000000000E+00 0. -1.
         -1   -1    0    0    0  501 -0.00000000000E+00 -0.00000000000E+00 -0.86921993190E+02  0.86921993190E+02  0.00000000000E+00 0.  1.
         25    2    1    2    0    0  0.88429488797E+02  0.64609300927E+02  0.79146233915E+02  0.18413843248E+03  0.12509476296E+03 0.  0.
         23    2    1    2    0    0 -0.88429488797E+02 -0.64609300927E+02  0.12229665676E+03  0.19114844457E+03  0.97913836367E+02 0.  0.
          5    1    3    3  502    0  0.10994855888E+03  0.67821263245E+02  0.33689151484E+02  0.13356960985E+03  0.41800000000E+01 0. -1.
         -5    1    3    3    0  502 -0.21519070085E+02 -0.32119623183E+01  0.45457082431E+02  0.50568822632E+02  0.41800000000E+01 0. -1.
        -11    1    4    4    0    0 -0.67987826303E+02  0.10741204387E+02  0.57065149764E+02  0.89410006793E+02  0.00000000000E+00 0.  1.
         11    1    4    4    0    0 -0.20441662494E+02 -0.75350505314E+02  0.65231506996E+02  0.10173843778E+03  0.00000000000E+00 0. -1.
</event>
<event>
 8    1  0.6380238E-009  0.2909169E+03  0.7561462E-02  0.1089871E+00
          4   -1    0    0  501    0  0.00000000000E+00  0.00000000000E+00  0.19143882983E+03  0.19143882983E+03  0.00000000000E+00 0. -1.
         -4   -1    0    0    0  501 -0.00000000000E+00 -0.00000000000E+00 -0.51056687470E+03  0.51056687470E+03  0.00000000000E+00 0.  1.
         25    2    1    2    0    0 -0.27751461629E+03  0.34778893388E+00 -0.57517011897E+02  0.30978582784E+03  0.12507825256E+03 0.  0.
         23    2    1    2    0    0  0.27751461629E+03 -0.34778893388E+00 -0.26161103297E+03  0.39221987669E+03  0.91551165399E+02 0.  0.
          5    1    3    3  502    0 -0.24258310224E+03  0.45276844421E+02 -0.53783039410E+02  0.25259976616E+03  0.41800000000E+01 0.  1.
         -5    1    3    3    0  502 -0.34931514049E+02 -0.44929055487E+02 -0.37339724872E+01  0.57186061687E+02  0.41800000000E+01 0.  1.
        -11    1    4    4    0    0  0.22775475498E+03  0.57679459931E+01 -0.25450905570E+03  0.34158506562E+03  0.00000000000E+00 0.  1.
         11    1    4    4    0    0  0.49759861311E+02 -0.61157349269E+01 -0.71019772683E+01  0.50634811074E+02  0.00000000000E+00 0. -1.
</event>
<event>
 8    1  0.6380238E-009  0.7231897E+02  0.7561462E-02  0.1352380E+00
          2   -1    0    0  501    0  0.00000000000E+00  0.00000000000E+00  0.41463685049E+03  0.41463685049E+03  0.00000000000E+00 0. -1.
         -2   -1    0    0    0  501 -0.00000000000E+00 -0.00000000000E+00 -0.31846696245E+02  0.31846696245E+02  0.00000000000E+00 0.  1.
         25    2    1    2    0    0  0.10133675731E+02 -0.22339312860E+02  0.27086484394E+03  0.29936098906E+03  0.12508997484E+03 0.  0.
         23    2    1    2    0    0 -0.10133675731E+02  0.22339312860E+02  0.11192531030E+03  0.14712255767E+03  0.92282368883E+02 0.  0.
          5    1    3    3  502    0  0.12844819989E+02 -0.43190793919E+02  0.27398461575E+03  0.27769673413E+03  0.41800000000E+01 0.  1.
         -5    1    3    3    0  502 -0.27111442586E+01  0.20851481059E+02 -0.31197718086E+01  0.21664254930E+02  0.41800000000E+01 0.  1.
        -11    1    4    4    0    0  0.13224579357E+02  0.44088771876E+02  0.20689786277E+02  0.50465597796E+02  0.00000000000E+00 0.  1.
         11    1    4    4    0    0 -0.23358255087E+02 -0.21749459016E+02  0.91235524024E+02  0.96656959874E+02  0.00000000000E+00 0. -1.
</event>
<event>
 8    1  0.6380238E-009  0.1437946E+03  0.7561462E-02  0.1208312E+00
          3   -1    0    0  501    0  0.00000000000E+00  0.00000000000E+00  0.22634589942E+03  0.22634589942E+03  0.00000000000E+00 0. -1.
         -3   -1    0    0    0  501 -0.00000000000E+00 -0.00000000000E+00 -0.13204944579E+03  0.13204944579E+03  0.00000000000E+00 0.  1.
         25    2    1    2    0    0 -0.53368372251E+02 -0.93718079910E+02  0.12688806941E+03  0.20827183804E+03  0.12508123241E+03 0.  0.
         23    2    1    2    0    0  0.53368372251E+02  0.93718079910E+02 -0.32591615784E+02  0.15012350718E+03  0.99214879576E+02 0.  0.
          5    1    3    3  502    0 -0.82344701118E+02 -0.46914623746E+02  0.35076246344E+02  0.10114072959E+03  0.41800000000E+01 0. -1.
         -5    1    3    3    0  502  0.28976328867E+02 -0.46803456164E+02  0.91811823064E+02  0.10713110845E+03  0.41800000000E+01 0. -1.
        -11    1    4    4    0    0  0.71299951083E+01  0.90917695505E+02 -0.45664982936E+02  0.10199095476E+03  0.00000000000E+00 0.  1.
         11    1    4    4    0    0  0.46238377143E+02  0.28003844048E+01  0.13073367153E+02  0.48132552418E+02  0.00000000000E+00 0. -1.
</event>
<event>
 8    1  0.6380238E-009  0.1550934E+03  0.7561462E-02  0.1194350E+00
         -1   -1    0    0    0  501 -0.00000000000E+00  0.00000000000E+00  0.29434021938E+02  0.29434021938E+02  0.00000000000E+00 0.  1.
          1   -1    0    0  501    0  0.00000000000E+00 -0.00000000000E+00 -0.84189978306E+03  0.84189978306E+03  0.00000000000E+00 0. -1.
         25    2    1    2    0    0  0.95155120998E+02 -0.60016730322E+02 -0.50392997217E+03  0.53127537986E+03  0.12510638445E+03 0.  0.
         23    2    1    2    0    0 -0.95155120998E+02  0.60016730322E+02 -0.30853578896E+03  0.34005842514E+03  0.88254713578E+02 0.  0.
          5    1    3    3  502    0  0.51060451948E+02  0.35675811215E+02 -0.17055466458E+03  0.18162130731E+03  0.41800000000E+01 0.  1.
         -5    1    3    3    0  502  0.44094669050E+02 -0.95692541537E+02 -0.33337530759E+03  0.34965407255E+03  0.41800000000E+01 0.  1.
        -11    1    4    4    0    0 -0.86657735111E+02  0.51713886673E+01 -0.17177995709E+03  0.19246989368E+03  0.00000000000E+00 0.  1.
         11    1    4    4    0    0 -0.84973858869E+01  0.54845341654E+02 -0.13675583186E+03  0.14758853145E+03  0.00000000000E+00 0. -1.
</event>
<event>
 7    1  0.6380238E-009  0.1387261E+03  0.7561462E-02  0.1215053E+00
          2   -1    0    0  501    0  0.00000000000E+00  0.00000000000E+00  0.82238797777E+02  0.82238797777E+02  0.00000000000E+00 0.  1.
         -2   -1    0    0    0  501 -0.00000000000E+00 -0.00000000000E+00 -0.30408115808E+03  0.30408115808E+03  0.00000000000E+00 0. -1.
         23    2    1    2    0    0  0.79220916396E+02  0.81806210304E+02 -0.84235960315E+02  0.16830998676E+03  0.90908442914E+02 0.  0.
          5    1    1    2  502    0 -0.61646269831E+02 -0.11146491653E+03 -0.79169825422E+02  0.15003340914E+03  0.41800000000E+01 0. -1.
         -5    1    1    2    0  502 -0.17574646566E+02  0.29658706225E+02 -0.58436574562E+02  0.67976559955E+02  0.41800000000E+01 0. -1.
        -11    1    3    3    0    0  0.73319271670E+01  0.16914110003E+02  0.19197055284E+02  0.26615243842E+02  0.00000000000E+00 0.  1.
         11    1    3    3    0    0  0.71888989229E+02  0.64892100301E+02 -0.10343301560E+03  0.14169474292E+03  0.00000000000E+00 0. -1.
</event>
<event>
 8    1  0.6380238E-009  0.8678444E+02  0.7561462E-02  0.1310831E+00
          1   -1    0    0  501    0  0.00000000000E+00  0.00000000000E+00  0.34540505351E+03  0.34540505351E+03  0.00000000000E+00 0. -1.
         -1   -1    0    0    0  501 -0.00000000000E+00 -0.00000000000E+00 -0.50294544902E+02  0.50294544902E+02  0.00000000000E+00 0.  1.
         25    2    1    2    0    0 -0.90937222586E+01  0.51366740820E+02  0.22411414265E+03  0.26191304018E+03  0.12510017518E+03 0.  0.
         23    2    1    2    0    0  0.90937222586E+01 -0.51366740820E+02  0.70996365953E+02  0.13378655823E+03  0.10068327239E+03 0.  0.
          5    1    3    3  502    0  0.73508759296E+01  0.38469236915E+02  0.23479340515E+03  0.23807421756E+03  0.41800000000E+01 0.  1.
         -5    1    3    3    0  502 -0.16444598188E+02  0.12897503905E+02 -0.10679262491E+02  0.23838822620E+02  0.41800000000E+01 0.  1.
        -11    1    4    4    0    0 -0.21902855012E+02  0.23327071482E+02  0.26079839298E+02  0.41280084053E+02  0.00000000000E+00 0. -1.
         11    1    4    4    0    0  0.30996577271E+02 -0.74693812302E+02  0.44916526655E+02  0.92506474181E+02  0.00000000000E+00 0.  1.
</event>
<event>
 8    1  0.6380238E-009  0.5829904E+02  0.7561462E-02  0.1405112E+00
         -1   -1    0    0    0  501 -0.00000000000E+00  0.00000000000E+00  0.55731617574E+02  0.55731617574E+02  0.00000000000E+00 0.  1.
          1   -1    0    0  501    0  0.00000000000E+00 -0.00000000000E+00 -0.21884914970E+03  0.21884914970E+03  0.00000000000E+00 0. -1.
         25    2    1    2    0    0 -0.35886757651E+01  0.19624476603E+01 -0.72925100628E+02  0.14484822154E+03  0.12508479999E+03 0.  0.
         23    2    1    2    0    0  0.35886757651E+01 -0.19624476603E+01 -0.90192431496E+02  0.12973254573E+03  0.93161842661E+02 0.  0.
          5    1    3    3  502    0 -0.36018996886E+02  0.16863955488E+02 -0.94723670595E+02  0.10281929441E+03  0.41800000000E+01 0.  1.
         -5    1    3    3    0  502  0.32430321121E+02 -0.14901507828E+02  0.21798569967E+02  0.42028927135E+02  0.41800000000E+01 0.  1.
        -11    1    4    4    0    0  0.59587157875E+01  0.18828069969E+02  0.13518143953E+02  0.23932043969E+02  0.00000000000E+00 0.  1.
         11    1    4    4    0    0 -0.23700400224E+01 -0.20790517629E+02 -0.10371057545E+03  0.10580050176E+03  0.00000000000E+00 0. -1.
</event>
<event>
 8    1  0.6380238E-009  0.1332925E+03  0.7561462E-02  0.1222650E+00
         -1   -1    0    0    0  501 -0.00000000000E+00  0.00000000000E+00  0.43241508833E+02  0.43241508833E+02  0.00000000000E+00 0.  1.
          1   -1    0    0  501    0  0.00000000000E+00 -0.00000000000E+00 -0.61580725026E+03  0.61580725026E+03  0.00000000000E+00 0. -1.
         25    2    1    2    0    0  0.98419638893E+02 -0.60780041807E+02 -0.22980650328E+03  0.28607560846E+03  0.12509031140E+03 0.  0.
         23    2    1    2    0    0 -0.98419638893E+02  0.60780041807E+02 -0.34275923814E+03  0.37297315063E+03  0.90798881898E+02 0.  0.
          5    1    3    3  502    0  0.76512922332E+02 -0.61878448429E+02 -0.61114304125E+02  0.11591203662E+03  0.41800000000E+01 0.  1.
         -5    1    3    3    0  502  0.21906716562E+02  0.10984066222E+01 -0.16869219916E+03  0.17016357185E+03  0.41800000000E+01 0.  1.
        -11    1    4    4    0    0 -0.93597634853E+02  0.92996478132E+01 -0.19669835029E+03  0.21803036877E+03  0.00000000000E+00 0.  1.
         11    1    4    4    0    0 -0.48220040399E+01  0.51480393993E+02 -0.14606088786E+03  0.15494278186E+03  0.00000000000E+00 0. -1.
</event>
<event>
 8    1  0.6380238E-009  0.1227898E+03  0.7561462E-02  0.1238564E+00
         -1   -1    0    0    0  501 -0.00000000000E+00  0.00000000000E+00  0.47149015059E+02  0.47149015059E+02  0.00000000000E+00 0.  1.
          1   -1    0    0  501    0  0.00000000000E+00 -0.00000000000E+00 -0.64276873712E+03  0.64276873712E+03  0.00000000000E+00 0. -1.
         25    2    1    2    0    0  0.67797387098E+02 -0.30903894602E+02 -0.54858410303E+03  0.56756469729E+03  0.12503451968E+03 0.  0.
         23    2    1    2    0    0 -0.67797387098E+02  0.30903894602E+02 -0.47035619030E+02  0.12235305489E+03  0.84890424575E+02 0.  0.
          5    1    3    3  502    0  0.84347078513E+02  0.20626886645E+02 -0.40096921423E+03  0.41028487818E+03  0.41800000000E+01 0.  1.
         -5    1    3    3    0  502 -0.16549691415E+02 -0.51530781247E+02 -0.14761488880E+03  0.15727981911E+03  0.41800000000E+01 0.  1.
        -11    1    4    4    0    0  0.25720284261E+01  0.33834067030E+02 -0.38640331001E+02  0.51424066368E+02  0.00000000000E+00 0. -1.
         11    1    4    4    0    0 -0.70369415524E+02 -0.29301724277E+01 -0.83952880292E+01  0.70928988522E+02  0.00000000000E+00 0.  1.
</event>
<event>
 8    1  0.6380238E-009  0.9628467E+02  0.7561462E-02  0.1288309E+00
          2   -1    0    0  501    0  0.00000000000E+00  0.00000000000E+00  0.18591890418E+03  0.18591890418E+03  0.00000000000E+00 0. -1.
         -2   -1    0    0    0  501 -0.00000000000E+00 -0.00000000000E+00 -0.83742974030E+02  0.83742974030E+02  0.00000000000E+00 0.  1.
         25    2    1    2    0    0  0.20713420500E+02 -0.32287113351E+02  0.11405729389E+03  0.17357537153E+03  0.12509132598E+03 0.  0.
         23    2    1    2    0    0 -0.20713420500E+02  0.32287113351E+02 -0.11881363736E+02  0.96086506684E+02  0.87292304845E+02 0.  0.
          5    1    3    3  502    0  0.47064685989E+02 -0.61078021202E+02  0.33922811215E+02  0.84343576293E+02  0.41800000000E+01 0. -1.
         -5    1    3    3    0  502 -0.26351265489E+02  0.28790907850E+02  0.80134482676E+02  0.89231795238E+02  0.41800000000E+01 0. -1.
        -11    1    4    4    0    0 -0.10970420574E+01  0.49792235964E+02 -0.35164755470E+02  0.60967452717E+02  0.00000000000E+00 0.  1.
         11    1    4    4    0    0 -0.19616378442E+02 -0.17505122613E+02  0.23283391734E+02  0.35119053966E+02  0.00000000000E+00 0. -1.
</event>
<event>
 8    1  0.6380238E-009  0.1033043E+03  0.7561462E-02  0.1273497E+00
         -2   -1    0    0    0  501 -0.00000000000E+00  0.00000000000E+00  0.21089827690E+02  0.21089827690E+02  0.00000000000E+00 0.  1.
          2   -1    0    0  501    0  0.00000000000E+00 -0.00000000000E+00 -0.85275373810E+03  0.85275373810E+03  0.00000000000E+00 0. -1.
         25    2    1    2    0    0 -0.66722017252E+02  0.38244678719E+02 -0.50407546489E+03  0.52502784998E+03  0.12509071075E+03 0.  0.
         23    2    1    2    0    0  0.66722017252E+02 -0.38244678719E+02 -0.32758844552E+03  0.34881571581E+03  0.91889775924E+02 0.  0.
          5    1    3    3  502    0 -0.37701267186E+02 -0.16876638802E+02 -0.41014272610E+03  0.41223868651E+03  0.41800000000E+01 0. -1.
         -5    1    3    3    0  502 -0.29020750066E+02  0.55121317521E+02 -0.93932738786E+02  0.11278916347E+03  0.41800000000E+01 0. -1.
        -11    1    4    4    0    0  0.28545822998E+02  0.18681204248E+02 -0.37314049418E+02  0.50558774578E+02  0.00000000000E+00 0.  1.
         11    1    4    4    0    0  0.38176194255E+02 -0.56925882967E+02 -0.29027439610E+03  0.29825694123E+03  0.00000000000E+00 0. -1.
</event>
<event>
 8    1  0.6380238E-009  0.1970400E+03  0.7561462E-02  0.1152261E+00
         -2   -1    0    0    0  501 -0.00000000000E+00  0.00000000000E+00  0.62286431644E+02  0.62286431644E+02  0.00000000000E+00 0.  1.
          2   -1    0    0  501    0  0.00000000000E+00 -0.00000000000E+00 -0.81636926497E+03  0.81636926497E+03  0.00000000000E+00 0. -1.
         25    2    1    2    0    0 -0.60207325024E+02  0.16730428240E+03 -0.55721244409E+03  0.59812018862E+03  0.12508559984E+03 0.  0.
         23    2    1    2    0    0  0.60207325024E+02 -0.16730428240E+03 -0.19687038923E+03  0.28053550800E+03  0.91250075036E+02 0.  0.
          5    1    3    3  502    0  0.18415830350E+02 -0.10646529430E+02 -0.39712585366E+02  0.45244372388E+02  0.41800000000E+01 0.  1.
         -5    1    3    3    0  502 -0.78623155374E+02  0.17795081183E+03 -0.51749985873E+03  0.55287581623E+03  0.41800000000E+01 0.  1.
        -11    1    4    4    0    0  0.48071314903E+02 -0.13240762868E+03 -0.89269919716E+02  0.16676855223E+03  0.00000000000E+00 0.  1.
         11    1    4    4    0    0  0.12136010121E+02 -0.34896653720E+02 -0.10760046952E+03  0.11376695576E+03  0.00000000000E+00 0. -1.
</event>
<event>
 8    1  0.6380238E-009  0.1225756E+03  0.7561462E-02  0.1238908E+00
          3   -1    0    0  501    0  0.00000000000E+00  0.00000000000E+00  0.21006710245E+03  0.21006710245E+03  0.00000000000E+00 0. -1.
         -3   -1    0    0    0  501 -0.00000000000E+00 -0.00000000000E+00 -0.12206630938E+03  0.12206630938E+03  0.00000000000E+00 0.  1.
         25    2    1    2    0    0 -0.84432893207E+02  0.56922096780E+02 -0.12576511812E+02  0.16178545336E+03  0.12508927097E+03 0.  0.
         23    2    1    2    0    0  0.84432893207E+02 -0.56922096780E+02  0.10057730488E+03  0.17034795847E+03  0.92377454718E+02 0.  0.
          5    1    3    3  502    0 -0.49215709563E+02  0.57762457203E+02 -0.63968840311E+02  0.99338675553E+02  0.41800000000E+01 0.  1.
         -5    1    3    3    0  502 -0.35217183644E+02 -0.84036042300E+00  0.51392328499E+02  0.62446777803E+02  0.41800000000E+01 0.  1.
        -11    1    4    4    0    0  0.16089531821E+02  0.23283228670E+02  0.39371008649E+02  0.48487710748E+02  0.00000000000E+00 0.  1.
         11    1    4    4    0    0  0.68343361385E+02 -0.80205325451E+02  0.61206296234E+02  0.12186024772E+03  0.00000000000E+00 0. -1.
</event>
<event>
 8    1  0.6380238E-009  0.1118814E+03  0.7561462E-02  0.1257125E+00
          3   -1    0    0  501    0  0.00000000000E+00  0.00000000000E+00  0.41789406682E+02  0.41789406682E+02  0.00000000000E+00 0. -1.
         -3   -1    0    0    0  501 -0.00000000000E+00 -0.00000000000E+00 -0.43051281754E+03  0.43051281754E+03  0.00000000000E+00 0.  1.
         25    2    1    2    0    0  0.24885760872E+02 -0.22569195727E+02 -0.88048980757E+02  0.15662163301E+03  0.12509613592E+03 0.  0.
         23    2    1    2    0    0 -0.24885760872E+02  0.22569195727E+02 -0.30067443010E+03  0.31568059121E+03  0.90113556490E+02 0.  0.
          5    1    3    3  502    0 -0.83074551158E+01  0.49259978178E+02 -0.37940584890E+02  0.62869067453E+02  0.41800000000E+01 0.  1.
         -5    1    3    3    0  502  0.33193215988E+02 -0.71829173905E+02 -0.50108395867E+02  0.93752565553E+02  0.41800000000E+01 0.  1.
        -11    1    4    4    0    0 -0.50368063325E+02  0.39321024859E+02 -0.17325972073E+03  0.18466731066E+03  0.00000000000E+00 0. -1.
         11    1    4    4    0    0  0.25482302453E+02 -0.16751829132E+02 -0.12741470937E+03  0.13101328055E+03  0.00000000000E+00 0.  1.
</event>
<event>
 8    1  0.6380238E-009  0.1097287E+03  0.7561462E-02  0.1261073E+00
         -2   -1    0    0    0  501 -0.00000000000E+00  0.00000000000E+00  0.72150821988E+03  0.72150821988E+03  0.00000000000E+00 0. -1.
          2   -1    0    0  501    0  0.00000000000E+00 -0.00000000000E+00 -0.24269874401E+02  0.24269874401E+02  0.00000000000E+00 0.  1.
         25    2    1    2    0    0  0.58818431013E+00  0.73084863433E+02  0.40138350525E+03  0.42672914817E+03  0.12508918573E+03 0.  0.
         23    2    1    2    0    0 -0.58818431013E+00 -0.73084863433E+02  0.29585484023E+03  0.31904894611E+03  0.94447870836E+02 0.  0.
          5    1    3    3  502    0  0.77582894973E+01 -0.12046164859E+02 -0.13744606199E+01  0.14988751974E+02  0.41800000000E+01 0.  1.
         -5    1    3    3    0  502 -0.71701051871E+01  0.85131028293E+02  0.40275796587E+03  0.41174039619E+03  0.41800000000E+01 0.  1.
        -11    1    4    4    0    0 -0.47183846056E+02 -0.33645012382E+02  0.15758018909E+03  0.16789823757E+03  0.00000000000E+00 0. -1.
         11    1    4    4    0    0  0.46595661746E+02 -0.39439851051E+02  0.13827465114E+03  0.15115070854E+03  0.00000000000E+00 0.  1.
</event>
<event>
 8    1  0.6380238E-009  0.7720854E+02  0.7561462E-02  0.1337165E+00
          3   -1    0    0  501    0  0.00000000000E+00  0.00000000000E+00  0.72349231891E+02  0.72349231891E+02  0.00000000000E+00 0. -1.
         -3   -1    0    0    0  501 -0.00000000000E+00 -0.00000000000E+00 -0.39532493297E+03  0.39532493297E+03  0.00000000000E+00 0.  1.
         25    2    1    2    0    0 -0.25506399362E+02 -0.28080542539E+02 -0.34089304423E+03  0.36509590117E+03  0.12509139127E+03 0.  0.
         23    2    1    2    0    0  0.25506399362E+02  0.28080542539E+02  0.17917343152E+02  0.10257826369E+03  0.93606493997E+02 0.  0.
          5    1    3    3  502    0 -0.25040653982E+02  0.26364551216E+01 -0.33180852484E+03  0.33278875402E+03  0.41800000000E+01 0.  1.
         -5    1    3    3    0  502 -0.46574538068E+00 -0.30716997660E+02 -0.90845193843E+01  0.32307147142E+02  0.41800000000E+01 0.  1.
        -11    1    4    4    0    0  0.27591431884E+02 -0.29430169397E+02  0.19927342583E+02  0.44994677091E+02  0.00000000000E+00 0. -1.
         11    1    4    4    0    0 -0.20850325213E+01  0.57510711935E+02 -0.20099994310E+01  0.57583586599E+02  0.00000000000E+00 0.  1.
</event>
<event>
 8    1  0.6380238E-009  0.5667881E+02  0.7561462E-02  0.1412322E+00
         -4   -1    0    0    0  501 -0.00000000000E+00  0.00000000000E+00  0.10705961566E+03  0.10705961566E+03  0.00000000000E+00 0.  1.
          4   -1    0    0  501    0  0.00000000000E+00 -0.00000000000E+00 -0.11952588363E+03  0.11952588363E+03  0.00000000000E+00 0. -1.
         25    2    1    2    0    0  0.26935785853E+02 -0.19334550733E+02 -0.98986912041E+01  0.12978665869E+03  0.12508889349E+03 0.  0.
         23    2    1    2    0    0 -0.26935785853E+02  0.19334550733E+02 -0.25675767657E+01  0.96798840600E+02  0.90906884665E+02 0.  0.
          5    1    3    3  502    0  0.23791445347E+02 -0.35604733193E+02 -0.61710535581E+02  0.75228933922E+02  0.41800000000E+01 0. -1.
         -5    1    3    3    0  502  0.31443405058E+01  0.16270182460E+02  0.51811844377E+02  0.54557724771E+02  0.41800000000E+01 0. -1.
        -11    1    4    4    0    0 -0.18814574290E+02 -0.11030349710E+02  0.39000663138E+02  0.44684544818E+02  0.00000000000E+00 0.  1.
         11    1    4    4    0    0 -0.81212115631E+01  0.30364900443E+02 -0.41568239903E+02  0.52114295782E+02  0.00000000000E+00 0. -1.
</event>
<event>
 8    1  0.6380238E-009  0.9510678E+02  0.7561462E-02  0.1290936E+00
          2   -1    0    0  501    0  0.00000000000E+00  0.00000000000E+00  0.37888424946E+03  0.37888424946E+03  0.00000000000E+00 0. -1.
         -2   -1    0    0    0  501 -0.00000000000E+00 -0.00000000000E+00 -0.40545171352E+02  0.40545171352E+02  0.00000000000E+00 0.  1.
         25    2    1    2    0    0 -0.38209336437E-01  0.58269486738E+02  0.18234254619E+03  0.22867096100E+03  0.12508504989E+03 0.  0.
         23    2    1    2    0    0  0.38209336437E-01 -0.58269486738E+02  0.15599653192E+03  0.19075845982E+03  0.93051262631E+02 0.  0.
          5    1    3    3  502    0  0.29784535282E+01  0.85995615574E+02  0.64817112721E+02  0.10780931122E+03  0.41800000000E+01 0. -1.
         -5    1    3    3    0  502 -0.30166628646E+01 -0.27726128836E+02  0.11752543347E+03  0.12086164978E+03  0.41800000000E+01 0. -1.
        -11    1    4    4    0    0 -0.19500229313E+02 -0.51691960509E+02  0.16042549479E+03  0.16967220486E+03  0.00000000000E+00 0. -1.
         11    1    4    4    0    0  0.19538438649E+02 -0.65775262286E+01 -0.44289628672E+01  0.21086254960E+02  0.00000000000E+00 0.  1.
</event>
<event>
 7    1  0.6380238E-009  0.1637846E+03  0.7561462E-02  0.1184489E+00
         -1   -1    0    0    0  501 -0.00000000000E+00  0.00000000000E+00  0.12653951329E+03  0.12653951329E+03  0.00000000000E+00 0.  1.
          1   -1    0    0  501    0  0.00000000000E+00 -0.00000000000E+00 -0.30035987528E+03  0.30035987528E+03  0.00000000000E+00 0. -1.
         25    2    1    2    0    0  0.11022139088E+03 -0.13047392336E+02  0.97919279534E+01  0.16751888518E+03  0.12509078937E+03 0.  0.
          5    1    3    3  502    0  0.12359696868E+03 -0.34777071184E+02 -0.17815476752E+02  0.12969394342E+03  0.41800000000E+01 0. -1.
         -5    1    3    3    0  502 -0.13375577805E+02  0.21729678848E+02  0.27607404706E+02  0.37824941759E+02  0.41800000000E+01 0. -1.
        -11    1    1    2    0    0 -0.50658151611E+02 -0.60304698094E+02 -0.12637216302E+03  0.14890543484E+03  0.00000000000E+00 0. -1.
         11    1    1    2    0    0 -0.59563239269E+02  0.73352090430E+02 -0.57240126916E+02  0.11047506855E+03  0.00000000000E+00 0.  1.
</event>
<event>
 8    1  0.6380238E-009  0.7807006E+02  0.7561462E-02  0.1334619E+00
         -2   -1    0    0    0  501 -0.00000000000E+00  0.00000000000E+00  0.30003104286E+02  0.30003104286E+02  0.00000000000E+00 0.  1.
          2   -1    0    0  501    0  0.00000000000E+00 -0.00000000000E+00 -0.74815684472E+03  0.74815684472E+03  0.00000000000E+00 0. -1.
         25    2    1    2    0    0 -0.27816415774E+01 -0.38114882289E+02 -0.63883950074E+03  0.65209028976E+03  0.12508139951E+03 0.  0.
         23    2    1    2    0    0  0.27816415774E+01  0.38114882289E+02 -0.79314239692E+02  0.12606965925E+03  0.90234852380E+02 0.  0.
          5    1    3    3  502    0 -0.45768130763E+02 -0.28240121744E+02 -0.12246186701E+03  0.13381557286E+03  0.41800000000E+01 0. -1.
         -5    1    3    3    0  502  0.42986489185E+02 -0.98747605445E+01 -0.51637763373E+03  0.51827471689E+03  0.41800000000E+01 0. -1.
        -11    1    4    4    0    0  0.23142712881E+02  0.18584318009E+02  0.10844036696E+02  0.31599923532E+02  0.00000000000E+00 0.  1.
         11    1    4    4    0    0 -0.20361071304E+02  0.19530564280E+02 -0.90158276387E+02  0.94469735719E+02  0.00000000000E+00 0. -1.
</event>
<event>
 8    1  0.6380238E-009  0.9289689E+02  0.7561462E-02  0.1295984E+00
         -3   -1    0    0    0  501 -0.00000000000E+00  0.00000000000E+00  0.11762712935E+03  0.11762712935E+03  0.00000000000E+00 0. -1.
          3   -1    0    0  501    0  0.00000000000E+00 -0.00000000000E+00 -0.15341819487E+03  0.15341819487E+03  0.00000000000E+00 0.  1.
         25    2    1    2    0    0  0.62901924665E+01 -0.27073897323E+02  0.53714347637E+02  0.13894041761E+03  0.12508655430E+03 0.  0.
         23    2    1    2    0    0 -0.62901924665E+01  0.27073897323E+02 -0.89505413154E+02  0.13210490661E+03  0.93101691334E+02 0.  0.
          5    1    3    3  502    0  0.55290703353E+02 -0.27140451773E+02 -0.54863992877E+01  0.61977729685E+02  0.41800000000E+01 0.  1.
         -5    1    3    3    0  502 -0.49000510887E+02  0.66554450834E-01  0.59200746925E+02  0.76962687928E+02  0.41800000000E+01 0.  1.
        -11    1    4    4    0    0  0.30396166430E+02  0.20349652182E+01  0.18539874753E+01  0.30520571532E+02  0.00000000000E+00 0. -1.
         11    1    4    4    0    0 -0.36686358897E+02  0.25038932104E+02 -0.91359400629E+02  0.10158433508E+03  0.00000000000E+00 0.  1.
</event>
<event>
 8    1  0.6380238E-009  0.7979161E+02  0.7561462E-02  0.1329644E+00
         -2   -1    0    0    0  501 -0.00000000000E+00  0.00000000000E+00  0.71078654250E+02  0.71078654250E+02  0.00000000000E+00 0.  1.
          2   -1    0    0  501    0  0.00000000000E+00 -0.00000000000E+00 -0.30874740544E+03  0.30874740544E+03  0.00000000000E+00 0. -1.
         25    2    1    2    0    0  0.52687297761E+02 -0.18354139888E+02 -0.23612964816E+03  0.27298061379E+03  0.12509348091E+03 0.  0.
         23    2    1    2    0    0 -0.52687297761E+02  0.18354139888E+02 -0.15391030275E+01  0.10684544590E+03  0.91108477514E+02 0.  0.
          5    1    3    3  502    0  0.24846510834E+02 -0.46088700104E+02 -0.22621955739E+03  0.23223754633E+03  0.41800000000E+01 0.  1.
         -5    1    3    3    0  502  0.27840786926E+02  0.27734560216E+02 -0.99100907699E+01  0.40743067461E+02  0.41800000000E+01 0.  1.
        -11    1    4    4    0    0 -0.26404755962E+02 -0.10582756279E+02  0.40466379123E+02  0.49464469140E+02  0.00000000000E+00 0.  1.
         11    1    4    4    0    0 -0.26282541798E+02  0.28936896168E+02 -0.42005482151E+02  0.57380976760E+02  0.00000000000E+00 0. -1.
</event>
<event>
 8    1  0.6380238E-009  0.1608493E+03  0.7561462E-02  0.1187741E+00
         -2   -1    0    0    0  501 -0.00000000000E+00  0.00000000000E+00  0.58409717775E+02  0.58409717775E+02  0.00000000000E+00 0.  1.
          2   -1    0    0  501    0  0.00000000000E+00 -0.00000000000E+00 -0.60885326526E+03  0.60885326526E+03  0.00000000000E+00 0. -1.
         25    2    1    2    0    0  0.99836836991E+01  0.13388258096E+03 -0.14353649875E+03  0.23297125603E+03  0.12509460516E+03 0.  0.
         23    2    1    2    0    0 -0.99836836991E+01 -0.13388258096E+03 -0.40690704874E+03  0.43429172701E+03  0.70793632556E+02 0.  0.
          5    1    3    3  502    0  0.67449116881E+02  0.74399833446E+02 -0.83807628419E+02  0.13086599851E+03  0.41800000000E+01 0.  1.
         -5    1    3    3    0  502 -0.57465433182E+02  0.59482747511E+02 -0.59728870328E+02  0.10210525752E+03  0.41800000000E+01 0.  1.
        -11    1    4    4    0    0  0.10372702940E+02 -0.81830849409E+02 -0.32378520689E+03  0.33412683382E+03  0.00000000000E+00 0. -1.
         11    1    4    4    0    0 -0.20356386639E+02 -0.52051731548E+02 -0.83121841854E+02  0.10016489319E+03  0.00000000000E+00 0.  1.
</event>
<event>
 8    1  0.6380238E-009  0.1296262E+03  0.7561462E-02  0.1228011E+00
         -2   -1    0    0    0  501 -0.00000000000E+00  0.00000000000E+00  0.14358012453E+03  0.14358012453E+03  0.00000000000E+00 0. -1.
          2   -1    0    0  501    0  0.00000000000E+00 -0.00000000000E+00 -0.15617212888E+03  0.15617212888E+03  0.00000000000E+00 0.  1.
         25    2    1    2    0    0  0.96395104146E+02  0.26841565367E+02 -0.33597480545E+02  0.16367302471E+03  0.12509029772E+03 0.  0.
         23    2    1    2    0    0 -0.96395104146E+02 -0.26841565367E+02  0.21005476198E+02  0.13607922870E+03  0.89798890404E+02 0.  0.
          5    1    3    3  502    0  0.11702920973E+03 -0.42382081380E+01 -0.43259084574E+02  0.12491044447E+03  0.41800000000E+01 0. -1.
         -5    1    3    3    0  502 -0.20634105585E+02  0.31079773505E+02  0.96616040289E+01  0.38762580240E+02  0.41800000000E+01 0. -1.
        -11    1    4    4    0    0 -0.48554438320E+02  0.21341703958E+01 -0.32668254199E+02  0.58560250993E+02  0.00000000000E+00 0.  1.
         11    1    4    4    0    0 -0.47840665825E+02 -0.28975735763E+02  0.53673730397E+02  0.77518977704E+02  0.00000000000E+00 0. -1.
</event>
<event>
 8    1  0.6380238E-009  0.1102615E+03  0.7561462E-02  0.1260086E+00
         -2   -1    0    0    0  501 -0.00000000000E+00  0.00000000000E+00  0.13353968731E+03  0.13353968731E+03  0.00000000000E+00 0.  1.
          2   -1    0    0  501    0  0.00000000000E+00 -0.00000000000E+00 -0.14187069274E+03  0.14187069274E+03  0.00000000000E+00 0. -1.
         25    2    1    2    0    0  0.58883829491E+02 -0.48600338485E+02  0.37770823273E+02  0.15133538013E+03  0.12508582618E+03 0.  0.
         23    2    1    2    0    0 -0.58883829491E+02  0.48600338485E+02 -0.46101828702E+02  0.12407499993E+03  0.86255021422E+02 0.  0.
          5    1    3    3  502    0  0.20587296773E+02 -0.85690788547E+02  0.41953414268E+02  0.97694981442E+02  0.41800000000E+01 0. -1.
         -5    1    3    3    0  502  0.38296532719E+02  0.37090450062E+02 -0.41825909955E+01  0.53640398689E+02  0.41800000000E+01 0. -1.
        -11    1    4    4    0    0 -0.45650513321E+02  0.25750199131E+02 -0.70685607809E+02  0.87997143551E+02  0.00000000000E+00 0. -1.
         11    1    4    4    0    0 -0.13233316170E+02  0.22850139355E+02  0.24583779108E+02  0.36077856375E+02  0.00000000000E+00 0.  1.
</event>
<event>
 8    1  0.6380238E-009  0.8511735E+02  0.7561462E-02  0.1315126E+00
          1   -1    0    0  501    0  0.00000000000E+00  0.00000000000E+00  0.21678363869E+03  0.21678363869E+03  0.00000000000E+00 0. -1.
         -1   -1    0    0    0  501 -0.00000000000E+00 -0.00000000000E+00 -0.61913492022E+02  0.61913492022E+02  0.00000000000E+00 0.  1.
         25    2    1    2    0    0  0.57216892164E+02  0.93241128010E+01  0.94183254089E+02  0.16696542462E+03  0.12508499446E+03 0.  0.
         23    2    1    2    0    0 -0.57216892164E+02 -0.93241128010E+01  0.60686892577E+02  0.11173170609E+03  0.73758819040E+02 0.  0.
          5    1    3    3  502    0 -0.29451943456E+01  0.27467051300E+02  0.99896294819E+02  0.10372972185E+03  0.41800000000E+01 0. -1.
         -5    1    3    3    0  502  0.60162086509E+02 -0.18142938499E+02 -0.57130407303E+01  0.63235702771E+02  0.41800000000E+01 0. -1.
        -11    1    4    4    0    0 -0.34798711386E+02 -0.32112646967E+02  0.63978811236E+02  0.79595607269E+02  0.00000000000E+00 0. -1.
         11    1    4    4    0    0 -0.22418180778E+02  0.22788534166E+02 -0.32919186590E+01  0.32136098819E+02  0.00000000000E+00 0.  1.
</event>
<event>
 8    1  0.6380238E-009  0.8133826E+02  0.7561462E-02  0.1325296E+00
         -2   -1    0    0    0  501 -0.00000000000E+00  0.00000000000E+00  0.23436870485E+03  0.23436870485E+03  0.00000000000E+00 0. -1.
          2   -1    0    0  501    0  0.00000000000E+00 -0.00000000000E+00 -0.56000127921E+02  0.56000127921E+02  0.00000000000E+00 0.  1.
         25    2    1    2    0    0 -0.14029015667E+02  0.13475293647E+02  0.13744508638E+03  0.18684088139E+03  0.12505985115E+03 0.  0.
         23    2    1    2    0    0  0.14029015667E+02 -0.13475293647E+02  0.40923490553E+02  0.10352795138E+03  0.93085486620E+02 0.  0.
          5    1    3    3  502    0  0.13528366067E+02 -0.21403238480E+02  0.13979559377E+03  0.14213161416E+03  0.41800000000E+01 0. -1.
         -5    1    3    3    0  502 -0.27557381734E+02  0.34878532127E+02 -0.23505073919E+01  0.44709267231E+02  0.41800000000E+01 0. -1.
        -11    1    4    4    0    0  0.34084765634E+02 -0.44113478702E+02  0.36522264414E+02  0.66645675399E+02  0.00000000000E+00 0.  1.
         11    1    4    4    0    0 -0.20055749967E+02  0.30638185056E+02  0.44012261388E+01  0.36882275984E+02  0.00000000000E+00 0. -1.
</event>
<event>
 8    1  0.6380238E-009  0.1117958E+03  0.7561462E-02  0.1257280E+00
         -1   -1    0    0    0  501 -0.00000000000E+00  0.00000000000E+00  0.15293365976E+03  0.15293365976E+03  0.00000000000E+00 0.  1.
          1   -1    0    0  501    0  0.00000000000E+00 -0.00000000000E+00 -0.17978373714E+03  0.17978373714E+03  0.00000000000E+00 0. -1.
         25    2    1    2    0    0  0.53799801869E+02 -0.64295752817E+02  0.78752598133E+02  0.16993516244E+03  0.12509046809E+03 0.  0.
         23    2    1    2    0    0 -0.53799801869E+02  0.64295752817E+02 -0.10560267551E+03  0.16278223447E+03  0.91201799721E+02 0.  0.
          5    1    3    3  502    0  0.42022828590E+01 -0.73455666879E+02 -0.30335998507E+01  0.73756825487E+02  0.41800000000E+01 0. -1.
         -5    1    3    3    0  502  0.49597519010E+02  0.91599140614E+01  0.81786197984E+02  0.96178336949E+02  0.41800000000E+01 0. -1.
        -11    1    4    4    0    0 -0.43959354706E+02  0.11303007242E+02 -0.13365171045E+01  0.45408910105E+02  0.00000000000E+00 0.  1.
         11    1    4    4    0    0 -0.98404471623E+01  0.52992745576E+02 -0.10426615840E+03  0.11737332436E+03  0.00000000000E+00 0. -1.
</event>
<event>
 8    1  0.6380238E-009  0.1023901E+03  0.7561462E-02  0.1275349E+00
         -2   -1    0    0    0  501 -0.00000000000E+00  0.00000000000E+00  0.27136084130E+03  0.27136084130E+03  0.00000000000E+00 0.  1.
          2   -1    0    0  501    0  0.00000000000E+00 -0.00000000000E+00 -0.73499783095E+02  0.73499783095E+02  0.00000000000E+00 0. -1.
         25    2    1    2    0    0  0.70935471982E+01 -0.78300739943E+02  0.42533040357E+02  0.15373710092E+03  0.12507882471E+03 0.  0.
         23    2    1    2    0    0 -0.70935471982E+01  0.78300739943E+02  0.15532801785E+03  0.19112352348E+03  0.78867507946E+02 0.  0.
          5    1    3    3  502    0  0.33391418266E+02 -0.57219759547E+02 -0.30605628681E+02  0.73097637468E+02  0.41800000000E+01 0. -1.
         -5    1    3    3    0  502 -0.26297871068E+02 -0.21080980396E+02  0.73138669038E+02  0.80639463451E+02  0.41800000000E+01 0. -1.
        -11    1    4    4    0    0 -0.35074516183E+02  0.64073500241E+02  0.74141069363E+02  0.10407945659E+03  0.00000000000E+00 0. -1.
         11    1    4    4    0    0  0.27980968985E+02  0.14227239703E+02  0.81186948490E+02  0.87044066886E+02  0.00000000000E+00 0.  1.
</event>
<event>
 8    1  0.6380238E-009  0.1188267E+03  0.7561462E-02  0.1245045E+00
          2   -1    0    0  501    0  0.00000000000E+00  0.00000000000E+00  0.89599737349E+02  0.89599737349E+02  0.00000000000E+00 0. -1.
         -2   -1    0    0    0  501 -0.00000000000E+00 -0.00000000000E+00 -0.17261714350E+03  0.17261714350E+03  0.00000000000E+00 0.  1.
         25    2    1    2    0    0 -0.55928861217E+02  0.16095608615E+02 -0.24638031170E+02  0.14014704185E+03  0.12508818739E+03 0.  0.
         23    2    1    2    0    0  0.55928861217E+02 -0.16095608615E+02 -0.58379374980E+02  0.12206983900E+03  0.90032150018E+02 0.  0.
          5    1    3    3  502    0  0.15990402818E+02  0.52890955619E+02  0.57264915837E+00  0.55416121261E+02  0.41800000000E+01 0.  1.
         -5    1    3    3    0  502 -0.71919264036E+02 -0.36795347003E+02 -0.25210680328E+02  0.84730920585E+02  0.41800000000E+01 0.  1.
        -11    1    4    4    0    0 -0.20814742979E+01 -0.38943624411E+02 -0.37577417078E+01  0.39179829508E+02  0.00000000000E+00 0. -1.
         11    1    4    4    0    0  0.58010335515E+02  0.22848015796E+02 -0.54621633272E+02  0.82890009493E+02  0.00000000000E+00 0.  1.
</event>
<event>
 8    1  0.6380238E-009  0.8694247E+02  0.7561462E-02  0.1310430E+00
         -2   -1    0    0    0  501 -0.00000000000E+00  0.00000000000E+00  0.22929352275E+02  0.22929352275E+02  0.00000000000E+00 0.  1.
          2   -1    0    0  501    0  0.00000000000E+00 -0.00000000000E+00 -0.60834993828E+03  0.60834993828E+03  0.00000000000E+00 0. -1.
         25    2    1    2    0    0 -0.10777051372E+02  0.43663476411E+02 -0.36111474533E+03  0.38480301185E+03  0.12508738798E+03 0.  0.
         23    2    1    2    0    0  0.10777051372E+02 -0.43663476411E+02 -0.22430584068E+03  0.24647627870E+03  0.91732228748E+02 0.  0.
          5    1    3    3  502    0  0.29231328943E+02  0.41036210347E+02 -0.33007850591E+03  0.33392773712E+03  0.41800000000E+01 0. -1.
         -5    1    3    3    0  502 -0.40008380315E+02  0.26272660640E+01 -0.31036239412E+02  0.50875274734E+02  0.41800000000E+01 0. -1.
        -11    1    4    4    0    0 -0.15870194767E+02  0.12925588364E+02 -0.91630116003E+01  0.22425313779E+02  0.00000000000E+00 0.  1.
         11    1    4    4    0    0  0.26647246139E+02 -0.56589064775E+02 -0.21514282908E+03  0.22405096492E+03  0.00000000000E+00 0. -1.
</event>
<event>
 8    1  0.6380238E-009  0.1766278E+03  0.7561462E-02  0.1171107E+00
         -1   -1    0    0    0  501 -0.00000000000E+00  0.00000000000E+00  0.92660125370E+03  0.92660125370E+03  0.00000000000E+00 0.  1.
          1   -1    0    0  501    0  0.00000000000E+00 -0.00000000000E+00 -0.40811946067E+02  0.40811946067E+02  0.00000000000E+00 0. -1.
         25    2    1    2    0    0  0.11704585711E+03  0.99364234657E+02  0.33550553930E+03  0.38959478173E+03  0.12508854168E+03 0.  0.
         23    2    1    2    0    0 -0.11704585711E+03 -0.99364234657E+02  0.55028376834E+03  0.57781841804E+03  0.86538515884E+02 0.  0.
          5    1    3    3  502    0  0.13628694935E+03  0.51285267980E+02  0.23595243072E+03  0.27730007796E+03  0.41800000000E+01 0.  1.
         -5    1    3    3    0  502 -0.19241092243E+02  0.48078966678E+02  0.99553108579E+02  0.11229470377E+03  0.41800000000E+01 0.  1.
        -11    1    4    4    0    0 -0.82520518421E+02 -0.84264016735E+02  0.50650488606E+03  0.52005505486E+03  0.00000000000E+00 0.  1.
         11    1    4    4    0    0 -0.34525338685E+02 -0.15100217922E+02  0.43778882278E+02  0.57763363182E+02  0.00000000000E+00 0. -1.
</event>
<event>
 7    1  0.6380238E-009  0.9190010E+02  0.7561462E-02  0.1298314E+00
         -2   -1    0    0    0  501 -0.00000000000E+00  0.00000000000E+00  0.17659376114E+02  0.17659376114E+02  0.00000000000E+00 0.  1.
          2   -1    0    0  501    0  0.00000000000E+00 -0.00000000000E+00 -0.87800379486E+03  0.87800379486E+03  0.00000000000E+00 0. -1.
         23    2    1    2    0    0  0.60244376899E+02 -0.14146706875E+02 -0.40279157586E+03  0.41758750469E+03  0.91152379164E+02 0.  0.
          5    1    1    2  502    0 -0.52448071452E+02 -0.55644384802E+01 -0.60238217369E+02  0.80174050705E+02  0.41800000000E+01 0.  1.
         -5    1    1    2    0  502 -0.77963054465E+01  0.19711145356E+02 -0.39731462552E+03  0.39790161559E+03  0.41800000000E+01 0.  1.
        -11    1    3    3    0    0  0.76353892826E+02  0.13259846684E+02 -0.30832671733E+03  0.31791682105E+03  0.00000000000E+00 0. -1.
         11    1    3    3    0    0 -0.16109515927E+02 -0.27406553560E+02 -0.94464858521E+02  0.99670683638E+02  0.00000000000E+00 0.  1.
</event>
<event>
 8    1  0.6380238E-009  0.7186307E+02  0.7561462E-02  0.1353870E+00
          1   -1    0    0  501    0  0.00000000000E+00  0.00000000000E+00  0.29313457123E+03  0.29313457123E+03  0.00000000000E+00 0. -1.
         -1   -1    0    0    0  501 -0.00000000000E+00 -0.00000000000E+00 -0.43559344770E+02  0.43559344770E+02  0.00000000000E+00 0.  1.
         25    2    1    2    0    0  0.31708643106E+02 -0.29499600356E+01  0.16143300317E+03  0.20669332567E+03  0.12508947219E+03 0.  0.
         23    2    1    2    0    0 -0.31708643106E+02  0.29499600356E+01  0.88142223296E+02  0.13000059033E+03  0.90094182095E+02 0.  0.
          5    1    3    3  502    0 -0.15631310653E+02 -0.70605211946E+01  0.15787527858E+03  0.15885926104E+03  0.41800000000E+01 0. -1.
         -5    1    3    3    0  502  0.47339953760E+02  0.41105611590E+01  0.35577245927E+01  0.47834064633E+02  0.41800000000E+01 0. -1.
        -11    1    4    4    0    0  0.98258633235E+01 -0.25965290788E+02 -0.68206000257E+00  0.27770652164E+02  0.00000000000E+00 0.  1.
         11    1    4    4    0    0 -0.41534506430E+02  0.28915250823E+02  0.88824283298E+02  0.10222993817E+03  0.00000000000E+00 0. -1.
</event>
<event>
 8    1  0.6380238E-009  0.2984543E+03  0.7561462E-02  0.1086016E+00
          1   -1    0    0  501    0  0.00000000000E+00  0.00000000000E+00  0.80906609329E+03  0.80906609329E+03  0.00000000000E+00 0. -1.
         -1   -1    0    0    0  501 -0.00000000000E+00 -0.00000000000E+00 -0.16296068682E+03  0.16296068682E+03  0.00000000000E+00 0.  1.
         25    2    1    2    0    0 -0.26815002884E+03 -0.82124287300E+02  0.56338692863E+02  0.31220055171E+03  0.12508516955E+03 0.  0.
         23    2    1    2    0    0  0.26815002884E+03  0.82124287300E+02  0.58976671361E+03  0.65982622841E+03  0.94324115098E+02 0.  0.
          5    1    3    3  502    0 -0.10655438356E+02 -0.43804868583E+02 -0.22302942248E+01  0.45330469780E+02  0.41800000000E+01 0.  1.
         -5    1    3    3    0  502 -0.25749459048E+03 -0.38319418716E+02  0.58568987088E+02  0.26687008193E+03  0.41800000000E+01 0.  1.
        -11    1    4    4    0    0  0.95811419785E+02  0.69703074465E+02  0.29864773414E+03  0.32129241488E+03  0.00000000000E+00 0. -1.
         11    1    4    4    0    0  0.17233860906E+03  0.12421212835E+02  0.29111897947E+03  0.33853381353E+03  0.00000000000E+00 0.  1.
</event>
<event>
 8    1  0.6380238E-009  0.1249325E+03  0.7561462E-02  0.1235175E+00
         -2   -1    0    0    0  501 -0.00000000000E+00  0.00000000000E+00  0.49224831169E+02  0.49224831169E+02  0.00000000000E+00 0.  1.
          2   -1    0    0  501    0  0.00000000000E+00 -0.00000000000E+00 -0.51155101827E+03  0.51155101827E+03  0.00000000000E+00 0. -1.
         25    2    1    2    0    0 -0.32657768390E+01  0.93596851417E+02 -0.30850595107E+03  0.34582411046E+03  0.12508939859E+03 0.  0.
         23    2    1    2    0    0  0.32657768390E+01 -0.93596851417E+02 -0.15382023603E+03  0.21495173897E+03  0.11735650464E+03 0.  0.
          5    1    3    3  502    0 -0.39384105307E+02  0.25904491159E+02 -0.23419911783E+03  0.23893273030E+03  0.41800000000E+01 0.  1.
         -5    1    3    3    0  502  0.36118328468E+02  0.67692360257E+02 -0.74306833234E+02  0.10689138017E+03  0.41800000000E+01 0.  1.
        -11    1    4    4    0    0  0.34250593704E+02 -0.87712576824E+02 -0.50344266731E+02  0.10677614197E+03  0.00000000000E+00 0.  1.
         11    1    4    4    0    0 -0.30984816865E+02 -0.58842745927E+01 -0.10347596930E+03  0.10817559700E+03  0.00000000000E+00 0. -1.
</event>
<event>
 8    1  0.6380238E-009  0.1040984E+03  0.7561462E-02  0.1271906E+00
          2   -1    0    0  501    0  0.00000000000E+00  0.00000000000E+00  0.96914043318E+03  0.96914043318E+03  0.00000000000E+00 0. -1.
         -2   -1    0    0    0  501 -0.00000000000E+00 -0.00000000000E+00 -0.28060493253E+02  0.28060493253E+02  0.00000000000E+00 0.  1.
         25    2    1    2    0    0  0.59899238460E+02 -0.61539851387E+02  0.76114343495E+03  0.77611924448E+03  0.12508669398E+03 0.  0.
         23    2    1    2    0    0 -0.59899238460E+02  0.61539851387E+02  0.17993650498E+03  0.22108168196E+03  0.95524301592E+02 0.  0.
          5    1    3    3  502    0 -0.10749201100E+02 -0.16316130147E+02  0.52682241337E+03  0.52720118461E+03  0.41800000000E+01 0. -1.
         -5    1    3    3    0  502  0.70648439560E+02 -0.45223721240E+02  0.23432102158E+03  0.24891805987E+03  0.41800000000E+01 0. -1.
        -11    1    4    4    0    0 -0.13062769490E+02  0.55485548812E+02  0.31104584262E+02  0.64936717162E+02  0.00000000000E+00 0.  1.
         11    1    4    4    0    0 -0.46836468971E+02  0.60543025756E+01  0.14883192072E+03  0.15614496480E+03  0.00000000000E+00 0. -1.
</event>
<event>
 8    1  0.6380238E-009  0.1118675E+03  0.7561462E-02  0.1257150E+00
         -1   -1    0    0    0  501 -0.00000000000E+00  0.00000000000E+00  0.39769709268E+03  0.39769709268E+03  0.00000000000E+00 0.  1.
          1   -1    0    0  501    0  0.00000000000E+00 -0.00000000000E+00 -0.36737052084E+02  0.36737052084E+02  0.00000000000E+00 0. -1.
         25    2    1    2    0    0 -0.37359458367E+02 -0.25488901998E+02  0.25503896659E+03  0.28764140327E+03  0.12508912480E+03 0.  0.
         23    2    1    2    0    0  0.37359458367E+02  0.25488901998E+02  0.10592107400E+03  0.14679274149E+03  0.91013305519E+02 0.  0.
          5    1    3    3  502    0 -0.13954461666E+02  0.46190604472E+02  0.15440148865E+03  0.16181962501E+03  0.41800000000E+01 0.  1.
         -5    1    3    3    0  502 -0.23404996701E+02 -0.71679506470E+02  0.10063747795E+03  0.12582177826E+03  0.41800000000E+01 0.  1.
        -11    1    4    4    0    0 -0.29390401354E+02  0.11635465470E+02  0.21251335245E+02  0.38089355444E+02  0.00000000000E+00 0. -1.
         11    1    4    4    0    0  0.66749859721E+02  0.13853436528E+02  0.84669738755E+02  0.10870338604E+03  0.00000000000E+00 0.  1.
</event>
<event>
 8    1  0.6380238E-009  0.1122514E+03  0.7561462E-02  0.1256457E+00
         -2   -1    0    0    0  501 -0.00000000000E+00  0.00000000000E+00  0.26582814079E+02  0.26582814079E+02  0.00000000000E+00 0.  1.
          2   -1    0    0  501    0  0.00000000000E+00 -0.00000000000E+00 -0.68982060380E+03  0.68982060380E+03  0.00000000000E+00 0. -1.
         25    2    1    2    0    0 -0.63511031130E+02  0.22975976611E+02 -0.48544658445E+03  0.50583574053E+03  0.12509941432E+03 0.  0.
         23    2    1    2    0    0  0.63511031130E+02 -0.22975976611E+02 -0.17779120527E+03  0.21056767735E+03  0.90374152815E+02 0.  0.
          5    1    3    3  502    0  0.21324730120E+02  0.23972094758E+02 -0.30140585373E+03  0.30313753727E+03  0.41800000000E+01 0. -1.
         -5    1    3    3    0  502 -0.84835761250E+02 -0.99611814659E+00 -0.18404073072E+03  0.20269820326E+03  0.41800000000E+01 0. -1.
        -11    1    4    4    0    0  0.83963904539E+02 -0.15239645562E+02 -0.16354318735E+03  0.18446831216E+03  0.00000000000E+00 0. -1.
         11    1    4    4    0    0 -0.20452873409E+02 -0.77363310484E+01 -0.14248017920E+02  0.26099365192E+02  0.00000000000E+00 0.  1.
</event>
<event>
 8    1  0.6380238E-009  0.1095792E+03  0.7561462E-02  0.1261351E+00
          1   -1    0    0  501    0  0.00000000000E+00  0.00000000000E+00  0.15201354773E+03  0.15201354773E+03  0.00000000000E+00 0. -1.
         -1   -1    0    0    0  501 -0.00000000000E+00 -0.00000000000E+00 -0.10615531167E+03  0.10615531167E+03  0.00000000000E+00 0.  1.
         25    2    1    2    0    0  0.18347649573E+02 -0.51444363222E+02 -0.10700680763E+02  0.13691297020E+03  0.12508995998E+03 0.  0.
         23    2    1    2    0    0 -0.18347649573E+02  0.51444363222E+02  0.56558916829E+02  0.12125588920E+03  0.92308834034E+02 0.  0.
          5    1    3    3  502    0 -0.16200125762E+02  0.29070045004E+02  0.25387972814E+02  0.42065819317E+02  0.41800000000E+01 0. -1.
         -5    1    3    3    0  502  0.34547775335E+02 -0.80514408227E+02 -0.36088653577E+02  0.94847150878E+02  0.41800000000E+01 0. -1.
        -11    1    4    4    0    0  0.32475364489E+02  0.20263581142E+02  0.47407222641E+02  0.60931984851E+02  0.00000000000E+00 0. -1.
         11    1    4    4    0    0 -0.50823014061E+02  0.31180782080E+02  0.91516941876E+01  0.60323904349E+02  0.00000000000E+00 0.  1.
</event>
<event>
 8    1  0.6380238E-009  0.1021578E+03  0.7561462E-02  0.1275823E+00
          2   -1    0    0  501    0  0.00000000000E+00  0.00000000000E+00  0.19451195366E+03  0.19451195366E+03  0.00000000000E+00 0.  1.
         -2   -1    0    0    0  501 -0.00000000000E+00 -0.00000000000E+00 -0.63776683008E+02  0.63776683008E+02  0.00000000000E+00 0. -1.
         25    2    1    2    0    0  0.99535929317E+01 -0.15890586763E+02  0.66859919666E+02  0.14306866851E+03  0.12508721075E+03 0.  0.
         23    2    1    2    0    0 -0.99535929317E+01  0.15890586763E+02  0.63875350982E+02  0.11521996815E+03  0.94042521435E+02 0.  0.
          5    1    3    3  502    0  0.32654147390E+01 -0.68748572892E+02  0.19491628391E+02  0.71654903429E+02  0.41800000000E+01 0. -1.
         -5    1    3    3    0  502  0.66881781928E+01  0.52857986128E+02  0.47368291276E+02  0.71413765084E+02  0.41800000000E+01 0. -1.
        -11    1    4    4    0    0  0.26930644181E+02 -0.17540521067E+02  0.56354109642E+02  0.64874610973E+02  0.00000000000E+00 0.  1.
         11    1    4    4    0    0 -0.36884237113E+02  0.33431107830E+02  0.75212413398E+01  0.50345357179E+02  0.00000000000E+00 0. -1.
</event>
<event>
 8    1  0.6380238E-009  0.9471741E+02  0.7561462E-02  0.1291814E+00
          2   -1    0    0  501    0  0.00000000000E+00  0.00000000000E+00  0.43388765697E+03  0.43388765697E+03  0.00000000000E+00 0. -1.
         -2   -1    0    0    0  501 -0.00000000000E+00 -0.00000000000E+00 -0.39438522465E+02  0.39438522465E+02  0.00000000000E+00 0.  1.
         25    2    1    2    0    0 -0.38082851359E+02 -0.75194501413E+01  0.32701102849E+03  0.35226320090E+03  0.12508518800E+03 0.  0.
         23    2    1    2    0    0  0.38082851359E+02  0.75194501413E+01  0.67438106009E+02  0.12106297853E+03  0.92744277072E+02 0.  0.
          5    1    3    3  502    0 -0.10473887330E+02  0.37946794868E+02  0.27900790204E+02  0.48431271412E+02  0.41800000000E+01 0.  1.
         -5    1    3    3    0  502 -0.27608964029E+02 -0.45466245010E+02  0.29911023829E+03  0.30383192949E+03  0.41800000000E+01 0.  1.
        -11    1    4    4    0    0  0.64997462508E+02 -0.78950396063E+01  0.28835390555E+02  0.71543563870E+02  0.00000000000E+00 0.  1.
         11    1    4    4    0    0 -0.26914611149E+02  0.15414489748E+02  0.38602715454E+02  0.49519414657E+02  0.00000000000E+00 0. -1.
</event>
<event>
 8    1  0.6380238E-009  0.1892052E+03  0.7561462E-02  0.1159180E+00
          1   -1    0    0  501    0  0.00000000000E+00  0.00000000000E+00  0.55632410436E+03  0.55632410436E+03  0.00000000000E+00 0. -1.
         -1   -1    0    0    0  501 -0.00000000000E+00 -0.00000000000E+00 -0.15122744963E+03  0.15122744963E+03  0.00000000000E+00 0.  1.
         25    2    1    2    0    0 -0.10339568688E+03  0.13898777963E+03 -0.42613549800E+02  0.21787592138E+03  0.12508289866E+03 0.  0.
         23    2    1    2    0    0  0.10339568688E+03 -0.13898777963E+03  0.44771020453E+03  0.48967563262E+03  0.96589476557E+02 0.  0.
          5    1    3    3  502    0  0.13385984084E+02  0.33870798126E+02  0.27441767821E+02  0.45792341682E+02  0.41800000000E+01 0. -1.
         -5    1    3    3    0  502 -0.11678167096E+03  0.10511698151E+03 -0.70055317621E+02  0.17208357970E+03  0.41800000000E+01 0. -1.
        -11    1    4    4    0    0  0.76952637424E+02 -0.50073402590E+02  0.31247249328E+03  0.32568099900E+03  0.00000000000E+00 0. -1.
         11    1    4    4    0    0  0.26443049456E+02 -0.88914377043E+02  0.13523771125E+03  0.16399463362E+03  0.00000000000E+00 0.  1.
</event>
<event>
 8    1  0.6380238E-009  0.9335950E+02  0.7561462E-02  0.1294914E+00
         -1   -1    0    0    0  501 -0.00000000000E+00  0.00000000000E+00  0.25688681429E+03  0.25688681429E+03  0.00000000000E+00 0.  1.
          1   -1    0    0  501    0  0.00000000000E+00 -0.00000000000E+00 -0.74326063579E+02  0.74326063579E+02  0.00000000000E+00 0. -1.
         25    2    1    2    0    0  0.25372411396E+02 -0.23570508166E+02  0.74877174058E+01  0.13001232048E+03  0.12509120453E+03 0.  0.
         23    2    1    2    0    0 -0.25372411396E+02  0.23570508166E+02  0.17507303331E+03  0.20120055739E+03  0.92907315036E+02 0.  0.
          5    1    3    3  502    0 -0.55294086157E+01 -0.53768770058E+02  0.46670313465E+02  0.71534925401E+02  0.41800000000E+01 0.  1.
         -5    1    3    3    0  502  0.30901820012E+02  0.30198261892E+02 -0.39182596060E+02  0.58477395080E+02  0.41800000000E+01 0.  1.
        -11    1    4    4    0    0 -0.48113961618E+02  0.38729929572E+02  0.15624966051E+03  0.16801463376E+03  0.00000000000E+00 0.  1.
         11    1    4    4    0    0  0.22741550222E+02 -0.15159421406E+02  0.18823372799E+02  0.33185923633E+02  0.00000000000E+00 0. -1.
</event>
<event>
 8    1  0.6380238E-009  0.9481504E+02  0.7561462E-02  0.1291593E+00
         -2   -1    0    0    0  501 -0.00000000000E+00  0.00000000000E+00  0.28067189042E+02  0.28067189042E+02  0.00000000000E+00 0.  1.
          2   -1    0    0  501    0  0.00000000000E+00 -0.00000000000E+00 -0.83226623354E+03  0.83226623354E+03  0.00000000000E+00 0. -1.
         25    2    1    2    0    0  0.12396859877E+02 -0.35055014821E+02 -0.72406170529E+03  0.73572672227E+03  0.12508365442E+03 0.  0.
         23    2    1    2    0    0 -0.12396859877E+02  0.35055014821E+02 -0.80137339210E+02  0.12460670031E+03  0.87876620481E+02 0.  0.
          5    1    3    3  502    0 -0.19087285944E+02  0.42408689856E+02 -0.27153093233E+03  0.27551649873E+03  0.41800000000E+01 0. -1.
         -5    1    3    3    0  502  0.31484145821E+02 -0.77463704677E+02 -0.45253077296E+03  0.46021022354E+03  0.41800000000E+01 0. -1.
        -11    1    4    4    0    0 -0.26882102719E+02  0.35730392585E+02 -0.94283305985E+02  0.10434869519E+03  0.00000000000E+00 0. -1.
         11    1    4    4    0    0  0.14485242841E+02 -0.67537776431E+00  0.14145966775E+02  0.20258005116E+02  0.00000000000E+00 0.  1.
</event>
<event>
 8    1  0.6380238E-009  0.1079658E+03  0.7561462E-02  0.1264384E+00
         -2   -1    0    0    0  501 -0.00000000000E+00  0.00000000000E+00  0.16405449523E+02  0.16405449523E+02  0.00000000000E+00 0.  1.
          2   -1    0    0  501    0  0.00000000000E+00 -0.00000000000E+00 -0.12074202368E+04  0.12074202368E+04  0.00000000000E+00 0. -1.
         25    2    1    2    0    0 -0.60674542407E+02 -0.12468904166E+02 -0.93271039295E+03  0.94309900871E+03  0.12510071725E+03 0.  0.
         23    2    1    2    0    0  0.60674542407E+02  0.12468904166E+02 -0.25830439429E+03  0.28072667757E+03  0.90826393318E+02 0.  0.
          5    1    3    3  502    0  0.11319746753E+02  0.41330084811E+02 -0.18236530275E+03  0.18737899728E+03  0.41800000000E+01 0.  1.
         -5    1    3    3    0  502 -0.71994289160E+02 -0.53798988976E+02 -0.75034509020E+03  0.75572001143E+03  0.41800000000E+01 0.  1.
        -11    1    4    4    0    0  0.80661542993E+01 -0.19667019286E+02 -0.76323325550E+01  0.22585548322E+02  0.00000000000E+00 0.  1.
         11    1    4    4    0    0  0.52608388107E+02  0.32135923452E+02 -0.25067206174E+03  0.25814112925E+03  0.00000000000E+00 0. -1.
</event>
<event>
 8    1  0.6380238E-009  0.2607432E+03  0.7561462E-02  0.1106698E+00
          2   -1    0    0  501    0  0.00000000000E+00  0.00000000000E+00  0.34134817229E+04  0.34134817229E+04  0.00000000000E+00 0. -1.
         -2   -1    0    0    0  501 -0.00000000000E+00 -0.00000000000E+00 -0.20567207684E+02  0.20567207684E+02  0.00000000000E+00 0.  1.
         25    2    1    2    0    0  0.16464207979E+03 -0.17025263431E+03  0.20162923822E+04  0.20340046697E+04  0.12508817604E+03 0.  0.
         23    2    1    2    0    0 -0.16464207979E+03  0.17025263431E+03  0.13766221330E+04  0.14000442609E+04  0.94564588954E+02 0.  0.
          5    1    3    3  502    0  0.14056188278E+03 -0.18915576988E+03  0.17123212333E+04  0.17284672478E+04  0.41800000000E+01 0.  1.
         -5    1    3    3    0  502  0.24080197017E+02  0.18903135567E+02  0.30397114891E+03  0.30553742192E+03  0.41800000000E+01 0.  1.
        -11    1    4    4    0    0 -0.90943729064E+01  0.68305676575E+02  0.35242929017E+03  0.35910273967E+03  0.00000000000E+00 0.  1.
         11    1    4    4    0    0 -0.15554770689E+03  0.10194695774E+03  0.10241928428E+04  0.10409415212E+04  0.00000000000E+00 0. -1.
</event>
<event>
 8    1  0.6380238E-009  0.2458138E+03  0.7561462E-02  0.1115979E+00
         -2   -1    0    0    0  501 -0.00000000000E+00  0.00000000000E+00  0.43240314004E+02  0.43240314004E+02  0.00000000000E+00 0. -1.
          2   -1    0    0  501    0  0.00000000000E+00 -0.00000000000E+00 -0.14686968147E+04  0.14686968147E+04  0.00000000000E+00 0.  1.
         25    2    1    2    0    0  0.66677102861E+02 -0.21688699496E+03 -0.64575909744E+03  0.69580066637E+03  0.12509176941E+03 0.  0.
         23    2    1    2    0    0 -0.66677102861E+02  0.21688699496E+03 -0.77969740325E+03  0.81613646233E+03  0.81638715495E+02 0.  0.
          5    1    3    3  502    0  0.79860745807E+02 -0.22578567682E+03 -0.62492641815E+03  0.66925885207E+03  0.41800000000E+01 0.  1.
         -5    1    3    3    0  502 -0.13183642946E+02  0.88986818562E+01 -0.20832679286E+02  0.26541814300E+02  0.41800000000E+01 0.  1.
        -11    1    4    4    0    0 -0.66270015165E+02  0.10764030172E+03 -0.50333176071E+03  0.51896147333E+03  0.00000000000E+00 0.  1.
         11    1    4    4    0    0 -0.40708769606E+00  0.10924669324E+03 -0.27636564255E+03  0.29717498900E+03  0.00000000000E+00 0. -1.
</event>
<event>
 8    1  0.6380238E-009  0.4405508E+02  0.7561462E-02  0.1480328E+00
         -2   -1    0    0    0  501 -0.00000000000E+00  0.00000000000E+00  0.15552296265E+03  0.15552296265E+03  0.00000000000E+00 0. -1.
          2   -1    0    0  501    0  0.00000000000E+00 -0.00000000000E+00 -0.85008370294E+02  0.85008370294E+02  0.00000000000E+00 0.  1.
         25    2    1    2    0    0 -0.34492595196E+02 -0.20539394472E+02  0.39748787343E+02  0.13725585850E+03  0.12509036233E+03 0.  0.
         23    2    1    2    0    0  0.34492595196E+02  0.20539394472E+02  0.30765805010E+02  0.10327547445E+03  0.90042673303E+02 0.  0.
          5    1    3    3  502    0 -0.32359508965E+02 -0.21897966511E+02 -0.40749384104E+02  0.56609570415E+02  0.41800000000E+01 0.  1.
         -5    1    3    3    0  502 -0.21330862315E+01  0.13585720391E+01  0.80498171447E+02  0.80646288081E+02  0.41800000000E+01 0.  1.
        -11    1    4    4    0    0  0.15818443021E+02  0.19660949764E+02 -0.30288593348E+02  0.39423025914E+02  0.00000000000E+00 0.  1.
         11    1    4    4    0    0  0.18674152175E+02  0.87844470798E+00  0.61054398358E+02  0.63852448531E+02  0.00000000000E+00 0. -1.
</event>
<event>
 8    1  0.6380238E-009  0.8651228E+02  0.7561462E-02  0.1311524E+00
         -1   -1    0    0    0  501 -0.00000000000E+00  0.00000000000E+00  0.37170182902E+02  0.37170182902E+02  0.00000000000E+00 0.  1.
          1   -1    0    0  501    0  0.00000000000E+00 -0.00000000000E+00 -0.49656814185E+03  0.49656814185E+03  0.00000000000E+00 0. -1.
         25    2    1    2    0    0 -0.11126381252E+02 -0.15603198581E+02 -0.39964576474E+03  0.41920422461E+03  0.12509271959E+03 0.  0.
         23    2    1    2    0    0  0.11126381252E+02  0.15603198581E+02 -0.59752194208E+02  0.11453410014E+03  0.95814817311E+02 0.  0.
          5    1    3    3  502    0  0.26042698258E+02 -0.48973212817E+02 -0.92051862277E+02  0.10755284959E+03  0.41800000000E+01 0.  1.
         -5    1    3    3    0  502 -0.37169079510E+02  0.33370014236E+02 -0.30759390246E+03  0.31165137502E+03  0.41800000000E+01 0.  1.
        -11    1    4    4    0    0  0.35317562766E+02  0.22797488004E+02  0.75017706120E+01  0.42700494860E+02  0.00000000000E+00 0.  1.
         11    1    4    4    0    0 -0.24191181514E+02 -0.71942894233E+01 -0.67253964820E+02  0.71833605279E+02  0.00000000000E+00 0. -1.
</event>
<event>
 8    1  0.6380238E-009  0.2214397E+03  0.7561462E-02  0.1132814E+00
         -2   -1    0    0    0  501 -0.00000000000E+00  0.00000000000E+00  0.49707934373E+03  0.49707934373E+03  0.00000000000E+00 0.  1.
          2   -1    0    0  501    0  0.00000000000E+00 -0.00000000000E+00 -0.17554043469E+03  0.17554043469E+03  0.00000000000E+00 0. -1.
         25    2    1    2    0    0  0.20347068635E+03 -0.72649486043E+02 -0.26804466610E+02  0.25108585487E+03  0.12508940426E+03 0.  0.
         23    2    1    2    0    0 -0.20347068635E+03  0.72649486043E+02  0.34834337565E+03  0.42153392355E+03  0.98333480131E+02 0.  0.
          5    1    3    3  502    0  0.13003478453E+03 -0.32610315794E+02 -0.75796474834E+02  0.15406185732E+03  0.41800000000E+01 0. -1.
         -5    1    3    3    0  502  0.73435901826E+02 -0.40039170249E+02  0.48992008224E+02  0.97023997553E+02  0.41800000000E+01 0. -1.
        -11    1    4    4    0    0 -0.19169602960E+03  0.47886443958E+02  0.24570356258E+03  0.31529465575E+03  0.00000000000E+00 0.  1.
         11    1    4    4    0    0 -0.11774656751E+02  0.24763042084E+02  0.10263981307E+03  0.10623926780E+03  0.00000000000E+00 0. -1.
</event>
<event>
 8    1  0.6380238E-009  0.1113126E+03  0.7561462E-02  0.1258158E+00
         -1   -1    0    0    0  501 -0.00000000000E+00  0.00000000000E+00  0.27525336238E+03  0.27525336238E+03  0.00000000000E+00 0.  1.
          1   -1    0    0  501    0  0.00000000000E+00 -0.00000000000E+00 -0.17263566686E+03  0.17263566686E+03  0.00000000000E+00 0. -1.
         25    2    1    2    0    0  0.42827567935E+02  0.10063675062E+03 -0.10287776594E+03  0.19542917501E+03  0.12508705597E+03 0.  0.
         23    2    1    2    0    0 -0.42827567935E+02 -0.10063675062E+03  0.20549546146E+03  0.25245985423E+03  0.97701776670E+02 0.  0.
          5    1    3    3  502    0  0.54450094048E+01  0.46310808826E+02 -0.11860087167E+03  0.12750677747E+03  0.41800000000E+01 0. -1.
         -5    1    3    3    0  502  0.37382558530E+02  0.54325941793E+02  0.15723105728E+02  0.67922397541E+02  0.41800000000E+01 0. -1.
        -11    1    4    4    0    0 -0.94299618783E+01 -0.32640048292E+02  0.16112155238E+03  0.16466466401E+03  0.00000000000E+00 0.  1.
         11    1    4    4    0    0 -0.33397606056E+02 -0.67996702326E+02  0.44373909086E+02  0.87795190216E+02  0.00000000000E+00 0. -1.
</event>
<event>
 8    1  0.6380238E-009  0.1007232E+03  0.7561462E-02  0.1278782E+00
          1   -1    0    0  501    0  0.00000000000E+00  0.00000000000E+00  0.68946851967E+02  0.68946851967E+02  0.00000000000E+00 0. -1.
         -1   -1    0    0    0  501 -0.00000000000E+00 -0.00000000000E+00 -0.22697266900E+03  0.22697266900E+03  0.00000000000E+00 0.  1.
         25    2    1    2    0    0  0.22831251994E+02 -0.54260761172E+02 -0.94918186874E+02  0.16769678164E+03  0.12508897675E+03 0.  0.
         23    2    1    2    0    0 -0.22831251994E+02  0.54260761172E+02 -0.63107630155E+02  0.12822273932E+03  0.94831437953E+02 0.  0.
          5    1    3    3  502    0 -0.18244517626E+02  0.29927426914E+02 -0.14910922169E+01  0.35330002280E+02  0.41800000000E+01 0.  1.
         -5    1    3    3    0  502  0.41075769620E+02 -0.84188188086E+02 -0.93427094658E+02  0.13236677936E+03  0.41800000000E+01 0.  1.
        -11    1    4    4    0    0 -0.34195001290E+02  0.29597688068E+02 -0.83026900307E+02  0.94545160780E+02  0.00000000000E+00 0.  1.
         11    1    4    4    0    0  0.11363749295E+02  0.24663073104E+02  0.19919270152E+02  0.33677578540E+02  0.00000000000E+00 0. -1.
</event>
<event>
 8    1  0.6380238E-009  0.1023992E+03  0.7561462E-02  0.1275330E+00
          1   -1    0    0  501    0  0.00000000000E+00  0.00000000000E+00  0.30652978973E+03  0.30652978973E+03  0.00000000000E+00 0. -1.
         -1   -1    0    0    0  501 -0.00000000000E+00 -0.00000000000E+00 -0.55586835577E+02  0.55586835577E+02  0.00000000000E+00 0.  1.
         25    2    1    2    0    0  0.46379831272E+02  0.35965432872E+02  0.79084838759E+02  0.15921618829E+03  0.12510308462E+03 0.  0.
         23    2    1    2    0    0 -0.46379831272E+02 -0.35965432872E+02  0.17185811540E+03  0.20290043702E+03  0.90491847181E+02 0.  0.
          5    1    3    3  502    0 -0.95538845740E+01  0.40242510244E+02 -0.19340148381E+02  0.45850300768E+02  0.41800000000E+01 0.  1.
         -5    1    3    3    0  502  0.55933715846E+02 -0.42770773721E+01  0.98424987139E+02  0.11336588752E+03  0.41800000000E+01 0.  1.
        -11    1    4    4    0    0 -0.25194384662E+02  0.29132493396E+02  0.74721827651E+02  0.84064324880E+02  0.00000000000E+00 0.  1.
         11    1    4    4    0    0 -0.21185446610E+02 -0.65097926268E+02  0.97136287745E+02  0.11883611214E+03  0.00000000000E+00 0. -1.
</event>
<event>
 8    1  0.6380238E-009  0.6791673E+02  0.7561462E-02  0.1367324E+00
         -1   -1    0    0    0  501 -0.00000000000E+00  0.00000000000E+00  0.10629022969E+03  0.10629022969E+03  0.00000000000E+00 0.  1.
          1   -1    0    0  501    0  0.00000000000E+00 -0.00000000000E+00 -0.13904912545E+03  0.13904912545E+03  0.00000000000E+00 0. -1.
         25    2    1    2    0    0 -0.25817240330E+02 -0.19947898035E+02 -0.55969021326E+02  0.14086783054E+03  0.12508703290E+03 0.  0.
         23    2    1    2    0    0  0.25817240330E+02  0.19947898035E+02  0.23210125562E+02  0.10447152459E+03  0.96494253654E+02 0.  0.
          5    1    3    3  502    0  0.30768971031E+01 -0.38750343226E+02  0.29261856055E+02  0.48834260675E+02  0.41800000000E+01 0. -1.
         -5    1    3    3    0  502 -0.28894137433E+02  0.18802445190E+02 -0.85230877381E+02  0.92033569866E+02  0.41800000000E+01 0. -1.
        -11    1    4    4    0    0 -0.54184665083E+01 -0.14518583363E+02  0.48926031546E+02  0.51321590048E+02  0.00000000000E+00 0.  1.
         11    1    4    4    0    0  0.31235706839E+02  0.34466481398E+02 -0.25715905985E+02  0.53149934547E+02  0.00000000000E+00 0. -1.
</event>
<event>
 8    1  0.6380238E-009  0.2068500E+03  0.7561462E-02  0.1144085E+00
          1   -1    0    0  501    0  0.00000000000E+00  0.00000000000E+00  0.82077136654E+02  0.82077136654E+02  0.00000000000E+00 0. -1.
         -1   -1    0    0    0  501 -0.00000000000E+00 -0.00000000000E+00 -0.69180301513E+03  0.69180301513E+03  0.00000000000E+00 0.  1.
         25    2    1    2    0    0 -0.86830026842E+02 -0.17791463424E+03 -0.43665565737E+03  0.49548971828E+03  0.12509527237E+03 0.  0.
         23    2    1    2    0    0  0.86830026842E+02  0.17791463424E+03 -0.17307022110E+03  0.27839043350E+03  0.91404930914E+02 0.  0.
          5    1    3    3  502    0 -0.66073761390E+02 -0.17838250596E+03 -0.43433605140E+03  0.47418491996E+03  0.41800000000E+01 0. -1.
         -5    1    3    3    0  502 -0.20756265452E+02  0.46787171865E+00 -0.23196059721E+01  0.21304798317E+02  0.41800000000E+01 0. -1.
        -11    1    4    4    0    0 -0.52532281204E+00  0.33262956445E+02 -0.77303470769E+02  0.84157749664E+02  0.00000000000E+00 0.  1.
         11    1    4    4    0    0  0.87355349654E+02  0.14465167779E+03 -0.95766750335E+02  0.19423268384E+03  0.00000000000E+00 0. -1.
</event>
<event>
 8    1  0.6380238E-009  0.2636797E+03  0.7561462E-02  0.1104952E+00
         -1   -1    0    0    0  501 -0.00000000000E+00  0.00000000000E+00  0.43219851063E+03  0.43219851063E+03  0.00000000000E+00 0.  1.
          1   -1    0    0  501    0  0.00000000000E+00 -0.00000000000E+00 -0.19788413636E+03  0.19788413636E+03  0.00000000000E+00 0. -1.
         25    2    1    2    0    0  0.20999220134E+03  0.14979782188E+03  0.21065516245E+03  0.35575146833E+03  0.12508955869E+03 0.  0.
         23    2    1    2    0    0 -0.20999220134E+03 -0.14979782188E+03  0.23659211819E+02  0.27433117865E+03  0.90342267045E+02 0.  0.
          5    1    3    3  502    0  0.12403343836E+03  0.41037756480E+02  0.16335973545E+03  0.20921822783E+03  0.41800000000E+01 0. -1.
         -5    1    3    3    0  502  0.85958762972E+02  0.10876006540E+03  0.47295426998E+02  0.14653324051E+03  0.41800000000E+01 0. -1.
        -11    1    4    4    0    0 -0.16844304996E+03 -0.12125073703E+03  0.55334663026E+02  0.21479461642E+03  0.00000000000E+00 0.  1.
         11    1    4    4    0    0 -0.41549151373E+02 -0.28547084860E+02 -0.31675451207E+02  0.59536562236E+02  0.00000000000E+00 0. -1.
</event>
<event>
 8    1  0.6380238E-009  0.2098452E+03  0.7561462E-02  0.1141689E+00
         -2   -1    0    0    0  501 -0.00000000000E+00  0.00000000000E+00  0.28157485341E+02  0.28157485341E+02  0.00000000000E+00 0.  1.
          2   -1    0    0  501    0  0.00000000000E+00 -0.00000000000E+00 -0.17193925135E+04  0.17193925135E+04  0.00000000000E+00 0. -1.
         25    2    1    2    0    0  0.11106852360E+03 -0.15164807878E+03 -0.10053145602E+04  0.10303583693E+04  0.12509055705E+03 0.  0.
         23    2    1    2    0    0 -0.11106852360E+03  0.15164807878E+03 -0.68592046799E+03  0.71719162959E+03  0.92431533660E+02 0.  0.
          5    1    3    3  502    0  0.48644931130E+02 -0.24627063037E+01 -0.42876755750E+03  0.43154546112E+03  0.41800000000E+01 0. -1.
         -5    1    3    3    0  502  0.62423592474E+02 -0.14918537248E+03 -0.57654700268E+03  0.59881290815E+03  0.41800000000E+01 0. -1.
        -11    1    4    4    0    0 -0.48555845406E+02  0.13625953994E+03 -0.45273593945E+03  0.47528324525E+03  0.00000000000E+00 0.  1.
         11    1    4    4    0    0 -0.62512678197E+02  0.15388538841E+02 -0.23318452854E+03  0.24190838434E+03  0.00000000000E+00 0. -1.
</event>
<event>
 8    1  0.6380238E-009  0.8152340E+02  0.7561462E-02  0.1324783E+00
          2   -1    0    0  501    0  0.00000000000E+00  0.00000000000E+00  0.54632812496E+03  0.54632812496E+03  0.00000000000E+00 0. -1.
         -2   -1    0    0    0  501 -0.00000000000E+00 -0.00000000000E+00 -0.23149055465E+02  0.23149055465E+02  0.00000000000E+00 0.  1.
         25    2    1    2    0    0  0.17762415305E+01  0.25943216910E+02  0.27627195631E+03  0.30438410949E+03  0.12508911516E+03 0.  0.
         23    2    1    2    0    0 -0.17762415305E+01 -0.25943216910E+02  0.24690711318E+03  0.26509307093E+03  0.92924744691E+02 0.  0.
          5    1    3    3  502    0  0.47837883991E+02  0.27707124567E+02  0.54172267158E+02  0.77512933279E+02  0.41800000000E+01 0. -1.
         -5    1    3    3    0  502 -0.46061642461E+02 -0.17639076565E+01  0.22209968915E+03  0.22687117621E+03  0.41800000000E+01 0. -1.
        -11    1    4    4    0    0 -0.93410112421E+01 -0.42290202365E+02  0.24278141655E+03  0.24661413571E+03  0.00000000000E+00 0. -1.
         11    1    4    4    0    0  0.75647697115E+01  0.16346985455E+02  0.41256966322E+01  0.18478935223E+02  0.00000000000E+00 0.  1.
</event>
<event>
 8    1  0.6380238E-009  0.3881828E+03  0.7561462E-02  0.1047950E+00
         -2   -1    0    0    0  501 -0.00000000000E+00  0.00000000000E+00  0.33280051411E+03  0.33280051411E+03  0.00000000000E+00 0.  1.
          2   -1    0    0  501    0  0.00000000000E+00 -0.00000000000E+00 -0.56321864484E+03  0.56321864484E+03  0.00000000000E+00 0. -1.
         25    2    1    2    0    0 -0.18786166852E+03  0.33017698502E+03  0.66303419782E+02  0.40540153489E+03  0.12508162569E+03 0.  0.
         23    2    1    2    0    0  0.18786166852E+03 -0.33017698502E+03 -0.29672155052E+03  0.49061762405E+03  0.91395440581E+02 0.  0.
          5    1    3    3  502    0 -0.13546152663E+03  0.14431401920E+03  0.75862312470E+02  0.21201161334E+03  0.41800000000E+01 0.  1.
         -5    1    3    3    0  502 -0.52400141883E+02  0.18586296581E+03 -0.95588926871E+01  0.19338992156E+03  0.41800000000E+01 0.  1.
        -11    1    4    4    0    0  0.44173609999E+02 -0.14050072449E+03 -0.15424371326E+03  0.21326716691E+03  0.00000000000E+00 0. -1.
         11    1    4    4    0    0  0.14368805852E+03 -0.18967626053E+03 -0.14247783726E+03  0.27735045714E+03  0.00000000000E+00 0.  1.
</event>
<event>
 8    1  0.6380238E-009  0.9245080E+02  0.7561462E-02  0.1297023E+00
          1   -1    0    0  501    0  0.00000000000E+00  0.00000000000E+00  0.18294578266E+03  0.18294578266E+03  0.00000000000E+00 0. -1.
         -1   -1    0    0    0  501 -0.00000000000E+00 -0.00000000000E+00 -0.87707994258E+02  0.87707994258E+02  0.00000000000E+00 0.  1.
         25    2    1    2    0    0 -0.64498259669E+01  0.36371814493E+02  0.10994111827E+03  0.17058504827E+03  0.12509076730E+03 0.  0.
         23    2    1    2    0    0  0.64498259669E+01 -0.36371814493E+02 -0.14703329861E+02  0.10006872865E+03  0.91831657942E+02 0.  0.
          5    1    3    3  502    0 -0.59118791884E+02  0.72665555687E+01  0.21359646176E+02  0.63415623221E+02  0.41800000000E+01 0.  1.
         -5    1    3    3    0  502  0.52668965918E+02  0.29105258925E+02  0.88581472091E+02  0.10716942505E+03  0.41800000000E+01 0.  1.
        -11    1    4    4    0    0  0.23792804359E+02 -0.40565013423E+02 -0.44883434214E+02  0.65008772639E+02  0.00000000000E+00 0.  1.
         11    1    4    4    0    0 -0.17342978392E+02  0.41931989294E+01  0.30180104353E+02  0.35059956012E+02  0.00000000000E+00 0. -1.
</event>
<event>
 8    1  0.6380238E-009  0.9415374E+02  0.7561462E-02  0.1293094E+00
          4   -1    0    0  501    0  0.00000000000E+00  0.00000000000E+00  0.11021129709E+03  0.11021129709E+03  0.00000000000E+00 0. -1.
         -4   -1    0    0    0  501 -0.00000000000E+00 -0.00000000000E+00 -0.19168436528E+03  0.19168436528E+03  0.00000000000E+00 0.  1.
         25    2    1    2    0    0 -0.41594242416E+02 -0.69681319323E+02 -0.97155994830E+02  0.17796750563E+03  0.12509028125E+03 0.  0.
         23    2    1    2    0    0  0.41594242416E+02  0.69681319323E+02  0.15682926644E+02  0.12392815674E+03  0.92339951160E+02 0.  0.
          5    1    3    3  502    0 -0.27751333473E+02 -0.59153635875E+01  0.25883548224E+02  0.38633644723E+02  0.41800000000E+01 0.  1.
         -5    1    3    3    0  502 -0.13842908943E+02 -0.63765955735E+02 -0.12303954305E+03  0.13933386090E+03  0.41800000000E+01 0.  1.
        -11    1    4    4    0    0 -0.73542920849E+00  0.45471809685E+02 -0.32092511877E+02  0.55661078418E+02  0.00000000000E+00 0.  1.
         11    1    4    4    0    0  0.42329671625E+02  0.24209509638E+02  0.47775438521E+02  0.68267078322E+02  0.00000000000E+00 0. -1.
</event>
<event>
 8    1  0.6380238E-009  0.1713544E+03  0.7561462E-02  0.1176443E+00
         -4   -1    0    0    0  501 -0.00000000000E+00  0.00000000000E+00  0.22763771625E+03  0.22763771625E+03  0.00000000000E+00 0.  1.
          4   -1    0    0  501    0  0.00000000000E+00 -0.00000000000E+00 -0.17154292192E+03  0.17154292192E+03  0.00000000000E+00 0. -1.
         25    2    1    2    0    0 -0.13002790790E+03 -0.27932279941E+02 -0.58587589193E+02  0.19174755708E+03  0.12508857239E+03 0.  0.
         23    2    1    2    0    0  0.13002790790E+03  0.27932279941E+02  0.11468238352E+03  0.20743308109E+03  0.11040364552E+03 0.  0.
          5    1    3    3  502    0  0.80904447020E+01 -0.37689035996E+02 -0.32920654323E+02  0.50864138751E+02  0.41800000000E+01 0.  1.
         -5    1    3    3    0  502 -0.13811835260E+03  0.97567560548E+01 -0.25666934869E+02  0.14088341833E+03  0.41800000000E+01 0.  1.
        -11    1    4    4    0    0  0.47337606112E+02  0.60255509435E+02  0.83506006542E+02  0.11333502768E+03  0.00000000000E+00 0.  1.
         11    1    4    4    0    0  0.82690301791E+02 -0.32323229494E+02  0.31176376982E+02  0.94098053417E+02  0.00000000000E+00 0. -1.
</event>
<event>
 8    1  0.6380238E-009  0.1126923E+03  0.7561462E-02  0.1255664E+00
         -2   -1    0    0    0  501 -0.00000000000E+00  0.00000000000E+00  0.42101503831E+02  0.42101503831E+02  0.00000000000E+00 0.  1.
          2   -1    0    0  501    0  0.00000000000E+00 -0.00000000000E+00 -0.37261464555E+03  0.37261464555E+03  0.00000000000E+00 0. -1.
         25    2    1    2    0    0 -0.32097518899E+01  0.60258010398E+02 -0.15443694187E+03  0.20769993125E+03  0.12508861700E+03 0.  0.
         23    2    1    2    0    0  0.32097518899E+01 -0.60258010398E+02 -0.17607619984E+03  0.20701621813E+03  0.90617636753E+02 0.  0.
          5    1    3    3  502    0 -0.59709108888E+02  0.38010215304E+02 -0.11523738825E+03  0.13530366663E+03  0.41800000000E+01 0.  1.
         -5    1    3    3    0  502  0.56499356999E+02  0.22247795094E+02 -0.39199553620E+02  0.72396264626E+02  0.41800000000E+01 0.  1.
        -11    1    4    4    0    0 -0.23128180916E+02  0.46282729685E+01 -0.79525116571E+01  0.24891285720E+02  0.00000000000E+00 0.  1.
         11    1    4    4    0    0  0.26337932806E+02 -0.64886283367E+02 -0.16812368819E+03  0.18212493240E+03  0.00000000000E+00 0. -1.
</event>
<event>
 8    1  0.6380238E-009  0.1496534E+03  0.7561462E-02  0.1200900E+00
          2   -1    0    0  501    0  0.00000000000E+00  0.00000000000E+00  0.82923707369E+03  0.82923707369E+03  0.00000000000E+00 0. -1.
         -2   -1    0    0    0  501 -0.00000000000E+00 -0.00000000000E+00 -0.33905567661E+02  0.33905567661E+02  0.00000000000E+00 0.  1.
         25    2    1    2    0    0  0.23296580785E+02  0.10322834992E+03  0.61865543267E+03  0.63998497868E+03  0.12508959052E+03 0.  0.
         23    2    1    2    0    0 -0.23296580785E+02 -0.10322834992E+03  0.17667607336E+03  0.22315766267E+03  0.85942333048E+02 0.  0.
          5    1    3    3  502    0  0.41334314350E+02  0.12655595612E+03  0.52900670276E+03  0.54551856021E+03  0.41800000000E+01 0.  1.
         -5    1    3    3    0  502 -0.18037733565E+02 -0.23327606197E+02  0.89648729918E+02  0.94466418472E+02  0.41800000000E+01 0.  1.
        -11    1    4    4    0    0  0.46322064345E+01 -0.10790628820E+03  0.14057054189E+03  0.17727182973E+03  0.00000000000E+00 0.  1.
         11    1    4    4    0    0 -0.27928787220E+02  0.46779382815E+01  0.36105531471E+02  0.45885832944E+02  0.00000000000E+00 0. -1.
</event>
<event>
 8    1  0.6380238E-009  0.1072132E+03  0.7561462E-02  0.1265819E+00
         -2   -1    0    0    0  501 -0.00000000000E+00  0.00000000000E+00  0.34837183286E+02  0.34837183286E+02  0.00000000000E+00 0.  1.
          2   -1    0    0  501    0  0.00000000000E+00 -0.00000000000E+00 -0.75996695151E+03  0.75996695151E+03  0.00000000000E+00 0. -1.
         25    2    1    2    0    0 -0.87447336943E+02  0.48140187288E+02 -0.55600826928E+03  0.57858163831E+03  0.12508797827E+03 0.  0.
         23    2    1    2    0    0  0.87447336943E+02 -0.48140187288E+02 -0.16912149894E+03  0.21622249648E+03  0.90474152178E+02 0.  0.
          5    1    3    3  502    0 -0.14283918382E+02 -0.75089219946E+01 -0.17778563570E+01  0.16764468590E+02  0.41800000000E+01 0. -1.
         -5    1    3    3    0  502 -0.73163418561E+02  0.55649109283E+02 -0.55423041292E+03  0.56181716972E+03  0.41800000000E+01 0. -1.
        -11    1    4    4    0    0  0.32719789917E+02  0.19873839167E+00 -0.12863343968E+03  0.13272974780E+03  0.00000000000E+00 0.  1.
         11    1    4    4    0    0  0.54727547026E+02 -0.48338925680E+02 -0.40488059261E+02  0.83492748679E+02  0.00000000000E+00 0. -1.
</event>
<event>
 8    1  0.6380238E-009  0.3368505E+03  0.7561462E-02  0.1068145E+00
          1   -1    0    0  501    0  0.00000000000E+00  0.00000000000E+00  0.17055331857E+04  0.17055331857E+04  0.00000000000E+00 0. -1.
         -1   -1    0    0    0  501 -0.00000000000E+00 -0.00000000000E+00 -0.72759631072E+02  0.72759631072E+02  0.00000000000E+00 0.  1.
         25    2    1    2    0    0  0.33037270080E+03  0.13183147827E+02  0.69370725061E+03  0.77858660737E+03  0.12508972304E+03 0.  0.
         23    2    1    2    0    0 -0.33037270080E+03 -0.13183147827E+02  0.93906630405E+03  0.99970620943E+03  0.90813352298E+02 0.  0.
          5    1    3    3  502    0  0.25175648630E+03  0.75257058871E+01  0.38605465831E+03  0.46097032035E+03  0.41800000000E+01 0. -1.
         -5    1    3    3    0  502  0.78616214502E+02  0.56574419396E+01  0.30765259229E+03  0.31761628701E+03  0.41800000000E+01 0. -1.
        -11    1    4    4    0    0 -0.20747362880E+03 -0.52170150651E+02  0.58164617988E+03  0.61974132494E+03  0.00000000000E+00 0.  1.
         11    1    4    4    0    0 -0.12289907200E+03  0.38987002824E+02  0.35742012417E+03  0.37996488449E+03  0.00000000000E+00 0. -1.
</event>
<event>
 8    1  0.6380238E-009  0.1326564E+03  0.7561462E-02  0.1223566E+00
         -1   -1    0    0    0  501 -0.00000000000E+00  0.00000000000E+00  0.37768096956E+03  0.37768096956E+03  0.00000000000E+00 0.  1.
          1   -1    0    0  501    0  0.00000000000E+00 -0.00000000000E+00 -0.46985369975E+02  0.46985369975E+02  0.00000000000E+00 0. -1.
         25    2    1    2    0    0 -0.62313253246E+02 -0.38327080158E+02  0.17372575875E+03  0.22623108701E+03  0.12509180179E+03 0.  0.
         23    2    1    2    0    0  0.62313253246E+02  0.38327080158E+02  0.15696984084E+03  0.19843525252E+03  0.96876787252E+02 0.  0.
          5    1    3    3  502    0 -0.85371944781E+02 -0.65777255721E+02  0.14092170240E+03  0.17745820616E+03  0.41800000000E+01 0. -1.
         -5    1    3    3    0  502  0.23058691535E+02  0.27450175563E+02  0.32804056349E+02  0.48772880853E+02  0.41800000000E+01 0. -1.
        -11    1    4    4    0    0  0.25187545159E+02  0.68844520533E+02  0.96963914196E+02  0.12155649343E+03  0.00000000000E+00 0.  1.
         11    1    4    4    0    0  0.37125708087E+02 -0.30517440375E+02  0.60005926640E+02  0.76878759095E+02  0.00000000000E+00 0. -1.
</event>
<event>
 8    1  0.6380238E-009  0.3063039E+03  0.7561462E-02  0.1082131E+00
          1   -1    0    0  501    0  0.00000000000E+00  0.00000000000E+00  0.28232770541E+03  0.28232770541E+03  0.00000000000E+00 0. -1.
         -1   -1    0    0    0  501 -0.00000000000E+00 -0.00000000000E+00 -0.46739876356E+03  0.46739876356E+03  0.00000000000E+00 0.  1.
         25    2    1    2    0    0 -0.14105045651E+03  0.25526828734E+03 -0.28766952991E+03  0.42832039538E+03  0.12508985912E+03 0.  0.
         23    2    1    2    0    0  0.14105045651E+03 -0.25526828734E+03  0.10259847177E+03  0.32140607359E+03  0.87853787239E+02 0.  0.
          5    1    3    3  502    0  0.21262443223E+02  0.37515569238E+02 -0.22906690936E+02  0.49007125163E+02  0.41800000000E+01 0.  1.
         -5    1    3    3    0  502 -0.16231289973E+03  0.21775271810E+03 -0.26476283898E+03  0.37931327021E+03  0.41800000000E+01 0.  1.
        -11    1    4    4    0    0 -0.51312703156E+00 -0.40076983238E+02 -0.83608566726E+01  0.40943031264E+02  0.00000000000E+00 0.  1.
         11    1    4    4    0    0  0.14156358354E+03 -0.21519130410E+03  0.11095932844E+03  0.28046304233E+03  0.00000000000E+00 0. -1.
</event>
<event>
 8    1  0.6380238E-009  0.9888329E+02  0.7561462E-02  0.1282662E+00
         -2   -1    0    0    0  501 -0.00000000000E+00  0.00000000000E+00  0.37763002750E+03  0.37763002750E+03  0.00000000000E+00 0.  1.
          2   -1    0    0  501    0  0.00000000000E+00 -0.00000000000E+00 -0.37284419689E+02  0.37284419689E+02  0.00000000000E+00 0. -1.
         25    2    1    2    0    0  0.29031754233E+02 -0.35939355831E+02  0.16358456750E+03  0.21104983399E+03  0.12509053382E+03 0.  0.
         23    2    1    2    0    0 -0.29031754233E+02  0.35939355831E+02  0.17676104031E+03  0.20386461320E+03  0.90453496843E+02 0.  0.
          5    1    3    3  502    0 -0.57889663930E+01  0.25078787962E+02  0.13086417596E+03  0.13343673665E+03  0.41800000000E+01 0. -1.
         -5    1    3    3    0  502  0.34820720626E+02 -0.61018143792E+02  0.32720391543E+02  0.77613097345E+02  0.41800000000E+01 0. -1.
        -11    1    4    4    0    0  0.10396760928E+02  0.56081404984E+02  0.10664474895E+03  0.12093931992E+03  0.00000000000E+00 0.  1.
         11    1    4    4    0    0 -0.39428515161E+02 -0.20142049154E+02  0.70116291357E+02  0.82925293280E+02  0.00000000000E+00 0. -1.
</event>
<event>
 8    1  0.6380238E-009  0.9930815E+02  0.7561462E-02  0.1281758E+00
         -2   -1    0    0    0  501 -0.00000000000E+00  0.00000000000E+00  0.46714379096E+02  0.46714379096E+02  0.00000000000E+00 0.  1.
          2   -1    0    0  501    0  0.00000000000E+00 -0.00000000000E+00 -0.28127467880E+03  0.28127467880E+03  0.00000000000E+00 0. -1.
         25    2    1    2    0    0 -0.33235064765E+02  0.53502393407E+00 -0.15843827910E+03  0.20459017354E+03  0.12509834150E+03 0.  0.
         23    2    1    2    0    0  0.33235064765E+02 -0.53502393407E+00 -0.76122020600E+02  0.12339888435E+03  0.91257146890E+02 0.  0.
          5    1    3    3  502    0 -0.75758286078E+02 -0.15292961380E+02 -0.66762184163E+02  0.10221474557E+03  0.41800000000E+01 0. -1.
         -5    1    3    3    0  502  0.42523221313E+02  0.15827985314E+02 -0.91676094941E+02  0.10237542798E+03  0.41800000000E+01 0. -1.
        -11    1    4    4    0    0  0.20768831518E+02 -0.34054916976E+02 -0.77977817047E+02  0.87587794151E+02  0.00000000000E+00 0. -1.
         11    1    4    4    0    0  0.12466233247E+02  0.33519893042E+02  0.18557964465E+01  0.35811090201E+02  0.00000000000E+00 0.  1.
</event>
<event>
 8    1  0.6380238E-009  0.1007309E+03  0.7561462E-02  0.1278766E+00
          2   -1    0    0  501    0  0.00000000000E+00  0.00000000000E+00  0.56982934075E+02  0.56982934075E+02  0.00000000000E+00 0.  1.
         -2   -1    0    0    0  501 -0.00000000000E+00 -0.00000000000E+00 -0.21291354674E+03  0.21291354674E+03  0.00000000000E+00 0. -1.
         25    2    1    2    0    0  0.43618024065E+00 -0.17428786491E+02 -0.81083808735E+02  0.15008643250E+03  0.12508956923E+03 0.  0.
         23    2    1    2    0    0 -0.43618024065E+00  0.17428786491E+02 -0.74846803932E+02  0.11981004831E+03  0.91915454446E+02 0.  0.
          5    1    3    3  502    0  0.40500920727E+02 -0.45346187801E+02 -0.71191776372E+01  0.61357610921E+02  0.41800000000E+01 0.  1.
         -5    1    3    3    0  502 -0.40064740486E+02  0.27917401310E+02 -0.73964631098E+02  0.88728821583E+02  0.41800000000E+01 0.  1.
        -11    1    4    4    0    0  0.38917709857E+02  0.31130998228E+02 -0.28205638121E+02  0.57265043552E+02  0.00000000000E+00 0.  1.
         11    1    4    4    0    0 -0.39353890097E+02 -0.13702211737E+02 -0.46641165810E+02  0.62545004760E+02  0.00000000000E+00 0. -1.
</event>
<event>
 8    1  0.6380238E-009  0.1420472E+03  0.7561462E-02  0.1210601E+00
          3   -1    0    0  501    0  0.00000000000E+00  0.00000000000E+00  0.18682310059E+03  0.18682310059E+03  0.00000000000E+00 0. -1.
         -3   -1    0    0    0  501 -0.00000000000E+00 -0.00000000000E+00 -0.18310042706E+03  0.18310042706E+03  0.00000000000E+00 0.  1.
         25    2    1    2    0    0  0.11755490390E+03  0.20757443955E+02 -0.97221889168E+02  0.19836771086E+03  0.12509047152E+03 0.  0.
         23    2    1    2    0    0 -0.11755490390E+03 -0.20757443955E+02  0.10094456270E+03  0.17155581679E+03  0.70651019992E+02 0.  0.
          5    1    3    3  502    0  0.11215651817E+03  0.46293987650E+02 -0.11442308764E+03  0.16683025279E+03  0.41800000000E+01 0.  1.
         -5    1    3    3    0  502  0.53983857336E+01 -0.25536543695E+02  0.17201198474E+02  0.31537458067E+02  0.41800000000E+01 0.  1.
        -11    1    4    4    0    0 -0.10344154967E+03 -0.41257079171E+02  0.68804099349E+02  0.13090570983E+03  0.00000000000E+00 0.  1.
         11    1    4    4    0    0 -0.14113354237E+02  0.20499635216E+02  0.32140463346E+02  0.40650106961E+02  0.00000000000E+00 0. -1.
</event>
<event>
 8    1  0.6380238E-009  0.1092210E+03  0.7561462E-02  0.1262019E+00
          4   -1    0    0  501    0  0.00000000000E+00  0.00000000000E+00  0.93775023728E+03  0.93775023728E+03  0.00000000000E+00 0. -1.
         -4   -1    0    0    0  501 -0.00000000000E+00 -0.00000000000E+00 -0.13649580113E+02  0.13649580113E+02  0.00000000000E+00 0.  1.
         25    2    1    2    0    0  0.26062040605E+02  0.14026970481E+02  0.56807163048E+03  0.58243254211E+03  0.12508518254E+03 0.  0.
         23    2    1    2    0    0 -0.26062040605E+02 -0.14026970481E+02  0.35602902669E+03  0.36896727528E+03  0.92218200614E+02 0.  0.
          5    1    3    3  502    0 -0.38988784705E+02 -0.30384353986E+02  0.22778421320E+03  0.23312326028E+03  0.41800000000E+01 0. -1.
         -5    1    3    3    0  502  0.65050825310E+02  0.44411324467E+02  0.34028741728E+03  0.34930928183E+03  0.41800000000E+01 0. -1.
        -11    1    4    4    0    0 -0.57111378053E+02 -0.14435076924E+02  0.29102970363E+03  0.29693159034E+03  0.00000000000E+00 0. -1.
         11    1    4    4    0    0  0.31049337448E+02  0.40810644356E+00  0.64999323058E+02  0.72035684941E+02  0.00000000000E+00 0.  1.
</event>
<event>
 8    1  0.6380238E-009  0.1209346E+03  0.7561462E-02  0.1241563E+00
         -2   -1    0    0    0  501 -0.00000000000E+00  0.00000000000E+00  0.26757529683E+03  0.26757529683E+03  0.00000000000E+00 0.  1.
          2   -1    0    0  501    0  0.00000000000E+00 -0.00000000000E+00 -0.71955636666E+02  0.71955636666E+02  0.00000000000E+00 0. -1.
         25    2    1    2    0    0  0.26539090734E+02 -0.85067529025E+02  0.12689084191E+03  0.19922269317E+03  0.12509031891E+03 0.  0.
         23    2    1    2    0    0 -0.26539090734E+02  0.85067529025E+02  0.68728818255E+02  0.14030824032E+03  0.83797040591E+02 0.  0.
          5    1    3    3  502    0  0.52844272077E+02 -0.10354661330E+03  0.76233973380E+02  0.13908094519E+03  0.41800000000E+01 0.  1.
         -5    1    3    3    0  502 -0.26305181342E+02  0.18479084280E+02  0.50656868527E+02  0.60141747981E+02  0.41800000000E+01 0.  1.
        -11    1    4    4    0    0 -0.26810467871E+02  0.40582633943E+02 -0.10208508476E+02  0.49698742544E+02  0.00000000000E+00 0. -1.
         11    1    4    4    0    0  0.27137713620E+00  0.44484895082E+02  0.78937326730E+02  0.90609497777E+02  0.00000000000E+00 0.  1.
</event>
<event>
 8    1  0.6380238E-009  0.9281609E+02  0.7561462E-02  0.1296172E+00
          1   -1    0    0  501    0  0.00000000000E+00  0.00000000000E+00  0.12394649690E+04  0.12394649690E+04  0.00000000000E+00 0. -1.
         -1   -1    0    0    0  501 -0.00000000000E+00 -0.00000000000E+00 -0.12297740080E+02  0.12297740080E+02  0.00000000000E+00 0.  1.
         25    2    1    2    0    0  0.41592145991E+02 -0.41763403772E+02  0.68704155535E+03  0.70081971247E+03  0.12509229433E+03 0.  0.
         23    2    1    2    0    0 -0.41592145991E+02  0.41763403772E+02  0.54012567358E+03  0.55094299662E+03  0.91259814623E+02 0.  0.
          5    1    3    3  502    0 -0.11331055468E+02 -0.11663635182E+02  0.72402221470E+01  0.18284595167E+02  0.41800000000E+01 0.  1.
         -5    1    3    3    0  502  0.52923201460E+02 -0.30099768590E+02  0.67980133320E+03  0.68253511730E+03  0.41800000000E+01 0.  1.
        -11    1    4    4    0    0 -0.57350181606E+02 -0.58630933558E+01  0.32231257898E+03  0.32742757637E+03  0.00000000000E+00 0.  1.
         11    1    4    4    0    0  0.15758035614E+02  0.47626497127E+02  0.21781309460E+03  0.22351542026E+03  0.00000000000E+00 0. -1.
</event>
<event>
 8    1  0.6380238E-009  0.1250235E+03  0.7561462E-02  0.1235033E+00
         -3   -1    0    0    0  501 -0.00000000000E+00  0.00000000000E+00  0.63246004933E+03  0.63246004933E+03  0.00000000000E+00 0.  1.
          3   -1    0    0  501    0  0.00000000000E+00 -0.00000000000E+00 -0.39061390581E+02  0.39061390581E+02  0.00000000000E+00 0. -1.
         25    2    1    2    0    0  0.98457643204E+02 -0.75773134120E+01  0.45880912527E+03  0.48570201130E+03  0.12509719087E+03 0.  0.
         23    2    1    2    0    0 -0.98457643204E+02  0.75773134120E+01  0.13458953347E+03  0.18581942861E+03  0.81628391775E+02 0.  0.
          5    1    3    3  502    0 -0.14998808435E+02  0.16257236346E+02  0.20970497236E+03  0.21090971960E+03  0.41800000000E+01 0.  1.
         -5    1    3    3    0  502  0.11345645164E+03 -0.23834549758E+02  0.24910415291E+03  0.27479229170E+03  0.41800000000E+01 0.  1.
        -11    1    4    4    0    0 -0.63170987552E+02  0.29778650179E+02  0.35555166858E+02  0.78367796735E+02  0.00000000000E+00 0. -1.
         11    1    4    4    0    0 -0.35286655652E+02 -0.22201336767E+02  0.99034366614E+02  0.10745163187E+03  0.00000000000E+00 0.  1.
</event>
<event>
 8    1  0.6380238E-009  0.9511647E+02  0.7561462E-02  0.1290914E+00
          2   -1    0    0  501    0  0.00000000000E+00  0.00000000000E+00  0.54145635699E+03  0.54145635699E+03  0.00000000000E+00 0. -1.
         -2   -1    0    0    0  501 -0.00000000000E+00 -0.00000000000E+00 -0.23461004568E+02  0.23461004568E+02  0.00000000000E+00 0.  1.
         25    2    1    2    0    0  0.25116594019E+02 -0.24929145825E+02  0.30661812143E+03  0.33303898590E+03  0.12509191873E+03 0.  0.
         23    2    1    2    0    0 -0.25116594019E+02  0.24929145825E+02  0.21137723099E+03  0.23187837566E+03  0.88515206094E+02 0.  0.
          5    1    3    3  502    0  0.57707257525E+02 -0.55865531225E+02  0.15196641242E+03  0.17193704677E+03  0.41800000000E+01 0.  1.
         -5    1    3    3    0  502 -0.32590663506E+02  0.30936385400E+02  0.15465170901E+03  0.16110193913E+03  0.41800000000E+01 0.  1.
        -11    1    4    4    0    0  0.84253624355E+01  0.29631446123E+02  0.18255029824E+02  0.35808594574E+02  0.00000000000E+00 0.  1.
         11    1    4    4    0    0 -0.33541956455E+02 -0.47023002977E+01  0.19312220117E+03  0.19606978109E+03  0.00000000000E+00 0. -1.
</event>
<event>
 8    1  0.6380238E-009  0.2429841E+03  0.7561462E-02  0.1117821E+00
          2   -1    0    0  501    0  0.00000000000E+00  0.00000000000E+00  0.10083477782E+04  0.10083477782E+04  0.00000000000E+00 0. -1.
         -2   -1    0    0    0  501 -0.00000000000E+00 -0.00000000000E+00 -0.62197818978E+02  0.62197818978E+02  0.00000000000E+00 0.  1.
         25    2    1    2    0    0 -0.19352875825E+03  0.11423373897E+03  0.44550610402E+03  0.51442273477E+03  0.12510928799E+03 0.  0.
         23    2    1    2    0    0  0.19352875825E+03 -0.11423373897E+03  0.50064385523E+03  0.55612286243E+03  0.90142337219E+02 0.  0.
          5    1    3    3  502    0 -0.21037823174E+03  0.11500246902E+03  0.41327799741E+03  0.47780827098E+03  0.41800000000E+01 0. -1.
         -5    1    3    3    0  502  0.16849473497E+02 -0.76873005351E+00  0.32228106607E+02  0.36614463788E+02  0.41800000000E+01 0. -1.
        -11    1    4    4    0    0  0.16786806034E+03 -0.79850022290E+02  0.46345210172E+03  0.49934313085E+03  0.00000000000E+00 0.  1.
         11    1    4    4    0    0  0.25660697907E+02 -0.34383716678E+02  0.37191753511E+02  0.56779731585E+02  0.00000000000E+00 0. -1.
</event>
<event>
 8    1  0.6380238E-009  0.9990471E+02  0.7561462E-02  0.1280496E+00
          2   -1    0    0  501    0  0.00000000000E+00  0.00000000000E+00  0.80473980822E+02  0.80473980822E+02  0.00000000000E+00 0. -1.
         -2   -1    0    0    0  501 -0.00000000000E+00 -0.00000000000E+00 -0.15932666485E+03  0.15932666485E+03  0.00000000000E+00 0.  1.
         25    2    1    2    0    0  0.22671458859E+01 -0.24146179279E+02 -0.70415111590E+02  0.14558004282E+03  0.12508830083E+03 0.  0.
         23    2    1    2    0    0 -0.22671458859E+01  0.24146179279E+02 -0.84375724382E+01  0.94220602850E+02  0.90654020586E+02 0.  0.
          5    1    3    3  502    0  0.14755337243E+02 -0.72894324201E+02 -0.27810740426E+02  0.79512339677E+02  0.41800000000E+01 0. -1.
         -5    1    3    3    0  502 -0.12488191357E+02  0.48748144921E+02 -0.42604371164E+02  0.66067703146E+02  0.41800000000E+01 0. -1.
        -11    1    4    4    0    0 -0.29623141575E+02  0.34590630044E+02 -0.32804295484E+02  0.56126321863E+02  0.00000000000E+00 0.  1.
         11    1    4    4    0    0  0.27355995689E+02 -0.10444450765E+02  0.24366723046E+02  0.38094280987E+02  0.00000000000E+00 0. -1.
</event>
<event>
 8    1  0.6380238E-009  0.6699347E+02  0.7561462E-02  0.1370626E+00
         -3   -1    0    0    0  501 -0.00000000000E+00  0.00000000000E+00  0.51312364873E+03  0.51312364873E+03  0.00000000000E+00 0.  1.
          3   -1    0    0  501    0  0.00000000000E+00 -0.00000000000E+00 -0.27157002299E+02  0.27157002299E+02  0.00000000000E+00 0. -1.
         25    2    1    2    0    0 -0.26146960705E+02  0.38318367223E+02  0.28215146783E+03  0.31210801523E+03  0.12509996624E+03 0.  0.
         23    2    1    2    0    0  0.26146960705E+02 -0.38318367223E+02  0.20381517860E+03  0.22817263579E+03  0.91488599707E+02 0.  0.
          5    1    3    3  502    0 -0.31587886339E+01  0.24174051290E+01 -0.12811556632E+02  0.14050984896E+02  0.41800000000E+01 0.  1.
         -5    1    3    3    0  502 -0.22988172071E+02  0.35900962094E+02  0.29496302446E+03  0.29805703034E+03  0.41800000000E+01 0.  1.
        -11    1    4    4    0    0  0.31893268682E+01 -0.56194935844E+02  0.63422936900E+02  0.84796884055E+02  0.00000000000E+00 0. -1.
         11    1    4    4    0    0  0.22957633837E+02  0.17876568621E+02  0.14039224170E+03  0.14337575174E+03  0.00000000000E+00 0.  1.
</event>
<event>
 8    1  0.6380238E-009  0.1584282E+03  0.7561462E-02  0.1190483E+00
          2   -1    0    0  501    0  0.00000000000E+00  0.00000000000E+00  0.60579815847E+02  0.60579815847E+02  0.00000000000E+00 0. -1.
         -2   -1    0    0    0  501 -0.00000000000E+00 -0.00000000000E+00 -0.57937231448E+03  0.57937231448E+03  0.00000000000E+00 0.  1.
         25    2    1    2    0    0 -0.12319548477E+03  0.56716335232E+02 -0.15355024517E+03  0.24003862666E+03  0.12508794646E+03 0.  0.
         23    2    1    2    0    0  0.12319548477E+03 -0.56716335232E+02 -0.36524225347E+03  0.39991350367E+03  0.90194437458E+02 0.  0.
          5    1    3    3  502    0 -0.13121169695E+03  0.61922807666E+02 -0.79968106310E+02  0.16572059001E+03  0.41800000000E+01 0. -1.
         -5    1    3    3    0  502  0.80162121834E+01 -0.52064724338E+01 -0.73582138857E+02  0.74318036652E+02  0.41800000000E+01 0. -1.
        -11    1    4    4    0    0  0.37911085961E+02 -0.65353569987E+02 -0.19926152935E+03  0.21310442658E+03  0.00000000000E+00 0.  1.
         11    1    4    4    0    0  0.85284398806E+02  0.86372347551E+01 -0.16598072412E+03  0.18680907709E+03  0.00000000000E+00 0. -1.
</event>
<event>
 8    1  0.6380238E-009  0.1156134E+03  0.7561462E-02  0.1250514E+00
          1   -1    0    0  501    0  0.00000000000E+00  0.00000000000E+00  0.33357816614E+02  0.33357816614E+02  0.00000000000E+00 0. -1.
         -1   -1    0    0    0  501 -0.00000000000E+00 -0.00000000000E+00 -0.44648005762E+03  0.44648005762E+03  0.00000000000E+00 0.  1.
         25    2    1    2    0    0 -0.36701588004E+02  0.40353236880E+02 -0.20565851949E+03  0.24681521122E+03  0.12508769548E+03 0.  0.
         23    2    1    2    0    0  0.36701588004E+02 -0.40353236880E+02 -0.20746372151E+03  0.23302266302E+03  0.91010853457E+02 0.  0.
          5    1    3    3  502    0 -0.44663147994E+02 -0.37007237666E+02 -0.97685407968E+02  0.11368484401E+03  0.41800000000E+01 0. -1.
         -5    1    3    3    0  502  0.79615599899E+01  0.77360474546E+02 -0.10797311153E+03  0.13313036720E+03  0.41800000000E+01 0. -1.
        -11    1    4    4    0    0 -0.52392544614E+00  0.22304411839E+02 -0.10462255973E+03  0.10697495637E+03  0.00000000000E+00 0.  1.
         11    1    4    4    0    0  0.37225513450E+02 -0.62657648719E+02 -0.10284116178E+03  0.12604770665E+03  0.00000000000E+00 0. -1.
</event>
<event>
 8    1  0.6380238E-009  0.2226675E+03  0.7561462E-02  0.1131910E+00
         -1   -1    0    0    0  501 -0.00000000000E+00  0.00000000000E+00  0.36852164677E+02  0.36852164677E+02  0.00000000000E+00 0.  1.
          1   -1    0    0  501    0  0.00000000000E+00 -0.00000000000E+00 -0.15225151884E+04  0.15225151884E+04  0.00000000000E+00 0. -1.
         25    2    1    2    0    0 -0.20104954121E+03 -0.16346504016E+02 -0.95946333550E+03  0.98838618618E+03  0.12509690108E+03 0.  0.
         23    2    1    2    0    0  0.20104954121E+03  0.16346504016E+02 -0.52619968820E+03  0.57098116687E+03  0.91898067657E+02 0.  0.
          5    1    3    3  502    0 -0.10587905478E+03  0.53336344762E+02 -0.44304319381E+03  0.45865006693E+03  0.41800000000E+01 0.  1.
         -5    1    3    3    0  502 -0.95170486438E+02 -0.69682848778E+02 -0.51642014168E+03  0.52973611925E+03  0.41800000000E+01 0.  1.
        -11    1    4    4    0    0  0.14757834533E+02 -0.13512612459E+02 -0.12168655054E+02  0.23419234432E+02  0.00000000000E+00 0.  1.
         11    1    4    4    0    0  0.18629170668E+03  0.29859116475E+02 -0.51403103314E+03  0.54756193243E+03  0.00000000000E+00 0. -1.
</event>
<event>
 8    1  0.6380238E-009  0.1014555E+03  0.7561462E-02  0.1277265E+00
         -3   -1    0    0    0  501 -0.00000000000E+00  0.00000000000E+00  0.15939633932E+03  0.15939633932E+03  0.00000000000E+00 0.  1.
          3   -1    0    0  501    0  0.00000000000E+00 -0.00000000000E+00 -0.78542676830E+02  0.78542676830E+02  0.00000000000E+00 0. -1.
         25    2    1    2    0    0 -0.23328251523E+02 -0.48672912489E+02  0.42190954659E+02  0.14260756244E+03  0.12507429985E+03 0.  0.
         23    2    1    2    0    0  0.23328251523E+02  0.48672912489E+02  0.38662707834E+02  0.95331453708E+02  0.68410681621E+02 0.  0.
          5    1    3    3  502    0  0.15215006754E+02 -0.77859307389E+02  0.17874844748E+01  0.79462165075E+02  0.41800000000E+01 0. -1.
         -5    1    3    3    0  502 -0.38543258277E+02  0.29186394901E+02  0.40403470184E+02  0.63145397368E+02  0.41800000000E+01 0. -1.
        -11    1    4    4    0    0 -0.48807767150E+01  0.46383853258E+02 -0.94711828593E+00  0.46649553668E+02  0.00000000000E+00 0. -1.
         11    1    4    4    0    0  0.28209028238E+02  0.22890592308E+01  0.39609826120E+02  0.48681900040E+02  0.00000000000E+00 0.  1.
</event>
<event>
 8    1  0.6380238E-009  0.1374215E+03  0.7561462E-02  0.1216841E+00
          1   -1    0    0  501    0  0.00000000000E+00  0.00000000000E+00  0.35708085920E+03  0.35708085920E+03  0.00000000000E+00 0. -1.
         -1   -1    0    0    0  501 -0.00000000000E+00 -0.00000000000E+00 -0.67346760462E+02  0.67346760462E+02  0.00000000000E+00 0.  1.
         25    2    1    2    0    0 -0.87193878787E+02 -0.57229973886E+02  0.20450370375E+03  0.26143341898E+03  0.12509046847E+03 0.  0.
         23    2    1    2    0    0  0.87193878787E+02  0.57229973886E+02  0.85230394981E+02  0.16299420068E+03  0.91786964308E+02 0.  0.
          5    1    3    3  502    0 -0.11556307113E+03 -0.26133640384E+02  0.16763639878E+03  0.20532224712E+03  0.41800000000E+01 0. -1.
         -5    1    3    3    0  502  0.28369192340E+02 -0.31096333502E+02  0.36867304978E+02  0.56111171861E+02  0.41800000000E+01 0. -1.
        -11    1    4    4    0    0  0.53521708424E+02  0.59757190684E+02  0.10393466786E+02  0.80892022245E+02  0.00000000000E+00 0.  1.
         11    1    4    4    0    0  0.33672170363E+02 -0.25272167979E+01  0.74836928195E+02  0.82102178432E+02  0.00000000000E+00 0. -1.
</event>
<event>
 8    1  0.6380238E-009  0.1015587E+03  0.7561462E-02  0.1277052E+00
          2   -1    0    0  501    0  0.00000000000E+00  0.00000000000E+00  0.88537165933E+03  0.88537165933E+03  0.00000000000E+00 0. -1.
         -2   -1    0    0    0  501 -0.00000000000E+00 -0.00000000000E+00 -0.16909876677E+02  0.16909876677E+02  0.00000000000E+00 0.  1.
         25    2    1    2    0    0 -0.23420484014E+02 -0.37605061870E+02  0.64048212232E+03  0.65408554289E+03  0.12509152113E+03 0.  0.
         23    2    1    2    0    0  0.23420484014E+02  0.37605061870E+02  0.22797966033E+03  0.24819599311E+03  0.87543507602E+02 0.  0.
          5    1    3    3  502    0  0.40543428796E+02 -0.52892598599E+02  0.32952067973E+03  0.33621830315E+03  0.41800000000E+01 0. -1.
         -5    1    3    3    0  502 -0.63963912810E+02  0.15287536729E+02  0.31096144260E+03  0.31786723974E+03  0.41800000000E+01 0. -1.
        -11    1    4    4    0    0  0.29368191066E+02 -0.28944934017E+01  0.18668240357E+02  0.34919506534E+02  0.00000000000E+00 0.  1.
         11    1    4    4    0    0 -0.59477070520E+01  0.40499555272E+02  0.20931141997E+03  0.21327648658E+03  0.00000000000E+00 0. -1.
</event>
<event>
 8    1  0.6380238E-009  0.1380558E+03  0.7561462E-02  0.1215969E+00
         -3   -1    0    0    0  501 -0.00000000000E+00  0.00000000000E+00  0.24490421443E+03  0.24490421443E+03  0.00000000000E+00 0.  1.
          3   -1    0    0  501    0  0.00000000000E+00 -0.00000000000E+00 -0.12301720699E+03  0.12301720699E+03  0.00000000000E+00 0. -1.
         25    2    1    2    0    0 -0.46388743039E+02  0.10540262129E+03  0.14031216770E+03  0.22044676641E+03  0.12509054464E+03 0.  0.
         23    2    1    2    0    0  0.46388743039E+02 -0.10540262129E+03 -0.18425160264E+02  0.14747465502E+03  0.90264385488E+02 0.  0.
          5    1    3    3  502    0  0.22058270245E+02 -0.11590391930E+02  0.54219404870E+02  0.59817394926E+02  0.41800000000E+01 0.  1.
         -5    1    3    3    0  502 -0.68447013284E+02  0.11699301322E+03  0.86092762832E+02  0.16062937148E+03  0.41800000000E+01 0.  1.
        -11    1    4    4    0    0  0.10695767765E+02 -0.28934965296E+02  0.35730123991E+02  0.47204591145E+02  0.00000000000E+00 0.  1.
         11    1    4    4    0    0  0.35692975273E+02 -0.76467655994E+02 -0.54155284255E+02  0.10027006388E+03  0.00000000000E+00 0. -1.
</event>
<event>
 8    1  0.6380238E-009  0.1139870E+03  0.7561462E-02  0.1253360E+00
          2   -1    0    0  501    0  0.00000000000E+00  0.00000000000E+00  0.80855657747E+02  0.80855657747E+02  0.00000000000E+00 0.  1.
         -2   -1    0    0    0  501 -0.00000000000E+00 -0.00000000000E+00 -0.19827852103E+03  0.19827852103E+03  0.00000000000E+00 0. -1.
         25    2    1    2    0    0 -0.59622654317E+02 -0.16969892762E+02 -0.75655839102E+02  0.15878703269E+03  0.12508668031E+03 0.  0.
         23    2    1    2    0    0  0.59622654317E+02  0.16969892762E+02 -0.41767024184E+02  0.12034714609E+03  0.94319208518E+02 0.  0.
          5    1    3    3  502    0  0.72187921410E+01  0.38692249169E+02  0.52407619884E+01  0.39926671436E+02  0.41800000000E+01 0. -1.
         -5    1    3    3    0  502 -0.66841446458E+02 -0.55662141931E+02 -0.80896601090E+02  0.11886036125E+03  0.41800000000E+01 0. -1.
        -11    1    4    4    0    0  0.30294464419E+01  0.40069188486E+02 -0.43469953579E+02  0.59197586740E+02  0.00000000000E+00 0. -1.
         11    1    4    4    0    0  0.56593207875E+02 -0.23099295724E+02  0.17029293950E+01  0.61149559353E+02  0.00000000000E+00 0.  1.
</event>
<event>
 8    1  0.6380238E-009  0.1927538E+03  0.7561462E-02  0.1156001E+00
          4   -1    0    0  501    0  0.00000000000E+00  0.00000000000E+00  0.21596815421E+03  0.21596815421E+03  0.00000000000E+00 0. -1.
         -4   -1    0    0    0  501 -0.00000000000E+00 -0.00000000000E+00 -0.17825298822E+03  0.17825298822E+03  0.00000000000E+00 0.  1.
         25    2    1    2    0    0  0.12408059859E+03 -0.10216967492E+03 -0.87062808937E+01  0.20385845251E+03  0.12509129431E+03 0.  0.
         23    2    1    2    0    0 -0.12408059859E+03  0.10216967492E+03  0.46421446878E+02  0.19036268992E+03  0.90820512892E+02 0.  0.
          5    1    3    3  502    0  0.10706655973E+03 -0.12972429119E+03  0.52808481321E+01  0.16833597267E+03  0.41800000000E+01 0.  1.
         -5    1    3    3    0  502  0.17014038860E+02  0.27554616266E+02 -0.13987129026E+02  0.35522479844E+02  0.41800000000E+01 0.  1.
        -11    1    4    4    0    0 -0.60506006199E+02 -0.42321852540E+01  0.14149633532E+02  0.62282423742E+02  0.00000000000E+00 0.  1.
         11    1    4    4    0    0 -0.63574592392E+02  0.10640186018E+03  0.32271813346E+02  0.12808026617E+03  0.00000000000E+00 0. -1.
</event>
<event>
 8    1  0.6380238E-009  0.1257987E+03  0.7561462E-02  0.1233826E+00
          2   -1    0    0  501    0  0.00000000000E+00  0.00000000000E+00  0.36313841033E+03  0.36313841033E+03  0.00000000000E+00 0. -1.
         -2   -1    0    0    0  501 -0.00000000000E+00 -0.00000000000E+00 -0.69248402073E+02  0.69248402073E+02  0.00000000000E+00 0.  1.
         25    2    1    2    0    0  0.68971349636E+02 -0.76778000648E+02  0.87836253333E+02  0.18443340509E+03  0.12509422473E+03 0.  0.
         23    2    1    2    0    0 -0.68971349636E+02  0.76778000648E+02  0.20605375493E+03  0.24795340731E+03  0.91492261008E+02 0.  0.
          5    1    3    3  502    0  0.68926410224E+01  0.95141968556E+01  0.76428816225E+02  0.77439426596E+02  0.41800000000E+01 0.  1.
         -5    1    3    3    0  502  0.62078708613E+02 -0.86292197504E+02  0.11407437108E+02  0.10699397850E+03  0.41800000000E+01 0.  1.
        -11    1    4    4    0    0 -0.82021330504E+02  0.35361269600E+02  0.10428369307E+03  0.13730625144E+03  0.00000000000E+00 0. -1.
         11    1    4    4    0    0  0.13049980868E+02  0.41416731048E+02  0.10177006186E+03  0.11064715587E+03  0.00000000000E+00 0.  1.
</event>
<event>
 8    1  0.6380238E-009  0.1227563E+03  0.7561462E-02  0.1238618E+00
          2   -1    0    0  501    0  0.00000000000E+00  0.00000000000E+00  0.41648266084E+02  0.41648266084E+02  0.00000000000E+00 0.  1.
         -2   -1    0    0    0  501 -0.00000000000E+00 -0.00000000000E+00 -0.43824453129E+03  0.43824453129E+03  0.00000000000E+00 0. -1.
         25    2    1    2    0    0 -0.25967299478E+02 -0.53591684091E+02 -0.12239112907E+03  0.18486422890E+03  0.12509526532E+03 0.  0.
         23    2    1    2    0    0  0.25967299478E+02  0.53591684091E+02 -0.27420513613E+03  0.29502856847E+03  0.91142911341E+02 0.  0.
          5    1    3    3  502    0 -0.73338732349E+02 -0.10188775598E+02 -0.65094512533E+02  0.98676992114E+02  0.41800000000E+01 0.  1.
         -5    1    3    3    0  502  0.47371432871E+02 -0.43402908492E+02 -0.57296616536E+02  0.86187236783E+02  0.41800000000E+01 0.  1.
        -11    1    4    4    0    0  0.59143979398E+02  0.30496871569E+02 -0.14274033435E+03  0.15748927749E+03  0.00000000000E+00 0. -1.
         11    1    4    4    0    0 -0.33176679919E+02  0.23094812522E+02 -0.13146480178E+03  0.13753929098E+03  0.00000000000E+00 0.  1.
</event>
<event>
 8    1  0.6380238E-009  0.8266258E+02  0.7561462E-02  0.1321661E+00
          1   -1    0    0  501    0  0.00000000000E+00  0.00000000000E+00  0.22385100473E+03  0.22385100473E+03  0.00000000000E+00 0. -1.
         -1   -1    0    0    0  501 -0.00000000000E+00 -0.00000000000E+00 -0.51552429796E+02  0.51552429796E+02  0.00000000000E+00 0.  1.
         25    2    1    2    0    0 -0.90608518755E+01 -0.13014532712E+02  0.89552057826E+02  0.15465649256E+03  0.12509029751E+03 0.  0.
         23    2    1    2    0    0  0.90608518755E+01  0.13014532712E+02  0.82746517112E+02  0.12074694197E+03  0.86494859981E+02 0.  0.
          5    1    3    3  502    0  0.53825659873E+02  0.11158640653E+02  0.22597452716E+02  0.59580484986E+02  0.41800000000E+01 0. -1.
         -5    1    3    3    0  502 -0.62886511749E+02 -0.24173173365E+02  0.66954605110E+02  0.95076007572E+02  0.41800000000E+01 0. -1.
        -11    1    4    4    0    0  0.13109573851E+02  0.25986039335E+02  0.96869861364E+02  0.10114793724E+03  0.00000000000E+00 0. -1.
         11    1    4    4    0    0 -0.40487219752E+01 -0.12971506623E+02 -0.14123344252E+02  0.19599004734E+02  0.00000000000E+00 0.  1.
</event>
<event>
 8    1  0.6380238E-009  0.1116133E+03  0.7561462E-02  0.1257611E+00
          1   -1    0    0  501    0  0.00000000000E+00  0.00000000000E+00  0.36721189094E+03  0.36721189094E+03  0.00000000000E+00 0. -1.
         -1   -1    0    0    0  501 -0.00000000000E+00 -0.00000000000E+00 -0.71540138405E+02  0.71540138405E+02  0.00000000000E+00 0.  1.
         25    2    1    2    0    0  0.46368587870E+02 -0.61745916112E+02  0.32333754020E+02  0.15051890706E+03  0.12509142910E+03 0.  0.
         23    2    1    2    0    0 -0.46368587870E+02  0.61745916112E+02  0.26333799852E+03  0.28823312229E+03  0.88140950893E+02 0.  0.
          5    1    3    3  502    0  0.29201419429E+02  0.27346185250E+02 -0.20807802094E+02  0.45287677931E+02  0.41800000000E+01 0.  1.
         -5    1    3    3    0  502  0.17167168441E+02 -0.89092101361E+02  0.53141556114E+02  0.10523122913E+03  0.41800000000E+01 0.  1.
        -11    1    4    4    0    0 -0.23303394554E+02  0.64842414775E+02  0.25396230531E+03  0.26314338196E+03  0.00000000000E+00 0. -1.
         11    1    4    4    0    0 -0.23065193316E+02 -0.30964986632E+01  0.93756932075E+01  0.25089740329E+02  0.00000000000E+00 0.  1.
</event>
<event>
 8    1  0.6380238E-009  0.8732041E+02  0.7561462E-02  0.1309474E+00
         -1   -1    0    0    0  501 -0.00000000000E+00  0.00000000000E+00  0.60754095344E+02  0.60754095344E+02  0.00000000000E+00 0.  1.
          1   -1    0    0  501    0  0.00000000000E+00 -0.00000000000E+00 -0.32270356537E+03  0.32270356537E+03  0.00000000000E+00 0. -1.
         25    2    1    2    0    0  0.13785230215E+01 -0.61505035773E+01 -0.26346195593E+03  0.29171786937E+03  0.12508950422E+03 0.  0.
         23    2    1    2    0    0 -0.13785230215E+01  0.61505035773E+01  0.15124859039E+01  0.91739791346E+02  0.91510505859E+02 0.  0.
          5    1    3    3  502    0  0.58392700997E+01  0.57136355031E+02 -0.88743330957E+02  0.10578993965E+03  0.41800000000E+01 0.  1.
         -5    1    3    3    0  502 -0.44607470782E+01 -0.63286858608E+02 -0.17471862497E+03  0.18592792972E+03  0.41800000000E+01 0.  1.
        -11    1    4    4    0    0 -0.81444113350E+01 -0.22555547013E+02  0.37931678200E+02  0.44876456502E+02  0.00000000000E+00 0.  1.
         11    1    4    4    0    0  0.67658883134E+01  0.28706050591E+02 -0.36419192297E+02  0.46863334844E+02  0.00000000000E+00 0. -1.
</event>
<event>
 8    1  0.6380238E-009  0.7538526E+02  0.7561462E-02  0.1342682E+00
          1   -1    0    0  501    0  0.00000000000E+00  0.00000000000E+00  0.61295544990E+03  0.61295544990E+03  0.00000000000E+00 0. -1.
         -1   -1    0    0    0  501 -0.00000000000E+00 -0.00000000000E+00 -0.22113372918E+02  0.22113372918E+02  0.00000000000E+00 0.  1.
         25    2    1    2    0    0  0.10449753194E+02 -0.32363459062E+02  0.38466359258E+03  0.40591845479E+03  0.12508845534E+03 0.  0.
         23    2    1    2    0    0 -0.10449753194E+02  0.32363459062E+02  0.20617848441E+03  0.22915036803E+03  0.94041123515E+02 0.  0.
          5    1    3    3  502    0  0.29460421608E+01 -0.53706963542E+02  0.37818909708E+03  0.38201777792E+03  0.41800000000E+01 0. -1.
         -5    1    3    3    0  502  0.75037110332E+01  0.21343504480E+02  0.64744954949E+01  0.23900676867E+02  0.41800000000E+01 0. -1.
        -11    1    4    4    0    0 -0.20475948868E+02 -0.15011600581E+02  0.10340320810E+02  0.27414136290E+02  0.00000000000E+00 0.  1.
         11    1    4    4    0    0  0.10026195675E+02  0.47375059643E+02  0.19583816360E+03  0.20173623174E+03  0.00000000000E+00 0. -1.
</event>
<event>
 8    1  0.6380238E-009  0.1403640E+03  0.7561462E-02  0.1212840E+00
          2   -1    0    0  501    0  0.00000000000E+00  0.00000000000E+00  0.11323626416E+04  0.11323626416E+04  0.00000000000E+00 0.  1.
         -2   -1    0    0    0  501 -0.00000000000E+00 -0.00000000000E+00 -0.19710341833E+02  0.19710341833E+02  0.00000000000E+00 0. -1.
         25    2    1    2    0    0  0.85562429532E+02 -0.33498745029E+02  0.76904658054E+03  0.78455236023E+03  0.12508664050E+03 0.  0.
         23    2    1    2    0    0 -0.85562429532E+02  0.33498745029E+02  0.34360571920E+03  0.36752062318E+03  0.92538764467E+02 0.  0.
          5    1    3    3  502    0  0.57836205987E+02 -0.79352672129E+02  0.41692621906E+03  0.42835361308E+03  0.41800000000E+01 0.  1.
         -5    1    3    3    0  502  0.27726223546E+02  0.45853927100E+02  0.35212036148E+03  0.35619874715E+03  0.41800000000E+01 0.  1.
        -11    1    4    4    0    0  0.17964659350E+02  0.15272540789E+02  0.88941544793E+02  0.92014009139E+02  0.00000000000E+00 0. -1.
         11    1    4    4    0    0 -0.10352708888E+03  0.18226204240E+02  0.25466417441E+03  0.27550661404E+03  0.00000000000E+00 0.  1.
</event>
<event>
 8    1  0.6380238E-009  0.9701812E+02  0.7561462E-02  0.1286694E+00
          2   -1    0    0  501    0  0.00000000000E+00  0.00000000000E+00  0.21608983133E+03  0.21608983133E+03  0.00000000000E+00 0. -1.
         -2   -1    0    0    0  501 -0.00000000000E+00 -0.00000000000E+00 -0.75147171902E+02  0.75147171902E+02  0.00000000000E+00 0.  1.
         25    2    1    2    0    0 -0.44251296758E+01  0.34485537616E+02  0.14486869398E+03  0.19453364194E+03  0.12509022853E+03 0.  0.
         23    2    1    2    0    0  0.44251296758E+01 -0.34485537616E+02 -0.39260345499E+01  0.96703361291E+02  0.90151496163E+02 0.  0.
          5    1    3    3  502    0  0.61331636437E+01 -0.43602870270E+02  0.83788997367E+02  0.94746474720E+02  0.41800000000E+01 0. -1.
         -5    1    3    3    0  502 -0.10558293319E+02  0.78088407887E+02  0.61079696613E+02  0.99787167223E+02  0.41800000000E+01 0. -1.
        -11    1    4    4    0    0 -0.28709846170E+02 -0.14013688297E+02  0.30906701468E+02  0.44450679662E+02  0.00000000000E+00 0. -1.
         11    1    4    4    0    0  0.33134975846E+02 -0.20471849320E+02 -0.34832736018E+02  0.52252681629E+02  0.00000000000E+00 0.  1.
</event>
<event>
 8    1  0.6380238E-009  0.1214272E+03  0.7561462E-02  0.1240761E+00
          2   -1    0    0  501    0  0.00000000000E+00  0.00000000000E+00  0.47658324498E+02  0.47658324498E+02  0.00000000000E+00 0. -1.
         -2   -1    0    0    0  501 -0.00000000000E+00 -0.00000000000E+00 -0.41762359942E+03  0.41762359942E+03  0.00000000000E+00 0.  1.
         25    2    1    2    0    0 -0.37993627217E+02 -0.36259861720E+02 -0.94571651059E+02  0.16537473399E+03  0.12508681856E+03 0.  0.
         23    2    1    2    0    0  0.37993627217E+02  0.36259861720E+02 -0.27539362386E+03  0.29990718992E+03  0.10651000527E+03 0.  0.
          5    1    3    3  502    0  0.29871843279E+02  0.19769651426E+02  0.78484703217E-01  0.36064452002E+02  0.41800000000E+01 0. -1.
         -5    1    3    3    0  502 -0.67865470497E+02 -0.56029513146E+02 -0.94650135762E+02  0.12931028199E+03  0.41800000000E+01 0. -1.
        -11    1    4    4    0    0 -0.19301934567E+02 -0.27093401125E+02 -0.72643402649E+02  0.79897941219E+02  0.00000000000E+00 0. -1.
         11    1    4    4    0    0  0.57295561784E+02  0.63353262845E+02 -0.20275022121E+03  0.22000924870E+03  0.00000000000E+00 0.  1.
</event>
<event>
 8    1  0.6380238E-009  0.6013969E+02  0.7561462E-02  0.1397246E+00
          1   -1    0    0  501    0  0.00000000000E+00  0.00000000000E+00  0.84176145097E+01  0.84176145097E+01  0.00000000000E+00 0. -1.
         -1   -1    0    0    0  501 -0.00000000000E+00 -0.00000000000E+00 -0.15816314334E+04  0.15816314334E+04  0.00000000000E+00 0.  1.
         25    2    1    2    0    0  0.22268232495E+01 -0.22809948652E+02 -0.11588360315E+04  0.11657933905E+04  0.12509208223E+03 0.  0.
         23    2    1    2    0    0 -0.22268232495E+01  0.22809948652E+02 -0.41437778747E+03  0.42425565744E+03  0.88083253946E+02 0.  0.
          5    1    3    3  502    0 -0.43474037547E+01 -0.20158935048E+02 -0.28493074991E+02  0.35420478598E+02  0.41800000000E+01 0. -1.
         -5    1    3    3    0  502  0.65742270043E+01 -0.26510136045E+01 -0.11303429565E+04  0.11303729119E+04  0.41800000000E+01 0. -1.
        -11    1    4    4    0    0  0.28092930059E+02  0.45268275864E+02 -0.24527719678E+03  0.25099667882E+03  0.00000000000E+00 0.  1.
         11    1    4    4    0    0 -0.30319753309E+02 -0.22458327212E+02 -0.16910059069E+03  0.17325897862E+03  0.00000000000E+00 0. -1.
</event>
<event>
 8    1  0.6380238E-009  0.1074891E+03  0.7561462E-02  0.1265292E+00
          1   -1    0    0  501    0  0.00000000000E+00  0.00000000000E+00  0.59564746651E+03  0.59564746651E+03  0.00000000000E+00 0. -1.
         -1   -1    0    0    0  501 -0.00000000000E+00 -0.00000000000E+00 -0.30215048249E+02  0.30215048249E+02  0.00000000000E+00 0.  1.
         25    2    1    2    0    0  0.17662583532E+02  0.52731215904E+02  0.44169202423E+03  0.46241989841E+03  0.12509104762E+03 0.  0.
         23    2    1    2    0    0 -0.17662583532E+02 -0.52731215904E+02  0.12374039403E+03  0.16344261634E+03  0.91155119083E+02 0.  0.
          5    1    3    3  502    0  0.39995246246E+02 -0.16029831325E+02  0.60398674721E+02  0.74310480571E+02  0.41800000000E+01 0. -1.
         -5    1    3    3    0  502 -0.22332662714E+02  0.68761047229E+02  0.38129334951E+03  0.38810941784E+03  0.41800000000E+01 0. -1.
        -11    1    4    4    0    0 -0.48297301531E+02 -0.14801711225E+02  0.92917217697E+02  0.10576071735E+03  0.00000000000E+00 0. -1.
         11    1    4    4    0    0  0.30634717999E+02 -0.37929504679E+02  0.30823176334E+02  0.57681898993E+02  0.00000000000E+00 0.  1.
</event>
<event>
 8    1  0.6380238E-009  0.9264746E+02  0.7561462E-02  0.1296564E+00
         -2   -1    0    0    0  501 -0.00000000000E+00  0.00000000000E+00  0.74504398900E+03  0.74504398900E+03  0.00000000000E+00 0.  1.
          2   -1    0    0  501    0  0.00000000000E+00 -0.00000000000E+00 -0.18595696367E+02  0.18595696367E+02  0.00000000000E+00 0. -1.
         25    2    1    2    0    0  0.16441681681E+02  0.35499599234E+02  0.33641634304E+03  0.36105892974E+03  0.12512811212E+03 0.  0.
         23    2    1    2    0    0 -0.16441681681E+02 -0.35499599234E+02  0.39003194960E+03  0.40258075563E+03  0.91737629424E+02 0.  0.
          5    1    3    3  502    0  0.34179447711E+02  0.51838395111E+02  0.70579715539E+02  0.94097940993E+02  0.41800000000E+01 0. -1.
         -5    1    3    3    0  502 -0.17737766029E+02 -0.16338795878E+02  0.26583662750E+03  0.26696098875E+03  0.41800000000E+01 0. -1.
        -11    1    4    4    0    0 -0.46824407200E+02  0.59426039810E+01  0.15653752545E+03  0.16349873554E+03  0.00000000000E+00 0. -1.
         11    1    4    4    0    0  0.30382725519E+02 -0.41442203215E+02  0.23349442415E+03  0.23908202008E+03  0.00000000000E+00 0.  1.
</event>
<event>
 8    1  0.6380238E-009  0.8578509E+02  0.7561462E-02  0.1313392E+00
         -2   -1    0    0    0  501 -0.00000000000E+00  0.00000000000E+00  0.30028308275E+02  0.30028308275E+02  0.00000000000E+00 0.  1.
          2   -1    0    0  501    0  0.00000000000E+00 -0.00000000000E+00 -0.58997608634E+03  0.58997608634E+03  0.00000000000E+00 0. -1.
         25    2    1    2    0    0 -0.53766478668E+02  0.38041066627E+02 -0.40197630025E+03  0.42610977585E+03  0.12508652257E+03 0.  0.
         23    2    1    2    0    0  0.53766478668E+02 -0.38041066627E+02 -0.15797147781E+03  0.19389461877E+03  0.91116290564E+02 0.  0.
          5    1    3    3  502    0 -0.31106037182E+02 -0.92550561137E+01 -0.35209186326E+03  0.35360909799E+03  0.41800000000E+01 0.  1.
         -5    1    3    3    0  502 -0.22660441486E+02  0.47296122741E+02 -0.49884436998E+02  0.72500677854E+02  0.41800000000E+01 0.  1.
        -11    1    4    4    0    0  0.32857906275E+01 -0.35543680583E+02 -0.13264077899E+03  0.13735984093E+03  0.00000000000E+00 0. -1.
         11    1    4    4    0    0  0.50480688041E+02 -0.24973860445E+01 -0.25330698820E+02  0.56534777835E+02  0.00000000000E+00 0.  1.
</event>
<event>
 8    1  0.6380238E-009  0.1090018E+03  0.7561462E-02  0.1262430E+00
         -1   -1    0    0    0  501 -0.00000000000E+00  0.00000000000E+00  0.14635192631E+03  0.14635192631E+03  0.00000000000E+00 0.  1.
          1   -1    0    0  501    0  0.00000000000E+00 -0.00000000000E+00 -0.11377796483E+03  0.11377796483E+03  0.00000000000E+00 0. -1.
         25    2    1    2    0    0 -0.58944740400E+02 -0.36603256741E+02  0.27443003682E+02  0.14565669315E+03  0.12509385670E+03 0.  0.
         23    2    1    2    0    0  0.58944740400E+02  0.36603256741E+02  0.51309577949E+01  0.11447319798E+03  0.90903825573E+02 0.  0.
          5    1    3    3  502    0  0.79010379040E+01  0.38144407311E+02  0.22480965236E+02  0.45169551769E+02  0.41800000000E+01 0.  1.
         -5    1    3    3    0  502 -0.66845778304E+02 -0.74747664051E+02  0.49620384456E+01  0.10048714139E+03  0.41800000000E+01 0.  1.
        -11    1    4    4    0    0  0.46612974210E+02  0.79753695427E+01  0.44037813622E+02  0.64619694464E+02  0.00000000000E+00 0.  1.
         11    1    4    4    0    0  0.12331766191E+02  0.28627887198E+02 -0.38906855827E+02  0.49853503520E+02  0.00000000000E+00 0. -1.
</event>
<event>
 8    1  0.6380238E-009  0.1068093E+03  0.7561462E-02  0.1266595E+00
         -2   -1    0    0    0  501 -0.00000000000E+00  0.00000000000E+00  0.66811384427E+02  0.66811384427E+02  0.00000000000E+00 0.  1.
          2   -1    0    0  501    0  0.00000000000E+00 -0.00000000000E+00 -0.42430805565E+03  0.42430805565E+03  0.00000000000E+00 0. -1.
         25    2    1    2    0    0  0.90769252742E+02  0.18359915234E+02 -0.32036635664E+03  0.35617548370E+03  0.12510087527E+03 0.  0.
         23    2    1    2    0    0 -0.90769252742E+02 -0.18359915234E+02 -0.37130314583E+02  0.13494395638E+03  0.90857401298E+02 0.  0.
          5    1    3    3  502    0  0.71210906683E+02  0.44540662131E+02 -0.31064237741E+03  0.32182452184E+03  0.41800000000E+01 0.  1.
         -5    1    3    3    0  502  0.19558346059E+02 -0.26180746897E+02 -0.97239792253E+01  0.34350961859E+02  0.41800000000E+01 0.  1.
        -11    1    4    4    0    0 -0.65586305821E+02 -0.25548372887E+02  0.19084583331E+02  0.72928075454E+02  0.00000000000E+00 0.  1.
         11    1    4    4    0    0 -0.25182946920E+02  0.71884576524E+01 -0.56214897915E+02  0.62015880922E+02  0.00000000000E+00 0. -1.
</event>
<event>
 8    1  0.6380238E-009  0.6843942E+02  0.7561462E-02  0.1365482E+00
          2   -1    0    0  501    0  0.00000000000E+00  0.00000000000E+00  0.50355815324E+03  0.50355815324E+03  0.00000000000E+00 0. -1.
         -2   -1    0    0    0  501 -0.00000000000E+00 -0.00000000000E+00 -0.28219068787E+02  0.28219068787E+02  0.00000000000E+00 0.  1.
         25    2    1    2    0    0 -0.42459899661E+02 -0.58807903066E+01  0.33088181967E+03  0.35632587850E+03  0.12509167171E+03 0.  0.
         23    2    1    2    0    0  0.42459899661E+02  0.58807903066E+01  0.14445726478E+03  0.17545134352E+03  0.89876836952E+02 0.  0.
          5    1    3    3  502    0 -0.25187192280E+02 -0.21816245693E+02  0.33075541167E+03  0.33245594894E+03  0.41800000000E+01 0.  1.
         -5    1    3    3    0  502 -0.17272707382E+02  0.15935455386E+02  0.12640799414E+00  0.23869929569E+02  0.41800000000E+01 0.  1.
        -11    1    4    4    0    0 -0.11905156495E+02  0.19984267884E+02  0.10312868623E+03  0.10571958020E+03  0.00000000000E+00 0.  1.
         11    1    4    4    0    0  0.54365056157E+02 -0.14103477577E+02  0.41328578554E+02  0.69731763322E+02  0.00000000000E+00 0. -1.
</event>
<event>
 8    1  0.6380238E-009  0.8387910E+02  0.7561462E-02  0.1318390E+00
          1   -1    0    0  501    0  0.00000000000E+00  0.00000000000E+00  0.14289974017E+03  0.14289974017E+03  0.00000000000E+00 0. -1.
         -1   -1    0    0    0  501 -0.00000000000E+00 -0.00000000000E+00 -0.86583643916E+02  0.86583643916E+02  0.00000000000E+00 0.  1.
         25    2    1    2    0    0 -0.11595560937E+02 -0.58710422816E+01  0.54287380362E+02  0.13697636356E+03  0.12508588385E+03 0.  0.
         23    2    1    2    0    0  0.11595560937E+02  0.58710422816E+01  0.20287158958E+01  0.92507020527E+02  0.91566953578E+02 0.  0.
          5    1    3    3  502    0 -0.45094735961E+02  0.24927329784E+02  0.71426568557E+02  0.88171050110E+02  0.41800000000E+01 0. -1.
         -5    1    3    3    0  502  0.33499175025E+02 -0.30798372066E+02 -0.17139188196E+02  0.48805313453E+02  0.41800000000E+01 0. -1.
        -11    1    4    4    0    0 -0.19755748773E+02 -0.21175868419E+02 -0.28832149676E+02  0.40865631866E+02  0.00000000000E+00 0.  1.
         11    1    4    4    0    0  0.31351309710E+02  0.27046910701E+02  0.30860865572E+02  0.51641388661E+02  0.00000000000E+00 0. -1.
</event>
<event>
 8    1  0.6380238E-009  0.7998142E+02  0.7561462E-02  0.1329104E+00
         -4   -1    0    0    0  501 -0.00000000000E+00  0.00000000000E+00  0.98689168959E+02  0.98689168959E+02  0.00000000000E+00 0.  1.
          4   -1    0    0  501    0  0.00000000000E+00 -0.00000000000E+00 -0.14609167655E+03  0.14609167655E+03  0.00000000000E+00 0. -1.
         25    2    1    2    0    0  0.40398402353E+02  0.27431635673E+02 -0.12439839968E+02  0.13486413481E+03  0.12509620175E+03 0.  0.
         23    2    1    2    0    0 -0.40398402353E+02 -0.27431635673E+02 -0.34962667620E+02  0.10991671070E+03  0.92058511909E+02 0.  0.
          5    1    3    3  502    0 -0.11507956073E+02 -0.30272783974E+02 -0.40680338438E+02  0.52165475536E+02  0.41800000000E+01 0. -1.
         -5    1    3    3    0  502  0.51906358426E+02  0.57704419648E+02  0.28240498469E+02  0.82698659274E+02  0.41800000000E+01 0. -1.
        -11    1    4    4    0    0 -0.27073411619E+02 -0.23041066935E+02  0.28098149468E+02  0.45314085953E+02  0.00000000000E+00 0.  1.
         11    1    4    4    0    0 -0.13324990733E+02 -0.43905687382E+01 -0.63060817088E+02  0.64602624744E+02  0.00000000000E+00 0. -1.
</event>
<event>
 8    1  0.6380238E-009  0.3043997E+03  0.7561462E-02  0.1083062E+00
          2   -1    0    0  501    0  0.00000000000E+00  0.00000000000E+00  0.66479412206E+03  0.66479412206E+03  0.00000000000E+00 0. -1.
         -2   -1    0    0    0  501 -0.00000000000E+00 -0.00000000000E+00 -0.15332157442E+03  0.15332157442E+03  0.00000000000E+00 0.  1.
         25    2    1    2    0    0  0.26726769850E+03 -0.13583620575E+03  0.25289813992E+03  0.41168936028E+03  0.12508861954E+03 0.  0.
         23    2    1    2    0    0 -0.26726769850E+03  0.13583620575E+03  0.25857440772E+03  0.40642633621E+03  0.91859376133E+02 0.  0.
          5    1    3    3  502    0  0.81902291235E+02 -0.71441588730E+02  0.26287272367E+02  0.11189449941E+03  0.41800000000E+01 0.  1.
         -5    1    3    3    0  502  0.18536540726E+03 -0.64394617025E+02  0.22661086755E+03  0.29979486087E+03  0.41800000000E+01 0.  1.
        -11    1    4    4    0    0 -0.16473551181E+03  0.56630203272E+02  0.97214081255E+02  0.19948770982E+03  0.00000000000E+00 0. -1.
         11    1    4    4    0    0 -0.10253218669E+03  0.79206002483E+02  0.16136032647E+03  0.20693862639E+03  0.00000000000E+00 0.  1.
</event>
<event>
 8    1  0.6380238E-009  0.4164223E+03  0.7561462E-02  0.1038237E+00
          1   -1    0    0  501    0  0.00000000000E+00  0.00000000000E+00  0.69594832516E+03  0.69594832516E+03  0.00000000000E+00 0. -1.
         -1   -1    0    0    0  501 -0.00000000000E+00 -0.00000000000E+00 -0.28593895263E+03  0.28593895263E+03  0.00000000000E+00 0.  1.
         25    2    1    2    0    0  0.37529449388E+03  0.16436680556E+03  0.35827174276E+03  0.55845361546E+03  0.12509754213E+03 0.  0.
         23    2    1    2    0    0 -0.37529449388E+03 -0.16436680556E+03  0.51737629765E+02  0.42343366234E+03  0.93578203466E+02 0.  0.
          5    1    3    3  502    0  0.29348156895E+03  0.10094592323E+03  0.19983534357E+03  0.36915193034E+03  0.41800000000E+01 0. -1.
         -5    1    3    3    0  502  0.81812924928E+02  0.63420882322E+02  0.15843639919E+03  0.18930168512E+03  0.41800000000E+01 0. -1.
        -11    1    4    4    0    0 -0.20638734457E+03 -0.42866739869E+02  0.87579787213E+01  0.21097392156E+03  0.00000000000E+00 0.  1.
         11    1    4    4    0    0 -0.16890714931E+03 -0.12150006569E+03  0.42979651043E+02  0.21245974078E+03  0.00000000000E+00 0. -1.
</event>
<event>
 8    1  0.6380238E-009  0.1241029E+03  0.7561462E-02  0.1236478E+00
          1   -1    0    0  501    0  0.00000000000E+00  0.00000000000E+00  0.68258240201E+03  0.68258240201E+03  0.00000000000E+00 0. -1.
         -1   -1    0    0    0  501 -0.00000000000E+00 -0.00000000000E+00 -0.26011687542E+02  0.26011687542E+02  0.00000000000E+00 0.  1.
         25    2    1    2    0    0 -0.71961472238E+02 -0.14295616688E+02  0.41896285772E+03  0.44335027788E+03  0.12508706808E+03 0.  0.
         23    2    1    2    0    0  0.71961472238E+02  0.14295616688E+02  0.23760785675E+03  0.26524381167E+03  0.92271165056E+02 0.  0.
          5    1    3    3  502    0 -0.59377127584E+02  0.43344423726E+02  0.13996426431E+03  0.15815135166E+03  0.41800000000E+01 0. -1.
         -5    1    3    3    0  502 -0.12584344654E+02 -0.57640040415E+02  0.27899859342E+03  0.28519892622E+03  0.41800000000E+01 0. -1.
        -11    1    4    4    0    0  0.89087543731E+02 -0.54925726453E+01  0.15829908116E+03  0.18172880316E+03  0.00000000000E+00 0.  1.
         11    1    4    4    0    0 -0.17126071493E+02  0.19788189333E+02  0.79308775590E+02  0.83515008517E+02  0.00000000000E+00 0. -1.
</event>
<event>
 8    1  0.6380238E-009  0.4457836E+03  0.7561462E-02  0.1028987E+00
         -1   -1    0    0    0  501 -0.00000000000E+00  0.00000000000E+00  0.80134061730E+02  0.80134061730E+02  0.00000000000E+00 0.  1.
          1   -1    0    0  501    0  0.00000000000E+00 -0.00000000000E+00 -0.25042144503E+04  0.25042144503E+04  0.00000000000E+00 0. -1.
         25    2    1    2    0    0 -0.20507034586E+03 -0.38259161591E+03 -0.11849192078E+04  0.12681131093E+04  0.12508851870E+03 0.  0.
         23    2    1    2    0    0  0.20507034586E+03  0.38259161591E+03 -0.12391611808E+04  0.13162354028E+04  0.92330993263E+02 0.  0.
          5    1    3    3  502    0 -0.21953744406E+03 -0.37222074331E+03 -0.11143828273E+04  0.11952453845E+04  0.41800000000E+01 0. -1.
         -5    1    3    3    0  502  0.14467098197E+02 -0.10370872599E+02 -0.70536380559E+02  0.72867724756E+02  0.41800000000E+01 0. -1.
        -11    1    4    4    0    0  0.58261489132E+02  0.47110495979E+02 -0.16096453291E+03  0.17754824923E+03  0.00000000000E+00 0. -1.
         11    1    4    4    0    0  0.14680885673E+03  0.33548111993E+03 -0.10781966479E+04  0.11386871536E+04  0.00000000000E+00 0.  1.
</event>
<event>
 8    1  0.6380238E-009  0.6557705E+02  0.7561462E-02  0.1375814E+00
          2   -1    0    0  501    0  0.00000000000E+00  0.00000000000E+00  0.89190780157E+02  0.89190780157E+02  0.00000000000E+00 0. -1.
         -2   -1    0    0    0  501 -0.00000000000E+00 -0.00000000000E+00 -0.13837093063E+03  0.13837093063E+03  0.00000000000E+00 0.  1.
         25    2    1    2    0    0  0.79986674845E+00 -0.19722756170E+02 -0.50549569546E+02  0.13635369191E+03  0.12508974146E+03 0.  0.
         23    2    1    2    0    0 -0.79986674845E+00  0.19722756170E+02  0.13694190713E+01  0.91208018881E+02  0.89035950615E+02 0.  0.
          5    1    3    3  502    0  0.40171163951E+02 -0.35371582297E+02 -0.71089705249E+02  0.89084734045E+02  0.41800000000E+01 0. -1.
         -5    1    3    3    0  502 -0.39371297203E+02  0.15648826127E+02  0.20540135704E+02  0.47268957862E+02  0.41800000000E+01 0. -1.
        -11    1    4    4    0    0 -0.14118842583E+02  0.48494902764E+01  0.42739826710E+02  0.45271978740E+02  0.00000000000E+00 0. -1.
         11    1    4    4    0    0  0.13318975834E+02  0.14873265893E+02 -0.41370407639E+02  0.45936040141E+02  0.00000000000E+00 0.  1.
</event>
<event>
 8    1  0.6380238E-009  0.1306486E+03  0.7561462E-02  0.1226496E+00
         -2   -1    0    0    0  501 -0.00000000000E+00  0.00000000000E+00  0.49883585686E+02  0.49883585686E+02  0.00000000000E+00 0.  1.
          2   -1    0    0  501    0  0.00000000000E+00 -0.00000000000E+00 -0.47120188906E+03  0.47120188906E+03  0.00000000000E+00 0. -1.
         25    2    1    2    0    0  0.97393823295E+02  0.47520067702E+02 -0.22414789190E+03  0.27862866994E+03  0.12509174482E+03 0.  0.
         23    2    1    2    0    0 -0.97393823295E+02 -0.47520067702E+02 -0.19717041148E+03  0.24245680481E+03  0.90362699070E+02 0.  0.
          5    1    3    3  502    0 -0.13130356137E+02 -0.50817621736E+01 -0.11074560071E+03  0.11171522293E+03  0.41800000000E+01 0. -1.
         -5    1    3    3    0  502  0.11052417943E+03  0.52601829876E+02 -0.11340229119E+03  0.16691344701E+03  0.41800000000E+01 0. -1.
        -11    1    4    4    0    0 -0.42809475442E+01 -0.28854737944E+02 -0.71598180211E+01  0.30036401379E+02  0.00000000000E+00 0.  1.
         11    1    4    4    0    0 -0.93112875751E+02 -0.18665329758E+02 -0.19001059346E+03  0.21242040343E+03  0.00000000000E+00 0. -1.
</event>
<event>
 7    1  0.6380238E-009  0.8013806E+02  0.7561462E-02  0.1328660E+00
          1   -1    0    0  501    0  0.00000000000E+00  0.00000000000E+00  0.96523168432E+02  0.96523168432E+02  0.00000000000E+00 0. -1.
         -1   -1    0    0    0  501 -0.00000000000E+00 -0.00000000000E+00 -0.17179353825E+03  0.17179353825E+03  0.00000000000E+00 0.  1.
         23    2    1    2    0    0 -0.36700469916E+02  0.25488022209E+02 -0.90667155406E+02  0.13450618608E+03  0.88740167097E+02 0.  0.
          5    1    1    2  502    0  0.48284716617E+01 -0.48559127868E+02 -0.41713046787E+02  0.64333146279E+02  0.41800000000E+01 0.  1.
         -5    1    1    2    0  502  0.31871998254E+02  0.23071105658E+02  0.57109832375E+02  0.69477374323E+02  0.41800000000E+01 0.  1.
        -11    1    3    3    0    0 -0.48855614664E+02  0.66411824131E+01 -0.98986570697E+02  0.11058624492E+03  0.00000000000E+00 0.  1.
         11    1    3    3    0    0  0.12155144748E+02  0.18846839796E+02  0.83194152914E+01  0.23919941157E+02  0.00000000000E+00 0. -1.
</event>
<event>
 8    1  0.6380238E-009  0.1183832E+03  0.7561462E-02  0.1245788E+00
          1   -1    0    0  501    0  0.00000000000E+00  0.00000000000E+00  0.35800854057E+02  0.35800854057E+02  0.00000000000E+00 0. -1.
         -1   -1    0    0    0  501 -0.00000000000E+00 -0.00000000000E+00 -0.58011677825E+03  0.58011677825E+03  0.00000000000E+00 0.  1.
         25    2    1    2    0    0 -0.87174489699E+02 -0.10326242994E+02 -0.22017788216E+03  0.26801671159E+03  0.12509450407E+03 0.  0.
         23    2    1    2    0    0  0.87174489699E+02  0.10326242994E+02 -0.32413804203E+03  0.34790092072E+03  0.90904110998E+02 0.  0.
          5    1    3    3  502    0 -0.34698287848E+02  0.47652499158E+02 -0.15582991406E+03  0.16665883227E+03  0.41800000000E+01 0. -1.
         -5    1    3    3    0  502 -0.52476201851E+02 -0.57978742152E+02 -0.64347968099E+02  0.10135787932E+03  0.41800000000E+01 0. -1.
        -11    1    4    4    0    0  0.34767304795E+02  0.27372803022E+02 -0.25820493695E+03  0.26196913042E+03  0.00000000000E+00 0.  1.
         11    1    4    4    0    0  0.52407184904E+02 -0.17046560028E+02 -0.65933105086E+02  0.85931790303E+02  0.00000000000E+00 0. -1.
</event>
<event>
 8    1  0.6380238E-009  0.9963366E+02  0.7561462E-02  0.1281068E+00
          1   -1    0    0  501    0  0.00000000000E+00  0.00000000000E+00  0.10413249564E+03  0.10413249564E+03  0.00000000000E+00 0. -1.
         -1   -1    0    0    0  501 -0.00000000000E+00 -0.00000000000E+00 -0.18158538088E+03  0.18158538088E+03  0.00000000000E+00 0.  1.
         25    2    1    2    0    0  0.45578141242E+02 -0.80292655954E+01 -0.11464846099E+03  0.17587876688E+03  0.12508890825E+03 0.  0.
         23    2    1    2    0    0 -0.45578141242E+02  0.80292655954E+01  0.37195575755E+02  0.10983910964E+03  0.92408241439E+02 0.  0.
          5    1    3    3  502    0 -0.13204428544E+00  0.52162013726E+02 -0.23408095422E+02  0.57326298005E+02  0.41800000000E+01 0.  1.
         -5    1    3    3    0  502  0.45710185528E+02 -0.60191279321E+02 -0.91240365569E+02  0.11855246888E+03  0.41800000000E+01 0.  1.
        -11    1    4    4    0    0  0.11298212302E+02  0.88625434214E+01 -0.22939559923E+02  0.27063216486E+02  0.00000000000E+00 0.  1.
         11    1    4    4    0    0 -0.56876353544E+02 -0.83327782595E+00  0.60135135678E+02  0.82775893154E+02  0.00000000000E+00 0. -1.
</event>
<event>
 8    1  0.6380238E-009  0.1710044E+03  0.7561462E-02  0.1176804E+00
         -1   -1    0    0    0  501 -0.00000000000E+00  0.00000000000E+00  0.25580769138E+03  0.25580769138E+03  0.00000000000E+00 0.  1.
          1   -1    0    0  501    0  0.00000000000E+00 -0.00000000000E+00 -0.18648634285E+03  0.18648634285E+03  0.00000000000E+00 0. -1.
         25    2    1    2    0    0  0.58380753162E+02  0.13791366796E+03 -0.80766760216E+02  0.21119108477E+03  0.12509961063E+03 0.  0.
         23    2    1    2    0    0 -0.58380753162E+02 -0.13791366796E+03  0.15008810874E+03  0.23110294947E+03  0.91943682310E+02 0.  0.
          5    1    3    3  502    0  0.12582117027E+02  0.11354140301E+03 -0.10367555662E+03  0.15432450650E+03  0.41800000000E+01 0.  1.
         -5    1    3    3    0  502  0.45798636135E+02  0.24372264952E+02  0.22908796409E+02  0.56866578266E+02  0.41800000000E+01 0.  1.
        -11    1    4    4    0    0  0.24740307162E+02 -0.41842457248E+02  0.38348864444E+02  0.61915340839E+02  0.00000000000E+00 0. -1.
         11    1    4    4    0    0 -0.83121060324E+02 -0.96071210712E+02  0.11173924430E+03  0.16918760863E+03  0.00000000000E+00 0.  1.
</event>
<event>
 8    1  0.6380238E-009  0.1428742E+03  0.7561462E-02  0.1209513E+00
         -1   -1    0    0    0  501 -0.00000000000E+00  0.00000000000E+00  0.33092334522E+02  0.33092334522E+02  0.00000000000E+00 0.  1.
          1   -1    0    0  501    0  0.00000000000E+00 -0.00000000000E+00 -0.67956254973E+03  0.67956254973E+03  0.00000000000E+00 0. -1.
         25    2    1    2    0    0  0.79478306087E+01  0.10184121230E+03 -0.37735937546E+03  0.41046514141E+03  0.12508690390E+03 0.  0.
         23    2    1    2    0    0 -0.79478306087E+01 -0.10184121230E+03 -0.26911083974E+03  0.30218974284E+03  0.91995630750E+02 0.  0.
          5    1    3    3  502    0 -0.49304000071E+02  0.37736391560E+02 -0.82695318264E+02  0.10349351542E+03  0.41800000000E+01 0. -1.
         -5    1    3    3    0  502  0.57251830680E+02  0.64104820739E+02 -0.29466405720E+03  0.30697162599E+03  0.41800000000E+01 0. -1.
        -11    1    4    4    0    0 -0.49630490921E+02 -0.45082789385E+02 -0.13167246198E+03  0.14776089054E+03  0.00000000000E+00 0.  1.
         11    1    4    4    0    0  0.41682660312E+02 -0.56758422914E+02 -0.13743837776E+03  0.15442885230E+03  0.00000000000E+00 0. -1.
</event>
<event>
 8    1  0.6380238E-009  0.1336930E+03  0.7561462E-02  0.1222077E+00
         -1   -1    0    0    0  501 -0.00000000000E+00  0.00000000000E+00  0.53318429309E+03  0.53318429309E+03  0.00000000000E+00 0.  1.
          1   -1    0    0  501    0  0.00000000000E+00 -0.00000000000E+00 -0.38535700650E+02  0.38535700650E+02  0.00000000000E+00 0. -1.
         25    2    1    2    0    0  0.12969472344E+02  0.72146602246E+02  0.21221935509E+03  0.25701619667E+03  0.12508769422E+03 0.  0.
         23    2    1    2    0    0 -0.12969472344E+02 -0.72146602246E+02  0.28242923735E+03  0.31470379707E+03  0.11789345340E+03 0.  0.
          5    1    3    3  502    0  0.61268620992E+02  0.40981408655E+02  0.17070969751E+03  0.18599084117E+03  0.41800000000E+01 0.  1.
         -5    1    3    3    0  502 -0.48299148647E+02  0.31165193591E+02  0.41509657577E+02  0.71025355499E+02  0.41800000000E+01 0.  1.
        -11    1    4    4    0    0  0.13774870820E+02 -0.97859158535E+02  0.17402832327E+03  0.20013000593E+03  0.00000000000E+00 0.  1.
         11    1    4    4    0    0 -0.26744343165E+02  0.25712556289E+02  0.10840091409E+03  0.11457379114E+03  0.00000000000E+00 0. -1.
</event>
<event>
 8    1  0.6380238E-009  0.8813299E+02  0.7561462E-02  0.1307437E+00
         -1   -1    0    0    0  501 -0.00000000000E+00  0.00000000000E+00  0.60746821041E+02  0.60746821041E+02  0.00000000000E+00 0.  1.
          1   -1    0    0  501    0  0.00000000000E+00 -0.00000000000E+00 -0.28001038162E+03  0.28001038162E+03  0.00000000000E+00 0. -1.
         25    2    1    2    0    0 -0.14446918746E+02  0.33611032254E+01 -0.29580502508E+02  0.12939274618E+03  0.12508983235E+03 0.  0.
         23    2    1    2    0    0  0.14446918746E+02 -0.33611032254E+01 -0.18968305807E+03  0.21136445648E+03  0.92061177861E+02 0.  0.
          5    1    3    3  502    0 -0.54527267517E+02 -0.20956943270E+02  0.19176235481E+02  0.61624806542E+02  0.41800000000E+01 0. -1.
         -5    1    3    3    0  502  0.40080348771E+02  0.24318046496E+02 -0.48756737988E+02  0.67767939634E+02  0.41800000000E+01 0. -1.
        -11    1    4    4    0    0  0.12088349173E+02 -0.35966411870E+02 -0.30002879308E+02  0.48372344736E+02  0.00000000000E+00 0.  1.
         11    1    4    4    0    0  0.23585695733E+01  0.32605308644E+02 -0.15968017876E+03  0.16299211174E+03  0.00000000000E+00 0. -1.
</event>
<event>
 8    1  0.6380238E-009  0.1912204E+03  0.7561462E-02  0.1157365E+00
         -2   -1    0    0    0  501 -0.00000000000E+00  0.00000000000E+00  0.50463420471E+02  0.50463420471E+02  0.00000000000E+00 0.  1.
          2   -1    0    0  501    0  0.00000000000E+00 -0.00000000000E+00 -0.87682282048E+03  0.87682282048E+03  0.00000000000E+00 0. -1.
         25    2    1    2    0    0  0.28975925481E+02  0.17722088081E+03 -0.42042812257E+03  0.47397651914E+03  0.12508832716E+03 0.  0.
         23    2    1    2    0    0 -0.28975925481E+02 -0.17722088081E+03 -0.40593127744E+03  0.45330972182E+03  0.91992700998E+02 0.  0.
          5    1    3    3  502    0  0.97649640786E+01  0.45138731636E+01  0.63393599384E+01  0.13167743118E+02  0.41800000000E+01 0. -1.
         -5    1    3    3    0  502  0.19210961402E+02  0.17270700765E+03 -0.42676748251E+03  0.46080877602E+03  0.41800000000E+01 0. -1.
        -11    1    4    4    0    0 -0.55211124702E+02 -0.14716952271E+03 -0.35774180172E+03  0.39075098643E+03  0.00000000000E+00 0. -1.
         11    1    4    4    0    0  0.26235199221E+02 -0.30051358104E+02 -0.48189475722E+02  0.62558735381E+02  0.00000000000E+00 0.  1.
</event>
<event>
 8    1  0.6380238E-009  0.2795234E+03  0.7561462E-02  0.1095950E+00
         -2   -1    0    0    0  501 -0.00000000000E+00  0.00000000000E+00  0.87356631949E+02  0.87356631949E+02  0.00000000000E+00 0.  1.
          2   -1    0    0  501    0  0.00000000000E+00 -0.00000000000E+00 -0.10698689330E+04  0.10698689330E+04  0.00000000000E+00 0. -1.
         25    2    1    2    0    0 -0.27032403703E+03  0.31666669265E+02 -0.35053823911E+03  0.46108825935E+03  0.12508981931E+03 0.  0.
         23    2    1    2    0    0  0.27032403703E+03 -0.31666669265E+02 -0.63197406195E+03  0.69613730561E+03  0.10553705675E+03 0.  0.
          5    1    3    3  502    0 -0.18476908718E+03  0.58660419211E+02 -0.16361232533E+03  0.25370677121E+03  0.41800000000E+01 0. -1.
         -5    1    3    3    0  502 -0.85554949848E+02 -0.26993749946E+02 -0.18692591378E+03  0.20738148814E+03  0.41800000000E+01 0. -1.
        -11    1    4    4    0    0  0.44767301704E+02 -0.21204937184E+02 -0.22821159101E+03  0.23352578216E+03  0.00000000000E+00 0. -1.
         11    1    4    4    0    0  0.22555673532E+03 -0.10461732081E+02 -0.40376247094E+03  0.46261152345E+03  0.00000000000E+00 0.  1.
</event>
<event>
 8    1  0.6380238E-009  0.8980576E+02  0.7561462E-02  0.1303323E+00
          2   -1    0    0  501    0  0.00000000000E+00  0.00000000000E+00  0.63627333227E+02  0.63627333227E+02  0.00000000000E+00 0. -1.
         -2   -1    0    0    0  501 -0.00000000000E+00 -0.00000000000E+00 -0.22187107757E+03  0.22187107757E+03  0.00000000000E+00 0.  1.
         25    2    1    2    0    0  0.27927876740E+02 -0.27748900959E+02 -0.13281910820E+03  0.18665867793E+03  0.12510227311E+03 0.  0.
         23    2    1    2    0    0 -0.27927876740E+02  0.27748900959E+02 -0.25424636136E+02  0.98839732867E+02  0.87022484836E+02 0.  0.
          5    1    3    3  502    0 -0.28051398233E+02 -0.12233445812E+02 -0.12395848757E+03  0.12774864845E+03  0.41800000000E+01 0. -1.
         -5    1    3    3    0  502  0.55979274974E+02 -0.15515455148E+02 -0.88606206300E+01  0.58910029477E+02  0.41800000000E+01 0. -1.
        -11    1    4    4    0    0 -0.52774736844E+02  0.36471740938E+02 -0.32012146449E+02  0.71694757523E+02  0.00000000000E+00 0.  1.
         11    1    4    4    0    0  0.24846860104E+02 -0.87228399784E+01  0.65875103127E+01  0.27144975344E+02  0.00000000000E+00 0. -1.
</event>
<event>
 8    1  0.6380238E-009  0.1727840E+03  0.7561462E-02  0.1174975E+00
          1   -1    0    0  501    0  0.00000000000E+00  0.00000000000E+00  0.26491450290E+03  0.26491450290E+03  0.00000000000E+00 0. -1.
         -1   -1    0    0    0  501 -0.00000000000E+00 -0.00000000000E+00 -0.11807823253E+03  0.11807823253E+03  0.00000000000E+00 0.  1.
         25    2    1    2    0    0  0.27745560291E+02  0.13242753873E+03  0.53034676536E+02  0.19174663101E+03  0.12508886624E+03 0.  0.
         23    2    1    2    0    0 -0.27745560291E+02 -0.13242753873E+03  0.93801593836E+02  0.19124610442E+03  0.97311172622E+02 0.  0.
          5    1    3    3  502    0 -0.18041222866E+02  0.13173653188E+03  0.58718391161E+02  0.14541430952E+03  0.41800000000E+01 0.  1.
         -5    1    3    3    0  502  0.45786783157E+02  0.69100685382E+00 -0.56837146251E+01  0.46332321486E+02  0.41800000000E+01 0.  1.
        -11    1    4    4    0    0 -0.27266181750E+02 -0.14824374219E+03  0.86865941099E+02  0.17396937514E+03  0.00000000000E+00 0. -1.
         11    1    4    4    0    0 -0.47937854115E+00  0.15816203453E+02  0.69356527371E+01  0.17276729272E+02  0.00000000000E+00 0.  1.
</event>
<event>
 8    1  0.6380238E-009  0.9211958E+02  0.7561462E-02  0.1297799E+00
          1   -1    0    0  501    0  0.00000000000E+00  0.00000000000E+00  0.34519227986E+03  0.34519227986E+03  0.00000000000E+00 0. -1.
         -1   -1    0    0    0  501 -0.00000000000E+00 -0.00000000000E+00 -0.46972191094E+02  0.46972191094E+02  0.00000000000E+00 0.  1.
         25    2    1    2    0    0 -0.21325280871E+02 -0.58748566468E+02  0.20570834462E+03  0.24873891139E+03  0.12509580860E+03 0.  0.
         23    2    1    2    0    0  0.21325280871E+02  0.58748566468E+02  0.92511744151E+02  0.14342555957E+03  0.90035030211E+02 0.  0.
          5    1    3    3  502    0  0.37133177302E+02 -0.13513194392E+02  0.15243641378E+03  0.15753035240E+03  0.41800000000E+01 0.  1.
         -5    1    3    3    0  502 -0.58458458173E+02 -0.45235372076E+02  0.53271930836E+02  0.91208558994E+02  0.41800000000E+01 0.  1.
        -11    1    4    4    0    0  0.16576096446E+01  0.48051687020E+02  0.10662217311E+03  0.11696153254E+03  0.00000000000E+00 0. -1.
         11    1    4    4    0    0  0.19667671226E+02  0.10696879449E+02 -0.14110428956E+02  0.26464027031E+02  0.00000000000E+00 0.  1.
</event>
<event>
 8    1  0.6380238E-009  0.1555585E+03  0.7561462E-02  0.1193804E+00
          2   -1    0    0  501    0  0.00000000000E+00  0.00000000000E+00  0.78378255946E+03  0.78378255946E+03  0.00000000000E+00 0. -1.
         -2   -1    0    0    0  501 -0.00000000000E+00 -0.00000000000E+00 -0.74202742204E+02  0.74202742204E+02  0.00000000000E+00 0.  1.
         25    2    1    2    0    0 -0.11860755759E+03  0.29893940091E+02  0.68197411503E+03  0.70405635610E+03  0.12508100823E+03 0.  0.
         23    2    1    2    0    0  0.11860755759E+03 -0.29893940091E+02  0.27605702227E+02  0.15392894557E+03  0.89278469502E+02 0.  0.
          5    1    3    3  502    0 -0.39084302986E+02  0.73637643535E+02  0.29708313547E+03  0.30858701701E+03  0.41800000000E+01 0.  1.
         -5    1    3    3    0  502 -0.79523254603E+02 -0.43743703444E+02  0.38489097956E+03  0.39546933909E+03  0.41800000000E+01 0.  1.
        -11    1    4    4    0    0  0.74724066871E+02 -0.48542466401E+02 -0.14546694156E+02  0.90286563369E+02  0.00000000000E+00 0. -1.
         11    1    4    4    0    0  0.43883490717E+02  0.18648526309E+02  0.42152396383E+02  0.63642382198E+02  0.00000000000E+00 0.  1.
</event>
<event>
 8    1  0.6380238E-009  0.1039086E+03  0.7561462E-02  0.1272285E+00
         -4   -1    0    0    0  501 -0.00000000000E+00  0.00000000000E+00  0.37760387026E+03  0.37760387026E+03  0.00000000000E+00 0. -1.
          4   -1    0    0  501    0  0.00000000000E+00 -0.00000000000E+00 -0.56356308162E+02  0.56356308162E+02  0.00000000000E+00 0.  1.
         25    2    1    2    0    0 -0.65960851744E+02  0.68931838790E+02  0.17407763912E+03  0.23463631196E+03  0.12509493231E+03 0.  0.
         23    2    1    2    0    0  0.65960851744E+02 -0.68931838790E+02  0.14716992298E+03  0.19932386646E+03  0.94702614262E+02 0.  0.
          5    1    3    3  502    0 -0.44083083913E+01  0.31328491384E+02  0.15724494610E+03  0.16045046908E+03  0.41800000000E+01 0. -1.
         -5    1    3    3    0  502 -0.61552543353E+02  0.37603347406E+02  0.16832693017E+02  0.74185842878E+02  0.41800000000E+01 0. -1.
        -11    1    4    4    0    0  0.22723357085E+02 -0.52840796442E+02  0.14162171704E+03  0.15285683323E+03  0.00000000000E+00 0. -1.
         11    1    4    4    0    0  0.43237494659E+02 -0.16091042348E+02  0.55482059375E+01  0.46467033232E+02  0.00000000000E+00 0.  1.
</event>
<event>
 8    1  0.6380238E-009  0.2323697E+03  0.7561462E-02  0.1124983E+00
         -1   -1    0    0    0  501 -0.00000000000E+00  0.00000000000E+00  0.48842489677E+02  0.48842489677E+02  0.00000000000E+00 0.  1.
          1   -1    0    0  501    0  0.00000000000E+00 -0.00000000000E+00 -0.11153336502E+04  0.11153336502E+04  0.00000000000E+00 0. -1.
         25    2    1    2    0    0 -0.18769637586E+03 -0.81918533459E+02 -0.59393073487E+03  0.64057926118E+03  0.12508995320E+03 0.  0.
         23    2    1    2    0    0  0.18769637586E+03  0.81918533459E+02 -0.47256042563E+03  0.52359687868E+03  0.94338538545E+02 0.  0.
          5    1    3    3  502    0 -0.63486946087E+02 -0.95706578250E+02 -0.28700003968E+03  0.30915503655E+03  0.41800000000E+01 0.  1.
         -5    1    3    3    0  502 -0.12420942977E+03  0.13788044791E+02 -0.30693069519E+03  0.33142422463E+03  0.41800000000E+01 0.  1.
        -11    1    4    4    0    0  0.11205111253E+03 -0.16342666801E+01 -0.25630910767E+03  0.27973644975E+03  0.00000000000E+00 0.  1.
         11    1    4    4    0    0  0.75645263332E+02  0.83552800139E+02 -0.21625131796E+03  0.24386042892E+03  0.00000000000E+00 0. -1.
</event>
<event>
 8    1  0.6380238E-009  0.3648434E+03  0.7561462E-02  0.1056682E+00
          2   -1    0    0  501    0  0.00000000000E+00  0.00000000000E+00  0.21369820806E+04  0.21369820806E+04  0.00000000000E+00 0. -1.
         -2   -1    0    0    0  501 -0.00000000000E+00 -0.00000000000E+00 -0.62979035156E+02  0.62979035156E+02  0.00000000000E+00 0.  1.
         25    2    1    2    0    0 -0.16909379912E+03  0.30437648417E+03  0.11648109265E+04  0.12221578394E+04  0.12509009867E+03 0.  0.
         23    2    1    2    0    0  0.16909379912E+03 -0.30437648417E+03  0.90919211887E+03  0.97780327633E+03  0.90725857226E+02 0.  0.
          5    1    3    3  502    0 -0.18947452106E+03  0.27470838651E+03  0.10491091732E+04  0.11009145387E+04  0.41800000000E+01 0.  1.
         -5    1    3    3    0  502  0.20380721939E+02  0.29668097659E+02  0.11570175331E+03  0.12124330070E+03  0.41800000000E+01 0.  1.
        -11    1    4    4    0    0  0.17322504747E+03 -0.24424472472E+03  0.76559862253E+03  0.82207277867E+03  0.00000000000E+00 0. -1.
         11    1    4    4    0    0 -0.41312483495E+01 -0.60131759454E+02  0.14359349634E+03  0.15573049766E+03  0.00000000000E+00 0.  1.
</event>
<event>
 8    1  0.6380238E-009  0.3338560E+03  0.7561462E-02  0.1069443E+00
         -2   -1    0    0    0  501 -0.00000000000E+00  0.00000000000E+00  0.25786500496E+03  0.25786500496E+03  0.00000000000E+00 0. -1.
          2   -1    0    0  501    0  0.00000000000E+00 -0.00000000000E+00 -0.45167907557E+03  0.45167907557E+03  0.00000000000E+00 0.  1.
         25    2    1    2    0    0 -0.14503179100E+03 -0.28762914879E+03 -0.12826757386E+03  0.36859625566E+03  0.12508349831E+03 0.  0.
         23    2    1    2    0    0  0.14503179100E+03  0.28762914879E+03 -0.65546496748E+02  0.34094782486E+03  0.90467278119E+02 0.  0.
          5    1    3    3  502    0 -0.51846531717E+02 -0.18002452986E+02  0.17311699199E+01  0.55069233823E+02  0.41800000000E+01 0. -1.
         -5    1    3    3    0  502 -0.93185259280E+02 -0.26962669580E+03 -0.12999874378E+03  0.31352702184E+03  0.41800000000E+01 0. -1.
        -11    1    4    4    0    0  0.45354701889E+02  0.40178117911E+02  0.14734824950E+02  0.62357398989E+02  0.00000000000E+00 0. -1.
         11    1    4    4    0    0  0.99677089108E+02  0.24745103088E+03 -0.80281321697E+02  0.27859042588E+03  0.00000000000E+00 0.  1.
</event>
<event>
 8    1  0.6380238E-009  0.9764771E+02  0.7561462E-02  0.1285322E+00
         -2   -1    0    0    0  501 -0.00000000000E+00  0.00000000000E+00  0.12241051612E+03  0.12241051612E+03  0.00000000000E+00 0.  1.
          2   -1    0    0  501    0  0.00000000000E+00 -0.00000000000E+00 -0.16815562158E+03  0.16815562158E+03  0.00000000000E+00 0. -1.
         25    2    1    2    0    0  0.71642660595E+02 -0.47009480639E+02  0.66807648048E+01  0.15177084959E+03  0.12508875281E+03 0.  0.
         23    2    1    2    0    0 -0.71642660595E+02  0.47009480639E+02 -0.52425870259E+02  0.13879528811E+03  0.95776291651E+02 0.  0.
          5    1    3    3  502    0  0.67809052054E+02 -0.69439851349E+01 -0.48197626958E+02  0.83586901571E+02  0.41800000000E+01 0.  1.
         -5    1    3    3    0  502  0.38336085413E+01 -0.40065495504E+02  0.54878391763E+02  0.68183948015E+02  0.41800000000E+01 0.  1.
        -11    1    4    4    0    0 -0.65256787212E+02  0.38060759145E+02 -0.79442549738E+02  0.10962749825E+03  0.00000000000E+00 0. -1.
         11    1    4    4    0    0 -0.63858733828E+01  0.89487214938E+01  0.27016679479E+02  0.29167789860E+02  0.00000000000E+00 0.  1.
</event>
<event>
 8    1  0.6380238E-009  0.7024583E+02  0.7561462E-02  0.1359259E+00
          1   -1    0    0  501    0  0.00000000000E+00  0.00000000000E+00  0.40046795958E+02  0.40046795958E+02  0.00000000000E+00 0. -1.
         -1   -1    0    0    0  501 -0.00000000000E+00 -0.00000000000E+00 -0.48002918059E+03  0.48002918059E+03  0.00000000000E+00 0.  1.
         25    2    1    2    0    0 -0.29023198231E+02 -0.54787303704E+02 -0.35084294661E+03  0.37760004806E+03  0.12508808266E+03 0.  0.
         23    2    1    2    0    0  0.29023198231E+02  0.54787303704E+02 -0.89139438020E+02  0.14247592849E+03  0.92247255275E+02 0.  0.
          5    1    3    3  502    0 -0.74514510709E+01  0.66464901898E+01  0.76264331329E+01  0.13241406165E+02  0.41800000000E+01 0.  1.
         -5    1    3    3    0  502 -0.21571747160E+02 -0.61433793893E+02 -0.35846937974E+03  0.36435864189E+03  0.41800000000E+01 0.  1.
        -11    1    4    4    0    0  0.26944916438E+01  0.22953056107E+02 -0.97607102096E+02  0.10030577974E+03  0.00000000000E+00 0.  1.
         11    1    4    4    0    0  0.26328706588E+02  0.31834247597E+02  0.84676640753E+01  0.42170148749E+02  0.00000000000E+00 0. -1.
</event>
<event>
 8    1  0.6380238E-009  0.8979876E+02  0.7561462E-02  0.1303340E+00
          1   -1    0    0  501    0  0.00000000000E+00  0.00000000000E+00  0.97112490037E+03  0.97112490037E+03  0.00000000000E+00 0. -1.
         -1   -1    0    0    0  501 -0.00000000000E+00 -0.00000000000E+00 -0.24577313516E+02  0.24577313516E+02  0.00000000000E+00 0.  1.
         25    2    1    2    0    0  0.42643358632E+02  0.48309208555E+02  0.79730346118E+03  0.80962465441E+03  0.12508811358E+03 0.  0.
         23    2    1    2    0    0 -0.42643358632E+02 -0.48309208555E+02  0.14924412568E+03  0.18607755947E+03  0.90547299374E+02 0.  0.
          5    1    3    3  502    0  0.25356113729E+02 -0.18544590749E+02  0.59455258230E+03  0.59539657361E+03  0.41800000000E+01 0.  1.
         -5    1    3    3    0  502  0.17287244903E+02  0.66853799304E+02  0.20275087888E+03  0.21422808080E+03  0.41800000000E+01 0.  1.
        -11    1    4    4    0    0 -0.50664770462E+02 -0.30353054353E+02  0.31956170463E+02  0.67152242741E+02  0.00000000000E+00 0.  1.
         11    1    4    4    0    0  0.80214118306E+01 -0.17956154202E+02  0.11728795521E+03  0.11892531673E+03  0.00000000000E+00 0. -1.
</event>
<event>
 8    1  0.6380238E-009  0.1397772E+03  0.7561462E-02  0.1213629E+00
          1   -1    0    0  501    0  0.00000000000E+00  0.00000000000E+00  0.40845009736E+03  0.40845009736E+03  0.00000000000E+00 0. -1.
         -1   -1    0    0    0  501 -0.00000000000E+00 -0.00000000000E+00 -0.54302810391E+02  0.54302810391E+02  0.00000000000E+00 0.  1.
         25    2    1    2    0    0 -0.57574155920E+02 -0.83817181133E+02  0.21151910635E+03  0.26595307531E+03  0.12510236861E+03 0.  0.
         23    2    1    2    0    0  0.57574155920E+02  0.83817181133E+02  0.14262818062E+03  0.19679983244E+03  0.89706593181E+02 0.  0.
          5    1    3    3  502    0 -0.87067822889E+02 -0.59196625432E+02  0.19926853691E+03  0.22541177530E+03  0.41800000000E+01 0.  1.
         -5    1    3    3    0  502  0.29493666969E+02 -0.24620555701E+02  0.12250569446E+02  0.40541300005E+02  0.41800000000E+01 0.  1.
        -11    1    4    4    0    0  0.45165124292E+02  0.10312872714E+03  0.11623221187E+03  0.16181887990E+03  0.00000000000E+00 0. -1.
         11    1    4    4    0    0  0.12409031628E+02 -0.19311546007E+02  0.26395968746E+02  0.34980952548E+02  0.00000000000E+00 0.  1.
</event>
<event>
 8    1  0.6380238E-009  0.1218138E+03  0.7561462E-02  0.1240134E+00
          1   -1    0    0  501    0  0.00000000000E+00  0.00000000000E+00  0.14868794802E+03  0.14868794802E+03  0.00000000000E+00 0. -1.
         -1   -1    0    0    0  501 -0.00000000000E+00 -0.00000000000E+00 -0.13375319294E+03  0.13375319294E+03  0.00000000000E+00 0.  1.
         25    2    1    2    0    0  0.63468197643E+02 -0.59064145811E+02  0.21667690797E+02  0.15373180051E+03  0.12508873743E+03 0.  0.
         23    2    1    2    0    0 -0.63468197643E+02  0.59064145811E+02 -0.67329357183E+01  0.12870934045E+03  0.94889285295E+02 0.  0.
          5    1    3    3  502    0 -0.29165064025E+02 -0.27230368755E+02  0.36908843741E+02  0.54514485125E+02  0.41800000000E+01 0. -1.
         -5    1    3    3    0  502  0.92633261668E+02 -0.31833777055E+02 -0.15241152944E+02  0.99217315384E+02  0.41800000000E+01 0. -1.
        -11    1    4    4    0    0 -0.32237291238E+02  0.66021860225E+02 -0.39073238461E+02  0.83215665219E+02  0.00000000000E+00 0.  1.
         11    1    4    4    0    0 -0.31230906405E+02 -0.69577144142E+01  0.32340302743E+02  0.45493675233E+02  0.00000000000E+00 0. -1.
</event>
<event>
 7    1  0.6380238E-009  0.3334070E+03  0.7561462E-02  0.1069639E+00
         -1   -1    0    0    0  501 -0.00000000000E+00  0.00000000000E+00  0.10716598308E+03  0.10716598308E+03  0.00000000000E+00 0.  1.
          1   -1    0    0  501    0  0.00000000000E+00 -0.00000000000E+00 -0.17640917680E+04  0.17640917680E+04  0.00000000000E+00 0. -1.
         25    2    1    2    0    0  0.24387733210E+03 -0.65600203233E+02 -0.20448547902E+03  0.34819663524E+03  0.12508815244E+03 0.  0.
          5    1    3    3  502    0  0.12100220874E+03 -0.21306990295E+02 -0.17560851352E+03  0.21436264781E+03  0.41800000000E+01 0.  1.
         -5    1    3    3    0  502  0.12287512337E+03 -0.44293212938E+02 -0.28876965507E+02  0.13383398743E+03  0.41800000000E+01 0.  1.
        -11    1    1    2    0    0 -0.20735238764E+03  0.19141015487E+03 -0.12534217729E+04  0.12847953147E+04  0.00000000000E+00 0. -1.
         11    1    1    2    0    0 -0.36524944469E+02 -0.12580995164E+03 -0.19901853305E+03  0.23826580114E+03  0.00000000000E+00 0.  1.
</event>
<event>
 8    1  0.6380238E-009  0.1047612E+03  0.7561462E-02  0.1270591E+00
         -1   -1    0    0    0  501 -0.00000000000E+00  0.00000000000E+00  0.51234939242E+02  0.51234939242E+02  0.00000000000E+00 0.  1.
          1   -1    0    0  501    0  0.00000000000E+00 -0.00000000000E+00 -0.27960181537E+03  0.27960181537E+03  0.00000000000E+00 0. -1.
         25    2    1    2    0    0  0.51478162653E+01 -0.51617648797E+01 -0.19642981693E+03  0.23298873439E+03  0.12508370615E+03 0.  0.
         23    2    1    2    0    0 -0.51478162653E+01  0.51617648797E+01 -0.31937059192E+02  0.97848020217E+02  0.92201493923E+02 0.  0.
          5    1    3    3  502    0  0.63706804043E+02 -0.15319065842E+02 -0.10657065078E+03  0.12517190846E+03  0.41800000000E+01 0. -1.
         -5    1    3    3    0  502 -0.58558987778E+02  0.10157300962E+02 -0.89859166157E+02  0.10781682594E+03  0.41800000000E+01 0. -1.
        -11    1    4    4    0    0  0.21866931150E+02  0.36724167098E+02  0.39846083905E+01  0.42926730961E+02  0.00000000000E+00 0.  1.
         11    1    4    4    0    0 -0.27014747416E+02 -0.31562402218E+02 -0.35921667583E+02  0.54921289257E+02  0.00000000000E+00 0. -1.
</event>
<event>
 8    1  0.6380238E-009  0.1245809E+03  0.7561462E-02  0.1235726E+00
          1   -1    0    0  501    0  0.00000000000E+00  0.00000000000E+00  0.13470138044E+03  0.13470138044E+03  0.00000000000E+00 0. -1.
         -1   -1    0    0    0  501 -0.00000000000E+00 -0.00000000000E+00 -0.19508150201E+03  0.19508150201E+03  0.00000000000E+00 0.  1.
         25    2    1    2    0    0  0.92333996088E+02  0.66914894132E+01  0.45947024285E+02  0.16225706875E+03  0.12508350993E+03 0.  0.
         23    2    1    2    0    0 -0.92333996088E+02 -0.66914894132E+01 -0.10632714585E+03  0.16752581370E+03  0.90493609972E+02 0.  0.
          5    1    3    3  502    0 -0.20403591069E+02  0.16678850622E+02  0.40968377889E+02  0.48891420244E+02  0.41800000000E+01 0. -1.
         -5    1    3    3    0  502  0.11273758716E+03 -0.99873612089E+01  0.49786463963E+01  0.11336564851E+03  0.41800000000E+01 0. -1.
        -11    1    4    4    0    0 -0.75270451360E+02  0.19690658570E+02 -0.27253333021E+02  0.82438504618E+02  0.00000000000E+00 0. -1.
         11    1    4    4    0    0 -0.17063544728E+02 -0.26382147983E+02 -0.79073812828E+02  0.85087309077E+02  0.00000000000E+00 0.  1.
</event>
<event>
 8    1  0.6380238E-009  0.9897498E+02  0.7561462E-02  0.1282466E+00
         -2   -1    0    0    0  501 -0.00000000000E+00  0.00000000000E+00  0.46894754674E+03  0.46894754674E+03  0.00000000000E+00 0.  1.
          2   -1    0    0  501    0  0.00000000000E+00 -0.00000000000E+00 -0.35392393523E+02  0.35392393523E+02  0.00000000000E+00 0. -1.
         25    2    1    2    0    0 -0.11528840810E+02 -0.65734070776E+02  0.28349816055E+03  0.31697290998E+03  0.12508691536E+03 0.  0.
         23    2    1    2    0    0  0.11528840810E+02  0.65734070776E+02  0.15005699267E+03  0.18736703029E+03  0.90196567327E+02 0.  0.
          5    1    3    3  502    0  0.21826159067E+02 -0.20044019141E+01  0.21941308470E+03  0.22054471879E+03  0.41800000000E+01 0. -1.
         -5    1    3    3    0  502 -0.33354999877E+02 -0.63729668861E+02  0.64085075841E+02  0.96428191186E+02  0.41800000000E+01 0. -1.
        -11    1    4    4    0    0 -0.54942632267E+01  0.80719094607E+02  0.80197005765E+02  0.11391803587E+03  0.00000000000E+00 0. -1.
         11    1    4    4    0    0  0.17023104037E+02 -0.14985023832E+02  0.69859986909E+02  0.73448994419E+02  0.00000000000E+00 0.  1.
</event>
<event>
 8    1  0.6380238E-009  0.1035378E+03  0.7561462E-02  0.1273028E+00
          1   -1    0    0  501    0  0.00000000000E+00  0.00000000000E+00  0.14397653739E+03  0.14397653739E+03  0.00000000000E+00 0. -1.
         -1   -1    0    0    0  501 -0.00000000000E+00 -0.00000000000E+00 -0.13612808196E+03  0.13612808196E+03  0.00000000000E+00 0.  1.
         25    2    1    2    0    0  0.22980449816E+01  0.76570617715E+02  0.47279736933E+02  0.15411223209E+03  0.12508743361E+03 0.  0.
         23    2    1    2    0    0 -0.22980449816E+01 -0.76570617715E+02 -0.39431281506E+02  0.12599238726E+03  0.91928859337E+02 0.  0.
          5    1    3    3  502    0  0.15364569862E+02  0.79982791814E+01  0.76333569551E+02  0.78385768589E+02  0.41800000000E+01 0. -1.
         -5    1    3    3    0  502 -0.13066524880E+02  0.68572338534E+02 -0.29053832619E+02  0.75726463501E+02  0.41800000000E+01 0. -1.
        -11    1    4    4    0    0 -0.42358210054E+02 -0.65078609758E+02 -0.21115434901E+02  0.80469279841E+02  0.00000000000E+00 0. -1.
         11    1    4    4    0    0  0.40060165073E+02 -0.11492007958E+02 -0.18315846605E+02  0.45523107423E+02  0.00000000000E+00 0.  1.
</event>
<event>
 8    1  0.6380238E-009  0.2129111E+03  0.7561462E-02  0.1139281E+00
          1   -1    0    0  501    0  0.00000000000E+00  0.00000000000E+00  0.13970681817E+04  0.13970681817E+04  0.00000000000E+00 0. -1.
         -1   -1    0    0    0  501 -0.00000000000E+00 -0.00000000000E+00 -0.35825312616E+02  0.35825312616E+02  0.00000000000E+00 0.  1.
         25    2    1    2    0    0 -0.17756209005E+02  0.19415591459E+03  0.70849156133E+03  0.74539904750E+03  0.12509054884E+03 0.  0.
         23    2    1    2    0    0  0.17756209005E+02 -0.19415591459E+03  0.65275130780E+03  0.68749444686E+03  0.92479957312E+02 0.  0.
          5    1    3    3  502    0  0.24746476689E+02  0.18424425068E+03  0.53262638288E+03  0.56415128127E+03  0.41800000000E+01 0.  1.
         -5    1    3    3    0  502 -0.42502685694E+02  0.99116639110E+01  0.17586517844E+03  0.18124776623E+03  0.41800000000E+01 0.  1.
        -11    1    4    4    0    0  0.15780931998E+02 -0.65921783757E+02  0.38121885759E+03  0.38719831710E+03  0.00000000000E+00 0.  1.
         11    1    4    4    0    0  0.19752770068E+01 -0.12823413083E+03  0.27153245021E+03  0.30029612976E+03  0.00000000000E+00 0. -1.
</event>
<event>
 8    1  0.6380238E-009  0.1641981E+03  0.7561462E-02  0.1184037E+00
         -2   -1    0    0    0  501 -0.00000000000E+00  0.00000000000E+00  0.16993631109E+02  0.16993631109E+02  0.00000000000E+00 0.  1.
          2   -1    0    0  501    0  0.00000000000E+00 -0.00000000000E+00 -0.19131194949E+04  0.19131194949E+04  0.00000000000E+00 0. -1.
         25    2    1    2    0    0  0.11623659941E+03  0.64199134387E+02 -0.12540453411E+04  0.12672457696E+04  0.12509854951E+03 0.  0.
         23    2    1    2    0    0 -0.11623659941E+03 -0.64199134387E+02 -0.64208052271E+03  0.66286735644E+03  0.97433355164E+02 0.  0.
          5    1    3    3  502    0 -0.16377767458E+02 -0.11506116658E+02 -0.33225204864E+03  0.33288063658E+03  0.41800000000E+01 0.  1.
         -5    1    3    3    0  502  0.13261436687E+03  0.75705251045E+02 -0.92179329247E+03  0.93436513301E+03  0.41800000000E+01 0.  1.
        -11    1    4    4    0    0 -0.43913637778E+02  0.16421249610E+02 -0.10524372432E+03  0.11521417677E+03  0.00000000000E+00 0. -1.
         11    1    4    4    0    0 -0.72322961637E+02 -0.80620383997E+02 -0.53683679839E+03  0.54765317967E+03  0.00000000000E+00 0.  1.
</event>
<event>
 8    1  0.6380238E-009  0.1102049E+03  0.7561462E-02  0.1260191E+00
          2   -1    0    0  501    0  0.00000000000E+00  0.00000000000E+00  0.55586109114E+02  0.55586109114E+02  0.00000000000E+00 0. -1.
         -2   -1    0    0    0  501 -0.00000000000E+00 -0.00000000000E+00 -0.37625318305E+03  0.37625318305E+03  0.00000000000E+00 0.  1.
         25    2    1    2    0    0 -0.90681824913E+01  0.56563126525E+02 -0.29162535404E+03  0.32244634125E+03  0.12507868183E+03 0.  0.
         23    2    1    2    0    0  0.90681824913E+01 -0.56563126525E+02 -0.29041719897E+02  0.10939295092E+03  0.88553808501E+02 0.  0.
          5    1    3    3  502    0 -0.53862733150E+02  0.69997934131E+02 -0.21643853945E+03  0.23380337586E+03  0.41800000000E+01 0.  1.
         -5    1    3    3    0  502  0.44794550659E+02 -0.13434807606E+02 -0.75186814592E+02  0.88642965388E+02  0.41800000000E+01 0.  1.
        -11    1    4    4    0    0  0.33477388013E+02 -0.14670364905E+02 -0.45343358093E+02  0.58240666529E+02  0.00000000000E+00 0.  1.
         11    1    4    4    0    0 -0.24409205522E+02 -0.41892761620E+02  0.16301638196E+02  0.51152284389E+02  0.00000000000E+00 0. -1.
</event>
<event>
 7    1  0.6380238E-009  0.1047522E+03  0.7561462E-02  0.1270609E+00
         -1   -1    0    0    0  501 -0.00000000000E+00  0.00000000000E+00  0.42558414603E+02  0.42558414603E+02  0.00000000000E+00 0.  1.
          1   -1    0    0  501    0  0.00000000000E+00 -0.00000000000E+00 -0.38556460489E+03  0.38556460489E+03  0.00000000000E+00 0. -1.
         23    2    1    2    0    0 -0.22331994046E+02 -0.23829186951E+02 -0.52390852616E+02  0.11007658227E+03  0.91134540197E+02 0.  0.
          5    1    1    2  502    0 -0.48190454098E+02  0.75641873577E+01 -0.17380289243E+03  0.18056703634E+03  0.41800000000E+01 0. -1.
         -5    1    1    2    0  502  0.70522448143E+02  0.16264999594E+02 -0.11681244524E+03  0.13747940088E+03  0.41800000000E+01 0. -1.
        -11    1    3    3    0    0  0.25245892367E+02  0.12516864281E+02 -0.40011009289E+02  0.48937795589E+02  0.00000000000E+00 0.  1.
         11    1    3    3    0    0 -0.47577886412E+02 -0.36346051232E+02 -0.12379843328E+02  0.61138786678E+02  0.00000000000E+00 0. -1.
</event>
<event>
 8    1  0.6380238E-009  0.1501643E+03  0.7561462E-02  0.1200271E+00
          1   -1    0    0  501    0  0.00000000000E+00  0.00000000000E+00  0.16810727768E+03  0.16810727768E+03  0.00000000000E+00 0. -1.
         -1   -1    0    0    0  501 -0.00000000000E+00 -0.00000000000E+00 -0.15006443859E+03  0.15006443859E+03  0.00000000000E+00 0.  1.
         25    2    1    2    0    0 -0.41226133559E+02 -0.95803657666E+02  0.60626984722E+02  0.17378515718E+03  0.12509082568E+03 0.  0.
         23    2    1    2    0    0  0.41226133559E+02  0.95803657666E+02 -0.42584145629E+02  0.14438655909E+03  0.90311317551E+02 0.  0.
          5    1    3    3  502    0  0.49592457908E+01  0.28840512650E+02  0.15270223264E+02  0.33271931222E+02  0.41800000000E+01 0.  1.
         -5    1    3    3    0  502 -0.46185379350E+02 -0.12464417032E+03  0.45356761457E+02  0.14051322596E+03  0.41800000000E+01 0.  1.
        -11    1    4    4    0    0  0.57860387520E+02  0.21647232352E+02 -0.22843733819E+02  0.65865493904E+02  0.00000000000E+00 0.  1.
         11    1    4    4    0    0 -0.16634253961E+02  0.74156425314E+02 -0.19740411811E+02  0.78521065191E+02  0.00000000000E+00 0. -1.
</event>
<event>
 8    1  0.6380238E-009  0.1416821E+03  0.7561462E-02  0.1211083E+00
         -2   -1    0    0    0  501 -0.00000000000E+00  0.00000000000E+00  0.29274099053E+02  0.29274099053E+02  0.00000000000E+00 0.  1.
          2   -1    0    0  501    0  0.00000000000E+00 -0.00000000000E+00 -0.73707879951E+03  0.73707879951E+03  0.00000000000E+00 0. -1.
         25    2    1    2    0    0  0.83792341553E+02 -0.29919124106E+02 -0.33153907012E+03  0.36535326719E+03  0.12509414190E+03 0.  0.
         23    2    1    2    0    0 -0.83792341553E+02  0.29919124106E+02 -0.37626563034E+03  0.40099963138E+03  0.10634175709E+03 0.  0.
          5    1    3    3  502    0 -0.10413419377E+02 -0.48554089216E+02 -0.17220312418E+03  0.17926886863E+03  0.41800000000E+01 0.  1.
         -5    1    3    3    0  502  0.94205760930E+02  0.18634965110E+02 -0.15933594594E+03  0.18608439856E+03  0.41800000000E+01 0.  1.
        -11    1    4    4    0    0 -0.10082780260E+03 -0.24196056648E+01 -0.29835897762E+03  0.31494472499E+03  0.00000000000E+00 0.  1.
         11    1    4    4    0    0  0.17035461051E+02  0.32338729770E+02 -0.77906652712E+02  0.86054906387E+02  0.00000000000E+00 0. -1.
</event>
<event>
 8    1  0.6380238E-009  0.8586796E+02  0.7561462E-02  0.1313178E+00
          2   -1    0    0  501    0  0.00000000000E+00  0.00000000000E+00  0.71341895716E+02  0.71341895716E+02  0.00000000000E+00 0. -1.
         -2   -1    0    0    0  501 -0.00000000000E+00 -0.00000000000E+00 -0.20656868273E+03  0.20656868273E+03  0.00000000000E+00 0.  1.
         25    2    1    2    0    0 -0.11794547146E+02  0.48064149856E+02 -0.10179818098E+03  0.16869747724E+03  0.12508675122E+03 0.  0.
         23    2    1    2    0    0  0.11794547146E+02 -0.48064149856E+02 -0.33428606033E+02  0.10921310121E+03  0.91437169304E+02 0.  0.
          5    1    3    3  502    0  0.56348300925E+01  0.67755025210E+02 -0.11891548661E+03  0.13704327822E+03  0.41800000000E+01 0. -1.
         -5    1    3    3    0  502 -0.17429377238E+02 -0.19690875354E+02  0.17117305629E+02  0.31654199012E+02  0.41800000000E+01 0. -1.
        -11    1    4    4    0    0  0.32040028114E+02 -0.46786944385E+02 -0.55422790874E+02  0.79292290386E+02  0.00000000000E+00 0.  1.
         11    1    4    4    0    0 -0.20245480968E+02 -0.12772054708E+01  0.21994184840E+02  0.29920810822E+02  0.00000000000E+00 0. -1.
</event>
<event>
 8    1  0.6380238E-009  0.1355603E+03  0.7561462E-02  0.1219431E+00
         -2   -1    0    0    0  501 -0.00000000000E+00  0.00000000000E+00  0.26782258075E+03  0.26782258075E+03  0.00000000000E+00 0.  1.
          2   -1    0    0  501    0  0.00000000000E+00 -0.00000000000E+00 -0.83981621199E+02  0.83981621199E+02  0.00000000000E+00 0. -1.
         25    2    1    2    0    0  0.92937847631E+02 -0.39364968789E+02  0.78303243545E+02  0.17880400627E+03  0.12510967356E+03 0.  0.
         23    2    1    2    0    0 -0.92937847631E+02  0.39364968789E+02  0.10553771600E+03  0.17300019567E+03  0.92756745923E+02 0.  0.
          5    1    3    3  502    0  0.74553942582E+02  0.21086486959E+02 -0.65022929421E+00  0.77593978407E+02  0.41800000000E+01 0.  1.
         -5    1    3    3    0  502  0.18383905049E+02 -0.60451455747E+02  0.78953472839E+02  0.10121002786E+03  0.41800000000E+01 0.  1.
        -11    1    4    4    0    0 -0.51998352650E+02 -0.21981518662E+02  0.73274560641E+02  0.92499605826E+02  0.00000000000E+00 0.  1.
         11    1    4    4    0    0 -0.40939494982E+02  0.61346487450E+02  0.32263155361E+02  0.80500589847E+02  0.00000000000E+00 0. -1.
</event>
<event>
 8    1  0.6380238E-009  0.1157125E+03  0.7561462E-02  0.1250343E+00
         -2   -1    0    0    0  501 -0.00000000000E+00  0.00000000000E+00  0.42415423807E+03  0.42415423807E+03  0.00000000000E+00 0.  1.
          2   -1    0    0  501    0  0.00000000000E+00 -0.00000000000E+00 -0.56354035233E+02  0.56354035233E+02  0.00000000000E+00 0. -1.
         25    2    1    2    0    0  0.48209879097E+01 -0.73651686716E+02  0.32706733171E+03  0.35786847430E+03  0.12509593336E+03 0.  0.
         23    2    1    2    0    0 -0.48209879097E+01  0.73651686716E+02  0.40732871132E+02  0.12263979901E+03  0.89070425113E+02 0.  0.
          5    1    3    3  502    0 -0.11835442136E+02  0.24052009120E+02  0.16961669460E+03  0.17177273451E+03  0.41800000000E+01 0. -1.
         -5    1    3    3    0  502  0.16656430046E+02 -0.97703695836E+02  0.15745063711E+03  0.18609573979E+03  0.41800000000E+01 0. -1.
        -11    1    4    4    0    0 -0.38892948829E+02  0.51168321203E+02  0.49209905550E+02  0.80947349355E+02  0.00000000000E+00 0.  1.
         11    1    4    4    0    0  0.34071960919E+02  0.22483365513E+02 -0.84770344185E+01  0.41692449654E+02  0.00000000000E+00 0. -1.
</event>
<event>
 8    1  0.6380238E-009  0.1694059E+03  0.7561462E-02  0.1178469E+00
          1   -1    0    0  501    0  0.00000000000E+00  0.00000000000E+00  0.22250629882E+03  0.22250629882E+03  0.00000000000E+00 0. -1.
         -1   -1    0    0    0  501 -0.00000000000E+00 -0.00000000000E+00 -0.19990414053E+03  0.19990414053E+03  0.00000000000E+00 0.  1.
         25    2    1    2    0    0  0.15197119454E+03  0.53400191877E+02  0.92609185785E+02  0.22398948922E+03  0.12509198826E+03 0.  0.
         23    2    1    2    0    0 -0.15197119454E+03 -0.53400191877E+02 -0.70007027496E+02  0.19842095012E+03  0.92320447819E+02 0.  0.
          5    1    3    3  502    0  0.41505366653E+01  0.19816640777E+02  0.67101400559E+02  0.70213934253E+02  0.41800000000E+01 0. -1.
         -5    1    3    3    0  502  0.14782065787E+03  0.33583551100E+02  0.25507785226E+02  0.15377555497E+03  0.41800000000E+01 0. -1.
        -11    1    4    4    0    0 -0.97822739045E+02 -0.12467255317E+02  0.30967738324E+01  0.98662610636E+02  0.00000000000E+00 0. -1.
         11    1    4    4    0    0 -0.54148455495E+02 -0.40932936560E+02 -0.73103801329E+02  0.99758339484E+02  0.00000000000E+00 0.  1.
</event>
<event>
 8    1  0.6380238E-009  0.7640383E+02  0.7561462E-02  0.1339578E+00
          1   -1    0    0  501    0  0.00000000000E+00  0.00000000000E+00  0.31439077430E+03  0.31439077430E+03  0.00000000000E+00 0. -1.
         -1   -1    0    0    0  501 -0.00000000000E+00 -0.00000000000E+00 -0.40606378108E+02  0.40606378108E+02  0.00000000000E+00 0.  1.
         25    2    1    2    0    0 -0.11983351980E+01  0.29793164470E+02  0.15647602525E+03  0.20253732891E+03  0.12509018534E+03 0.  0.
         23    2    1    2    0    0  0.11983351980E+01 -0.29793164470E+02  0.11730837095E+03  0.15245982350E+03  0.92702077812E+02 0.  0.
          5    1    3    3  502    0  0.12146241886E+02  0.37724922628E+02  0.17414628288E+03  0.17864798129E+03  0.41800000000E+01 0.  1.
         -5    1    3    3    0  502 -0.13344577084E+02 -0.79317581573E+01 -0.17670257630E+02  0.23889347620E+02  0.41800000000E+01 0.  1.
        -11    1    4    4    0    0  0.39692400464E+02 -0.40719328930E+02  0.61149462200E+02  0.83503336044E+02  0.00000000000E+00 0.  1.
         11    1    4    4    0    0 -0.38494065266E+02  0.10926164460E+02  0.56158908747E+02  0.68956487455E+02  0.00000000000E+00 0. -1.
</event>
<event>
 8    1  0.6380238E-009  0.1732330E+03  0.7561462E-02  0.1174518E+00
         -1   -1    0    0    0  501 -0.00000000000E+00  0.00000000000E+00  0.90748115241E+02  0.90748115241E+02  0.00000000000E+00 0.  1.
          1   -1    0    0  501    0  0.00000000000E+00 -0.00000000000E+00 -0.43212290081E+03  0.43212290081E+03  0.00000000000E+00 0. -1.
         25    2    1    2    0    0 -0.23528959983E+02  0.16210741689E+03 -0.19641196267E+03  0.28469719499E+03  0.12506960937E+03 0.  0.
         23    2    1    2    0    0  0.23528959983E+02 -0.16210741689E+03 -0.14496282290E+03  0.23817382106E+03  0.94234401620E+02 0.  0.
          5    1    3    3  502    0  0.23937123809E+02  0.80147148777E+02 -0.22656144212E+02  0.86760155739E+02  0.41800000000E+01 0. -1.
         -5    1    3    3    0  502 -0.47466083791E+02  0.81960268111E+02 -0.17375581846E+03  0.19793703925E+03  0.41800000000E+01 0. -1.
        -11    1    4    4    0    0  0.26979793908E+02 -0.60476804176E+02 -0.11406429731E+03  0.13189396136E+03  0.00000000000E+00 0. -1.
         11    1    4    4    0    0 -0.34508339251E+01 -0.10163061271E+03 -0.30898525592E+02  0.10627985970E+03  0.00000000000E+00 0.  1.
</event>
<event>
 8    1  0.6380238E-009  0.1247762E+03  0.7561462E-02  0.1235419E+00
          1   -1    0    0  501    0  0.00000000000E+00  0.00000000000E+00  0.28045845371E+03  0.28045845371E+03  0.00000000000E+00 0. -1.
         -1   -1    0    0    0  501 -0.00000000000E+00 -0.00000000000E+00 -0.10916056839E+03  0.10916056839E+03  0.00000000000E+00 0.  1.
         25    2    1    2    0    0 -0.57634751087E+02  0.23844594421E+02 -0.44508119177E+02  0.14669277583E+03  0.12508984208E+03 0.  0.
         23    2    1    2    0    0  0.57634751087E+02 -0.23844594421E+02  0.21580600450E+03  0.24292624627E+03  0.92469456230E+02 0.  0.
          5    1    3    3  502    0 -0.28397562694E+02  0.74394598338E+02 -0.15027344481E+02  0.81143522915E+02  0.41800000000E+01 0. -1.
         -5    1    3    3    0  502 -0.29237188392E+02 -0.50550003917E+02 -0.29480774696E+02  0.65549252915E+02  0.41800000000E+01 0. -1.
        -11    1    4    4    0    0 -0.19959101390E+02 -0.27038707202E+02  0.57603228130E+02  0.66690248961E+02  0.00000000000E+00 0.  1.
         11    1    4    4    0    0  0.77593852476E+02  0.31941127810E+01  0.15820277637E+03  0.17623599731E+03  0.00000000000E+00 0. -1.
</event>
<event>
 8    1  0.6380238E-009  0.8453220E+02  0.7561462E-02  0.1316660E+00
         -2   -1    0    0    0  501 -0.00000000000E+00  0.00000000000E+00  0.36283653596E+02  0.36283653596E+02  0.00000000000E+00 0.  1.
          2   -1    0    0  501    0  0.00000000000E+00 -0.00000000000E+00 -0.34665169601E+03  0.34665169601E+03  0.00000000000E+00 0. -1.
         25    2    1    2    0    0  0.77119046245E+01  0.16354627669E+01 -0.13482826799E+03  0.18408786177E+03  0.12509009069E+03 0.  0.
         23    2    1    2    0    0 -0.77119046245E+01 -0.16354627669E+01 -0.17553977443E+03  0.19884748784E+03  0.93080410419E+02 0.  0.
          5    1    3    3  502    0  0.80076632148E+01  0.41043617033E+02 -0.13807085906E+03  0.14432510416E+03  0.41800000000E+01 0. -1.
         -5    1    3    3    0  502 -0.29575859038E+00 -0.39408154266E+02  0.32425910677E+01  0.39762757609E+02  0.41800000000E+01 0. -1.
        -11    1    4    4    0    0 -0.19241056067E+02  0.39902840729E+02 -0.12388752924E+03  0.13156965774E+03  0.00000000000E+00 0. -1.
         11    1    4    4    0    0  0.11529151443E+02 -0.41538303495E+02 -0.51652245186E+02  0.67277830101E+02  0.00000000000E+00 0.  1.
</event>
<event>
 8    1  0.6380238E-009  0.1229963E+03  0.7561462E-02  0.1238234E+00
          2   -1    0    0  501    0  0.00000000000E+00  0.00000000000E+00  0.43631229454E+03  0.43631229454E+03  0.00000000000E+00 0. -1.
         -2   -1    0    0    0  501 -0.00000000000E+00 -0.00000000000E+00 -0.40266616737E+02  0.40266616737E+02  0.00000000000E+00 0.  1.
         25    2    1    2    0    0  0.42808859809E+02 -0.50040656618E+02  0.28238723887E+03  0.31578636154E+03  0.12506721258E+03 0.  0.
         23    2    1    2    0    0 -0.42808859809E+02  0.50040656618E+02  0.11365843894E+03  0.16079254974E+03  0.92732613026E+02 0.  0.
          5    1    3    3  502    0 -0.42439176568E+02 -0.24311669200E+02  0.70456201739E+02  0.85870191164E+02  0.41800000000E+01 0.  1.
         -5    1    3    3    0  502  0.85248036377E+02 -0.25728987418E+02  0.21193103713E+03  0.22991617037E+03  0.41800000000E+01 0.  1.
        -11    1    4    4    0    0 -0.57337543566E+02  0.65157874714E+02  0.10896401774E+03  0.13930649554E+03  0.00000000000E+00 0.  1.
         11    1    4    4    0    0  0.14528683757E+02 -0.15117218096E+02  0.46944211996E+01  0.21486054200E+02  0.00000000000E+00 0. -1.
</event>
<event>
 8    1  0.6380238E-009  0.1256161E+03  0.7561462E-02  0.1234110E+00
         -1   -1    0    0    0  501 -0.00000000000E+00  0.00000000000E+00  0.14627357024E+02  0.14627357024E+02  0.00000000000E+00 0.  1.
          1   -1    0    0  501    0  0.00000000000E+00 -0.00000000000E+00 -0.12365892841E+04  0.12365892841E+04  0.00000000000E+00 0. -1.
         25    2    1    2    0    0 -0.69063375368E+02 -0.30444996615E+02 -0.56995358571E+03  0.58838559226E+03  0.12511541746E+03 0.  0.
         23    2    1    2    0    0  0.69063375368E+02  0.30444996615E+02 -0.65200834132E+03  0.66283104881E+03  0.92376807059E+02 0.  0.
          5    1    3    3  502    0 -0.24783949634E+02 -0.68780837251E+02 -0.43629646438E+03  0.44239928228E+03  0.41800000000E+01 0.  1.
         -5    1    3    3    0  502 -0.44279425734E+02  0.38335840636E+02 -0.13365712133E+03  0.14598630998E+03  0.41800000000E+01 0.  1.
        -11    1    4    4    0    0  0.89852552992E+02  0.10479754588E+02 -0.49699936174E+03  0.50516499494E+03  0.00000000000E+00 0.  1.
         11    1    4    4    0    0 -0.20789177624E+02  0.19965242027E+02 -0.15500897957E+03  0.15766605387E+03  0.00000000000E+00 0. -1.
</event>
<event>
 8    1  0.6380238E-009  0.3956232E+03  0.7561462E-02  0.1045306E+00
         -1   -1    0    0    0  501 -0.00000000000E+00  0.00000000000E+00  0.30059740290E+03  0.30059740290E+03  0.00000000000E+00 0.  1.
          1   -1    0    0  501    0  0.00000000000E+00 -0.00000000000E+00 -0.65228245521E+03  0.65228245521E+03  0.00000000000E+00 0. -1.
         25    2    1    2    0    0 -0.32388102049E+03  0.20171220402E+03  0.34673229660E+02  0.40303458817E+03  0.12509163733E+03 0.  0.
         23    2    1    2    0    0  0.32388102049E+03 -0.20171220402E+03 -0.38635828197E+03  0.54984526994E+03  0.86431303039E+02 0.  0.
          5    1    3    3  502    0 -0.13870558748E+03  0.19359344007E+02 -0.44531949909E+01  0.14018319281E+03  0.41800000000E+01 0.  1.
         -5    1    3    3    0  502 -0.18517543300E+03  0.18235286001E+03  0.39126424651E+02  0.26285139537E+03  0.41800000000E+01 0.  1.
        -11    1    4    4    0    0  0.16926181628E+03 -0.54761530201E+02 -0.17802315373E+03  0.25167564623E+03  0.00000000000E+00 0.  1.
         11    1    4    4    0    0  0.15461920421E+03 -0.14695067381E+03 -0.20833512823E+03  0.29816962371E+03  0.00000000000E+00 0. -1.
</event>
<event>
 8    1  0.6380238E-009  0.1250204E+03  0.7561462E-02  0.1235037E+00
         -2   -1    0    0    0  501 -0.00000000000E+00  0.00000000000E+00  0.38294015505E+02  0.38294015505E+02  0.00000000000E+00 0.  1.
          2   -1    0    0  501    0  0.00000000000E+00 -0.00000000000E+00 -0.51851929219E+03  0.51851929219E+03  0.00000000000E+00 0. -1.
         25    2    1    2    0    0  0.86016160969E+02 -0.58074761407E+01 -0.31329885076E+03  0.34817348500E+03  0.12504438828E+03 0.  0.
         23    2    1    2    0    0 -0.86016160969E+02  0.58074761407E+01 -0.16692642592E+03  0.20863982269E+03  0.90739391756E+02 0.  0.
          5    1    3    3  502    0  0.68159816733E+02  0.38150304905E+02 -0.87332181950E+02  0.11724158300E+03  0.41800000000E+01 0.  1.
         -5    1    3    3    0  502  0.17856344236E+02 -0.43957781046E+02 -0.22596666881E+03  0.23093190199E+03  0.41800000000E+01 0.  1.
        -11    1    4    4    0    0 -0.95597452690E+02 -0.19113592833E+02 -0.11957986817E+03  0.15428398253E+03  0.00000000000E+00 0.  1.
         11    1    4    4    0    0  0.95812917213E+01  0.24921068974E+02 -0.47346557744E+02  0.54355840165E+02  0.00000000000E+00 0. -1.
</event>
<event>
 8    1  0.6380238E-009  0.1524578E+03  0.7561462E-02  0.1197485E+00
         -2   -1    0    0    0  501 -0.00000000000E+00  0.00000000000E+00  0.11624447836E+03  0.11624447836E+03  0.00000000000E+00 0.  1.
          2   -1    0    0  501    0  0.00000000000E+00 -0.00000000000E+00 -0.27517520556E+03  0.27517520556E+03  0.00000000000E+00 0. -1.
         25    2    1    2    0    0  0.43502188235E+02  0.13338303961E+03 -0.81734411333E+02  0.20497147449E+03  0.12509722508E+03 0.  0.
         23    2    1    2    0    0 -0.43502188235E+02 -0.13338303961E+03 -0.77196315872E+02  0.18644820942E+03  0.95499675271E+02 0.  0.
          5    1    3    3  502    0  0.61767646507E+02  0.68174743014E+02 -0.98746999453E+02  0.13502399802E+03  0.41800000000E+01 0. -1.
         -5    1    3    3    0  502 -0.18265458272E+02  0.65208296595E+02  0.17012588120E+02  0.69947476475E+02  0.41800000000E+01 0. -1.
        -11    1    4    4    0    0 -0.36786444318E+02 -0.54160730601E+02  0.12427405871E+02  0.66641335832E+02  0.00000000000E+00 0.  1.
         11    1    4    4    0    0 -0.67157439171E+01 -0.79222309008E+02 -0.89623721743E+02  0.11980687359E+03  0.00000000000E+00 0. -1.
</event>
<event>
 8    1  0.6380238E-009  0.8672859E+02  0.7561462E-02  0.1310973E+00
          1   -1    0    0  501    0  0.00000000000E+00  0.00000000000E+00  0.39460287155E+02  0.39460287155E+02  0.00000000000E+00 0. -1.
         -1   -1    0    0    0  501 -0.00000000000E+00 -0.00000000000E+00 -0.31964970510E+03  0.31964970510E+03  0.00000000000E+00 0.  1.
         25    2    1    2    0    0 -0.10002284436E+02  0.22431871609E+02 -0.19836212327E+03  0.23579205003E+03  0.12508846609E+03 0.  0.
         23    2    1    2    0    0  0.10002284436E+02 -0.22431871609E+02 -0.81827294673E+02  0.12331794223E+03  0.88929040049E+02 0.  0.
          5    1    3    3  502    0 -0.42298347775E+02 -0.38191335381E+02 -0.72138488827E+02  0.92028051663E+02  0.41800000000E+01 0.  1.
         -5    1    3    3    0  502  0.32296063339E+02  0.60623206991E+02 -0.12622363444E+03  0.14376399836E+03  0.41800000000E+01 0.  1.
        -11    1    4    4    0    0 -0.11612093760E+02 -0.23121460517E+02 -0.94686648362E+02  0.98158056399E+02  0.00000000000E+00 0.  1.
         11    1    4    4    0    0  0.21614378196E+02  0.68958890764E+00  0.12859353689E+02  0.25159885829E+02  0.00000000000E+00 0. -1.
</event>
<event>
 8    1  0.6380238E-009  0.1659154E+03  0.7561462E-02  0.1182176E+00
          2   -1    0    0  501    0  0.00000000000E+00  0.00000000000E+00  0.71167124060E+03  0.71167124060E+03  0.00000000000E+00 0.  1.
         -2   -1    0    0    0  501 -0.00000000000E+00 -0.00000000000E+00 -0.39495650935E+02  0.39495650935E+02  0.00000000000E+00 0. -1.
         25    2    1    2    0    0 -0.12452601512E+03 -0.51429768643E+02  0.41911238753E+03  0.45766289851E+03  0.12509350800E+03 0.  0.
         23    2    1    2    0    0  0.12452601512E+03  0.51429768643E+02  0.25306320213E+03  0.29350399303E+03  0.62863821902E+02 0.  0.
          5    1    3    3  502    0 -0.64828584567E+02  0.38277154333E+02  0.15436243949E+03  0.17179383297E+03  0.41800000000E+01 0. -1.
         -5    1    3    3    0  502 -0.59697430553E+02 -0.89706922975E+02  0.26474994804E+03  0.28586906554E+03  0.41800000000E+01 0. -1.
        -11    1    4    4    0    0  0.84199747846E+02  0.12382967122E+01  0.14814287100E+03  0.17040375919E+03  0.00000000000E+00 0. -1.
         11    1    4    4    0    0  0.40326267274E+02  0.50191471930E+02  0.10492033113E+03  0.12310023384E+03  0.00000000000E+00 0.  1.
</event>
<event>
 8    1  0.6380238E-009  0.1097351E+03  0.7561462E-02  0.1261061E+00
          4   -1    0    0  501    0  0.00000000000E+00  0.00000000000E+00  0.12322397155E+03  0.12322397155E+03  0.00000000000E+00 0. -1.
         -4   -1    0    0    0  501 -0.00000000000E+00 -0.00000000000E+00 -0.10877552494E+03  0.10877552494E+03  0.00000000000E+00 0.  1.
         25    2    1    2    0    0 -0.28978846823E+02 -0.34052965338E+02  0.39248464071E+02  0.13851778170E+03  0.12508939165E+03 0.  0.
         23    2    1    2    0    0  0.28978846823E+02  0.34052965338E+02 -0.24800017461E+02  0.93481714789E+02  0.78258623309E+02 0.  0.
          5    1    3    3  502    0 -0.68438262534E+02 -0.51853654042E+02  0.40459845615E+02  0.95010887394E+02  0.41800000000E+01 0. -1.
         -5    1    3    3    0  502  0.39459415710E+02  0.17800688704E+02 -0.12113815447E+01  0.43506894302E+02  0.41800000000E+01 0. -1.
        -11    1    4    4    0    0  0.47648694954E+02  0.47287021468E+02 -0.16402132358E+02  0.69104923674E+02  0.00000000000E+00 0.  1.
         11    1    4    4    0    0 -0.18669848130E+02 -0.13234056130E+02 -0.83978851033E+01  0.24376791115E+02  0.00000000000E+00 0. -1.
</event>
<event>
 8    1  0.6380238E-009  0.1254630E+03  0.7561462E-02  0.1234347E+00
          2   -1    0    0  501    0  0.00000000000E+00  0.00000000000E+00  0.95195415056E+02  0.95195415056E+02  0.00000000000E+00 0. -1.
         -2   -1    0    0    0  501 -0.00000000000E+00 -0.00000000000E+00 -0.19342856115E+03  0.19342856115E+03  0.00000000000E+00 0.  1.
         25    2    1    2    0    0  0.54039590033E+02  0.56091490323E+02 -0.68605289308E+02  0.16255318382E+03  0.12510123609E+03 0.  0.
         23    2    1    2    0    0 -0.54039590033E+02 -0.56091490323E+02 -0.29627856788E+02  0.12607079239E+03  0.94601808745E+02 0.  0.
          5    1    3    3  502    0 -0.47645521616E+01 -0.35683608872E+02 -0.29316565643E+02  0.46614958120E+02  0.41800000000E+01 0.  1.
         -5    1    3    3    0  502  0.58804142194E+02  0.91775099195E+02 -0.39288723665E+02  0.11593822570E+03  0.41800000000E+01 0.  1.
        -11    1    4    4    0    0 -0.21465297193E+02  0.15816786893E+02  0.19550895679E+02  0.33063079909E+02  0.00000000000E+00 0. -1.
         11    1    4    4    0    0 -0.32574292840E+02 -0.71908277216E+02 -0.49178752467E+02  0.93007712478E+02  0.00000000000E+00 0.  1.
</event>
<event>
 8    1  0.6380238E-009  0.1434392E+03  0.7561462E-02  0.1208775E+00
          2   -1    0    0  501    0  0.00000000000E+00  0.00000000000E+00  0.55759342823E+03  0.55759342823E+03  0.00000000000E+00 0. -1.
         -2   -1    0    0    0  501 -0.00000000000E+00 -0.00000000000E+00 -0.78030132640E+02  0.78030132640E+02  0.00000000000E+00 0.  1.
         25    2    1    2    0    0 -0.12482240894E+03  0.30407472806E+02  0.63424624977E+02  0.19021037233E+03  0.12510817125E+03 0.  0.
         23    2    1    2    0    0  0.12482240894E+03 -0.30407472806E+02  0.41613867061E+03  0.44541318853E+03  0.93360950981E+02 0.  0.
          5    1    3    3  502    0 -0.81806642638E+02 -0.24057388456E+02 -0.13596115590E+02  0.86448895182E+02  0.41800000000E+01 0. -1.
         -5    1    3    3    0  502 -0.43015766302E+02  0.54464861263E+02  0.77020740567E+02  0.10376147715E+03  0.41800000000E+01 0. -1.
        -11    1    4    4    0    0  0.94768485694E+02 -0.92428693643E+01  0.38689904864E+03  0.39844368530E+03  0.00000000000E+00 0. -1.
         11    1    4    4    0    0  0.30053923246E+02 -0.21164603442E+02  0.29239621966E+02  0.46969503234E+02  0.00000000000E+00 0.  1.
</event>
<event>
 8    1  0.6380238E-009  0.3619985E+03  0.7561462E-02  0.1057795E+00
          1   -1    0    0  501    0  0.00000000000E+00  0.00000000000E+00  0.22195651027E+03  0.22195651027E+03  0.00000000000E+00 0. -1.
         -1   -1    0    0    0  501 -0.00000000000E+00 -0.00000000000E+00 -0.62862524015E+03  0.62862524015E+03  0.00000000000E+00 0.  1.
         25    2    1    2    0    0 -0.28875561748E+03 -0.20809859962E+03 -0.22283106591E+03  0.43816153840E+03  0.12508803305E+03 0.  0.
         23    2    1    2    0    0  0.28875561748E+03  0.20809859962E+03 -0.18383766398E+03  0.41242021202E+03  0.98027092169E+02 0.  0.
          5    1    3    3  502    0 -0.99773142243E+02 -0.72964737824E+02 -0.15050443711E+03  0.19480141393E+03  0.41800000000E+01 0. -1.
         -5    1    3    3    0  502 -0.18898247524E+03 -0.13513386179E+03 -0.72326628797E+02  0.24336012447E+03  0.41800000000E+01 0. -1.
        -11    1    4    4    0    0  0.14516393607E+02  0.48567843204E+02 -0.14158292055E+02  0.52630963422E+02  0.00000000000E+00 0.  1.
         11    1    4    4    0    0  0.27423922387E+03  0.15953075641E+03 -0.16967937192E+03  0.35978924860E+03  0.00000000000E+00 0. -1.
</event>
<event>
 8    1  0.6380238E-009  0.9951913E+02  0.7561462E-02  0.1281310E+00
          2   -1    0    0  501    0  0.00000000000E+00  0.00000000000E+00  0.84790292968E+03  0.84790292968E+03  0.00000000000E+00 0. -1.
         -2   -1    0    0    0  501 -0.00000000000E+00 -0.00000000000E+00 -0.32256102179E+02  0.32256102179E+02  0.00000000000E+00 0.  1.
         25    2    1    2    0    0  0.72207481328E+02  0.25422553347E+02  0.69433366935E+03  0.70965292339E+03  0.12509116955E+03 0.  0.
         23    2    1    2    0    0 -0.72207481328E+02 -0.25422553347E+02  0.12131315815E+03  0.17050610847E+03  0.92169540017E+02 0.  0.
          5    1    3    3  502    0  0.28784320512E+00  0.36138191497E+02  0.53523735354E+02  0.64717187706E+02  0.41800000000E+01 0.  1.
         -5    1    3    3    0  502  0.71919638123E+02 -0.10715638150E+02  0.64080993400E+03  0.64493573568E+03  0.41800000000E+01 0.  1.
        -11    1    4    4    0    0 -0.28620862827E+02 -0.34985448442E+02  0.44576458974E+01  0.45420325831E+02  0.00000000000E+00 0.  1.
         11    1    4    4    0    0 -0.43586618502E+02  0.95628950950E+01  0.11685551225E+03  0.12508578264E+03  0.00000000000E+00 0. -1.
</event>
<event>
 8    1  0.6380238E-009  0.8770959E+02  0.7561462E-02  0.1308495E+00
         -1   -1    0    0    0  501 -0.00000000000E+00  0.00000000000E+00  0.32254497358E+02  0.32254497358E+02  0.00000000000E+00 0.  1.
          1   -1    0    0  501    0  0.00000000000E+00 -0.00000000000E+00 -0.45416105763E+03  0.45416105763E+03  0.00000000000E+00 0. -1.
         25    2    1    2    0    0  0.25263819705E+01  0.20798465843E+02 -0.16988776265E+03  0.21201060731E+03  0.12509071479E+03 0.  0.
         23    2    1    2    0    0 -0.25263819705E+01 -0.20798465843E+02 -0.25201879762E+03  0.27440494768E+03  0.10651592448E+03 0.  0.
          5    1    3    3  502    0 -0.40836105462E+02  0.98206283877E+01 -0.66808279836E+01  0.42733337265E+02  0.41800000000E+01 0. -1.
         -5    1    3    3    0  502  0.43362487432E+02  0.10977837456E+02 -0.16320693467E+03  0.16927727005E+03  0.41800000000E+01 0. -1.
        -11    1    4    4    0    0  0.38904436540E+02 -0.25609304800E+02 -0.21036066551E+03  0.21545533474E+03  0.00000000000E+00 0. -1.
         11    1    4    4    0    0 -0.41430818511E+02  0.48108389570E+01 -0.41658132111E+02  0.58949612933E+02  0.00000000000E+00 0.  1.
</event>
<event>
 8    1  0.6380238E-009  0.7076423E+02  0.7561462E-02  0.1357513E+00
         -2   -1    0    0    0  501 -0.00000000000E+00  0.00000000000E+00  0.80467878417E+02  0.80467878417E+02  0.00000000000E+00 0.  1.
          2   -1    0    0  501    0  0.00000000000E+00 -0.00000000000E+00 -0.17035220212E+03  0.17035220212E+03  0.00000000000E+00 0. -1.
         25    2    1    2    0    0  0.14011498457E+02  0.38367262646E+02 -0.68696787589E+02  0.14844396855E+03  0.12509194315E+03 0.  0.
         23    2    1    2    0    0 -0.14011498457E+02 -0.38367262646E+02 -0.21187536110E+02  0.10237611198E+03  0.91452652704E+02 0.  0.
          5    1    3    3  502    0 -0.16011892303E+02  0.60463577676E+02  0.78725997437E+01  0.63179705185E+02  0.41800000000E+01 0.  1.
         -5    1    3    3    0  502  0.30023390761E+02 -0.22096315030E+02 -0.76569387333E+02  0.85264263365E+02  0.41800000000E+01 0.  1.
        -11    1    4    4    0    0 -0.80747406838E+01 -0.13219845751E+02  0.36235333271E+02  0.39407678643E+02  0.00000000000E+00 0.  1.
         11    1    4    4    0    0 -0.59367577737E+01 -0.25147416895E+02 -0.57422869381E+02  0.62968433341E+02  0.00000000000E+00 0. -1.
</event>
<event>
 8    1  0.6380238E-009  0.1236634E+03  0.7561462E-02  0.1237173E+00
          2   -1    0    0  501    0  0.00000000000E+00  0.00000000000E+00  0.15456779442E+03  0.15456779442E+03  0.00000000000E+00 0.  1.
         -2   -1    0    0    0  501 -0.00000000000E+00 -0.00000000000E+00 -0.12481184199E+03  0.12481184199E+03  0.00000000000E+00 0. -1.
         25    2    1    2    0    0 -0.46049362507E+02 -0.67986019441E+02 -0.11765859864E+02  0.15009529513E+03  0.12509004571E+03 0.  0.
         23    2    1    2    0    0  0.46049362507E+02  0.67986019441E+02  0.41521812301E+02  0.12928434127E+03  0.90817054427E+02 0.  0.
          5    1    3    3  502    0 -0.46163890794E+02 -0.10347800151E+03 -0.36308573207E+01  0.11344362977E+03  0.41800000000E+01 0. -1.
         -5    1    3    3    0  502  0.11452828674E+00  0.35491982068E+02 -0.81350025434E+01  0.36651665368E+02  0.41800000000E+01 0. -1.
        -11    1    4    4    0    0  0.55713947616E+02  0.39972373803E+02  0.62657041819E+02  0.92885625992E+02  0.00000000000E+00 0.  1.
         11    1    4    4    0    0 -0.96645851090E+01  0.28013645639E+02 -0.21135229518E+02  0.36398715281E+02  0.00000000000E+00 0. -1.
</event>
<event>
 8    1  0.6380238E-009  0.1916209E+03  0.7561462E-02  0.1157007E+00
          4   -1    0    0  501    0  0.00000000000E+00  0.00000000000E+00  0.20012920758E+03  0.20012920758E+03  0.00000000000E+00 0.  1.
         -4   -1    0    0    0  501 -0.00000000000E+00 -0.00000000000E+00 -0.21954263648E+03  0.21954263648E+03  0.00000000000E+00 0. -1.
         25    2    1    2    0    0  0.80049321259E+02  0.15973717257E+03 -0.22805387120E+02  0.21929715971E+03  0.12508916996E+03 0.  0.
         23    2    1    2    0    0 -0.80049321259E+02 -0.15973717257E+03  0.33919582133E+01  0.20037468435E+03  0.90634709760E+02 0.  0.
          5    1    3    3  502    0  0.56803383713E+02  0.17341590775E+02 -0.43148286200E+02  0.73529600664E+02  0.41800000000E+01 0.  1.
         -5    1    3    3    0  502  0.23245937547E+02  0.14239558180E+03  0.20342899080E+02  0.14576755905E+03  0.41800000000E+01 0.  1.
        -11    1    4    4    0    0 -0.51797869047E+02 -0.85949962437E+02  0.46241166500E+02  0.11049280863E+03  0.00000000000E+00 0.  1.
         11    1    4    4    0    0 -0.28251452212E+02 -0.73787210135E+02 -0.42849208287E+02  0.89881875717E+02  0.00000000000E+00 0. -1.
</event>
<event>
 8    1  0.6380238E-009  0.1153308E+03  0.7561462E-02  0.1251005E+00
         -1   -1    0    0    0  501 -0.00000000000E+00  0.00000000000E+00  0.38325414072E+02  0.38325414072E+02  0.00000000000E+00 0.  1.
          1   -1    0    0  501    0  0.00000000000E+00 -0.00000000000E+00 -0.38976283995E+03  0.38976283995E+03  0.00000000000E+00 0. -1.
         25    2    1    2    0    0  0.33370922494E+02 -0.34084337128E+02 -0.23917700455E+03  0.27409569376E+03  0.12508976508E+03 0.  0.
         23    2    1    2    0    0 -0.33370922494E+02  0.34084337128E+02 -0.11226042133E+03  0.15399256026E+03  0.93999712301E+02 0.  0.
          5    1    3    3  502    0 -0.15713763311E+02 -0.65616981054E+02 -0.81309955863E+02  0.10574162795E+03  0.41800000000E+01 0. -1.
         -5    1    3    3    0  502  0.49084685805E+02  0.31532643926E+02 -0.15786704869E+03  0.16835406581E+03  0.41800000000E+01 0. -1.
        -11    1    4    4    0    0 -0.36217332130E+02 -0.25895387314E+02 -0.38332427876E+02  0.58750670274E+02  0.00000000000E+00 0. -1.
         11    1    4    4    0    0  0.28464096358E+01  0.59979724442E+02 -0.73927993452E+02  0.95241889985E+02  0.00000000000E+00 0.  1.
</event>
<event>
 8    1  0.6380238E-009  0.1274865E+03  0.7561462E-02  0.1231234E+00
         -2   -1    0    0    0  501 -0.00000000000E+00  0.00000000000E+00  0.10133372302E+03  0.10133372302E+03  0.00000000000E+00 0. -1.
          2   -1    0    0  501    0  0.00000000000E+00 -0.00000000000E+00 -0.27295900379E+03  0.27295900379E+03  0.00000000000E+00 0.  1.
         25    2    1    2    0    0 -0.16022577053E+02 -0.10753068239E+03 -0.20941974727E+02  0.16705145799E+03  0.12509217674E+03 0.  0.
         23    2    1    2    0    0  0.16022577053E+02  0.10753068239E+03 -0.15068330604E+03  0.20724126881E+03  0.91781883561E+02 0.  0.
          5    1    3    3  502    0  0.29121661095E+02 -0.56139558063E+01 -0.43922960762E+02  0.53162830313E+02  0.41800000000E+01 0. -1.
         -5    1    3    3    0  502 -0.45144238148E+02 -0.10191672658E+03  0.22980986036E+02  0.11388862768E+03  0.41800000000E+01 0. -1.
        -11    1    4    4    0    0 -0.10096223367E+02  0.27830627081E+02 -0.11020721327E+03  0.11411444863E+03  0.00000000000E+00 0.  1.
         11    1    4    4    0    0  0.26118800420E+02  0.79700055305E+02 -0.40476092772E+02  0.93126820181E+02  0.00000000000E+00 0. -1.
</event>
<event>
 8    1  0.6380238E-009  0.1159903E+03  0.7561462E-02  0.1249862E+00
         -2   -1    0    0    0  501 -0.00000000000E+00  0.00000000000E+00  0.15148676075E+03  0.15148676075E+03  0.00000000000E+00 0.  1.
          2   -1    0    0  501    0  0.00000000000E+00 -0.00000000000E+00 -0.10747873440E+03  0.10747873440E+03  0.00000000000E+00 0. -1.
         25    2    1    2    0    0  0.29725726364E+02 -0.56436131203E+02  0.35818136654E+01  0.14046135283E+03  0.12509159259E+03 0.  0.
         23    2    1    2    0    0 -0.29725726364E+02  0.56436131203E+02  0.40426212692E+02  0.11850414232E+03  0.91325228500E+02 0.  0.
          5    1    3    3  502    0 -0.45811891989E+02 -0.45647337478E+01 -0.11160215599E+02  0.47556167360E+02  0.41800000000E+01 0.  1.
         -5    1    3    3    0  502  0.75537618353E+02 -0.51871397455E+02  0.14742029265E+02  0.92905185470E+02  0.41800000000E+01 0.  1.
        -11    1    4    4    0    0 -0.41300628179E+02  0.66767769347E+02  0.56066694833E+02  0.96473577632E+02  0.00000000000E+00 0.  1.
         11    1    4    4    0    0  0.11574901815E+02 -0.10331638144E+02 -0.15640482141E+02  0.22030564686E+02  0.00000000000E+00 0. -1.
</event>
<event>
 8    1  0.6380238E-009  0.1494414E+03  0.7561462E-02  0.1201161E+00
         -1   -1    0    0    0  501 -0.00000000000E+00  0.00000000000E+00  0.12064927597E+03  0.12064927597E+03  0.00000000000E+00 0.  1.
          1   -1    0    0  501    0  0.00000000000E+00 -0.00000000000E+00 -0.27731099189E+03  0.27731099189E+03  0.00000000000E+00 0. -1.
         25    2    1    2    0    0 -0.11411228788E+03 -0.74653757190E+02 -0.14137593103E+03  0.23287367158E+03  0.12509274693E+03 0.  0.
         23    2    1    2    0    0  0.11411228788E+03  0.74653757190E+02 -0.15285784898E+02  0.16508659628E+03  0.91788514228E+02 0.  0.
          5    1    3    3  502    0 -0.11533422814E+03 -0.88643048089E+02 -0.15518328481E+03  0.21274138864E+03  0.41800000000E+01 0.  1.
         -5    1    3    3    0  502  0.12219402579E+01  0.13989290899E+02  0.13807353788E+02  0.20132282943E+02  0.41800000000E+01 0.  1.
        -11    1    4    4    0    0  0.17358567351E+02  0.23641791689E+02  0.34183622032E+02  0.45041915923E+02  0.00000000000E+00 0.  1.
         11    1    4    4    0    0  0.96753720527E+02  0.51011965501E+02 -0.49469406930E+02  0.12004468036E+03  0.00000000000E+00 0. -1.
</event>
<event>
 8    1  0.6380238E-009  0.2556605E+03  0.7561462E-02  0.1109779E+00
          3   -1    0    0  501    0  0.00000000000E+00  0.00000000000E+00  0.36315528438E+03  0.36315528438E+03  0.00000000000E+00 0. -1.
         -3   -1    0    0    0  501 -0.00000000000E+00 -0.00000000000E+00 -0.24151903199E+03  0.24151903199E+03  0.00000000000E+00 0.  1.
         25    2    1    2    0    0 -0.56413248832E+01 -0.24299913640E+03 -0.69608956379E+02  0.28208215205E+03  0.12507809104E+03 0.  0.
         23    2    1    2    0    0  0.56413248832E+01  0.24299913640E+03  0.19124520876E+03  0.32259216433E+03  0.91709158611E+02 0.  0.
          5    1    3    3  502    0 -0.32907749294E+02 -0.17731097477E+03 -0.98117272041E+02  0.20534501019E+03  0.41800000000E+01 0. -1.
         -5    1    3    3    0  502  0.27266424411E+02 -0.65688161632E+02  0.28508315662E+02  0.76737141859E+02  0.41800000000E+01 0. -1.
        -11    1    4    4    0    0  0.47741024744E+02  0.10360072897E+03  0.79535656846E+02  0.13906199048E+03  0.00000000000E+00 0.  1.
         11    1    4    4    0    0 -0.42099699861E+02  0.13939840743E+03  0.11170955192E+03  0.18353017384E+03  0.00000000000E+00 0. -1.
</event>
<event>
 8    1  0.6380238E-009  0.1018654E+03  0.7561462E-02  0.1276421E+00
          2   -1    0    0  501    0  0.00000000000E+00  0.00000000000E+00  0.44824573074E+03  0.44824573074E+03  0.00000000000E+00 0. -1.
         -2   -1    0    0    0  501 -0.00000000000E+00 -0.00000000000E+00 -0.28417984486E+02  0.28417984486E+02  0.00000000000E+00 0.  1.
         25    2    1    2    0    0 -0.36476742296E+02 -0.15573185440E+02  0.34394719404E+03  0.36813065783E+03  0.12508969626E+03 0.  0.
         23    2    1    2    0    0  0.36476742296E+02  0.15573185440E+02  0.75880552218E+02  0.10853305740E+03  0.66696997765E+02 0.  0.
          5    1    3    3  502    0  0.36182025252E+02 -0.39998778050E+02  0.12890015029E+03  0.13979185363E+03  0.41800000000E+01 0. -1.
         -5    1    3    3    0  502 -0.72658767548E+02  0.24425592610E+02  0.21504704375E+03  0.22833880420E+03  0.41800000000E+01 0. -1.
        -11    1    4    4    0    0 -0.83921147154E+01 -0.15954615713E+02  0.46105705175E+01  0.18607383278E+02  0.00000000000E+00 0. -1.
         11    1    4    4    0    0  0.44868857012E+02  0.31527801153E+02  0.71269981700E+02  0.89925674124E+02  0.00000000000E+00 0.  1.
</event>
<event>
 8    1  0.6380238E-009  0.1752031E+03  0.7561462E-02  0.1172528E+00
         -2   -1    0    0    0  501 -0.00000000000E+00  0.00000000000E+00  0.38393429676E+02  0.38393429676E+02  0.00000000000E+00 0.  1.
          2   -1    0    0  501    0  0.00000000000E+00 -0.00000000000E+00 -0.10352970961E+04  0.10352970961E+04  0.00000000000E+00 0. -1.
         25    2    1    2    0    0  0.15680290392E+03 -0.54493094321E+02 -0.46499358266E+03  0.50933617544E+03  0.12509060593E+03 0.  0.
         23    2    1    2    0    0 -0.15680290392E+03  0.54493094321E+02 -0.53191008381E+03  0.56435435037E+03  0.89503338055E+02 0.  0.
          5    1    3    3  502    0  0.14639646343E+03 -0.37364024602E+02 -0.46490956863E+03  0.48886232647E+03  0.41800000000E+01 0.  1.
         -5    1    3    3    0  502  0.10406440494E+02 -0.17129069719E+02 -0.84014025113E-01  0.20473848968E+02  0.41800000000E+01 0.  1.
        -11    1    4    4    0    0 -0.71541317061E+02  0.59964707520E+02 -0.18679656408E+03  0.20882261024E+03  0.00000000000E+00 0.  1.
         11    1    4    4    0    0 -0.85261586864E+02 -0.54716131987E+01 -0.34511351973E+03  0.35553174014E+03  0.00000000000E+00 0. -1.
</event>
<event>
 8    1  0.6380238E-009  0.1143141E+03  0.7561462E-02  0.1252783E+00
          1   -1    0    0  501    0  0.00000000000E+00  0.00000000000E+00  0.44980584065E+02  0.44980584065E+02  0.00000000000E+00 0. -1.
         -1   -1    0    0    0  501 -0.00000000000E+00 -0.00000000000E+00 -0.47774138104E+03  0.47774138104E+03  0.00000000000E+00 0.  1.
         25    2    1    2    0    0  0.60094399129E+02 -0.65779527528E+02 -0.15988754969E+03  0.22169470061E+03  0.12508488592E+03 0.  0.
         23    2    1    2    0    0 -0.60094399129E+02  0.65779527528E+02 -0.27287324728E+03  0.30102726449E+03  0.90660475604E+02 0.  0.
          5    1    3    3  502    0  0.11139045797E+02 -0.66440835610E+02 -0.15879454805E+03  0.17254461413E+03  0.41800000000E+01 0. -1.
         -5    1    3    3    0  502  0.48955353332E+02  0.66130808219E+00 -0.10930016478E+01  0.49150086478E+02  0.41800000000E+01 0. -1.
        -11    1    4    4    0    0 -0.28535749221E+02  0.74058641995E+02 -0.24684565429E+03  0.25929085692E+03  0.00000000000E+00 0.  1.
         11    1    4    4    0    0 -0.31558649908E+02 -0.82791144669E+01 -0.26027592988E+02  0.41736407574E+02  0.00000000000E+00 0. -1.
</event>
<event>
 8    1  0.6380238E-009  0.1647293E+03  0.7561462E-02  0.1183459E+00
         -2   -1    0    0    0  501 -0.00000000000E+00  0.00000000000E+00  0.27141911289E+03  0.27141911289E+03  0.00000000000E+00 0.  1.
          2   -1    0    0  501    0  0.00000000000E+00 -0.00000000000E+00 -0.10947499214E+03  0.10947499214E+03  0.00000000000E+00 0. -1.
         25    2    1    2    0    0 -0.78134828089E+02  0.99922159847E+02  0.73771174816E+02  0.19282078556E+03  0.12509268452E+03 0.  0.
         23    2    1    2    0    0  0.78134828089E+02 -0.99922159847E+02  0.88172945934E+02  0.18807331947E+03  0.10727355551E+03 0.  0.
          5    1    3    3  502    0 -0.99567757867E+02  0.10129266945E+03  0.87608112203E+02  0.16693291172E+03  0.41800000000E+01 0. -1.
         -5    1    3    3    0  502  0.21432929778E+02 -0.13705096073E+01 -0.13836937386E+02  0.25887873835E+02  0.41800000000E+01 0. -1.
        -11    1    4    4    0    0 -0.26870603163E+02 -0.21864394867E+02  0.11925290528E+02  0.36637325658E+02  0.00000000000E+00 0.  1.
         11    1    4    4    0    0  0.10500543125E+03 -0.78057764980E+02  0.76247655406E+02  0.15143599381E+03  0.00000000000E+00 0. -1.
</event>
<event>
 8    1  0.6380238E-009  0.8320641E+02  0.7561462E-02  0.1320191E+00
          2   -1    0    0  501    0  0.00000000000E+00  0.00000000000E+00  0.12320319718E+03  0.12320319718E+03  0.00000000000E+00 0. -1.
         -2   -1    0    0    0  501 -0.00000000000E+00 -0.00000000000E+00 -0.12440543578E+03  0.12440543578E+03  0.00000000000E+00 0.  1.
         25    2    1    2    0    0 -0.40310707237E+00 -0.31481997629E+02 -0.48565220171E+02  0.13783385341E+03  0.12509321271E+03 0.  0.
         23    2    1    2    0    0  0.40310707237E+00  0.31481997629E+02  0.47362981569E+02  0.10977477954E+03  0.93893405148E+02 0.  0.
          5    1    3    3  502    0 -0.55311058991E+02  0.11726876781E+02 -0.34722399869E+02  0.66482707063E+02  0.41800000000E+01 0.  1.
         -5    1    3    3    0  502  0.54907951919E+02 -0.43208874410E+02 -0.13842820303E+02  0.71351146351E+02  0.41800000000E+01 0.  1.
        -11    1    4    4    0    0 -0.11213639840E+02  0.22130903175E+02  0.74657568378E+02  0.78671946143E+02  0.00000000000E+00 0. -1.
         11    1    4    4    0    0  0.11616746913E+02  0.93510944538E+01 -0.27294586810E+02  0.31102833399E+02  0.00000000000E+00 0.  1.
</event>
<event>
 8    1  0.6380238E-009  0.1001893E+03  0.7561462E-02  0.1279898E+00
          2   -1    0    0  501    0  0.00000000000E+00  0.00000000000E+00  0.66940279928E+03  0.66940279928E+03  0.00000000000E+00 0. -1.
         -2   -1    0    0    0  501 -0.00000000000E+00 -0.00000000000E+00 -0.27287584400E+02  0.27287584400E+02  0.00000000000E+00 0.  1.
         25    2    1    2    0    0 -0.36706341258E+02 -0.65419925792E+02  0.43055106277E+03  0.45458657781E+03  0.12509043485E+03 0.  0.
         23    2    1    2    0    0  0.36706341258E+02  0.65419925792E+02  0.21156415211E+03  0.24210380587E+03  0.90706891585E+02 0.  0.
          5    1    3    3  502    0 -0.18827390574E+02 -0.43643912416E+01  0.44269988237E+00  0.19778446095E+02  0.41800000000E+01 0. -1.
         -5    1    3    3    0  502 -0.17878950684E+02 -0.61055534550E+02  0.43010836289E+03  0.43480813171E+03  0.41800000000E+01 0. -1.
        -11    1    4    4    0    0  0.57980301289E+02  0.11808895886E+02  0.12170446687E+03  0.13532606037E+03  0.00000000000E+00 0. -1.
         11    1    4    4    0    0 -0.21273960031E+02  0.53611029906E+02  0.89859685237E+02  0.10677774550E+03  0.00000000000E+00 0.  1.
</event>
<event>
 8    1  0.6380238E-009  0.9697664E+02  0.7561462E-02  0.1286785E+00
          2   -1    0    0  501    0  0.00000000000E+00  0.00000000000E+00  0.25319387717E+03  0.25319387717E+03  0.00000000000E+00 0.  1.
         -2   -1    0    0    0  501 -0.00000000000E+00 -0.00000000000E+00 -0.56572397840E+02  0.56572397840E+02  0.00000000000E+00 0. -1.
         25    2    1    2    0    0 -0.36414032828E+02 -0.26317368689E+02  0.14356813025E+03  0.19564725203E+03  0.12508978184E+03 0.  0.
         23    2    1    2    0    0  0.36414032828E+02  0.26317368689E+02  0.53053349078E+02  0.11411902298E+03  0.90498109791E+02 0.  0.
          5    1    3    3  502    0 -0.58154855218E+02 -0.54570996756E+02  0.47091218768E+02  0.92709417846E+02  0.41800000000E+01 0.  1.
         -5    1    3    3    0  502  0.21740822390E+02  0.28253628067E+02  0.96476911486E+02  0.10293783419E+03  0.41800000000E+01 0.  1.
        -11    1    4    4    0    0  0.26093633514E+02  0.47748579197E+02  0.67181287099E+02  0.86453050042E+02  0.00000000000E+00 0.  1.
         11    1    4    4    0    0  0.10320399314E+02 -0.21431210508E+02 -0.14127938020E+02  0.27665972937E+02  0.00000000000E+00 0. -1.
</event>
<event>
 8    1  0.6380238E-009  0.1253926E+03  0.7561462E-02  0.1234457E+00
         -1   -1    0    0    0  501 -0.00000000000E+00  0.00000000000E+00  0.53916131146E+02  0.53916131146E+02  0.00000000000E+00 0.  1.
          1   -1    0    0  501    0  0.00000000000E+00 -0.00000000000E+00 -0.30194042150E+03  0.30194042150E+03  0.00000000000E+00 0. -1.
         25    2    1    2    0    0 -0.26353913950E+02 -0.56976938490E+02 -0.16875301379E+03  0.21923555446E+03  0.12508296598E+03 0.  0.
         23    2    1    2    0    0  0.26353913950E+02  0.56976938490E+02 -0.79271276561E+02  0.13662099818E+03  0.91871984607E+02 0.  0.
          5    1    3    3  502    0 -0.75197020104E+02 -0.50063805967E+02 -0.11035439383E+03  0.14267635101E+03  0.41800000000E+01 0.  1.
         -5    1    3    3    0  502  0.48843106154E+02 -0.69131325224E+01 -0.58398619962E+02  0.76559203454E+02  0.41800000000E+01 0.  1.
        -11    1    4    4    0    0 -0.33224804593E+02  0.32360219610E+02 -0.27313033775E+02  0.53824467182E+02  0.00000000000E+00 0.  1.
         11    1    4    4    0    0  0.59578718543E+02  0.24616718879E+02 -0.51958242787E+02  0.82796530997E+02  0.00000000000E+00 0. -1.
</event>
<event>
 8    1  0.6380238E-009  0.5538744E+02  0.7561462E-02  0.1418276E+00
         -1   -1    0    0    0  501 -0.00000000000E+00  0.00000000000E+00  0.43891496462E+02  0.43891496462E+02  0.00000000000E+00 0.  1.
          1   -1    0    0  501    0  0.00000000000E+00 -0.00000000000E+00 -0.45458960367E+03  0.45458960367E+03  0.00000000000E+00 0. -1.
         25    2    1    2    0    0  0.14057551942E+02 -0.47973255326E+02 -0.35792344555E+03  0.38243933237E+03  0.12510636305E+03 0.  0.
         23    2    1    2    0    0 -0.14057551942E+02  0.47973255326E+02 -0.52774661658E+02  0.11604176776E+03  0.90451528231E+02 0.  0.
          5    1    3    3  502    0  0.13002512724E+02 -0.33440932366E+02 -0.14889837896E+02  0.39070973461E+02  0.41800000000E+01 0. -1.
         -5    1    3    3    0  502  0.10550392174E+01 -0.14532322960E+02 -0.34303360765E+03  0.34336835891E+03  0.41800000000E+01 0. -1.
        -11    1    4    4    0    0  0.58299754929E+01  0.35594410875E+02  0.18840337310E+02  0.40692861901E+02  0.00000000000E+00 0.  1.
         11    1    4    4    0    0 -0.19887527434E+02  0.12378844452E+02 -0.71614998968E+02  0.75348905862E+02  0.00000000000E+00 0. -1.
</event>
<event>
 8    1  0.6380238E-009  0.1544124E+03  0.7561462E-02  0.1195154E+00
         -1   -1    0    0    0  501 -0.00000000000E+00  0.00000000000E+00  0.33807591416E+03  0.33807591416E+03  0.00000000000E+00 0.  1.
          1   -1    0    0  501    0  0.00000000000E+00 -0.00000000000E+00 -0.90322498477E+02  0.90322498477E+02  0.00000000000E+00 0. -1.
         25    2    1    2    0    0  0.10100179065E+02 -0.12748582359E+03  0.72866414852E+02  0.19316448491E+03  0.12509338504E+03 0.  0.
         23    2    1    2    0    0 -0.10100179065E+02  0.12748582359E+03  0.17488700083E+03  0.23523392773E+03  0.91623626109E+02 0.  0.
          5    1    3    3  502    0 -0.17439346758E+02  0.12386080542E+02  0.41890079264E+02  0.47220725823E+02  0.41800000000E+01 0.  1.
         -5    1    3    3    0  502  0.27539525823E+02 -0.13987190414E+03  0.30976335588E+02  0.14594375908E+03  0.41800000000E+01 0.  1.
        -11    1    4    4    0    0  0.17271450173E+02  0.11125833197E+03  0.88614760405E+02  0.14328047733E+03  0.00000000000E+00 0. -1.
         11    1    4    4    0    0 -0.27371629239E+02  0.16227491624E+02  0.86272240425E+02  0.91953450395E+02  0.00000000000E+00 0.  1.
</event>
<event>
 8    1  0.6380238E-009  0.1448452E+03  0.7561462E-02  0.1206954E+00
          1   -1    0    0  501    0  0.00000000000E+00  0.00000000000E+00  0.14052703625E+04  0.14052703625E+04  0.00000000000E+00 0. -1.
         -1   -1    0    0    0  501 -0.00000000000E+00 -0.00000000000E+00 -0.20600614988E+02  0.20600614988E+02  0.00000000000E+00 0.  1.
         25    2    1    2    0    0 -0.12343066467E+03 -0.75763167399E+00  0.94112829070E+03  0.95739550727E+03  0.12509194537E+03 0.  0.
         23    2    1    2    0    0  0.12343066467E+03  0.75763167399E+00  0.44354145683E+03  0.46847547024E+03  0.86628744065E+02 0.  0.
          5    1    3    3  502    0 -0.87326796053E+02 -0.53000678292E+02  0.41389685850E+03  0.42633686574E+03  0.41800000000E+01 0. -1.
         -5    1    3    3    0  502 -0.36103868621E+02  0.52243046618E+02  0.52723143220E+03  0.53105864153E+03  0.41800000000E+01 0. -1.
        -11    1    4    4    0    0  0.88425887325E+02  0.49016005745E+01  0.41122859016E+03  0.42065676816E+03  0.00000000000E+00 0. -1.
         11    1    4    4    0    0  0.35004777348E+02 -0.41439689006E+01  0.32312866673E+02  0.47818702075E+02  0.00000000000E+00 0.  1.
</event>
<event>
 8    1  0.6380238E-009  0.1312953E+03  0.7561462E-02  0.1225546E+00
         -2   -1    0    0    0  501 -0.00000000000E+00  0.00000000000E+00  0.11217503043E+03  0.11217503043E+03  0.00000000000E+00 0.  1.
          2   -1    0    0  501    0  0.00000000000E+00 -0.00000000000E+00 -0.23910309716E+03  0.23910309716E+03  0.00000000000E+00 0. -1.
         25    2    1    2    0    0 -0.32750934885E+02  0.99536871513E+02  0.16761300535E+01  0.16318723853E+03  0.12508818042E+03 0.  0.
         23    2    1    2    0    0  0.32750934885E+02 -0.99536871513E+02 -0.12860419679E+03  0.18809088906E+03  0.88650609637E+02 0.  0.
          5    1    3    3  502    0 -0.21752571543E+02  0.12098606307E+03  0.29145570255E+02  0.12640307944E+03  0.41800000000E+01 0.  1.
         -5    1    3    3    0  502 -0.10998363342E+02 -0.21449191559E+02 -0.27469440202E+02  0.36784159087E+02  0.41800000000E+01 0.  1.
        -11    1    4    4    0    0  0.35913846230E+02 -0.33804748337E+02 -0.10865558836E+03  0.11932561437E+03  0.00000000000E+00 0. -1.
         11    1    4    4    0    0 -0.31629113451E+01 -0.65732123176E+02 -0.19948608423E+02  0.68765274692E+02  0.00000000000E+00 0.  1.
</event>
<event>
 8    1  0.6380238E-009  0.1085260E+03  0.7561462E-02  0.1263324E+00
         -1   -1    0    0    0  501 -0.00000000000E+00  0.00000000000E+00  0.51705618019E+02  0.51705618019E+02  0.00000000000E+00 0.  1.
          1   -1    0    0  501    0  0.00000000000E+00 -0.00000000000E+00 -0.30113605103E+03  0.30113605103E+03  0.00000000000E+00 0. -1.
         25    2    1    2    0    0 -0.25238306879E+01  0.43104989655E+02 -0.19094971469E+03  0.23232401809E+03  0.12509294938E+03 0.  0.
         23    2    1    2    0    0  0.25238306879E+01 -0.43104989655E+02 -0.58480718319E+02  0.12051765096E+03  0.96125438487E+02 0.  0.
          5    1    3    3  502    0  0.20058477677E+02 -0.29776018068E+02 -0.12572680137E+02  0.38268766175E+02  0.41800000000E+01 0. -1.
         -5    1    3    3    0  502 -0.22582308365E+02  0.72881007723E+02 -0.17837703456E+03  0.19405525191E+03  0.41800000000E+01 0. -1.
        -11    1    4    4    0    0  0.34297725830E+02  0.15648441159E+02 -0.13747525004E+02  0.40127324251E+02  0.00000000000E+00 0.  1.
         11    1    4    4    0    0 -0.31773895142E+02 -0.58753430814E+02 -0.44733193315E+02  0.80390326713E+02  0.00000000000E+00 0. -1.
</event>
<event>
 8    1  0.6380238E-009  0.7181911E+02  0.7561462E-02  0.1354014E+00
          2   -1    0    0  501    0  0.00000000000E+00  0.00000000000E+00  0.14068148327E+03  0.14068148327E+03  0.00000000000E+00 0.  1.
         -2   -1    0    0    0  501 -0.00000000000E+00 -0.00000000000E+00 -0.89548799478E+02  0.89548799478E+02  0.00000000000E+00 0. -1.
         25    2    1    2    0    0 -0.22168638359E+02 -0.19814043383E+02  0.15927322434E+02  0.12955923064E+03  0.12509144576E+03 0.  0.
         23    2    1    2    0    0  0.22168638359E+02  0.19814043383E+02  0.35205361355E+02  0.10067105211E+03  0.89505298294E+02 0.  0.
          5    1    3    3  502    0  0.18818026876E+02 -0.28046530257E+02  0.59805245807E+02  0.68810361291E+02  0.41800000000E+01 0. -1.
         -5    1    3    3    0  502 -0.40986665235E+02  0.82324868747E+01 -0.43877923373E+02  0.60748869345E+02  0.41800000000E+01 0. -1.
        -11    1    4    4    0    0 -0.19602880443E+02 -0.32589478143E+01  0.47417334749E+02  0.51413007082E+02  0.00000000000E+00 0.  1.
         11    1    4    4    0    0  0.41771518801E+02  0.23072991197E+02 -0.12211973394E+02  0.49258045027E+02  0.00000000000E+00 0. -1.
</event>
<event>
 8    1  0.6380238E-009  0.1642070E+03  0.7561462E-02  0.1184027E+00
         -2   -1    0    0    0  501 -0.00000000000E+00  0.00000000000E+00  0.25455509305E+02  0.25455509305E+02  0.00000000000E+00 0. -1.
          2   -1    0    0  501    0  0.00000000000E+00 -0.00000000000E+00 -0.11626138116E+04  0.11626138116E+04  0.00000000000E+00 0.  1.
         25    2    1    2    0    0  0.12642791107E+03 -0.36155497581E+02 -0.57234042187E+03  0.60042662231E+03  0.12508930240E+03 0.  0.
         23    2    1    2    0    0 -0.12642791107E+03  0.36155497581E+02 -0.56481788047E+03  0.58764269864E+03  0.94939277742E+02 0.  0.
          5    1    3    3  502    0  0.14635652523E+03 -0.27950225705E+02 -0.54677404743E+03  0.56672813495E+03  0.41800000000E+01 0.  1.
         -5    1    3    3    0  502 -0.19928614162E+02 -0.82052718764E+01 -0.25566374431E+02  0.33698487363E+02  0.41800000000E+01 0.  1.
        -11    1    4    4    0    0 -0.75413587473E+02 -0.23421275228E+02 -0.35416549870E+03  0.36286218565E+03  0.00000000000E+00 0.  1.
         11    1    4    4    0    0 -0.51014323594E+02  0.59576772810E+02 -0.21065238177E+03  0.22478051298E+03  0.00000000000E+00 0. -1.
</event>
<event>
 8    1  0.6380238E-009  0.1176042E+03  0.7561462E-02  0.1247102E+00
          1   -1    0    0  501    0  0.00000000000E+00  0.00000000000E+00  0.65278891106E+03  0.65278891106E+03  0.00000000000E+00 0.  1.
         -1   -1    0    0    0  501 -0.00000000000E+00 -0.00000000000E+00 -0.24224853380E+02  0.24224853380E+02  0.00000000000E+00 0. -1.
         25    2    1    2    0    0  0.25734425683E+02  0.52073880423E+02  0.44225494277E+03  0.46326092840E+03  0.12508918296E+03 0.  0.
         23    2    1    2    0    0 -0.25734425683E+02 -0.52073880423E+02  0.18630911491E+03  0.21375283604E+03  0.87208021003E+02 0.  0.
          5    1    3    3  502    0  0.28267662898E+02  0.89675380712E+02  0.36850631384E+03  0.38033552346E+03  0.41800000000E+01 0. -1.
         -5    1    3    3    0  502 -0.25332372148E+01 -0.37601500289E+02  0.73748628932E+02  0.82925404938E+02  0.41800000000E+01 0. -1.
        -11    1    4    4    0    0  0.15433705865E+02  0.16874973319E+02  0.27271048563E+02  0.35590365142E+02  0.00000000000E+00 0. -1.
         11    1    4    4    0    0 -0.41168131548E+02 -0.68948853742E+02  0.15903806635E+03  0.17816247089E+03  0.00000000000E+00 0.  1.
</event>
<event>
 8    1  0.6380238E-009  0.1239519E+03  0.7561462E-02  0.1236716E+00
         -4   -1    0    0    0  501 -0.00000000000E+00  0.00000000000E+00  0.44609005615E+03  0.44609005615E+03  0.00000000000E+00 0.  1.
          4   -1    0    0  501    0  0.00000000000E+00 -0.00000000000E+00 -0.46661320564E+02  0.46661320564E+02  0.00000000000E+00 0. -1.
         25    2    1    2    0    0  0.23807657541E+02  0.68606456153E+02  0.32208256075E+03  0.35306957311E+03  0.12508915674E+03 0.  0.
         23    2    1    2    0    0 -0.23807657541E+02 -0.68606456153E+02  0.77346174835E+02  0.13968180360E+03  0.90856618427E+02 0.  0.
          5    1    3    3  502    0  0.54397053477E+02 -0.88759945735E+01  0.81817399569E+02  0.98738958770E+02  0.41800000000E+01 0. -1.
         -5    1    3    3    0  502 -0.30589395936E+02  0.77482450726E+02  0.24026516118E+03  0.25433061435E+03  0.41800000000E+01 0. -1.
        -11    1    4    4    0    0 -0.52744611037E+02 -0.58015763208E+02  0.31623767701E+02  0.84545168150E+02  0.00000000000E+00 0. -1.
         11    1    4    4    0    0  0.28936953495E+02 -0.10590692945E+02  0.45722407134E+02  0.55136635450E+02  0.00000000000E+00 0.  1.
</event>
<event>
 8    1  0.6380238E-009  0.7423566E+02  0.7561462E-02  0.1346254E+00
         -2   -1    0    0    0  501 -0.00000000000E+00  0.00000000000E+00  0.15534893707E+03  0.15534893707E+03  0.00000000000E+00 0. -1.
          2   -1    0    0  501    0  0.00000000000E+00 -0.00000000000E+00 -0.83488242571E+02  0.83488242571E+02  0.00000000000E+00 0.  1.
         25    2    1    2    0    0  0.60063401165E+01  0.24727394134E+02  0.61612361465E+02  0.14174624636E+03  0.12509354551E+03 0.  0.
         23    2    1    2    0    0 -0.60063401165E+01 -0.24727394134E+02  0.10248333034E+02  0.97090933283E+02  0.93134853055E+02 0.  0.
          5    1    3    3  502    0 -0.23010250402E+02 -0.23414780327E+02  0.76581900875E+02  0.83426515586E+02  0.41800000000E+01 0.  1.
         -5    1    3    3    0  502  0.29016590518E+02  0.48142174461E+02 -0.14969539409E+02  0.58319730772E+02  0.41800000000E+01 0.  1.
        -11    1    4    4    0    0 -0.83152259848E+01  0.16099277371E+02 -0.32952603942E+02  0.37605901420E+02  0.00000000000E+00 0.  1.
         11    1    4    4    0    0  0.23088858683E+01 -0.40826671505E+02  0.43200936976E+02  0.59485031863E+02  0.00000000000E+00 0. -1.
</event>
<event>
 8    1  0.6380238E-009  0.9882222E+02  0.7561462E-02  0.1282792E+00
          1   -1    0    0  501    0  0.00000000000E+00  0.00000000000E+00  0.15619152494E+03  0.15619152494E+03  0.00000000000E+00 0. -1.
         -1   -1    0    0    0  501 -0.00000000000E+00 -0.00000000000E+00 -0.90356925793E+02  0.90356925793E+02  0.00000000000E+00 0.  1.
         25    2    1    2    0    0 -0.43847127886E+02 -0.19641526328E+02  0.37606668241E+02  0.13918050711E+03  0.12509433194E+03 0.  0.
         23    2    1    2    0    0  0.43847127886E+02  0.19641526328E+02  0.28227930908E+02  0.10736794362E+03  0.91775263844E+02 0.  0.
          5    1    3    3  502    0  0.34201939336E+02  0.24038999184E+02 -0.13329416248E+00  0.42013525245E+02  0.41800000000E+01 0.  1.
         -5    1    3    3    0  502 -0.78049067222E+02 -0.43680525513E+02  0.37739962403E+02  0.97166981869E+02  0.41800000000E+01 0.  1.
        -11    1    4    4    0    0 -0.92536611244E+01  0.67374557310E+01  0.47930500741E+02  0.49278356864E+02  0.00000000000E+00 0. -1.
         11    1    4    4    0    0  0.53100789010E+02  0.12904070597E+02 -0.19702569833E+02  0.58089586756E+02  0.00000000000E+00 0.  1.
</event>
<event>
 8    1  0.6380238E-009  0.1112372E+03  0.7561462E-02  0.1258296E+00
         -1   -1    0    0    0  501 -0.00000000000E+00  0.00000000000E+00  0.15192269025E+03  0.15192269025E+03  0.00000000000E+00 0.  1.
          1   -1    0    0  501    0  0.00000000000E+00 -0.00000000000E+00 -0.12380232702E+03  0.12380232702E+03  0.00000000000E+00 0. -1.
         25    2    1    2    0    0 -0.61742558830E+02 -0.37973211475E+02  0.57283666752E+02  0.15551339822E+03  0.12509552425E+03 0.  0.
         23    2    1    2    0    0  0.61742558830E+02  0.37973211475E+02 -0.29163303523E+02  0.12021161906E+03  0.91357685629E+02 0.  0.
          5    1    3    3  502    0  0.22442706476E+02 -0.25936230600E+02 -0.20510865088E+02  0.40181228433E+02  0.41800000000E+01 0. -1.
         -5    1    3    3    0  502 -0.84185265306E+02 -0.12036980875E+02  0.77794531841E+02  0.11533216979E+03  0.41800000000E+01 0. -1.
        -11    1    4    4    0    0  0.55653729611E+02 -0.81567902885E+01 -0.43956435720E+02  0.71386546972E+02  0.00000000000E+00 0. -1.
         11    1    4    4    0    0  0.60888292189E+01  0.46130001764E+02  0.14793132197E+02  0.48825072086E+02  0.00000000000E+00 0.  1.
</event>
<event>
 8    1  0.6380238E-009  0.1621948E+03  0.7561462E-02  0.1186241E+00
         -2   -1    0    0    0  501 -0.00000000000E+00  0.00000000000E+00  0.19804630965E+03  0.19804630965E+03  0.00000000000E+00 0.  1.
          2   -1    0    0  501    0  0.00000000000E+00 -0.00000000000E+00 -0.17617517089E+03  0.17617517089E+03  0.00000000000E+00 0. -1.
         25    2    1    2    0    0  0.14463010633E+03 -0.58000981381E+01  0.57505220152E+02  0.19976464671E+03  0.12509018720E+03 0.  0.
         23    2    1    2    0    0 -0.14463010633E+03  0.58000981381E+01 -0.35634081388E+02  0.17445683383E+03  0.90630515383E+02 0.  0.
          5    1    3    3  502    0  0.16154893696E+03 -0.79936764923E+01  0.26255930536E+02  0.16391706496E+03  0.41800000000E+01 0. -1.
         -5    1    3    3    0  502 -0.16918830629E+02  0.21935783542E+01  0.31249289615E+02  0.35847581750E+02  0.41800000000E+01 0. -1.
        -11    1    4    4    0    0 -0.74350155824E+02 -0.15052752223E+01  0.27907645129E+02  0.79429517065E+02  0.00000000000E+00 0.  1.
         11    1    4    4    0    0 -0.70279950503E+02  0.73053733605E+01 -0.63541726516E+02  0.95027316764E+02  0.00000000000E+00 0. -1.
</event>
<event>
 8    1  0.6380238E-009  0.1382201E+03  0.7561462E-02  0.1215744E+00
         -3   -1    0    0    0  501 -0.00000000000E+00  0.00000000000E+00  0.31052722496E+03  0.31052722496E+03  0.00000000000E+00 0.  1.
          3   -1    0    0  501    0  0.00000000000E+00 -0.00000000000E+00 -0.21962163626E+03  0.21962163626E+03  0.00000000000E+00 0. -1.
         25    2    1    2    0    0  0.90803868701E+02 -0.79548965703E+02  0.25386343409E+03  0.30768206378E+03  0.12509288024E+03 0.  0.
         23    2    1    2    0    0 -0.90803868701E+02  0.79548965703E+02 -0.16295784540E+03  0.22246679744E+03  0.91448543304E+02 0.  0.
          5    1    3    3  502    0 -0.16176828363E+02 -0.33817916545E+02  0.12549882408E+02  0.39753153381E+02  0.41800000000E+01 0.  1.
         -5    1    3    3    0  502  0.10698069706E+03 -0.45731049159E+02  0.24131355168E+03  0.26792891040E+03  0.41800000000E+01 0.  1.
        -11    1    4    4    0    0 -0.39299542119E+02  0.21881326831E+02 -0.13152275475E+03  0.13900173197E+03  0.00000000000E+00 0. -1.
         11    1    4    4    0    0 -0.51504326582E+02  0.57667638872E+02 -0.31435090647E+02  0.83465065469E+02  0.00000000000E+00 0.  1.
</event>
<event>
 7    1  0.6380238E-009  0.1074317E+03  0.7561462E-02  0.1265401E+00
         -1   -1    0    0    0  501 -0.00000000000E+00  0.00000000000E+00  0.63350947495E+03  0.63350947495E+03  0.00000000000E+00 0.  1.
          1   -1    0    0  501    0  0.00000000000E+00 -0.00000000000E+00 -0.27973696263E+02  0.27973696263E+02  0.00000000000E+00 0. -1.
         23    2    1    2    0    0 -0.14478872502E+02  0.73986826201E+02  0.26794927483E+03  0.29368068376E+03  0.93636755223E+02 0.  0.
          5    1    1    2  502    0  0.33351360252E+02  0.22750724201E+02  0.54037076873E+02  0.67582444165E+02  0.41800000000E+01 0. -1.
         -5    1    1    2    0  502 -0.18872487751E+02 -0.96737550402E+02  0.28354942698E+03  0.30022004329E+03  0.41800000000E+01 0. -1.
        -11    1    3    3    0    0 -0.77583117143E+01  0.53627525927E+02  0.26676025408E+03  0.27220789131E+03  0.00000000000E+00 0.  1.
         11    1    3    3    0    0 -0.67205607874E+01  0.20359300274E+02  0.11890207538E+01  0.21472792443E+02  0.00000000000E+00 0. -1.
</event>
<event>
 8    1  0.6380238E-009  0.8841608E+02  0.7561462E-02  0.1306733E+00
          1   -1    0    0  501    0  0.00000000000E+00  0.00000000000E+00  0.41877445832E+03  0.41877445832E+03  0.00000000000E+00 0. -1.
         -1   -1    0    0    0  501 -0.00000000000E+00 -0.00000000000E+00 -0.36680000447E+02  0.36680000447E+02  0.00000000000E+00 0.  1.
         25    2    1    2    0    0  0.34844882268E+02 -0.44195688643E+02  0.17818139539E+03  0.22486510882E+03  0.12509309648E+03 0.  0.
         23    2    1    2    0    0 -0.34844882268E+02  0.44195688643E+02  0.20391306248E+03  0.23058934995E+03  0.91779554058E+02 0.  0.
          5    1    3    3  502    0 -0.11432252842E+02 -0.66028224894E+02  0.41674186710E+02  0.79022991120E+02  0.41800000000E+01 0.  1.
         -5    1    3    3    0  502  0.46277135110E+02  0.21832536251E+02  0.13650720868E+03  0.14584211770E+03  0.41800000000E+01 0.  1.
        -11    1    4    4    0    0 -0.12297436749E+02  0.52940274224E+01 -0.68808796477E+01  0.15053244888E+02  0.00000000000E+00 0.  1.
         11    1    4    4    0    0 -0.22547445519E+02  0.38901661220E+02  0.21079394213E+03  0.21553610506E+03  0.00000000000E+00 0. -1.
</event>
<event>
 8    1  0.6380238E-009  0.1005542E+03  0.7561462E-02  0.1279135E+00
         -2   -1    0    0    0  501 -0.00000000000E+00  0.00000000000E+00  0.33604926014E+02  0.33604926014E+02  0.00000000000E+00 0.  1.
          2   -1    0    0  501    0  0.00000000000E+00 -0.00000000000E+00 -0.37617346597E+03  0.37617346597E+03  0.00000000000E+00 0. -1.
         25    2    1    2    0    0  0.85107309310E+01 -0.14127429150E+02 -0.23249119707E+03  0.26452154549E+03  0.12508986577E+03 0.  0.
         23    2    1    2    0    0 -0.85107309310E+01  0.14127429150E+02 -0.11007734288E+03  0.14525684649E+03  0.93330130404E+02 0.  0.
          5    1    3    3  502    0  0.29821459927E+01 -0.62776881109E+02 -0.18786053315E+03  0.19813854323E+03  0.41800000000E+01 0.  1.
         -5    1    3    3    0  502  0.55285849383E+01  0.48649451960E+02 -0.44630663918E+02  0.66383002261E+02  0.41800000000E+01 0.  1.
        -11    1    4    4    0    0 -0.26879186737E+02 -0.30540339228E+02 -0.75813741354E+02  0.86040260215E+02  0.00000000000E+00 0.  1.
         11    1    4    4    0    0  0.18368455806E+02  0.44667768378E+02 -0.34263601530E+02  0.59216586277E+02  0.00000000000E+00 0. -1.
</event>
<event>
 8    1  0.6380238E-009  0.1100841E+03  0.7561462E-02  0.1260414E+00
         -2   -1    0    0    0  501 -0.00000000000E+00  0.00000000000E+00  0.10128327219E+03  0.10128327219E+03  0.00000000000E+00 0.  1.
          2   -1    0    0  501    0  0.00000000000E+00 -0.00000000000E+00 -0.24025954542E+03  0.24025954542E+03  0.00000000000E+00 0. -1.
         25    2    1    2    0    0  0.26007118002E+02  0.16679307242E+02 -0.19247214027E+03  0.23162075306E+03  0.12509228189E+03 0.  0.
         23    2    1    2    0    0 -0.26007118002E+02 -0.16679307242E+02  0.53495867044E+02  0.10992206455E+03  0.90920201315E+02 0.  0.
          5    1    3    3  502    0  0.58284663743E+02 -0.31475988821E+02 -0.13198632158E+03  0.14773524084E+03  0.41800000000E+01 0. -1.
         -5    1    3    3    0  502 -0.32277545741E+02  0.48155296062E+02 -0.60485818690E+02  0.83885512221E+02  0.41800000000E+01 0. -1.
        -11    1    4    4    0    0 -0.54988863243E+02 -0.31235587174E+02  0.30836756312E+02  0.70358670587E+02  0.00000000000E+00 0. -1.
         11    1    4    4    0    0  0.28981745241E+02  0.14556279932E+02  0.22659110732E+02  0.39563393963E+02  0.00000000000E+00 0.  1.
</event>
<event>
 8    1  0.6380238E-009  0.1847714E+03  0.7561462E-02  0.1163264E+00
         -2   -1    0    0    0  501 -0.00000000000E+00  0.00000000000E+00  0.60859696944E+02  0.60859696944E+02  0.00000000000E+00 0. -1.
          2   -1    0    0  501    0  0.00000000000E+00 -0.00000000000E+00 -0.68817882478E+03  0.68817882478E+03  0.00000000000E+00 0.  1.
         25    2    1    2    0    0 -0.14727355276E+03 -0.64675703879E+02 -0.20977567419E+03  0.29244720142E+03  0.12508831329E+03 0.  0.
         23    2    1    2    0    0  0.14727355276E+03  0.64675703879E+02 -0.41754345364E+03  0.45659132030E+03  0.90888129458E+02 0.  0.
          5    1    3    3  502    0 -0.11009884923E+03  0.18303727550E+02 -0.10069992163E+03  0.15038194592E+03  0.41800000000E+01 0. -1.
         -5    1    3    3    0  502 -0.37174703537E+02 -0.82979431429E+02 -0.10907575256E+03  0.14206525550E+03  0.41800000000E+01 0. -1.
        -11    1    4    4    0    0  0.13746420894E+03  0.44650673519E+02 -0.40704664408E+03  0.43194567001E+03  0.00000000000E+00 0.  1.
         11    1    4    4    0    0  0.98093438203E+01  0.20025030359E+02 -0.10496809565E+02  0.24645650288E+02  0.00000000000E+00 0. -1.
</event>
<event>
 8    1  0.6380238E-009  0.1263717E+03  0.7561462E-02  0.1232941E+00
         -1   -1    0    0    0  501 -0.00000000000E+00  0.00000000000E+00  0.14518320261E+03  0.14518320261E+03  0.00000000000E+00 0.  1.
          1   -1    0    0  501    0  0.00000000000E+00 -0.00000000000E+00 -0.21154222624E+03  0.21154222624E+03  0.00000000000E+00 0. -1.
         25    2    1    2    0    0  0.85337734868E+02 -0.70486066318E+02  0.46247113849E+02  0.17331199843E+03  0.12508972270E+03 0.  0.
         23    2    1    2    0    0 -0.85337734868E+02  0.70486066318E+02 -0.11260613749E+03  0.18341343042E+03  0.93324861214E+02 0.  0.
          5    1    3    3  502    0  0.58809006873E+01  0.11510024806E+02 -0.32045452032E+02  0.34805876801E+02  0.41800000000E+01 0.  1.
         -5    1    3    3    0  502  0.79456834180E+02 -0.81996091124E+02  0.78292565881E+02  0.13850612163E+03  0.41800000000E+01 0.  1.
        -11    1    4    4    0    0 -0.54412536242E+02  0.76020797429E+02 -0.35234534376E+02  0.99906747293E+02  0.00000000000E+00 0.  1.
         11    1    4    4    0    0 -0.30925198626E+02 -0.55347311116E+01 -0.77371603110E+02  0.83506683124E+02  0.00000000000E+00 0. -1.
</event>
<event>
 8    1  0.6380238E-009  0.1160199E+03  0.7561462E-02  0.1249811E+00
         -2   -1    0    0    0  501 -0.00000000000E+00  0.00000000000E+00  0.34729328852E+03  0.34729328852E+03  0.00000000000E+00 0.  1.
          2   -1    0    0  501    0  0.00000000000E+00 -0.00000000000E+00 -0.49278403937E+02  0.49278403937E+02  0.00000000000E+00 0. -1.
         25    2    1    2    0    0 -0.16594772248E+02  0.72320645127E+02  0.14832444195E+03  0.20773991747E+03  0.12510024402E+03 0.  0.
         23    2    1    2    0    0  0.16594772248E+02 -0.72320645127E+02  0.14969044264E+03  0.18883177499E+03  0.88003116147E+02 0.  0.
          5    1    3    3  502    0 -0.63063516659E+02  0.75021895772E+01  0.49197994139E+02  0.80443800315E+02  0.41800000000E+01 0.  1.
         -5    1    3    3    0  502  0.46468744411E+02  0.64818455550E+02  0.99126447807E+02  0.12729611715E+03  0.41800000000E+01 0.  1.
        -11    1    4    4    0    0  0.24617451967E+02 -0.11479452143E+02  0.11535856646E+03  0.11851327191E+03  0.00000000000E+00 0.  1.
         11    1    4    4    0    0 -0.80226797195E+01 -0.60841192984E+02  0.34331876174E+02  0.70318503079E+02  0.00000000000E+00 0. -1.
</event>
<event>
 8    1  0.6380238E-009  0.9163290E+02  0.7561462E-02  0.1298945E+00
          1   -1    0    0  501    0  0.00000000000E+00  0.00000000000E+00  0.26276667072E+02  0.26276667072E+02  0.00000000000E+00 0. -1.
         -1   -1    0    0    0  501 -0.00000000000E+00 -0.00000000000E+00 -0.48550746985E+03  0.48550746985E+03  0.00000000000E+00 0.  1.
         25    2    1    2    0    0 -0.13074989511E+02 -0.14439099337E+02 -0.31983869411E+03  0.34397876024E+03  0.12508059124E+03 0.  0.
         23    2    1    2    0    0  0.13074989511E+02  0.14439099337E+02 -0.13939210867E+03  0.16780537669E+03  0.91373089831E+02 0.  0.
          5    1    3    3  502    0  0.29858101081E+02  0.19731088843E+02 -0.24536498221E+02  0.43592822941E+02  0.41800000000E+01 0.  1.
         -5    1    3    3    0  502 -0.42933090592E+02 -0.34170188179E+02 -0.29530219589E+03  0.30038593729E+03  0.41800000000E+01 0.  1.
        -11    1    4    4    0    0  0.48340950652E+02  0.26255348527E+02 -0.96095359347E+02  0.11072718241E+03  0.00000000000E+00 0.  1.
         11    1    4    4    0    0 -0.35265961141E+02 -0.11816249190E+02 -0.43296749322E+02  0.57078194277E+02  0.00000000000E+00 0. -1.
</event>
<event>
 8    1  0.6380238E-009  0.8511095E+02  0.7561462E-02  0.1315143E+00
          2   -1    0    0  501    0  0.00000000000E+00  0.00000000000E+00  0.59707671625E+02  0.59707671625E+02  0.00000000000E+00 0. -1.
         -2   -1    0    0    0  501 -0.00000000000E+00 -0.00000000000E+00 -0.29874727561E+03  0.29874727561E+03  0.00000000000E+00 0.  1.
         25    2    1    2    0    0 -0.10631954327E+02 -0.47402531062E+02 -0.43486884625E+02  0.14106206171E+03  0.12508939889E+03 0.  0.
         23    2    1    2    0    0  0.10631954327E+02  0.47402531062E+02 -0.19555271936E+03  0.21739288553E+03  0.81601239115E+02 0.  0.
          5    1    3    3  502    0 -0.43910010734E+02 -0.45683008367E+02  0.22214154312E+02  0.67275310092E+02  0.41800000000E+01 0.  1.
         -5    1    3    3    0  502  0.33278056407E+02 -0.17195226945E+01 -0.65701038937E+02  0.73786751616E+02  0.41800000000E+01 0.  1.
        -11    1    4    4    0    0 -0.21030719322E+02  0.31045526732E+02 -0.29927266360E+02  0.47976631364E+02  0.00000000000E+00 0. -1.
         11    1    4    4    0    0  0.31662673649E+02  0.16357004330E+02 -0.16562545300E+03  0.16941625417E+03  0.00000000000E+00 0.  1.
</event>
<event>
 8    1  0.6380238E-009  0.1856768E+03  0.7561462E-02  0.1162419E+00
          1   -1    0    0  501    0  0.00000000000E+00  0.00000000000E+00  0.34739276498E+03  0.34739276498E+03  0.00000000000E+00 0. -1.
         -1   -1    0    0    0  501 -0.00000000000E+00 -0.00000000000E+00 -0.17231368890E+03  0.17231368890E+03  0.00000000000E+00 0.  1.
         25    2    1    2    0    0 -0.12983856200E+02  0.17235585328E+03 -0.52081948833E+02  0.21962779556E+03  0.12509483804E+03 0.  0.
         23    2    1    2    0    0  0.12983856200E+02 -0.17235585328E+03  0.22716102491E+03  0.30007865832E+03  0.92574020446E+02 0.  0.
          5    1    3    3  502    0 -0.31915950215E+02  0.12786480903E+03  0.19352491891E+02  0.13326675733E+03  0.41800000000E+01 0.  1.
         -5    1    3    3    0  502  0.18932094014E+02  0.44491044247E+02 -0.71434440724E+02  0.86361038226E+02  0.41800000000E+01 0.  1.
        -11    1    4    4    0    0  0.28135197480E+02 -0.13175034013E+02  0.15249259937E+02  0.34607958436E+02  0.00000000000E+00 0.  1.
         11    1    4    4    0    0 -0.15151341280E+02 -0.15918081927E+03  0.21191176497E+03  0.26547069989E+03  0.00000000000E+00 0. -1.
</event>
<event>
 8    1  0.6380238E-009  0.1039662E+03  0.7561462E-02  0.1272170E+00
         -3   -1    0    0    0  501 -0.00000000000E+00  0.00000000000E+00  0.61870491802E+02  0.61870491802E+02  0.00000000000E+00 0.  1.
          3   -1    0    0  501    0  0.00000000000E+00 -0.00000000000E+00 -0.24645059771E+03  0.24645059771E+03  0.00000000000E+00 0. -1.
         25    2    1    2    0    0 -0.43232980765E+02  0.26126035475E+02 -0.14246621851E+03  0.19620416261E+03  0.12509112540E+03 0.  0.
         23    2    1    2    0    0  0.43232980765E+02 -0.26126035475E+02 -0.42113887396E+02  0.11211692690E+03  0.90801792000E+02 0.  0.
          5    1    3    3  502    0  0.29287166782E+02  0.76318253191E+01 -0.11062020163E+03  0.11476185910E+03  0.41800000000E+01 0. -1.
         -5    1    3    3    0  502 -0.72520147548E+02  0.18494210155E+02 -0.31846016881E+02  0.81442303509E+02  0.41800000000E+01 0. -1.
        -11    1    4    4    0    0  0.70955300484E+02 -0.22649145238E+02 -0.21911368107E+02  0.77638563222E+02  0.00000000000E+00 0.  1.
         11    1    4    4    0    0 -0.27722319719E+02 -0.34768902370E+01 -0.20202519289E+02  0.34478363678E+02  0.00000000000E+00 0. -1.
</event>
<event>
 8    1  0.6380238E-009  0.1610660E+03  0.7561462E-02  0.1187499E+00
         -2   -1    0    0    0  501 -0.00000000000E+00  0.00000000000E+00  0.31509595751E+02  0.31509595751E+02  0.00000000000E+00 0.  1.
          2   -1    0    0  501    0  0.00000000000E+00 -0.00000000000E+00 -0.87188196770E+03  0.87188196770E+03  0.00000000000E+00 0. -1.
         25    2    1    2    0    0  0.12277786217E+03  0.72887629495E+01 -0.53409376430E+03  0.56216596533E+03  0.12508754538E+03 0.  0.
         23    2    1    2    0    0 -0.12277786217E+03 -0.72887629495E+01 -0.30627860765E+03  0.34122559812E+03  0.86607123287E+02 0.  0.
          5    1    3    3  502    0  0.21852952471E+02  0.57936673890E+02 -0.20705045236E+03  0.21615173359E+03  0.41800000000E+01 0. -1.
         -5    1    3    3    0  502  0.10092490970E+03 -0.50647910940E+02 -0.32704331194E+03  0.34601423174E+03  0.41800000000E+01 0. -1.
        -11    1    4    4    0    0  0.10995346489E+02 -0.74806742211E+01 -0.54685114215E+02  0.56278946756E+02  0.00000000000E+00 0. -1.
         11    1    4    4    0    0 -0.13377320866E+03  0.19191127163E+00 -0.25159349343E+03  0.28494665136E+03  0.00000000000E+00 0.  1.
</event>
<event>
 8    1  0.6380238E-009  0.1072242E+03  0.7561462E-02  0.1265798E+00
          1   -1    0    0  501    0  0.00000000000E+00  0.00000000000E+00  0.22747764053E+03  0.22747764053E+03  0.00000000000E+00 0. -1.
         -1   -1    0    0    0  501 -0.00000000000E+00 -0.00000000000E+00 -0.56081373183E+02  0.56081373183E+02  0.00000000000E+00 0.  1.
         25    2    1    2    0    0 -0.61999675066E+01  0.29418039756E+02  0.85587064876E+02  0.15452245815E+03  0.12509270057E+03 0.  0.
         23    2    1    2    0    0  0.61999675066E+01 -0.29418039756E+02  0.85809202468E+02  0.12903655557E+03  0.91560650848E+02 0.  0.
          5    1    3    3  502    0 -0.63259858056E+02  0.32667145214E+02  0.45778882145E+02  0.84747451101E+02  0.41800000000E+01 0.  1.
         -5    1    3    3    0  502  0.57059890549E+02 -0.32491054578E+01  0.39808182732E+02  0.69775007045E+02  0.41800000000E+01 0.  1.
        -11    1    4    4    0    0  0.41371582610E+02 -0.23418683572E+01  0.71067751402E+02  0.82266138140E+02  0.00000000000E+00 0. -1.
         11    1    4    4    0    0 -0.35171615104E+02 -0.27076171399E+02  0.14741451066E+02  0.46770417425E+02  0.00000000000E+00 0.  1.
</event>
<event>
 8    1  0.6380238E-009  0.1064108E+03  0.7561462E-02  0.1267365E+00
          2   -1    0    0  501    0  0.00000000000E+00  0.00000000000E+00  0.44525483876E+02  0.44525483876E+02  0.00000000000E+00 0. -1.
         -2   -1    0    0    0  501 -0.00000000000E+00 -0.00000000000E+00 -0.29580266410E+03  0.29580266410E+03  0.00000000000E+00 0.  1.
         25    2    1    2    0    0  0.50889830622E+02 -0.32437493166E+00 -0.16353793910E+03  0.21209063145E+03  0.12509155984E+03 0.  0.
         23    2    1    2    0    0 -0.50889830622E+02  0.32437493166E+00 -0.87739241120E+02  0.12823751652E+03  0.78465318018E+02 0.  0.
          5    1    3    3  502    0 -0.26720281528E+02 -0.37009982792E+02 -0.80196981836E+02  0.92372834571E+02  0.41800000000E+01 0. -1.
         -5    1    3    3    0  502  0.77610112150E+02  0.36685607860E+02 -0.83340957268E+02  0.11971779688E+03  0.41800000000E+01 0. -1.
        -11    1    4    4    0    0 -0.40676001004E+02  0.29420505080E+02 -0.83054132648E+02  0.97046855316E+02  0.00000000000E+00 0.  1.
         11    1    4    4    0    0 -0.10213829617E+02 -0.29096130148E+02 -0.46851084717E+01  0.31190661206E+02  0.00000000000E+00 0. -1.
</event>
<event>
 8    1  0.6380238E-009  0.1522866E+03  0.7561462E-02  0.1197691E+00
         -1   -1    0    0    0  501 -0.00000000000E+00  0.00000000000E+00  0.48085559530E+03  0.48085559530E+03  0.00000000000E+00 0.  1.
          1   -1    0    0  501    0  0.00000000000E+00 -0.00000000000E+00 -0.56814253238E+02  0.56814253238E+02  0.00000000000E+00 0. -1.
         25    2    1    2    0    0  0.84869766372E+02 -0.86375579625E+02  0.26160462254E+03  0.31424200586E+03  0.12508973462E+03 0.  0.
         23    2    1    2    0    0 -0.84869766372E+02  0.86375579625E+02  0.16243671952E+03  0.22342784268E+03  0.94184367270E+02 0.  0.
          5    1    3    3  502    0  0.74301109959E+02  0.11453160210E+02  0.10398421372E+03  0.12838231546E+03  0.41800000000E+01 0.  1.
         -5    1    3    3    0  502  0.10568656413E+02 -0.97828739835E+02  0.15762040883E+03  0.18585969040E+03  0.41800000000E+01 0.  1.
        -11    1    4    4    0    0 -0.26968984158E+02  0.62669223286E+02  0.14211670795E+03  0.15764490582E+03  0.00000000000E+00 0.  1.
         11    1    4    4    0    0 -0.57900782214E+02  0.23706356338E+02  0.20320011573E+02  0.65782936862E+02  0.00000000000E+00 0. -1.
</event>
<event>
 8    1  0.6380238E-009  0.1737058E+03  0.7561462E-02  0.1174038E+00
         -3   -1    0    0    0  501 -0.00000000000E+00  0.00000000000E+00  0.43482241104E+02  0.43482241104E+02  0.00000000000E+00 0.  1.
          3   -1    0    0  501    0  0.00000000000E+00 -0.00000000000E+00 -0.92247578647E+03  0.92247578647E+03  0.00000000000E+00 0. -1.
         25    2    1    2    0    0  0.13498734050E+03 -0.94669275646E+02 -0.51448294127E+03  0.55455003844E+03  0.12509674029E+03 0.  0.
         23    2    1    2    0    0 -0.13498734050E+03  0.94669275646E+02 -0.36451060410E+03  0.41140798914E+03  0.95941123501E+02 0.  0.
          5    1    3    3  502    0  0.14028562815E+02 -0.32666924927E+02 -0.28918695285E+03  0.29139405391E+03  0.41800000000E+01 0.  1.
         -5    1    3    3    0  502  0.12095877768E+03 -0.62002350719E+02 -0.22529598842E+03  0.26315598453E+03  0.41800000000E+01 0.  1.
        -11    1    4    4    0    0 -0.70623377124E+02  0.13277109191E+02 -0.75030252636E+02  0.10389168319E+03  0.00000000000E+00 0.  1.
         11    1    4    4    0    0 -0.64363963373E+02  0.81392166454E+02 -0.28948035146E+03  0.30751630595E+03  0.00000000000E+00 0. -1.
</event>
<event>
 8    1  0.6380238E-009  0.8392970E+02  0.7561462E-02  0.1318255E+00
         -1   -1    0    0    0  501 -0.00000000000E+00  0.00000000000E+00  0.18249927271E+03  0.18249927271E+03  0.00000000000E+00 0.  1.
          1   -1    0    0  501    0  0.00000000000E+00 -0.00000000000E+00 -0.68703667255E+02  0.68703667255E+02  0.00000000000E+00 0. -1.
         25    2    1    2    0    0 -0.11197410038E+02  0.83300603559E+00  0.35042856674E+02  0.13039338246E+03  0.12509339109E+03 0.  0.
         23    2    1    2    0    0  0.11197410038E+02 -0.83300603559E+00  0.78752748781E+02  0.12080955751E+03  0.90922372683E+02 0.  0.
          5    1    3    3  502    0  0.26262094338E+02  0.35023761766E+02  0.59455788243E+02  0.73951501965E+02  0.41800000000E+01 0.  1.
         -5    1    3    3    0  502 -0.37459504376E+02 -0.34190755731E+02 -0.24412931569E+02  0.56441880491E+02  0.41800000000E+01 0.  1.
        -11    1    4    4    0    0  0.18773890604E+02  0.33193672419E+02  0.40201055624E+01  0.38346318021E+02  0.00000000000E+00 0.  1.
         11    1    4    4    0    0 -0.75764805654E+01 -0.34026678455E+02  0.74732643219E+02  0.82463239488E+02  0.00000000000E+00 0. -1.
</event>
<event>
 8    1  0.6380238E-009  0.9057486E+02  0.7561462E-02  0.1301466E+00
         -1   -1    0    0    0  501 -0.00000000000E+00  0.00000000000E+00  0.10115381087E+03  0.10115381087E+03  0.00000000000E+00 0.  1.
          1   -1    0    0  501    0  0.00000000000E+00 -0.00000000000E+00 -0.14656789734E+03  0.14656789734E+03  0.00000000000E+00 0. -1.
         25    2    1    2    0    0  0.11330726948E+02  0.54773199893E+02 -0.29047068160E+02  0.14006872453E+03  0.12508807546E+03 0.  0.
         23    2    1    2    0    0 -0.11330726948E+02 -0.54773199893E+02 -0.16367018312E+02  0.10765298368E+03  0.90514069660E+02 0.  0.
          5    1    3    3  502    0  0.12700231781E+02  0.73906672144E+02 -0.64854459452E+02  0.99232380731E+02  0.41800000000E+01 0.  1.
         -5    1    3    3    0  502 -0.13695048330E+01 -0.19133472251E+02  0.35807391292E+02  0.40836343801E+02  0.41800000000E+01 0.  1.
        -11    1    4    4    0    0 -0.27334560521E+02 -0.62811589356E+02  0.16286096533E+02  0.70411014029E+02  0.00000000000E+00 0.  1.
         11    1    4    4    0    0  0.16003833573E+02  0.80383894632E+01 -0.32653114845E+02  0.37241969648E+02  0.00000000000E+00 0. -1.
</event>
<event>
 8    1  0.6380238E-009  0.1255288E+03  0.7561462E-02  0.1234245E+00
          1   -1    0    0  501    0  0.00000000000E+00  0.00000000000E+00  0.49187646024E+03  0.49187646024E+03  0.00000000000E+00 0. -1.
         -1   -1    0    0    0  501 -0.00000000000E+00 -0.00000000000E+00 -0.36759742168E+02  0.36759742168E+02  0.00000000000E+00 0.  1.
         25    2    1    2    0    0 -0.19178108642E+01 -0.68799462866E+02  0.17760171344E+03  0.22787473806E+03  0.12508990182E+03 0.  0.
         23    2    1    2    0    0  0.19178108642E+01  0.68799462866E+02  0.27751500463E+03  0.30076146435E+03  0.93305072506E+02 0.  0.
          5    1    3    3  502    0 -0.40343631285E+02  0.14762914606E+02  0.25657420838E+02  0.50212825822E+02  0.41800000000E+01 0.  1.
         -5    1    3    3    0  502  0.38425820421E+02 -0.83562377472E+02  0.15194429260E+03  0.17766191223E+03  0.41800000000E+01 0.  1.
        -11    1    4    4    0    0 -0.39956389514E+02  0.60855429992E+01  0.10337580318E+03  0.11099596199E+03  0.00000000000E+00 0.  1.
         11    1    4    4    0    0  0.41874200378E+02  0.62713919867E+02  0.17413920145E+03  0.18976550236E+03  0.00000000000E+00 0. -1.
</event>
<event>
 8    1  0.6380238E-009  0.1488897E+03  0.7561462E-02  0.1201844E+00
          1   -1    0    0  501    0  0.00000000000E+00  0.00000000000E+00  0.94221142412E+03  0.94221142412E+03  0.00000000000E+00 0. -1.
         -1   -1    0    0    0  501 -0.00000000000E+00 -0.00000000000E+00 -0.27494558505E+02  0.27494558505E+02  0.00000000000E+00 0.  1.
         25    2    1    2    0    0  0.54542895177E+02 -0.87865636806E+02  0.31591030001E+03  0.35516422660E+03  0.12508801964E+03 0.  0.
         23    2    1    2    0    0 -0.54542895177E+02  0.87865636806E+02  0.59880656561E+03  0.61454175603E+03  0.91634978825E+02 0.  0.
          5    1    3    3  502    0  0.88960481470E+02 -0.87761862642E+02  0.21820149379E+03  0.25148653262E+03  0.41800000000E+01 0. -1.
         -5    1    3    3    0  502 -0.34417586293E+02 -0.10377416356E+00  0.97708806220E+02  0.10367769398E+03  0.41800000000E+01 0. -1.
        -11    1    4    4    0    0  0.65620016131E+01  0.75432566585E+02  0.31667769475E+03  0.32560389175E+03  0.00000000000E+00 0.  1.
         11    1    4    4    0    0 -0.61104896790E+02  0.12433070221E+02  0.28212887086E+03  0.28893786429E+03  0.00000000000E+00 0. -1.
</event>
<event>
 8    1  0.6380238E-009  0.1121262E+03  0.7561462E-02  0.1256682E+00
          1   -1    0    0  501    0  0.00000000000E+00  0.00000000000E+00  0.10775366924E+04  0.10775366924E+04  0.00000000000E+00 0. -1.
         -1   -1    0    0    0  501 -0.00000000000E+00 -0.00000000000E+00 -0.15656544051E+02  0.15656544051E+02  0.00000000000E+00 0.  1.
         25    2    1    2    0    0 -0.52767990345E+02  0.27105070782E+02  0.42626478722E+03  0.44818435119E+03  0.12509355763E+03 0.  0.
         23    2    1    2    0    0  0.52767990345E+02 -0.27105070782E+02  0.63561536115E+03  0.64500888529E+03  0.92251986945E+02 0.  0.
          5    1    3    3  502    0  0.27059342164E+02  0.20811103802E+02  0.27350575707E+03  0.27565953927E+03  0.41800000000E+01 0.  1.
         -5    1    3    3    0  502 -0.79827332509E+02  0.62939669802E+01  0.15275903015E+03  0.17252481192E+03  0.41800000000E+01 0.  1.
        -11    1    4    4    0    0  0.21269894834E+01 -0.52832467065E+02  0.30867490343E+03  0.31317086338E+03  0.00000000000E+00 0.  1.
         11    1    4    4    0    0  0.50641000862E+02  0.25727396283E+02  0.32694045772E+03  0.33183802191E+03  0.00000000000E+00 0. -1.
</event>
<event>
 8    1  0.6380238E-009  0.1527781E+03  0.7561462E-02  0.1197100E+00
         -2   -1    0    0    0  501 -0.00000000000E+00  0.00000000000E+00  0.28387582686E+02  0.28387582686E+02  0.00000000000E+00 0. -1.
          2   -1    0    0  501    0  0.00000000000E+00 -0.00000000000E+00 -0.10445074633E+04  0.10445074633E+04  0.00000000000E+00 0.  1.
         25    2    1    2    0    0 -0.99131041639E+02  0.88041713584E+02 -0.56192081149E+03  0.59074737949E+03  0.12509660764E+03 0.  0.
         23    2    1    2    0    0  0.99131041639E+02 -0.88041713584E+02 -0.45419906911E+03  0.48214766648E+03  0.92689110280E+02 0.  0.
          5    1    3    3  502    0 -0.17739891415E+01 -0.12390959447E+02 -0.16909719825E+01  0.13304687134E+02  0.41800000000E+01 0. -1.
         -5    1    3    3    0  502 -0.97357052498E+02  0.10043267303E+03 -0.56022983951E+03  0.57744269236E+03  0.41800000000E+01 0. -1.
        -11    1    4    4    0    0  0.28295747940E+02 -0.75311351607E+02 -0.31897120819E+03  0.32896060658E+03  0.00000000000E+00 0.  1.
         11    1    4    4    0    0  0.70835293699E+02 -0.12730361977E+02 -0.13522786092E+03  0.15318705989E+03  0.00000000000E+00 0. -1.
</event>
<event>
 8    1  0.6380238E-009  0.1304782E+03  0.7561462E-02  0.1226748E+00
          1   -1    0    0  501    0  0.00000000000E+00  0.00000000000E+00  0.85632447762E+03  0.85632447762E+03  0.00000000000E+00 0. -1.
         -1   -1    0    0    0  501 -0.00000000000E+00 -0.00000000000E+00 -0.21579077905E+02  0.21579077905E+02  0.00000000000E+00 0.  1.
         25    2    1    2    0    0 -0.28682850871E+02  0.61563357185E+02  0.34443723232E+03  0.37268974782E+03  0.12509151948E+03 0.  0.
         23    2    1    2    0    0  0.28682850871E+02 -0.61563357185E+02  0.49030816740E+03  0.50521380770E+03  0.10112437684E+03 0.  0.
          5    1    3    3  502    0  0.46280638193E+02  0.51344973837E+01  0.14264273448E+03  0.15010890258E+03  0.41800000000E+01 0. -1.
         -5    1    3    3    0  502 -0.74963489064E+02  0.56428859801E+02  0.20179449784E+03  0.22258084524E+03  0.41800000000E+01 0. -1.
        -11    1    4    4    0    0 -0.26615934621E+02  0.11212760687E+02  0.15518406535E+03  0.15784875076E+03  0.00000000000E+00 0. -1.
         11    1    4    4    0    0  0.55298785492E+02 -0.72776117872E+02  0.33512410205E+03  0.34736505694E+03  0.00000000000E+00 0.  1.
</event>
<event>
 8    1  0.6380238E-009  0.1052699E+03  0.7561462E-02  0.1269589E+00
          2   -1    0    0  501    0  0.00000000000E+00  0.00000000000E+00  0.65416634449E+02  0.65416634449E+02  0.00000000000E+00 0. -1.
         -2   -1    0    0    0  501 -0.00000000000E+00 -0.00000000000E+00 -0.27682002416E+03  0.27682002416E+03  0.00000000000E+00 0.  1.
         25    2    1    2    0    0 -0.57631656836E+02 -0.12833924510E+02 -0.49417800608E+02  0.14687924307E+03  0.12508107587E+03 0.  0.
         23    2    1    2    0    0  0.57631656836E+02  0.12833924510E+02 -0.16198558910E+03  0.19535741554E+03  0.91864417709E+02 0.  0.
          5    1    3    3  502    0 -0.62310459307E+02 -0.43065312910E+02 -0.75079649213E+02  0.10673162906E+03  0.41800000000E+01 0. -1.
         -5    1    3    3    0  502  0.46788024712E+01  0.30231388400E+02  0.25661848605E+02  0.40147614014E+02  0.41800000000E+01 0. -1.
        -11    1    4    4    0    0  0.52838487805E+01  0.43042556791E+02 -0.38998378984E+02  0.58321988276E+02  0.00000000000E+00 0. -1.
         11    1    4    4    0    0  0.52347808056E+02 -0.30208632281E+02 -0.12298721011E+03  0.13703542726E+03  0.00000000000E+00 0.  1.
</event>
<event>
 8    1  0.6380238E-009  0.8856884E+02  0.7561462E-02  0.1306355E+00
         -2   -1    0    0    0  501 -0.00000000000E+00  0.00000000000E+00  0.54945353586E+02  0.54945353586E+02  0.00000000000E+00 0. -1.
          2   -1    0    0  501    0  0.00000000000E+00 -0.00000000000E+00 -0.26485114539E+03  0.26485114539E+03  0.00000000000E+00 0.  1.
         25    2    1    2    0    0 -0.27527885225E+02  0.36494813997E+02 -0.81028517629E+02  0.15589275311E+03  0.12508906382E+03 0.  0.
         23    2    1    2    0    0  0.27527885225E+02 -0.36494813997E+02 -0.12887727417E+03  0.16390374586E+03  0.90362769973E+02 0.  0.
          5    1    3    3  502    0 -0.31324169904E+02  0.70663961704E+02 -0.91367242088E+02  0.11974992455E+03  0.41800000000E+01 0.  1.
         -5    1    3    3    0  502  0.37962846785E+01 -0.34169147707E+02  0.10338724458E+02  0.36142828553E+02  0.41800000000E+01 0.  1.
        -11    1    4    4    0    0  0.30482094715E+02 -0.20775513698E+01 -0.12553398993E+03  0.12919851758E+03  0.00000000000E+00 0.  1.
         11    1    4    4    0    0 -0.29542094900E+01 -0.34417262628E+02 -0.33432842394E+01  0.34705228280E+02  0.00000000000E+00 0. -1.
</event>
<event>
 8    1  0.6380238E-009  0.1131950E+03  0.7561462E-02  0.1254765E+00
         -1   -1    0    0    0  501 -0.00000000000E+00  0.00000000000E+00  0.68628871889E+02  0.68628871889E+02  0.00000000000E+00 0.  1.
          1   -1    0    0  501    0  0.00000000000E+00 -0.00000000000E+00 -0.25954994255E+03  0.25954994255E+03  0.00000000000E+00 0. -1.
         25    2    1    2    0    0 -0.11055440901E+02  0.67538707945E+02 -0.59839681606E+02  0.15463600029E+03  0.12509118773E+03 0.  0.
         23    2    1    2    0    0  0.11055440901E+02 -0.67538707945E+02 -0.13108138906E+03  0.17354281415E+03  0.90835444299E+02 0.  0.
          5    1    3    3  502    0  0.30377364237E+02  0.65888995534E+02  0.99469288719E+01  0.73352285475E+02  0.41800000000E+01 0. -1.
         -5    1    3    3    0  502 -0.41432805137E+02  0.16497124106E+01 -0.69786610478E+02  0.81283714818E+02  0.41800000000E+01 0. -1.
        -11    1    4    4    0    0  0.50223796752E+02 -0.38347149892E+02 -0.58890160990E+02  0.86376991882E+02  0.00000000000E+00 0.  1.
         11    1    4    4    0    0 -0.39168355851E+02 -0.29191558052E+02 -0.72191228067E+02  0.87165822267E+02  0.00000000000E+00 0. -1.
</event>
<event>
 8    1  0.6380238E-009  0.8960461E+02  0.7561462E-02  0.1303812E+00
         -1   -1    0    0    0  501 -0.00000000000E+00  0.00000000000E+00  0.52381821806E+02  0.52381821806E+02  0.00000000000E+00 0.  1.
          1   -1    0    0  501    0  0.00000000000E+00 -0.00000000000E+00 -0.26299087972E+03  0.26299087972E+03  0.00000000000E+00 0. -1.
         25    2    1    2    0    0  0.33569211551E+02  0.12282764762E+02 -0.11041821147E+03  0.17063748362E+03  0.12508881292E+03 0.  0.
         23    2    1    2    0    0 -0.33569211551E+02 -0.12282764762E+02 -0.10019084644E+03  0.14473521790E+03  0.98144379954E+02 0.  0.
          5    1    3    3  502    0  0.41904631791E+02  0.44744203734E+02 -0.69984029876E+01  0.61842477131E+02  0.41800000000E+01 0.  1.
         -5    1    3    3    0  502 -0.83354202402E+01 -0.32461438972E+02 -0.10341980848E+03  0.10879500649E+03  0.41800000000E+01 0.  1.
        -11    1    4    4    0    0  0.15420888189E+02  0.20048188392E+02  0.35492038369E+01  0.25540761504E+02  0.00000000000E+00 0.  1.
         11    1    4    4    0    0 -0.48990099740E+02 -0.32330953154E+02 -0.10374005028E+03  0.11919445640E+03  0.00000000000E+00 0. -1.
</event>
<event>
 8    1  0.6380238E-009  0.1321640E+03  0.7561462E-02  0.1224280E+00
         -3   -1    0    0    0  501 -0.00000000000E+00  0.00000000000E+00  0.18652649403E+04  0.18652649403E+04  0.00000000000E+00 0.  1.
          3   -1    0    0  501    0  0.00000000000E+00 -0.00000000000E+00 -0.10360537943E+02  0.10360537943E+02  0.00000000000E+00 0. -1.
         25    2    1    2    0    0 -0.38539242067E+02 -0.66694457702E+02  0.12913212761E+04  0.12996512580E+04  0.12509728345E+03 0.  0.
         23    2    1    2    0    0  0.38539242067E+02  0.66694457702E+02  0.56358312624E+03  0.57597422027E+03  0.90481701844E+02 0.  0.
          5    1    3    3  502    0 -0.56062937744E+02  0.18778294082E+02  0.48256625214E+03  0.48619269578E+03  0.41800000000E+01 0. -1.
         -5    1    3    3    0  502  0.17523695677E+02 -0.85472751784E+02  0.80875502399E+03  0.81345856221E+03  0.41800000000E+01 0. -1.
        -11    1    4    4    0    0  0.67636916787E+02  0.50455229256E+02  0.36605358544E+03  0.37565371034E+03  0.00000000000E+00 0.  1.
         11    1    4    4    0    0 -0.29097674720E+02  0.16239228446E+02  0.19752954080E+03  0.20032050994E+03  0.00000000000E+00 0. -1.
</event>
<event>
 8    1  0.6380238E-009  0.1326113E+03  0.7561462E-02  0.1223632E+00
         -3   -1    0    0    0  501 -0.00000000000E+00  0.00000000000E+00  0.33514545841E+03  0.33514545841E+03  0.00000000000E+00 0.  1.
          3   -1    0    0  501    0  0.00000000000E+00 -0.00000000000E+00 -0.54106816107E+02  0.54106816107E+02  0.00000000000E+00 0. -1.
         25    2    1    2    0    0  0.25362213418E+02 -0.75180374520E+02  0.15295655567E+03  0.21292893844E+03  0.12509074436E+03 0.  0.
         23    2    1    2    0    0 -0.25362213418E+02  0.75180374520E+02  0.12808208664E+03  0.17632333607E+03  0.91594581413E+02 0.  0.
          5    1    3    3  502    0  0.74158864743E+02 -0.50153497779E+02  0.71533747476E+02  0.11467109482E+03  0.41800000000E+01 0. -1.
         -5    1    3    3    0  502 -0.48796651325E+02 -0.25026876741E+02  0.81422808191E+02  0.98257843624E+02  0.41800000000E+01 0. -1.
        -11    1    4    4    0    0 -0.58699580898E+02  0.34815069496E+02  0.63848164622E+02  0.93457573194E+02  0.00000000000E+00 0.  1.
         11    1    4    4    0    0  0.33337367480E+02  0.40365305023E+02  0.64233922014E+02  0.82865762879E+02  0.00000000000E+00 0. -1.
</event>
<event>
 8    1  0.6380238E-009  0.9493841E+02  0.7561462E-02  0.1291315E+00
         -2   -1    0    0    0  501 -0.00000000000E+00  0.00000000000E+00  0.79991843454E+02  0.79991843454E+02  0.00000000000E+00 0.  1.
          2   -1    0    0  501    0  0.00000000000E+00 -0.00000000000E+00 -0.22984392460E+03  0.22984392460E+03  0.00000000000E+00 0. -1.
         25    2    1    2    0    0  0.77654651914E+01  0.24461923887E+02  0.83733169412E+01  0.12797031907E+03  0.12509037515E+03 0.  0.
         23    2    1    2    0    0 -0.77654651914E+01 -0.24461923887E+02 -0.15822539809E+03  0.18186544899E+03  0.85913193192E+02 0.  0.
          5    1    3    3  502    0  0.86502305591E+01 -0.37199803140E+02 -0.35390364163E+02  0.52236023182E+02  0.41800000000E+01 0.  1.
         -5    1    3    3    0  502 -0.88476536778E+00  0.61661727027E+02  0.43763681104E+02  0.75734295887E+02  0.41800000000E+01 0.  1.
        -11    1    4    4    0    0  0.12033112639E+02 -0.53313998776E+02 -0.94688104625E+02  0.10932984690E+03  0.00000000000E+00 0.  1.
         11    1    4    4    0    0 -0.19798577830E+02  0.28852074889E+02 -0.63537293463E+02  0.72535602087E+02  0.00000000000E+00 0. -1.
</event>
<event>
 8    1  0.6380238E-009  0.1310165E+03  0.7561462E-02  0.1225955E+00
         -1   -1    0    0    0  501 -0.00000000000E+00  0.00000000000E+00  0.76429235623E+02  0.76429235623E+02  0.00000000000E+00 0.  1.
          1   -1    0    0  501    0  0.00000000000E+00 -0.00000000000E+00 -0.32419671584E+03  0.32419671584E+03  0.00000000000E+00 0. -1.
         25    2    1    2    0    0  0.63013835770E+02 -0.50028206334E+02 -0.32437104204E+02  0.15223046609E+03  0.12509350162E+03 0.  0.
         23    2    1    2    0    0 -0.63013835770E+02  0.50028206334E+02 -0.21533037601E+03  0.24839548537E+03  0.94125349365E+02 0.  0.
          5    1    3    3  502    0 -0.10665617630E+01  0.37447280386E+02 -0.20904203691E+02  0.43103300271E+02  0.41800000000E+01 0. -1.
         -5    1    3    3    0  502  0.64080397533E+02 -0.87475486721E+02 -0.11532900513E+02  0.10912716582E+03  0.41800000000E+01 0. -1.
        -11    1    4    4    0    0 -0.57788615718E+02  0.72521295598E+02 -0.12797457311E+03  0.15803908942E+03  0.00000000000E+00 0.  1.
         11    1    4    4    0    0 -0.52252200521E+01 -0.22493089264E+02 -0.87355802900E+02  0.90356395952E+02  0.00000000000E+00 0. -1.
</event>
<event>
 8    1  0.6380238E-009  0.9496760E+02  0.7561462E-02  0.1291249E+00
          2   -1    0    0  501    0  0.00000000000E+00  0.00000000000E+00  0.64654265226E+03  0.64654265226E+03  0.00000000000E+00 0. -1.
         -2   -1    0    0    0  501 -0.00000000000E+00 -0.00000000000E+00 -0.27434682443E+02  0.27434682443E+02  0.00000000000E+00 0.  1.
         25    2    1    2    0    0  0.31575190522E+02  0.58992134173E+02  0.43172034519E+03  0.45443059260E+03  0.12509053719E+03 0.  0.
         23    2    1    2    0    0 -0.31575190522E+02 -0.58992134173E+02  0.18738762463E+03  0.21954674210E+03  0.92787852387E+02 0.  0.
          5    1    3    3  502    0  0.42512989377E+02  0.74760937986E+02  0.42505652125E+03  0.43369006303E+03  0.41800000000E+01 0. -1.
         -5    1    3    3    0  502 -0.10937798855E+02 -0.15768803813E+02  0.66638239354E+01  0.20740529572E+02  0.41800000000E+01 0. -1.
        -11    1    4    4    0    0 -0.44590597696E+02 -0.34225418819E+02  0.18273364415E+03  0.19118390466E+03  0.00000000000E+00 0. -1.
         11    1    4    4    0    0  0.13015407174E+02 -0.24766715354E+02  0.46539804806E+01  0.28362837440E+02  0.00000000000E+00 0.  1.
</event>
<event>
 8    1  0.6380238E-009  0.1283227E+03  0.7561462E-02  0.1229966E+00
         -2   -1    0    0    0  501 -0.00000000000E+00  0.00000000000E+00  0.57905365939E+02  0.57905365939E+02  0.00000000000E+00 0.  1.
          2   -1    0    0  501    0  0.00000000000E+00 -0.00000000000E+00 -0.39625693689E+03  0.39625693689E+03  0.00000000000E+00 0. -1.
         25    2    1    2    0    0  0.86494389610E+02 -0.59566164067E+02 -0.17341061690E+03  0.23822016127E+03  0.12509274897E+03 0.  0.
         23    2    1    2    0    0 -0.86494389610E+02  0.59566164067E+02 -0.16494095405E+03  0.21594214156E+03  0.91630141566E+02 0.  0.
          5    1    3    3  502    0  0.48739074613E+02 -0.10993292123E+01  0.25016842512E+01  0.48994252142E+02  0.41800000000E+01 0. -1.
         -5    1    3    3    0  502  0.37755314997E+02 -0.58466834855E+02 -0.17591230115E+03  0.18922590912E+03  0.41800000000E+01 0. -1.
        -11    1    4    4    0    0 -0.32007317761E+02 -0.22755414046E+02 -0.61367741462E+02  0.72857923048E+02  0.00000000000E+00 0. -1.
         11    1    4    4    0    0 -0.54487071849E+02  0.82321578114E+02 -0.10357321259E+03  0.14308421851E+03  0.00000000000E+00 0.  1.
</event>
<event>
 8    1  0.6380238E-009  0.2468728E+03  0.7561462E-02  0.1115297E+00
         -1   -1    0    0    0  501 -0.00000000000E+00  0.00000000000E+00  0.49580573425E+02  0.49580573425E+02  0.00000000000E+00 0.  1.
          1   -1    0    0  501    0  0.00000000000E+00 -0.00000000000E+00 -0.15292031621E+04  0.15292031621E+04  0.00000000000E+00 0. -1.
         25    2    1    2    0    0  0.14355543570E+02 -0.22948340928E+03 -0.10567940847E+04  0.10887287004E+04  0.12509088221E+03 0.  0.
         23    2    1    2    0    0 -0.14355543570E+02  0.22948340928E+03 -0.42282850395E+03  0.49005503511E+03  0.92202369416E+02 0.  0.
          5    1    3    3  502    0  0.59314527585E+02 -0.55811062756E+02 -0.29292242995E+03  0.30406267491E+03  0.41800000000E+01 0. -1.
         -5    1    3    3    0  502 -0.44958984015E+02 -0.17367234652E+03 -0.76387165478E+03  0.78466602549E+03  0.41800000000E+01 0. -1.
        -11    1    4    4    0    0 -0.26545032357E+02  0.16533293468E+03 -0.21687013571E+03  0.27399320027E+03  0.00000000000E+00 0.  1.
         11    1    4    4    0    0  0.12189488786E+02  0.64150474596E+02 -0.20595836824E+03  0.21606183484E+03  0.00000000000E+00 0. -1.
</event>
<event>
 8    1  0.6380238E-009  0.7826154E+02  0.7561462E-02  0.1334059E+00
         -1   -1    0    0    0  501 -0.00000000000E+00  0.00000000000E+00  0.21986656602E+02  0.21986656602E+02  0.00000000000E+00 0.  1.
          1   -1    0    0  501    0  0.00000000000E+00 -0.00000000000E+00 -0.75439471732E+03  0.75439471732E+03  0.00000000000E+00 0. -1.
         25    2    1    2    0    0 -0.53268188915E+02  0.69299325739E+01 -0.26844759139E+03  0.30099159851E+03  0.12508520750E+03 0.  0.
         23    2    1    2    0    0  0.53268188915E+02 -0.69299325739E+01 -0.46396046933E+03  0.47538977542E+03  0.88603597844E+02 0.  0.
          5    1    3    3  502    0 -0.16144575151E+02  0.16175310738E+02 -0.26070139056E+03  0.26173455145E+03  0.41800000000E+01 0.  1.
         -5    1    3    3    0  502 -0.37123613764E+02 -0.92453781637E+01 -0.77462008265E+01  0.39257047055E+02  0.41800000000E+01 0.  1.
        -11    1    4    4    0    0 -0.69651630185E+01  0.25473750150E+02 -0.58283062784E+02  0.63987036578E+02  0.00000000000E+00 0.  1.
         11    1    4    4    0    0  0.60233351933E+02 -0.32403682724E+02 -0.40567740655E+03  0.41140273884E+03  0.00000000000E+00 0. -1.
</event>
<event>
 8    1  0.6380238E-009  0.9396882E+02  0.7561462E-02  0.1293516E+00
         -2   -1    0    0    0  501 -0.00000000000E+00  0.00000000000E+00  0.70821527745E+02  0.70821527745E+02  0.00000000000E+00 0.  1.
          2   -1    0    0  501    0  0.00000000000E+00 -0.00000000000E+00 -0.30108089734E+03  0.30108089734E+03  0.00000000000E+00 0. -1.
         25    2    1    2    0    0  0.84863580037E+02  0.90447196136E+01 -0.18363191063E+03  0.23801614671E+03  0.12508946128E+03 0.  0.
         23    2    1    2    0    0 -0.84863580037E+02 -0.90447196136E+01 -0.46627458968E+02  0.13388627838E+03  0.92020549000E+02 0.  0.
          5    1    3    3  502    0  0.55516036199E+02  0.28150303878E+02 -0.12932696412E+02  0.63711827161E+02  0.41800000000E+01 0.  1.
         -5    1    3    3    0  502  0.29347543839E+02 -0.19105584265E+02 -0.17069921421E+03  0.17430431955E+03  0.41800000000E+01 0.  1.
        -11    1    4    4    0    0 -0.20728102736E+02 -0.15418248453E+02 -0.62397276619E+02  0.67533671290E+02  0.00000000000E+00 0. -1.
         11    1    4    4    0    0 -0.64135477301E+02  0.63735288398E+01  0.15769817651E+02  0.66352607087E+02  0.00000000000E+00 0.  1.
</event>
<event>
 8    1  0.6380238E-009  0.2694603E+03  0.7561462E-02  0.1101589E+00
         -3   -1    0    0    0  501 -0.00000000000E+00  0.00000000000E+00  0.62129169485E+03  0.62129169485E+03  0.00000000000E+00 0.  1.
          3   -1    0    0  501    0  0.00000000000E+00 -0.00000000000E+00 -0.11929999489E+03  0.11929999489E+03  0.00000000000E+00 0. -1.
         25    2    1    2    0    0 -0.62647855660E+02  0.24170515482E+03  0.26325961132E+03  0.38379770443E+03  0.12509564055E+03 0.  0.
         23    2    1    2    0    0  0.62647855660E+02 -0.24170515482E+03  0.23873208864E+03  0.35679398531E+03  0.89234534372E+02 0.  0.
          5    1    3    3  502    0 -0.70959586500E+02  0.25119915846E+03  0.26290051713E+03  0.37050024890E+03  0.41800000000E+01 0.  1.
         -5    1    3    3    0  502  0.83117308401E+01 -0.94940036460E+01  0.35909419300E+00  0.13297455525E+02  0.41800000000E+01 0.  1.
        -11    1    4    4    0    0  0.54840080910E+02 -0.54903600063E+02  0.59379555650E+02  0.97712698271E+02  0.00000000000E+00 0.  1.
         11    1    4    4    0    0  0.78077747495E+01 -0.18680155476E+03  0.17935253299E+03  0.25908128704E+03  0.00000000000E+00 0. -1.
</event>
<event>
 8    1  0.6380238E-009  0.1315993E+03  0.7561462E-02  0.1225102E+00
          4   -1    0    0  501    0  0.00000000000E+00  0.00000000000E+00  0.51047368341E+02  0.51047368341E+02  0.00000000000E+00 0. -1.
         -4   -1    0    0    0  501 -0.00000000000E+00 -0.00000000000E+00 -0.51812828661E+03  0.51812828661E+03  0.00000000000E+00 0.  1.
         25    2    1    2    0    0 -0.85227723530E+02 -0.83851272899E+02 -0.27165223925E+03  0.32208189439E+03  0.12508799613E+03 0.  0.
         23    2    1    2    0    0  0.85227723530E+02  0.83851272899E+02 -0.19542867902E+03  0.24709376056E+03  0.92564340339E+02 0.  0.
          5    1    3    3  502    0 -0.37554636100E+02 -0.87162337056E+02 -0.25362945256E+03  0.27083758103E+03  0.41800000000E+01 0. -1.
         -5    1    3    3    0  502 -0.47673087430E+02  0.33110641567E+01 -0.18022786689E+02  0.51244313352E+02  0.41800000000E+01 0. -1.
        -11    1    4    4    0    0  0.27999627272E+02  0.19558230469E+02 -0.14140423337E+03  0.14547048059E+03  0.00000000000E+00 0.  1.
         11    1    4    4    0    0  0.57228096258E+02  0.64293042431E+02 -0.54024445646E+02  0.10162327998E+03  0.00000000000E+00 0. -1.
</event>
<event>
 8    1  0.6380238E-009  0.1079883E+03  0.7561462E-02  0.1264341E+00
          1   -1    0    0  501    0  0.00000000000E+00  0.00000000000E+00  0.96631183743E+02  0.96631183743E+02  0.00000000000E+00 0. -1.
         -1   -1    0    0    0  501 -0.00000000000E+00 -0.00000000000E+00 -0.18939716092E+03  0.18939716092E+03  0.00000000000E+00 0.  1.
         25    2    1    2    0    0  0.77001664625E+02  0.79860217400E+01 -0.84182205251E+02  0.16948847066E+03  0.12508663040E+03 0.  0.
         23    2    1    2    0    0 -0.77001664625E+02 -0.79860217400E+01 -0.85837719250E+01  0.11653987401E+03  0.86688108728E+02 0.  0.
          5    1    3    3  502    0  0.18150196663E+02  0.31289951082E+02  0.24330469647E+02  0.43794232850E+02  0.41800000000E+01 0. -1.
         -5    1    3    3    0  502  0.58851467962E+02 -0.23303929342E+02 -0.10851267490E+03  0.12569423781E+03  0.41800000000E+01 0. -1.
        -11    1    4    4    0    0 -0.96020684424E+02 -0.11758329619E+02 -0.53797901684E+01  0.96887420726E+02  0.00000000000E+00 0.  1.
         11    1    4    4    0    0  0.19019019799E+02  0.37723078792E+01 -0.32039817566E+01  0.19652453281E+02  0.00000000000E+00 0. -1.
</event>
<event>
 8    1  0.6380238E-009  0.1294985E+03  0.7561462E-02  0.1228202E+00
          2   -1    0    0  501    0  0.00000000000E+00  0.00000000000E+00  0.40153195142E+03  0.40153195142E+03  0.00000000000E+00 0. -1.
         -2   -1    0    0    0  501 -0.00000000000E+00 -0.00000000000E+00 -0.60266649389E+02  0.60266649389E+02  0.00000000000E+00 0.  1.
         25    2    1    2    0    0 -0.39943772276E+02 -0.62131784858E+02  0.30739455612E+03  0.33999180487E+03  0.12508857106E+03 0.  0.
         23    2    1    2    0    0  0.39943772276E+02  0.62131784858E+02  0.33870745906E+02  0.12180679594E+03  0.90740313396E+02 0.  0.
          5    1    3    3  502    0 -0.34313898353E+02  0.34085069573E+02  0.93652074203E+02  0.10548658204E+03  0.41800000000E+01 0. -1.
         -5    1    3    3    0  502 -0.56298739231E+01 -0.96216854431E+02  0.21374248192E+03  0.23450522283E+03  0.41800000000E+01 0. -1.
        -11    1    4    4    0    0  0.14131988562E+02 -0.21904716352E+02 -0.34626759601E+01  0.26296764516E+02  0.00000000000E+00 0.  1.
         11    1    4    4    0    0  0.25811783714E+02  0.84036501210E+02  0.37333421866E+02  0.95510031422E+02  0.00000000000E+00 0. -1.
</event>
<event>
 8    1  0.6380238E-009  0.1312621E+03  0.7561462E-02  0.1225595E+00
          2   -1    0    0  501    0  0.00000000000E+00  0.00000000000E+00  0.74338862296E+03  0.74338862296E+03  0.00000000000E+00 0. -1.
         -2   -1    0    0    0  501 -0.00000000000E+00 -0.00000000000E+00 -0.36400271745E+02  0.36400271745E+02  0.00000000000E+00 0.  1.
         25    2    1    2    0    0 -0.13176479225E+01  0.12309099488E+03  0.38954586218E+03  0.42726742051E+03  0.12513329161E+03 0.  0.
         23    2    1    2    0    0  0.13176479225E+01 -0.12309099488E+03  0.31744248904E+03  0.35252147420E+03  0.91370272551E+02 0.  0.
          5    1    3    3  502    0  0.13445471790E+02  0.61275459496E+02  0.46091552277E+02  0.77957464296E+02  0.41800000000E+01 0.  1.
         -5    1    3    3    0  502 -0.14763119712E+02  0.61815535388E+02  0.34345430991E+03  0.34930995622E+03  0.41800000000E+01 0.  1.
        -11    1    4    4    0    0 -0.11866767660E+02 -0.12216895313E+03  0.31626961338E+03  0.33925291691E+03  0.00000000000E+00 0. -1.
         11    1    4    4    0    0  0.13184415583E+02 -0.92204175648E+00  0.11728756591E+01  0.13268557291E+02  0.00000000000E+00 0.  1.
</event>
<event>
 8    1  0.6380238E-009  0.1944278E+03  0.7561462E-02  0.1154527E+00
          3   -1    0    0  501    0  0.00000000000E+00  0.00000000000E+00  0.41729660901E+03  0.41729660901E+03  0.00000000000E+00 0. -1.
         -3   -1    0    0    0  501 -0.00000000000E+00 -0.00000000000E+00 -0.11251524788E+03  0.11251524788E+03  0.00000000000E+00 0.  1.
         25    2    1    2    0    0 -0.33936135823E+01 -0.17676199524E+03  0.23365802483E+03  0.31861185608E+03  0.12514440736E+03 0.  0.
         23    2    1    2    0    0  0.33936135823E+01  0.17676199524E+03  0.71123336299E+02  0.21120000082E+03  0.91052686974E+02 0.  0.
          5    1    3    3  502    0  0.28945547956E+02 -0.17703127883E+03  0.17043328374E+03  0.24747301880E+03  0.41800000000E+01 0. -1.
         -5    1    3    3    0  502 -0.32339161538E+02  0.26928359193E+00  0.63224741089E+02  0.71138837272E+02  0.41800000000E+01 0. -1.
        -11    1    4    4    0    0 -0.20971656182E+00  0.54487791596E+02  0.70205297286E+02  0.88869270173E+02  0.00000000000E+00 0.  1.
         11    1    4    4    0    0  0.36033301441E+01  0.12227420364E+03  0.91803901277E+00  0.12233073064E+03  0.00000000000E+00 0. -1.
</event>
<event>
 8    1  0.6380238E-009  0.7591376E+02  0.7561462E-02  0.1341065E+00
          1   -1    0    0  501    0  0.00000000000E+00  0.00000000000E+00  0.14021292782E+03  0.14021292782E+03  0.00000000000E+00 0. -1.
         -1   -1    0    0    0  501 -0.00000000000E+00 -0.00000000000E+00 -0.87859632831E+02  0.87859632831E+02  0.00000000000E+00 0.  1.
         25    2    1    2    0    0  0.12225431994E+02 -0.21903584226E+02  0.36020349945E+02  0.13256780845E+03  0.12509008769E+03 0.  0.
         23    2    1    2    0    0 -0.12225431994E+02  0.21903584226E+02  0.16332945042E+02  0.95504752199E+02  0.90692692151E+02 0.  0.
          5    1    3    3  502    0  0.46278658572E+02 -0.18889892662E+01 -0.30127026118E+02  0.55411123634E+02  0.41800000000E+01 0. -1.
         -5    1    3    3    0  502 -0.34053226578E+02 -0.20014594960E+02  0.66147376063E+02  0.77156684816E+02  0.41800000000E+01 0. -1.
        -11    1    4    4    0    0  0.23886442066E+02  0.10675691508E+01  0.40707791543E+02  0.47210444933E+02  0.00000000000E+00 0. -1.
         11    1    4    4    0    0 -0.36111874060E+02  0.20836015075E+02 -0.24374846501E+02  0.48294307266E+02  0.00000000000E+00 0.  1.
</event>
<event>
 8    1  0.6380238E-009  0.8396552E+02  0.7561462E-02  0.1318160E+00
          1   -1    0    0  501    0  0.00000000000E+00  0.00000000000E+00  0.87795889070E+02  0.87795889070E+02  0.00000000000E+00 0. -1.
         -1   -1    0    0    0  501 -0.00000000000E+00 -0.00000000000E+00 -0.18714085023E+03  0.18714085023E+03  0.00000000000E+00 0.  1.
         25    2    1    2    0    0  0.43992660538E+02 -0.52584053413E+01 -0.11109608538E+03  0.17306311978E+03  0.12508196607E+03 0.  0.
         23    2    1    2    0    0 -0.43992660538E+02  0.52584053413E+01  0.11751124218E+02  0.10187361952E+03  0.90978791073E+02 0.  0.
          5    1    3    3  502    0  0.69336064914E+02 -0.15426020828E+02 -0.12369534480E+03  0.14270060526E+03  0.41800000000E+01 0.  1.
         -5    1    3    3    0  502 -0.25343404376E+02  0.10167615486E+02  0.12599259424E+02  0.30362514522E+02  0.41800000000E+01 0.  1.
        -11    1    4    4    0    0 -0.42060581560E+02  0.25256219406E+02 -0.28606445510E+02  0.56791705949E+02  0.00000000000E+00 0.  1.
         11    1    4    4    0    0 -0.19320789780E+01 -0.19997814064E+02  0.40357569728E+02  0.45081913568E+02  0.00000000000E+00 0. -1.
</event>
<event>
 8    1  0.6380238E-009  0.1046192E+03  0.7561462E-02  0.1270872E+00
         -1   -1    0    0    0  501 -0.00000000000E+00  0.00000000000E+00  0.43951685445E+02  0.43951685445E+02  0.00000000000E+00 0.  1.
          1   -1    0    0  501    0  0.00000000000E+00 -0.00000000000E+00 -0.33056428258E+03  0.33056428258E+03  0.00000000000E+00 0. -1.
         25    2    1    2    0    0  0.24711665405E+02  0.49215379801E+01 -0.23611318348E+03  0.26838774644E+03  0.12509060350E+03 0.  0.
         23    2    1    2    0    0 -0.24711665405E+02 -0.49215379801E+01 -0.50499413663E+02  0.10612822159E+03  0.89878366107E+02 0.  0.
          5    1    3    3  502    0 -0.27424364981E+02 -0.40138787174E+02 -0.49905836470E+02  0.69794576753E+02  0.41800000000E+01 0.  1.
         -5    1    3    3    0  502  0.52136030386E+02  0.45060325154E+02 -0.18620734701E+03  0.19859316969E+03  0.41800000000E+01 0.  1.
        -11    1    4    4    0    0 -0.44603941023E+02  0.28201870864E+02 -0.18371412835E+02  0.55878134225E+02  0.00000000000E+00 0. -1.
         11    1    4    4    0    0  0.19892275618E+02 -0.33123408844E+02 -0.32128000828E+02  0.50250087363E+02  0.00000000000E+00 0.  1.
</event>
<event>
 8    1  0.6380238E-009  0.1229109E+03  0.7561462E-02  0.1238371E+00
          2   -1    0    0  501    0  0.00000000000E+00  0.00000000000E+00  0.92852495751E+03  0.92852495751E+03  0.00000000000E+00 0. -1.
         -2   -1    0    0    0  501 -0.00000000000E+00 -0.00000000000E+00 -0.24650551671E+02  0.24650551671E+02  0.00000000000E+00 0.  1.
         25    2    1    2    0    0 -0.80282525579E+02 -0.60505615930E+02  0.53138095135E+03  0.55508433065E+03  0.12508671072E+03 0.  0.
         23    2    1    2    0    0  0.80282525579E+02  0.60505615930E+02  0.37249345449E+03  0.39809117854E+03  0.98076497276E+02 0.  0.
          5    1    3    3  502    0 -0.12553496047E+02 -0.64254224823E+02  0.10860418770E+03  0.12688001283E+03  0.41800000000E+01 0.  1.
         -5    1    3    3    0  502 -0.67729029532E+02  0.37486088931E+01  0.42277676365E+03  0.42820431782E+03  0.41800000000E+01 0.  1.
        -11    1    4    4    0    0  0.16455025168E+00  0.24365614634E+02  0.12233536269E+02  0.27264806306E+02  0.00000000000E+00 0.  1.
         11    1    4    4    0    0  0.80117975327E+02  0.36140001296E+02  0.36025991822E+03  0.37082637223E+03  0.00000000000E+00 0. -1.
</event>
<event>
 8    1  0.6380238E-009  0.2899623E+03  0.7561462E-02  0.1090369E+00
         -1   -1    0    0    0  501 -0.00000000000E+00  0.00000000000E+00  0.61970410197E+02  0.61970410197E+02  0.00000000000E+00 0.  1.
          1   -1    0    0  501    0  0.00000000000E+00 -0.00000000000E+00 -0.14991876991E+04  0.14991876991E+04  0.00000000000E+00 0. -1.
         25    2    1    2    0    0  0.20588838743E+03  0.19065512320E+03 -0.85680957023E+03  0.91022436132E+03  0.12508534778E+03 0.  0.
         23    2    1    2    0    0 -0.20588838743E+03 -0.19065512320E+03 -0.58040771872E+03  0.65093374802E+03  0.90012334054E+02 0.  0.
          5    1    3    3  502    0  0.95900335129E+02  0.15721405755E+03 -0.62278578440E+03  0.64945572583E+03  0.41800000000E+01 0. -1.
         -5    1    3    3    0  502  0.10998805230E+03  0.33441065646E+02 -0.23402378583E+03  0.26076863549E+03  0.41800000000E+01 0. -1.
        -11    1    4    4    0    0 -0.14658643288E+03 -0.13986341974E+03 -0.49685553216E+03  0.53657690811E+03  0.00000000000E+00 0. -1.
         11    1    4    4    0    0 -0.59301954550E+02 -0.50791703461E+02 -0.83552186558E+02  0.11435683990E+03  0.00000000000E+00 0.  1.
</event>
<event>
 8    1  0.6380238E-009  0.9969813E+02  0.7561462E-02  0.1280932E+00
          2   -1    0    0  501    0  0.00000000000E+00  0.00000000000E+00  0.23626760971E+02  0.23626760971E+02  0.00000000000E+00 0. -1.
         -2   -1    0    0    0  501 -0.00000000000E+00 -0.00000000000E+00 -0.52874902691E+03  0.52874902691E+03  0.00000000000E+00 0.  1.
         25    2    1    2    0    0 -0.15060753189E+02  0.43245817300E+01 -0.35118914250E+03  0.37312952166E+03  0.12508516232E+03 0.  0.
         23    2    1    2    0    0  0.15060753189E+02 -0.43245817300E+01 -0.15393312343E+03  0.17924626621E+03  0.90489166025E+02 0.  0.
          5    1    3    3  502    0  0.28399808455E+02 -0.46975003449E+02 -0.11460243282E+03  0.12713925466E+03  0.41800000000E+01 0. -1.
         -5    1    3    3    0  502 -0.43460561645E+02  0.51299585179E+02 -0.23658670969E+03  0.24599026700E+03  0.41800000000E+01 0. -1.
        -11    1    4    4    0    0  0.42091094927E+02  0.13961101504E+02 -0.13366676919E+03  0.14083102575E+03  0.00000000000E+00 0.  1.
         11    1    4    4    0    0 -0.27030341737E+02 -0.18285683235E+02 -0.20266354243E+02  0.38415240466E+02  0.00000000000E+00 0. -1.
</event>
<event>
 8    1  0.6380238E-009  0.1382560E+03  0.7561462E-02  0.1215695E+00
          2   -1    0    0  501    0  0.00000000000E+00  0.00000000000E+00  0.33110298588E+03  0.33110298588E+03  0.00000000000E+00 0. -1.
         -2   -1    0    0    0  501 -0.00000000000E+00 -0.00000000000E+00 -0.74668712974E+02  0.74668712974E+02  0.00000000000E+00 0.  1.
         25    2    1    2    0    0  0.62544681999E+02 -0.91317554629E+02  0.17095740434E+03  0.23901878115E+03  0.12511119300E+03 0.  0.
         23    2    1    2    0    0 -0.62544681999E+02  0.91317554629E+02  0.85476868572E+02  0.16675291771E+03  0.90826799315E+02 0.  0.
          5    1    3    3  502    0  0.74093599954E+02 -0.11558841096E+03  0.15643823624E+03  0.20818486127E+03  0.41800000000E+01 0.  1.
         -5    1    3    3    0  502 -0.11548917955E+02  0.24270856333E+02  0.14519168100E+02  0.30833919884E+02  0.41800000000E+01 0.  1.
        -11    1    4    4    0    0 -0.19425324418E+02  0.16016768401E+02 -0.18560327653E+02  0.31278840472E+02  0.00000000000E+00 0.  1.
         11    1    4    4    0    0 -0.43119357581E+02  0.75300786229E+02  0.10403719622E+03  0.13547407724E+03  0.00000000000E+00 0. -1.
</event>
<event>
 8    1  0.6380238E-009  0.3689147E+03  0.7561462E-02  0.1055109E+00
          2   -1    0    0  501    0  0.00000000000E+00  0.00000000000E+00  0.12815262972E+04  0.12815262972E+04  0.00000000000E+00 0. -1.
         -2   -1    0    0    0  501 -0.00000000000E+00 -0.00000000000E+00 -0.11557664004E+03  0.11557664004E+03  0.00000000000E+00 0.  1.
         25    2    1    2    0    0  0.57615317331E+02  0.34813154173E+03  0.39388195637E+03  0.54342047445E+03  0.12509085239E+03 0.  0.
         23    2    1    2    0    0 -0.57615317331E+02 -0.34813154173E+03  0.77206770081E+03  0.85368246281E+03  0.90388702467E+02 0.  0.
          5    1    3    3  502    0  0.95914365628E+02  0.21054732035E+03  0.24971870094E+03  0.34045064494E+03  0.41800000000E+01 0.  1.
         -5    1    3    3    0  502 -0.38299048297E+02  0.13758422138E+03  0.14416325544E+03  0.20296982951E+03  0.41800000000E+01 0.  1.
        -11    1    4    4    0    0 -0.81147420337E+02 -0.26406975649E+03  0.56313386476E+03  0.62724595635E+03  0.00000000000E+00 0.  1.
         11    1    4    4    0    0  0.23532103006E+02 -0.84061785240E+02  0.20893383605E+03  0.22643650646E+03  0.00000000000E+00 0. -1.
</event>
<event>
 8    1  0.6380238E-009  0.1129341E+03  0.7561462E-02  0.1255231E+00
         -1   -1    0    0    0  501 -0.00000000000E+00  0.00000000000E+00  0.54168576576E+03  0.54168576576E+03  0.00000000000E+00 0.  1.
          1   -1    0    0  501    0  0.00000000000E+00 -0.00000000000E+00 -0.41306290435E+02  0.41306290435E+02  0.00000000000E+00 0. -1.
         25    2    1    2    0    0  0.89476014700E+02 -0.45231927878E+01  0.37234749915E+03  0.40288507571E+03  0.12508919868E+03 0.  0.
         23    2    1    2    0    0 -0.89476014700E+02  0.45231927878E+01  0.12803197617E+03  0.18010698049E+03  0.89554011731E+02 0.  0.
          5    1    3    3  502    0  0.57920321475E+02  0.39984897492E+02  0.85291028619E+02  0.11065978326E+03  0.41800000000E+01 0. -1.
         -5    1    3    3    0  502  0.31555693224E+02 -0.44508090280E+02  0.28705647053E+03  0.29222529245E+03  0.41800000000E+01 0. -1.
        -11    1    4    4    0    0 -0.47803283194E+02  0.25292161825E+02  0.12446358508E+02  0.55495577969E+02  0.00000000000E+00 0. -1.
         11    1    4    4    0    0 -0.41672731505E+02 -0.20768969037E+02  0.11558561767E+03  0.12461140252E+03  0.00000000000E+00 0.  1.
</event>
<event>
 8    1  0.6380238E-009  0.1552010E+03  0.7561462E-02  0.1194224E+00
          2   -1    0    0  501    0  0.00000000000E+00  0.00000000000E+00  0.13106131347E+03  0.13106131347E+03  0.00000000000E+00 0. -1.
         -2   -1    0    0    0  501 -0.00000000000E+00 -0.00000000000E+00 -0.19332457746E+03  0.19332457746E+03  0.00000000000E+00 0.  1.
         25    2    1    2    0    0 -0.46758784075E+02  0.10610869999E+03 -0.34949882411E+02  0.17410877957E+03  0.12508770020E+03 0.  0.
         23    2    1    2    0    0  0.46758784075E+02 -0.10610869999E+03 -0.27313381586E+02  0.15027711136E+03  0.91606491498E+02 0.  0.
          5    1    3    3  502    0 -0.36856961126E+02  0.13301246220E+03 -0.14928171481E+02  0.13889230860E+03  0.41800000000E+01 0.  1.
         -5    1    3    3    0  502 -0.99018229491E+01 -0.26903762212E+02 -0.20021710930E+02  0.35216470968E+02  0.41800000000E+01 0.  1.
        -11    1    4    4    0    0  0.58476163430E+02 -0.28858846303E+02 -0.30690281203E+02  0.72070715688E+02  0.00000000000E+00 0.  1.
         11    1    4    4    0    0 -0.11717379355E+02 -0.77249853687E+02  0.33768996169E+01  0.78206395676E+02  0.00000000000E+00 0. -1.
</event>
<event>
 8    1  0.6380238E-009  0.6074524E+02  0.7561462E-02  0.1394731E+00
          2   -1    0    0  501    0  0.00000000000E+00  0.00000000000E+00  0.88020500811E+03  0.88020500811E+03  0.00000000000E+00 0. -1.
         -2   -1    0    0    0  501 -0.00000000000E+00 -0.00000000000E+00 -0.46607465135E+02  0.46607465135E+02  0.00000000000E+00 0.  1.
         25    2    1    2    0    0 -0.10938653093E+02  0.21436960348E+01  0.82595994237E+03  0.83545304986E+03  0.12509085719E+03 0.  0.
         23    2    1    2    0    0  0.10938653093E+02 -0.21436960348E+01  0.76376006063E+01  0.91359423389E+02  0.90354644235E+02 0.  0.
          5    1    3    3  502    0  0.12568168372E+02 -0.19084926035E+01  0.79939282441E+03  0.79950482258E+03  0.41800000000E+01 0.  1.
         -5    1    3    3    0  502 -0.23506821465E+02  0.40521886383E+01  0.26567117960E+02  0.35948227283E+02  0.41800000000E+01 0.  1.
        -11    1    4    4    0    0 -0.86821453670E+01 -0.40172249019E+02 -0.13986170043E+02  0.43414308608E+02  0.00000000000E+00 0. -1.
         11    1    4    4    0    0  0.19620798460E+02  0.38028552984E+02  0.21623770650E+02  0.47945114781E+02  0.00000000000E+00 0.  1.
</event>
<event>
 8    1  0.6380238E-009  0.1167141E+03  0.7561462E-02  0.1248618E+00
          2   -1    0    0  501    0  0.00000000000E+00  0.00000000000E+00  0.86066060790E+03  0.86066060790E+03  0.00000000000E+00 0. -1.
         -2   -1    0    0    0  501 -0.00000000000E+00 -0.00000000000E+00 -0.16910691952E+02  0.16910691952E+02  0.00000000000E+00 0.  1.
         25    2    1    2    0    0 -0.46286798206E+02 -0.18829872674E+02  0.39632888639E+03  0.41859435693E+03  0.12509043797E+03 0.  0.
         23    2    1    2    0    0  0.46286798206E+02  0.18829872674E+02  0.44742102956E+03  0.45897694293E+03  0.89315310295E+02 0.  0.
          5    1    3    3  502    0  0.12727459984E+02 -0.60421297782E+02  0.20074503985E+03  0.21006847666E+03  0.41800000000E+01 0.  1.
         -5    1    3    3    0  502 -0.59014258190E+02  0.41591425109E+02  0.19558384654E+03  0.20852588027E+03  0.41800000000E+01 0.  1.
        -11    1    4    4    0    0  0.48564031174E+02 -0.25486931280E+02  0.30186175338E+03  0.30680379226E+03  0.00000000000E+00 0. -1.
         11    1    4    4    0    0 -0.22772329682E+01  0.44316803953E+02  0.14555927618E+03  0.15217315067E+03  0.00000000000E+00 0.  1.
</event>
<event>
 8    1  0.6380238E-009  0.1295882E+03  0.7561462E-02  0.1228068E+00
         -1   -1    0    0    0  501 -0.00000000000E+00  0.00000000000E+00  0.42211946599E+03  0.42211946599E+03  0.00000000000E+00 0.  1.
          1   -1    0    0  501    0  0.00000000000E+00 -0.00000000000E+00 -0.76722246004E+02  0.76722246004E+02  0.00000000000E+00 0. -1.
         25    2    1    2    0    0  0.10175190807E+03  0.12456567870E+02  0.43656094623E+02  0.16751584180E+03  0.12508831191E+03 0.  0.
         23    2    1    2    0    0 -0.10175190807E+03 -0.12456567870E+02  0.30174112537E+03  0.33132587020E+03  0.90667020734E+02 0.  0.
          5    1    3    3  502    0  0.10412527729E+03  0.41737534268E+02  0.66135050978E+02  0.13028972525E+03  0.41800000000E+01 0. -1.
         -5    1    3    3    0  502 -0.23733692183E+01 -0.29280966398E+02 -0.22478956355E+02  0.37226116551E+02  0.41800000000E+01 0. -1.
        -11    1    4    4    0    0 -0.21726242784E+02 -0.28289756265E+02  0.18800617550E+03  0.19136003229E+03  0.00000000000E+00 0.  1.
         11    1    4    4    0    0 -0.80025665285E+02  0.15833188395E+02  0.11373494987E+03  0.13996583791E+03  0.00000000000E+00 0. -1.
</event>
<event>
 8    1  0.6380238E-009  0.1063114E+03  0.7561462E-02  0.1267557E+00
          4   -1    0    0  501    0  0.00000000000E+00  0.00000000000E+00  0.68826510374E+02  0.68826510374E+02  0.00000000000E+00 0. -1.
         -4   -1    0    0    0  501 -0.00000000000E+00 -0.00000000000E+00 -0.24599144765E+03  0.24599144765E+03  0.00000000000E+00 0.  1.
         25    2    1    2    0    0  0.26469116024E+02 -0.22742784988E+02 -0.17656146827E+03  0.21918092590E+03  0.12509387606E+03 0.  0.
         23    2    1    2    0    0 -0.26469116024E+02  0.22742784988E+02 -0.60346900748E+00  0.95637032129E+02  0.89040605162E+02 0.  0.
          5    1    3    3  502    0  0.58369832530E+02 -0.51947398977E+02 -0.14730263186E+03  0.16679660477E+03  0.41800000000E+01 0. -1.
         -5    1    3    3    0  502 -0.31900716507E+02  0.29204613989E+02 -0.29258836414E+02  0.52384321129E+02  0.41800000000E+01 0. -1.
        -11    1    4    4    0    0 -0.37832901717E+02 -0.22672231574E+02  0.14527910445E+02  0.46437255720E+02  0.00000000000E+00 0. -1.
         11    1    4    4    0    0  0.11363785693E+02  0.45415016562E+02 -0.15131379453E+02  0.49199776409E+02  0.00000000000E+00 0.  1.
</event>
<event>
 8    1  0.6380238E-009  0.1590153E+03  0.7561462E-02  0.1189813E+00
         -2   -1    0    0    0  501 -0.00000000000E+00  0.00000000000E+00  0.66803936172E+02  0.66803936172E+02  0.00000000000E+00 0. -1.
          2   -1    0    0  501    0  0.00000000000E+00 -0.00000000000E+00 -0.50243837472E+03  0.50243837472E+03  0.00000000000E+00 0.  1.
         25    2    1    2    0    0  0.13945567070E+03  0.35891682473E+02 -0.27427170560E+03  0.33407833541E+03  0.12508904324E+03 0.  0.
         23    2    1    2    0    0 -0.13945567070E+03 -0.35891682473E+02 -0.16136273295E+03  0.23516397548E+03  0.92347532812E+02 0.  0.
          5    1    3    3  502    0  0.11090077200E+03  0.45660491875E+02 -0.27856017635E+03  0.30331024710E+03  0.41800000000E+01 0.  1.
         -5    1    3    3    0  502  0.28554898700E+02 -0.97688094020E+01  0.42884707533E+01  0.30768088311E+02  0.41800000000E+01 0.  1.
        -11    1    4    4    0    0 -0.82420831333E+02 -0.63639747770E+02 -0.76467514234E+02  0.12919168575E+03  0.00000000000E+00 0. -1.
         11    1    4    4    0    0 -0.57034839366E+02  0.27748065298E+02 -0.84895218713E+02  0.10597228973E+03  0.00000000000E+00 0.  1.
</event>
<event>
 8    1  0.6380238E-009  0.1033191E+03  0.7561462E-02  0.1273467E+00
          2   -1    0    0  501    0  0.00000000000E+00  0.00000000000E+00  0.52992701457E+03  0.52992701457E+03  0.00000000000E+00 0. -1.
         -2   -1    0    0    0  501 -0.00000000000E+00 -0.00000000000E+00 -0.28667239297E+02  0.28667239297E+02  0.00000000000E+00 0.  1.
         25    2    1    2    0    0  0.54295821436E+02 -0.91840698663E+01  0.25806536292E+03  0.29202227168E+03  0.12508753835E+03 0.  0.
         23    2    1    2    0    0 -0.54295821436E+02  0.91840698663E+01  0.24319441235E+03  0.26657198219E+03  0.94258772137E+02 0.  0.
          5    1    3    3  502    0  0.18153899891E+02  0.36295659012E+02  0.17301823066E+02  0.44314381704E+02  0.41800000000E+01 0. -1.
         -5    1    3    3    0  502  0.36141921545E+02 -0.45479728878E+02  0.24076353985E+03  0.24770788997E+03  0.41800000000E+01 0. -1.
        -11    1    4    4    0    0 -0.49572458558E+02 -0.36569964922E+02  0.16099653152E+03  0.17237944814E+03  0.00000000000E+00 0.  1.
         11    1    4    4    0    0 -0.47233628785E+01  0.45754034788E+02  0.82197880834E+02  0.94192534046E+02  0.00000000000E+00 0. -1.
</event>
<event>
 8    1  0.6380238E-009  0.1065516E+03  0.7561462E-02  0.1267092E+00
         -2   -1    0    0    0  501 -0.00000000000E+00  0.00000000000E+00  0.36387030325E+03  0.36387030325E+03  0.00000000000E+00 0.  1.
          2   -1    0    0  501    0  0.00000000000E+00 -0.00000000000E+00 -0.47968493789E+02  0.47968493789E+02  0.00000000000E+00 0. -1.
         25    2    1    2    0    0  0.36412301627E+02  0.62630506911E+02  0.22005257502E+03  0.26328776044E+03  0.12509545523E+03 0.  0.
         23    2    1    2    0    0 -0.36412301627E+02 -0.62630506911E+02  0.95849234440E+02  0.14855103660E+03  0.87360738470E+02 0.  0.
          5    1    3    3  502    0  0.75257116147E+02  0.42574672521E+02  0.85185658289E+02  0.12145083388E+03  0.41800000000E+01 0.  1.
         -5    1    3    3    0  502 -0.38844814520E+02  0.20055834390E+02  0.13486691673E+03  0.14183692656E+03  0.41800000000E+01 0.  1.
        -11    1    4    4    0    0  0.76860983858E+01 -0.19399140874E+02 -0.12147594917E+02  0.24144706196E+02  0.00000000000E+00 0. -1.
         11    1    4    4    0    0 -0.44098400013E+02 -0.43231366037E+02  0.10799682936E+03  0.12440633040E+03  0.00000000000E+00 0.  1.
</event>
<event>
 8    1  0.6380238E-009  0.1774865E+03  0.7561462E-02  0.1170258E+00
          1   -1    0    0  501    0  0.00000000000E+00  0.00000000000E+00  0.19615596183E+03  0.19615596183E+03  0.00000000000E+00 0. -1.
         -1   -1    0    0    0  501 -0.00000000000E+00 -0.00000000000E+00 -0.21864753722E+03  0.21864753722E+03  0.00000000000E+00 0.  1.
         25    2    1    2    0    0  0.51769190805E+02 -0.16382387302E+03  0.24192664866E+02  0.21388877799E+03  0.12507923020E+03 0.  0.
         23    2    1    2    0    0 -0.51769190805E+02  0.16382387302E+03 -0.46684240249E+02  0.20091472106E+03  0.93107445262E+02 0.  0.
          5    1    3    3  502    0  0.49450209833E+02 -0.64311191970E+02 -0.44740399489E+02  0.92738494766E+02  0.41800000000E+01 0.  1.
         -5    1    3    3    0  502  0.23189809719E+01 -0.99512681053E+02  0.68933064355E+02  0.12115028322E+03  0.41800000000E+01 0.  1.
        -11    1    4    4    0    0 -0.29704218811E+02  0.49899531033E+02 -0.60729880299E+02  0.84026318339E+02  0.00000000000E+00 0. -1.
         11    1    4    4    0    0 -0.22064971994E+02  0.11392434199E+03  0.14045640050E+02  0.11688840272E+03  0.00000000000E+00 0.  1.
</event>
<event>
 8    1  0.6380238E-009  0.1081892E+03  0.7561462E-02  0.1263960E+00
          2   -1    0    0  501    0  0.00000000000E+00  0.00000000000E+00  0.30783643550E+03  0.30783643550E+03  0.00000000000E+00 0. -1.
         -2   -1    0    0    0  501 -0.00000000000E+00 -0.00000000000E+00 -0.16334417652E+03  0.16334417652E+03  0.00000000000E+00 0.  1.
         25    2    1    2    0    0  0.38262923294E+02  0.19241158981E+02  0.27533768486E+03  0.30543838698E+03  0.12508994380E+03 0.  0.
         23    2    1    2    0    0 -0.38262923294E+02 -0.19241158981E+02 -0.13084542589E+03  0.16574222504E+03  0.92280475656E+02 0.  0.
          5    1    3    3  502    0  0.50675137336E+02  0.56002977408E+02  0.97675678974E+02  0.12354073695E+03  0.41800000000E+01 0.  1.
         -5    1    3    3    0  502 -0.12412214042E+02 -0.36761818427E+02  0.17766200589E+03  0.18189765004E+03  0.41800000000E+01 0.  1.
        -11    1    4    4    0    0  0.30461364590E+02 -0.45396130650E+00 -0.40854293451E+02  0.50962477441E+02  0.00000000000E+00 0.  1.
         11    1    4    4    0    0 -0.68724287884E+02 -0.18787197674E+02 -0.89991132439E+02  0.11477974760E+03  0.00000000000E+00 0. -1.
</event>
<event>
 8    1  0.6380238E-009  0.1845319E+03  0.7561462E-02  0.1163488E+00
         -1   -1    0    0    0  501 -0.00000000000E+00  0.00000000000E+00  0.28556886368E+02  0.28556886368E+02  0.00000000000E+00 0.  1.
          1   -1    0    0  501    0  0.00000000000E+00 -0.00000000000E+00 -0.13302000291E+04  0.13302000291E+04  0.00000000000E+00 0. -1.
         25    2    1    2    0    0 -0.13929818224E+03 -0.76970489173E+02 -0.78338149720E+03  0.80911280788E+03  0.12509406841E+03 0.  0.
         23    2    1    2    0    0  0.13929818224E+03  0.76970489173E+02 -0.51826164553E+03  0.54964410758E+03  0.90471387702E+02 0.  0.
          5    1    3    3  502    0 -0.11735709516E+03 -0.96868589257E+01 -0.33403377187E+03  0.35420693975E+03  0.41800000000E+01 0.  1.
         -5    1    3    3    0  502 -0.21941087078E+02 -0.67283630247E+02 -0.44934772533E+03  0.45490586813E+03  0.41800000000E+01 0.  1.
        -11    1    4    4    0    0  0.66508527675E+02 -0.96399153096E+01 -0.14932987297E+03  0.16375507071E+03  0.00000000000E+00 0.  1.
         11    1    4    4    0    0  0.72789654562E+02  0.86610404483E+02 -0.36893177256E+03  0.38588903687E+03  0.00000000000E+00 0. -1.
</event>
<event>
 8    1  0.6380238E-009  0.9450902E+02  0.7561462E-02  0.1292286E+00
         -1   -1    0    0    0  501 -0.00000000000E+00  0.00000000000E+00  0.38810946015E+02  0.38810946015E+02  0.00000000000E+00 0.  1.
          1   -1    0    0  501    0  0.00000000000E+00 -0.00000000000E+00 -0.35732739655E+03  0.35732739655E+03  0.00000000000E+00 0. -1.
         25    2    1    2    0    0 -0.22036059969E+02 -0.32193978133E+02 -0.16987452282E+03  0.21454595585E+03  0.12510225219E+03 0.  0.
         23    2    1    2    0    0  0.22036059969E+02  0.32193978133E+02 -0.14864192772E+03  0.18159238672E+03  0.96743640977E+02 0.  0.
          5    1    3    3  502    0 -0.64303963213E+02 -0.19253881260E+02 -0.15285106256E+03  0.16699290810E+03  0.41800000000E+01 0.  1.
         -5    1    3    3    0  502  0.42267903245E+02 -0.12940096873E+02 -0.17023460256E+02  0.47553047756E+02  0.41800000000E+01 0.  1.
        -11    1    4    4    0    0  0.46172624226E+02  0.19965550356E+02 -0.14597993041E+03  0.15440425678E+03  0.00000000000E+00 0. -1.
         11    1    4    4    0    0 -0.24136564257E+02  0.12228427777E+02 -0.26619973170E+01  0.27188129942E+02  0.00000000000E+00 0.  1.
</event>
<event>
 8    1  0.6380238E-009  0.1760748E+03  0.7561462E-02  0.1171657E+00
          2   -1    0    0  501    0  0.00000000000E+00  0.00000000000E+00  0.65522300504E+02  0.65522300504E+02  0.00000000000E+00 0. -1.
         -2   -1    0    0    0  501 -0.00000000000E+00 -0.00000000000E+00 -0.79030092681E+03  0.79030092681E+03  0.00000000000E+00 0.  1.
         25    2    1    2    0    0 -0.10390272140E+03 -0.12204361636E+03 -0.60166323796E+03  0.63508742067E+03  0.12508780985E+03 0.  0.
         23    2    1    2    0    0  0.10390272140E+03  0.12204361636E+03 -0.12311538834E+03  0.22073580664E+03  0.88749522126E+02 0.  0.
          5    1    3    3  502    0 -0.96287830405E+02 -0.47870332973E+02 -0.20575348370E+03  0.23219578704E+03  0.41800000000E+01 0.  1.
         -5    1    3    3    0  502 -0.76148909928E+01 -0.74173283391E+02 -0.39590975426E+03  0.40289163363E+03  0.41800000000E+01 0.  1.
        -11    1    4    4    0    0  0.89393750306E+01  0.49645603567E+02 -0.78397423797E+02  0.93224215939E+02  0.00000000000E+00 0. -1.
         11    1    4    4    0    0  0.94963346368E+02  0.72398012797E+02 -0.44717964546E+02  0.12751159070E+03  0.00000000000E+00 0.  1.
</event>
<event>
 8    1  0.6380238E-009  0.1020550E+03  0.7561462E-02  0.1276033E+00
         -1   -1    0    0    0  501 -0.00000000000E+00  0.00000000000E+00  0.36324101014E+02  0.36324101014E+02  0.00000000000E+00 0.  1.
          1   -1    0    0  501    0  0.00000000000E+00 -0.00000000000E+00 -0.41167840254E+03  0.41167840254E+03  0.00000000000E+00 0. -1.
         25    2    1    2    0    0  0.26601104994E+02  0.50012269795E+02 -0.21830390954E+03  0.25790185883E+03  0.12509167018E+03 0.  0.
         23    2    1    2    0    0 -0.26601104994E+02 -0.50012269795E+02 -0.15705039198E+03  0.19010064472E+03  0.90909755172E+02 0.  0.
          5    1    3    3  502    0  0.76143175937E+02  0.27949546002E+02 -0.15009378708E+03  0.17065924435E+03  0.41800000000E+01 0. -1.
         -5    1    3    3    0  502 -0.49542070942E+02  0.22062723794E+02 -0.68210122469E+02  0.87242614482E+02  0.41800000000E+01 0. -1.
        -11    1    4    4    0    0 -0.36244192429E+02 -0.33384725512E+02 -0.16275455693E+03  0.17005066064E+03  0.00000000000E+00 0. -1.
         11    1    4    4    0    0  0.96430874348E+01 -0.16627544283E+02  0.57041649453E+01  0.20049984087E+02  0.00000000000E+00 0.  1.
</event>
<event>
 8    1  0.6380238E-009  0.1193251E+03  0.7561462E-02  0.1244215E+00
          1   -1    0    0  501    0  0.00000000000E+00  0.00000000000E+00  0.74471527412E+03  0.74471527412E+03  0.00000000000E+00 0. -1.
         -1   -1    0    0    0  501 -0.00000000000E+00 -0.00000000000E+00 -0.23675960929E+02  0.23675960929E+02  0.00000000000E+00 0.  1.
         25    2    1    2    0    0  0.18319584703E+02 -0.73654104533E+02  0.43269879511E+03  0.45676839565E+03  0.12509430715E+03 0.  0.
         23    2    1    2    0    0 -0.18319584703E+02  0.73654104533E+02  0.28834051808E+03  0.31162283939E+03  0.90598042840E+02 0.  0.
          5    1    3    3  502    0 -0.50277495335E+02 -0.48214929816E+02  0.25916224393E+03  0.26839345572E+03  0.41800000000E+01 0.  1.
         -5    1    3    3    0  502  0.68597080037E+02 -0.25439174718E+02  0.17353655118E+03  0.18837493993E+03  0.41800000000E+01 0.  1.
        -11    1    4    4    0    0  0.21265314372E+02  0.27949229508E+02  0.29655412611E+02  0.45965383960E+02  0.00000000000E+00 0.  1.
         11    1    4    4    0    0 -0.39584899075E+02  0.45704875026E+02  0.25868510547E+03  0.26565745543E+03  0.00000000000E+00 0. -1.
</event>
<event>
 8    1  0.6380238E-009  0.1125239E+03  0.7561462E-02  0.1255966E+00
         -2   -1    0    0    0  501 -0.00000000000E+00  0.00000000000E+00  0.48556651485E+02  0.48556651485E+02  0.00000000000E+00 0.  1.
          2   -1    0    0  501    0  0.00000000000E+00 -0.00000000000E+00 -0.27296165721E+03  0.27296165721E+03  0.00000000000E+00 0. -1.
         25    2    1    2    0    0  0.10235538637E+02  0.36089346631E+02 -0.11588397703E+03  0.17459681525E+03  0.12509094520E+03 0.  0.
         23    2    1    2    0    0 -0.10235538637E+02 -0.36089346631E+02 -0.10852102870E+03  0.14692149345E+03  0.91661902536E+02 0.  0.
          5    1    3    3  502    0  0.65781700105E+02  0.29890917980E+02 -0.49333697093E+02  0.87589868793E+02  0.41800000000E+01 0. -1.
         -5    1    3    3    0  502 -0.55546161468E+02  0.61984286507E+01 -0.66550279935E+02  0.87006946452E+02  0.41800000000E+01 0. -1.
        -11    1    4    4    0    0  0.23858341864E+02 -0.53327644770E+02 -0.49281075259E+02  0.76430900505E+02  0.00000000000E+00 0. -1.
         11    1    4    4    0    0 -0.34093880501E+02  0.17238298140E+02 -0.59239953438E+02  0.70490592945E+02  0.00000000000E+00 0.  1.
</event>
<event>
 8    1  0.6380238E-009  0.1119232E+03  0.7561462E-02  0.1257049E+00
          2   -1    0    0  501    0  0.00000000000E+00  0.00000000000E+00  0.25512889884E+02  0.25512889884E+02  0.00000000000E+00 0.  1.
         -2   -1    0    0    0  501 -0.00000000000E+00 -0.00000000000E+00 -0.54303070001E+03  0.54303070001E+03  0.00000000000E+00 0. -1.
         25    2    1    2    0    0 -0.31968078037E+02  0.23521509864E+02 -0.22940540285E+03  0.26429132506E+03  0.12509135146E+03 0.  0.
         23    2    1    2    0    0  0.31968078037E+02 -0.23521509864E+02 -0.28811240728E+03  0.30425226483E+03  0.89361412177E+02 0.  0.
          5    1    3    3  502    0  0.30188865705E+02 -0.34536120266E+02 -0.82707774383E+02  0.94668683095E+02  0.41800000000E+01 0.  1.
         -5    1    3    3    0  502 -0.62156943742E+02  0.58057630130E+02 -0.14669762846E+03  0.16962264197E+03  0.41800000000E+01 0.  1.
        -11    1    4    4    0    0  0.23080574035E+02  0.30293989071E+02 -0.16910634436E+03  0.17334184254E+03  0.00000000000E+00 0. -1.
         11    1    4    4    0    0  0.88875040012E+01 -0.53815498935E+02 -0.11900606291E+03  0.13091042228E+03  0.00000000000E+00 0.  1.
</event>
<event>
 8    1  0.6380238E-009  0.1089207E+03  0.7561462E-02  0.1262582E+00
         -1   -1    0    0    0  501 -0.00000000000E+00  0.00000000000E+00  0.20021061025E+02  0.20021061025E+02  0.00000000000E+00 0.  1.
          1   -1    0    0  501    0  0.00000000000E+00 -0.00000000000E+00 -0.67792898563E+03  0.67792898563E+03  0.00000000000E+00 0. -1.
         25    2    1    2    0    0 -0.12207103065E+02 -0.10437074261E+02 -0.48501673628E+03  0.50115655865E+03  0.12513479102E+03 0.  0.
         23    2    1    2    0    0  0.12207103065E+02  0.10437074261E+02 -0.17289118833E+03  0.19679348801E+03  0.92619479782E+02 0.  0.
          5    1    3    3  502    0 -0.40741105412E+02  0.46383714194E+02 -0.21531449748E+03  0.22402922094E+03  0.41800000000E+01 0.  1.
         -5    1    3    3    0  502  0.28534002347E+02 -0.56820788456E+02 -0.26970223880E+03  0.27712733771E+03  0.41800000000E+01 0.  1.
        -11    1    4    4    0    0  0.12672136052E+02 -0.39921045536E+02 -0.97656636598E+02  0.10625954819E+03  0.00000000000E+00 0. -1.
         11    1    4    4    0    0 -0.46503298725E+00  0.50358119798E+02 -0.75234551731E+02  0.90533939821E+02  0.00000000000E+00 0.  1.
</event>
<event>
 8    1  0.6380238E-009  0.1570779E+03  0.7561462E-02  0.1192036E+00
          1   -1    0    0  501    0  0.00000000000E+00  0.00000000000E+00  0.31472853029E+04  0.31472853029E+04  0.00000000000E+00 0. -1.
         -1   -1    0    0    0  501 -0.00000000000E+00 -0.00000000000E+00 -0.18314103542E+02  0.18314103542E+02  0.00000000000E+00 0.  1.
         25    2    1    2    0    0 -0.11780427699E+03  0.19820139096E+02  0.27926662287E+04  0.27980177126E+04  0.12509104420E+03 0.  0.
         23    2    1    2    0    0  0.11780427699E+03 -0.19820139096E+02  0.33630497066E+03  0.36758169388E+03  0.88003311247E+02 0.  0.
          5    1    3    3  502    0 -0.75942187853E+02  0.72692876113E+02  0.16354586376E+04  0.16388391922E+04  0.41800000000E+01 0.  1.
         -5    1    3    3    0  502 -0.41862089138E+02 -0.52872737017E+02  0.11572075911E+04  0.11591785204E+04  0.41800000000E+01 0.  1.
        -11    1    4    4    0    0  0.81506265160E+02  0.23533764363E+02  0.14395495617E+03  0.16709320373E+03  0.00000000000E+00 0.  1.
         11    1    4    4    0    0  0.36298011831E+02 -0.43353903459E+02  0.19235001449E+03  0.20048849015E+03  0.00000000000E+00 0. -1.
</event>
<event>
 8    1  0.6380238E-009  0.1008242E+03  0.7561462E-02  0.1278572E+00
          4   -1    0    0  501    0  0.00000000000E+00  0.00000000000E+00  0.40250092222E+03  0.40250092222E+03  0.00000000000E+00 0. -1.
         -4   -1    0    0    0  501 -0.00000000000E+00 -0.00000000000E+00 -0.42462553722E+02  0.42462553722E+02  0.00000000000E+00 0.  1.
         25    2    1    2    0    0  0.95119143320E+01  0.14496262994E+02  0.77293819242E+02  0.14806449611E+03  0.12509253519E+03 0.  0.
         23    2    1    2    0    0 -0.95119143320E+01 -0.14496262994E+02  0.28274454925E+03  0.29689897983E+03  0.88903914064E+02 0.  0.
          5    1    3    3  502    0 -0.45801542615E+02 -0.14850987756E+02 -0.22084182146E+00  0.48330676742E+02  0.41800000000E+01 0.  1.
         -5    1    3    3    0  502  0.55313456947E+02  0.29347250750E+02  0.77514661063E+02  0.99733819368E+02  0.41800000000E+01 0.  1.
        -11    1    4    4    0    0  0.27543805772E+02 -0.37812908633E+02  0.14888351068E+03  0.15606017124E+03  0.00000000000E+00 0. -1.
         11    1    4    4    0    0 -0.37055720104E+02  0.23316645639E+02  0.13386103858E+03  0.14083880859E+03  0.00000000000E+00 0.  1.
</event>
<event>
 8    1  0.6380238E-009  0.5686022E+02  0.7561462E-02  0.1411501E+00
         -3   -1    0    0    0  501 -0.00000000000E+00  0.00000000000E+00  0.40580009815E+03  0.40580009815E+03  0.00000000000E+00 0.  1.
          3   -1    0    0  501    0  0.00000000000E+00 -0.00000000000E+00 -0.68328126374E+02  0.68328126374E+02  0.00000000000E+00 0. -1.
         25    2    1    2    0    0 -0.19516137362E+02  0.38534516331E+02  0.34812176969E+03  0.37242739983E+03  0.12509041946E+03 0.  0.
         23    2    1    2    0    0  0.19516137362E+02 -0.38534516331E+02 -0.10649797913E+02  0.10170082470E+03  0.91454092215E+02 0.  0.
          5    1    3    3  502    0  0.13001202676E+02  0.10236765901E+01 -0.59041193751E+01  0.14913423831E+02  0.41800000000E+01 0. -1.
         -5    1    3    3    0  502 -0.32517340038E+02  0.37510839741E+02  0.35402588907E+03  0.35751397599E+03  0.41800000000E+01 0. -1.
        -11    1    4    4    0    0  0.24245374363E+02 -0.21096534906E+02  0.38021041181E+02  0.49784551174E+02  0.00000000000E+00 0.  1.
         11    1    4    4    0    0 -0.47292370013E+01 -0.17437981425E+02 -0.48670839095E+02  0.51916273527E+02  0.00000000000E+00 0. -1.
</event>
<event>
 8    1  0.6380238E-009  0.6935150E+02  0.7561462E-02  0.1362312E+00
         -1   -1    0    0    0  501 -0.00000000000E+00  0.00000000000E+00  0.30899578506E+02  0.30899578506E+02  0.00000000000E+00 0.  1.
          1   -1    0    0  501    0  0.00000000000E+00 -0.00000000000E+00 -0.38260497139E+03  0.38260497139E+03  0.00000000000E+00 0. -1.
         25    2    1    2    0    0 -0.16259677631E+02 -0.11205542180E+02 -0.17587737718E+03  0.21672411450E+03  0.12508616514E+03 0.  0.
         23    2    1    2    0    0  0.16259677631E+02  0.11205542180E+02 -0.17582801571E+03  0.19678043540E+03  0.86122629763E+02 0.  0.
          5    1    3    3  502    0 -0.29603194255E+02  0.17152422936E+02  0.34414412773E+01  0.34639148961E+02  0.41800000000E+01 0. -1.
         -5    1    3    3    0  502  0.13343516625E+02 -0.28357965116E+02 -0.17931881846E+03  0.18208496554E+03  0.41800000000E+01 0. -1.
        -11    1    4    4    0    0  0.17155543150E+02 -0.28304156162E+02 -0.26758163684E+02  0.42560982608E+02  0.00000000000E+00 0.  1.
         11    1    4    4    0    0 -0.89586551914E+00  0.39509698342E+02 -0.14906985202E+03  0.15421945279E+03  0.00000000000E+00 0. -1.
</event>
<event>
 8    1  0.6380238E-009  0.1021629E+03  0.7561462E-02  0.1275812E+00
         -1   -1    0    0    0  501 -0.00000000000E+00  0.00000000000E+00  0.98738961585E+02  0.98738961585E+02  0.00000000000E+00 0.  1.
          1   -1    0    0  501    0  0.00000000000E+00 -0.00000000000E+00 -0.16808189152E+03  0.16808189152E+03  0.00000000000E+00 0. -1.
         25    2    1    2    0    0 -0.65541225104E+02  0.19570363870E+02 -0.39847171681E+02  0.14803328530E+03  0.12508958844E+03 0.  0.
         23    2    1    2    0    0  0.65541225104E+02 -0.19570363870E+02 -0.29495758259E+02  0.11878756781E+03  0.92530185244E+02 0.  0.
          5    1    3    3  502    0  0.32964844067E+02 -0.60791588705E+01  0.91342534887E+01  0.34993486590E+02  0.41800000000E+01 0. -1.
         -5    1    3    3    0  502 -0.98506069170E+02  0.25649522740E+02 -0.48981425170E+02  0.11303979871E+03  0.41800000000E+01 0. -1.
        -11    1    4    4    0    0  0.54374331429E+02 -0.13794954635E+02  0.26040289570E+02  0.61846304438E+02  0.00000000000E+00 0.  1.
         11    1    4    4    0    0  0.11166893675E+02 -0.57754092350E+01 -0.55536047829E+02  0.56941263374E+02  0.00000000000E+00 0. -1.
</event>
<event>
 8    1  0.6380238E-009  0.1111815E+03  0.7561462E-02  0.1258398E+00
         -1   -1    0    0    0  501 -0.00000000000E+00  0.00000000000E+00  0.20617727723E+02  0.20617727723E+02  0.00000000000E+00 0.  1.
          1   -1    0    0  501    0  0.00000000000E+00 -0.00000000000E+00 -0.65589992328E+03  0.65589992328E+03  0.00000000000E+00 0. -1.
         25    2    1    2    0    0 -0.14585366652E+02 -0.21905348413E+02 -0.45858726520E+03  0.47607009188E+03  0.12509146800E+03 0.  0.
         23    2    1    2    0    0  0.14585366652E+02  0.21905348413E+02 -0.17669493036E+03  0.20044755913E+03  0.90915061105E+02 0.  0.
          5    1    3    3  502    0  0.27627240288E+02  0.42377743473E+02 -0.18885699867E+03  0.19555964792E+03  0.41800000000E+01 0. -1.
         -5    1    3    3    0  502 -0.42212606940E+02 -0.64283091886E+02 -0.26973026653E+03  0.28051044396E+03  0.41800000000E+01 0. -1.
        -11    1    4    4    0    0 -0.13315300486E+01  0.56494100450E+02 -0.10197815607E+03  0.11658859581E+03  0.00000000000E+00 0. -1.
         11    1    4    4    0    0  0.15916896700E+02 -0.34588752037E+02 -0.74716774291E+02  0.83858963317E+02  0.00000000000E+00 0.  1.
</event>
<event>
 8    1  0.6380238E-009  0.1885509E+03  0.7561462E-02  0.1159775E+00
          1   -1    0    0  501    0  0.00000000000E+00  0.00000000000E+00  0.11864484708E+04  0.11864484708E+04  0.00000000000E+00 0. -1.
         -1   -1    0    0    0  501 -0.00000000000E+00 -0.00000000000E+00 -0.40733585323E+02  0.40733585323E+02  0.00000000000E+00 0.  1.
         25    2    1    2    0    0  0.68366393329E+02 -0.13785823653E+03  0.28030938972E+03  0.34336147331E+03  0.12507953580E+03 0.  0.
         23    2    1    2    0    0 -0.68366393329E+02  0.13785823653E+03  0.86540549572E+03  0.88382058277E+03  0.92375826865E+02 0.  0.
          5    1    3    3  502    0  0.26917655577E+02  0.20438065779E+02  0.39029659288E+02  0.51798276213E+02  0.41800000000E+01 0. -1.
         -5    1    3    3    0  502  0.41448737753E+02 -0.15829630231E+03  0.24127973043E+03  0.29156319710E+03  0.41800000000E+01 0. -1.
        -11    1    4    4    0    0 -0.91288660459E+02  0.10290112569E+03  0.64991966916E+03  0.66431757283E+03  0.00000000000E+00 0.  1.
         11    1    4    4    0    0  0.22922267130E+02  0.34957110839E+02  0.21548582655E+03  0.21950300994E+03  0.00000000000E+00 0. -1.
</event>
<event>
 8    1  0.6380238E-009  0.1499672E+03  0.7561462E-02  0.1200513E+00
         -1   -1    0    0    0  501 -0.00000000000E+00  0.00000000000E+00  0.46845356885E+02  0.46845356885E+02  0.00000000000E+00 0.  1.
          1   -1    0    0  501    0  0.00000000000E+00 -0.00000000000E+00 -0.48308827377E+03  0.48308827377E+03  0.00000000000E+00 0. -1.
         25    2    1    2    0    0  0.72950895935E+02  0.71357255397E+02 -0.23304754247E+03  0.28350292658E+03  0.12509620782E+03 0.  0.
         23    2    1    2    0    0 -0.72950895935E+02 -0.71357255397E+02 -0.20319537441E+03  0.24643070407E+03  0.95005476754E+02 0.  0.
          5    1    3    3  502    0  0.76974933214E+01  0.92341632979E+02 -0.13222316183E+03  0.16151366973E+03  0.41800000000E+01 0.  1.
         -5    1    3    3    0  502  0.65253402613E+02 -0.20984377582E+02 -0.10082438064E+03  0.12198925685E+03  0.41800000000E+01 0.  1.
        -11    1    4    4    0    0 -0.77719438990E+02 -0.11624867541E+02 -0.12911046108E+03  0.15114549250E+03  0.00000000000E+00 0.  1.
         11    1    4    4    0    0  0.47685430547E+01 -0.59732387856E+02 -0.74084913326E+02  0.95285211573E+02  0.00000000000E+00 0. -1.
</event>
<event>
 8    1  0.6380238E-009  0.3775958E+03  0.7561462E-02  0.1051826E+00
         -2   -1    0    0    0  501 -0.00000000000E+00  0.00000000000E+00  0.86184234378E+02  0.86184234378E+02  0.00000000000E+00 0.  1.
          2   -1    0    0  501    0  0.00000000000E+00 -0.00000000000E+00 -0.17990760277E+04  0.17990760277E+04  0.00000000000E+00 0. -1.
         25    2    1    2    0    0  0.33118496545E+03 -0.16680818542E+03 -0.10392150606E+04  0.11104609716E+04  0.12508866953E+03 0.  0.
         23    2    1    2    0    0 -0.33118496545E+03  0.16680818542E+03 -0.67367673273E+03  0.77479929047E+03  0.94684466665E+02 0.  0.
          5    1    3    3  502    0  0.17903310828E+03 -0.61053181184E+02 -0.36356104269E+03  0.40984686037E+03  0.41800000000E+01 0. -1.
         -5    1    3    3    0  502  0.15215185717E+03 -0.10575500423E+03 -0.67565401791E+03  0.70061411124E+03  0.41800000000E+01 0. -1.
        -11    1    4    4    0    0 -0.22664268467E+03  0.67564730712E+02 -0.45675090986E+03  0.51434744387E+03  0.00000000000E+00 0.  1.
         11    1    4    4    0    0 -0.10454228078E+03  0.99243454705E+02 -0.21692582286E+03  0.26045184660E+03  0.00000000000E+00 0. -1.
</event>
<event>
 8    1  0.6380238E-009  0.1001148E+03  0.7561462E-02  0.1280055E+00
         -1   -1    0    0    0  501 -0.00000000000E+00  0.00000000000E+00  0.15298053802E+02  0.15298053802E+02  0.00000000000E+00 0.  1.
          1   -1    0    0  501    0  0.00000000000E+00 -0.00000000000E+00 -0.92360251011E+03  0.92360251011E+03  0.00000000000E+00 0. -1.
         25    2    1    2    0    0  0.28505298989E+02 -0.22478479561E+02 -0.64504655223E+03  0.65806563220E+03  0.12508991820E+03 0.  0.
         23    2    1    2    0    0 -0.28505298989E+02  0.22478479561E+02 -0.26325790408E+03  0.28083493171E+03  0.90805840629E+02 0.  0.
          5    1    3    3  502    0  0.69032722748E+02 -0.31225009682E+02 -0.53570848224E+03  0.54105597527E+03  0.41800000000E+01 0. -1.
         -5    1    3    3    0  502 -0.40527423759E+02  0.87465301206E+01 -0.10933806999E+03  0.11700965693E+03  0.41800000000E+01 0. -1.
        -11    1    4    4    0    0 -0.52030715223E+02  0.29694811360E+01 -0.83004643642E+02  0.98009101674E+02  0.00000000000E+00 0.  1.
         11    1    4    4    0    0  0.23525416234E+02  0.19508998425E+02 -0.18025326044E+03  0.18282583003E+03  0.00000000000E+00 0. -1.
</event>
<event>
 8    1  0.6380238E-009  0.1672169E+03  0.7561462E-02  0.1180782E+00
         -1   -1    0    0    0  501 -0.00000000000E+00  0.00000000000E+00  0.10476329833E+04  0.10476329833E+04  0.00000000000E+00 0.  1.
          1   -1    0    0  501    0  0.00000000000E+00 -0.00000000000E+00 -0.36653960167E+02  0.36653960167E+02  0.00000000000E+00 0. -1.
         25    2    1    2    0    0 -0.14663292806E+03  0.71111694984E+02  0.57415919954E+03  0.60980730364E+03  0.12509225556E+03 0.  0.
         23    2    1    2    0    0  0.14663292806E+03 -0.71111694984E+02  0.43681982361E+03  0.47447963984E+03  0.88098136042E+02 0.  0.
          5    1    3    3  502    0 -0.10766592409E+03  0.24647521457E+02  0.50832404278E+03  0.52020213032E+03  0.41800000000E+01 0.  1.
         -5    1    3    3    0  502 -0.38967003969E+02  0.46464173526E+02  0.65835156765E+02  0.89605173322E+02  0.41800000000E+01 0.  1.
        -11    1    4    4    0    0  0.93296548970E+02 -0.41458407361E+02  0.37070283259E+03  0.38450440268E+03  0.00000000000E+00 0.  1.
         11    1    4    4    0    0  0.53336379088E+02 -0.29653287623E+02  0.66116991017E+02  0.89975237161E+02  0.00000000000E+00 0. -1.
</event>
<event>
 8    1  0.6380238E-009  0.1273389E+03  0.7561462E-02  0.1231459E+00
         -2   -1    0    0    0  501 -0.00000000000E+00  0.00000000000E+00  0.16774205181E+02  0.16774205181E+02  0.00000000000E+00 0.  1.
          2   -1    0    0  501    0  0.00000000000E+00 -0.00000000000E+00 -0.13018871937E+04  0.13018871937E+04  0.00000000000E+00 0. -1.
         25    2    1    2    0    0 -0.44113460750E+02 -0.69876758964E+02 -0.94498213531E+03  0.95680124111E+03  0.12509444460E+03 0.  0.
         23    2    1    2    0    0  0.44113460750E+02  0.69876758964E+02 -0.34013085320E+03  0.36186015776E+03  0.91787894708E+02 0.  0.
          5    1    3    3  502    0  0.15573576056E+02  0.19405863584E+02 -0.56950188628E+02  0.62289005429E+02  0.41800000000E+01 0.  1.
         -5    1    3    3    0  502 -0.59687036806E+02 -0.89282622548E+02 -0.88803194668E+03  0.89451223568E+03  0.41800000000E+01 0.  1.
        -11    1    4    4    0    0 -0.19170217111E+02  0.53166212714E+02 -0.12953632180E+03  0.14132870219E+03  0.00000000000E+00 0.  1.
         11    1    4    4    0    0  0.63283677861E+02  0.16710546249E+02 -0.21059453140E+03  0.22053145557E+03  0.00000000000E+00 0. -1.
</event>
<event>
 8    1  0.6380238E-009  0.1440608E+03  0.7561462E-02  0.1207967E+00
         -2   -1    0    0    0  501 -0.00000000000E+00  0.00000000000E+00  0.89944732454E+03  0.89944732454E+03  0.00000000000E+00 0.  1.
          2   -1    0    0  501    0  0.00000000000E+00 -0.00000000000E+00 -0.28399388958E+02  0.28399388958E+02  0.00000000000E+00 0. -1.
         25    2    1    2    0    0  0.10764428156E+03 -0.40717301773E+02  0.41064134583E+03  0.44443123244E+03  0.12509042908E+03 0.  0.
         23    2    1    2    0    0 -0.10764428156E+03  0.40717301773E+02  0.46040658976E+03  0.48341548107E+03  0.92038630062E+02 0.  0.
          5    1    3    3  502    0 -0.36092213130E+01 -0.40091447664E+02  0.38001395611E+02  0.55515125170E+02  0.41800000000E+01 0. -1.
         -5    1    3    3    0  502  0.11125350287E+03 -0.62585410920E+00  0.37263995022E+03  0.38891610727E+03  0.41800000000E+01 0. -1.
        -11    1    4    4    0    0 -0.74241747099E+02 -0.10694395223E+02  0.34141852106E+03  0.34956088686E+03  0.00000000000E+00 0.  1.
         11    1    4    4    0    0 -0.33402534459E+02  0.51411696996E+02  0.11898806870E+03  0.13385459420E+03  0.00000000000E+00 0. -1.
</event>
<event>
 8    1  0.6380238E-009  0.1205505E+03  0.7561462E-02  0.1242192E+00
         -2   -1    0    0    0  501 -0.00000000000E+00  0.00000000000E+00  0.11692390944E+02  0.11692390944E+02  0.00000000000E+00 0.  1.
          2   -1    0    0  501    0  0.00000000000E+00 -0.00000000000E+00 -0.18804060648E+04  0.18804060648E+04  0.00000000000E+00 0. -1.
         25    2    1    2    0    0 -0.35918880224E+02  0.43452673730E+02 -0.15213019150E+04  0.15274762543E+04  0.12508353200E+03 0.  0.
         23    2    1    2    0    0  0.35918880224E+02 -0.43452673730E+02 -0.34741175888E+03  0.36462220150E+03  0.95268666433E+02 0.  0.
          5    1    3    3  502    0 -0.23904095498E+01 -0.41698166010E+02 -0.33032928260E+03  0.33298552288E+03  0.41800000000E+01 0.  1.
         -5    1    3    3    0  502 -0.33528470674E+02  0.85150839741E+02 -0.11909726324E+04  0.11944907314E+04  0.41800000000E+01 0.  1.
        -11    1    4    4    0    0  0.64815700366E+02 -0.44465330380E+02 -0.28821930892E+03  0.29874505963E+03  0.00000000000E+00 0. -1.
         11    1    4    4    0    0 -0.28896820143E+02  0.10126566500E+01 -0.59192449963E+02  0.65877141867E+02  0.00000000000E+00 0.  1.
</event>
<event>
 8    1  0.6380238E-009  0.1781974E+03  0.7561462E-02  0.1169559E+00
         -2   -1    0    0    0  501 -0.00000000000E+00  0.00000000000E+00  0.60729830942E+02  0.60729830942E+02  0.00000000000E+00 0.  1.
          2   -1    0    0  501    0  0.00000000000E+00 -0.00000000000E+00 -0.68281650765E+03  0.68281650765E+03  0.00000000000E+00 0. -1.
         25    2    1    2    0    0 -0.12308688873E+03  0.11152617534E+03 -0.40366054673E+03  0.45406522814E+03  0.12507967245E+03 0.  0.
         23    2    1    2    0    0  0.12308688873E+03 -0.11152617534E+03 -0.21842612999E+03  0.28948111046E+03  0.92200157752E+02 0.  0.
          5    1    3    3  502    0 -0.90212703459E+01  0.97287101987E+01 -0.19426802941E+03  0.19476542499E+03  0.41800000000E+01 0. -1.
         -5    1    3    3    0  502 -0.11406561838E+03  0.10179746514E+03 -0.20939251732E+03  0.25929980315E+03  0.41800000000E+01 0. -1.
        -11    1    4    4    0    0  0.11024288154E+03 -0.40628843291E+02 -0.12583402438E+03  0.17215805973E+03  0.00000000000E+00 0.  1.
         11    1    4    4    0    0  0.12844007185E+02 -0.70897332046E+02 -0.92592105607E+02  0.11732305073E+03  0.00000000000E+00 0. -1.
</event>
<event>
 8    1  0.6380238E-009  0.1043749E+03  0.7561462E-02  0.1271356E+00
          3   -1    0    0  501    0  0.00000000000E+00  0.00000000000E+00  0.17275078237E+03  0.17275078237E+03  0.00000000000E+00 0. -1.
         -3   -1    0    0    0  501 -0.00000000000E+00 -0.00000000000E+00 -0.10904257803E+03  0.10904257803E+03  0.00000000000E+00 0.  1.
         25    2    1    2    0    0 -0.50573179949E+02  0.64651799774E+02  0.31867267630E+02  0.15297652909E+03  0.12509513964E+03 0.  0.
         23    2    1    2    0    0  0.50573179949E+02 -0.64651799774E+02  0.31840936706E+02  0.12881683131E+03  0.94034190776E+02 0.  0.
          5    1    3    3  502    0 -0.60298788803E+02 -0.17737801062E+00 -0.25654795855E+02  0.65662899300E+02  0.41800000000E+01 0. -1.
         -5    1    3    3    0  502  0.97256088539E+01  0.64829177785E+02  0.57522063485E+02  0.87313629792E+02  0.41800000000E+01 0. -1.
        -11    1    4    4    0    0  0.23113791611E+02 -0.22122736481E+02 -0.33391495797E+02  0.46245592478E+02  0.00000000000E+00 0.  1.
         11    1    4    4    0    0  0.27459388338E+02 -0.42529063294E+02  0.65232432503E+02  0.82571238835E+02  0.00000000000E+00 0. -1.
</event>
<event>
 8    1  0.6380238E-009  0.1072885E+03  0.7561462E-02  0.1265675E+00
         -2   -1    0    0    0  501 -0.00000000000E+00  0.00000000000E+00  0.23536214170E+03  0.23536214170E+03  0.00000000000E+00 0.  1.
          2   -1    0    0  501    0  0.00000000000E+00 -0.00000000000E+00 -0.55951803293E+02  0.55951803293E+02  0.00000000000E+00 0. -1.
         25    2    1    2    0    0 -0.10766423299E+02 -0.23332017714E+02  0.72953704205E+02  0.14707196081E+03  0.12509044639E+03 0.  0.
         23    2    1    2    0    0  0.10766423299E+02  0.23332017714E+02  0.10645663421E+03  0.14424198419E+03  0.93874576509E+02 0.  0.
          5    1    3    3  502    0 -0.62986891614E+02  0.36029505936E+01  0.16192473542E+02  0.65268662983E+02  0.41800000000E+01 0.  1.
         -5    1    3    3    0  502  0.52220468315E+02 -0.26934968308E+02  0.56761230663E+02  0.81803297826E+02  0.41800000000E+01 0.  1.
        -11    1    4    4    0    0 -0.13657037442E+02 -0.30451293165E+02  0.61642929609E+02  0.70097408639E+02  0.00000000000E+00 0.  1.
         11    1    4    4    0    0  0.24423460741E+02  0.53783310879E+02  0.44813704598E+02  0.74144575550E+02  0.00000000000E+00 0. -1.
</event>
<event>
 8    1  0.6380238E-009  0.1106911E+03  0.7561462E-02  0.1259295E+00
          1   -1    0    0  501    0  0.00000000000E+00  0.00000000000E+00  0.70716303860E+02  0.70716303860E+02  0.00000000000E+00 0. -1.
         -1   -1    0    0    0  501 -0.00000000000E+00 -0.00000000000E+00 -0.23500465337E+03  0.23500465337E+03  0.00000000000E+00 0.  1.
         25    2    1    2    0    0  0.46004783022E+02 -0.38326133485E+02 -0.45987351008E+02  0.14610926280E+03  0.12509095753E+03 0.  0.
         23    2    1    2    0    0 -0.46004783022E+02  0.38326133485E+02 -0.11830099850E+03  0.15961169442E+03  0.88856255729E+02 0.  0.
          5    1    3    3  502    0 -0.12632644102E+02  0.36139345292E+02 -0.32280987472E+02  0.50251074887E+02  0.41800000000E+01 0.  1.
         -5    1    3    3    0  502  0.58637427124E+02 -0.74465478776E+02 -0.13706363536E+02  0.95858187916E+02  0.41800000000E+01 0.  1.
        -11    1    4    4    0    0 -0.24911981839E+02  0.55476008789E+02 -0.31164748327E+02  0.68333271022E+02  0.00000000000E+00 0. -1.
         11    1    4    4    0    0 -0.21092801183E+02 -0.17149875304E+02 -0.87136250171E+02  0.91278423401E+02  0.00000000000E+00 0.  1.
</event>
<event>
 8    1  0.6380238E-009  0.1164206E+03  0.7561462E-02  0.1249121E+00
          3   -1    0    0  501    0  0.00000000000E+00  0.00000000000E+00  0.10079657817E+04  0.10079657817E+04  0.00000000000E+00 0. -1.
         -3   -1    0    0    0  501 -0.00000000000E+00 -0.00000000000E+00 -0.16687997310E+02  0.16687997310E+02  0.00000000000E+00 0.  1.
         25    2    1    2    0    0  0.34452432050E+02 -0.65905961696E+02  0.56329070013E+03  0.58178570271E+03  0.12509046790E+03 0.  0.
         23    2    1    2    0    0 -0.34452432050E+02  0.65905961696E+02  0.42798708425E+03  0.44286807629E+03  0.86189459057E+02 0.  0.
          5    1    3    3  502    0  0.49581792559E+02  0.23296637599E+02  0.21643769712E+03  0.22330211959E+03  0.41800000000E+01 0.  1.
         -5    1    3    3    0  502 -0.15129360509E+02 -0.89202599295E+02  0.34685300301E+03  0.35848358312E+03  0.41800000000E+01 0.  1.
        -11    1    4    4    0    0 -0.21052589347E+02  0.70173830225E+02  0.42069512355E+03  0.42702689019E+03  0.00000000000E+00 0. -1.
         11    1    4    4    0    0 -0.13399842703E+02 -0.42678685288E+01  0.72919606985E+01  0.15841186101E+02  0.00000000000E+00 0.  1.
</event>
<event>
 8    1  0.6380238E-009  0.1651071E+03  0.7561462E-02  0.1183049E+00
         -2   -1    0    0    0  501 -0.00000000000E+00  0.00000000000E+00  0.16261085638E+02  0.16261085638E+02  0.00000000000E+00 0.  1.
          2   -1    0    0  501    0  0.00000000000E+00 -0.00000000000E+00 -0.20524104092E+04  0.20524104092E+04  0.00000000000E+00 0. -1.
         25    2    1    2    0    0 -0.53922797856E+02 -0.12284403090E+03 -0.13786542049E+04  0.13908030744E+04  0.12508977209E+03 0.  0.
         23    2    1    2    0    0  0.53922797856E+02  0.12284403090E+03 -0.65749511868E+03  0.67786842043E+03  0.95955407730E+02 0.  0.
          5    1    3    3  502    0 -0.82661987861E+02 -0.85562724613E+02 -0.66391232045E+03  0.67450057504E+03  0.41800000000E+01 0.  1.
         -5    1    3    3    0  502  0.28739190005E+02 -0.37281306288E+02 -0.71474188440E+03  0.71630249934E+03  0.41800000000E+01 0.  1.
        -11    1    4    4    0    0  0.61618277217E+02  0.26191073762E+02 -0.30649131681E+03  0.31371916058E+03  0.00000000000E+00 0. -1.
         11    1    4    4    0    0 -0.76954793605E+01  0.96652957139E+02 -0.35100380187E+03  0.36414925985E+03  0.00000000000E+00 0.  1.
</event>
<event>
 8    1  0.6380238E-009  0.2148198E+03  0.7561462E-02  0.1137805E+00
         -2   -1    0    0    0  501 -0.00000000000E+00  0.00000000000E+00  0.27092696764E+02  0.27092696764E+02  0.00000000000E+00 0. -1.
          2   -1    0    0  501    0  0.00000000000E+00 -0.00000000000E+00 -0.17572711022E+04  0.17572711022E+04  0.00000000000E+00 0.  1.
         25    2    1    2    0    0 -0.15047019192E+03  0.11522078207E+03 -0.91977851693E+03  0.94739499709E+03  0.12509057924E+03 0.  0.
         23    2    1    2    0    0  0.15047019192E+03 -0.11522078207E+03 -0.81039988846E+03  0.83696880184E+03  0.88609755413E+02 0.  0.
          5    1    3    3  502    0 -0.15609098865E+03  0.56063728519E+02 -0.62410060659E+03  0.64577595026E+03  0.41800000000E+01 0.  1.
         -5    1    3    3    0  502  0.56207967324E+01  0.59157053551E+02 -0.29567791034E+03  0.30161904682E+03  0.41800000000E+01 0.  1.
        -11    1    4    4    0    0  0.12715129178E+03 -0.53071253645E+02 -0.62603820407E+03  0.64102093719E+03  0.00000000000E+00 0.  1.
         11    1    4    4    0    0  0.23318900137E+02 -0.62149528425E+02 -0.18436168439E+03  0.19594786465E+03  0.00000000000E+00 0. -1.
</event>
<event>
 8    1  0.6380238E-009  0.1009356E+03  0.7561462E-02  0.1278341E+00
         -1   -1    0    0    0  501 -0.00000000000E+00  0.00000000000E+00  0.58375718978E+03  0.58375718978E+03  0.00000000000E+00 0.  1.
          1   -1    0    0  501    0  0.00000000000E+00 -0.00000000000E+00 -0.25369500889E+02  0.25369500889E+02  0.00000000000E+00 0. -1.
         25    2    1    2    0    0 -0.43544289982E+02 -0.20824766672E+02  0.38349864523E+03  0.40626340754E+03  0.12509584053E+03 0.  0.
         23    2    1    2    0    0  0.43544289982E+02  0.20824766672E+02  0.17488904366E+03  0.20286328313E+03  0.90760993558E+02 0.  0.
          5    1    3    3  502    0 -0.89627947559E+01  0.48478656341E+02  0.21721808166E+03  0.22278168509E+03  0.41800000000E+01 0.  1.
         -5    1    3    3    0  502 -0.34581495227E+02 -0.69303423013E+02  0.16628056357E+03  0.18348172245E+03  0.41800000000E+01 0.  1.
        -11    1    4    4    0    0  0.26775619957E+01  0.32277248968E+02  0.15043316546E+03  0.15388023723E+03  0.00000000000E+00 0.  1.
         11    1    4    4    0    0  0.40866727987E+02 -0.11452482296E+02  0.24455878204E+02  0.48983045902E+02  0.00000000000E+00 0. -1.
</event>
<event>
 8    1  0.6380238E-009  0.1044148E+03  0.7561462E-02  0.1271277E+00
          1   -1    0    0  501    0  0.00000000000E+00  0.00000000000E+00  0.42512820496E+03  0.42512820496E+03  0.00000000000E+00 0. -1.
         -1   -1    0    0    0  501 -0.00000000000E+00 -0.00000000000E+00 -0.36343901172E+02  0.36343901172E+02  0.00000000000E+00 0.  1.
         25    2    1    2    0    0 -0.94247099629E+01  0.57405769060E+02  0.23910508044E+03  0.27604907290E+03  0.12509038204E+03 0.  0.
         23    2    1    2    0    0  0.94247099629E+01 -0.57405769060E+02  0.14967922335E+03  0.18542303323E+03  0.92701585049E+02 0.  0.
          5    1    3    3  502    0 -0.23967457182E+02 -0.13709004496E+02  0.18054494331E+03  0.18269188477E+03  0.41800000000E+01 0. -1.
         -5    1    3    3    0  502  0.14542747219E+02  0.71114773556E+02  0.58560137133E+02  0.93357188130E+02  0.41800000000E+01 0. -1.
        -11    1    4    4    0    0 -0.25040552468E+02 -0.67736555819E+02  0.86172661440E+02  0.11243219220E+03  0.00000000000E+00 0.  1.
         11    1    4    4    0    0  0.34465262431E+02  0.10330786759E+02  0.63506561909E+02  0.72990841035E+02  0.00000000000E+00 0. -1.
</event>
<event>
 8    1  0.6380238E-009  0.1204220E+03  0.7561462E-02  0.1242402E+00
         -2   -1    0    0    0  501 -0.00000000000E+00  0.00000000000E+00  0.28857550800E+02  0.28857550800E+02  0.00000000000E+00 0.  1.
          2   -1    0    0  501    0  0.00000000000E+00 -0.00000000000E+00 -0.83861615828E+03  0.83861615828E+03  0.00000000000E+00 0. -1.
         25    2    1    2    0    0  0.69076885358E+00  0.69437378874E+02 -0.67895787915E+03  0.69386850729E+03  0.12509067511E+03 0.  0.
         23    2    1    2    0    0 -0.69076885358E+00 -0.69437378874E+02 -0.13080072833E+03  0.17360520179E+03  0.90597509960E+02 0.  0.
          5    1    3    3  502    0 -0.57571877146E+02  0.25685012847E+02 -0.21107248361E+03  0.22032545623E+03  0.41800000000E+01 0.  1.
         -5    1    3    3    0  502  0.58262645999E+02  0.43752366027E+02 -0.46788539554E+03  0.47354305106E+03  0.41800000000E+01 0.  1.
        -11    1    4    4    0    0 -0.36368215032E+02 -0.55553189454E+02 -0.46628950110E+02  0.81136076510E+02  0.00000000000E+00 0.  1.
         11    1    4    4    0    0  0.35677446178E+02 -0.13884189420E+02 -0.84171778217E+02  0.92469125279E+02  0.00000000000E+00 0. -1.
</event>
<event>
 8    1  0.6380238E-009  0.1102487E+03  0.7561462E-02  0.1260110E+00
          2   -1    0    0  501    0  0.00000000000E+00  0.00000000000E+00  0.44182754879E+03  0.44182754879E+03  0.00000000000E+00 0. -1.
         -2   -1    0    0    0  501 -0.00000000000E+00 -0.00000000000E+00 -0.35385920401E+02  0.35385920401E+02  0.00000000000E+00 0.  1.
         25    2    1    2    0    0 -0.38947487340E+02 -0.35258879019E+02  0.16479300425E+03  0.21345799101E+03  0.12508990510E+03 0.  0.
         23    2    1    2    0    0  0.38947487340E+02  0.35258879019E+02  0.24164862414E+03  0.26375547818E+03  0.91721313778E+02 0.  0.
          5    1    3    3  502    0 -0.24373714628E+01  0.44733492619E+02  0.36862655097E+02  0.58166604529E+02  0.41800000000E+01 0. -1.
         -5    1    3    3    0  502 -0.36510115878E+02 -0.79992371639E+02  0.12793034915E+03  0.15529138648E+03  0.41800000000E+01 0. -1.
        -11    1    4    4    0    0 -0.38471916778E+01  0.43687424485E+02  0.19508657764E+03  0.19995540682E+03  0.00000000000E+00 0. -1.
         11    1    4    4    0    0  0.42794679018E+02 -0.84285454660E+01  0.46562046499E+02  0.63800071357E+02  0.00000000000E+00 0.  1.
</event>
<event>
 8    1  0.6380238E-009  0.1214792E+03  0.7561462E-02  0.1240677E+00
         -1   -1    0    0    0  501 -0.00000000000E+00  0.00000000000E+00  0.17981250203E+03  0.17981250203E+03  0.00000000000E+00 0.  1.
          1   -1    0    0  501    0  0.00000000000E+00 -0.00000000000E+00 -0.11193668987E+03  0.11193668987E+03  0.00000000000E+00 0. -1.
         25    2    1    2    0    0  0.38699010276E+02  0.68905215886E+02 -0.10628983197E+02  0.14834260602E+03  0.12508801423E+03 0.  0.
         23    2    1    2    0    0 -0.38699010276E+02 -0.68905215886E+02  0.78504795355E+02  0.14340658588E+03  0.90315578981E+02 0.  0.
          5    1    3    3  502    0 -0.66896500597E+01  0.93765708972E+02 -0.18298362528E+02  0.95859595598E+02  0.41800000000E+01 0. -1.
         -5    1    3    3    0  502  0.45388660336E+02 -0.24860493087E+02  0.76693793315E+01  0.52483010422E+02  0.41800000000E+01 0. -1.
        -11    1    4    4    0    0 -0.49233536905E+02 -0.32378332232E+02  0.86398444527E+02  0.10458005915E+03  0.00000000000E+00 0.  1.
         11    1    4    4    0    0  0.10534526629E+02 -0.36526883654E+02 -0.78936491723E+01  0.38826526731E+02  0.00000000000E+00 0. -1.
</event>
<event>
 8    1  0.6380238E-009  0.1347838E+03  0.7561462E-02  0.1220525E+00
          2   -1    0    0  501    0  0.00000000000E+00  0.00000000000E+00  0.17515315845E+03  0.17515315845E+03  0.00000000000E+00 0. -1.
         -2   -1    0    0    0  501 -0.00000000000E+00 -0.00000000000E+00 -0.21225205180E+03  0.21225205180E+03  0.00000000000E+00 0.  1.
         25    2    1    2    0    0  0.23403371347E+02 -0.10642968154E+03 -0.13561210204E+03  0.21427443036E+03  0.12509154402E+03 0.  0.
         23    2    1    2    0    0 -0.23403371347E+02  0.10642968154E+03  0.98513208683E+02  0.17313077988E+03  0.91621066102E+02 0.  0.
          5    1    3    3  502    0 -0.42155394701E+02 -0.17110521853E+02 -0.10075849667E+02  0.46785066068E+02  0.41800000000E+01 0. -1.
         -5    1    3    3    0  502  0.65558766048E+02 -0.89319159690E+02 -0.12553625237E+03  0.16748936430E+03  0.41800000000E+01 0. -1.
        -11    1    4    4    0    0  0.69160926800E+01  0.12276213395E+02  0.68250914573E+02  0.69690208016E+02  0.00000000000E+00 0. -1.
         11    1    4    4    0    0 -0.30319464027E+02  0.94153468147E+02  0.30262294110E+02  0.10344057187E+03  0.00000000000E+00 0.  1.
</event>
<event>
 8    1  0.6380238E-009  0.1021875E+03  0.7561462E-02  0.1275762E+00
          3   -1    0    0  501    0  0.00000000000E+00  0.00000000000E+00  0.74123620990E+02  0.74123620990E+02  0.00000000000E+00 0. -1.
         -3   -1    0    0    0  501 -0.00000000000E+00 -0.00000000000E+00 -0.17715566662E+03  0.17715566662E+03  0.00000000000E+00 0.  1.
         25    2    1    2    0    0 -0.18253654919E+01  0.26817951806E+02 -0.87094127756E+02  0.15477484845E+03  0.12508929661E+03 0.  0.
         23    2    1    2    0    0  0.18253654919E+01 -0.26817951806E+02 -0.15937917873E+02  0.96504439154E+02  0.91304737293E+02 0.  0.
          5    1    3    3  502    0  0.37012995373E+02  0.51275049068E+02 -0.88278582083E+02  0.10867231910E+03  0.41800000000E+01 0.  1.
         -5    1    3    3    0  502 -0.38838360865E+02 -0.24457097261E+02  0.11844543262E+01  0.46102529358E+02  0.41800000000E+01 0.  1.
        -11    1    4    4    0    0 -0.44592212118E+02 -0.11845788039E+02 -0.11365822085E+02  0.47518101682E+02  0.00000000000E+00 0.  1.
         11    1    4    4    0    0  0.46417577610E+02 -0.14972163768E+02 -0.45720957884E+01  0.48986337472E+02  0.00000000000E+00 0. -1.
</event>
<event>
 8    1  0.6380238E-009  0.1274019E+03  0.7561462E-02  0.1231363E+00
         -2   -1    0    0    0  501 -0.00000000000E+00  0.00000000000E+00  0.82814902889E+02  0.82814902889E+02  0.00000000000E+00 0.  1.
          2   -1    0    0  501    0  0.00000000000E+00 -0.00000000000E+00 -0.32967715466E+03  0.32967715466E+03  0.00000000000E+00 0. -1.
         25    2    1    2    0    0  0.59518555671E+02 -0.10062004976E+03 -0.19685806551E+03  0.26089551126E+03  0.12508603821E+03 0.  0.
         23    2    1    2    0    0 -0.59518555671E+02  0.10062004976E+03 -0.50004186258E+02  0.15159654629E+03  0.82548418043E+02 0.  0.
          5    1    3    3  502    0  0.34644908099E+02 -0.15001187969E+02  0.67533422136E+01  0.38579597311E+02  0.41800000000E+01 0. -1.
         -5    1    3    3    0  502  0.24873647573E+02 -0.85618861789E+02 -0.20361140773E+03  0.22231591395E+03  0.41800000000E+01 0. -1.
        -11    1    4    4    0    0 -0.68154554133E+02  0.79318128894E+02 -0.94785060468E+01  0.10500595648E+03  0.00000000000E+00 0.  1.
         11    1    4    4    0    0  0.86359984620E+01  0.21301920864E+02 -0.40525680211E+02  0.46590589806E+02  0.00000000000E+00 0. -1.
</event>
<event>
 8    1  0.6380238E-009  0.1362202E+03  0.7561462E-02  0.1218507E+00
         -3   -1    0    0    0  501 -0.00000000000E+00  0.00000000000E+00  0.89399907714E+03  0.89399907714E+03  0.00000000000E+00 0.  1.
          3   -1    0    0  501    0  0.00000000000E+00 -0.00000000000E+00 -0.26007415597E+02  0.26007415597E+02  0.00000000000E+00 0. -1.
         25    2    1    2    0    0 -0.16843170271E+02  0.10553333678E+03  0.46923639810E+03  0.49724366427E+03  0.12508991486E+03 0.  0.
         23    2    1    2    0    0  0.16843170271E+02 -0.10553333678E+03  0.39875526344E+03  0.42276282847E+03  0.91113508614E+02 0.  0.
          5    1    3    3  502    0  0.15346243417E+02  0.10059053666E+03  0.44481279727E+03  0.45632210145E+03  0.41800000000E+01 0. -1.
         -5    1    3    3    0  502 -0.32189413688E+02  0.49428001271E+01  0.24423600831E+02  0.40921562827E+02  0.41800000000E+01 0. -1.
        -11    1    4    4    0    0  0.50286352074E+02 -0.40233903743E+02  0.14594582971E+03  0.15952325669E+03  0.00000000000E+00 0. -1.
         11    1    4    4    0    0 -0.33443181803E+02 -0.65299433040E+02  0.25280943373E+03  0.26323957177E+03  0.00000000000E+00 0.  1.
</event>
<event>
 8    1  0.6380238E-009  0.1131341E+03  0.7561462E-02  0.1254874E+00
          1   -1    0    0  501    0  0.00000000000E+00  0.00000000000E+00  0.22045572259E+03  0.22045572259E+03  0.00000000000E+00 0. -1.
         -1   -1    0    0    0  501 -0.00000000000E+00 -0.00000000000E+00 -0.11683943917E+03  0.11683943917E+03  0.00000000000E+00 0.  1.
         25    2    1    2    0    0  0.26738757287E+02 -0.99544597216E+02  0.12413385754E+03  0.20415749330E+03  0.12508788714E+03 0.  0.
         23    2    1    2    0    0 -0.26738757287E+02  0.99544597216E+02 -0.20517574124E+02  0.13313766845E+03  0.81734814719E+02 0.  0.
          5    1    3    3  502    0  0.67552059057E+01 -0.57719456020E+02 -0.12694226330E+02  0.59630396546E+02  0.41800000000E+01 0.  1.
         -5    1    3    3    0  502  0.19983551382E+02 -0.41825141196E+02  0.13682808387E+03  0.14452709676E+03  0.41800000000E+01 0.  1.
        -11    1    4    4    0    0 -0.45401734608E+02  0.89285185411E+02 -0.36395767270E+02  0.10657304403E+03  0.00000000000E+00 0.  1.
         11    1    4    4    0    0  0.18662977320E+02  0.10259411805E+02  0.15878193146E+02  0.26564624421E+02  0.00000000000E+00 0. -1.
</event>
<event>
 8    1  0.6380238E-009  0.1669122E+03  0.7561462E-02  0.1181107E+00
         -2   -1    0    0    0  501 -0.00000000000E+00  0.00000000000E+00  0.34547283008E+03  0.34547283008E+03  0.00000000000E+00 0.  1.
          2   -1    0    0  501    0  0.00000000000E+00 -0.00000000000E+00 -0.11072182305E+03  0.11072182305E+03  0.00000000000E+00 0. -1.
         25    2    1    2    0    0  0.26469587951E+02  0.15861633843E+03  0.15629427129E+03  0.25677760664E+03  0.12508820140E+03 0.  0.
         23    2    1    2    0    0 -0.26469587951E+02 -0.15861633843E+03  0.78456735737E+02  0.19941704649E+03  0.88044972295E+02 0.  0.
          5    1    3    3  502    0  0.12151872687E+02  0.12422684248E+01  0.80388574945E+02  0.81418711746E+02  0.41800000000E+01 0.  1.
         -5    1    3    3    0  502  0.14317715264E+02  0.15737407001E+03  0.75905696345E+02  0.17535889489E+03  0.41800000000E+01 0.  1.
        -11    1    4    4    0    0 -0.21314879764E+02 -0.53469585183E+02 -0.14075893514E+02  0.59257500936E+02  0.00000000000E+00 0. -1.
         11    1    4    4    0    0 -0.51547081871E+01 -0.10514675325E+03  0.92532629250E+02  0.14015954556E+03  0.00000000000E+00 0.  1.
</event>
<event>
 8    1  0.6380238E-009  0.1727268E+03  0.7561462E-02  0.1175034E+00
         -1   -1    0    0    0  501 -0.00000000000E+00  0.00000000000E+00  0.32603326507E+02  0.32603326507E+02  0.00000000000E+00 0.  1.
          1   -1    0    0  501    0  0.00000000000E+00 -0.00000000000E+00 -0.11350630034E+04  0.11350630034E+04  0.00000000000E+00 0. -1.
         25    2    1    2    0    0  0.76466778186E+02 -0.13032732336E+03 -0.73150858058E+03  0.75735316585E+03  0.12508650999E+03 0.  0.
         23    2    1    2    0    0 -0.76466778186E+02  0.13032732336E+03 -0.37095109632E+03  0.41031316407E+03  0.88993243363E+02 0.  0.
          5    1    3    3  502    0 -0.21733919236E+02 -0.84581970652E+01 -0.28218287130E+02  0.36846281650E+02  0.41800000000E+01 0.  1.
         -5    1    3    3    0  502  0.98200697421E+02 -0.12186912629E+03 -0.70329029345E+03  0.72050688420E+03  0.41800000000E+01 0.  1.
        -11    1    4    4    0    0 -0.86876015971E+01 -0.75807331662E+01 -0.35379413451E+01  0.12060637040E+02  0.00000000000E+00 0.  1.
         11    1    4    4    0    0 -0.67779176589E+02  0.13790805652E+03 -0.36741315498E+03  0.39825252703E+03  0.00000000000E+00 0. -1.
</event>
<event>
 8    1  0.6380238E-009  0.1092615E+03  0.7561462E-02  0.1261944E+00
          4   -1    0    0  501    0  0.00000000000E+00  0.00000000000E+00  0.78157827870E+03  0.78157827870E+03  0.00000000000E+00 0. -1.
         -4   -1    0    0    0  501 -0.00000000000E+00 -0.00000000000E+00 -0.20299316761E+02  0.20299316761E+02  0.00000000000E+00 0.  1.
         25    2    1    2    0    0  0.39205675161E+02  0.39026569844E+02  0.50132089727E+03  0.51964326817E+03  0.12508527488E+03 0.  0.
         23    2    1    2    0    0 -0.39205675161E+02 -0.39026569844E+02  0.25995806467E+03  0.28223432730E+03  0.94962424141E+02 0.  0.
          5    1    3    3  502    0  0.12163901886E+02  0.68239139643E+02  0.14168397527E+03  0.15778581031E+03  0.41800000000E+01 0.  1.
         -5    1    3    3    0  502  0.27041773275E+02 -0.29212569800E+02  0.35963692201E+03  0.36185745786E+03  0.41800000000E+01 0.  1.
        -11    1    4    4    0    0 -0.32339024849E+02 -0.70117500387E+02  0.16733363134E+03  0.18429004467E+03  0.00000000000E+00 0.  1.
         11    1    4    4    0    0 -0.68666503124E+01  0.31090930543E+02  0.92624433329E+02  0.97944282621E+02  0.00000000000E+00 0. -1.
</event>
<event>
 8    1  0.6380238E-009  0.1265920E+03  0.7561462E-02  0.1232602E+00
          1   -1    0    0  501    0  0.00000000000E+00  0.00000000000E+00  0.79173827948E+02  0.79173827948E+02  0.00000000000E+00 0. -1.
         -1   -1    0    0    0  501 -0.00000000000E+00 -0.00000000000E+00 -0.24984601509E+03  0.24984601509E+03  0.00000000000E+00 0.  1.
         25    2    1    2    0    0 -0.54353550518E+02  0.65508796505E+02 -0.65635501108E+02  0.16493071611E+03  0.12509360990E+03 0.  0.
         23    2    1    2    0    0  0.54353550518E+02 -0.65508796505E+02 -0.10503668604E+03  0.16408912693E+03  0.92988307270E+02 0.  0.
          5    1    3    3  502    0  0.67438847181E+01 -0.26741905223E+02  0.11302964923E+02  0.30097157542E+02  0.41800000000E+01 0.  1.
         -5    1    3    3    0  502 -0.61097435236E+02  0.92250701729E+02 -0.76938466031E+02  0.13483355857E+03  0.41800000000E+01 0.  1.
        -11    1    4    4    0    0  0.41645775047E+02 -0.83047091215E+02 -0.51243106644E+02  0.10609922675E+03  0.00000000000E+00 0. -1.
         11    1    4    4    0    0  0.12707775471E+02  0.17538294709E+02 -0.53793579392E+02  0.57989900177E+02  0.00000000000E+00 0.  1.
</event>
<event>
 8    1  0.6380238E-009  0.3182980E+03  0.7561462E-02  0.1076435E+00
          1   -1    0    0  501    0  0.00000000000E+00  0.00000000000E+00  0.14266925120E+04  0.14266925120E+04  0.00000000000E+00 0. -1.
         -1   -1    0    0    0  501 -0.00000000000E+00 -0.00000000000E+00 -0.96998657152E+02  0.96998657152E+02  0.00000000000E+00 0.  1.
         25    2    1    2    0    0 -0.29884740281E+03 -0.54480790407E+02  0.10529223337E+04  0.11029829103E+04  0.12509169786E+03 0.  0.
         23    2    1    2    0    0  0.29884740281E+03  0.54480790407E+02  0.27677152108E+03  0.42070825881E+03  0.90083502690E+02 0.  0.
          5    1    3    3  502    0 -0.15137102313E+02 -0.41348425734E+02  0.12786141483E+03  0.13529537309E+03  0.41800000000E+01 0.  1.
         -5    1    3    3    0  502 -0.28371030050E+03 -0.13132364674E+02  0.92506091891E+03  0.96768753723E+03  0.41800000000E+01 0.  1.
        -11    1    4    4    0    0  0.79786839912E+02 -0.88848407165E+01  0.11846694486E+03  0.14310589521E+03  0.00000000000E+00 0. -1.
         11    1    4    4    0    0  0.21906056290E+03  0.63365631124E+02  0.15830457622E+03  0.27760236360E+03  0.00000000000E+00 0.  1.
</event>
<event>
 8    1  0.6380238E-009  0.2097027E+03  0.7561462E-02  0.1141802E+00
          1   -1    0    0  501    0  0.00000000000E+00  0.00000000000E+00  0.22707785326E+03  0.22707785326E+03  0.00000000000E+00 0. -1.
         -1   -1    0    0    0  501 -0.00000000000E+00 -0.00000000000E+00 -0.19593502253E+03  0.19593502253E+03  0.00000000000E+00 0.  1.
         25    2    1    2    0    0  0.10666650377E+03  0.14543024071E+03  0.12016631780E+02  0.21981709557E+03  0.12508980025E+03 0.  0.
         23    2    1    2    0    0 -0.10666650377E+03 -0.14543024071E+03  0.19126198941E+02  0.20319578022E+03  0.91624318140E+02 0.  0.
          5    1    3    3  502    0  0.35282324437E+02  0.14282962373E+03 -0.46443099538E+00  0.14718298791E+03  0.41800000000E+01 0. -1.
         -5    1    3    3    0  502  0.71384179336E+02  0.26006169776E+01  0.12481062776E+02  0.72634107664E+02  0.41800000000E+01 0. -1.
        -11    1    4    4    0    0 -0.71197355304E+02 -0.14888465068E+03  0.57544835838E+01  0.16513272447E+03  0.00000000000E+00 0. -1.
         11    1    4    4    0    0 -0.35469148468E+02  0.34544099729E+01  0.13371715358E+02  0.38063055749E+02  0.00000000000E+00 0.  1.
</event>
<event>
 8    1  0.6380238E-009  0.1041294E+03  0.7561462E-02  0.1271845E+00
          2   -1    0    0  501    0  0.00000000000E+00  0.00000000000E+00  0.78229994957E+03  0.78229994957E+03  0.00000000000E+00 0. -1.
         -2   -1    0    0    0  501 -0.00000000000E+00 -0.00000000000E+00 -0.21481252851E+02  0.21481252851E+02  0.00000000000E+00 0.  1.
         25    2    1    2    0    0 -0.43359714803E+02  0.86225655578E+01  0.58961872195E+03  0.60436145134E+03  0.12509241817E+03 0.  0.
         23    2    1    2    0    0  0.43359714803E+02 -0.86225655578E+01  0.17119997477E+03  0.19941975109E+03  0.92219261856E+02 0.  0.
          5    1    3    3  502    0  0.30885164598E+02 -0.99317586150E+01  0.37581298410E+03  0.37723388586E+03  0.41800000000E+01 0. -1.
         -5    1    3    3    0  502 -0.74244879402E+02  0.18554324173E+02  0.21380573785E+03  0.22712756548E+03  0.41800000000E+01 0. -1.
        -11    1    4    4    0    0 -0.27329583703E+01  0.35199785555E+02  0.38326997551E+02  0.52110005813E+02  0.00000000000E+00 0.  1.
         11    1    4    4    0    0  0.46092673174E+02 -0.43822351112E+02  0.13287297722E+03  0.14730974527E+03  0.00000000000E+00 0. -1.
</event>
<event>
 8    1  0.6380238E-009  0.1062438E+03  0.7561462E-02  0.1267688E+00
         -1   -1    0    0    0  501 -0.00000000000E+00  0.00000000000E+00  0.56263936210E+03  0.56263936210E+03  0.00000000000E+00 0.  1.
          1   -1    0    0  501    0  0.00000000000E+00 -0.00000000000E+00 -0.41189371935E+02  0.41189371935E+02  0.00000000000E+00 0. -1.
         25    2    1    2    0    0 -0.27039545271E+02 -0.19705620243E+02  0.48278457967E+03  0.49985326986E+03  0.12511152040E+03 0.  0.
         23    2    1    2    0    0  0.27039545271E+02  0.19705620243E+02  0.38665410496E+02  0.10397546418E+03  0.90534163197E+02 0.  0.
          5    1    3    3  502    0 -0.34385405409E+02 -0.64353307244E+02  0.19013900008E+03  0.20370080022E+03  0.41800000000E+01 0. -1.
         -5    1    3    3    0  502  0.73458601376E+01  0.44647687002E+02  0.29264557960E+03  0.29615246964E+03  0.41800000000E+01 0. -1.
        -11    1    4    4    0    0 -0.31951466380E+02  0.60459591853E+00  0.24765883317E+02  0.40430319274E+02  0.00000000000E+00 0.  1.
         11    1    4    4    0    0  0.58991011652E+02  0.19101024324E+02  0.13899527179E+02  0.63545144911E+02  0.00000000000E+00 0. -1.
</event>
<event>
 8    1  0.6380238E-009  0.1470796E+03  0.7561462E-02  0.1204108E+00
          1   -1    0    0  501    0  0.00000000000E+00  0.00000000000E+00  0.13416645911E+03  0.13416645911E+03  0.00000000000E+00 0. -1.
         -1   -1    0    0    0  501 -0.00000000000E+00 -0.00000000000E+00 -0.24554201339E+03  0.24554201339E+03  0.00000000000E+00 0.  1.
         25    2    1    2    0    0 -0.13984018343E+03  0.14987766201E+01 -0.20482348568E+02  0.18874414771E+03  0.12508918202E+03 0.  0.
         23    2    1    2    0    0  0.13984018343E+03 -0.14987766201E+01 -0.90893205712E+02  0.19096432479E+03  0.92996103495E+02 0.  0.
          5    1    3    3  502    0 -0.10467577994E+03 -0.25585984861E+02 -0.64858957945E+02  0.12584044800E+03  0.41800000000E+01 0. -1.
         -5    1    3    3    0  502 -0.35164403495E+02  0.27084761481E+02  0.44376609377E+02  0.62903699712E+02  0.41800000000E+01 0. -1.
        -11    1    4    4    0    0  0.10815801244E+03 -0.10860630632E+02 -0.10845237125E+03  0.15355137832E+03  0.00000000000E+00 0.  1.
         11    1    4    4    0    0  0.31682170996E+02  0.93618540123E+01  0.17559165542E+02  0.37412946477E+02  0.00000000000E+00 0. -1.
</event>
<event>
 8    1  0.6380238E-009  0.1706256E+03  0.7561462E-02  0.1177197E+00
         -2   -1    0    0    0  501 -0.00000000000E+00  0.00000000000E+00  0.57749266031E+03  0.57749266031E+03  0.00000000000E+00 0.  1.
          2   -1    0    0  501    0  0.00000000000E+00 -0.00000000000E+00 -0.62509693693E+02  0.62509693693E+02  0.00000000000E+00 0. -1.
         25    2    1    2    0    0 -0.14448537654E+03 -0.53339509337E+02  0.23738738353E+03  0.30938789520E+03  0.12508785931E+03 0.  0.
         23    2    1    2    0    0  0.14448537654E+03  0.53339509337E+02  0.27759558308E+03  0.33061445880E+03  0.92333554747E+02 0.  0.
          5    1    3    3  502    0 -0.52954893539E+02  0.12389357932E+02  0.16882258128E+03  0.17741548211E+03  0.41800000000E+01 0. -1.
         -5    1    3    3    0  502 -0.91530482998E+02 -0.65728867269E+02  0.68564802250E+02  0.13197241309E+03  0.41800000000E+01 0. -1.
        -11    1    4    4    0    0  0.11920860409E+03  0.49054418730E+01  0.22553576833E+03  0.25514924544E+03  0.00000000000E+00 0.  1.
         11    1    4    4    0    0  0.25276772449E+02  0.48434067464E+02  0.52059814745E+02  0.75465213362E+02  0.00000000000E+00 0. -1.
</event>
<event>
 8    1  0.6380238E-009  0.1260598E+03  0.7561462E-02  0.1233422E+00
          2   -1    0    0  501    0  0.00000000000E+00  0.00000000000E+00  0.30699806046E+03  0.30699806046E+03  0.00000000000E+00 0.  1.
         -2   -1    0    0    0  501 -0.00000000000E+00 -0.00000000000E+00 -0.88162826615E+02  0.88162826615E+02  0.00000000000E+00 0. -1.
         25    2    1    2    0    0  0.86404096389E+02  0.82159906472E+02  0.79365004791E+02  0.19016415412E+03  0.12509070079E+03 0.  0.
         23    2    1    2    0    0 -0.86404096389E+02 -0.82159906472E+02  0.13947022906E+03  0.20499673295E+03  0.91410052100E+02 0.  0.
          5    1    3    3  502    0  0.53757475256E+02  0.75823647659E+02 -0.11089727933E+02  0.93699232418E+02  0.41800000000E+01 0.  1.
         -5    1    3    3    0  502  0.32646621133E+02  0.63362588129E+01  0.90454732724E+02  0.96464921703E+02  0.41800000000E+01 0.  1.
        -11    1    4    4    0    0 -0.33501974084E+02 -0.58922197121E+02  0.12977303611E+03  0.14640781565E+03  0.00000000000E+00 0.  1.
         11    1    4    4    0    0 -0.52902122304E+02 -0.23237709350E+02  0.96971929439E+01  0.58588917306E+02  0.00000000000E+00 0. -1.
</event>
<event>
 8    1  0.6380238E-009  0.1187622E+03  0.7561462E-02  0.1245153E+00
          4   -1    0    0  501    0  0.00000000000E+00  0.00000000000E+00  0.42347759332E+02  0.42347759332E+02  0.00000000000E+00 0. -1.
         -4   -1    0    0    0  501 -0.00000000000E+00 -0.00000000000E+00 -0.52229553018E+03  0.52229553018E+03  0.00000000000E+00 0.  1.
         25    2    1    2    0    0 -0.73862197385E+02 -0.53537708738E+02 -0.34277755387E+03  0.37612023866E+03  0.12509225410E+03 0.  0.
         23    2    1    2    0    0  0.73862197385E+02  0.53537708738E+02 -0.13717021698E+03  0.18852305085E+03  0.91669852274E+02 0.  0.
          5    1    3    3  502    0  0.28242165927E+02  0.40432094776E+01 -0.12994512511E+03  0.13310588048E+03  0.41800000000E+01 0. -1.
         -5    1    3    3    0  502 -0.10210436331E+03 -0.57580918215E+02 -0.21283242876E+03  0.24301435818E+03  0.41800000000E+01 0. -1.
        -11    1    4    4    0    0  0.19273512024E+02  0.17056432343E+02 -0.11705947193E+03  0.11985537167E+03  0.00000000000E+00 0.  1.
         11    1    4    4    0    0  0.54588685361E+02  0.36481276395E+02 -0.20110745045E+02  0.68667679174E+02  0.00000000000E+00 0. -1.
</event>
<event>
 8    1  0.6380238E-009  0.9621811E+02  0.7561462E-02  0.1288456E+00
          1   -1    0    0  501    0  0.00000000000E+00  0.00000000000E+00  0.10160164485E+03  0.10160164485E+03  0.00000000000E+00 0. -1.
         -1   -1    0    0    0  501 -0.00000000000E+00 -0.00000000000E+00 -0.13138207254E+03  0.13138207254E+03  0.00000000000E+00 0.  1.
         25    2    1    2    0    0  0.37062695307E+02 -0.67412824251E+01 -0.23995414802E+02  0.13282905253E+03  0.12509472008E+03 0.  0.
         23    2    1    2    0    0 -0.37062695307E+02  0.67412824251E+01 -0.57850128861E+01  0.10015466486E+03  0.92619664468E+02 0.  0.
          5    1    3    3  502    0  0.61111363371E+02  0.12135184271E+02  0.31039824396E+02  0.69733811949E+02  0.41800000000E+01 0.  1.
         -5    1    3    3    0  502 -0.24048668064E+02 -0.18876466696E+02 -0.55035239198E+02  0.63095240583E+02  0.41800000000E+01 0.  1.
        -11    1    4    4    0    0  0.30678147827E+02  0.66661368122E+01 -0.79290093140E+01  0.32379859832E+02  0.00000000000E+00 0.  1.
         11    1    4    4    0    0 -0.67740843133E+02  0.75145612881E-01  0.21439964278E+01  0.67774805024E+02  0.00000000000E+00 0. -1.
</event>
<event>
 8    1  0.6380238E-009  0.7713908E+02  0.7561462E-02  0.1337372E+00
         -1   -1    0    0    0  501 -0.00000000000E+00  0.00000000000E+00  0.24532595593E+03  0.24532595593E+03  0.00000000000E+00 0.  1.
          1   -1    0    0  501    0  0.00000000000E+00 -0.00000000000E+00 -0.86627593683E+02  0.86627593683E+02  0.00000000000E+00 0. -1.
         25    2    1    2    0    0  0.34456311332E+02  0.44690896983E+02  0.18392170780E+03  0.22947729814E+03  0.12509245421E+03 0.  0.
         23    2    1    2    0    0 -0.34456311332E+02 -0.44690896983E+02 -0.25223345549E+02  0.10247625147E+03  0.81735251214E+02 0.  0.
          5    1    3    3  502    0 -0.18881686584E+02  0.39637363392E+02  0.16761178803E+03  0.17331711557E+03  0.41800000000E+01 0. -1.
         -5    1    3    3    0  502  0.53337997915E+02  0.50535335906E+01  0.16309919769E+02  0.56160182569E+02  0.41800000000E+01 0. -1.
        -11    1    4    4    0    0 -0.24575074384E+02 -0.32342511216E+02 -0.55228820295E+02  0.68557967472E+02  0.00000000000E+00 0. -1.
         11    1    4    4    0    0 -0.98812369476E+01 -0.12348385767E+02  0.30005474746E+02  0.33918283998E+02  0.00000000000E+00 0.  1.
</event>
<event>
 7    1  0.6380238E-009  0.1171184E+03  0.7561462E-02  0.1247928E+00
         -1   -1    0    0    0  501 -0.00000000000E+00  0.00000000000E+00  0.75907899312E+02  0.75907899312E+02  0.00000000000E+00 0.  1.
          1   -1    0    0  501    0  0.00000000000E+00 -0.00000000000E+00 -0.25065306524E+03  0.25065306524E+03  0.00000000000E+00 0. -1.
         23    2    1    2    0    0 -0.30776164348E+01  0.67109310351E+02 -0.50370909885E+02  0.13776205387E+03  0.10921549187E+03 0.  0.
          5    1    1    2  502    0  0.18751403558E+02  0.14976061995E+02  0.13254027200E+02  0.27731556128E+02  0.41800000000E+01 0.  1.
         -5    1    1    2    0  502 -0.15673787124E+02 -0.82085372346E+02 -0.13762828325E+03  0.16106735456E+03  0.41800000000E+01 0.  1.
        -11    1    3    3    0    0  0.51607904350E+02  0.25977496949E+02 -0.35257651750E+02  0.67685361387E+02  0.00000000000E+00 0.  1.
         11    1    3    3    0    0 -0.54685520785E+02  0.41131813402E+02 -0.15113258135E+02  0.70076692479E+02  0.00000000000E+00 0. -1.
</event>
<event>
 8    1  0.6380238E-009  0.1008339E+03  0.7561462E-02  0.1278552E+00
         -2   -1    0    0    0  501 -0.00000000000E+00  0.00000000000E+00  0.39076692960E+03  0.39076692960E+03  0.00000000000E+00 0.  1.
          2   -1    0    0  501    0  0.00000000000E+00 -0.00000000000E+00 -0.31155273857E+02  0.31155273857E+02  0.00000000000E+00 0. -1.
         25    2    1    2    0    0  0.66810001061E+01 -0.11107614561E+02  0.23527234592E+03  0.26677483394E+03  0.12509084861E+03 0.  0.
         23    2    1    2    0    0 -0.66810001061E+01  0.11107614561E+02  0.12433930983E+03  0.15514736952E+03  0.91882683011E+02 0.  0.
          5    1    3    3  502    0  0.19546662288E+02  0.54860905508E+02  0.11219350537E+03  0.12647784789E+03  0.41800000000E+01 0.  1.
         -5    1    3    3    0  502 -0.12865662182E+02 -0.65968520069E+02  0.12307884055E+03  0.14029698605E+03  0.41800000000E+01 0.  1.
        -11    1    4    4    0    0 -0.38223047316E+02 -0.80113023598E+01  0.10792905832E+03  0.11477745398E+03  0.00000000000E+00 0.  1.
         11    1    4    4    0    0  0.31542047210E+02  0.19118916921E+02  0.16410251506E+02  0.40369915543E+02  0.00000000000E+00 0. -1.
</event>
<event>
 8    1  0.6380238E-009  0.8891973E+02  0.7561462E-02  0.1305489E+00
         -1   -1    0    0    0  501 -0.00000000000E+00  0.00000000000E+00  0.14157754021E+03  0.14157754021E+03  0.00000000000E+00 0.  1.
          1   -1    0    0  501    0  0.00000000000E+00 -0.00000000000E+00 -0.97334478934E+02  0.97334478934E+02  0.00000000000E+00 0. -1.
         25    2    1    2    0    0  0.21612331819E+02 -0.14039080460E+02  0.63347127752E+02  0.14256087722E+03  0.12508619609E+03 0.  0.
         23    2    1    2    0    0 -0.21612331819E+02  0.14039080460E+02 -0.19104066476E+02  0.96351141925E+02  0.90853665460E+02 0.  0.
          5    1    3    3  502    0  0.60247275975E+02 -0.46945602029E+02  0.42783237180E+02  0.87644176052E+02  0.41800000000E+01 0. -1.
         -5    1    3    3    0  502 -0.38634944156E+02  0.32906521568E+02  0.20563890571E+02  0.54916701167E+02  0.41800000000E+01 0. -1.
        -11    1    4    4    0    0 -0.16555319294E+01 -0.15054537120E+02  0.31331874903E+02  0.34800377279E+02  0.00000000000E+00 0.  1.
         11    1    4    4    0    0 -0.19956799890E+02  0.29093617580E+02 -0.50435941378E+02  0.61550764646E+02  0.00000000000E+00 0. -1.
</event>
<event>
 8    1  0.6380238E-009  0.1592164E+03  0.7561462E-02  0.1189584E+00
          3   -1    0    0  501    0  0.00000000000E+00  0.00000000000E+00  0.28138562861E+03  0.28138562861E+03  0.00000000000E+00 0. -1.
         -3   -1    0    0    0  501 -0.00000000000E+00 -0.00000000000E+00 -0.11881965007E+03  0.11881965007E+03  0.00000000000E+00 0.  1.
         25    2    1    2    0    0  0.85713704726E+02 -0.11023723736E+03  0.13373412319E+03  0.23028574775E+03  0.12509045620E+03 0.  0.
         23    2    1    2    0    0 -0.85713704726E+02  0.11023723736E+03  0.28831855348E+02  0.16991953092E+03  0.92424474176E+02 0.  0.
          5    1    3    3  502    0  0.82942268168E+02 -0.12700248275E+03  0.14466478535E+03  0.20965310156E+03  0.41800000000E+01 0. -1.
         -5    1    3    3    0  502  0.27714365585E+01  0.16765245389E+02 -0.10930662159E+02  0.20632646190E+02  0.41800000000E+01 0. -1.
        -11    1    4    4    0    0 -0.77684734544E+02  0.59586338050E+02 -0.19068892882E+02  0.99745036664E+02  0.00000000000E+00 0.  1.
         11    1    4    4    0    0 -0.80289701819E+01  0.50650899311E+02  0.47900748230E+02  0.70174494257E+02  0.00000000000E+00 0. -1.
</event>
<event>
 8    1  0.6380238E-009  0.1026893E+03  0.7561462E-02  0.1274740E+00
          2   -1    0    0  501    0  0.00000000000E+00  0.00000000000E+00  0.36721397938E+03  0.36721397938E+03  0.00000000000E+00 0. -1.
         -2   -1    0    0    0  501 -0.00000000000E+00 -0.00000000000E+00 -0.51500820182E+02  0.51500820182E+02  0.00000000000E+00 0.  1.
         25    2    1    2    0    0  0.79855776204E+02  0.32764214547E+02  0.19714005231E+03  0.24892232202E+03  0.12509070080E+03 0.  0.
         23    2    1    2    0    0 -0.79855776204E+02 -0.32764214547E+02  0.11857310689E+03  0.16979247754E+03  0.85553871942E+02 0.  0.
          5    1    3    3  502    0  0.26012616236E+02  0.19688235047E+02 -0.10065422192E+02  0.34395754485E+02  0.41800000000E+01 0.  1.
         -5    1    3    3    0  502  0.53843159968E+02  0.13075979500E+02  0.20720547450E+03  0.21452656754E+03  0.41800000000E+01 0.  1.
        -11    1    4    4    0    0 -0.24789071872E+01 -0.39200605297E+02  0.19307779107E+02  0.43767828031E+02  0.00000000000E+00 0. -1.
         11    1    4    4    0    0 -0.77376869017E+02  0.64363907495E+01  0.99265327782E+02  0.12602464951E+03  0.00000000000E+00 0.  1.
</event>
<event>
 8    1  0.6380238E-009  0.1140914E+03  0.7561462E-02  0.1253176E+00
          2   -1    0    0  501    0  0.00000000000E+00  0.00000000000E+00  0.14369602449E+03  0.14369602449E+03  0.00000000000E+00 0. -1.
         -2   -1    0    0    0  501 -0.00000000000E+00 -0.00000000000E+00 -0.12336094178E+03  0.12336094178E+03  0.00000000000E+00 0.  1.
         25    2    1    2    0    0 -0.66831434147E+02  0.25207266714E+02  0.37028172848E+02  0.14872995360E+03  0.12509063366E+03 0.  0.
         23    2    1    2    0    0  0.66831434147E+02 -0.25207266714E+02 -0.16693090134E+02  0.11832701266E+03  0.92848132897E+02 0.  0.
          5    1    3    3  502    0 -0.23314630535E+02  0.73999718747E+02  0.12098383690E+02  0.78634430497E+02  0.41800000000E+01 0. -1.
         -5    1    3    3    0  502 -0.43516803612E+02 -0.48792452033E+02  0.24929789158E+02  0.70095523106E+02  0.41800000000E+01 0. -1.
        -11    1    4    4    0    0  0.58761002744E+02 -0.37905470332E+02 -0.47163058797E+02  0.84344734511E+02  0.00000000000E+00 0.  1.
         11    1    4    4    0    0  0.80704314029E+01  0.12698203618E+02  0.30469968663E+02  0.33982278153E+02  0.00000000000E+00 0. -1.
</event>
<event>
 8    1  0.6380238E-009  0.9942348E+02  0.7561462E-02  0.1281513E+00
         -2   -1    0    0    0  501 -0.00000000000E+00  0.00000000000E+00  0.16773617225E+03  0.16773617225E+03  0.00000000000E+00 0.  1.
          2   -1    0    0  501    0  0.00000000000E+00 -0.00000000000E+00 -0.99375451271E+02  0.99375451271E+02  0.00000000000E+00 0. -1.
         25    2    1    2    0    0  0.15640201663E+02 -0.57937290500E+02  0.72356171496E+02  0.15647390075E+03  0.12508925023E+03 0.  0.
         23    2    1    2    0    0 -0.15640201663E+02  0.57937290500E+02 -0.39954505126E+01  0.11063772278E+03  0.92862244952E+02 0.  0.
          5    1    3    3  502    0  0.38150287046E+02 -0.16227775118E+02 -0.24659747149E+02  0.48418597836E+02  0.41800000000E+01 0. -1.
         -5    1    3    3    0  502 -0.22510085383E+02 -0.41709515382E+02  0.97015918645E+02  0.10805530291E+03  0.41800000000E+01 0. -1.
        -11    1    4    4    0    0 -0.14715498750E+01 -0.25209865641E+02  0.52309825100E+01  0.25788872847E+02  0.00000000000E+00 0. -1.
         11    1    4    4    0    0 -0.14168651788E+02  0.83147156142E+02 -0.92264330226E+01  0.84848849929E+02  0.00000000000E+00 0.  1.
</event>
<event>
 7    1  0.6380238E-009  0.1801010E+03  0.7561462E-02  0.1167705E+00
         -1   -1    0    0    0  501 -0.00000000000E+00  0.00000000000E+00  0.86146237238E+03  0.86146237238E+03  0.00000000000E+00 0.  1.
          1   -1    0    0  501    0  0.00000000000E+00 -0.00000000000E+00 -0.44374027956E+02  0.44374027956E+02  0.00000000000E+00 0. -1.
         25    2    1    2    0    0 -0.99680244938E+02  0.58770937356E+02  0.54624777547E+03  0.57221070926E+03  0.12509312239E+03 0.  0.
          5    1    3    3  502    0 -0.12670317398E+03  0.53890850957E+02  0.39241869859E+03  0.41589400755E+03  0.41800000000E+01 0. -1.
         -5    1    3    3    0  502  0.27022929041E+02  0.48800863995E+01  0.15382907688E+03  0.15631670170E+03  0.41800000000E+01 0. -1.
        -11    1    1    2    0    0  0.13227736010E+03 -0.81102983624E+02  0.22078896861E+03  0.26985692989E+03  0.00000000000E+00 0.  1.
         11    1    1    2    0    0 -0.32597115163E+02  0.22332046268E+02  0.50051600339E+02  0.63768761192E+02  0.00000000000E+00 0. -1.
</event>
<event>
 7    1  0.6380238E-009  0.1170199E+03  0.7561462E-02  0.1248096E+00
         -2   -1    0    0    0  501 -0.00000000000E+00  0.00000000000E+00  0.23946527452E+02  0.23946527452E+02  0.00000000000E+00 0.  1.
          2   -1    0    0  501    0  0.00000000000E+00 -0.00000000000E+00 -0.59165261808E+03  0.59165261808E+03  0.00000000000E+00 0. -1.
         23    2    1    2    0    0 -0.10201500862E+02  0.43280861168E+02 -0.28100210891E+03  0.29967736356E+03  0.94164926905E+02 0.  0.
          5    1    1    2  502    0  0.49036265248E+02  0.23951874720E+02 -0.10988300748E+03  0.12275990935E+03  0.41800000000E+01 0. -1.
         -5    1    1    2    0  502 -0.38834764386E+02 -0.67232735888E+02 -0.17682097425E+03  0.19316187262E+03  0.41800000000E+01 0. -1.
        -11    1    3    3    0    0 -0.50507011850E+02  0.16393411341E+02 -0.11347659650E+03  0.12528623282E+03  0.00000000000E+00 0.  1.
         11    1    3    3    0    0  0.40305510988E+02  0.26887449827E+02 -0.16752551241E+03  0.17439113074E+03  0.00000000000E+00 0. -1.
</event>
<event>
 8    1  0.6380238E-009  0.1083107E+03  0.7561462E-02  0.1263731E+00
         -4   -1    0    0    0  501 -0.00000000000E+00  0.00000000000E+00  0.62960869384E+02  0.62960869384E+02  0.00000000000E+00 0.  1.
          4   -1    0    0  501    0  0.00000000000E+00 -0.00000000000E+00 -0.26208908296E+03  0.26208908296E+03  0.00000000000E+00 0. -1.
         25    2    1    2    0    0 -0.37773450054E+01  0.66452729036E+02 -0.91223083995E+02  0.16851340698E+03  0.12507950970E+03 0.  0.
         23    2    1    2    0    0  0.37773450054E+01 -0.66452729036E+02 -0.10790512959E+03  0.15653654537E+03  0.91814702056E+02 0.  0.
          5    1    3    3  502    0  0.22317157292E+02  0.74057276864E+02 -0.11048917605E+03  0.13493652653E+03  0.41800000000E+01 0.  1.
         -5    1    3    3    0  502 -0.26094502297E+02 -0.76045478282E+01  0.19266092057E+02  0.33576880453E+02  0.41800000000E+01 0.  1.
        -11    1    4    4    0    0 -0.30435630706E+01  0.22370868788E+02 -0.33860896655E+02  0.40697412311E+02  0.00000000000E+00 0. -1.
         11    1    4    4    0    0  0.68209080760E+01 -0.88823597824E+02 -0.74044232930E+02  0.11583913306E+03  0.00000000000E+00 0.  1.
</event>
<event>
 8    1  0.6380238E-009  0.1330524E+03  0.7561462E-02  0.1222996E+00
          2   -1    0    0  501    0  0.00000000000E+00  0.00000000000E+00  0.13232881426E+03  0.13232881426E+03  0.00000000000E+00 0. -1.
         -2   -1    0    0    0  501 -0.00000000000E+00 -0.00000000000E+00 -0.15275603304E+03  0.15275603304E+03  0.00000000000E+00 0.  1.
         25    2    1    2    0    0  0.76018448281E+02  0.48807358484E+02  0.67109771859E+01  0.15444633827E+03  0.12509065301E+03 0.  0.
         23    2    1    2    0    0 -0.76018448281E+02 -0.48807358484E+02 -0.27138195970E+02  0.13063850903E+03  0.90382385669E+02 0.  0.
          5    1    3    3  502    0  0.11099013835E+03  0.35292039453E+02  0.64771177090E+01  0.11672088208E+03  0.41800000000E+01 0.  1.
         -5    1    3    3    0  502 -0.34971690068E+02  0.13515319031E+02  0.23385947692E+00  0.37725456193E+02  0.41800000000E+01 0.  1.
        -11    1    4    4    0    0 -0.67018260165E+02 -0.50970768985E+01 -0.46770834317E+02  0.81883687821E+02  0.00000000000E+00 0.  1.
         11    1    4    4    0    0 -0.90001881161E+01 -0.43710281586E+02  0.19632638348E+02  0.48754821207E+02  0.00000000000E+00 0. -1.
</event>
<event>
 8    1  0.6380238E-009  0.7284858E+02  0.7561462E-02  0.1350666E+00
         -2   -1    0    0    0  501 -0.00000000000E+00  0.00000000000E+00  0.75459026544E+02  0.75459026544E+02  0.00000000000E+00 0.  1.
          2   -1    0    0  501    0  0.00000000000E+00 -0.00000000000E+00 -0.17177477151E+03  0.17177477151E+03  0.00000000000E+00 0. -1.
         25    2    1    2    0    0 -0.25507666987E+02  0.87944647691E+01 -0.34329941647E+02  0.13249083678E+03  0.12508914122E+03 0.  0.
         23    2    1    2    0    0  0.25507666987E+02 -0.87944647691E+01 -0.61985803314E+02  0.11474296127E+03  0.92713125628E+02 0.  0.
          5    1    3    3  502    0 -0.15749672717E+02  0.25048204450E+02  0.43222013921E+02  0.52545976290E+02  0.41800000000E+01 0.  1.
         -5    1    3    3    0  502 -0.97579942693E+01 -0.16253739681E+02 -0.77551955567E+02  0.79944860486E+02  0.41800000000E+01 0.  1.
        -11    1    4    4    0    0 -0.25308083311E+01  0.40024259965E+02 -0.22574472034E+02  0.46021225149E+02  0.00000000000E+00 0.  1.
         11    1    4    4    0    0  0.28038475318E+02 -0.48818724734E+02 -0.39411331280E+02  0.68721736125E+02  0.00000000000E+00 0. -1.
</event>
<event>
 8    1  0.6380238E-009  0.6347274E+02  0.7561462E-02  0.1383810E+00
          2   -1    0    0  501    0  0.00000000000E+00  0.00000000000E+00  0.12101889571E+04  0.12101889571E+04  0.00000000000E+00 0.  1.
         -2   -1    0    0    0  501 -0.00000000000E+00 -0.00000000000E+00 -0.18888433879E+02  0.18888433879E+02  0.00000000000E+00 0. -1.
         25    2    1    2    0    0  0.82090414411E+01 -0.12074663737E+02  0.10684762879E+04  0.10758726264E+04  0.12508854637E+03 0.  0.
         23    2    1    2    0    0 -0.82090414411E+01  0.12074663737E+02  0.12282423529E+03  0.15320476461E+03  0.90403104254E+02 0.  0.
          5    1    3    3  502    0  0.13997148694E+02 -0.22263895732E+02  0.10610480901E+04  0.10613821758E+04  0.41800000000E+01 0. -1.
         -5    1    3    3    0  502 -0.57881072533E+01  0.10189231995E+02  0.74281978213E+01  0.14490450548E+02  0.41800000000E+01 0. -1.
        -11    1    4    4    0    0 -0.47625063503E+02  0.67896372222E+01  0.88240628506E+02  0.10050201175E+03  0.00000000000E+00 0.  1.
         11    1    4    4    0    0  0.39416022062E+02  0.52850265147E+01  0.34583606782E+02  0.52702752855E+02  0.00000000000E+00 0. -1.
</event>
<event>
 8    1  0.6380238E-009  0.1922026E+03  0.7561462E-02  0.1156490E+00
         -2   -1    0    0    0  501 -0.00000000000E+00  0.00000000000E+00  0.15739606971E+03  0.15739606971E+03  0.00000000000E+00 0.  1.
          2   -1    0    0  501    0  0.00000000000E+00 -0.00000000000E+00 -0.29272821940E+03  0.29272821940E+03  0.00000000000E+00 0. -1.
         25    2    1    2    0    0 -0.11827477346E+03 -0.11426103346E+03  0.16560760970E+02  0.20728426506E+03  0.12509197389E+03 0.  0.
         23    2    1    2    0    0  0.11827477346E+03  0.11426103346E+03 -0.15189291066E+03  0.24284002405E+03  0.94102684147E+02 0.  0.
          5    1    3    3  502    0 -0.12189920633E+03 -0.38661402696E+02  0.26993499375E+02  0.13076789350E+03  0.41800000000E+01 0.  1.
         -5    1    3    3    0  502  0.36244328691E+01 -0.75599630767E+02 -0.10432738405E+02  0.76516371557E+02  0.41800000000E+01 0.  1.
        -11    1    4    4    0    0  0.39323486145E+02  0.89744323866E+02 -0.45301898570E+02  0.10794740498E+03  0.00000000000E+00 0.  1.
         11    1    4    4    0    0  0.78951287319E+02  0.24516709596E+02 -0.10659101209E+03  0.13489261906E+03  0.00000000000E+00 0. -1.
</event>
<event>
 8    1  0.6380238E-009  0.1893117E+03  0.7561462E-02  0.1159084E+00
          1   -1    0    0  501    0  0.00000000000E+00  0.00000000000E+00  0.27828888167E+03  0.27828888167E+03  0.00000000000E+00 0. -1.
         -1   -1    0    0    0  501 -0.00000000000E+00 -0.00000000000E+00 -0.19799569172E+03  0.19799569172E+03  0.00000000000E+00 0.  1.
         25    2    1    2    0    0  0.15720887904E+03  0.52158405721E+02  0.16635930392E+03  0.26600553702E+03  0.12509355214E+03 0.  0.
         23    2    1    2    0    0 -0.15720887904E+03 -0.52158405721E+02 -0.86066113976E+02  0.21027903636E+03  0.96823376415E+02 0.  0.
          5    1    3    3  502    0  0.77574171506E+02  0.87535562931E+02  0.71591926904E+02  0.13719731506E+03  0.41800000000E+01 0.  1.
         -5    1    3    3    0  502  0.79634707539E+02 -0.35377157211E+02  0.94767377020E+02  0.12880822196E+03  0.41800000000E+01 0.  1.
        -11    1    4    4    0    0 -0.85322077363E+02  0.35419452531E+00  0.15982017823E+01  0.85337779372E+02  0.00000000000E+00 0. -1.
         11    1    4    4    0    0 -0.71886801682E+02 -0.52512600246E+02 -0.87664315758E+02  0.12494125699E+03  0.00000000000E+00 0.  1.
</event>
<event>
 8    1  0.6380238E-009  0.1672956E+03  0.7561462E-02  0.1180698E+00
         -2   -1    0    0    0  501 -0.00000000000E+00  0.00000000000E+00  0.25886603291E+02  0.25886603291E+02  0.00000000000E+00 0.  1.
          2   -1    0    0  501    0  0.00000000000E+00 -0.00000000000E+00 -0.11631631294E+04  0.11631631294E+04  0.00000000000E+00 0. -1.
         25    2    1    2    0    0 -0.46446302531E+02 -0.12735934445E+03 -0.57883426917E+03  0.60751490412E+03  0.12509031106E+03 0.  0.
         23    2    1    2    0    0  0.46446302531E+02  0.12735934445E+03 -0.55844225693E+03  0.58153482857E+03  0.89147859602E+02 0.  0.
          5    1    3    3  502    0 -0.88923098252E+02 -0.75690315065E+02 -0.39075656633E+03  0.40785353711E+03  0.41800000000E+01 0.  1.
         -5    1    3    3    0  502  0.42476795722E+02 -0.51669029385E+02 -0.18807770284E+03  0.19966136702E+03  0.41800000000E+01 0.  1.
        -11    1    4    4    0    0  0.56065166366E+02  0.57880665502E+02 -0.40332635510E+03  0.41129748727E+03  0.00000000000E+00 0. -1.
         11    1    4    4    0    0 -0.96188638355E+01  0.69478678948E+02 -0.15511590183E+03  0.17023734130E+03  0.00000000000E+00 0.  1.
</event>
<event>
 8    1  0.6380238E-009  0.2083595E+03  0.7561462E-02  0.1142872E+00
         -1   -1    0    0    0  501 -0.00000000000E+00  0.00000000000E+00  0.10373905264E+03  0.10373905264E+03  0.00000000000E+00 0.  1.
          1   -1    0    0  501    0  0.00000000000E+00 -0.00000000000E+00 -0.49588972405E+03  0.49588972405E+03  0.00000000000E+00 0. -1.
         25    2    1    2    0    0 -0.11635826543E+03  0.16032577602E+03 -0.18111233731E+03  0.29613025367E+03  0.12509135873E+03 0.  0.
         23    2    1    2    0    0  0.11635826543E+03 -0.16032577602E+03 -0.21103833411E+03  0.30349852302E+03  0.91271981575E+02 0.  0.
          5    1    3    3  502    0 -0.37594736681E+01  0.15077098560E+02 -0.89133502520E+02  0.90574313217E+02  0.41800000000E+01 0.  1.
         -5    1    3    3    0  502 -0.11259879176E+03  0.14524867746E+03 -0.91978834786E+02  0.20555594046E+03  0.41800000000E+01 0.  1.
        -11    1    4    4    0    0  0.11590668253E+03 -0.90712594061E+02 -0.15837766113E+03  0.21620966056E+03  0.00000000000E+00 0. -1.
         11    1    4    4    0    0  0.45158289257E+00 -0.69613181956E+02 -0.52660672985E+02  0.87288862453E+02  0.00000000000E+00 0.  1.
</event>
<event>
 8    1  0.6380238E-009  0.1740514E+03  0.7561462E-02  0.1173688E+00
         -3   -1    0    0    0  501 -0.00000000000E+00  0.00000000000E+00  0.11801762400E+03  0.11801762400E+03  0.00000000000E+00 0.  1.
          3   -1    0    0  501    0  0.00000000000E+00 -0.00000000000E+00 -0.29276752773E+03  0.29276752773E+03  0.00000000000E+00 0. -1.
         25    2    1    2    0    0 -0.53326865391E+02  0.13886310507E+03 -0.64111941245E+02  0.20465704436E+03  0.12508976088E+03 0.  0.
         23    2    1    2    0    0  0.53326865391E+02 -0.13886310507E+03 -0.11063796248E+03  0.20612810736E+03  0.90118374278E+02 0.  0.
          5    1    3    3  502    0  0.19395453959E+02  0.10827923982E+03 -0.60409004386E+02  0.12556790044E+03  0.41800000000E+01 0.  1.
         -5    1    3    3    0  502 -0.72722319350E+02  0.30583865246E+02 -0.37029368595E+01  0.79089143923E+02  0.41800000000E+01 0.  1.
        -11    1    4    4    0    0  0.15163845873E+02 -0.16387080854E+00  0.10183909288E+02  0.18266939636E+02  0.00000000000E+00 0.  1.
         11    1    4    4    0    0  0.38163019519E+02 -0.13869923426E+03 -0.12082187177E+03  0.18786116773E+03  0.00000000000E+00 0. -1.
</event>
<event>
 8    1  0.6380238E-009  0.8568564E+02  0.7561462E-02  0.1313649E+00
          2   -1    0    0  501    0  0.00000000000E+00  0.00000000000E+00  0.48698856511E+03  0.48698856511E+03  0.00000000000E+00 0.  1.
         -2   -1    0    0    0  501 -0.00000000000E+00 -0.00000000000E+00 -0.27799794065E+02  0.27799794065E+02  0.00000000000E+00 0. -1.
         25    2    1    2    0    0  0.28113339471E+02  0.19133150545E+02  0.31948713828E+03  0.34478479132E+03  0.12509229988E+03 0.  0.
         23    2    1    2    0    0 -0.28113339471E+02 -0.19133150545E+02  0.13970163276E+03  0.17000356785E+03  0.90709589247E+02 0.  0.
          5    1    3    3  502    0 -0.14859262749E+02 -0.13716410360E+02 -0.75467662329E-01  0.20649835302E+02  0.41800000000E+01 0.  1.
         -5    1    3    3    0  502  0.42972602220E+02  0.32849560905E+02  0.31956260594E+03  0.32413495601E+03  0.41800000000E+01 0.  1.
        -11    1    4    4    0    0 -0.24292740747E+02 -0.55143738794E+02  0.79601136500E+02  0.99836416769E+02  0.00000000000E+00 0.  1.
         11    1    4    4    0    0 -0.38205987238E+01  0.36010588249E+02  0.60100496261E+02  0.70167151085E+02  0.00000000000E+00 0. -1.
</event>
<event>
 8    1  0.6380238E-009  0.1057974E+03  0.7561462E-02  0.1268556E+00
          1   -1    0    0  501    0  0.00000000000E+00  0.00000000000E+00  0.65707329085E+03  0.65707329085E+03  0.00000000000E+00 0. -1.
         -1   -1    0    0    0  501 -0.00000000000E+00 -0.00000000000E+00 -0.25965973074E+02  0.25965973074E+02  0.00000000000E+00 0.  1.
         25    2    1    2    0    0  0.43983458970E+02 -0.54314542763E+02  0.37253451050E+03  0.39914338767E+03  0.12509543633E+03 0.  0.
         23    2    1    2    0    0 -0.43983458970E+02  0.54314542763E+02  0.25857280728E+03  0.28389587625E+03  0.94086968659E+02 0.  0.
          5    1    3    3  502    0 -0.12122861919E+02  0.53387939936E+01  0.25750164246E+03  0.25787600658E+03  0.41800000000E+01 0.  1.
         -5    1    3    3    0  502  0.56106320889E+02 -0.59653336757E+02  0.11503286804E+03  0.14126738109E+03  0.41800000000E+01 0.  1.
        -11    1    4    4    0    0  0.21256240692E+02 -0.10529817406E+02  0.36551395774E+02  0.43574182218E+02  0.00000000000E+00 0.  1.
         11    1    4    4    0    0 -0.65239699662E+02  0.64844360169E+02  0.22202141150E+03  0.24032169403E+03  0.00000000000E+00 0. -1.
</event>
<event>
 8    1  0.6380238E-009  0.1022378E+03  0.7561462E-02  0.1275659E+00
         -2   -1    0    0    0  501 -0.00000000000E+00  0.00000000000E+00  0.24275680679E+02  0.24275680679E+02  0.00000000000E+00 0.  1.
          2   -1    0    0  501    0  0.00000000000E+00 -0.00000000000E+00 -0.66854944122E+03  0.66854944122E+03  0.00000000000E+00 0. -1.
         25    2    1    2    0    0  0.14996089705E+02  0.53912274188E+02 -0.45657760964E+03  0.47669947634E+03  0.12509141097E+03 0.  0.
         23    2    1    2    0    0 -0.14996089705E+02 -0.53912274188E+02 -0.18769615090E+03  0.21612564556E+03  0.91373046315E+02 0.  0.
          5    1    3    3  502    0 -0.39897877502E+02  0.52103401002E+02 -0.35603808709E+03  0.36205965929E+03  0.41800000000E+01 0.  1.
         -5    1    3    3    0  502  0.54893967207E+02  0.18088731858E+01 -0.10053952255E+03  0.11463981705E+03  0.41800000000E+01 0.  1.
        -11    1    4    4    0    0  0.70002590617E+01  0.12141686037E+02  0.19073456784E+01  0.14144332232E+02  0.00000000000E+00 0.  1.
         11    1    4    4    0    0 -0.21996348766E+02 -0.66053960224E+02 -0.18960349658E+03  0.20198131333E+03  0.00000000000E+00 0. -1.
</event>
<event>
 8    1  0.6380238E-009  0.1769725E+03  0.7561462E-02  0.1170766E+00
         -2   -1    0    0    0  501 -0.00000000000E+00  0.00000000000E+00  0.64787930983E+02  0.64787930983E+02  0.00000000000E+00 0.  1.
          2   -1    0    0  501    0  0.00000000000E+00 -0.00000000000E+00 -0.12917907846E+04  0.12917907846E+04  0.00000000000E+00 0. -1.
         25    2    1    2    0    0 -0.49478358879E+02  0.15018922053E+03 -0.11339269855E+04  0.11517130004E+04  0.12509003510E+03 0.  0.
         23    2    1    2    0    0  0.49478358879E+02 -0.15018922053E+03 -0.93075868065E+02  0.20486571513E+03  0.91114949702E+02 0.  0.
          5    1    3    3  502    0 -0.76323326743E+02  0.14394047233E+03 -0.78873275161E+03  0.80539489422E+03  0.41800000000E+01 0. -1.
         -5    1    3    3    0  502  0.26844967863E+02  0.62487482040E+01 -0.34519423390E+03  0.34631810618E+03  0.41800000000E+01 0. -1.
        -11    1    4    4    0    0  0.43643407466E+02 -0.68690623334E+02 -0.49287276816E+00  0.81384222505E+02  0.00000000000E+00 0.  1.
         11    1    4    4    0    0  0.58349514130E+01 -0.81498597199E+02 -0.92582995297E+02  0.12348149263E+03  0.00000000000E+00 0. -1.
</event>
<event>
 8    1  0.6380238E-009  0.2044284E+03  0.7561462E-02  0.1146056E+00
         -1   -1    0    0    0  501 -0.00000000000E+00  0.00000000000E+00  0.24270076172E+02  0.24270076172E+02  0.00000000000E+00 0.  1.
          1   -1    0    0  501    0  0.00000000000E+00 -0.00000000000E+00 -0.24099369090E+04  0.24099369090E+04  0.00000000000E+00 0. -1.
         25    2    1    2    0    0  0.47124461650E+02  0.19801535318E+03 -0.15807372036E+04  0.15986896911E+04  0.12509127300E+03 0.  0.
         23    2    1    2    0    0 -0.47124461650E+02 -0.19801535318E+03 -0.80492962924E+03  0.83551729410E+03  0.93523503552E+02 0.  0.
          5    1    3    3  502    0  0.68247838953E+01  0.14929333682E+02 -0.59700111883E+03  0.59724138417E+03  0.41800000000E+01 0. -1.
         -5    1    3    3    0  502  0.40299677754E+02  0.18308601950E+03 -0.98373608480E+03  0.10014483070E+04  0.41800000000E+01 0. -1.
        -11    1    4    4    0    0 -0.11908204004E+02 -0.23229333610E+02 -0.27550485111E+02  0.37953082779E+02  0.00000000000E+00 0. -1.
         11    1    4    4    0    0 -0.35216257646E+02 -0.17478601957E+03 -0.77737914413E+03  0.79756421132E+03  0.00000000000E+00 0.  1.
</event>
<event>
 8    1  0.6380238E-009  0.1968680E+03  0.7561462E-02  0.1152409E+00
          3   -1    0    0  501    0  0.00000000000E+00  0.00000000000E+00  0.65425085077E+02  0.65425085077E+02  0.00000000000E+00 0. -1.
         -3   -1    0    0    0  501 -0.00000000000E+00 -0.00000000000E+00 -0.65761071671E+03  0.65761071671E+03  0.00000000000E+00 0.  1.
         25    2    1    2    0    0 -0.10811151815E+03  0.13727496939E+03 -0.26140701607E+03  0.33839938954E+03  0.12509197101E+03 0.  0.
         23    2    1    2    0    0  0.10811151815E+03 -0.13727496939E+03 -0.33077861557E+03  0.38463641225E+03  0.89432430006E+02 0.  0.
          5    1    3    3  502    0 -0.79215840606E+02  0.15890546087E+03 -0.22825288431E+03  0.28921090314E+03  0.41800000000E+01 0.  1.
         -5    1    3    3    0  502 -0.28895677540E+02 -0.21630491472E+02 -0.33154131753E+02  0.49188486398E+02  0.41800000000E+01 0.  1.
        -11    1    4    4    0    0  0.58399601882E+02 -0.40721042045E+02 -0.60762140653E+02  0.93598902248E+02  0.00000000000E+00 0. -1.
         11    1    4    4    0    0  0.49711916263E+02 -0.96553927349E+02 -0.27001647492E+03  0.29103751001E+03  0.00000000000E+00 0.  1.
</event>
<event>
 8    1  0.6380238E-009  0.2123165E+03  0.7561462E-02  0.1139745E+00
         -2   -1    0    0    0  501 -0.00000000000E+00  0.00000000000E+00  0.12670115762E+03  0.12670115762E+03  0.00000000000E+00 0.  1.
          2   -1    0    0  501    0  0.00000000000E+00 -0.00000000000E+00 -0.43357453133E+03  0.43357453133E+03  0.00000000000E+00 0. -1.
         25    2    1    2    0    0  0.19174229450E+03 -0.37482987369E+02 -0.76281453831E+02  0.24420452278E+03  0.12508759693E+03 0.  0.
         23    2    1    2    0    0 -0.19174229450E+03  0.37482987369E+02 -0.23059191988E+03  0.31607116616E+03  0.92510900558E+02 0.  0.
          5    1    3    3  502    0  0.20256759623E+03 -0.15560921320E+02 -0.81353535097E+02  0.21888728466E+03  0.41800000000E+01 0.  1.
         -5    1    3    3    0  502 -0.10825301731E+02 -0.21922066050E+02  0.50720812664E+01  0.25317238116E+02  0.41800000000E+01 0.  1.
        -11    1    4    4    0    0 -0.78713670063E+02  0.26526469567E+02 -0.16551308245E+03  0.18518659753E+03  0.00000000000E+00 0. -1.
         11    1    4    4    0    0 -0.11302862444E+03  0.10956517802E+02 -0.65078837430E+02  0.13088456863E+03  0.00000000000E+00 0.  1.
</event>
<event>
 8    1  0.6380238E-009  0.1245537E+03  0.7561462E-02  0.1235768E+00
         -3   -1    0    0    0  501 -0.00000000000E+00  0.00000000000E+00  0.20645428000E+02  0.20645428000E+02  0.00000000000E+00 0.  1.
          3   -1    0    0  501    0  0.00000000000E+00 -0.00000000000E+00 -0.89321836375E+03  0.89321836375E+03  0.00000000000E+00 0. -1.
         25    2    1    2    0    0 -0.76758899479E+02 -0.82560939904E+01 -0.56090102798E+03  0.57984009194E+03  0.12507788491E+03 0.  0.
         23    2    1    2    0    0  0.76758899479E+02  0.82560939904E+01 -0.31167190778E+03  0.33402369982E+03  0.92045435551E+02 0.  0.
          5    1    3    3  502    0 -0.10436540732E+03  0.21993543534E+00 -0.30729767086E+03  0.32456358011E+03  0.41800000000E+01 0.  1.
         -5    1    3    3    0  502  0.27606507842E+02 -0.84760294258E+01 -0.25360335712E+03  0.25527651183E+03  0.41800000000E+01 0.  1.
        -11    1    4    4    0    0  0.22475143086E+02 -0.38007314811E+02 -0.77105653175E+02  0.88853642511E+02  0.00000000000E+00 0.  1.
         11    1    4    4    0    0  0.54283756393E+02  0.46263408802E+02 -0.23456625460E+03  0.24517005731E+03  0.00000000000E+00 0. -1.
</event>
<event>
 8    1  0.6380238E-009  0.1457123E+03  0.7561462E-02  0.1205843E+00
          1   -1    0    0  501    0  0.00000000000E+00  0.00000000000E+00  0.39767542947E+03  0.39767542947E+03  0.00000000000E+00 0. -1.
         -1   -1    0    0    0  501 -0.00000000000E+00 -0.00000000000E+00 -0.60064808163E+02  0.60064808163E+02  0.00000000000E+00 0.  1.
         25    2    1    2    0    0  0.10099825282E+03  0.11922775075E+01  0.24160584614E+03  0.29021197713E+03  0.12509012026E+03 0.  0.
         23    2    1    2    0    0 -0.10099825282E+03 -0.11922775075E+01  0.96004775166E+02  0.16752826050E+03  0.92987808945E+02 0.  0.
          5    1    3    3  502    0  0.55999062597E+02  0.62802521274E+02  0.12101832702E+03  0.14745494079E+03  0.41800000000E+01 0.  1.
         -5    1    3    3    0  502  0.44999190221E+02 -0.61610243766E+02  0.12058751912E+03  0.14275703634E+03  0.41800000000E+01 0.  1.
        -11    1    4    4    0    0 -0.53805906311E+02  0.40858089974E+02  0.74948420544E+02  0.10090453316E+03  0.00000000000E+00 0.  1.
         11    1    4    4    0    0 -0.47192346507E+02 -0.42050367481E+02  0.21056354621E+02  0.66623727336E+02  0.00000000000E+00 0. -1.
</event>
<event>
 8    1  0.6380238E-009  0.1259216E+03  0.7561462E-02  0.1233636E+00
         -3   -1    0    0    0  501 -0.00000000000E+00  0.00000000000E+00  0.74136131658E+02  0.74136131658E+02  0.00000000000E+00 0.  1.
          3   -1    0    0  501    0  0.00000000000E+00 -0.00000000000E+00 -0.27551242903E+03  0.27551242903E+03  0.00000000000E+00 0. -1.
         25    2    1    2    0    0  0.83629200967E+02 -0.16769013305E+02 -0.65777524201E+02  0.16507296311E+03  0.12508939762E+03 0.  0.
         23    2    1    2    0    0 -0.83629200967E+02  0.16769013305E+02 -0.13559877317E+03  0.18457559758E+03  0.91684681795E+02 0.  0.
          5    1    3    3  502    0  0.54473328526E+02 -0.71031934764E+02 -0.36902513719E+02  0.96913090942E+02  0.41800000000E+01 0.  1.
         -5    1    3    3    0  502  0.29155872441E+02  0.54262921459E+02 -0.28875010482E+02  0.68159872164E+02  0.41800000000E+01 0.  1.
        -11    1    4    4    0    0 -0.37455960832E+02 -0.19077946184E+02 -0.11525628724E+03  0.12268222683E+03  0.00000000000E+00 0. -1.
         11    1    4    4    0    0 -0.46173240135E+02  0.35846959489E+02 -0.20342485937E+02  0.61893370754E+02  0.00000000000E+00 0.  1.
</event>
<event>
 8    1  0.6380238E-009  0.1619007E+03  0.7561462E-02  0.1186567E+00
          1   -1    0    0  501    0  0.00000000000E+00  0.00000000000E+00  0.45916359956E+02  0.45916359956E+02  0.00000000000E+00 0. -1.
         -1   -1    0    0    0  501 -0.00000000000E+00 -0.00000000000E+00 -0.76645628857E+03  0.76645628857E+03  0.00000000000E+00 0.  1.
         25    2    1    2    0    0 -0.98022181756E+02 -0.89028507471E+02 -0.54421219727E+03  0.57388880600E+03  0.12508805992E+03 0.  0.
         23    2    1    2    0    0  0.98022181756E+02  0.89028507471E+02 -0.17632773134E+03  0.23848384252E+03  0.90822084576E+02 0.  0.
          5    1    3    3  502    0 -0.71142967435E+02 -0.19561185372E+00 -0.11952432448E+03  0.13915781193E+03  0.41800000000E+01 0. -1.
         -5    1    3    3    0  502 -0.26879214322E+02 -0.88832895617E+02 -0.42468787280E+03  0.43473099407E+03  0.41800000000E+01 0. -1.
        -11    1    4    4    0    0  0.86031389694E+02  0.10745182388E+03 -0.16023783370E+03  0.21124265151E+03  0.00000000000E+00 0.  1.
         11    1    4    4    0    0  0.11990792062E+02 -0.18423316409E+02 -0.16089897636E+02  0.27241191012E+02  0.00000000000E+00 0. -1.
</event>
<event>
 8    1  0.6380238E-009  0.1191929E+03  0.7561462E-02  0.1244434E+00
          3   -1    0    0  501    0  0.00000000000E+00  0.00000000000E+00  0.40825543336E+02  0.40825543336E+02  0.00000000000E+00 0. -1.
         -3   -1    0    0    0  501 -0.00000000000E+00 -0.00000000000E+00 -0.52423814020E+03  0.52423814020E+03  0.00000000000E+00 0.  1.
         25    2    1    2    0    0 -0.67003270427E+02 -0.51418384842E+02 -0.17871130280E+03  0.23391987825E+03  0.12508993224E+03 0.  0.
         23    2    1    2    0    0  0.67003270427E+02  0.51418384842E+02 -0.30470129407E+03  0.33114380529E+03  0.98387258441E+02 0.  0.
          5    1    3    3  502    0 -0.35901938284E+02  0.32781872513E+02 -0.11148946448E+03  0.12170034276E+03  0.41800000000E+01 0. -1.
         -5    1    3    3    0  502 -0.31101332143E+02 -0.84200257355E+02 -0.67221838318E+02  0.11221953549E+03  0.41800000000E+01 0. -1.
        -11    1    4    4    0    0  0.73123890643E+02  0.32818846103E+02 -0.30064726337E+03  0.31114780573E+03  0.00000000000E+00 0.  1.
         11    1    4    4    0    0 -0.61206202163E+01  0.18599538739E+02 -0.40540307017E+01  0.19995999552E+02  0.00000000000E+00 0. -1.
</event>
<event>
 8    1  0.6380238E-009  0.9772836E+02  0.7561462E-02  0.1285147E+00
         -2   -1    0    0    0  501 -0.00000000000E+00  0.00000000000E+00  0.53769943820E+02  0.53769943820E+02  0.00000000000E+00 0. -1.
          2   -1    0    0  501    0  0.00000000000E+00 -0.00000000000E+00 -0.23669729107E+03  0.23669729107E+03  0.00000000000E+00 0.  1.
         25    2    1    2    0    0 -0.34309128347E+02  0.10733170009E+02 -0.10560815892E+03  0.16760515645E+03  0.12508432361E+03 0.  0.
         23    2    1    2    0    0  0.34309128347E+02 -0.10733170009E+02 -0.77319188329E+02  0.12286207844E+03  0.88456295469E+02 0.  0.
          5    1    3    3  502    0  0.99624520490E+00  0.64759125589E+02 -0.45048046661E+02  0.79003390810E+02  0.41800000000E+01 0.  1.
         -5    1    3    3    0  502 -0.35305373552E+02 -0.54025955579E+02 -0.60560112258E+02  0.88601765640E+02  0.41800000000E+01 0.  1.
        -11    1    4    4    0    0 -0.14137452569E+02  0.49189428403E+01  0.12576293692E+02  0.19550619602E+02  0.00000000000E+00 0. -1.
         11    1    4    4    0    0  0.48446580916E+02 -0.15652112850E+02 -0.89895482021E+02  0.10331145884E+03  0.00000000000E+00 0.  1.
</event>
<event>
 8    1  0.6380238E-009  0.1096018E+03  0.7561462E-02  0.1261309E+00
         -2   -1    0    0    0  501 -0.00000000000E+00  0.00000000000E+00  0.85714902738E+02  0.85714902738E+02  0.00000000000E+00 0.  1.
          2   -1    0    0  501    0  0.00000000000E+00 -0.00000000000E+00 -0.15973130308E+03  0.15973130308E+03  0.00000000000E+00 0. -1.
         25    2    1    2    0    0 -0.35121200820E+02  0.16038756849E+02 -0.66556297324E+02  0.14685624137E+03  0.12508506885E+03 0.  0.
         23    2    1    2    0    0  0.35121200820E+02 -0.16038756849E+02 -0.74601030127E+01  0.98589964440E+02  0.90407895026E+02 0.  0.
          5    1    3    3  502    0 -0.66295359002E+02  0.46276516905E+02 -0.20703648436E+02  0.83562575958E+02  0.41800000000E+01 0. -1.
         -5    1    3    3    0  502  0.31174158183E+02 -0.30237760057E+02 -0.45852648888E+02  0.63293665415E+02  0.41800000000E+01 0. -1.
        -11    1    4    4    0    0  0.50772590460E+00  0.33872811321E+02 -0.15621382853E+02  0.37304862078E+02  0.00000000000E+00 0.  1.
         11    1    4    4    0    0  0.34613474915E+02 -0.49911568170E+02  0.81612798406E+01  0.61285102362E+02  0.00000000000E+00 0. -1.
</event>
<event>
 8    1  0.6380238E-009  0.1158479E+03  0.7561462E-02  0.1250108E+00
          2   -1    0    0  501    0  0.00000000000E+00  0.00000000000E+00  0.43703450314E+03  0.43703450314E+03  0.00000000000E+00 0. -1.
         -2   -1    0    0    0  501 -0.00000000000E+00 -0.00000000000E+00 -0.60842610685E+02  0.60842610685E+02  0.00000000000E+00 0.  1.
         25    2    1    2    0    0  0.35644354181E+02  0.10510287032E+03  0.12316358768E+03  0.20768641524E+03  0.12508894600E+03 0.  0.
         23    2    1    2    0    0 -0.35644354181E+02 -0.10510287032E+03  0.25302830477E+03  0.29019069858E+03  0.88714064233E+02 0.  0.
          5    1    3    3  502    0 -0.19214338673E+01  0.23360937593E+02 -0.24858083643E+02  0.34421243960E+02  0.41800000000E+01 0.  1.
         -5    1    3    3    0  502  0.37565788049E+02  0.81741932726E+02  0.14802167133E+03  0.17326517128E+03  0.41800000000E+01 0.  1.
        -11    1    4    4    0    0 -0.44306937302E+02 -0.82937232130E+02  0.24885770446E+03  0.26602978449E+03  0.00000000000E+00 0. -1.
         11    1    4    4    0    0  0.86625831205E+01 -0.22165638189E+02  0.41706003083E+01  0.24160914088E+02  0.00000000000E+00 0.  1.
</event>
<event>
 7    1  0.6380238E-009  0.2841382E+03  0.7561462E-02  0.1093450E+00
          2   -1    0    0  501    0  0.00000000000E+00  0.00000000000E+00  0.18984041476E+04  0.18984041476E+04  0.00000000000E+00 0. -1.
         -2   -1    0    0    0  501 -0.00000000000E+00 -0.00000000000E+00 -0.76819658807E+02  0.76819658807E+02  0.00000000000E+00 0.  1.
         23    2    1    2    0    0 -0.25384487437E+02 -0.27592808869E+03  0.27104304123E+03  0.39515307769E+03  0.76817590961E+02 0.  0.
          5    1    1    2  502    0 -0.11873786155E+02  0.13033499137E+03  0.43018529714E+03  0.44967216842E+03  0.41800000000E+01 0.  1.
         -5    1    1    2    0  502  0.37258273592E+02  0.14559309732E+03  0.11203561504E+04  0.11303985603E+04  0.41800000000E+01 0.  1.
        -11    1    3    3    0    0  0.26564840714E+02 -0.80084492292E+02  0.68744848302E+02  0.10883506253E+03  0.00000000000E+00 0.  1.
         11    1    3    3    0    0 -0.51949328151E+02 -0.19584359640E+03  0.20229819293E+03  0.28631801516E+03  0.00000000000E+00 0. -1.
</event>
<event>
 7    1  0.6380238E-009  0.9428319E+02  0.7561462E-02  0.1292799E+00
         -2   -1    0    0    0  501 -0.00000000000E+00  0.00000000000E+00  0.19682911158E+02  0.19682911158E+02  0.00000000000E+00 0.  1.
          2   -1    0    0  501    0  0.00000000000E+00 -0.00000000000E+00 -0.75423671161E+03  0.75423671161E+03  0.00000000000E+00 0. -1.
         23    2    1    2    0    0  0.24368004126E+02 -0.17155632164E+02 -0.16444202485E+03  0.18950959838E+03  0.89356549847E+02 0.  0.
          5    1    1    2  502    0  0.14363101553E+02  0.45275347327E+02 -0.47935558070E+03  0.48172128966E+03  0.41800000000E+01 0.  1.
         -5    1    1    2    0  502 -0.38731105678E+02 -0.28119715163E+02 -0.90756194907E+02  0.10268873474E+03  0.41800000000E+01 0.  1.
        -11    1    3    3    0    0  0.39853436335E+02  0.25598888638E+02 -0.67834309221E+02  0.82735077172E+02  0.00000000000E+00 0.  1.
         11    1    3    3    0    0 -0.15485432209E+02 -0.42754520801E+02 -0.96607715627E+02  0.10677452120E+03  0.00000000000E+00 0. -1.
</event>
<event>
 8    1  0.6380238E-009  0.9518965E+02  0.7561462E-02  0.1290750E+00
         -3   -1    0    0    0  501 -0.00000000000E+00  0.00000000000E+00  0.95260874117E+03  0.95260874117E+03  0.00000000000E+00 0.  1.
          3   -1    0    0  501    0  0.00000000000E+00 -0.00000000000E+00 -0.15722833768E+02  0.15722833768E+02  0.00000000000E+00 0. -1.
         25    2    1    2    0    0  0.49226829398E+02 -0.26916984795E+02  0.62537981022E+03  0.64022936670E+03  0.12508369259E+03 0.  0.
         23    2    1    2    0    0 -0.49226829398E+02  0.26916984795E+02  0.31150609719E+03  0.32810220825E+03  0.86412994771E+02 0.  0.
          5    1    3    3  502    0  0.72778913667E+02 -0.18176145973E+02  0.59851427704E+03  0.60321136824E+03  0.41800000000E+01 0. -1.
         -5    1    3    3    0  502 -0.23552084269E+02 -0.87408388219E+01  0.26865533176E+02  0.37017998454E+02  0.41800000000E+01 0. -1.
        -11    1    4    4    0    0  0.13240422971E+02 -0.10558846163E+02  0.14504629058E+02  0.22297585001E+02  0.00000000000E+00 0. -1.
         11    1    4    4    0    0 -0.62467252370E+02  0.37475830958E+02  0.29700146813E+03  0.30580462324E+03  0.00000000000E+00 0.  1.
</event>
<event>
 8    1  0.6380238E-009  0.7903471E+02  0.7561462E-02  0.1331813E+00
          3   -1    0    0  501    0  0.00000000000E+00  0.00000000000E+00  0.55416467758E+02  0.55416467758E+02  0.00000000000E+00 0. -1.
         -3   -1    0    0    0  501 -0.00000000000E+00 -0.00000000000E+00 -0.23188083919E+03  0.23188083919E+03  0.00000000000E+00 0.  1.
         25    2    1    2    0    0  0.22706393198E+01  0.24650001217E+02 -0.97800696258E+02  0.16070408810E+03  0.12509216354E+03 0.  0.
         23    2    1    2    0    0 -0.22706393198E+01 -0.24650001217E+02 -0.78663675172E+02  0.12659321885E+03  0.96047336788E+02 0.  0.
          5    1    3    3  502    0 -0.14248292302E+02  0.47521389919E+02  0.86198809845E+01  0.50527923780E+02  0.41800000000E+01 0.  1.
         -5    1    3    3    0  502  0.16518931622E+02 -0.22871388702E+02 -0.10642057724E+03  0.11017616432E+03  0.41800000000E+01 0.  1.
        -11    1    4    4    0    0  0.11275122292E+02  0.25464081137E+02 -0.68158672732E+02  0.73628476009E+02  0.00000000000E+00 0.  1.
         11    1    4    4    0    0 -0.13545761612E+02 -0.50114082354E+02 -0.10505002441E+02  0.52964742840E+02  0.00000000000E+00 0. -1.
</event>
<event>
 8    1  0.6380238E-009  0.1411260E+03  0.7561462E-02  0.1211822E+00
         -1   -1    0    0    0  501 -0.00000000000E+00  0.00000000000E+00  0.16011920487E+02  0.16011920487E+02  0.00000000000E+00 0.  1.
          1   -1    0    0  501    0  0.00000000000E+00 -0.00000000000E+00 -0.12608945657E+04  0.12608945657E+04  0.00000000000E+00 0. -1.
         25    2    1    2    0    0 -0.52866547322E+02 -0.71456550338E+02 -0.66474307496E+03  0.68221826246E+03  0.12504995604E+03 0.  0.
         23    2    1    2    0    0  0.52866547322E+02  0.71456550338E+02 -0.58013957027E+03  0.59468822375E+03  0.95871017843E+02 0.  0.
          5    1    3    3  502    0  0.40369006465E+02 -0.19250997687E+02 -0.24383530621E+03  0.24793827165E+03  0.41800000000E+01 0. -1.
         -5    1    3    3    0  502 -0.93235553786E+02 -0.52205552651E+02 -0.42090776876E+03  0.43427999081E+03  0.41800000000E+01 0. -1.
        -11    1    4    4    0    0 -0.15369784660E+02  0.59078125696E+02 -0.25023152446E+03  0.25756993429E+03  0.00000000000E+00 0.  1.
         11    1    4    4    0    0  0.68236331982E+02  0.12378424643E+02 -0.32990804581E+03  0.33711828946E+03  0.00000000000E+00 0. -1.
</event>
<event>
 8    1  0.6380238E-009  0.6980012E+02  0.7561462E-02  0.1360774E+00
         -2   -1    0    0    0  501 -0.00000000000E+00  0.00000000000E+00  0.16340876584E+03  0.16340876584E+03  0.00000000000E+00 0.  1.
          2   -1    0    0  501    0  0.00000000000E+00 -0.00000000000E+00 -0.10074123504E+03  0.10074123504E+03  0.00000000000E+00 0. -1.
         25    2    1    2    0    0 -0.20046883829E+02 -0.10023926029E+02  0.10282391289E+03  0.16346401613E+03  0.12508145692E+03 0.  0.
         23    2    1    2    0    0  0.20046883829E+02  0.10023926029E+02 -0.40156382086E+02  0.10068598474E+03  0.89569949515E+02 0.  0.
          5    1    3    3  502    0 -0.10006138583E+02 -0.57731780647E+02  0.98050527125E+02  0.11429986691E+03  0.41800000000E+01 0. -1.
         -5    1    3    3    0  502 -0.10040745246E+02  0.47707854618E+02  0.47733857626E+01  0.49164149225E+02  0.41800000000E+01 0. -1.
        -11    1    4    4    0    0 -0.79388422774E+00  0.11033231331E+02 -0.66311528997E+02  0.67227831466E+02  0.00000000000E+00 0. -1.
         11    1    4    4    0    0  0.20840768057E+02 -0.10093053017E+01  0.26155146911E+02  0.33458153272E+02  0.00000000000E+00 0.  1.
</event>
<event>
 8    1  0.6380238E-009  0.1147341E+03  0.7561462E-02  0.1252046E+00
          1   -1    0    0  501    0  0.00000000000E+00  0.00000000000E+00  0.10516862805E+03  0.10516862805E+03  0.00000000000E+00 0. -1.
         -1   -1    0    0    0  501 -0.00000000000E+00 -0.00000000000E+00 -0.25108705811E+03  0.25108705811E+03  0.00000000000E+00 0.  1.
         25    2    1    2    0    0  0.50880685536E+02 -0.70975963393E+02 -0.16882896396E+03  0.22754414141E+03  0.12508671264E+03 0.  0.
         23    2    1    2    0    0 -0.50880685536E+02  0.70975963393E+02  0.22910533902E+02  0.12871154476E+03  0.91735149476E+02 0.  0.
          5    1    3    3  502    0  0.78939025596E+01 -0.66617544204E+02 -0.16580978819E+02  0.69228694571E+02  0.41800000000E+01 0.  1.
         -5    1    3    3    0  502  0.42986782976E+02 -0.43584191890E+01 -0.15224798514E+03  0.15831544684E+03  0.41800000000E+01 0.  1.
        -11    1    4    4    0    0 -0.38452923794E+02 -0.76812621279E+01  0.29111415844E+02  0.48837523162E+02  0.00000000000E+00 0. -1.
         11    1    4    4    0    0 -0.12427761742E+02  0.78657225521E+02 -0.62008819420E+01  0.79874021593E+02  0.00000000000E+00 0.  1.
</event>
<event>
 8    1  0.6380238E-009  0.8868234E+02  0.7561462E-02  0.1306074E+00
          1   -1    0    0  501    0  0.00000000000E+00  0.00000000000E+00  0.31640967344E+03  0.31640967344E+03  0.00000000000E+00 0. -1.
         -1   -1    0    0    0  501 -0.00000000000E+00 -0.00000000000E+00 -0.46094674876E+02  0.46094674876E+02  0.00000000000E+00 0.  1.
         25    2    1    2    0    0 -0.16687112240E+01  0.29243938615E+02  0.21972179354E+03  0.25452487204E+03  0.12508897388E+03 0.  0.
         23    2    1    2    0    0  0.16687112240E+01 -0.29243938615E+02  0.50593205023E+02  0.10797947628E+03  0.90784923637E+02 0.  0.
          5    1    3    3  502    0 -0.48132770024E+02  0.43639719433E+02  0.63863469601E+02  0.91198705100E+02  0.41800000000E+01 0.  1.
         -5    1    3    3    0  502  0.46464058800E+02 -0.14395780819E+02  0.15585832394E+03  0.16332616694E+03  0.41800000000E+01 0.  1.
        -11    1    4    4    0    0 -0.14304126995E+02  0.12339926839E+02  0.59608409416E+02  0.62530347165E+02  0.00000000000E+00 0. -1.
         11    1    4    4    0    0  0.15972838219E+02 -0.41583865453E+02 -0.90152043930E+01  0.45449129112E+02  0.00000000000E+00 0.  1.
</event>
<event>
 8    1  0.6380238E-009  0.1313382E+03  0.7561462E-02  0.1225483E+00
          1   -1    0    0  501    0  0.00000000000E+00  0.00000000000E+00  0.45565931976E+02  0.45565931976E+02  0.00000000000E+00 0. -1.
         -1   -1    0    0    0  501 -0.00000000000E+00 -0.00000000000E+00 -0.93291123605E+03  0.93291123605E+03  0.00000000000E+00 0.  1.
         25    2    1    2    0    0  0.12305139609E+03 -0.16217050463E+02 -0.75924821939E+03  0.77943007250E+03  0.12509492580E+03 0.  0.
         23    2    1    2    0    0 -0.12305139609E+03  0.16217050463E+02 -0.12809708468E+03  0.19904709553E+03  0.88352953132E+02 0.  0.
          5    1    3    3  502    0  0.32647141035E+02  0.18789076394E+02 -0.45954581180E+02  0.59566443077E+02  0.41800000000E+01 0. -1.
         -5    1    3    3    0  502  0.90404255058E+02 -0.35006126857E+02 -0.71329363821E+03  0.71986362942E+03  0.41800000000E+01 0. -1.
        -11    1    4    4    0    0 -0.10153921290E+03  0.12703565840E+01 -0.13774653762E+03  0.17113133608E+03  0.00000000000E+00 0.  1.
         11    1    4    4    0    0 -0.21512183189E+02  0.14946693879E+02  0.96494529355E+01  0.27915759446E+02  0.00000000000E+00 0. -1.
</event>
<event>
 8    1  0.6380238E-009  0.7620259E+02  0.7561462E-02  0.1340187E+00
         -2   -1    0    0    0  501 -0.00000000000E+00  0.00000000000E+00  0.32184407994E+02  0.32184407994E+02  0.00000000000E+00 0.  1.
          2   -1    0    0  501    0  0.00000000000E+00 -0.00000000000E+00 -0.37928186702E+03  0.37928186702E+03  0.00000000000E+00 0. -1.
         25    2    1    2    0    0  0.20650291124E+01  0.98958636631E+01 -0.23815692145E+03  0.26920290605E+03  0.12509713397E+03 0.  0.
         23    2    1    2    0    0 -0.20650291124E+01 -0.98958636631E+01 -0.10894053758E+03  0.14226336897E+03  0.90932023841E+02 0.  0.
          5    1    3    3  502    0  0.89996146590E+01 -0.43380477366E+02 -0.28765740564E+02  0.52988669645E+02  0.41800000000E+01 0.  1.
         -5    1    3    3    0  502 -0.69345855466E+01  0.53276341029E+02 -0.20939118089E+03  0.21621423641E+03  0.41800000000E+01 0.  1.
        -11    1    4    4    0    0 -0.23819723068E+02  0.87381200492E+01 -0.11069498245E+03  0.11356545729E+03  0.00000000000E+00 0. -1.
         11    1    4    4    0    0  0.21754693956E+02 -0.18633983712E+02  0.17544448735E+01  0.28697911682E+02  0.00000000000E+00 0.  1.
</event>
<event>
 8    1  0.6380238E-009  0.1422683E+03  0.7561462E-02  0.1210309E+00
          2   -1    0    0  501    0  0.00000000000E+00  0.00000000000E+00  0.25221382297E+03  0.25221382297E+03  0.00000000000E+00 0. -1.
         -2   -1    0    0    0  501 -0.00000000000E+00 -0.00000000000E+00 -0.10510103390E+03  0.10510103390E+03  0.00000000000E+00 0.  1.
         25    2    1    2    0    0  0.35409914700E+02  0.10406307172E+03  0.22461819260E+02  0.16803192609E+03  0.12508880808E+03 0.  0.
         23    2    1    2    0    0 -0.35409914700E+02 -0.10406307172E+03  0.12465096981E+03  0.18928293077E+03  0.90593480184E+02 0.  0.
          5    1    3    3  502    0  0.78020223045E+02  0.52884485268E+02  0.34057094161E+02  0.10030594224E+03  0.41800000000E+01 0. -1.
         -5    1    3    3    0  502 -0.42610308345E+02  0.51178586453E+02 -0.11595274901E+02  0.67725983851E+02  0.41800000000E+01 0. -1.
        -11    1    4    4    0    0 -0.50030518104E+02 -0.91051455352E+02  0.13234607832E+03  0.16825250283E+03  0.00000000000E+00 0. -1.
         11    1    4    4    0    0  0.14620603403E+02 -0.13011616370E+02 -0.76951085059E+01  0.21030427940E+02  0.00000000000E+00 0.  1.
</event>
<event>
 8    1  0.6380238E-009  0.8959102E+02  0.7561462E-02  0.1303845E+00
          2   -1    0    0  501    0  0.00000000000E+00  0.00000000000E+00  0.11671650425E+04  0.11671650425E+04  0.00000000000E+00 0.  1.
         -2   -1    0    0    0  501 -0.00000000000E+00 -0.00000000000E+00 -0.13305271114E+02  0.13305271114E+02  0.00000000000E+00 0. -1.
         25    2    1    2    0    0 -0.42034911955E+02 -0.22522786774E+02  0.83559509208E+03  0.84625065816E+03  0.12508720476E+03 0.  0.
         23    2    1    2    0    0  0.42034911955E+02  0.22522786774E+02  0.31826467931E+03  0.33421965545E+03  0.90200677631E+02 0.  0.
          5    1    3    3  502    0 -0.31351583545E+02  0.30947157648E+02  0.10955919400E+03  0.11815810487E+03  0.41800000000E+01 0. -1.
         -5    1    3    3    0  502 -0.10683328410E+02 -0.53469944423E+02  0.72603589808E+03  0.72809255329E+03  0.41800000000E+01 0. -1.
        -11    1    4    4    0    0  0.21856617843E+02  0.45007150758E+02  0.28469181398E+03  0.28905498493E+03  0.00000000000E+00 0.  1.
         11    1    4    4    0    0  0.20178294112E+02 -0.22484363984E+02  0.33572865328E+02  0.45164670522E+02  0.00000000000E+00 0. -1.
</event>
<event>
 8    1  0.6380238E-009  0.1024703E+03  0.7561462E-02  0.1275185E+00
         -2   -1    0    0    0  501 -0.00000000000E+00  0.00000000000E+00  0.60804905761E+02  0.60804905761E+02  0.00000000000E+00 0.  1.
          2   -1    0    0  501    0  0.00000000000E+00 -0.00000000000E+00 -0.38536173550E+03  0.38536173550E+03  0.00000000000E+00 0. -1.
         25    2    1    2    0    0  0.65744216169E+02  0.27539423990E+02 -0.57136533952E+02  0.15489403386E+03  0.12508739497E+03 0.  0.
         23    2    1    2    0    0 -0.65744216169E+02 -0.27539423990E+02 -0.26742029579E+03  0.29127260740E+03  0.90804159548E+02 0.  0.
          5    1    3    3  502    0  0.17207984823E+02  0.39802052229E+02  0.30985199583E+02  0.53459078710E+02  0.41800000000E+01 0.  1.
         -5    1    3    3    0  502  0.48536231346E+02 -0.12262628239E+02 -0.88121733534E+02  0.10143495515E+03  0.41800000000E+01 0.  1.
        -11    1    4    4    0    0 -0.36998094368E+02  0.29466100083E+02 -0.76299149951E+02  0.89770097048E+02  0.00000000000E+00 0.  1.
         11    1    4    4    0    0 -0.28746121802E+02 -0.57005524073E+02 -0.19112114584E+03  0.20150251036E+03  0.00000000000E+00 0. -1.
</event>
<event>
 8    1  0.6380238E-009  0.1014514E+03  0.7561462E-02  0.1277273E+00
          1   -1    0    0  501    0  0.00000000000E+00  0.00000000000E+00  0.21348670317E+03  0.21348670317E+03  0.00000000000E+00 0. -1.
         -1   -1    0    0    0  501 -0.00000000000E+00 -0.00000000000E+00 -0.57408170463E+02  0.57408170463E+02  0.00000000000E+00 0.  1.
         25    2    1    2    0    0 -0.23218971464E+02 -0.43763214713E+00  0.75979313690E+02  0.14818590872E+03  0.12508755044E+03 0.  0.
         23    2    1    2    0    0  0.23218971464E+02  0.43763214713E+00  0.80099219013E+02  0.12270896491E+03  0.90012738130E+02 0.  0.
          5    1    3    3  502    0 -0.50371509882E+02  0.38206322271E+02  0.78288977307E+02  0.10071568119E+03  0.41800000000E+01 0.  1.
         -5    1    3    3    0  502  0.27152538418E+02 -0.38643954418E+02 -0.23096636178E+01  0.47470227529E+02  0.41800000000E+01 0.  1.
        -11    1    4    4    0    0  0.28180902756E+02  0.41831647906E+02  0.51935444982E+02  0.72397102788E+02  0.00000000000E+00 0.  1.
         11    1    4    4    0    0 -0.49619312912E+01 -0.41394015758E+02  0.28163774030E+02  0.50311862124E+02  0.00000000000E+00 0. -1.
</event>
<event>
 8    1  0.6380238E-009  0.1683422E+03  0.7561462E-02  0.1179588E+00
          2   -1    0    0  501    0  0.00000000000E+00  0.00000000000E+00  0.41425056762E+03  0.41425056762E+03  0.00000000000E+00 0. -1.
         -2   -1    0    0    0  501 -0.00000000000E+00 -0.00000000000E+00 -0.95325913243E+02  0.95325913243E+02  0.00000000000E+00 0.  1.
         25    2    1    2    0    0  0.10593899582E+03 -0.82602177400E+02  0.29083195081E+03  0.34391628964E+03  0.12509596365E+03 0.  0.
         23    2    1    2    0    0 -0.10593899582E+03  0.82602177400E+02  0.28092703562E+02  0.16566019122E+03  0.92778814471E+02 0.  0.
          5    1    3    3  502    0 -0.17068122217E+02 -0.50371101536E+02  0.11611766765E+03  0.12778636001E+03  0.41800000000E+01 0.  1.
         -5    1    3    3    0  502  0.12300711804E+03 -0.32231075864E+02  0.17471428317E+03  0.21612992963E+03  0.41800000000E+01 0.  1.
        -11    1    4    4    0    0 -0.26564100533E+01  0.46681406260E+02 -0.13499321956E+02  0.48666640505E+02  0.00000000000E+00 0.  1.
         11    1    4    4    0    0 -0.10328258577E+03  0.35920771140E+02  0.41592025518E+02  0.11699355071E+03  0.00000000000E+00 0. -1.
</event>
<event>
 8    1  0.6380238E-009  0.9751964E+02  0.7561462E-02  0.1285600E+00
          2   -1    0    0  501    0  0.00000000000E+00  0.00000000000E+00  0.71761771906E+02  0.71761771906E+02  0.00000000000E+00 0. -1.
         -2   -1    0    0    0  501 -0.00000000000E+00 -0.00000000000E+00 -0.20509954274E+03  0.20509954274E+03  0.00000000000E+00 0.  1.
         25    2    1    2    0    0 -0.25427881691E+02 -0.39910429377E+02 -0.48038480408E+02  0.14210952905E+03  0.12509197859E+03 0.  0.
         23    2    1    2    0    0  0.25427881691E+02  0.39910429377E+02 -0.85299290428E+02  0.13475178560E+03  0.92965882093E+02 0.  0.
          5    1    3    3  502    0  0.39205518356E+01 -0.62113534322E+02 -0.74071898486E+02  0.96837907960E+02  0.41800000000E+01 0.  1.
         -5    1    3    3    0  502 -0.29348433526E+02  0.22203104945E+02  0.26033418078E+02  0.45271621094E+02  0.41800000000E+01 0.  1.
        -11    1    4    4    0    0 -0.27432754473E+02  0.32042347777E+02 -0.65198226178E+02  0.77653568919E+02  0.00000000000E+00 0.  1.
         11    1    4    4    0    0  0.52860636164E+02  0.78680816007E+01 -0.20101064250E+02  0.57098216677E+02  0.00000000000E+00 0. -1.
</event>
<event>
 8    1  0.6380238E-009  0.1148629E+03  0.7561462E-02  0.1251821E+00
          2   -1    0    0  501    0  0.00000000000E+00  0.00000000000E+00  0.69054997282E+03  0.69054997282E+03  0.00000000000E+00 0. -1.
         -2   -1    0    0    0  501 -0.00000000000E+00 -0.00000000000E+00 -0.20913999006E+02  0.20913999006E+02  0.00000000000E+00 0.  1.
         25    2    1    2    0    0  0.22678543469E+01  0.54097069399E+02  0.37223314315E+03  0.39640434246E+03  0.12508898345E+03 0.  0.
         23    2    1    2    0    0 -0.22678543469E+01 -0.54097069399E+02  0.29740283067E+03  0.31505962937E+03  0.88783389719E+02 0.  0.
          5    1    3    3  502    0  0.36544380242E+02 -0.23273682369E+02  0.69215118530E+02  0.81764057210E+02  0.41800000000E+01 0.  1.
         -5    1    3    3    0  502 -0.34276525895E+02  0.77370751767E+02  0.30301802462E+03  0.31464028525E+03  0.41800000000E+01 0.  1.
        -11    1    4    4    0    0  0.24412220658E+02  0.14134943966E+02  0.11689880028E+03  0.12025424177E+03  0.00000000000E+00 0. -1.
         11    1    4    4    0    0 -0.26680075005E+02 -0.68232013364E+02  0.18050403039E+03  0.19480538760E+03  0.00000000000E+00 0.  1.
</event>
<event>
 8    1  0.6380238E-009  0.1015868E+03  0.7561462E-02  0.1276994E+00
         -1   -1    0    0    0  501 -0.00000000000E+00  0.00000000000E+00  0.10483296503E+04  0.10483296503E+04  0.00000000000E+00 0.  1.
          1   -1    0    0  501    0  0.00000000000E+00 -0.00000000000E+00 -0.14303410934E+02  0.14303410934E+02  0.00000000000E+00 0. -1.
         25    2    1    2    0    0  0.37565244498E+02 -0.36015264175E+01  0.76922510931E+03  0.78024317466E+03  0.12509206303E+03 0.  0.
         23    2    1    2    0    0 -0.37565244498E+02  0.36015264175E+01  0.26480113006E+03  0.28238988658E+03  0.90555457984E+02 0.  0.
          5    1    3    3  502    0  0.48849188464E+02  0.47545688182E+02  0.28018818038E+03  0.28839161656E+03  0.41800000000E+01 0. -1.
         -5    1    3    3    0  502 -0.11283943966E+02 -0.51147214600E+02  0.48903692893E+03  0.49185155810E+03  0.41800000000E+01 0. -1.
        -11    1    4    4    0    0  0.52970350818E+01 -0.28370674752E+02  0.30205440085E+02  0.41777055632E+02  0.00000000000E+00 0.  1.
         11    1    4    4    0    0 -0.42862279580E+02  0.31972201170E+02  0.23459568998E+03  0.24061283094E+03  0.00000000000E+00 0. -1.
</event>
<event>
 8    1  0.6380238E-009  0.1270315E+03  0.7561462E-02  0.1231928E+00
         -1   -1    0    0    0  501 -0.00000000000E+00  0.00000000000E+00  0.20539564058E+02  0.20539564058E+02  0.00000000000E+00 0.  1.
          1   -1    0    0  501    0  0.00000000000E+00 -0.00000000000E+00 -0.11383092953E+04  0.11383092953E+04  0.00000000000E+00 0. -1.
         25    2    1    2    0    0 -0.95979917397E+02 -0.15933424690E+02 -0.50177843206E+03  0.52620833455E+03  0.12509035894E+03 0.  0.
         23    2    1    2    0    0  0.95979917397E+02  0.15933424690E+02 -0.61599129917E+03  0.63264052480E+03  0.10640833803E+03 0.  0.
          5    1    3    3  502    0 -0.77178281198E+02  0.11193777579E+02 -0.12122815600E+03  0.14420653922E+03  0.41800000000E+01 0.  1.
         -5    1    3    3    0  502 -0.18801636199E+02 -0.27127202269E+02 -0.38055027606E+03  0.38200179533E+03  0.41800000000E+01 0.  1.
        -11    1    4    4    0    0 -0.15905430437E+02 -0.19657240117E+02 -0.78376582476E+02  0.82354589958E+02  0.00000000000E+00 0.  1.
         11    1    4    4    0    0  0.11188534783E+03  0.35590664807E+02 -0.53761471669E+03  0.55028593484E+03  0.00000000000E+00 0. -1.
</event>
<event>
 8    1  0.6380238E-009  0.9309564E+02  0.7561462E-02  0.1295524E+00
         -1   -1    0    0    0  501 -0.00000000000E+00  0.00000000000E+00  0.25760540514E+03  0.25760540514E+03  0.00000000000E+00 0.  1.
          1   -1    0    0  501    0  0.00000000000E+00 -0.00000000000E+00 -0.10651182346E+03  0.10651182346E+03  0.00000000000E+00 0. -1.
         25    2    1    2    0    0  0.51030818849E+02  0.48897280797E+02  0.19307879068E+03  0.24066761551E+03  0.12508554354E+03 0.  0.
         23    2    1    2    0    0 -0.51030818849E+02 -0.48897280797E+02 -0.41985208997E+02  0.12344961309E+03  0.92097560527E+02 0.  0.
          5    1    3    3  502    0 -0.58587663725E+01 -0.51369916158E+00  0.15674169338E+03  0.15690767946E+03  0.41800000000E+01 0.  1.
         -5    1    3    3    0  502  0.56889585221E+02  0.49410979959E+02  0.36337097303E+02  0.83759936053E+02  0.41800000000E+01 0.  1.
        -11    1    4    4    0    0 -0.51436875511E+02  0.30805224021E+01  0.70282030367E+01  0.52006128663E+02  0.00000000000E+00 0.  1.
         11    1    4    4    0    0  0.40605666220E+00 -0.51977803199E+02 -0.49013412034E+02  0.71443484424E+02  0.00000000000E+00 0. -1.
</event>
<event>
 8    1  0.6380238E-009  0.1070029E+03  0.7561462E-02  0.1266223E+00
          2   -1    0    0  501    0  0.00000000000E+00  0.00000000000E+00  0.23919567905E+03  0.23919567905E+03  0.00000000000E+00 0. -1.
         -2   -1    0    0    0  501 -0.00000000000E+00 -0.00000000000E+00 -0.92291839438E+02  0.92291839438E+02  0.00000000000E+00 0.  1.
         25    2    1    2    0    0 -0.66014225806E+02  0.28366690713E+01  0.14650269392E+03  0.20365854515E+03  0.12509132258E+03 0.  0.
         23    2    1    2    0    0  0.66014225806E+02 -0.28366690713E+01  0.40114568587E+00  0.12782897334E+03  0.10942650870E+03 0.  0.
          5    1    3    3  502    0 -0.46441419484E+02 -0.46742468948E+02  0.24444407148E+02  0.70403588600E+02  0.41800000000E+01 0. -1.
         -5    1    3    3    0  502 -0.19572806322E+02  0.49579138019E+02  0.12205828678E+03  0.13325495655E+03  0.41800000000E+01 0. -1.
        -11    1    4    4    0    0  0.73305999914E+02  0.15372792720E+02 -0.38534266571E+02  0.84231716589E+02  0.00000000000E+00 0.  1.
         11    1    4    4    0    0 -0.72917741075E+01 -0.18209461791E+02  0.38935412257E+02  0.43597256748E+02  0.00000000000E+00 0. -1.
</event>
<event>
 8    1  0.6380238E-009  0.9112126E+02  0.7561462E-02  0.1300159E+00
         -2   -1    0    0    0  501 -0.00000000000E+00  0.00000000000E+00  0.47385844016E+03  0.47385844016E+03  0.00000000000E+00 0.  1.
          2   -1    0    0  501    0  0.00000000000E+00 -0.00000000000E+00 -0.42945787151E+02  0.42945787151E+02  0.00000000000E+00 0. -1.
         25    2    1    2    0    0 -0.34039052851E+02 -0.55261703289E+02  0.11627833667E+03  0.18272283132E+03  0.12511781863E+03 0.  0.
         23    2    1    2    0    0  0.34039052851E+02  0.55261703289E+02  0.31463431634E+03  0.33408139599E+03  0.91668495996E+02 0.  0.
          5    1    3    3  502    0 -0.12397202190E+01 -0.29797692039E+02  0.13402943069E+03  0.13737103060E+03  0.41800000000E+01 0.  1.
         -5    1    3    3    0  502 -0.32799332632E+02 -0.25464011250E+02 -0.17751094018E+02  0.45351800724E+02  0.41800000000E+01 0.  1.
        -11    1    4    4    0    0  0.48322770689E+02 -0.48901255247E+01  0.10849014900E+03  0.11886595780E+03  0.00000000000E+00 0. -1.
         11    1    4    4    0    0 -0.14283717837E+02  0.60151828814E+02  0.20614416734E+03  0.21521543819E+03  0.00000000000E+00 0.  1.
</event>
<event>
 8    1  0.6380238E-009  0.3176572E+03  0.7561462E-02  0.1076733E+00
          2   -1    0    0  501    0  0.00000000000E+00  0.00000000000E+00  0.26258206595E+03  0.26258206595E+03  0.00000000000E+00 0. -1.
         -2   -1    0    0    0  501 -0.00000000000E+00 -0.00000000000E+00 -0.42359721163E+03  0.42359721163E+03  0.00000000000E+00 0.  1.
         25    2    1    2    0    0 -0.56615141607E+02  0.31020152649E+03 -0.79834376296E+02  0.34849748703E+03  0.12508680798E+03 0.  0.
         23    2    1    2    0    0  0.56615141607E+02 -0.31020152649E+03 -0.81180769389E+02  0.33768179055E+03  0.89489737140E+02 0.  0.
          5    1    3    3  502    0 -0.66402232795E+02  0.24313865500E+03 -0.10895220304E+03  0.27461558044E+03  0.41800000000E+01 0.  1.
         -5    1    3    3    0  502  0.97870911880E+01  0.67062871495E+02  0.29117826742E+02  0.73881906589E+02  0.41800000000E+01 0.  1.
        -11    1    4    4    0    0  0.25239632722E+02 -0.13173602536E+03 -0.80585562878E+02  0.15647828086E+03  0.00000000000E+00 0.  1.
         11    1    4    4    0    0  0.31375508885E+02 -0.17846550113E+03 -0.59520651172E+00  0.18120350969E+03  0.00000000000E+00 0. -1.
</event>
<event>
 8    1  0.6380238E-009  0.1178597E+03  0.7561462E-02  0.1246670E+00
         -1   -1    0    0    0  501 -0.00000000000E+00  0.00000000000E+00  0.11841109743E+03  0.11841109743E+03  0.00000000000E+00 0.  1.
          1   -1    0    0  501    0  0.00000000000E+00 -0.00000000000E+00 -0.15700063010E+03  0.15700063010E+03  0.00000000000E+00 0. -1.
         25    2    1    2    0    0  0.70164923283E+02  0.23278623246E+02 -0.56499506662E+02  0.15589622251E+03  0.12508567935E+03 0.  0.
         23    2    1    2    0    0 -0.70164923283E+02 -0.23278623246E+02  0.17909973987E+02  0.11951550502E+03  0.92185562933E+02 0.  0.
          5    1    3    3  502    0 -0.17418433035E+02 -0.35213895884E+02 -0.20539987035E+02  0.44528459890E+02  0.41800000000E+01 0.  1.
         -5    1    3    3    0  502  0.87583356318E+02  0.58492519130E+02 -0.35959519628E+02  0.11136776262E+03  0.41800000000E+01 0.  1.
        -11    1    4    4    0    0 -0.66520518969E+02  0.73055750542E+00  0.47125587311E+02  0.81525052209E+02  0.00000000000E+00 0.  1.
         11    1    4    4    0    0 -0.36444043138E+01 -0.24009180751E+02 -0.29215613325E+02  0.37990452815E+02  0.00000000000E+00 0. -1.
</event>
<event>
 8    1  0.6380238E-009  0.8572555E+02  0.7561462E-02  0.1313546E+00
          2   -1    0    0  501    0  0.00000000000E+00  0.00000000000E+00  0.46163990541E+02  0.46163990541E+02  0.00000000000E+00 0. -1.
         -2   -1    0    0    0  501 -0.00000000000E+00 -0.00000000000E+00 -0.39571040055E+03  0.39571040055E+03  0.00000000000E+00 0.  1.
         25    2    1    2    0    0  0.11961738296E+02  0.76286226764E+02 -0.22663995405E+03  0.27014046709E+03  0.12509009399E+03 0.  0.
         23    2    1    2    0    0 -0.11961738296E+02 -0.76286226764E+02 -0.12290645596E+03  0.17173392400E+03  0.91781654800E+02 0.  0.
          5    1    3    3  502    0 -0.28885371252E+01  0.14662095036E+02  0.14217802894E+02  0.21046115953E+02  0.41800000000E+01 0. -1.
         -5    1    3    3    0  502  0.14850275421E+02  0.61624131728E+02 -0.24085775694E+03  0.24909435114E+03  0.41800000000E+01 0. -1.
        -11    1    4    4    0    0  0.19918299171E+02 -0.34665091179E+02 -0.11098716126E+03  0.11796845829E+03  0.00000000000E+00 0.  1.
         11    1    4    4    0    0 -0.31880037467E+02 -0.41621135585E+02 -0.11919294706E+02  0.53765465706E+02  0.00000000000E+00 0. -1.
</event>
<event>
 8    1  0.6380238E-009  0.1981028E+03  0.7561462E-02  0.1151350E+00
          3   -1    0    0  501    0  0.00000000000E+00  0.00000000000E+00  0.75086704816E+02  0.75086704816E+02  0.00000000000E+00 0. -1.
         -3   -1    0    0    0  501 -0.00000000000E+00 -0.00000000000E+00 -0.65808503570E+03  0.65808503570E+03  0.00000000000E+00 0.  1.
         25    2    1    2    0    0 -0.14262145492E+03 -0.12901443927E+03 -0.33962073291E+03  0.40985071418E+03  0.12509900378E+03 0.  0.
         23    2    1    2    0    0  0.14262145492E+03  0.12901443927E+03 -0.24337759797E+03  0.32332102633E+03  0.91204308733E+02 0.  0.
          5    1    3    3  502    0 -0.36105593156E+02 -0.43324596908E+00 -0.16203483424E+03  0.16606192058E+03  0.41800000000E+01 0. -1.
         -5    1    3    3    0  502 -0.10651586176E+03 -0.12858119330E+03 -0.17758589867E+03  0.24378879360E+03  0.41800000000E+01 0. -1.
        -11    1    4    4    0    0  0.12273422277E+03  0.10395307438E+03 -0.13395645578E+03  0.20931856859E+03  0.00000000000E+00 0. -1.
         11    1    4    4    0    0  0.19887232147E+02  0.25061364888E+02 -0.10942114219E+03  0.11400245774E+03  0.00000000000E+00 0.  1.
</event>
<event>
 8    1  0.6380238E-009  0.1017336E+03  0.7561462E-02  0.1276692E+00
          1   -1    0    0  501    0  0.00000000000E+00  0.00000000000E+00  0.48353666929E+02  0.48353666929E+02  0.00000000000E+00 0. -1.
         -1   -1    0    0    0  501 -0.00000000000E+00 -0.00000000000E+00 -0.50462421328E+03  0.50462421328E+03  0.00000000000E+00 0.  1.
         25    2    1    2    0    0 -0.35081956788E+02  0.36812072379E+02 -0.42310674657E+03  0.44413110690E+03  0.12508896340E+03 0.  0.
         23    2    1    2    0    0  0.35081956788E+02 -0.36812072379E+02 -0.33163799781E+02  0.10884677330E+03  0.90343290161E+02 0.  0.
          5    1    3    3  502    0 -0.42215177829E+02 -0.16757893290E+02 -0.52349994947E+02  0.69433007983E+02  0.41800000000E+01 0.  1.
         -5    1    3    3    0  502  0.71332210404E+01  0.53569965669E+02 -0.37075675162E+03  0.37469809892E+03  0.41800000000E+01 0.  1.
        -11    1    4    4    0    0  0.46693275343E+02  0.16168458191E+02 -0.14738413729E+02  0.51564540547E+02  0.00000000000E+00 0. -1.
         11    1    4    4    0    0 -0.11611318555E+02 -0.52980530570E+02 -0.18425386052E+02  0.57282232754E+02  0.00000000000E+00 0.  1.
</event>
<event>
 8    1  0.6380238E-009  0.8961492E+02  0.7561462E-02  0.1303787E+00
          2   -1    0    0  501    0  0.00000000000E+00  0.00000000000E+00  0.57080893222E+02  0.57080893222E+02  0.00000000000E+00 0. -1.
         -2   -1    0    0    0  501 -0.00000000000E+00 -0.00000000000E+00 -0.25116645930E+03  0.25116645930E+03  0.00000000000E+00 0.  1.
         25    2    1    2    0    0  0.19315059035E+02 -0.21051919994E+02 -0.15496878106E+03  0.20118920384E+03  0.12508204426E+03 0.  0.
         23    2    1    2    0    0 -0.19315059035E+02  0.21051919994E+02 -0.39116785011E+02  0.10705814868E+03  0.95472873048E+02 0.  0.
          5    1    3    3  502    0  0.22569209885E+02  0.36318160124E+02 -0.84996114638E+01  0.43796047592E+02  0.41800000000E+01 0.  1.
         -5    1    3    3    0  502 -0.32541508492E+01 -0.57370080118E+02 -0.14646916960E+03  0.15739315625E+03  0.41800000000E+01 0.  1.
        -11    1    4    4    0    0 -0.19252671440E+02  0.47993270334E+02 -0.55235047758E+02  0.75663266224E+02  0.00000000000E+00 0.  1.
         11    1    4    4    0    0 -0.62387595529E-01 -0.26941350340E+02  0.16118262747E+02  0.31394882455E+02  0.00000000000E+00 0. -1.
</event>
<event>
 8    1  0.6380238E-009  0.1092388E+03  0.7561462E-02  0.1261986E+00
          2   -1    0    0  501    0  0.00000000000E+00  0.00000000000E+00  0.45698318560E+03  0.45698318560E+03  0.00000000000E+00 0. -1.
         -2   -1    0    0    0  501 -0.00000000000E+00 -0.00000000000E+00 -0.27496039306E+02  0.27496039306E+02  0.00000000000E+00 0.  1.
         25    2    1    2    0    0  0.80820350207E+01 -0.26122305317E+02  0.26723579013E+03  0.29632743383E+03  0.12508911379E+03 0.  0.
         23    2    1    2    0    0 -0.80820350207E+01  0.26122305317E+02  0.16225135616E+03  0.18815179107E+03  0.91257327281E+02 0.  0.
          5    1    3    3  502    0 -0.93111625966E+01  0.48603517427E+02  0.12800678815E+03  0.13730334980E+03  0.41800000000E+01 0.  1.
         -5    1    3    3    0  502  0.17393197617E+02 -0.74725822743E+02  0.13922900198E+03  0.15902408403E+03  0.41800000000E+01 0.  1.
        -11    1    4    4    0    0 -0.46491990040E+02  0.26600493398E+02  0.11777690139E+03  0.12938504507E+03  0.00000000000E+00 0. -1.
         11    1    4    4    0    0  0.38409955020E+02 -0.47818808116E+00  0.44474454772E+02  0.58766746003E+02  0.00000000000E+00 0.  1.
</event>
<event>
 8    1  0.6380238E-009  0.9679350E+02  0.7561462E-02  0.1287187E+00
          2   -1    0    0  501    0  0.00000000000E+00  0.00000000000E+00  0.66473941343E+03  0.66473941343E+03  0.00000000000E+00 0. -1.
         -2   -1    0    0    0  501 -0.00000000000E+00 -0.00000000000E+00 -0.23433116645E+02  0.23433116645E+02  0.00000000000E+00 0.  1.
         25    2    1    2    0    0 -0.23119273197E+02 -0.55644631138E+02  0.41144067058E+03  0.43423465899E+03  0.12508192471E+03 0.  0.
         23    2    1    2    0    0  0.23119273197E+02  0.55644631138E+02  0.22986562621E+03  0.25393787109E+03  0.89528824943E+02 0.  0.
          5    1    3    3  502    0  0.32445241810E+01  0.30554490575E+02  0.33409137486E+02  0.45582306864E+02  0.41800000000E+01 0.  1.
         -5    1    3    3    0  502 -0.26363797378E+02 -0.86199121713E+02  0.37803153309E+03  0.38865235212E+03  0.41800000000E+01 0.  1.
        -11    1    4    4    0    0  0.34671069188E+02  0.42057308507E+02  0.22972543315E+03  0.23610310221E+03  0.00000000000E+00 0. -1.
         11    1    4    4    0    0 -0.11551795991E+02  0.13587322631E+02  0.14019305435E+00  0.17834768879E+02  0.00000000000E+00 0.  1.
</event>
<event>
 8    1  0.6380238E-009  0.1273715E+03  0.7561462E-02  0.1231409E+00
         -1   -1    0    0    0  501 -0.00000000000E+00  0.00000000000E+00  0.15735784846E+03  0.15735784846E+03  0.00000000000E+00 0.  1.
          1   -1    0    0  501    0  0.00000000000E+00 -0.00000000000E+00 -0.14477337796E+03  0.14477337796E+03  0.00000000000E+00 0. -1.
         25    2    1    2    0    0  0.76899514257E+02  0.18848448733E+02 -0.61669182755E+02  0.16037040610E+03  0.12508708862E+03 0.  0.
         23    2    1    2    0    0 -0.76899514257E+02 -0.18848448733E+02  0.74253653252E+02  0.14176082032E+03  0.91179635032E+02 0.  0.
          5    1    3    3  502    0 -0.80146828618E+01 -0.34802163476E+02  0.95092841914E+01  0.37193072068E+02  0.41800000000E+01 0.  1.
         -5    1    3    3    0  502  0.84914197119E+02  0.53650612209E+02 -0.71178466946E+02  0.12317733403E+03  0.41800000000E+01 0.  1.
        -11    1    4    4    0    0 -0.71035038531E+02  0.24021661731E+02  0.32826499162E+02  0.81857168157E+02  0.00000000000E+00 0.  1.
         11    1    4    4    0    0 -0.58644757259E+01 -0.42870110464E+02  0.41427154090E+02  0.59903652166E+02  0.00000000000E+00 0. -1.
</event>
<event>
 8    1  0.6380238E-009  0.1257480E+03  0.7561462E-02  0.1233905E+00
          2   -1    0    0  501    0  0.00000000000E+00  0.00000000000E+00  0.92065108271E+03  0.92065108271E+03  0.00000000000E+00 0. -1.
         -2   -1    0    0    0  501 -0.00000000000E+00 -0.00000000000E+00 -0.17931007245E+02  0.17931007245E+02  0.00000000000E+00 0.  1.
         25    2    1    2    0    0  0.53182975826E+02 -0.49584994623E+02  0.45949029356E+03  0.48173195353E+03  0.12508894661E+03 0.  0.
         23    2    1    2    0    0 -0.53182975826E+02  0.49584994623E+02  0.44322978191E+03  0.45685013643E+03  0.83500341180E+02 0.  0.
          5    1    3    3  502    0 -0.31748822488E+02  0.17210624029E+02  0.10492863904E+03  0.11104812019E+03  0.41800000000E+01 0.  1.
         -5    1    3    3    0  502  0.84931798314E+02 -0.66795618651E+02  0.35456165452E+03  0.37068383333E+03  0.41800000000E+01 0.  1.
        -11    1    4    4    0    0 -0.64672122216E+02  0.95686269763E+01  0.21024985681E+03  0.22017957285E+03  0.00000000000E+00 0.  1.
         11    1    4    4    0    0  0.11489146390E+02  0.40016367647E+02  0.23297992510E+03  0.23667056358E+03  0.00000000000E+00 0. -1.
</event>
<event>
 8    1  0.6380238E-009  0.1507859E+03  0.7561462E-02  0.1199511E+00
         -1   -1    0    0    0  501 -0.00000000000E+00  0.00000000000E+00  0.42740939417E+02  0.42740939417E+02  0.00000000000E+00 0.  1.
          1   -1    0    0  501    0  0.00000000000E+00 -0.00000000000E+00 -0.65364275514E+03  0.65364275514E+03  0.00000000000E+00 0. -1.
         25    2    1    2    0    0  0.20239462904E+02 -0.12550868956E+03 -0.30237254959E+03  0.35105245755E+03  0.12508637891E+03 0.  0.
         23    2    1    2    0    0 -0.20239462904E+02  0.12550868956E+03 -0.30852926613E+03  0.34533123701E+03  0.88889190463E+02 0.  0.
          5    1    3    3  502    0 -0.27704433502E+02 -0.90899390095E+02 -0.26355783800E+03  0.28019714689E+03  0.41800000000E+01 0. -1.
         -5    1    3    3    0  502  0.47943896406E+02 -0.34609299468E+02 -0.38814711597E+02  0.70855310660E+02  0.41800000000E+01 0. -1.
        -11    1    4    4    0    0  0.15735312388E+02  0.10415994710E+03 -0.16440342104E+03  0.19525721366E+03  0.00000000000E+00 0.  1.
         11    1    4    4    0    0 -0.35974775292E+02  0.21348742464E+02 -0.14412584509E+03  0.15007402335E+03  0.00000000000E+00 0. -1.
</event>
<event>
 8    1  0.6380238E-009  0.1035839E+03  0.7561462E-02  0.1272935E+00
          1   -1    0    0  501    0  0.00000000000E+00  0.00000000000E+00  0.89173482599E+02  0.89173482599E+02  0.00000000000E+00 0.  1.
         -1   -1    0    0    0  501 -0.00000000000E+00 -0.00000000000E+00 -0.16597787520E+03  0.16597787520E+03  0.00000000000E+00 0. -1.
         25    2    1    2    0    0 -0.98163370234E+01 -0.19630741519E+02 -0.94489303264E+02  0.15829867585E+03  0.12509402807E+03 0.  0.
         23    2    1    2    0    0  0.98163370234E+01  0.19630741519E+02  0.17684910660E+02  0.96852681957E+02  0.92660452471E+02 0.  0.
          5    1    3    3  502    0  0.63358627916E+01 -0.64637844676E+02 -0.88605895056E+02  0.10993939767E+03  0.41800000000E+01 0.  1.
         -5    1    3    3    0  502 -0.16152199815E+02  0.45007103157E+02 -0.58834082090E+01  0.48359278175E+02  0.41800000000E+01 0.  1.
        -11    1    4    4    0    0 -0.40353930297E+02  0.17171012548E+02  0.15707137280E+02  0.46583232218E+02  0.00000000000E+00 0. -1.
         11    1    4    4    0    0  0.50170267320E+02  0.24597289713E+01  0.19777733802E+01  0.50269449740E+02  0.00000000000E+00 0.  1.
</event>
<event>
 8    1  0.6380238E-009  0.6008201E+02  0.7561462E-02  0.1397488E+00
         -2   -1    0    0    0  501 -0.00000000000E+00  0.00000000000E+00  0.26667024627E+03  0.26667024627E+03  0.00000000000E+00 0.  1.
          2   -1    0    0  501    0  0.00000000000E+00 -0.00000000000E+00 -0.48838286747E+02  0.48838286747E+02  0.00000000000E+00 0. -1.
         25    2    1    2    0    0  0.14576132153E+02 -0.14221835359E+02  0.16352617606E+03  0.20688764945E+03  0.12508782918E+03 0.  0.
         23    2    1    2    0    0 -0.14576132153E+02  0.14221835359E+02  0.54305783461E+02  0.10862088356E+03  0.91840372381E+02 0.  0.
          5    1    3    3  502    0 -0.74381419113E+00  0.21570105443E+01  0.17916532658E+03  0.17922860431E+03  0.41800000000E+01 0.  1.
         -5    1    3    3    0  502  0.15319946344E+02 -0.16378845904E+02 -0.15639150522E+02  0.27659045142E+02  0.41800000000E+01 0.  1.
        -11    1    4    4    0    0 -0.31996093768E+02  0.46185791908E+02  0.42162209233E+02  0.70246204724E+02  0.00000000000E+00 0.  1.
         11    1    4    4    0    0  0.17419961615E+02 -0.31963956549E+02  0.12143574227E+02  0.38374678839E+02  0.00000000000E+00 0. -1.
</event>
<event>
 8    1  0.6380238E-009  0.1012884E+03  0.7561462E-02  0.1277610E+00
         -2   -1    0    0    0  501 -0.00000000000E+00  0.00000000000E+00  0.19177683776E+02  0.19177683776E+02  0.00000000000E+00 0.  1.
          2   -1    0    0  501    0  0.00000000000E+00 -0.00000000000E+00 -0.70162259652E+03  0.70162259652E+03  0.00000000000E+00 0. -1.
         25    2    1    2    0    0  0.64778813828E+01  0.20055091040E+02 -0.46064250875E+03  0.47778985280E+03  0.12508977957E+03 0.  0.
         23    2    1    2    0    0 -0.64778813828E+01 -0.20055091040E+02 -0.22180240400E+03  0.24301042749E+03  0.97023666326E+02 0.  0.
          5    1    3    3  502    0 -0.47264061517E+02  0.78486243463E+01 -0.81436641422E+02  0.94577435899E+02  0.41800000000E+01 0. -1.
         -5    1    3    3    0  502  0.53741942900E+02  0.12206466694E+02 -0.37920586732E+03  0.38321241690E+03  0.41800000000E+01 0. -1.
        -11    1    4    4    0    0 -0.28962036416E+02  0.31608295238E+02 -0.91286912756E+02  0.10085228962E+03  0.00000000000E+00 0.  1.
         11    1    4    4    0    0  0.22484155034E+02 -0.51663386278E+02 -0.13051549124E+03  0.14215813787E+03  0.00000000000E+00 0. -1.
</event>
<event>
 8    1  0.6380238E-009  0.1881338E+03  0.7561462E-02  0.1160155E+00
          2   -1    0    0  501    0  0.00000000000E+00  0.00000000000E+00  0.36834533142E+03  0.36834533142E+03  0.00000000000E+00 0. -1.
         -2   -1    0    0    0  501 -0.00000000000E+00 -0.00000000000E+00 -0.14112385520E+03  0.14112385520E+03  0.00000000000E+00 0.  1.
         25    2    1    2    0    0  0.42866458575E+02 -0.17827301291E+03  0.19365527836E+03  0.29456339513E+03  0.12508567668E+03 0.  0.
         23    2    1    2    0    0 -0.42866458575E+02  0.17827301291E+03  0.33566197862E+02  0.21490579149E+03  0.10695330370E+03 0.  0.
          5    1    3    3  502    0  0.50188352058E+02 -0.12741442306E+03  0.20020532752E+03  0.24259627254E+03  0.41800000000E+01 0. -1.
         -5    1    3    3    0  502 -0.73218934828E+01 -0.50858589853E+02 -0.65500491566E+01  0.51967122587E+02  0.41800000000E+01 0. -1.
        -11    1    4    4    0    0 -0.21199488122E+02  0.15281444341E+03 -0.16015134702E+02  0.15510692103E+03  0.00000000000E+00 0.  1.
         11    1    4    4    0    0 -0.21666970453E+02  0.25458569503E+02  0.49581332564E+02  0.59798870463E+02  0.00000000000E+00 0. -1.
</event>
<event>
 8    1  0.6380238E-009  0.1565273E+03  0.7561462E-02  0.1192674E+00
          1   -1    0    0  501    0  0.00000000000E+00  0.00000000000E+00  0.21002563420E+03  0.21002563420E+03  0.00000000000E+00 0. -1.
         -1   -1    0    0    0  501 -0.00000000000E+00 -0.00000000000E+00 -0.14129145588E+03  0.14129145588E+03  0.00000000000E+00 0.  1.
         25    2    1    2    0    0 -0.94074937455E+01  0.11953200380E+03 -0.24793144131E+02  0.17503794524E+03  0.12508869417E+03 0.  0.
         23    2    1    2    0    0  0.94074937455E+01 -0.11953200380E+03  0.93527322453E+02  0.17627914483E+03  0.89166002413E+02 0.  0.
          5    1    3    3  502    0  0.56197746375E+02  0.60044712372E+02  0.21537649510E+01  0.82375149681E+02  0.41800000000E+01 0.  1.
         -5    1    3    3    0  502 -0.65605240121E+02  0.59487291427E+02 -0.26946909082E+02  0.92662795564E+02  0.41800000000E+01 0.  1.
        -11    1    4    4    0    0 -0.21467896645E+02 -0.10632061365E+03  0.45380430193E+02  0.11757689789E+03  0.00000000000E+00 0.  1.
         11    1    4    4    0    0  0.30875390391E+02 -0.13211390149E+02  0.48146892260E+02  0.58702246940E+02  0.00000000000E+00 0. -1.
</event>
<event>
 8    1  0.6380238E-009  0.1471310E+03  0.7561462E-02  0.1204043E+00
          4   -1    0    0  501    0  0.00000000000E+00  0.00000000000E+00  0.22584476384E+03  0.22584476384E+03  0.00000000000E+00 0. -1.
         -4   -1    0    0    0  501 -0.00000000000E+00 -0.00000000000E+00 -0.12416947328E+03  0.12416947328E+03  0.00000000000E+00 0.  1.
         25    2    1    2    0    0 -0.26770211711E+02  0.10634537925E+03 -0.12582865261E+02  0.16682873843E+03  0.12509002976E+03 0.  0.
         23    2    1    2    0    0  0.26770211711E+02 -0.10634537925E+03  0.11425815582E+03  0.18318549869E+03  0.92065285726E+02 0.  0.
          5    1    3    3  502    0  0.44378917254E+02  0.15005407051E+02  0.11674181430E+02  0.48460390521E+02  0.41800000000E+01 0. -1.
         -5    1    3    3    0  502 -0.71149128964E+02  0.91339972196E+02 -0.24257046691E+02  0.11836834791E+03  0.41800000000E+01 0. -1.
        -11    1    4    4    0    0 -0.21672951368E+02 -0.62067897438E+02  0.20741061555E+02  0.68937162313E+02  0.00000000000E+00 0.  1.
         11    1    4    4    0    0  0.48443163078E+02 -0.44277481808E+02  0.93517094269E+02  0.11424833638E+03  0.00000000000E+00 0. -1.
</event>
<event>
 8    1  0.6380238E-009  0.7835181E+02  0.7561462E-02  0.1333795E+00
          1   -1    0    0  501    0  0.00000000000E+00  0.00000000000E+00  0.54583412431E+03  0.54583412431E+03  0.00000000000E+00 0. -1.
         -1   -1    0    0    0  501 -0.00000000000E+00 -0.00000000000E+00 -0.24054350170E+02  0.24054350170E+02  0.00000000000E+00 0.  1.
         25    2    1    2    0    0 -0.23164158624E+02  0.21896683250E+02  0.30221007152E+03  0.32862995291E+03  0.12510266040E+03 0.  0.
         23    2    1    2    0    0  0.23164158624E+02 -0.21896683250E+02  0.21956970262E+03  0.24125852157E+03  0.94756408435E+02 0.  0.
          5    1    3    3  502    0 -0.39454422992E+02  0.47551811198E+02  0.28842492140E+03  0.29499870156E+03  0.41800000000E+01 0. -1.
         -5    1    3    3    0  502  0.16290264368E+02 -0.25655127948E+02  0.13785150126E+02  0.33631251348E+02  0.41800000000E+01 0. -1.
        -11    1    4    4    0    0  0.39152796006E+02 -0.28885244854E+01  0.21154336766E+03  0.21515548194E+03  0.00000000000E+00 0. -1.
         11    1    4    4    0    0 -0.15988637382E+02 -0.19008158764E+02  0.80263349607E+01  0.26103039629E+02  0.00000000000E+00 0.  1.
</event>
<event>
 8    1  0.6380238E-009  0.1345651E+03  0.7561462E-02  0.1220835E+00
         -1   -1    0    0    0  501 -0.00000000000E+00  0.00000000000E+00  0.82795745182E+02  0.82795745182E+02  0.00000000000E+00 0.  1.
          1   -1    0    0  501    0  0.00000000000E+00 -0.00000000000E+00 -0.25923761552E+03  0.25923761552E+03  0.00000000000E+00 0. -1.
         25    2    1    2    0    0  0.22388045843E+02  0.93577120335E+02 -0.12125344218E+03  0.19902241658E+03  0.12509845328E+03 0.  0.
         23    2    1    2    0    0 -0.22388045843E+02 -0.93577120335E+02 -0.55188428159E+02  0.14301094413E+03  0.90268851161E+02 0.  0.
          5    1    3    3  502    0  0.67112995741E+02  0.51590386453E+02 -0.10591492492E+03  0.13565089713E+03  0.41800000000E+01 0.  1.
         -5    1    3    3    0  502 -0.44724949898E+02  0.41986733882E+02 -0.15338517263E+02  0.63371519449E+02  0.41800000000E+01 0.  1.
        -11    1    4    4    0    0 -0.50049282051E+02 -0.46665166377E+02 -0.56188103085E+02  0.88541918406E+02  0.00000000000E+00 0. -1.
         11    1    4    4    0    0  0.27661236208E+02 -0.46911953959E+02  0.99967492603E+00  0.54469025719E+02  0.00000000000E+00 0.  1.
</event>
<event>
 8    1  0.6380238E-009  0.2728655E+03  0.7561462E-02  0.1099651E+00
          3   -1    0    0  501    0  0.00000000000E+00  0.00000000000E+00  0.13747550166E+04  0.13747550166E+04  0.00000000000E+00 0. -1.
         -3   -1    0    0    0  501 -0.00000000000E+00 -0.00000000000E+00 -0.88971368283E+02  0.88971368283E+02  0.00000000000E+00 0.  1.
         25    2    1    2    0    0  0.25103294263E+03 -0.15127505005E+02  0.11070052822E+04  0.11420845708E+04  0.12510032950E+03 0.  0.
         23    2    1    2    0    0 -0.25103294263E+03  0.15127505005E+02  0.17877836611E+03  0.32164181403E+03  0.90804034332E+02 0.  0.
          5    1    3    3  502    0  0.75680592401E+02 -0.63273317257E+02  0.36630290838E+03  0.37937627474E+03  0.41800000000E+01 0.  1.
         -5    1    3    3    0  502  0.17535235023E+03  0.48145812252E+02  0.74070237380E+03  0.76270829609E+03  0.41800000000E+01 0.  1.
        -11    1    4    4    0    0 -0.91966009641E+02 -0.34888745948E+02  0.86950660222E+02  0.13128361983E+03  0.00000000000E+00 0. -1.
         11    1    4    4    0    0 -0.15906693299E+03  0.50016250953E+02  0.91827705884E+02  0.19035819420E+03  0.00000000000E+00 0.  1.
</event>
<event>
 8    1  0.6380238E-009  0.1098770E+03  0.7561462E-02  0.1260798E+00
          1   -1    0    0  501    0  0.00000000000E+00  0.00000000000E+00  0.66421634069E+03  0.66421634069E+03  0.00000000000E+00 0. -1.
         -1   -1    0    0    0  501 -0.00000000000E+00 -0.00000000000E+00 -0.22333664636E+02  0.22333664636E+02  0.00000000000E+00 0.  1.
         25    2    1    2    0    0 -0.14318113326E+02 -0.50753295880E+02  0.31887946499E+03  0.34657283723E+03  0.12509081861E+03 0.  0.
         23    2    1    2    0    0  0.14318113326E+02  0.50753295880E+02  0.32300321106E+03  0.33997716810E+03  0.92046157215E+02 0.  0.
          5    1    3    3  502    0 -0.56016997125E+01  0.40345238160E+02  0.13601476552E+03  0.14204438082E+03  0.41800000000E+01 0. -1.
         -5    1    3    3    0  502 -0.87164136134E+01 -0.91098534040E+02  0.18286469946E+03  0.20452845641E+03  0.41800000000E+01 0. -1.
        -11    1    4    4    0    0  0.34169287976E+02  0.16220412562E+01  0.42716716041E+02  0.54725579832E+02  0.00000000000E+00 0.  1.
         11    1    4    4    0    0 -0.19851174650E+02  0.49131254623E+02  0.28028649502E+03  0.28525158826E+03  0.00000000000E+00 0. -1.
</event>
<event>
 8    1  0.6380238E-009  0.1526051E+03  0.7561462E-02  0.1197308E+00
          3   -1    0    0  501    0  0.00000000000E+00  0.00000000000E+00  0.12877532681E+03  0.12877532681E+03  0.00000000000E+00 0. -1.
         -3   -1    0    0    0  501 -0.00000000000E+00 -0.00000000000E+00 -0.21248883581E+03  0.21248883581E+03  0.00000000000E+00 0.  1.
         25    2    1    2    0    0  0.87142398322E+02 -0.86465997862E+02 -0.22824459691E+02  0.17674756192E+03  0.12509427770E+03 0.  0.
         23    2    1    2    0    0 -0.87142398322E+02  0.86465997862E+02 -0.60889049307E+02  0.16451660070E+03  0.91038833515E+02 0.  0.
          5    1    3    3  502    0  0.56800684335E+02  0.20726179899E+02  0.78699533140E+01  0.61117107582E+02  0.41800000000E+01 0.  1.
         -5    1    3    3    0  502  0.30341713987E+02 -0.10719217776E+03 -0.30694413005E+02  0.11563045434E+03  0.41800000000E+01 0.  1.
        -11    1    4    4    0    0 -0.39177838988E+02  0.62724191211E+01 -0.58943366662E+02  0.71053267221E+02  0.00000000000E+00 0.  1.
         11    1    4    4    0    0 -0.47964559333E+02  0.80193578741E+02 -0.19456826453E+01  0.93463333475E+02  0.00000000000E+00 0. -1.
</event>
<event>
 8    1  0.6380238E-009  0.9329474E+02  0.7561462E-02  0.1295064E+00
         -2   -1    0    0    0  501 -0.00000000000E+00  0.00000000000E+00  0.32328746573E+02  0.32328746573E+02  0.00000000000E+00 0.  1.
          2   -1    0    0  501    0  0.00000000000E+00 -0.00000000000E+00 -0.40261158368E+03  0.40261158368E+03  0.00000000000E+00 0. -1.
         25    2    1    2    0    0 -0.13059005431E+02  0.77692363507E+01 -0.27072601445E+03  0.29861374375E+03  0.12508674750E+03 0.  0.
         23    2    1    2    0    0  0.13059005431E+02 -0.77692363507E+01 -0.99556822653E+02  0.13632658650E+03  0.91882961385E+02 0.  0.
          5    1    3    3  502    0 -0.23613167742E+01  0.61918445025E+02 -0.88144596673E+02  0.10782584094E+03  0.41800000000E+01 0.  1.
         -5    1    3    3    0  502 -0.10697688657E+02 -0.54149208674E+02 -0.18258141778E+03  0.19078790281E+03  0.41800000000E+01 0.  1.
        -11    1    4    4    0    0  0.36099396022E+02  0.12743635270E+02 -0.71998714680E+01  0.38953880194E+02  0.00000000000E+00 0.  1.
         11    1    4    4    0    0 -0.23040390590E+02 -0.20512871620E+02 -0.92356951185E+02  0.97372706304E+02  0.00000000000E+00 0. -1.
</event>
<event>
 8    1  0.6380238E-009  0.1127534E+03  0.7561462E-02  0.1255554E+00
          1   -1    0    0  501    0  0.00000000000E+00  0.00000000000E+00  0.98534644820E+02  0.98534644820E+02  0.00000000000E+00 0. -1.
         -1   -1    0    0    0  501 -0.00000000000E+00 -0.00000000000E+00 -0.23239530822E+03  0.23239530822E+03  0.00000000000E+00 0.  1.
         25    2    1    2    0    0 -0.82077708127E+02 -0.34223692430E+01 -0.76417610624E+00  0.14965337764E+03  0.12508831556E+03 0.  0.
         23    2    1    2    0    0  0.82077708127E+02  0.34223692430E+01 -0.13309648729E+03  0.18127657540E+03  0.91640924683E+02 0.  0.
          5    1    3    3  502    0 -0.86218107888E+02 -0.43407112281E+02 -0.28384024358E+02  0.10070186077E+03  0.41800000000E+01 0.  1.
         -5    1    3    3    0  502  0.41403997611E+01  0.39984743038E+02  0.27619848252E+02  0.48951516865E+02  0.41800000000E+01 0.  1.
        -11    1    4    4    0    0  0.35660272952E+02 -0.14795819080E+02 -0.12491492875E+03  0.13074521312E+03  0.00000000000E+00 0.  1.
         11    1    4    4    0    0  0.46417435175E+02  0.18218188323E+02 -0.81815585463E+01  0.50531362283E+02  0.00000000000E+00 0. -1.
</event>
<event>
 8    1  0.6380238E-009  0.9072005E+02  0.7561462E-02  0.1301117E+00
         -4   -1    0    0    0  501 -0.00000000000E+00  0.00000000000E+00  0.40179033000E+03  0.40179033000E+03  0.00000000000E+00 0.  1.
          4   -1    0    0  501    0  0.00000000000E+00 -0.00000000000E+00 -0.48665112670E+02  0.48665112670E+02  0.00000000000E+00 0. -1.
         25    2    1    2    0    0  0.10418454450E+02  0.85154787197E+02  0.22417984763E+03  0.27067388594E+03  0.12509143246E+03 0.  0.
         23    2    1    2    0    0 -0.10418454450E+02 -0.85154787197E+02  0.12894536970E+03  0.17978155673E+03  0.91294127935E+02 0.  0.
          5    1    3    3  502    0  0.18416654523E+02  0.17186849919E+02  0.19414919546E+03  0.19582120281E+03  0.41800000000E+01 0.  1.
         -5    1    3    3    0  502 -0.79982000730E+01  0.67967937277E+02  0.30030652166E+02  0.74852683129E+02  0.41800000000E+01 0.  1.
        -11    1    4    4    0    0 -0.12416524849E+01 -0.66877144771E+02  0.21281822662E+02  0.70192664641E+02  0.00000000000E+00 0. -1.
         11    1    4    4    0    0 -0.91768019650E+01 -0.18277642426E+02  0.10766354704E+03  0.10958889209E+03  0.00000000000E+00 0.  1.
</event>
<event>
 8    1  0.6380238E-009  0.8806328E+02  0.7561462E-02  0.1307611E+00
         -3   -1    0    0    0  501 -0.00000000000E+00  0.00000000000E+00  0.21287739277E+03  0.21287739277E+03  0.00000000000E+00 0.  1.
          3   -1    0    0  501    0  0.00000000000E+00 -0.00000000000E+00 -0.64866145936E+02  0.64866145936E+02  0.00000000000E+00 0. -1.
         25    2    1    2    0    0  0.43152084192E+01  0.40295713731E+02  0.48916985224E+02  0.14029533430E+03  0.12509014275E+03 0.  0.
         23    2    1    2    0    0 -0.43152084192E+01 -0.40295713731E+02  0.99094261612E+02  0.13744820441E+03  0.86197277463E+02 0.  0.
          5    1    3    3  502    0 -0.39279002548E+02  0.86667238860E+01 -0.25892902952E+02  0.48019443638E+02  0.41800000000E+01 0. -1.
         -5    1    3    3    0  502  0.43594210967E+02  0.31628989845E+02  0.74809888176E+02  0.92275890661E+02  0.41800000000E+01 0. -1.
        -11    1    4    4    0    0 -0.34875606423E+02 -0.37130273872E+02  0.93128770090E+02  0.10615052039E+03  0.00000000000E+00 0.  1.
         11    1    4    4    0    0  0.30560398004E+02 -0.31654398586E+01  0.59654915221E+01  0.31297684016E+02  0.00000000000E+00 0. -1.
</event>
<event>
 8    1  0.6380238E-009  0.1070856E+03  0.7561462E-02  0.1266064E+00
          2   -1    0    0  501    0  0.00000000000E+00  0.00000000000E+00  0.14013176796E+03  0.14013176796E+03  0.00000000000E+00 0. -1.
         -2   -1    0    0    0  501 -0.00000000000E+00 -0.00000000000E+00 -0.91702512005E+02  0.91702512005E+02  0.00000000000E+00 0.  1.
         25    2    1    2    0    0  0.26386182858E+02 -0.14298588293E+02  0.86697608039E+01  0.12893077939E+03  0.12508917159E+03 0.  0.
         23    2    1    2    0    0 -0.26386182858E+02  0.14298588293E+02  0.39759495148E+02  0.10290350057E+03  0.90042393914E+02 0.  0.
          5    1    3    3  502    0  0.56256135948E+02  0.32356273989E+02  0.27022490647E+02  0.70422785368E+02  0.41800000000E+01 0.  1.
         -5    1    3    3    0  502 -0.29869953090E+02 -0.46654862282E+02 -0.18352729843E+02  0.58507994025E+02  0.41800000000E+01 0.  1.
        -11    1    4    4    0    0  0.29845066189E+02  0.21655073382E+02  0.73955099824E+01  0.37608027693E+02  0.00000000000E+00 0.  1.
         11    1    4    4    0    0 -0.56231249047E+02 -0.73564850893E+01  0.32363985165E+02  0.65295472875E+02  0.00000000000E+00 0. -1.
</event>
<event>
 8    1  0.6380238E-009  0.9331168E+02  0.7561462E-02  0.1295025E+00
         -4   -1    0    0    0  501 -0.00000000000E+00  0.00000000000E+00  0.14188074657E+03  0.14188074657E+03  0.00000000000E+00 0.  1.
          4   -1    0    0  501    0  0.00000000000E+00 -0.00000000000E+00 -0.87580518172E+02  0.87580518172E+02  0.00000000000E+00 0. -1.
         25    2    1    2    0    0  0.22955434178E+01  0.78009363727E+01  0.55045650365E+02  0.13693718180E+03  0.12512251599E+03 0.  0.
         23    2    1    2    0    0 -0.22955434178E+01 -0.78009363727E+01 -0.74542196484E+00  0.92524082944E+02  0.92163041089E+02 0.  0.
          5    1    3    3  502    0 -0.48015433034E+02 -0.33539639802E+02  0.36355054749E+02  0.69061940700E+02  0.41800000000E+01 0. -1.
         -5    1    3    3    0  502  0.50310976452E+02  0.41340576175E+02  0.18690595617E+02  0.67875241101E+02  0.41800000000E+01 0. -1.
        -11    1    4    4    0    0 -0.29563492242E+02  0.86558605398E+01  0.33668238443E+02  0.45634134977E+02  0.00000000000E+00 0.  1.
         11    1    4    4    0    0  0.27267948824E+02 -0.16456796913E+02 -0.34413660408E+02  0.46889947967E+02  0.00000000000E+00 0. -1.
</event>
<event>
 8    1  0.6380238E-009  0.1117302E+03  0.7561462E-02  0.1257399E+00
         -3   -1    0    0    0  501 -0.00000000000E+00  0.00000000000E+00  0.24027846479E+03  0.24027846479E+03  0.00000000000E+00 0.  1.
          3   -1    0    0  501    0  0.00000000000E+00 -0.00000000000E+00 -0.86928222220E+02  0.86928222220E+02  0.00000000000E+00 0. -1.
         25    2    1    2    0    0 -0.60434547607E+02  0.70278347402E+02  0.11304140761E+03  0.19239795917E+03  0.12508890519E+03 0.  0.
         23    2    1    2    0    0  0.60434547607E+02 -0.70278347402E+02  0.40308834968E+02  0.13480872784E+03  0.89203196513E+02 0.  0.
          5    1    3    3  502    0  0.10973514558E+02 -0.14746661810E+02 -0.14104383051E+02  0.23543323418E+02  0.41800000000E+01 0. -1.
         -5    1    3    3    0  502 -0.71408062165E+02  0.85025009212E+02  0.12714579066E+03  0.16885463575E+03  0.41800000000E+01 0. -1.
        -11    1    4    4    0    0  0.47433537185E+02 -0.62081585313E+02  0.67713520024E+02  0.10338851232E+03  0.00000000000E+00 0.  1.
         11    1    4    4    0    0  0.13001010423E+02 -0.81967620890E+01 -0.27404685056E+02  0.31420215527E+02  0.00000000000E+00 0. -1.
</event>
<event>
 8    1  0.6380238E-009  0.9213221E+02  0.7561462E-02  0.1297769E+00
         -1   -1    0    0    0  501 -0.00000000000E+00  0.00000000000E+00  0.18878022843E+02  0.18878022843E+02  0.00000000000E+00 0.  1.
          1   -1    0    0  501    0  0.00000000000E+00 -0.00000000000E+00 -0.79202150768E+03  0.79202150768E+03  0.00000000000E+00 0. -1.
         25    2    1    2    0    0 -0.19232374648E+01  0.53849928982E+02 -0.37060735124E+03  0.39484353235E+03  0.12509233609E+03 0.  0.
         23    2    1    2    0    0  0.19232374648E+01 -0.53849928982E+02 -0.40253613360E+03  0.41605599818E+03  0.90353423151E+02 0.  0.
          5    1    3    3  502    0  0.25533018374E+02 -0.76990851308E+01 -0.11329529695E+02  0.29275272540E+02  0.41800000000E+01 0.  1.
         -5    1    3    3    0  502 -0.27456255839E+02  0.61549014113E+02 -0.35927782155E+03  0.36556825981E+03  0.41800000000E+01 0.  1.
        -11    1    4    4    0    0 -0.23024102834E+02  0.69303639073E+01 -0.33609434871E+02  0.41324730702E+02  0.00000000000E+00 0.  1.
         11    1    4    4    0    0  0.24947340299E+02 -0.60780292890E+02 -0.36892669872E+03  0.37473126748E+03  0.00000000000E+00 0. -1.
</event>
<event>
 8    1  0.6380238E-009  0.1042161E+03  0.7561462E-02  0.1271672E+00
         -2   -1    0    0    0  501 -0.00000000000E+00  0.00000000000E+00  0.13385098104E+03  0.13385098104E+03  0.00000000000E+00 0.  1.
          2   -1    0    0  501    0  0.00000000000E+00 -0.00000000000E+00 -0.12581100802E+03  0.12581100802E+03  0.00000000000E+00 0. -1.
         25    2    1    2    0    0  0.50000759703E+02  0.39913520085E+02  0.33369677022E+02  0.14440840581E+03  0.12508831787E+03 0.  0.
         23    2    1    2    0    0 -0.50000759703E+02 -0.39913520085E+02 -0.25329704002E+02  0.11525358325E+03  0.92458798882E+02 0.  0.
          5    1    3    3  502    0 -0.12443462318E+02 -0.12989249750E+02  0.56350397439E+02  0.59299241606E+02  0.41800000000E+01 0. -1.
         -5    1    3    3    0  502  0.62444222020E+02  0.52902769835E+02 -0.22980720417E+02  0.85109164200E+02  0.41800000000E+01 0. -1.
        -11    1    4    4    0    0 -0.56183088016E+02 -0.62827331911E+02 -0.57390582580E+01  0.84479286241E+02  0.00000000000E+00 0.  1.
         11    1    4    4    0    0  0.61823283132E+01  0.22913811826E+02 -0.19590645744E+02  0.30774297009E+02  0.00000000000E+00 0. -1.
</event>
<event>
 8    1  0.6380238E-009  0.2658668E+03  0.7561462E-02  0.1103669E+00
         -2   -1    0    0    0  501 -0.00000000000E+00  0.00000000000E+00  0.72719394784E+02  0.72719394784E+02  0.00000000000E+00 0. -1.
          2   -1    0    0  501    0  0.00000000000E+00 -0.00000000000E+00 -0.11053308865E+04  0.11053308865E+04  0.00000000000E+00 0.  1.
         25    2    1    2    0    0 -0.17608738397E+03 -0.18733710281E+03 -0.42901780096E+03  0.51556361015E+03  0.12509039007E+03 0.  0.
         23    2    1    2    0    0  0.17608738397E+03  0.18733710281E+03 -0.60359369071E+03  0.66248667109E+03  0.91985265248E+02 0.  0.
          5    1    3    3  502    0 -0.77069306878E+02 -0.55546204189E+02 -0.62865997900E+02  0.11399414439E+03  0.41800000000E+01 0.  1.
         -5    1    3    3    0  502 -0.99018077096E+02 -0.13179089862E+03 -0.36615180306E+03  0.40156946577E+03  0.41800000000E+01 0.  1.
        -11    1    4    4    0    0  0.18405183722E+03  0.16202252226E+03 -0.56177842145E+03  0.61296114992E+03  0.00000000000E+00 0.  1.
         11    1    4    4    0    0 -0.79644532491E+01  0.25314580545E+02 -0.41815269263E+02  0.49525521171E+02  0.00000000000E+00 0. -1.
</event>
<event>
 8    1  0.6380238E-009  0.3084359E+03  0.7561462E-02  0.1081098E+00
          2   -1    0    0  501    0  0.00000000000E+00  0.00000000000E+00  0.41544054201E+04  0.41544054201E+04  0.00000000000E+00 0. -1.
         -2   -1    0    0    0  501 -0.00000000000E+00 -0.00000000000E+00 -0.35565263111E+02  0.35565263111E+02  0.00000000000E+00 0.  1.
         25    2    1    2    0    0  0.12293591501E+02  0.29275344185E+03  0.33066288511E+04  0.33219418689E+04  0.12509081123E+03 0.  0.
         23    2    1    2    0    0 -0.12293591501E+02 -0.29275344185E+03  0.81221130584E+03  0.86802881430E+03  0.89056762901E+02 0.  0.
          5    1    3    3  502    0 -0.17323137851E+02  0.28587632835E+03  0.30694853692E+04  0.30828206679E+04  0.41800000000E+01 0.  1.
         -5    1    3    3    0  502  0.29616729352E+02  0.68771135045E+01  0.23714348192E+03  0.23912120099E+03  0.41800000000E+01 0.  1.
        -11    1    4    4    0    0 -0.37850701743E+02 -0.19944063997E+03  0.62741124187E+03  0.65943469041E+03  0.00000000000E+00 0. -1.
         11    1    4    4    0    0  0.25557110242E+02 -0.93312801877E+02  0.18480006397E+03  0.20859412389E+03  0.00000000000E+00 0.  1.
</event>
<event>
 8    1  0.6380238E-009  0.9573704E+02  0.7561462E-02  0.1289525E+00
         -1   -1    0    0    0  501 -0.00000000000E+00  0.00000000000E+00  0.19792502443E+03  0.19792502443E+03  0.00000000000E+00 0.  1.
          1   -1    0    0  501    0  0.00000000000E+00 -0.00000000000E+00 -0.63598834594E+02  0.63598834594E+02  0.00000000000E+00 0. -1.
         25    2    1    2    0    0 -0.44800269610E+01 -0.29403930096E+02  0.76504487614E+02  0.14961552143E+03  0.12508879199E+03 0.  0.
         23    2    1    2    0    0  0.44800269610E+01  0.29403930096E+02  0.57821702225E+02  0.11190833760E+03  0.91079443506E+02 0.  0.
          5    1    3    3  502    0  0.34076664843E+01  0.47107271540E+02  0.48029291486E+02  0.67490684271E+02  0.41800000000E+01 0. -1.
         -5    1    3    3    0  502 -0.78876934454E+01 -0.76511201635E+02  0.28475196128E+02  0.82124837157E+02  0.41800000000E+01 0. -1.
        -11    1    4    4    0    0 -0.26303621888E+02  0.30025921747E+01  0.65486848752E+02  0.70635850980E+02  0.00000000000E+00 0.  1.
         11    1    4    4    0    0  0.30783648849E+02  0.26401337921E+02 -0.76651465262E+01  0.41272486620E+02  0.00000000000E+00 0. -1.
</event>
<event>
 8    1  0.6380238E-009  0.1458204E+03  0.7561462E-02  0.1205705E+00
         -1   -1    0    0    0  501 -0.00000000000E+00  0.00000000000E+00  0.57246422602E+02  0.57246422602E+02  0.00000000000E+00 0.  1.
          1   -1    0    0  501    0  0.00000000000E+00 -0.00000000000E+00 -0.43404008257E+03  0.43404008257E+03  0.00000000000E+00 0. -1.
         25    2    1    2    0    0  0.90345636932E+02 -0.47803670834E+02 -0.28152081940E+03  0.32457504612E+03  0.12508982272E+03 0.  0.
         23    2    1    2    0    0 -0.90345636932E+02  0.47803670834E+02 -0.95272840567E+02  0.16671145905E+03  0.90930035591E+02 0.  0.
          5    1    3    3  502    0  0.10719447048E+03  0.17350813169E+01 -0.21044609919E+03  0.23621748045E+03  0.41800000000E+01 0. -1.
         -5    1    3    3    0  502 -0.16848833548E+02 -0.49538752151E+02 -0.71074720216E+02  0.88357565665E+02  0.41800000000E+01 0. -1.
        -11    1    4    4    0    0 -0.43681298674E+02 -0.21202681109E+02 -0.14489587096E+02  0.50671073349E+02  0.00000000000E+00 0.  1.
         11    1    4    4    0    0 -0.46664338258E+02  0.69006351943E+02 -0.80783253471E+02  0.11604038571E+03  0.00000000000E+00 0. -1.
</event>
<event>
 7    1  0.6380238E-009  0.1081079E+03  0.7561462E-02  0.1264114E+00
         -1   -1    0    0    0  501 -0.00000000000E+00  0.00000000000E+00  0.53451633086E+03  0.53451633086E+03  0.00000000000E+00 0.  1.
          1   -1    0    0  501    0  0.00000000000E+00 -0.00000000000E+00 -0.36451877724E+02  0.36451877724E+02  0.00000000000E+00 0. -1.
         25    2    1    2    0    0 -0.46908553193E+02 -0.37632066318E+01  0.20890091890E+03  0.24799668029E+03  0.12509270734E+03 0.  0.
          5    1    3    3  502    0 -0.40284963624E+02 -0.40983631723E+02  0.20107048022E+03  0.20916344514E+03  0.41800000000E+01 0.  1.
         -5    1    3    3    0  502 -0.66235895697E+01  0.37220425091E+02  0.78304386767E+01  0.38833235155E+02  0.41800000000E+01 0.  1.
        -11    1    1    2    0    0 -0.57240069835E+01  0.50106889940E+02  0.21526790951E+03  0.22109667012E+03  0.00000000000E+00 0.  1.
         11    1    1    2    0    0  0.52632560177E+02 -0.46343683308E+02  0.73895624727E+02  0.10187485817E+03  0.00000000000E+00 0. -1.
</event>
<event>
 8    1  0.6380238E-009  0.1034948E+03  0.7561462E-02  0.1273114E+00
         -1   -1    0    0    0  501 -0.00000000000E+00  0.00000000000E+00  0.21248589577E+02  0.21248589577E+02  0.00000000000E+00 0.  1.
          1   -1    0    0  501    0  0.00000000000E+00 -0.00000000000E+00 -0.72692400690E+03  0.72692400690E+03  0.00000000000E+00 0. -1.
         25    2    1    2    0    0 -0.16430046121E+02  0.52644301944E+02 -0.46490800598E+03  0.48459151191E+03  0.12509240763E+03 0.  0.
         23    2    1    2    0    0  0.16430046121E+02 -0.52644301944E+02 -0.24076741134E+03  0.26358108457E+03  0.92003656639E+02 0.  0.
          5    1    3    3  502    0 -0.17063189991E+02 -0.27072515717E+02 -0.29616736056E+03  0.29792054548E+03  0.41800000000E+01 0.  1.
         -5    1    3    3    0  502  0.63314386970E+00  0.79716817661E+02 -0.16874064542E+03  0.18667096642E+03  0.41800000000E+01 0.  1.
        -11    1    4    4    0    0 -0.27973087605E+02 -0.27677173488E+01 -0.13932262613E+03  0.14213003920E+03  0.00000000000E+00 0. -1.
         11    1    4    4    0    0  0.44403133727E+02 -0.49876584595E+02 -0.10144478521E+03  0.12145104537E+03  0.00000000000E+00 0.  1.
</event>
<event>
 8    1  0.6380238E-009  0.1193022E+03  0.7561462E-02  0.1244253E+00
          2   -1    0    0  501    0  0.00000000000E+00  0.00000000000E+00  0.12435671123E+03  0.12435671123E+03  0.00000000000E+00 0.  1.
         -2   -1    0    0    0  501 -0.00000000000E+00 -0.00000000000E+00 -0.17693623423E+03  0.17693623423E+03  0.00000000000E+00 0. -1.
         25    2    1    2    0    0  0.66792373841E+02 -0.50479667902E+02 -0.84145933118E+02  0.17244621342E+03  0.12509092848E+03 0.  0.
         23    2    1    2    0    0 -0.66792373841E+02  0.50479667902E+02  0.31566410122E+02  0.12884673204E+03  0.92712588324E+02 0.  0.
          5    1    3    3  502    0  0.83331411328E+02 -0.76420331201E+02 -0.43315406194E+02  0.12115233365E+03  0.41800000000E+01 0. -1.
         -5    1    3    3    0  502 -0.16539037487E+02  0.25940663299E+02 -0.40830526923E+02  0.51293879774E+02  0.41800000000E+01 0. -1.
        -11    1    4    4    0    0 -0.63908716714E+02  0.24768731036E+02 -0.19790929641E+02  0.71340696697E+02  0.00000000000E+00 0. -1.
         11    1    4    4    0    0 -0.28836571266E+01  0.25710936866E+02  0.51357339763E+02  0.57506035340E+02  0.00000000000E+00 0.  1.
</event>
<event>
 8    1  0.6380238E-009  0.1905203E+03  0.7561462E-02  0.1157993E+00
         -2   -1    0    0    0  501 -0.00000000000E+00  0.00000000000E+00  0.11182083889E+03  0.11182083889E+03  0.00000000000E+00 0.  1.
          2   -1    0    0  501    0  0.00000000000E+00 -0.00000000000E+00 -0.46407455122E+03  0.46407455122E+03  0.00000000000E+00 0. -1.
         25    2    1    2    0    0  0.12590820634E+03 -0.97569906983E+02 -0.30659336990E+02  0.20484290008E+03  0.12509138898E+03 0.  0.
         23    2    1    2    0    0 -0.12590820634E+03  0.97569906983E+02 -0.32159437534E+03  0.37105249002E+03  0.94256272637E+02 0.  0.
          5    1    3    3  502    0  0.12683302150E+03 -0.24829443129E+02 -0.13723563440E+02  0.13003432310E+03  0.41800000000E+01 0.  1.
         -5    1    3    3    0  502 -0.92481516672E+00 -0.72740463854E+02 -0.16935773550E+02  0.74808576985E+02  0.41800000000E+01 0.  1.
        -11    1    4    4    0    0 -0.93743322240E+01  0.53440718606E+02 -0.14584467774E+03  0.15560995641E+03  0.00000000000E+00 0.  1.
         11    1    4    4    0    0 -0.11653387411E+03  0.44129188377E+02 -0.17574969760E+03  0.21544253361E+03  0.00000000000E+00 0. -1.
</event>
<event>
 8    1  0.6380238E-009  0.4170725E+03  0.7561462E-02  0.1038023E+00
          1   -1    0    0  501    0  0.00000000000E+00  0.00000000000E+00  0.41043303720E+03  0.41043303720E+03  0.00000000000E+00 0. -1.
         -1   -1    0    0    0  501 -0.00000000000E+00 -0.00000000000E+00 -0.46487271167E+03  0.46487271167E+03  0.00000000000E+00 0.  1.
         25    2    1    2    0    0 -0.33256306679E+03 -0.24087716156E+03 -0.12862034406E+03  0.44811872288E+03  0.12508875462E+03 0.  0.
         23    2    1    2    0    0  0.33256306679E+03  0.24087716156E+03  0.74180669593E+02  0.42718702600E+03  0.91465748153E+02 0.  0.
          5    1    3    3  502    0 -0.31215603668E+03 -0.24782537890E+03 -0.98043651671E+02  0.41047392085E+03  0.41800000000E+01 0. -1.
         -5    1    3    3    0  502 -0.20407030115E+02  0.69482173460E+01 -0.30576692390E+02  0.37644802030E+02  0.41800000000E+01 0. -1.
        -11    1    4    4    0    0  0.21917951115E+03  0.12909135716E+03  0.72635024446E+01  0.25447395755E+03  0.00000000000E+00 0.  1.
         11    1    4    4    0    0  0.11338355564E+03  0.11178580439E+03  0.66917167148E+02  0.17271306845E+03  0.00000000000E+00 0. -1.
</event>
<event>
 8    1  0.6380238E-009  0.1188466E+03  0.7561462E-02  0.1245012E+00
         -3   -1    0    0    0  501 -0.00000000000E+00  0.00000000000E+00  0.59608796144E+02  0.59608796144E+02  0.00000000000E+00 0.  1.
          3   -1    0    0  501    0  0.00000000000E+00 -0.00000000000E+00 -0.27790234936E+03  0.27790234936E+03  0.00000000000E+00 0. -1.
         25    2    1    2    0    0 -0.49325244082E+02 -0.62536638511E+01 -0.60716570503E+02  0.14765586444E+03  0.12507463513E+03 0.  0.
         23    2    1    2    0    0  0.49325244082E+02  0.62536638511E+01 -0.15757698272E+03  0.18985528107E+03  0.93500985308E+02 0.  0.
          5    1    3    3  502    0 -0.29821263879E+02  0.57627182319E+02 -0.15356938859E+02  0.66809489539E+02  0.41800000000E+01 0.  1.
         -5    1    3    3    0  502 -0.19503980203E+02 -0.63880846170E+02 -0.45359631644E+02  0.80846374897E+02  0.41800000000E+01 0.  1.
        -11    1    4    4    0    0  0.45482414200E+02 -0.39254658343E+02 -0.94474346487E+02  0.11195972645E+03  0.00000000000E+00 0. -1.
         11    1    4    4    0    0  0.38428298816E+01  0.45508322194E+02 -0.63102636229E+02  0.77895554619E+02  0.00000000000E+00 0.  1.
</event>
<event>
 8    1  0.6380238E-009  0.1117678E+03  0.7561462E-02  0.1257331E+00
         -1   -1    0    0    0  501 -0.00000000000E+00  0.00000000000E+00  0.10701443688E+02  0.10701443688E+02  0.00000000000E+00 0.  1.
          1   -1    0    0  501    0  0.00000000000E+00 -0.00000000000E+00 -0.12770459106E+04  0.12770459106E+04  0.00000000000E+00 0. -1.
         25    2    1    2    0    0 -0.34388588222E+02 -0.40627834589E+01 -0.87014191576E+03  0.87976894018E+03  0.12508938140E+03 0.  0.
         23    2    1    2    0    0  0.34388588222E+02  0.40627834589E+01 -0.39620255118E+03  0.40797841413E+03  0.90944178634E+02 0.  0.
          5    1    3    3  502    0 -0.24230461136E+02  0.59834314179E+02 -0.40623270918E+03  0.41135112350E+03  0.41800000000E+01 0.  1.
         -5    1    3    3    0  502 -0.10158127086E+02 -0.63897097638E+02 -0.46390920658E+03  0.46841781668E+03  0.41800000000E+01 0.  1.
        -11    1    4    4    0    0 -0.46385252899E+01  0.40412932014E+02 -0.22545278809E+03  0.22909317023E+03  0.00000000000E+00 0. -1.
         11    1    4    4    0    0  0.39027113512E+02 -0.36350148555E+02 -0.17074976309E+03  0.17888524390E+03  0.00000000000E+00 0.  1.
</event>
<event>
 8    1  0.6380238E-009  0.1223258E+03  0.7561462E-02  0.1239309E+00
          1   -1    0    0  501    0  0.00000000000E+00  0.00000000000E+00  0.27144046365E+03  0.27144046365E+03  0.00000000000E+00 0. -1.
         -1   -1    0    0    0  501 -0.00000000000E+00 -0.00000000000E+00 -0.64664888466E+02  0.64664888466E+02  0.00000000000E+00 0.  1.
         25    2    1    2    0    0  0.24722281601E+02 -0.70019438927E+02  0.14638183119E+03  0.20637159160E+03  0.12509068823E+03 0.  0.
         23    2    1    2    0    0 -0.24722281601E+02  0.70019438927E+02  0.60393743988E+02  0.12973376051E+03  0.87575860078E+02 0.  0.
          5    1    3    3  502    0  0.57713878767E+02  0.99588661095E+01  0.63573189331E+02  0.86539549446E+02  0.41800000000E+01 0. -1.
         -5    1    3    3    0  502 -0.32991597166E+02 -0.79978305037E+02  0.82808641862E+02  0.11983204216E+03  0.41800000000E+01 0. -1.
        -11    1    4    4    0    0 -0.98700037930E+01  0.80524487913E+02  0.17291125634E+02  0.82949340891E+02  0.00000000000E+00 0.  1.
         11    1    4    4    0    0 -0.14852277808E+02 -0.10505048986E+02  0.43102618354E+02  0.46784419621E+02  0.00000000000E+00 0. -1.
</event>
<event>
 8    1  0.6380238E-009  0.1132702E+03  0.7561462E-02  0.1254631E+00
         -2   -1    0    0    0  501 -0.00000000000E+00  0.00000000000E+00  0.10325335798E+02  0.10325335798E+02  0.00000000000E+00 0. -1.
          2   -1    0    0  501    0  0.00000000000E+00 -0.00000000000E+00 -0.13949885693E+04  0.13949885693E+04  0.00000000000E+00 0.  1.
         25    2    1    2    0    0 -0.40259697944E+02 -0.86608374576E+01 -0.94320665792E+03  0.95235558858E+03  0.12508602707E+03 0.  0.
         23    2    1    2    0    0  0.40259697944E+02  0.86608374576E+01 -0.44145657555E+03  0.45295831649E+03  0.92690209807E+02 0.  0.
          5    1    3    3  502    0 -0.69408388324E+02  0.35725969149E+02 -0.53189777168E+03  0.53761192431E+03  0.41800000000E+01 0.  1.
         -5    1    3    3    0  502  0.29148690380E+02 -0.44386806606E+02 -0.41130888624E+03  0.41474366427E+03  0.41800000000E+01 0.  1.
        -11    1    4    4    0    0 -0.13660119463E+02  0.33168152434E+02 -0.96443769873E+02  0.10289861975E+03  0.00000000000E+00 0. -1.
         11    1    4    4    0    0  0.53919817407E+02 -0.24507314976E+02 -0.34501280568E+03  0.35005969674E+03  0.00000000000E+00 0.  1.
</event>
<event>
 8    1  0.6380238E-009  0.1394696E+03  0.7561462E-02  0.1214044E+00
          1   -1    0    0  501    0  0.00000000000E+00  0.00000000000E+00  0.15434768321E+03  0.15434768321E+03  0.00000000000E+00 0. -1.
         -1   -1    0    0    0  501 -0.00000000000E+00 -0.00000000000E+00 -0.16468742192E+03  0.16468742192E+03  0.00000000000E+00 0.  1.
         25    2    1    2    0    0  0.57492945736E+02 -0.75862193741E+02 -0.69484698499E+02  0.17186116925E+03  0.12509047495E+03 0.  0.
         23    2    1    2    0    0 -0.57492945736E+02  0.75862193741E+02  0.59144959787E+02  0.14717393588E+03  0.95401938577E+02 0.  0.
          5    1    3    3  502    0  0.45019718081E+02 -0.11025340045E+03 -0.61840949412E+02  0.13425484256E+03  0.41800000000E+01 0. -1.
         -5    1    3    3    0  502  0.12473227656E+02  0.34391206709E+02 -0.76437490879E+01  0.37606326691E+02  0.41800000000E+01 0. -1.
        -11    1    4    4    0    0  0.79347038459E+01  0.53085321090E+02 -0.34765939979E+01  0.53787522217E+02  0.00000000000E+00 0.  1.
         11    1    4    4    0    0 -0.65427649582E+02  0.22776872650E+02  0.62621553785E+02  0.93386413659E+02  0.00000000000E+00 0. -1.
</event>
<event>
 8    1  0.6380238E-009  0.1506262E+03  0.7561462E-02  0.1199706E+00
         -1   -1    0    0    0  501 -0.00000000000E+00  0.00000000000E+00  0.30363556865E+02  0.30363556865E+02  0.00000000000E+00 0.  1.
          1   -1    0    0  501    0  0.00000000000E+00 -0.00000000000E+00 -0.12658250132E+04  0.12658250132E+04  0.00000000000E+00 0. -1.
         25    2    1    2    0    0 -0.23317626061E+02 -0.12908982589E+03 -0.96459616612E+03  0.98147898949E+03  0.12508936114E+03 0.  0.
         23    2    1    2    0    0  0.23317626061E+02  0.12908982589E+03 -0.27086529021E+03  0.31470958057E+03  0.92012063516E+02 0.  0.
          5    1    3    3  502    0  0.25191677751E+02 -0.42866744055E+01 -0.41441210619E+03  0.41522025765E+03  0.41800000000E+01 0. -1.
         -5    1    3    3    0  502 -0.48509303811E+02 -0.12480315148E+03 -0.55018405993E+03  0.56625873184E+03  0.41800000000E+01 0. -1.
        -11    1    4    4    0    0  0.40405647858E+02  0.95889049973E+02 -0.25249468890E+03  0.27309502780E+03  0.00000000000E+00 0. -1.
         11    1    4    4    0    0 -0.17088021797E+02  0.33200775917E+02 -0.18370601303E+02  0.41614552775E+02  0.00000000000E+00 0.  1.
</event>
<event>
 8    1  0.6380238E-009  0.1348175E+03  0.7561462E-02  0.1220478E+00
          1   -1    0    0  501    0  0.00000000000E+00  0.00000000000E+00  0.19584315640E+03  0.19584315640E+03  0.00000000000E+00 0. -1.
         -1   -1    0    0    0  501 -0.00000000000E+00 -0.00000000000E+00 -0.11947665305E+03  0.11947665305E+03  0.00000000000E+00 0.  1.
         25    2    1    2    0    0  0.55932065755E+02  0.64886386995E+02  0.10845421051E+03  0.18640781954E+03  0.12508765012E+03 0.  0.
         23    2    1    2    0    0 -0.55932065755E+02 -0.64886386995E+02 -0.32087707158E+02  0.12891198991E+03  0.90829736286E+02 0.  0.
          5    1    3    3  502    0 -0.38595960553E+02  0.13050706018E+02  0.46621745013E+02  0.62056656425E+02  0.41800000000E+01 0.  1.
         -5    1    3    3    0  502  0.94528026307E+02  0.51835680977E+02  0.61832465492E+02  0.12435116312E+03  0.41800000000E+01 0.  1.
        -11    1    4    4    0    0 -0.41687274110E+02 -0.85854862039E+02 -0.38257182135E+02  0.10282265384E+03  0.00000000000E+00 0.  1.
         11    1    4    4    0    0 -0.14244791645E+02  0.20968475044E+02  0.61694749767E+01  0.26089336062E+02  0.00000000000E+00 0. -1.
</event>
<event>
 8    1  0.6380238E-009  0.1154861E+03  0.7561462E-02  0.1250735E+00
         -2   -1    0    0    0  501 -0.00000000000E+00  0.00000000000E+00  0.44171591931E+03  0.44171591931E+03  0.00000000000E+00 0.  1.
          2   -1    0    0  501    0  0.00000000000E+00 -0.00000000000E+00 -0.62119329784E+02  0.62119329784E+02  0.00000000000E+00 0. -1.
         25    2    1    2    0    0  0.79109976171E+02  0.54879235907E+02  0.32165543557E+03  0.35830275652E+03  0.12509407354E+03 0.  0.
         23    2    1    2    0    0 -0.79109976171E+02 -0.54879235907E+02  0.57941153961E+02  0.14553249258E+03  0.92479242049E+02 0.  0.
          5    1    3    3  502    0 -0.13661839654E+02 -0.50014854917E+01  0.16994217494E+03  0.17061499332E+03  0.41800000000E+01 0. -1.
         -5    1    3    3    0  502  0.92771815826E+02  0.59880721398E+02  0.15171326062E+03  0.18768776320E+03  0.41800000000E+01 0. -1.
        -11    1    4    4    0    0 -0.26604127817E+02  0.34843492980E+01  0.61341547313E+02  0.66953011386E+02  0.00000000000E+00 0.  1.
         11    1    4    4    0    0 -0.52505848354E+02 -0.58363585205E+02 -0.34003933522E+01  0.78579481191E+02  0.00000000000E+00 0. -1.
</event>
<event>
 8    1  0.6380238E-009  0.1009951E+03  0.7561462E-02  0.1278217E+00
          1   -1    0    0  501    0  0.00000000000E+00  0.00000000000E+00  0.34972039682E+03  0.34972039682E+03  0.00000000000E+00 0.  1.
         -1   -1    0    0    0  501 -0.00000000000E+00 -0.00000000000E+00 -0.44164253525E+02  0.44164253525E+02  0.00000000000E+00 0. -1.
         25    2    1    2    0    0 -0.19852162294E+02  0.53895566910E+01  0.25914467603E+03  0.28849083206E+03  0.12509133223E+03 0.  0.
         23    2    1    2    0    0  0.19852162294E+02 -0.53895566910E+01  0.46411467267E+02  0.10539381829E+03  0.92361663964E+02 0.  0.
          5    1    3    3  502    0  0.50092418407E+02 -0.12548614881E+02  0.80173456842E+02  0.95456658748E+02  0.41800000000E+01 0.  1.
         -5    1    3    3    0  502 -0.69944580701E+02  0.17938171572E+02  0.17897121919E+03  0.19303417331E+03  0.41800000000E+01 0.  1.
        -11    1    4    4    0    0  0.42018993813E+02  0.17923971764E+02  0.55578722579E+02  0.71943443123E+02  0.00000000000E+00 0.  1.
         11    1    4    4    0    0 -0.22166831520E+02 -0.23313528455E+02 -0.91672553123E+01  0.33450375164E+02  0.00000000000E+00 0. -1.
</event>
<event>
 8    1  0.6380238E-009  0.1933956E+03  0.7561462E-02  0.1155434E+00
         -1   -1    0    0    0  501 -0.00000000000E+00  0.00000000000E+00  0.45254917728E+02  0.45254917728E+02  0.00000000000E+00 0.  1.
          1   -1    0    0  501    0  0.00000000000E+00 -0.00000000000E+00 -0.11213230502E+04  0.11213230502E+04  0.00000000000E+00 0. -1.
         25    2    1    2    0    0  0.14753682036E+03 -0.98432439763E+02 -0.78341887832E+03  0.81292599909E+03  0.12508989779E+03 0.  0.
         23    2    1    2    0    0 -0.14753682036E+03  0.98432439763E+02 -0.29264925413E+03  0.35365196882E+03  0.89275251591E+02 0.  0.
          5    1    3    3  502    0  0.16548380734E+03 -0.82208239512E+02 -0.59862127580E+03  0.62650458049E+03  0.41800000000E+01 0. -1.
         -5    1    3    3    0  502 -0.17946986981E+02 -0.16224200251E+02 -0.18479760252E+03  0.18642141860E+03  0.41800000000E+01 0. -1.
        -11    1    4    4    0    0 -0.55182827575E+02  0.34254660178E+02 -0.19213837726E+03  0.20281933394E+03  0.00000000000E+00 0. -1.
         11    1    4    4    0    0 -0.92353992780E+02  0.64177779585E+02 -0.10051087687E+03  0.15083263488E+03  0.00000000000E+00 0.  1.
</event>
<event>
 8    1  0.6380238E-009  0.1404945E+03  0.7561462E-02  0.1212665E+00
          2   -1    0    0  501    0  0.00000000000E+00  0.00000000000E+00  0.28088431473E+03  0.28088431473E+03  0.00000000000E+00 0.  1.
         -2   -1    0    0    0  501 -0.00000000000E+00 -0.00000000000E+00 -0.84148181178E+02  0.84148181178E+02  0.00000000000E+00 0. -1.
         25    2    1    2    0    0 -0.10430689124E+03 -0.49058297889E+01  0.70038920482E+02  0.17736035833E+03  0.12508897473E+03 0.  0.
         23    2    1    2    0    0  0.10430689124E+03  0.49058297889E+01  0.12669721307E+03  0.18767213757E+03  0.90910135269E+02 0.  0.
          5    1    3    3  502    0  0.17962358388E+02  0.19629431097E+02  0.41316962434E+02  0.49320631269E+02  0.41800000000E+01 0.  1.
         -5    1    3    3    0  502 -0.12226924963E+03 -0.24535260886E+02  0.28721958048E+02  0.12803972706E+03  0.41800000000E+01 0.  1.
        -11    1    4    4    0    0  0.11382584745E+03  0.15681027700E+02  0.12939131356E+03  0.17304430127E+03  0.00000000000E+00 0.  1.
         11    1    4    4    0    0 -0.95189562073E+01 -0.10775197911E+02 -0.26941004947E+01  0.14627836298E+02  0.00000000000E+00 0. -1.
</event>
<event>
 8    1  0.6380238E-009  0.9730488E+02  0.7561462E-02  0.1286068E+00
          1   -1    0    0  501    0  0.00000000000E+00  0.00000000000E+00  0.11875187050E+03  0.11875187050E+03  0.00000000000E+00 0. -1.
         -1   -1    0    0    0  501 -0.00000000000E+00 -0.00000000000E+00 -0.15701103134E+03  0.15701103134E+03  0.00000000000E+00 0.  1.
         25    2    1    2    0    0 -0.56687241723E+02 -0.61311135928E+02 -0.15963363423E+02  0.15124494943E+03  0.12509079499E+03 0.  0.
         23    2    1    2    0    0  0.56687241723E+02  0.61311135928E+02 -0.22295797417E+02  0.12451795241E+03  0.89638826006E+02 0.  0.
          5    1    3    3  502    0 -0.60792863744E+00 -0.26868514882E+02  0.50662939636E+02  0.57502108846E+02  0.41800000000E+01 0.  1.
         -5    1    3    3    0  502 -0.56079313085E+02 -0.34442621047E+02 -0.66626303059E+02  0.93742840580E+02  0.41800000000E+01 0.  1.
        -11    1    4    4    0    0  0.49600013523E+02  0.72726663296E+02  0.10903197160E+02  0.88702923311E+02  0.00000000000E+00 0. -1.
         11    1    4    4    0    0  0.70872281998E+01 -0.11415527367E+02 -0.33198994577E+02  0.35815029102E+02  0.00000000000E+00 0.  1.
</event>
<event>
 8    1  0.6380238E-009  0.1268247E+03  0.7561462E-02  0.1232245E+00
         -3   -1    0    0    0  501 -0.00000000000E+00  0.00000000000E+00  0.82867500373E+03  0.82867500373E+03  0.00000000000E+00 0.  1.
          3   -1    0    0  501    0  0.00000000000E+00 -0.00000000000E+00 -0.23484409547E+02  0.23484409547E+02  0.00000000000E+00 0. -1.
         25    2    1    2    0    0 -0.82857550264E+02  0.20944942361E+02  0.37318277274E+03  0.40276213261E+03  0.12509152389E+03 0.  0.
         23    2    1    2    0    0  0.82857550264E+02 -0.20944942361E+02  0.43200782144E+03  0.44939728067E+03  0.89571724541E+02 0.  0.
          5    1    3    3  502    0 -0.48125955478E+02  0.64353217230E+02  0.30092467617E+03  0.31149731505E+03  0.41800000000E+01 0. -1.
         -5    1    3    3    0  502 -0.34731594786E+02 -0.43408274869E+02  0.72258096574E+02  0.91264817559E+02  0.41800000000E+01 0. -1.
        -11    1    4    4    0    0  0.97567184027E+02 -0.27440988493E+02  0.40870753585E+03  0.42108694246E+03  0.00000000000E+00 0.  1.
         11    1    4    4    0    0 -0.14709633763E+02  0.64960461320E+01  0.23300285591E+02  0.28310338207E+02  0.00000000000E+00 0. -1.
</event>
<event>
 8    1  0.6380238E-009  0.1099996E+03  0.7561462E-02  0.1260571E+00
         -2   -1    0    0    0  501 -0.00000000000E+00  0.00000000000E+00  0.45875842449E+02  0.45875842449E+02  0.00000000000E+00 0.  1.
          2   -1    0    0  501    0  0.00000000000E+00 -0.00000000000E+00 -0.32916329064E+03  0.32916329064E+03  0.00000000000E+00 0. -1.
         25    2    1    2    0    0  0.95624817194E+01 -0.49289753132E+02 -0.11427649333E+03  0.17670584772E+03  0.12507965010E+03 0.  0.
         23    2    1    2    0    0 -0.95624817194E+01  0.49289753132E+02 -0.16901095487E+03  0.19833328538E+03  0.90832089060E+02 0.  0.
          5    1    3    3  502    0  0.40738959103E+02 -0.70989347945E+02 -0.11151576277E+03  0.13839215316E+03  0.41800000000E+01 0. -1.
         -5    1    3    3    0  502 -0.31176477383E+02  0.21699594813E+02 -0.27607305554E+01  0.38313694553E+02  0.41800000000E+01 0. -1.
        -11    1    4    4    0    0  0.20848541412E+02  0.63081740140E+02 -0.84682122214E+02  0.10763377463E+03  0.00000000000E+00 0.  1.
         11    1    4    4    0    0 -0.30411023131E+02 -0.13791987007E+02 -0.84328832653E+02  0.90699510749E+02  0.00000000000E+00 0. -1.
</event>
<event>
 8    1  0.6380238E-009  0.1134898E+03  0.7561462E-02  0.1254241E+00
          3   -1    0    0  501    0  0.00000000000E+00  0.00000000000E+00  0.18743546466E+03  0.18743546466E+03  0.00000000000E+00 0. -1.
         -3   -1    0    0    0  501 -0.00000000000E+00 -0.00000000000E+00 -0.75614002970E+02  0.75614002970E+02  0.00000000000E+00 0.  1.
         25    2    1    2    0    0  0.51950274872E+02  0.38776917693E+01  0.66387183559E+02  0.15089384069E+03  0.12509126854E+03 0.  0.
         23    2    1    2    0    0 -0.51950274872E+02 -0.38776917693E+01  0.45434278129E+02  0.11215562694E+03  0.88321817646E+02 0.  0.
          5    1    3    3  502    0 -0.47047346898E+01  0.50535248690E+02  0.57557376943E+02  0.76852260404E+02  0.41800000000E+01 0. -1.
         -5    1    3    3    0  502  0.56655009562E+02 -0.46657556921E+02  0.88298066168E+01  0.74041580285E+02  0.41800000000E+01 0. -1.
        -11    1    4    4    0    0 -0.54217419717E+02  0.34391008267E+02  0.28383309340E+02  0.70198876768E+02  0.00000000000E+00 0. -1.
         11    1    4    4    0    0  0.22671448454E+01 -0.38268700037E+02  0.17050968789E+02  0.41956750171E+02  0.00000000000E+00 0.  1.
</event>
<event>
 8    1  0.6380238E-009  0.1948936E+03  0.7561462E-02  0.1154120E+00
         -1   -1    0    0    0  501 -0.00000000000E+00  0.00000000000E+00  0.15189133339E+03  0.15189133339E+03  0.00000000000E+00 0.  1.
          1   -1    0    0  501    0  0.00000000000E+00 -0.00000000000E+00 -0.43783171771E+03  0.43783171771E+03  0.00000000000E+00 0. -1.
         25    2    1    2    0    0  0.14422246197E+03 -0.97479671673E+02  0.31491604098E+02  0.21666178878E+03  0.12509278421E+03 0.  0.
         23    2    1    2    0    0 -0.14422246197E+03  0.97479671673E+02 -0.31743198842E+03  0.37306126232E+03  0.90051281179E+02 0.  0.
          5    1    3    3  502    0 -0.72844335821E+01 -0.55377012711E+02  0.17766352209E+02  0.58760464432E+02  0.41800000000E+01 0. -1.
         -5    1    3    3    0  502  0.15150689555E+03 -0.42102658962E+02  0.13725251888E+02  0.15790132435E+03  0.41800000000E+01 0. -1.
        -11    1    4    4    0    0 -0.76268176848E+02  0.34079635724E+02 -0.23291014251E+03  0.24743765044E+03  0.00000000000E+00 0. -1.
         11    1    4    4    0    0 -0.67954285120E+02  0.63400035949E+02 -0.84521845909E+02  0.12562361187E+03  0.00000000000E+00 0.  1.
</event>
<event>
 8    1  0.6380238E-009  0.1150340E+03  0.7561462E-02  0.1251522E+00
          1   -1    0    0  501    0  0.00000000000E+00  0.00000000000E+00  0.42893825671E+03  0.42893825671E+03  0.00000000000E+00 0. -1.
         -1   -1    0    0    0  501 -0.00000000000E+00 -0.00000000000E+00 -0.38839012332E+02  0.38839012332E+02  0.00000000000E+00 0.  1.
         25    2    1    2    0    0  0.32102684000E+02 -0.55474401669E+02  0.26368853955E+03  0.29880707945E+03  0.12508410481E+03 0.  0.
         23    2    1    2    0    0 -0.32102684000E+02  0.55474401669E+02  0.12641070483E+03  0.16897018959E+03  0.91996016849E+02 0.  0.
          5    1    3    3  502    0 -0.42276155482E+02 -0.50338725833E+02  0.12210459835E+03  0.13873812014E+03  0.41800000000E+01 0. -1.
         -5    1    3    3    0  502  0.74378839482E+02 -0.51356758358E+01  0.14158394120E+03  0.16006895931E+03  0.41800000000E+01 0. -1.
        -11    1    4    4    0    0 -0.50473516203E+02  0.32180026662E+02  0.27811585739E+02  0.66004653284E+02  0.00000000000E+00 0.  1.
         11    1    4    4    0    0  0.18370832203E+02  0.23294375007E+02  0.98599119087E+02  0.10296553631E+03  0.00000000000E+00 0. -1.
</event>
<event>
 8    1  0.6380238E-009  0.1149845E+03  0.7561462E-02  0.1251608E+00
         -2   -1    0    0    0  501 -0.00000000000E+00  0.00000000000E+00  0.45900942577E+02  0.45900942577E+02  0.00000000000E+00 0.  1.
          2   -1    0    0  501    0  0.00000000000E+00 -0.00000000000E+00 -0.37088612740E+03  0.37088612740E+03  0.00000000000E+00 0. -1.
         25    2    1    2    0    0  0.39122596007E+02 -0.53764100982E+02 -0.13755220587E+03  0.19745645814E+03  0.12508911803E+03 0.  0.
         23    2    1    2    0    0 -0.39122596007E+02  0.53764100982E+02 -0.18743297895E+03  0.21933061183E+03  0.92485888733E+02 0.  0.
          5    1    3    3  502    0  0.71880514538E+02 -0.71415638385E+01 -0.11534143972E+03  0.13615774095E+03  0.41800000000E+01 0.  1.
         -5    1    3    3    0  502 -0.32757918531E+02 -0.46622537144E+02 -0.22210766145E+02  0.61298717189E+02  0.41800000000E+01 0.  1.
        -11    1    4    4    0    0  0.18496664267E+02  0.35510391212E+02 -0.12972720296E+03  0.13576546564E+03  0.00000000000E+00 0.  1.
         11    1    4    4    0    0 -0.57619260275E+02  0.18253709770E+02 -0.57705775995E+02  0.83565146193E+02  0.00000000000E+00 0. -1.
</event>
<event>
 8    1  0.6380238E-009  0.2389809E+03  0.7561462E-02  0.1120474E+00
         -1   -1    0    0    0  501 -0.00000000000E+00  0.00000000000E+00  0.10677669620E+03  0.10677669620E+03  0.00000000000E+00 0.  1.
          1   -1    0    0  501    0  0.00000000000E+00 -0.00000000000E+00 -0.62576475583E+03  0.62576475583E+03  0.00000000000E+00 0. -1.
         25    2    1    2    0    0 -0.79299911569E+02  0.20609458272E+03 -0.36431472541E+03  0.44400009014E+03  0.12508959948E+03 0.  0.
         23    2    1    2    0    0  0.79299911569E+02 -0.20609458272E+03 -0.15467333423E+03  0.28854136189E+03  0.10280478685E+03 0.  0.
          5    1    3    3  502    0 -0.63364034892E+02  0.22245250384E+02 -0.12278275217E+03  0.14001045930E+03  0.41800000000E+01 0. -1.
         -5    1    3    3    0  502 -0.15935876677E+02  0.18384933233E+03 -0.24153197324E+03  0.30398963084E+03  0.41800000000E+01 0. -1.
        -11    1    4    4    0    0  0.88688989998E+01 -0.89038688200E+02 -0.10777392006E+02  0.90126009255E+02  0.00000000000E+00 0.  1.
         11    1    4    4    0    0  0.70431012569E+02 -0.11705589452E+03 -0.14389594222E+03  0.19841535263E+03  0.00000000000E+00 0. -1.
</event>
<event>
 8    1  0.6380238E-009  0.3317169E+03  0.7561462E-02  0.1070380E+00
         -1   -1    0    0    0  501 -0.00000000000E+00  0.00000000000E+00  0.13070653739E+03  0.13070653739E+03  0.00000000000E+00 0.  1.
          1   -1    0    0  501    0  0.00000000000E+00 -0.00000000000E+00 -0.90228147579E+03  0.90228147579E+03  0.00000000000E+00 0. -1.
         25    2    1    2    0    0 -0.24621080492E+03  0.20466038765E+03 -0.47311426032E+03  0.58479937208E+03  0.12509023758E+03 0.  0.
         23    2    1    2    0    0  0.24621080492E+03 -0.20466038765E+03 -0.29846067808E+03  0.44818864111E+03  0.96377626664E+02 0.  0.
          5    1    3    3  502    0 -0.14288937788E+03  0.47528673021E+02 -0.16182788934E+03  0.22109293801E+03  0.41800000000E+01 0. -1.
         -5    1    3    3    0  502 -0.10332142704E+03  0.15713171463E+03 -0.31128637098E+03  0.36370643407E+03  0.41800000000E+01 0. -1.
        -11    1    4    4    0    0  0.98894345070E+02 -0.11725230948E+03 -0.19490120234E+03  0.24802151970E+03  0.00000000000E+00 0. -1.
         11    1    4    4    0    0  0.14731645985E+03 -0.87408078172E+02 -0.10355947575E+03  0.20016712140E+03  0.00000000000E+00 0.  1.
</event>
<event>
 8    1  0.6380238E-009  0.6967128E+02  0.7561462E-02  0.1361214E+00
          3   -1    0    0  501    0  0.00000000000E+00  0.00000000000E+00  0.17632539278E+03  0.17632539278E+03  0.00000000000E+00 0. -1.
         -3   -1    0    0    0  501 -0.00000000000E+00 -0.00000000000E+00 -0.73336304128E+02  0.73336304128E+02  0.00000000000E+00 0.  1.
         25    2    1    2    0    0 -0.13698913295E+02  0.12137939806E+02  0.10067818556E+03  0.16161256388E+03  0.12509010332E+03 0.  0.
         23    2    1    2    0    0  0.13698913295E+02 -0.12137939806E+02  0.23109030980E+01  0.88049133029E+02  0.86094829960E+02 0.  0.
          5    1    3    3  502    0 -0.30328631585E+02 -0.29993254804E+02 -0.81803960827E+01  0.43632699981E+02  0.41800000000E+01 0. -1.
         -5    1    3    3    0  502  0.16629718290E+02  0.42131194610E+02  0.10885858164E+03  0.11797986390E+03  0.41800000000E+01 0. -1.
        -11    1    4    4    0    0 -0.15360075003E+02 -0.15405470696E+02 -0.34653865215E+02  0.40916387985E+02  0.00000000000E+00 0.  1.
         11    1    4    4    0    0  0.29058988298E+02  0.32675308894E+01  0.36964768312E+02  0.47132745044E+02  0.00000000000E+00 0. -1.
</event>
<event>
 7    1  0.6380238E-009  0.1194638E+03  0.7561462E-02  0.1243984E+00
          2   -1    0    0  501    0  0.00000000000E+00  0.00000000000E+00  0.40574270104E+03  0.40574270104E+03  0.00000000000E+00 0. -1.
         -2   -1    0    0    0  501 -0.00000000000E+00 -0.00000000000E+00 -0.44931579921E+02  0.44931579921E+02  0.00000000000E+00 0.  1.
         23    2    1    2    0    0  0.68680156125E+02 -0.38685778260E+02  0.17188281311E+03  0.21080717663E+03  0.93179455851E+02 0.  0.
          5    1    1    2  502    0 -0.97548798227E+02  0.14409294008E+02  0.17201629793E+03  0.19831912400E+03  0.41800000000E+01 0. -1.
         -5    1    1    2    0  502  0.28868642102E+02  0.24276484252E+02  0.16912010074E+02  0.41547980326E+02  0.41800000000E+01 0. -1.
        -11    1    3    3    0    0  0.51780031678E+02  0.82160717076E+01  0.29963524208E+02  0.60386159820E+02  0.00000000000E+00 0.  1.
         11    1    3    3    0    0  0.16900124447E+02 -0.46901849968E+02  0.14191928890E+03  0.15042101681E+03  0.00000000000E+00 0. -1.
</event>
<event>
 8    1  0.6380238E-009  0.1051754E+03  0.7561462E-02  0.1269774E+00
         -2   -1    0    0    0  501 -0.00000000000E+00  0.00000000000E+00  0.20277533878E+02  0.20277533878E+02  0.00000000000E+00 0.  1.
          2   -1    0    0  501    0  0.00000000000E+00 -0.00000000000E+00 -0.11477105299E+04  0.11477105299E+04  0.00000000000E+00 0. -1.
         25    2    1    2    0    0  0.26441331931E+02  0.56480866500E+02 -0.93533138444E+03  0.94571748186E+03  0.12509006539E+03 0.  0.
         23    2    1    2    0    0 -0.26441331931E+02 -0.56480866500E+02 -0.19210161160E+03  0.22227058194E+03  0.92800593217E+02 0.  0.
          5    1    3    3  502    0  0.48014384062E+02 -0.25459234068E+02 -0.40274267958E+03  0.40641443384E+03  0.41800000000E+01 0. -1.
         -5    1    3    3    0  502 -0.21573052132E+02  0.81940100568E+02 -0.53258870486E+03  0.53930304802E+03  0.41800000000E+01 0. -1.
        -11    1    4    4    0    0 -0.16849878273E+02 -0.35555431152E+01  0.50237659374E+01  0.17938743235E+02  0.00000000000E+00 0.  1.
         11    1    4    4    0    0 -0.95914536573E+01 -0.52925323385E+02 -0.19712537754E+03  0.20433183871E+03  0.00000000000E+00 0. -1.
</event>
<event>
 8    1  0.6380238E-009  0.5513138E+02  0.7561462E-02  0.1419479E+00
         -1   -1    0    0    0  501 -0.00000000000E+00  0.00000000000E+00  0.69447480477E+03  0.69447480477E+03  0.00000000000E+00 0.  1.
          1   -1    0    0  501    0  0.00000000000E+00 -0.00000000000E+00 -0.19087477653E+02  0.19087477653E+02  0.00000000000E+00 0. -1.
         25    2    1    2    0    0 -0.17604192593E+02  0.16558725348E+02  0.48002996678E+03  0.49664789278E+03  0.12508501673E+03 0.  0.
         23    2    1    2    0    0  0.17604192593E+02 -0.16558725348E+02  0.19535736033E+03  0.21691438964E+03  0.91122199361E+02 0.  0.
          5    1    3    3  502    0 -0.28397366510E+01  0.95502904994E+00  0.47389048993E+03  0.47391839491E+03  0.41800000000E+01 0. -1.
         -5    1    3    3    0  502 -0.14764455942E+02  0.15603696298E+02  0.61394768519E+01  0.22729497870E+02  0.41800000000E+01 0. -1.
        -11    1    4    4    0    0 -0.31502406248E+02 -0.12738130189E+02  0.13395542878E+03  0.13819811308E+03  0.00000000000E+00 0.  1.
         11    1    4    4    0    0  0.49106598841E+02 -0.38205951586E+01  0.61401931552E+02  0.78716276560E+02  0.00000000000E+00 0. -1.
</event>
<event>
 8    1  0.6380238E-009  0.1004135E+03  0.7561462E-02  0.1279429E+00
          2   -1    0    0  501    0  0.00000000000E+00  0.00000000000E+00  0.64375476181E+03  0.64375476181E+03  0.00000000000E+00 0. -1.
         -2   -1    0    0    0  501 -0.00000000000E+00 -0.00000000000E+00 -0.28018846043E+02  0.28018846043E+02  0.00000000000E+00 0.  1.
         25    2    1    2    0    0  0.50201095669E+02 -0.10964042405E+02  0.49095652012E+03  0.50924184740E+03  0.12509434143E+03 0.  0.
         23    2    1    2    0    0 -0.50201095669E+02  0.10964042405E+02  0.12477939564E+03  0.16253176045E+03  0.90588715341E+02 0.  0.
          5    1    3    3  502    0 -0.38980692310E+01 -0.58579205811E+02  0.28460485797E+03  0.29062710796E+03  0.41800000000E+01 0.  1.
         -5    1    3    3    0  502  0.54099164900E+02  0.47615163406E+02  0.20635166215E+03  0.21861473944E+03  0.41800000000E+01 0.  1.
        -11    1    4    4    0    0 -0.51353751730E+02 -0.69559292028E+01  0.18932950352E+02  0.55172904372E+02  0.00000000000E+00 0.  1.
         11    1    4    4    0    0  0.11526560615E+01  0.17919971607E+02  0.10584644529E+03  0.10735885608E+03  0.00000000000E+00 0. -1.
</event>
<event>
 8    1  0.6380238E-009  0.1423143E+03  0.7561462E-02  0.1210248E+00
         -1   -1    0    0    0  501 -0.00000000000E+00  0.00000000000E+00  0.29563184073E+02  0.29563184073E+02  0.00000000000E+00 0.  1.
          1   -1    0    0  501    0  0.00000000000E+00 -0.00000000000E+00 -0.10572028317E+04  0.10572028317E+04  0.00000000000E+00 0. -1.
         25    2    1    2    0    0 -0.11039326104E+03  0.27777211286E+02 -0.79607681249E+03  0.81384550884E+03  0.12509186752E+03 0.  0.
         23    2    1    2    0    0  0.11039326104E+03 -0.27777211286E+02 -0.23156283511E+03  0.27292050691E+03  0.88915751899E+02 0.  0.
          5    1    3    3  502    0 -0.56642732924E+02  0.77151247298E+02 -0.47220244925E+03  0.48182293390E+03  0.41800000000E+01 0.  1.
         -5    1    3    3    0  502 -0.53750528120E+02 -0.49374036012E+02 -0.32387436324E+03  0.33202257494E+03  0.41800000000E+01 0.  1.
        -11    1    4    4    0    0  0.29413870909E+02 -0.17145490227E+02 -0.80955210331E+01  0.34995443957E+02  0.00000000000E+00 0.  1.
         11    1    4    4    0    0  0.80979390135E+02 -0.10631721059E+02 -0.22346731407E+03  0.23792506295E+03  0.00000000000E+00 0. -1.
</event>
<event>
 8    1  0.6380238E-009  0.2460138E+03  0.7561462E-02  0.1115850E+00
         -2   -1    0    0    0  501 -0.00000000000E+00  0.00000000000E+00  0.70185514143E+02  0.70185514143E+02  0.00000000000E+00 0.  1.
          2   -1    0    0  501    0  0.00000000000E+00 -0.00000000000E+00 -0.95011717322E+03  0.95011717322E+03  0.00000000000E+00 0. -1.
         25    2    1    2    0    0  0.23118797214E+03  0.29446873431E+02 -0.44611523603E+03  0.51863439585E+03  0.12509131033E+03 0.  0.
         23    2    1    2    0    0 -0.23118797214E+03 -0.29446873431E+02 -0.43381642304E+03  0.50166829151E+03  0.95704696799E+02 0.  0.
          5    1    3    3  502    0 -0.19710569237E+01  0.12089067640E+02  0.20759233277E+01  0.13107725946E+02  0.41800000000E+01 0.  1.
         -5    1    3    3    0  502  0.23315902906E+03  0.17357805791E+02 -0.44819115936E+03  0.50552666991E+03  0.41800000000E+01 0.  1.
        -11    1    4    4    0    0 -0.16712540995E+03  0.14196791092E+02 -0.23886761017E+03  0.29187358003E+03  0.00000000000E+00 0. -1.
         11    1    4    4    0    0 -0.64062562189E+02 -0.43643664523E+02 -0.19494881287E+03  0.20979471148E+03  0.00000000000E+00 0.  1.
</event>
<event>
 8    1  0.6380238E-009  0.1115906E+03  0.7561462E-02  0.1257652E+00
         -1   -1    0    0    0  501 -0.00000000000E+00  0.00000000000E+00  0.66954473141E+02  0.66954473141E+02  0.00000000000E+00 0.  1.
          1   -1    0    0  501    0  0.00000000000E+00 -0.00000000000E+00 -0.20068921615E+03  0.20068921615E+03  0.00000000000E+00 0. -1.
         25    2    1    2    0    0 -0.29732265396E+02 -0.16866943758E+02 -0.11186567063E+03  0.17126458739E+03  0.12509647968E+03 0.  0.
         23    2    1    2    0    0  0.29732265396E+02  0.16866943758E+02 -0.21869072377E+02  0.96379101905E+02  0.87419526194E+02 0.  0.
          5    1    3    3  502    0 -0.74141413372E+02  0.13688936459E+02 -0.68569489162E+02  0.10199795783E+03  0.41800000000E+01 0.  1.
         -5    1    3    3    0  502  0.44409147976E+02 -0.30555880217E+02 -0.43296181469E+02  0.69266629553E+02  0.41800000000E+01 0.  1.
        -11    1    4    4    0    0  0.53872985752E+02 -0.12782673867E+02 -0.93873353567E+01  0.56158858697E+02  0.00000000000E+00 0.  1.
         11    1    4    4    0    0 -0.24140720357E+02  0.29649617625E+02 -0.12481737020E+02  0.40220243208E+02  0.00000000000E+00 0. -1.
</event>
<event>
 8    1  0.6380238E-009  0.1131067E+03  0.7561462E-02  0.1254923E+00
          1   -1    0    0  501    0  0.00000000000E+00  0.00000000000E+00  0.22571118509E+02  0.22571118509E+02  0.00000000000E+00 0. -1.
         -1   -1    0    0    0  501 -0.00000000000E+00 -0.00000000000E+00 -0.58680058740E+03  0.58680058740E+03  0.00000000000E+00 0.  1.
         25    2    1    2    0    0  0.27822945511E+02 -0.39172099788E+02 -0.38128099446E+03  0.40413912986E+03  0.12507865464E+03 0.  0.
         23    2    1    2    0    0 -0.27822945511E+02  0.39172099788E+02 -0.18294847443E+03  0.20523257605E+03  0.79634768025E+02 0.  0.
          5    1    3    3  502    0  0.26017610357E+02  0.43678049558E+02 -0.14381720287E+03  0.15259602978E+03  0.41800000000E+01 0. -1.
         -5    1    3    3    0  502  0.18053351537E+01 -0.82850149346E+02 -0.23746379159E+03  0.25154310008E+03  0.41800000000E+01 0. -1.
        -11    1    4    4    0    0 -0.44508750180E+02 -0.52091773294E+01 -0.10219347118E+03  0.11158705088E+03  0.00000000000E+00 0.  1.
         11    1    4    4    0    0  0.16685804669E+02  0.44381277117E+02 -0.80755003244E+02  0.93645525173E+02  0.00000000000E+00 0. -1.
</event>
<event>
 8    1  0.6380238E-009  0.1212794E+03  0.7561462E-02  0.1241001E+00
          2   -1    0    0  501    0  0.00000000000E+00  0.00000000000E+00  0.15915288884E+03  0.15915288884E+03  0.00000000000E+00 0. -1.
         -2   -1    0    0    0  501 -0.00000000000E+00 -0.00000000000E+00 -0.10225692788E+03  0.10225692788E+03  0.00000000000E+00 0.  1.
         25    2    1    2    0    0  0.11394186807E+02 -0.59554792320E+02  0.44949529563E+02  0.14609696258E+03  0.12508901425E+03 0.  0.
         23    2    1    2    0    0 -0.11394186807E+02  0.59554792320E+02  0.11946431396E+02  0.11531285414E+03  0.97353666213E+02 0.  0.
          5    1    3    3  502    0  0.23091878831E+02 -0.95530682609E+02  0.44664404417E+02  0.10803577005E+03  0.41800000000E+01 0. -1.
         -5    1    3    3    0  502 -0.11697692024E+02  0.35975890289E+02  0.28512514627E+00  0.38061192534E+02  0.41800000000E+01 0. -1.
        -11    1    4    4    0    0  0.23204105230E+01  0.80803906581E+02 -0.10476672044E+02  0.81513288983E+02  0.00000000000E+00 0. -1.
         11    1    4    4    0    0 -0.13714597330E+02 -0.21249114261E+02  0.22423103440E+02  0.33799565155E+02  0.00000000000E+00 0.  1.
</event>
<event>
 8    1  0.6380238E-009  0.1016115E+03  0.7561462E-02  0.1276943E+00
         -1   -1    0    0    0  501 -0.00000000000E+00  0.00000000000E+00  0.26268133667E+02  0.26268133667E+02  0.00000000000E+00 0.  1.
          1   -1    0    0  501    0  0.00000000000E+00 -0.00000000000E+00 -0.47593881768E+03  0.47593881768E+03  0.00000000000E+00 0. -1.
         25    2    1    2    0    0 -0.10909509285E+02  0.12837342657E+02 -0.21064137334E+03  0.24556271570E+03  0.12508974547E+03 0.  0.
         23    2    1    2    0    0  0.10909509285E+02 -0.12837342657E+02 -0.23902931068E+03  0.25664423565E+03  0.91909942710E+02 0.  0.
          5    1    3    3  502    0 -0.46702697095E+02 -0.40417471366E+02 -0.10157222283E+03  0.11895000108E+03  0.41800000000E+01 0. -1.
         -5    1    3    3    0  502  0.35793187810E+02  0.53254814023E+02 -0.10906915051E+03  0.12661271462E+03  0.41800000000E+01 0. -1.
        -11    1    4    4    0    0 -0.31551417799E+02 -0.14050581538E+02 -0.18354518098E+03  0.18676655019E+03  0.00000000000E+00 0. -1.
         11    1    4    4    0    0  0.42460927084E+02  0.12132388807E+01 -0.55484129695E+02  0.69877685461E+02  0.00000000000E+00 0.  1.
</event>
<event>
 8    1  0.6380238E-009  0.1173046E+03  0.7561462E-02  0.1247611E+00
          2   -1    0    0  501    0  0.00000000000E+00  0.00000000000E+00  0.23170300001E+03  0.23170300001E+03  0.00000000000E+00 0.  1.
         -2   -1    0    0    0  501 -0.00000000000E+00 -0.00000000000E+00 -0.60925818917E+02  0.60925818917E+02  0.00000000000E+00 0. -1.
         25    2    1    2    0    0 -0.49114266323E+02  0.57284383866E+01  0.89380672664E+02  0.16149638383E+03  0.12508857335E+03 0.  0.
         23    2    1    2    0    0  0.49114266323E+02 -0.57284383866E+01  0.81396508433E+02  0.13113243510E+03  0.90140433701E+02 0.  0.
          5    1    3    3  502    0 -0.84690926920E+02  0.31367767710E+02  0.58114974772E+02  0.10747703311E+03  0.41800000000E+01 0. -1.
         -5    1    3    3    0  502  0.35576660597E+02 -0.25639329324E+02  0.31265697893E+02  0.54019350719E+02  0.41800000000E+01 0. -1.
        -11    1    4    4    0    0 -0.15471010110E+02  0.24391484476E+02  0.10845395856E+02  0.30853189139E+02  0.00000000000E+00 0.  1.
         11    1    4    4    0    0  0.64585276433E+02 -0.30119922862E+02  0.70551112577E+02  0.10027924596E+03  0.00000000000E+00 0. -1.
</event>
<event>
 8    1  0.6380238E-009  0.9535335E+02  0.7561462E-02  0.1290382E+00
          1   -1    0    0  501    0  0.00000000000E+00  0.00000000000E+00  0.57429458275E+02  0.57429458275E+02  0.00000000000E+00 0. -1.
         -1   -1    0    0    0  501 -0.00000000000E+00 -0.00000000000E+00 -0.25077272153E+03  0.25077272153E+03  0.00000000000E+00 0.  1.
         25    2    1    2    0    0  0.39143740128E+02 -0.32745735369E+02 -0.12292458095E+03  0.18266010044E+03  0.12509893730E+03 0.  0.
         23    2    1    2    0    0 -0.39143740128E+02  0.32745735369E+02 -0.70418682311E+02  0.12554207937E+03  0.90540086694E+02 0.  0.
          5    1    3    3  502    0  0.84406599089E+02 -0.13604252609E+02 -0.82593088307E+02  0.11894805713E+03  0.41800000000E+01 0.  1.
         -5    1    3    3    0  502 -0.45262858961E+02 -0.19141482760E+02 -0.40331492642E+02  0.63712043307E+02  0.41800000000E+01 0.  1.
        -11    1    4    4    0    0 -0.38016175210E+01  0.16424210218E+02  0.20558017026E+02  0.26586444687E+02  0.00000000000E+00 0. -1.
         11    1    4    4    0    0 -0.35342122607E+02  0.16321525151E+02 -0.90976699337E+02  0.98955634685E+02  0.00000000000E+00 0.  1.
</event>
<event>
 8    1  0.6380238E-009  0.1133563E+03  0.7561462E-02  0.1254478E+00
         -1   -1    0    0    0  501 -0.00000000000E+00  0.00000000000E+00  0.27826423324E+02  0.27826423324E+02  0.00000000000E+00 0.  1.
          1   -1    0    0  501    0  0.00000000000E+00 -0.00000000000E+00 -0.76397363980E+03  0.76397363980E+03  0.00000000000E+00 0. -1.
         25    2    1    2    0    0  0.65204027164E+02 -0.41487603827E+02 -0.56237278278E+03  0.58127618500E+03  0.12508425164E+03 0.  0.
         23    2    1    2    0    0 -0.65204027164E+02  0.41487603827E+02 -0.17377443369E+03  0.21052387812E+03  0.90277145632E+02 0.  0.
          5    1    3    3  502    0 -0.62895711854E+01 -0.36580918530E+02 -0.42165924247E+03  0.42331041975E+03  0.41800000000E+01 0.  1.
         -5    1    3    3    0  502  0.71493598349E+02 -0.49066852979E+01 -0.14071354031E+03  0.15796576525E+03  0.41800000000E+01 0.  1.
        -11    1    4    4    0    0  0.22399410931E+02  0.77755628859E+01 -0.23788116264E+02  0.33586715583E+02  0.00000000000E+00 0.  1.
         11    1    4    4    0    0 -0.87603438096E+02  0.33712040942E+02 -0.14998631743E+03  0.17693716253E+03  0.00000000000E+00 0. -1.
</event>
<event>
 8    1  0.6380238E-009  0.1337637E+03  0.7561462E-02  0.1221976E+00
          2   -1    0    0  501    0  0.00000000000E+00  0.00000000000E+00  0.95478106589E+03  0.95478106589E+03  0.00000000000E+00 0. -1.
         -2   -1    0    0    0  501 -0.00000000000E+00 -0.00000000000E+00 -0.20480363649E+02  0.20480363649E+02  0.00000000000E+00 0.  1.
         25    2    1    2    0    0  0.78965589330E+02 -0.31392221026E+02  0.62877808622E+03  0.64670728569E+03  0.12508955119E+03 0.  0.
         23    2    1    2    0    0 -0.78965589330E+02  0.31392221026E+02  0.30552261602E+03  0.32855414385E+03  0.85922760078E+02 0.  0.
          5    1    3    3  502    0 -0.11537921316E+02 -0.52426311266E+02  0.16077647477E+03  0.16955290909E+03  0.41800000000E+01 0.  1.
         -5    1    3    3    0  502  0.90503510646E+02  0.21034090239E+02  0.46800161146E+03  0.47715437661E+03  0.41800000000E+01 0.  1.
        -11    1    4    4    0    0  0.74198869352E+00  0.40447220242E+02  0.94297506932E+02  0.10260871301E+03  0.00000000000E+00 0.  1.
         11    1    4    4    0    0 -0.79707578023E+02 -0.90549992157E+01  0.21122510909E+03  0.22594543084E+03  0.00000000000E+00 0. -1.
</event>
<event>
 8    1  0.6380238E-009  0.1929601E+03  0.7561462E-02  0.1155818E+00
          1   -1    0    0  501    0  0.00000000000E+00  0.00000000000E+00  0.73835700025E+03  0.73835700025E+03  0.00000000000E+00 0. -1.
         -1   -1    0    0    0  501 -0.00000000000E+00 -0.00000000000E+00 -0.52920631224E+02  0.52920631224E+02  0.00000000000E+00 0.  1.
         25    2    1    2    0    0 -0.11280521456E+03  0.11878582143E+03  0.39620034938E+03  0.44661502378E+03  0.12512064106E+03 0.  0.
         23    2    1    2    0    0  0.11280521456E+03 -0.11878582143E+03  0.28923601965E+03  0.34466260770E+03  0.91102965239E+02 0.  0.
          5    1    3    3  502    0 -0.11812852151E+03  0.39830028698E+02  0.20995707969E+03  0.24421348549E+03  0.41800000000E+01 0. -1.
         -5    1    3    3    0  502  0.53233069501E+01  0.78955792729E+02  0.18624326968E+03  0.20240153829E+03  0.41800000000E+01 0. -1.
        -11    1    4    4    0    0  0.11040545984E+03 -0.65032274153E+02  0.16223592085E+03  0.20673426484E+03  0.00000000000E+00 0.  1.
         11    1    4    4    0    0  0.23997547165E+01 -0.53753547275E+02  0.12700009880E+03  0.13792834286E+03  0.00000000000E+00 0. -1.
</event>
<event>
 8    1  0.6380238E-009  0.1149834E+03  0.7561462E-02  0.1251610E+00
         -2   -1    0    0    0  501 -0.00000000000E+00  0.00000000000E+00  0.12298305439E+02  0.12298305439E+02  0.00000000000E+00 0.  1.
          2   -1    0    0  501    0  0.00000000000E+00 -0.00000000000E+00 -0.28824166223E+04  0.28824166223E+04  0.00000000000E+00 0. -1.
         25    2    1    2    0    0  0.84776073410E+02 -0.35994499061E+02 -0.24544235424E+04  0.24593341259E+04  0.12508729334E+03 0.  0.
         23    2    1    2    0    0 -0.84776073410E+02  0.35994499061E+02 -0.41569477448E+03  0.43538080182E+03  0.90948944323E+02 0.  0.
          5    1    3    3  502    0  0.20767622982E+02  0.81852183384E+01 -0.69039840357E+02  0.72679184916E+02  0.41800000000E+01 0.  1.
         -5    1    3    3    0  502  0.64008450428E+02 -0.44179717399E+02 -0.23853837020E+04  0.23866549410E+04  0.41800000000E+01 0.  1.
        -11    1    4    4    0    0 -0.59236236013E+02 -0.24193775824E+02 -0.19849487255E+03  0.20855331422E+03  0.00000000000E+00 0.  1.
         11    1    4    4    0    0 -0.25539837397E+02  0.60188274885E+02 -0.21719990194E+03  0.22682748760E+03  0.00000000000E+00 0. -1.
</event>
<event>
 8    1  0.6380238E-009  0.7768949E+02  0.7561462E-02  0.1335739E+00
         -1   -1    0    0    0  501 -0.00000000000E+00  0.00000000000E+00  0.12113279989E+02  0.12113279989E+02  0.00000000000E+00 0.  1.
          1   -1    0    0  501    0  0.00000000000E+00 -0.00000000000E+00 -0.10601976456E+04  0.10601976456E+04  0.00000000000E+00 0. -1.
         25    2    1    2    0    0 -0.24855636140E+02 -0.89459195019E+01 -0.51115869865E+03  0.52690533400E+03  0.12509270031E+03 0.  0.
         23    2    1    2    0    0  0.24855636140E+02  0.89459195019E+01 -0.53692566696E+03  0.54540559158E+03  0.92088302012E+02 0.  0.
          5    1    3    3  502    0  0.14511693717E+02 -0.12824209778E+02 -0.67498108819E+01  0.20930407495E+02  0.41800000000E+01 0. -1.
         -5    1    3    3    0  502 -0.39367329857E+02  0.38782902759E+01 -0.50440888777E+03  0.50597492651E+03  0.41800000000E+01 0. -1.
        -11    1    4    4    0    0 -0.24339999697E+02  0.33017663147E+02 -0.23449581060E+03  0.23805647829E+03  0.00000000000E+00 0. -1.
         11    1    4    4    0    0  0.49195635836E+02 -0.24071743645E+02 -0.30242985636E+03  0.30734911330E+03  0.00000000000E+00 0.  1.
</event>
<event>
 8    1  0.6380238E-009  0.1288591E+03  0.7561462E-02  0.1229158E+00
         -2   -1    0    0    0  501 -0.00000000000E+00  0.00000000000E+00  0.18231484723E+03  0.18231484723E+03  0.00000000000E+00 0.  1.
          2   -1    0    0  501    0  0.00000000000E+00 -0.00000000000E+00 -0.25602723559E+03  0.25602723559E+03  0.00000000000E+00 0. -1.
         25    2    1    2    0    0  0.75602591465E+02 -0.59921329721E+01  0.13446788850E+03  0.19870196096E+03  0.12509675758E+03 0.  0.
         23    2    1    2    0    0 -0.75602591465E+02  0.59921329721E+01 -0.20818027686E+03  0.23964012187E+03  0.91305546591E+02 0.  0.
          5    1    3    3  502    0  0.59704722790E+02 -0.62469677442E+02  0.68745414306E+02  0.11050121679E+03  0.41800000000E+01 0.  1.
         -5    1    3    3    0  502  0.15897868675E+02  0.56477544470E+02  0.65722474195E+02  0.88200744170E+02  0.41800000000E+01 0.  1.
        -11    1    4    4    0    0 -0.29971930365E+02 -0.38406516106E+02 -0.12992018848E+03  0.13875385567E+03  0.00000000000E+00 0.  1.
         11    1    4    4    0    0 -0.45630661100E+02  0.44398649078E+02 -0.78260088385E+02  0.10088626619E+03  0.00000000000E+00 0. -1.
</event>
<event>
 8    1  0.6380238E-009  0.1105759E+03  0.7561462E-02  0.1259507E+00
          2   -1    0    0  501    0  0.00000000000E+00  0.00000000000E+00  0.89957779505E+03  0.89957779505E+03  0.00000000000E+00 0. -1.
         -2   -1    0    0    0  501 -0.00000000000E+00 -0.00000000000E+00 -0.13755522256E+02  0.13755522256E+02  0.00000000000E+00 0.  1.
         25    2    1    2    0    0  0.23148368698E+02 -0.14452070691E+02  0.53990354252E+03  0.55487679634E+03  0.12509082528E+03 0.  0.
         23    2    1    2    0    0 -0.23148368698E+02  0.14452070691E+02  0.34591873027E+03  0.35845652097E+03  0.89925525569E+02 0.  0.
          5    1    3    3  502    0 -0.28169954889E+02  0.42525236932E+02  0.20780253175E+03  0.21401239856E+03  0.41800000000E+01 0.  1.
         -5    1    3    3    0  502  0.51318323587E+02 -0.56977307623E+02  0.33210101077E+03  0.34086439778E+03  0.41800000000E+01 0.  1.
        -11    1    4    4    0    0  0.18894043935E+02 -0.27772976364E+02  0.10311920469E+03  0.10845226364E+03  0.00000000000E+00 0. -1.
         11    1    4    4    0    0 -0.42042412633E+02  0.42225047055E+02  0.24279952558E+03  0.25000425732E+03  0.00000000000E+00 0.  1.
</event>
<event>
 8    1  0.6380238E-009  0.1140772E+03  0.7561462E-02  0.1253200E+00
         -2   -1    0    0    0  501 -0.00000000000E+00  0.00000000000E+00  0.40670150706E+02  0.40670150706E+02  0.00000000000E+00 0.  1.
          2   -1    0    0  501    0  0.00000000000E+00 -0.00000000000E+00 -0.42356326214E+03  0.42356326214E+03  0.00000000000E+00 0. -1.
         25    2    1    2    0    0  0.10852459890E+02 -0.72601026512E+02 -0.21543042563E+03  0.25970457693E+03  0.12509002381E+03 0.  0.
         23    2    1    2    0    0 -0.10852459890E+02  0.72601026512E+02 -0.16746268580E+03  0.20452883591E+03  0.91649378873E+02 0.  0.
          5    1    3    3  502    0  0.67079310469E+02 -0.52030919333E+02 -0.12865796274E+03  0.15419855458E+03  0.41800000000E+01 0. -1.
         -5    1    3    3    0  502 -0.56226850579E+02 -0.20570107180E+02 -0.86772462894E+02  0.10550602235E+03  0.41800000000E+01 0. -1.
        -11    1    4    4    0    0 -0.11924290791E+02  0.14841017735E+01  0.85109240185E+01  0.14725049969E+02  0.00000000000E+00 0.  1.
         11    1    4    4    0    0  0.10718309001E+01  0.71116924739E+02 -0.17597360982E+03  0.18980378595E+03  0.00000000000E+00 0. -1.
</event>
<event>
 8    1  0.6380238E-009  0.1138587E+03  0.7561462E-02  0.1253586E+00
          2   -1    0    0  501    0  0.00000000000E+00  0.00000000000E+00  0.25367304639E+03  0.25367304639E+03  0.00000000000E+00 0. -1.
         -2   -1    0    0    0  501 -0.00000000000E+00 -0.00000000000E+00 -0.62517097677E+02  0.62517097677E+02  0.00000000000E+00 0.  1.
         25    2    1    2    0    0 -0.51501410097E+02 -0.34150311575E+02  0.83132950377E+02  0.16240998576E+03  0.12508907632E+03 0.  0.
         23    2    1    2    0    0  0.51501410097E+02  0.34150311575E+02  0.10802299834E+03  0.15378015831E+03  0.90336758278E+02 0.  0.
          5    1    3    3  502    0  0.21900996891E+02  0.23299023019E+02 -0.66458212761E+01  0.32926243012E+02  0.41800000000E+01 0. -1.
         -5    1    3    3    0  502 -0.73402406988E+02 -0.57449334594E+02  0.89778771653E+02  0.12948374275E+03  0.41800000000E+01 0. -1.
        -11    1    4    4    0    0  0.51080743238E+02 -0.14823669796E+02  0.28386833298E+02  0.60289267873E+02  0.00000000000E+00 0.  1.
         11    1    4    4    0    0  0.42066685954E+00  0.48973981371E+02  0.79636165039E+02  0.93490890434E+02  0.00000000000E+00 0. -1.
</event>
<event>
 8    1  0.6380238E-009  0.2706796E+03  0.7561462E-02  0.1100891E+00
         -2   -1    0    0    0  501 -0.00000000000E+00  0.00000000000E+00  0.56556087579E+02  0.56556087579E+02  0.00000000000E+00 0.  1.
          2   -1    0    0  501    0  0.00000000000E+00 -0.00000000000E+00 -0.14578207931E+04  0.14578207931E+04  0.00000000000E+00 0. -1.
         25    2    1    2    0    0 -0.24460485303E+03  0.49248950362E+02 -0.95949831488E+03  0.99927150264E+03  0.12509806749E+03 0.  0.
         23    2    1    2    0    0  0.24460485303E+03 -0.49248950362E+02 -0.44176639066E+03  0.51510537806E+03  0.88988838348E+02 0.  0.
          5    1    3    3  502    0 -0.58496531742E+02 -0.39965448487E+02 -0.29676978988E+03  0.30513744753E+03  0.41800000000E+01 0.  1.
         -5    1    3    3    0  502 -0.18610832129E+03  0.89214398849E+02 -0.66272852500E+03  0.69413405511E+03  0.41800000000E+01 0.  1.
        -11    1    4    4    0    0  0.47835223231E+02 -0.47170506642E+02 -0.94239821268E+02  0.11573421789E+03  0.00000000000E+00 0. -1.
         11    1    4    4    0    0  0.19676962980E+03 -0.20784437202E+01 -0.34752656940E+03  0.39937116017E+03  0.00000000000E+00 0.  1.
</event>
<event>
 8    1  0.6380238E-009  0.1770064E+03  0.7561462E-02  0.1170732E+00
          1   -1    0    0  501    0  0.00000000000E+00  0.00000000000E+00  0.46850723123E+03  0.46850723123E+03  0.00000000000E+00 0. -1.
         -1   -1    0    0    0  501 -0.00000000000E+00 -0.00000000000E+00 -0.17057522573E+03  0.17057522573E+03  0.00000000000E+00 0.  1.
         25    2    1    2    0    0 -0.16401220021E+03 -0.34300229948E+02  0.37702032220E+03  0.43112688152E+03  0.12509818952E+03 0.  0.
         23    2    1    2    0    0  0.16401220021E+03  0.34300229948E+02 -0.79088316700E+02  0.20795557544E+03  0.94414256997E+02 0.  0.
          5    1    3    3  502    0 -0.63719144590E+02  0.15802028389E+02  0.26325363008E+03  0.27134807837E+03  0.41800000000E+01 0. -1.
         -5    1    3    3    0  502 -0.10029305562E+03 -0.50102258336E+02  0.11376669212E+03  0.15977880314E+03  0.41800000000E+01 0. -1.
        -11    1    4    4    0    0  0.81765876817E+02 -0.10413693956E+02  0.43669646039E+01  0.82541953050E+02  0.00000000000E+00 0. -1.
         11    1    4    4    0    0  0.82246323397E+02  0.44713923904E+02 -0.83455281304E+02  0.12541362239E+03  0.00000000000E+00 0.  1.
</event>
<event>
 8    1  0.6380238E-009  0.1051245E+03  0.7561462E-02  0.1269874E+00
         -2   -1    0    0    0  501 -0.00000000000E+00  0.00000000000E+00  0.20710829129E+02  0.20710829129E+02  0.00000000000E+00 0.  1.
          2   -1    0    0  501    0  0.00000000000E+00 -0.00000000000E+00 -0.75399526875E+03  0.75399526875E+03  0.00000000000E+00 0. -1.
         25    2    1    2    0    0  0.38667779671E+02  0.44936678780E+02 -0.48319288570E+03  0.50263073939E+03  0.12509113919E+03 0.  0.
         23    2    1    2    0    0 -0.38667779671E+02 -0.44936678780E+02 -0.25009155392E+03  0.27207535849E+03  0.89245241162E+02 0.  0.
          5    1    3    3  502    0  0.73431343750E+02  0.48499110431E+02 -0.21826042354E+03  0.23537079437E+03  0.41800000000E+01 0. -1.
         -5    1    3    3    0  502 -0.34763564078E+02 -0.35624316513E+01 -0.26493246216E+03  0.26725994502E+03  0.41800000000E+01 0. -1.
        -11    1    4    4    0    0  0.77123089137E+00  0.15100849260E+02 -0.38959016438E+01  0.15614368225E+02  0.00000000000E+00 0.  1.
         11    1    4    4    0    0 -0.39439010563E+02 -0.60037528039E+02 -0.24619565228E+03  0.25646099026E+03  0.00000000000E+00 0. -1.
</event>
<event>
 8    1  0.6380238E-009  0.1115552E+03  0.7561462E-02  0.1257717E+00
          1   -1    0    0  501    0  0.00000000000E+00  0.00000000000E+00  0.29593133257E+03  0.29593133257E+03  0.00000000000E+00 0. -1.
         -1   -1    0    0    0  501 -0.00000000000E+00 -0.00000000000E+00 -0.61041223467E+02  0.61041223467E+02  0.00000000000E+00 0.  1.
         25    2    1    2    0    0  0.36866867121E+02  0.50775182216E+02  0.19322161100E+03  0.23857818130E+03  0.12509065758E+03 0.  0.
         23    2    1    2    0    0 -0.36866867121E+02 -0.50775182216E+02  0.41668498103E+02  0.11839437474E+03  0.91343742071E+02 0.  0.
          5    1    3    3  502    0  0.35989752122E+02  0.81212652788E+02  0.18721320343E+03  0.20726073716E+03  0.41800000000E+01 0.  1.
         -5    1    3    3    0  502  0.87711499932E+00 -0.30437470572E+02  0.60084075678E+01  0.31317444133E+02  0.41800000000E+01 0.  1.
        -11    1    4    4    0    0 -0.51034902381E+02 -0.65485054372E+02  0.14300429948E+02  0.84245806447E+02  0.00000000000E+00 0.  1.
         11    1    4    4    0    0  0.14168035260E+02  0.14709872156E+02  0.27368068154E+02  0.34148568293E+02  0.00000000000E+00 0. -1.
</event>
<event>
 8    1  0.6380238E-009  0.1608668E+03  0.7561462E-02  0.1187722E+00
         -2   -1    0    0    0  501 -0.00000000000E+00  0.00000000000E+00  0.63929874921E+02  0.63929874921E+02  0.00000000000E+00 0. -1.
          2   -1    0    0  501    0  0.00000000000E+00 -0.00000000000E+00 -0.91826850824E+03  0.91826850824E+03  0.00000000000E+00 0.  1.
         25    2    1    2    0    0 -0.98955309138E+02  0.10559238345E+03 -0.11234017594E+03  0.22183207854E+03  0.12508897349E+03 0.  0.
         23    2    1    2    0    0  0.98955309138E+02 -0.10559238345E+03 -0.74199845737E+03  0.76036630462E+03  0.81567774281E+02 0.  0.
          5    1    3    3  502    0 -0.27628645172E+02  0.92645527529E+02 -0.11326961812E+02  0.97428477711E+02  0.41800000000E+01 0.  1.
         -5    1    3    3    0  502 -0.71326663966E+02  0.12946855924E+02 -0.10101321413E+03  0.12440360083E+03  0.41800000000E+01 0.  1.
        -11    1    4    4    0    0  0.55683076045E+02 -0.91004213781E+02 -0.63692672978E+03  0.64580030272E+03  0.00000000000E+00 0.  1.
         11    1    4    4    0    0  0.43272233093E+02 -0.14588169671E+02 -0.10507172760E+03  0.11456600190E+03  0.00000000000E+00 0. -1.
</event>
<event>
 8    1  0.6380238E-009  0.9387019E+02  0.7561462E-02  0.1293741E+00
         -1   -1    0    0    0  501 -0.00000000000E+00  0.00000000000E+00  0.24471923567E+03  0.24471923567E+03  0.00000000000E+00 0.  1.
          1   -1    0    0  501    0  0.00000000000E+00 -0.00000000000E+00 -0.69442796141E+02  0.69442796141E+02  0.00000000000E+00 0. -1.
         25    2    1    2    0    0  0.30689527621E+02 -0.65423129377E+02  0.10020143895E+03  0.17580861416E+03  0.12508520089E+03 0.  0.
         23    2    1    2    0    0 -0.30689527621E+02  0.65423129377E+02  0.75075000583E+02  0.13835341765E+03  0.91013073239E+02 0.  0.
          5    1    3    3  502    0 -0.17077161955E+02 -0.18393854437E+02 -0.23765286675E+02  0.34817015843E+02  0.41800000000E+01 0.  1.
         -5    1    3    3    0  502  0.47766689576E+02 -0.47029274940E+02  0.12396672562E+03  0.14099159832E+03  0.41800000000E+01 0.  1.
        -11    1    4    4    0    0  0.13076954511E+02 -0.34548655746E+01  0.51735863852E+02  0.53474689751E+02  0.00000000000E+00 0.  1.
         11    1    4    4    0    0 -0.43766482132E+02  0.68877994952E+02  0.23339136731E+02  0.84878727901E+02  0.00000000000E+00 0. -1.
</event>
<event>
 8    1  0.6380238E-009  0.1826297E+03  0.7561462E-02  0.1165282E+00
          1   -1    0    0  501    0  0.00000000000E+00  0.00000000000E+00  0.33862746093E+03  0.33862746093E+03  0.00000000000E+00 0. -1.
         -1   -1    0    0    0  501 -0.00000000000E+00 -0.00000000000E+00 -0.16954610514E+03  0.16954610514E+03  0.00000000000E+00 0.  1.
         25    2    1    2    0    0  0.14672691478E+03  0.49434059686E+02  0.24312417184E+03  0.31421247117E+03  0.12509036863E+03 0.  0.
         23    2    1    2    0    0 -0.14672691478E+03 -0.49434059686E+02 -0.74042816050E+02  0.19396109490E+03  0.90366221269E+02 0.  0.
          5    1    3    3  502    0  0.16048723588E+03  0.16413510752E+02  0.21318226896E+03  0.26737559427E+03  0.41800000000E+01 0. -1.
         -5    1    3    3    0  502 -0.13760321096E+02  0.33020548934E+02  0.29941902886E+02  0.46836876892E+02  0.41800000000E+01 0. -1.
        -11    1    4    4    0    0 -0.12123855922E+03 -0.10986118755E+02 -0.20774146398E+02  0.12349513434E+03  0.00000000000E+00 0. -1.
         11    1    4    4    0    0 -0.25488355567E+02 -0.38447940930E+02 -0.53268669652E+02  0.70465960561E+02  0.00000000000E+00 0.  1.
</event>
<event>
 8    1  0.6380238E-009  0.1151198E+03  0.7561462E-02  0.1251372E+00
          2   -1    0    0  501    0  0.00000000000E+00  0.00000000000E+00  0.32059164755E+03  0.32059164755E+03  0.00000000000E+00 0. -1.
         -2   -1    0    0    0  501 -0.00000000000E+00 -0.00000000000E+00 -0.76094756881E+02  0.76094756881E+02  0.00000000000E+00 0.  1.
         25    2    1    2    0    0  0.10904442393E+03 -0.14035281770E+02  0.10230044484E+03  0.19544844275E+03  0.12508811788E+03 0.  0.
         23    2    1    2    0    0 -0.10904442393E+03  0.14035281770E+02  0.14219644583E+03  0.20123796168E+03  0.90494267707E+02 0.  0.
          5    1    3    3  502    0  0.44982047658E+02  0.73476429283E+01 -0.24358505934E+02  0.51847677667E+02  0.41800000000E+01 0.  1.
         -5    1    3    3    0  502  0.64062376275E+02 -0.21382924698E+02  0.12665895077E+03  0.14360076509E+03  0.41800000000E+01 0.  1.
        -11    1    4    4    0    0 -0.98382189171E+02  0.25001162109E+02  0.15221228083E+03  0.18295543634E+03  0.00000000000E+00 0. -1.
         11    1    4    4    0    0 -0.10662234762E+02 -0.10965880339E+02 -0.10015835000E+02  0.18282525331E+02  0.00000000000E+00 0.  1.
</event>
<event>
 8    1  0.6380238E-009  0.1462688E+03  0.7561462E-02  0.1205134E+00
          1   -1    0    0  501    0  0.00000000000E+00  0.00000000000E+00  0.18172969188E+03  0.18172969188E+03  0.00000000000E+00 0. -1.
         -1   -1    0    0    0  501 -0.00000000000E+00 -0.00000000000E+00 -0.18883638514E+03  0.18883638514E+03  0.00000000000E+00 0.  1.
         25    2    1    2    0    0 -0.14028306757E+03 -0.14180764518E+02 -0.55454170170E+02  0.19647830850E+03  0.12509247616E+03 0.  0.
         23    2    1    2    0    0  0.14028306757E+03  0.14180764518E+02  0.48347476909E+02  0.17408776851E+03  0.89936863919E+02 0.  0.
          5    1    3    3  502    0 -0.10680080979E+02 -0.10966687811E+01 -0.64798652119E+02  0.65814926336E+02  0.41800000000E+01 0.  1.
         -5    1    3    3    0  502 -0.12960298660E+03 -0.13084095737E+02  0.93444819493E+01  0.13066338216E+03  0.41800000000E+01 0.  1.
        -11    1    4    4    0    0  0.24617832047E+02  0.24286886204E+02  0.46522504997E+02  0.57967525110E+02  0.00000000000E+00 0. -1.
         11    1    4    4    0    0  0.11566523553E+03 -0.10106121686E+02  0.18249719118E+01  0.11612024340E+03  0.00000000000E+00 0.  1.
</event>
<event>
 8    1  0.6380238E-009  0.1416322E+03  0.7561462E-02  0.1211149E+00
          2   -1    0    0  501    0  0.00000000000E+00  0.00000000000E+00  0.27227859916E+03  0.27227859916E+03  0.00000000000E+00 0. -1.
         -2   -1    0    0    0  501 -0.00000000000E+00 -0.00000000000E+00 -0.11234204905E+03  0.11234204905E+03  0.00000000000E+00 0.  1.
         25    2    1    2    0    0 -0.14866166884E+02  0.92351032365E+02  0.19240512185E+03  0.24782441749E+03  0.12508994722E+03 0.  0.
         23    2    1    2    0    0  0.14866166884E+02 -0.92351032365E+02 -0.32468571737E+02  0.13679623072E+03  0.94389006206E+02 0.  0.
          5    1    3    3  502    0 -0.62080144780E+02  0.22378332874E+02  0.52743922286E+02  0.84582077867E+02  0.41800000000E+01 0.  1.
         -5    1    3    3    0  502  0.47213977896E+02  0.69972699491E+02  0.13966119956E+03  0.16324233962E+03  0.41800000000E+01 0.  1.
        -11    1    4    4    0    0  0.53755097969E+02 -0.68240809016E+02 -0.25318577917E+02  0.90484523321E+02  0.00000000000E+00 0.  1.
         11    1    4    4    0    0 -0.38888931085E+02 -0.24110223349E+02 -0.71499938195E+01  0.46311707402E+02  0.00000000000E+00 0. -1.
</event>
<event>
 8    1  0.6380238E-009  0.9279096E+02  0.7561462E-02  0.1296230E+00
         -1   -1    0    0    0  501 -0.00000000000E+00  0.00000000000E+00  0.23797504215E+03  0.23797504215E+03  0.00000000000E+00 0. -1.
          1   -1    0    0  501    0  0.00000000000E+00 -0.00000000000E+00 -0.53495924913E+02  0.53495924913E+02  0.00000000000E+00 0.  1.
         25    2    1    2    0    0 -0.54237674613E+01 -0.17560286804E+01  0.59039411642E+02  0.13843993333E+03  0.12508981622E+03 0.  0.
         23    2    1    2    0    0  0.54237674613E+01  0.17560286804E+01  0.12543970560E+03  0.15303103374E+03  0.87469289790E+02 0.  0.
          5    1    3    3  502    0  0.21803848175E+02  0.52552915721E+02  0.51903609088E+02  0.77127646032E+02  0.41800000000E+01 0.  1.
         -5    1    3    3    0  502 -0.27227615636E+02 -0.54308944402E+02  0.71358025547E+01  0.61312287295E+02  0.41800000000E+01 0.  1.
        -11    1    4    4    0    0 -0.20854073489E+02  0.24998297282E+02  0.12674734353E+02  0.34935027394E+02  0.00000000000E+00 0.  1.
         11    1    4    4    0    0  0.26277840950E+02 -0.23242268602E+02  0.11276497124E+03  0.11809600634E+03  0.00000000000E+00 0. -1.
</event>
<event>
 8    1  0.6380238E-009  0.1296281E+03  0.7561462E-02  0.1228009E+00
          3   -1    0    0  501    0  0.00000000000E+00  0.00000000000E+00  0.18274776454E+03  0.18274776454E+03  0.00000000000E+00 0. -1.
         -3   -1    0    0    0  501 -0.00000000000E+00 -0.00000000000E+00 -0.97784359410E+02  0.97784359410E+02  0.00000000000E+00 0.  1.
         25    2    1    2    0    0  0.36703158661E+02  0.65895010445E+02  0.29479469038E+02  0.14901876521E+03  0.12509308147E+03 0.  0.
         23    2    1    2    0    0 -0.36703158661E+02 -0.65895010445E+02  0.55483936090E+02  0.13151335874E+03  0.92347290733E+02 0.  0.
          5    1    3    3  502    0  0.74849008104E+02  0.72724151673E+02  0.85909145044E+01  0.10479719683E+03  0.41800000000E+01 0.  1.
         -5    1    3    3    0  502 -0.38145849443E+02 -0.68291412285E+01  0.20888554533E+02  0.44221568382E+02  0.41800000000E+01 0.  1.
        -11    1    4    4    0    0 -0.58917591558E+02 -0.15745708217E+02  0.13554589958E+02  0.62473489027E+02  0.00000000000E+00 0.  1.
         11    1    4    4    0    0  0.22214432897E+02 -0.50149302227E+02  0.41929346133E+02  0.69039869713E+02  0.00000000000E+00 0. -1.
</event>
<event>
 8    1  0.6380238E-009  0.1203600E+03  0.7561462E-02  0.1242504E+00
         -2   -1    0    0    0  501 -0.00000000000E+00  0.00000000000E+00  0.28001479169E+02  0.28001479169E+02  0.00000000000E+00 0.  1.
          2   -1    0    0  501    0  0.00000000000E+00 -0.00000000000E+00 -0.95074026487E+03  0.95074026487E+03  0.00000000000E+00 0. -1.
         25    2    1    2    0    0  0.78810804510E+02  0.37433343870E+02 -0.74237839144E+03  0.75788404213E+03  0.12510054794E+03 0.  0.
         23    2    1    2    0    0 -0.78810804510E+02 -0.37433343870E+02 -0.18036039426E+03  0.22085770191E+03  0.92929298579E+02 0.  0.
          5    1    3    3  502    0 -0.78078763280E+00 -0.31632883735E+02 -0.35417060593E+03  0.35560587659E+03  0.41800000000E+01 0. -1.
         -5    1    3    3    0  502  0.79591592143E+02  0.69066227605E+02 -0.38820778551E+03  0.40227816554E+03  0.41800000000E+01 0. -1.
        -11    1    4    4    0    0 -0.43746748293E+02 -0.49682430018E+02 -0.16979400628E+03  0.18224194470E+03  0.00000000000E+00 0. -1.
         11    1    4    4    0    0 -0.35064056218E+02  0.12249086148E+02 -0.10566387975E+02  0.38615757208E+02  0.00000000000E+00 0.  1.
</event>
<event>
 8    1  0.6380238E-009  0.1927455E+03  0.7561462E-02  0.1156008E+00
         -2   -1    0    0    0  501 -0.00000000000E+00  0.00000000000E+00  0.40012595101E+03  0.40012595101E+03  0.00000000000E+00 0.  1.
          2   -1    0    0  501    0  0.00000000000E+00 -0.00000000000E+00 -0.13487839084E+03  0.13487839084E+03  0.00000000000E+00 0. -1.
         25    2    1    2    0    0  0.70290777840E+02 -0.16718327955E+03  0.26896923178E+02  0.22195241623E+03  0.12509351775E+03 0.  0.
         23    2    1    2    0    0 -0.70290777840E+02  0.16718327955E+03  0.23835063698E+03  0.31305192562E+03  0.91101260000E+02 0.  0.
          5    1    3    3  502    0  0.67865546330E+02 -0.58831867388E+02 -0.35681893837E+02  0.96734641917E+02  0.41800000000E+01 0.  1.
         -5    1    3    3    0  502  0.24252315098E+01 -0.10835141216E+03  0.62578817015E+02  0.12521777431E+03  0.41800000000E+01 0.  1.
        -11    1    4    4    0    0 -0.14153350019E+02  0.93092935473E+02  0.18044280377E+03  0.20353431500E+03  0.00000000000E+00 0.  1.
         11    1    4    4    0    0 -0.56137427821E+02  0.74090344074E+02  0.57907833215E+02  0.10951761062E+03  0.00000000000E+00 0. -1.
</event>
<event>
 8    1  0.6380238E-009  0.1401789E+03  0.7561462E-02  0.1213088E+00
         -2   -1    0    0    0  501 -0.00000000000E+00  0.00000000000E+00  0.11590472955E+03  0.11590472955E+03  0.00000000000E+00 0.  1.
          2   -1    0    0  501    0  0.00000000000E+00 -0.00000000000E+00 -0.17006360678E+03  0.17006360678E+03  0.00000000000E+00 0. -1.
         25    2    1    2    0    0 -0.25887049464E+02  0.87874560538E+02 -0.29405476774E+02  0.15781022217E+03  0.12508919392E+03 0.  0.
         23    2    1    2    0    0  0.25887049464E+02 -0.87874560538E+02 -0.24753400449E+02  0.12815811416E+03  0.86137643756E+02 0.  0.
          5    1    3    3  502    0 -0.39604383580E+02 -0.21051326003E+02 -0.55744308485E+01  0.45389560524E+02  0.41800000000E+01 0.  1.
         -5    1    3    3    0  502  0.13717334116E+02  0.10892588654E+03 -0.23831045925E+02  0.11242066164E+03  0.41800000000E+01 0.  1.
        -11    1    4    4    0    0 -0.31375360870E+02 -0.39791673578E+02 -0.56768837908E+01  0.50990367379E+02  0.00000000000E+00 0.  1.
         11    1    4    4    0    0  0.57262410334E+02 -0.48082886960E+02 -0.19076516658E+02  0.77167746782E+02  0.00000000000E+00 0. -1.
</event>
<event>
 8    1  0.6380238E-009  0.1246104E+03  0.7561462E-02  0.1235679E+00
          1   -1    0    0  501    0  0.00000000000E+00  0.00000000000E+00  0.31920072331E+03  0.31920072331E+03  0.00000000000E+00 0.  1.
         -1   -1    0    0    0  501 -0.00000000000E+00 -0.00000000000E+00 -0.72833721801E+02  0.72833721801E+02  0.00000000000E+00 0. -1.
         25    2    1    2    0    0  0.89239199989E+02  0.40788679895E+02  0.78665015984E+02  0.17737769646E+03  0.12508921312E+03 0.  0.
         23    2    1    2    0    0 -0.89239199989E+02 -0.40788679895E+02  0.16770198553E+03  0.21465674866E+03  0.91248082559E+02 0.  0.
          5    1    3    3  502    0  0.57331040730E+02  0.55851969455E+02 -0.11027627879E+02  0.80903471494E+02  0.41800000000E+01 0. -1.
         -5    1    3    3    0  502  0.31908159259E+02 -0.15063289559E+02  0.89692643863E+02  0.96474224966E+02  0.41800000000E+01 0. -1.
        -11    1    4    4    0    0  0.86037286330E+01 -0.34432796795E+02  0.37059176771E+02  0.51313002489E+02  0.00000000000E+00 0.  1.
         11    1    4    4    0    0 -0.97842928622E+02 -0.63558831001E+01  0.13064280876E+03  0.16334374617E+03  0.00000000000E+00 0. -1.
</event>
<event>
 8    1  0.6380238E-009  0.1275732E+03  0.7561462E-02  0.1231102E+00
          1   -1    0    0  501    0  0.00000000000E+00  0.00000000000E+00  0.23600174084E+02  0.23600174084E+02  0.00000000000E+00 0. -1.
         -1   -1    0    0    0  501 -0.00000000000E+00 -0.00000000000E+00 -0.71049217240E+03  0.71049217240E+03  0.00000000000E+00 0.  1.
         25    2    1    2    0    0 -0.25675101512E+01  0.68221566960E+02 -0.41706357122E+03  0.44073138467E+03  0.12506540963E+03 0.  0.
         23    2    1    2    0    0  0.25675101512E+01 -0.68221566960E+02 -0.26982842709E+03  0.29336096181E+03  0.92695736370E+02 0.  0.
          5    1    3    3  502    0  0.56523229294E+02  0.60040376931E+02 -0.25069510795E+03  0.26394172058E+03  0.41800000000E+01 0.  1.
         -5    1    3    3    0  502 -0.59090739445E+02  0.81811900292E+01 -0.16636846327E+03  0.17678966409E+03  0.41800000000E+01 0.  1.
        -11    1    4    4    0    0 -0.38896143227E+02 -0.58401648823E+02 -0.19514150724E+03  0.20737374566E+03  0.00000000000E+00 0.  1.
         11    1    4    4    0    0  0.41463653379E+02 -0.98199181369E+01 -0.74686919856E+02  0.85987216151E+02  0.00000000000E+00 0. -1.
</event>
<event>
 8    1  0.6380238E-009  0.1236541E+03  0.7561462E-02  0.1237188E+00
          3   -1    0    0  501    0  0.00000000000E+00  0.00000000000E+00  0.13771441966E+02  0.13771441966E+02  0.00000000000E+00 0. -1.
         -3   -1    0    0    0  501 -0.00000000000E+00 -0.00000000000E+00 -0.11280644841E+04  0.11280644841E+04  0.00000000000E+00 0.  1.
         25    2    1    2    0    0  0.46626897701E+02 -0.33980259370E+02 -0.55971707439E+03  0.57642109169E+03  0.12509734599E+03 0.  0.
         23    2    1    2    0    0 -0.46626897701E+02  0.33980259370E+02 -0.55457596776E+03  0.56541483438E+03  0.93865357336E+02 0.  0.
          5    1    3    3  502    0  0.89587057181E+02 -0.23555174176E+02 -0.35178202680E+03  0.36379768254E+03  0.41800000000E+01 0. -1.
         -5    1    3    3    0  502 -0.42960159480E+02 -0.10425085193E+02 -0.20793504759E+03  0.21262340915E+03  0.41800000000E+01 0. -1.
        -11    1    4    4    0    0 -0.29472285455E+02 -0.31116595773E+02 -0.21704347560E+03  0.22123455527E+03  0.00000000000E+00 0.  1.
         11    1    4    4    0    0 -0.17154612246E+02  0.65096855143E+02 -0.33753249216E+03  0.34418027912E+03  0.00000000000E+00 0. -1.
</event>
<event>
 8    1  0.6380238E-009  0.2554809E+03  0.7561462E-02  0.1109889E+00
         -2   -1    0    0    0  501 -0.00000000000E+00  0.00000000000E+00  0.18293966812E+03  0.18293966812E+03  0.00000000000E+00 0.  1.
          2   -1    0    0  501    0  0.00000000000E+00 -0.00000000000E+00 -0.67210821800E+03  0.67210821800E+03  0.00000000000E+00 0. -1.
         25    2    1    2    0    0  0.48903585630E+02 -0.22512056700E+03  0.44687878068E+02  0.26592311567E+03  0.12508903480E+03 0.  0.
         23    2    1    2    0    0 -0.48903585630E+02  0.22512056700E+03 -0.53385642794E+03  0.58912477045E+03  0.94839227769E+02 0.  0.
          5    1    3    3  502    0 -0.42326005946E+02 -0.78476689921E+02  0.19105375611E+02  0.91282908682E+02  0.41800000000E+01 0.  1.
         -5    1    3    3    0  502  0.91229591576E+02 -0.14664387708E+03  0.25582502457E+02  0.17464020699E+03  0.41800000000E+01 0.  1.
        -11    1    4    4    0    0 -0.75924517112E+02  0.13529596860E+03 -0.32161286123E+03  0.35707753210E+03  0.00000000000E+00 0.  1.
         11    1    4    4    0    0  0.27020931482E+02  0.89824598403E+02 -0.21224356671E+03  0.23204723835E+03  0.00000000000E+00 0. -1.
</event>
<event>
 8    1  0.6380238E-009  0.1156366E+03  0.7561462E-02  0.1250474E+00
         -1   -1    0    0    0  501 -0.00000000000E+00  0.00000000000E+00  0.31421940433E+03  0.31421940433E+03  0.00000000000E+00 0.  1.
          1   -1    0    0  501    0  0.00000000000E+00 -0.00000000000E+00 -0.57686229867E+02  0.57686229867E+02  0.00000000000E+00 0. -1.
         25    2    1    2    0    0  0.15535572366E+02 -0.67957756642E+02  0.18576452937E+03  0.23455234997E+03  0.12508690503E+03 0.  0.
         23    2    1    2    0    0 -0.15535572366E+02  0.67957756642E+02  0.70768645086E+02  0.13735328422E+03  0.94858383191E+02 0.  0.
          5    1    3    3  502    0  0.64898037445E+02 -0.53943756969E+02  0.14900045082E+03  0.17129007830E+03  0.41800000000E+01 0.  1.
         -5    1    3    3    0  502 -0.49362465080E+02 -0.14013999673E+02  0.36764078556E+02  0.63262271676E+02  0.41800000000E+01 0.  1.
        -11    1    4    4    0    0  0.65137250533E+01 -0.11292263512E+02  0.51151203763E+02  0.52786262187E+02  0.00000000000E+00 0.  1.
         11    1    4    4    0    0 -0.22049297419E+02  0.79250020154E+02  0.19617441324E+02  0.84567022031E+02  0.00000000000E+00 0. -1.
</event>
<event>
 8    1  0.6380238E-009  0.1188325E+03  0.7561462E-02  0.1245036E+00
         -1   -1    0    0    0  501 -0.00000000000E+00  0.00000000000E+00  0.73030720540E+02  0.73030720540E+02  0.00000000000E+00 0.  1.
          1   -1    0    0  501    0  0.00000000000E+00 -0.00000000000E+00 -0.24208876751E+03  0.24208876751E+03  0.00000000000E+00 0. -1.
         25    2    1    2    0    0  0.64577360803E+02  0.41739660830E+02 -0.78989927430E+02  0.16673055263E+03  0.12508890331E+03 0.  0.
         23    2    1    2    0    0 -0.64577360803E+02 -0.41739660830E+02 -0.90068119539E+02  0.14838893541E+03  0.89412388301E+02 0.  0.
          5    1    3    3  502    0  0.82014475101E+02  0.68404777428E+02 -0.81634041000E+02  0.13448857480E+03  0.41800000000E+01 0. -1.
         -5    1    3    3    0  502 -0.17437114298E+02 -0.26665116598E+02  0.26441135696E+01  0.32241977836E+02  0.41800000000E+01 0. -1.
        -11    1    4    4    0    0 -0.62382370809E+02 -0.56237796002E+02 -0.10006527121E+03  0.13064190901E+03  0.00000000000E+00 0. -1.
         11    1    4    4    0    0 -0.21949899941E+01  0.14498135172E+02  0.99971516752E+01  0.17747026403E+02  0.00000000000E+00 0.  1.
</event>
<event>
 8    1  0.6380238E-009  0.1577915E+03  0.7561462E-02  0.1191213E+00
          1   -1    0    0  501    0  0.00000000000E+00  0.00000000000E+00  0.78326970729E+03  0.78326970729E+03  0.00000000000E+00 0. -1.
         -1   -1    0    0    0  501 -0.00000000000E+00 -0.00000000000E+00 -0.40028921646E+02  0.40028921646E+02  0.00000000000E+00 0.  1.
         25    2    1    2    0    0 -0.10476406632E+03 -0.81502948557E+02  0.48496970283E+03  0.51813091880E+03  0.12508315691E+03 0.  0.
         23    2    1    2    0    0  0.10476406632E+03  0.81502948557E+02  0.25827108281E+03  0.30516771013E+03  0.93835701489E+02 0.  0.
          5    1    3    3  502    0 -0.52665763799E+02  0.28859117161E+02  0.16704867980E+03  0.17756481955E+03  0.41800000000E+01 0.  1.
         -5    1    3    3    0  502 -0.52098302517E+02 -0.11036206572E+03  0.31792102303E+03  0.34056609925E+03  0.41800000000E+01 0.  1.
        -11    1    4    4    0    0  0.35795325794E+02  0.35182412341E+02  0.22157400951E+02  0.54863994602E+02  0.00000000000E+00 0.  1.
         11    1    4    4    0    0  0.68968740522E+02  0.46320536216E+02  0.23611368186E+03  0.25030371553E+03  0.00000000000E+00 0. -1.
</event>
<event>
 8    1  0.6380238E-009  0.1012487E+03  0.7561462E-02  0.1277692E+00
         -2   -1    0    0    0  501 -0.00000000000E+00  0.00000000000E+00  0.12904646856E+02  0.12904646856E+02  0.00000000000E+00 0.  1.
          2   -1    0    0  501    0  0.00000000000E+00 -0.00000000000E+00 -0.16120799902E+04  0.16120799902E+04  0.00000000000E+00 0. -1.
         25    2    1    2    0    0  0.76765672283E+02  0.83479622901E+01 -0.11863039137E+04  0.11953775580E+04  0.12509146083E+03 0.  0.
         23    2    1    2    0    0 -0.76765672283E+02 -0.83479622901E+01 -0.41287142966E+03  0.42960707908E+03  0.90204035673E+02 0.  0.
          5    1    3    3  502    0  0.27444395147E+02 -0.17558120950E+02 -0.10078015122E+04  0.10083366714E+04  0.41800000000E+01 0. -1.
         -5    1    3    3    0  502  0.49321277136E+02  0.25906083240E+02 -0.17850240152E+03  0.18704088664E+03  0.41800000000E+01 0. -1.
        -11    1    4    4    0    0 -0.14974070906E+02  0.35156287652E+02 -0.20250743812E+03  0.20608117297E+03  0.00000000000E+00 0. -1.
         11    1    4    4    0    0 -0.61791601378E+02 -0.43504249942E+02 -0.21036399154E+03  0.22352590611E+03  0.00000000000E+00 0.  1.
</event>
<event>
 8    1  0.6380238E-009  0.1452173E+03  0.7561462E-02  0.1206476E+00
         -2   -1    0    0    0  501 -0.00000000000E+00  0.00000000000E+00  0.67482627735E+03  0.67482627735E+03  0.00000000000E+00 0.  1.
          2   -1    0    0  501    0  0.00000000000E+00 -0.00000000000E+00 -0.42553863310E+02  0.42553863310E+02  0.00000000000E+00 0. -1.
         25    2    1    2    0    0 -0.11138709179E+03 -0.48921754300E+02  0.23768625997E+03  0.29486014637E+03  0.12508927003E+03 0.  0.
         23    2    1    2    0    0  0.11138709179E+03  0.48921754300E+02  0.39458615407E+03  0.42251999429E+03  0.89579519597E+02 0.  0.
          5    1    3    3  502    0 -0.88758339998E+02 -0.77935228643E+02  0.10839815283E+03  0.16037323567E+03  0.41800000000E+01 0. -1.
         -5    1    3    3    0  502 -0.22628751790E+02  0.29013474343E+02  0.12928810714E+03  0.13448691069E+03  0.41800000000E+01 0. -1.
        -11    1    4    4    0    0  0.28986982967E+02  0.43966516586E+02  0.69976665985E+02  0.87578727694E+02  0.00000000000E+00 0. -1.
         11    1    4    4    0    0  0.82400108822E+02  0.49552377139E+01  0.32460948808E+03  0.33494126659E+03  0.00000000000E+00 0.  1.
</event>
<event>
 8    1  0.6380238E-009  0.1057820E+03  0.7561462E-02  0.1268587E+00
         -1   -1    0    0    0  501 -0.00000000000E+00  0.00000000000E+00  0.93963466679E+02  0.93963466679E+02  0.00000000000E+00 0.  1.
          1   -1    0    0  501    0  0.00000000000E+00 -0.00000000000E+00 -0.20474915890E+03  0.20474915890E+03  0.00000000000E+00 0. -1.
         25    2    1    2    0    0 -0.67976460756E+02  0.53865305081E+02 -0.61520210881E+02  0.16417611493E+03  0.12508712986E+03 0.  0.
         23    2    1    2    0    0  0.67976460756E+02 -0.53865305081E+02 -0.49265481339E+02  0.13453651065E+03  0.90281308907E+02 0.  0.
          5    1    3    3  502    0 -0.26769305969E+02  0.60909557348E+02 -0.91033668494E+02  0.11283249141E+03  0.41800000000E+01 0. -1.
         -5    1    3    3    0  502 -0.41207154787E+02 -0.70442522667E+01  0.29513457613E+02  0.51343623518E+02  0.41800000000E+01 0. -1.
        -11    1    4    4    0    0  0.56786466674E+02 -0.65537626128E+02 -0.67700630358E+02  0.11001481076E+03  0.00000000000E+00 0. -1.
         11    1    4    4    0    0  0.11189994082E+02  0.11672321047E+02  0.18435149018E+02  0.24521699890E+02  0.00000000000E+00 0.  1.
</event>
<event>
 8    1  0.6380238E-009  0.8571955E+02  0.7561462E-02  0.1313562E+00
          1   -1    0    0  501    0  0.00000000000E+00  0.00000000000E+00  0.57079028944E+02  0.57079028944E+02  0.00000000000E+00 0. -1.
         -1   -1    0    0    0  501 -0.00000000000E+00 -0.00000000000E+00 -0.27678195913E+03  0.27678195913E+03  0.00000000000E+00 0.  1.
         25    2    1    2    0    0 -0.62750617632E+02 -0.80318372264E+01 -0.12816102264E+03  0.18993391263E+03  0.12508993972E+03 0.  0.
         23    2    1    2    0    0  0.62750617632E+02  0.80318372264E+01 -0.91541907546E+02  0.14392707544E+03  0.91284893525E+02 0.  0.
          5    1    3    3  502    0 -0.37072709968E+02  0.42635413706E-01 -0.15028171655E+03  0.15484332201E+03  0.41800000000E+01 0.  1.
         -5    1    3    3    0  502 -0.25677907664E+02 -0.80744726401E+01  0.22120693915E+02  0.35090590615E+02  0.41800000000E+01 0.  1.
        -11    1    4    4    0    0  0.28972971109E+02 -0.39249044470E+02 -0.22603332451E+02  0.53766450363E+02  0.00000000000E+00 0. -1.
         11    1    4    4    0    0  0.33777646523E+02  0.47280881697E+02 -0.68938575095E+02  0.90160625080E+02  0.00000000000E+00 0.  1.
</event>
<event>
 8    1  0.6380238E-009  0.1093776E+03  0.7561462E-02  0.1261727E+00
         -2   -1    0    0    0  501 -0.00000000000E+00  0.00000000000E+00  0.48011789742E+02  0.48011789742E+02  0.00000000000E+00 0.  1.
          2   -1    0    0  501    0  0.00000000000E+00 -0.00000000000E+00 -0.28066195239E+03  0.28066195239E+03  0.00000000000E+00 0. -1.
         25    2    1    2    0    0  0.27760204320E+02  0.37325624952E+02 -0.11470226287E+03  0.17597770380E+03  0.12509081463E+03 0.  0.
         23    2    1    2    0    0 -0.27760204320E+02 -0.37325624952E+02 -0.11794789977E+03  0.15269603833E+03  0.85091373471E+02 0.  0.
          5    1    3    3  502    0 -0.45153656735E+02  0.89727968260E+01 -0.75116811340E+02  0.88200745719E+02  0.41800000000E+01 0.  1.
         -5    1    3    3    0  502  0.72913861055E+02  0.28352828126E+02 -0.39585451531E+02  0.87776958079E+02  0.41800000000E+01 0.  1.
        -11    1    4    4    0    0 -0.39998634725E+02  0.13260710232E+02 -0.35033432967E+02  0.54800352564E+02  0.00000000000E+00 0.  1.
         11    1    4    4    0    0  0.12238430405E+02 -0.50586335184E+02 -0.82914466806E+02  0.97895685767E+02  0.00000000000E+00 0. -1.
</event>
<event>
 8    1  0.6380238E-009  0.1278858E+03  0.7561462E-02  0.1230627E+00
         -2   -1    0    0    0  501 -0.00000000000E+00  0.00000000000E+00  0.28340433682E+03  0.28340433682E+03  0.00000000000E+00 0. -1.
          2   -1    0    0  501    0  0.00000000000E+00 -0.00000000000E+00 -0.73099769771E+02  0.73099769771E+02  0.00000000000E+00 0.  1.
         25    2    1    2    0    0  0.88418910006E+02  0.22864554785E+02  0.13364608774E+03  0.20457088642E+03  0.12508908541E+03 0.  0.
         23    2    1    2    0    0 -0.88418910006E+02 -0.22864554785E+02  0.76658479305E+02  0.15193322017E+03  0.94162038162E+02 0.  0.
          5    1    3    3  502    0 -0.30002242195E+02  0.10136993156E+02  0.11587948845E+02  0.33980084247E+02  0.41800000000E+01 0.  1.
         -5    1    3    3    0  502  0.11842115220E+03  0.12727561629E+02  0.12205813890E+03  0.17059080217E+03  0.41800000000E+01 0.  1.
        -11    1    4    4    0    0 -0.13706171717E+02 -0.26517263490E+02 -0.15178593541E+02  0.33487521677E+02  0.00000000000E+00 0.  1.
         11    1    4    4    0    0 -0.74712738289E+02  0.36527087051E+01  0.91837072846E+02  0.11844569850E+03  0.00000000000E+00 0. -1.
</event>
<event>
 8    1  0.6380238E-009  0.1070053E+03  0.7561462E-02  0.1266218E+00
          2   -1    0    0  501    0  0.00000000000E+00  0.00000000000E+00  0.26389979137E+03  0.26389979137E+03  0.00000000000E+00 0.  1.
         -2   -1    0    0    0  501 -0.00000000000E+00 -0.00000000000E+00 -0.46410069251E+02  0.46410069251E+02  0.00000000000E+00 0. -1.
         25    2    1    2    0    0  0.16034946234E+02 -0.10563796477E+02  0.10321551324E+03  0.16330225473E+03  0.12508185692E+03 0.  0.
         23    2    1    2    0    0 -0.16034946234E+02  0.10563796477E+02  0.11427420888E+03  0.14700760589E+03  0.90465065506E+02 0.  0.
          5    1    3    3  502    0 -0.46347673516E+02 -0.30847337131E+02  0.25106851938E+02  0.61216758022E+02  0.41800000000E+01 0. -1.
         -5    1    3    3    0  502  0.62382619750E+02  0.20283540654E+02  0.78108661299E+02  0.10208549671E+03  0.41800000000E+01 0. -1.
        -11    1    4    4    0    0  0.19969440188E+02  0.40804861965E+02  0.54230495854E+02  0.70744342402E+02  0.00000000000E+00 0.  1.
         11    1    4    4    0    0 -0.36004386422E+02 -0.30241065488E+02  0.60043713024E+02  0.76263263484E+02  0.00000000000E+00 0. -1.
</event>
<event>
 8    1  0.6380238E-009  0.3611398E+03  0.7561462E-02  0.1058133E+00
          1   -1    0    0  501    0  0.00000000000E+00  0.00000000000E+00  0.40380828600E+03  0.40380828600E+03  0.00000000000E+00 0. -1.
         -1   -1    0    0    0  501 -0.00000000000E+00 -0.00000000000E+00 -0.39389032158E+03  0.39389032158E+03  0.00000000000E+00 0.  1.
         25    2    1    2    0    0 -0.31152892089E+03 -0.17586289096E+03  0.14333678554E+03  0.40518099324E+03  0.12509267856E+03 0.  0.
         23    2    1    2    0    0  0.31152892089E+03  0.17586289096E+03 -0.13341882112E+03  0.39251761434E+03  0.91057513543E+02 0.  0.
          5    1    3    3  502    0 -0.56727478340E+02 -0.62886601405E+01  0.70006287310E+02  0.90420720568E+02  0.41800000000E+01 0. -1.
         -5    1    3    3    0  502 -0.25480144255E+03 -0.16957423082E+03  0.73330498231E+02  0.31476027267E+03  0.41800000000E+01 0. -1.
        -11    1    4    4    0    0  0.11798856704E+03  0.50388113117E+02 -0.92730967234E+02  0.15830128294E+03  0.00000000000E+00 0. -1.
         11    1    4    4    0    0  0.19354035385E+03  0.12547477784E+03 -0.40687853887E+02  0.23421633140E+03  0.00000000000E+00 0.  1.
</event>
<event>
 8    1  0.6380238E-009  0.1822470E+03  0.7561462E-02  0.1165646E+00
         -1   -1    0    0    0  501 -0.00000000000E+00  0.00000000000E+00  0.18275566162E+03  0.18275566162E+03  0.00000000000E+00 0.  1.
          1   -1    0    0  501    0  0.00000000000E+00 -0.00000000000E+00 -0.20387430620E+03  0.20387430620E+03  0.00000000000E+00 0. -1.
         25    2    1    2    0    0 -0.11957868618E+03  0.10753690360E+03 -0.15234035071E+02  0.20431222803E+03  0.12509261719E+03 0.  0.
         23    2    1    2    0    0  0.11957868618E+03 -0.10753690360E+03 -0.58846095037E+01  0.18231773979E+03  0.85684781543E+02 0.  0.
          5    1    3    3  502    0 -0.82981924628E+02  0.13441423141E+03 -0.88415098382E+01  0.15826822207E+03  0.41800000000E+01 0.  1.
         -5    1    3    3    0  502 -0.36596761551E+02 -0.26877327812E+02 -0.63925252332E+01  0.46044005963E+02  0.41800000000E+01 0.  1.
        -11    1    4    4    0    0  0.19436166580E+02 -0.19596714374E+02 -0.36315317603E+02  0.45613573399E+02  0.00000000000E+00 0. -1.
         11    1    4    4    0    0  0.10014251960E+03 -0.87940189224E+02  0.30430708099E+02  0.13670416639E+03  0.00000000000E+00 0.  1.
</event>
<event>
 8    1  0.6380238E-009  0.9256660E+02  0.7561462E-02  0.1296753E+00
         -2   -1    0    0    0  501 -0.00000000000E+00  0.00000000000E+00  0.92007217566E+02  0.92007217566E+02  0.00000000000E+00 0.  1.
          2   -1    0    0  501    0  0.00000000000E+00 -0.00000000000E+00 -0.18150576533E+03  0.18150576533E+03  0.00000000000E+00 0. -1.
         25    2    1    2    0    0  0.68061931507E+01 -0.70272315651E+02 -0.57329092659E+02  0.15466515502E+03  0.12510061031E+03 0.  0.
         23    2    1    2    0    0 -0.68061931507E+01  0.70272315651E+02 -0.32169455102E+02  0.11884782787E+03  0.90030049077E+02 0.  0.
          5    1    3    3  502    0  0.97920490002E+01 -0.57899266241E+02  0.30167041982E+02  0.66149316526E+02  0.41800000000E+01 0.  1.
         -5    1    3    3    0  502 -0.29858558495E+01 -0.12373049409E+02 -0.87496134642E+02  0.88515838493E+02  0.41800000000E+01 0.  1.
        -11    1    4    4    0    0 -0.43312790860E+02  0.61668880621E+02 -0.30519398625E+02  0.81304873049E+02  0.00000000000E+00 0.  1.
         11    1    4    4    0    0  0.36506597709E+02  0.86034350297E+01 -0.16500564767E+01  0.37542954825E+02  0.00000000000E+00 0. -1.
</event>
<event>
 8    1  0.6380238E-009  0.9514646E+02  0.7561462E-02  0.1290847E+00
          2   -1    0    0  501    0  0.00000000000E+00  0.00000000000E+00  0.10944041149E+03  0.10944041149E+03  0.00000000000E+00 0. -1.
         -2   -1    0    0    0  501 -0.00000000000E+00 -0.00000000000E+00 -0.13589670156E+03  0.13589670156E+03  0.00000000000E+00 0.  1.
         25    2    1    2    0    0  0.35094629450E+00  0.46271814704E+02 -0.59697684774E+02  0.14613120922E+03  0.12509721316E+03 0.  0.
         23    2    1    2    0    0 -0.35094629450E+00 -0.46271814704E+02  0.33241394704E+02  0.99205903832E+02  0.81213404275E+02 0.  0.
          5    1    3    3  502    0 -0.49715382281E+02 -0.14071214324E+02 -0.88556341992E+01  0.52588144718E+02  0.41800000000E+01 0.  1.
         -5    1    3    3    0  502  0.50066328575E+02  0.60343029028E+02 -0.50842050575E+02  0.93543064499E+02  0.41800000000E+01 0.  1.
        -11    1    4    4    0    0  0.17261530304E+02 -0.10881472750E+02 -0.22817726571E+02  0.30610709294E+02  0.00000000000E+00 0.  1.
         11    1    4    4    0    0 -0.17612476598E+02 -0.35390341954E+02  0.56059121275E+02  0.68595194538E+02  0.00000000000E+00 0. -1.
</event>
<event>
 8    1  0.6380238E-009  0.2613765E+03  0.7561462E-02  0.1106319E+00
          2   -1    0    0  501    0  0.00000000000E+00  0.00000000000E+00  0.88003800827E+03  0.88003800827E+03  0.00000000000E+00 0.  1.
         -2   -1    0    0    0  501 -0.00000000000E+00 -0.00000000000E+00 -0.97386737259E+02  0.97386737259E+02  0.00000000000E+00 0. -1.
         25    2    1    2    0    0 -0.20483756611E+03 -0.13340683289E+03  0.59804571363E+03  0.65807402943E+03  0.12508773348E+03 0.  0.
         23    2    1    2    0    0  0.20483756611E+03  0.13340683289E+03  0.18460555737E+03  0.31935071609E+03  0.90276555684E+02 0.  0.
          5    1    3    3  502    0 -0.43618161480E+02 -0.99991777545E+02  0.26212251969E+03  0.28394821238E+03  0.41800000000E+01 0.  1.
         -5    1    3    3    0  502 -0.16121940463E+03 -0.33415055347E+02  0.33592319394E+03  0.37412581705E+03  0.41800000000E+01 0.  1.
        -11    1    4    4    0    0  0.18610840774E+03  0.13525049641E+03  0.19147271651E+03  0.29931728546E+03  0.00000000000E+00 0.  1.
         11    1    4    4    0    0  0.18729158367E+02 -0.18436635202E+01 -0.68671591320E+01  0.20033430631E+02  0.00000000000E+00 0. -1.
</event>
<event>
 8    1  0.6380238E-009  0.8479062E+02  0.7561462E-02  0.1315981E+00
          2   -1    0    0  501    0  0.00000000000E+00  0.00000000000E+00  0.14590237447E+03  0.14590237447E+03  0.00000000000E+00 0. -1.
         -2   -1    0    0    0  501 -0.00000000000E+00 -0.00000000000E+00 -0.92550475712E+02  0.92550475712E+02  0.00000000000E+00 0.  1.
         25    2    1    2    0    0  0.15479825514E+02  0.19610841291E+02 -0.44691983274E+01  0.12763986540E+03  0.12509097254E+03 0.  0.
         23    2    1    2    0    0 -0.15479825514E+02 -0.19610841291E+02  0.57821097083E+02  0.11081298478E+03  0.91170325401E+02 0.  0.
          5    1    3    3  502    0  0.50190406010E+02 -0.34869723288E+01 -0.46249704555E+02  0.68467097229E+02  0.41800000000E+01 0. -1.
         -5    1    3    3    0  502 -0.34710580496E+02  0.23097813620E+02  0.41780506228E+02  0.59172768171E+02  0.41800000000E+01 0. -1.
        -11    1    4    4    0    0 -0.28343296863E+02  0.20559304761E+02  0.59010406171E+02  0.68616729198E+02  0.00000000000E+00 0. -1.
         11    1    4    4    0    0  0.12863471349E+02 -0.40170146052E+02 -0.11893090885E+01  0.42196255581E+02  0.00000000000E+00 0.  1.
</event>
<event>
 8    1  0.6380238E-009  0.1077681E+03  0.7561462E-02  0.1264760E+00
         -1   -1    0    0    0  501 -0.00000000000E+00  0.00000000000E+00  0.22236922176E+03  0.22236922176E+03  0.00000000000E+00 0.  1.
          1   -1    0    0  501    0  0.00000000000E+00 -0.00000000000E+00 -0.62062965499E+02  0.62062965499E+02  0.00000000000E+00 0. -1.
         25    2    1    2    0    0 -0.12059284431E+02 -0.40939497080E+02  0.75945141663E+02  0.15243473203E+03  0.12508882534E+03 0.  0.
         23    2    1    2    0    0  0.12059284431E+02  0.40939497080E+02  0.84361114603E+02  0.13199745523E+03  0.92114395015E+02 0.  0.
          5    1    3    3  502    0  0.52105867789E+02 -0.35984751057E+02  0.56781527283E+02  0.85155962841E+02  0.41800000000E+01 0.  1.
         -5    1    3    3    0  502 -0.64165152220E+02 -0.49547460230E+01  0.19163614379E+02  0.67278769189E+02  0.41800000000E+01 0.  1.
        -11    1    4    4    0    0  0.24574699317E+02 -0.15973434047E+02  0.63788168214E+02  0.70199692634E+02  0.00000000000E+00 0.  1.
         11    1    4    4    0    0 -0.12515414887E+02  0.56912931126E+02  0.20572946388E+02  0.61797762599E+02  0.00000000000E+00 0. -1.
</event>
<event>
 8    1  0.6380238E-009  0.7340845E+02  0.7561462E-02  0.1348872E+00
         -2   -1    0    0    0  501 -0.00000000000E+00  0.00000000000E+00  0.19999114309E+02  0.19999114309E+02  0.00000000000E+00 0.  1.
          2   -1    0    0  501    0  0.00000000000E+00 -0.00000000000E+00 -0.68699865469E+03  0.68699865469E+03  0.00000000000E+00 0. -1.
         25    2    1    2    0    0  0.53248365995E+02  0.88228968226E+01 -0.48529972677E+03  0.50405718145E+03  0.12507831697E+03 0.  0.
         23    2    1    2    0    0 -0.53248365995E+02 -0.88228968226E+01 -0.18169981361E+03  0.20294058755E+03  0.72503984858E+02 0.  0.
          5    1    3    3  502    0  0.55447723145E+02  0.84014128265E+01 -0.49235508071E+03  0.49555628504E+03  0.41800000000E+01 0.  1.
         -5    1    3    3    0  502 -0.21993571494E+01  0.42148399615E+00  0.70553539371E+01  0.85008964120E+01  0.41800000000E+01 0.  1.
        -11    1    4    4    0    0 -0.61301252960E+02 -0.26216033469E+02 -0.16323719921E+03  0.17632784020E+03  0.00000000000E+00 0. -1.
         11    1    4    4    0    0  0.80528869650E+01  0.17393136647E+02 -0.18462614402E+02  0.26612747349E+02  0.00000000000E+00 0.  1.
</event>
<event>
 8    1  0.6380238E-009  0.1042264E+03  0.7561462E-02  0.1271651E+00
         -1   -1    0    0    0  501 -0.00000000000E+00  0.00000000000E+00  0.31388539195E+02  0.31388539195E+02  0.00000000000E+00 0.  1.
          1   -1    0    0  501    0  0.00000000000E+00 -0.00000000000E+00 -0.49994673574E+03  0.49994673574E+03  0.00000000000E+00 0. -1.
         25    2    1    2    0    0 -0.25907835584E+02 -0.22411968891E+02 -0.14935542405E+03  0.19780804788E+03  0.12508984300E+03 0.  0.
         23    2    1    2    0    0  0.25907835584E+02  0.22411968891E+02 -0.31920277250E+03  0.33352722705E+03  0.90423939971E+02 0.  0.
          5    1    3    3  502    0 -0.62063981162E+02 -0.41038015731E+02 -0.13549518335E+03  0.15463658560E+03  0.41800000000E+01 0. -1.
         -5    1    3    3    0  502  0.36156145579E+02  0.18626046840E+02 -0.13860240695E+02  0.43171462288E+02  0.41800000000E+01 0. -1.
        -11    1    4    4    0    0  0.57735476921E+02  0.86931063872E+01 -0.24128958335E+03  0.24825313378E+03  0.00000000000E+00 0.  1.
         11    1    4    4    0    0 -0.31827641337E+02  0.13718862504E+02 -0.77913189141E+02  0.85274093273E+02  0.00000000000E+00 0. -1.
</event>
<event>
 8    1  0.6380238E-009  0.1287210E+03  0.7561462E-02  0.1229366E+00
         -2   -1    0    0    0  501 -0.00000000000E+00  0.00000000000E+00  0.30220356492E+02  0.30220356492E+02  0.00000000000E+00 0.  1.
          2   -1    0    0  501    0  0.00000000000E+00 -0.00000000000E+00 -0.96741249791E+03  0.96741249791E+03  0.00000000000E+00 0. -1.
         25    2    1    2    0    0 -0.10679415573E+03 -0.63043178372E+02 -0.61547199360E+03  0.64018121999E+03  0.12508711158E+03 0.  0.
         23    2    1    2    0    0  0.10679415573E+03  0.63043178372E+02 -0.32172014782E+03  0.35745163441E+03  0.94278223330E+02 0.  0.
          5    1    3    3  502    0 -0.10893393763E+03 -0.65648371103E+02 -0.31599615930E+03  0.34065724194E+03  0.41800000000E+01 0.  1.
         -5    1    3    3    0  502  0.21397818936E+01  0.26051927304E+01 -0.29947583430E+03  0.29952397805E+03  0.41800000000E+01 0.  1.
        -11    1    4    4    0    0  0.16379706393E+02  0.15995273812E+02 -0.33170795009E+01  0.23133235448E+02  0.00000000000E+00 0.  1.
         11    1    4    4    0    0  0.90414449341E+02  0.47047904560E+02 -0.31840306832E+03  0.33431839896E+03  0.00000000000E+00 0. -1.
</event>
<event>
 8    1  0.6380238E-009  0.1004071E+03  0.7561462E-02  0.1279442E+00
         -1   -1    0    0    0  501 -0.00000000000E+00  0.00000000000E+00  0.25726178366E+03  0.25726178366E+03  0.00000000000E+00 0.  1.
          1   -1    0    0  501    0  0.00000000000E+00 -0.00000000000E+00 -0.53538711073E+02  0.53538711073E+02  0.00000000000E+00 0. -1.
         25    2    1    2    0    0 -0.30084134036E+02 -0.28191757921E+02  0.89640035321E+02  0.15931956768E+03  0.12509020097E+03 0.  0.
         23    2    1    2    0    0  0.30084134036E+02  0.28191757921E+02  0.11408303727E+03  0.15148092705E+03  0.90728724967E+02 0.  0.
          5    1    3    3  502    0 -0.48428394100E+01  0.39446243077E+02  0.75804365564E+02  0.85692668443E+02  0.41800000000E+01 0. -1.
         -5    1    3    3    0  502 -0.25241294626E+02 -0.67638000998E+02  0.13835669758E+02  0.73626899235E+02  0.41800000000E+01 0. -1.
        -11    1    4    4    0    0  0.26557238236E+02 -0.24258333676E+02  0.82881915455E+02  0.90350238323E+02  0.00000000000E+00 0.  1.
         11    1    4    4    0    0  0.35268957999E+01  0.52450091597E+02  0.31201121810E+02  0.61130688731E+02  0.00000000000E+00 0. -1.
</event>
<event>
 8    1  0.6380238E-009  0.1206019E+03  0.7561462E-02  0.1242107E+00
          2   -1    0    0  501    0  0.00000000000E+00  0.00000000000E+00  0.18768744695E+03  0.18768744695E+03  0.00000000000E+00 0. -1.
         -2   -1    0    0    0  501 -0.00000000000E+00 -0.00000000000E+00 -0.85345887196E+02  0.85345887196E+02  0.00000000000E+00 0.  1.
         25    2    1    2    0    0 -0.20663875326E+02  0.50965597982E+02  0.36414480153E+02  0.14141564008E+03  0.12509149041E+03 0.  0.
         23    2    1    2    0    0  0.20663875326E+02 -0.50965597982E+02  0.65927079604E+02  0.13161769407E+03  0.99761463731E+02 0.  0.
          5    1    3    3  502    0 -0.60373056113E+02  0.61487679234E+02  0.47736768547E+02  0.98599756964E+02  0.41800000000E+01 0. -1.
         -5    1    3    3    0  502  0.39709180787E+02 -0.10522081252E+02 -0.11322288394E+02  0.42815883117E+02  0.41800000000E+01 0. -1.
        -11    1    4    4    0    0  0.54188356272E+02 -0.19099976950E+01  0.36047660387E+02  0.65111134731E+02  0.00000000000E+00 0.  1.
         11    1    4    4    0    0 -0.33524480945E+02 -0.49055600287E+02  0.29879419218E+02  0.66506559338E+02  0.00000000000E+00 0. -1.
</event>
<event>
 8    1  0.6380238E-009  0.8334501E+02  0.7561462E-02  0.1319818E+00
         -1   -1    0    0    0  501 -0.00000000000E+00  0.00000000000E+00  0.10162185111E+03  0.10162185111E+03  0.00000000000E+00 0.  1.
          1   -1    0    0  501    0  0.00000000000E+00 -0.00000000000E+00 -0.17459782412E+03  0.17459782412E+03  0.00000000000E+00 0. -1.
         25    2    1    2    0    0  0.18588607618E+02 -0.98503162307E+01 -0.12166162357E+03  0.17576281892E+03  0.12509377604E+03 0.  0.
         23    2    1    2    0    0 -0.18588607618E+02  0.98503162307E+01  0.48685650565E+02  0.10045685631E+03  0.85315428533E+02 0.  0.
          5    1    3    3  502    0  0.15198058333E+02  0.36628284712E+02 -0.12264360542E+03  0.12896332257E+03  0.41800000000E+01 0.  1.
         -5    1    3    3    0  502  0.33905492855E+01 -0.46478600943E+02  0.98198185537E+00  0.46799496348E+02  0.41800000000E+01 0.  1.
        -11    1    4    4    0    0 -0.37861028579E+02 -0.21265296911E+02  0.46748300558E+02  0.63804968011E+02  0.00000000000E+00 0.  1.
         11    1    4    4    0    0  0.19272420961E+02  0.31115613142E+02  0.19373500072E+01  0.36651888300E+02  0.00000000000E+00 0. -1.
</event>
<event>
 8    1  0.6380238E-009  0.3410355E+03  0.7561462E-02  0.1066356E+00
          1   -1    0    0  501    0  0.00000000000E+00  0.00000000000E+00  0.20832832162E+04  0.20832832162E+04  0.00000000000E+00 0. -1.
         -1   -1    0    0    0  501 -0.00000000000E+00 -0.00000000000E+00 -0.57497885060E+02  0.57497885060E+02  0.00000000000E+00 0.  1.
         25    2    1    2    0    0 -0.32647918533E+03 -0.10425294022E+02  0.94917330034E+03  0.10115709282E+04  0.12509373908E+03 0.  0.
         23    2    1    2    0    0  0.32647918533E+03  0.10425294022E+02  0.10766120308E+04  0.11292101731E+04  0.96565028832E+02 0.  0.
          5    1    3    3  502    0 -0.22429774217E+03 -0.60147491840E+02  0.56367565493E+03  0.60965146952E+03  0.41800000000E+01 0. -1.
         -5    1    3    3    0  502 -0.10218144316E+03  0.49722197818E+02  0.38549764540E+03  0.40191945872E+03  0.41800000000E+01 0. -1.
        -11    1    4    4    0    0  0.20148223641E+03  0.44918255087E+02  0.56865932491E+03  0.60496790744E+03  0.00000000000E+00 0.  1.
         11    1    4    4    0    0  0.12499694892E+03 -0.34492961065E+02  0.50795270593E+03  0.52424226562E+03  0.00000000000E+00 0. -1.
</event>
<event>
 8    1  0.6380238E-009  0.1003480E+03  0.7561462E-02  0.1279566E+00
         -2   -1    0    0    0  501 -0.00000000000E+00  0.00000000000E+00  0.36173546502E+02  0.36173546502E+02  0.00000000000E+00 0.  1.
          2   -1    0    0  501    0  0.00000000000E+00 -0.00000000000E+00 -0.36025322919E+03  0.36025322919E+03  0.00000000000E+00 0. -1.
         25    2    1    2    0    0  0.21437679395E+02  0.24317298325E+02 -0.15389092791E+03  0.20094670472E+03  0.12508499251E+03 0.  0.
         23    2    1    2    0    0 -0.21437679395E+02 -0.24317298325E+02 -0.17018875478E+03  0.19548007097E+03  0.90539167196E+02 0.  0.
          5    1    3    3  502    0 -0.44906621603E+02 -0.18810142443E+02 -0.71793416408E+02  0.86845801062E+02  0.41800000000E+01 0. -1.
         -5    1    3    3    0  502  0.66344300998E+02  0.43127440768E+02 -0.82097511500E+02  0.11410090366E+03  0.41800000000E+01 0. -1.
        -11    1    4    4    0    0 -0.43678578673E+02 -0.66422095906E+01 -0.15887092566E+03  0.16489969134E+03  0.00000000000E+00 0. -1.
         11    1    4    4    0    0  0.22240899278E+02 -0.17675088735E+02 -0.11317829124E+02  0.30580379634E+02  0.00000000000E+00 0.  1.
</event>
<event>
 8    1  0.6380238E-009  0.2645450E+03  0.7561462E-02  0.1104443E+00
          2   -1    0    0  501    0  0.00000000000E+00  0.00000000000E+00  0.55452852906E+03  0.55452852906E+03  0.00000000000E+00 0. -1.
         -2   -1    0    0    0  501 -0.00000000000E+00 -0.00000000000E+00 -0.13489142943E+03  0.13489142943E+03  0.00000000000E+00 0.  1.
         25    2    1    2    0    0  0.99325984906E+02 -0.22863191130E+03  0.17437342381E+03  0.32892067983E+03  0.12507805779E+03 0.  0.
         23    2    1    2    0    0 -0.99325984906E+02  0.22863191130E+03  0.24526367582E+03  0.36049927866E+03  0.87562875104E+02 0.  0.
          5    1    3    3  502    0 -0.23592328527E+01  0.10133252544E+02 -0.61270402207E+01  0.12777394439E+02  0.41800000000E+01 0. -1.
         -5    1    3    3    0  502  0.10168521776E+03 -0.23876516385E+03  0.18050046403E+03  0.31614328539E+03  0.41800000000E+01 0. -1.
        -11    1    4    4    0    0 -0.88656967401E+02  0.12013135154E+03  0.10353877805E+03  0.18169171157E+03  0.00000000000E+00 0.  1.
         11    1    4    4    0    0 -0.10669017506E+02  0.10850055976E+03  0.14172489777E+03  0.17880756710E+03  0.00000000000E+00 0. -1.
</event>
<event>
 8    1  0.6380238E-009  0.8117238E+02  0.7561462E-02  0.1325757E+00
         -1   -1    0    0    0  501 -0.00000000000E+00  0.00000000000E+00  0.22710809850E+03  0.22710809850E+03  0.00000000000E+00 0.  1.
          1   -1    0    0  501    0  0.00000000000E+00 -0.00000000000E+00 -0.69309167189E+02  0.69309167189E+02  0.00000000000E+00 0. -1.
         25    2    1    2    0    0  0.35256940797E+02 -0.43702704176E+02  0.12250040881E+03  0.18386645692E+03  0.12509014987E+03 0.  0.
         23    2    1    2    0    0 -0.35256940797E+02  0.43702704176E+02  0.35298522505E+02  0.11255080877E+03  0.90932505945E+02 0.  0.
          5    1    3    3  502    0 -0.85272447648E+01 -0.61305520828E+01 -0.23907573465E+02  0.26445075933E+02  0.41800000000E+01 0.  1.
         -5    1    3    3    0  502  0.43784185562E+02 -0.37572152093E+02  0.14640798227E+03  0.15742138098E+03  0.41800000000E+01 0.  1.
        -11    1    4    4    0    0 -0.51437101908E+02  0.55285888436E+01 -0.82890385111E+01  0.52393214319E+02  0.00000000000E+00 0. -1.
         11    1    4    4    0    0  0.16180161111E+02  0.38174115332E+02  0.43587561016E+02  0.60157594452E+02  0.00000000000E+00 0.  1.
</event>
<event>
 8    1  0.6380238E-009  0.1647101E+03  0.7561462E-02  0.1183479E+00
         -1   -1    0    0    0  501 -0.00000000000E+00  0.00000000000E+00  0.82785599507E+02  0.82785599507E+02  0.00000000000E+00 0.  1.
          1   -1    0    0  501    0  0.00000000000E+00 -0.00000000000E+00 -0.42669299088E+03  0.42669299088E+03  0.00000000000E+00 0. -1.
         25    2    1    2    0    0 -0.12871187446E+03  0.61652704902E+02 -0.10983890461E+03  0.21926840978E+03  0.12508496278E+03 0.  0.
         23    2    1    2    0    0  0.12871187446E+03 -0.61652704902E+02 -0.23406848676E+03  0.29021018060E+03  0.95216016420E+02 0.  0.
          5    1    3    3  502    0 -0.12793490732E+03  0.34864873820E+01 -0.93956347433E+02  0.15882305792E+03  0.41800000000E+01 0. -1.
         -5    1    3    3    0  502 -0.77696713767E+00  0.58166217520E+02 -0.15882557174E+02  0.60445351855E+02  0.41800000000E+01 0. -1.
        -11    1    4    4    0    0  0.84568492782E+02 -0.35324816350E+02 -0.21780174527E+03  0.23629911736E+03  0.00000000000E+00 0. -1.
         11    1    4    4    0    0  0.44143381676E+02 -0.26327888552E+02 -0.16266741490E+02  0.53911063244E+02  0.00000000000E+00 0.  1.
</event>
<event>
 8    1  0.6380238E-009  0.7097893E+02  0.7561462E-02  0.1356795E+00
          4   -1    0    0  501    0  0.00000000000E+00  0.00000000000E+00  0.33243055706E+03  0.33243055706E+03  0.00000000000E+00 0. -1.
         -4   -1    0    0    0  501 -0.00000000000E+00 -0.00000000000E+00 -0.45881472656E+02  0.45881472656E+02  0.00000000000E+00 0.  1.
         25    2    1    2    0    0 -0.85757243901E+01  0.38847331180E+02  0.22363078292E+03  0.25931236172E+03  0.12509802431E+03 0.  0.
         23    2    1    2    0    0  0.85757243901E+01 -0.38847331180E+02  0.62918301490E+02  0.11899966800E+03  0.92841532368E+02 0.  0.
          5    1    3    3  502    0 -0.30331459752E+02  0.31764039544E+01  0.21403784888E+03  0.21624005213E+03  0.41800000000E+01 0. -1.
         -5    1    3    3    0  502  0.21755735362E+02  0.35670927226E+02  0.95929340415E+01  0.43072309595E+02  0.41800000000E+01 0. -1.
        -11    1    4    4    0    0 -0.82752494846E+00 -0.52555279945E+02  0.79639774423E+02  0.95421359862E+02  0.00000000000E+00 0. -1.
         11    1    4    4    0    0  0.94032493386E+01  0.13707948765E+02 -0.16721472933E+02  0.23578308135E+02  0.00000000000E+00 0.  1.
</event>
<event>
 8    1  0.6380238E-009  0.1157345E+03  0.7561462E-02  0.1250304E+00
          4   -1    0    0  501    0  0.00000000000E+00  0.00000000000E+00  0.28310851845E+03  0.28310851845E+03  0.00000000000E+00 0.  1.
         -4   -1    0    0    0  501 -0.00000000000E+00 -0.00000000000E+00 -0.56783058275E+02  0.56783058275E+02  0.00000000000E+00 0. -1.
         25    2    1    2    0    0 -0.22435951125E+02  0.54765623808E+02  0.88943509377E+02  0.16450190066E+03  0.12508909628E+03 0.  0.
         23    2    1    2    0    0  0.22435951125E+02 -0.54765623808E+02  0.13738195080E+03  0.17538967606E+03  0.91570151306E+02 0.  0.
          5    1    3    3  502    0 -0.61633328949E+02 -0.28404685479E+01  0.16721720079E+02  0.64061094444E+02  0.41800000000E+01 0.  1.
         -5    1    3    3    0  502  0.39197377824E+02  0.57606092356E+02  0.72221789298E+02  0.10044080622E+03  0.41800000000E+01 0.  1.
        -11    1    4    4    0    0  0.52183602075E+02 -0.25440494032E+02  0.43213634587E+02  0.72372406871E+02  0.00000000000E+00 0. -1.
         11    1    4    4    0    0 -0.29747650950E+02 -0.29325129776E+02  0.94168316212E+02  0.10301726919E+03  0.00000000000E+00 0.  1.
</event>
<event>
 8    1  0.6380238E-009  0.1052210E+03  0.7561462E-02  0.1269685E+00
         -2   -1    0    0    0  501 -0.00000000000E+00  0.00000000000E+00  0.44922930102E+02  0.44922930102E+02  0.00000000000E+00 0.  1.
          2   -1    0    0  501    0  0.00000000000E+00 -0.00000000000E+00 -0.26874426568E+03  0.26874426568E+03  0.00000000000E+00 0. -1.
         25    2    1    2    0    0  0.51005723362E+01 -0.11396807758E+02 -0.12902984881E+03  0.18014452043E+03  0.12508974095E+03 0.  0.
         23    2    1    2    0    0 -0.51005723362E+01  0.11396807758E+02 -0.94791486769E+02  0.13352267535E+03  0.93203947364E+02 0.  0.
          5    1    3    3  502    0  0.11243825963E+02 -0.65121460783E+02 -0.44745738039E+02  0.79917968877E+02  0.41800000000E+01 0. -1.
         -5    1    3    3    0  502 -0.61432536269E+01  0.53724653025E+02 -0.84284110770E+02  0.10022655155E+03  0.41800000000E+01 0. -1.
        -11    1    4    4    0    0  0.34705265161E+02 -0.19309944931E+02 -0.23049890134E+02  0.45919787002E+02  0.00000000000E+00 0. -1.
         11    1    4    4    0    0 -0.39805837498E+02  0.30706752689E+02 -0.71741596635E+02  0.87602888350E+02  0.00000000000E+00 0.  1.
</event>
<event>
 8    1  0.6380238E-009  0.1057152E+03  0.7561462E-02  0.1268717E+00
         -2   -1    0    0    0  501 -0.00000000000E+00  0.00000000000E+00  0.80270285698E+03  0.80270285698E+03  0.00000000000E+00 0.  1.
          2   -1    0    0  501    0  0.00000000000E+00 -0.00000000000E+00 -0.21408640427E+02  0.21408640427E+02  0.00000000000E+00 0. -1.
         25    2    1    2    0    0  0.76721972568E+02 -0.37158972365E+01  0.59517126512E+03  0.61300697628E+03  0.12509456097E+03 0.  0.
         23    2    1    2    0    0 -0.76721972568E+02  0.37158972365E+01  0.18612295144E+03  0.21110452113E+03  0.63429463350E+02 0.  0.
          5    1    3    3  502    0  0.99530910579E+02 -0.37152477857E+01  0.28427889402E+03  0.30125100367E+03  0.41800000000E+01 0. -1.
         -5    1    3    3    0  502 -0.22808938011E+02 -0.64945080617E-03  0.31089237109E+03  0.31175597261E+03  0.41800000000E+01 0. -1.
        -11    1    4    4    0    0 -0.71735318921E+02 -0.11400854748E+02  0.17990565312E+03  0.19401541045E+03  0.00000000000E+00 0.  1.
         11    1    4    4    0    0 -0.49866536464E+01  0.15116751984E+02  0.62172983183E+01  0.17089110671E+02  0.00000000000E+00 0. -1.
</event>
<event>
 8    1  0.6380238E-009  0.1289271E+03  0.7561462E-02  0.1229057E+00
          1   -1    0    0  501    0  0.00000000000E+00  0.00000000000E+00  0.75286173690E+02  0.75286173690E+02  0.00000000000E+00 0. -1.
         -1   -1    0    0    0  501 -0.00000000000E+00 -0.00000000000E+00 -0.27031261323E+03  0.27031261323E+03  0.00000000000E+00 0.  1.
         25    2    1    2    0    0  0.78081832305E+02  0.32979678791E+02 -0.15159007350E+03  0.21403537579E+03  0.12508860842E+03 0.  0.
         23    2    1    2    0    0 -0.78081832305E+02 -0.32979678791E+02 -0.43436366036E+02  0.13156341113E+03  0.90762225095E+02 0.  0.
          5    1    3    3  502    0  0.73723003617E+02  0.67758697226E+02 -0.14774325349E+03  0.17852692700E+03  0.41800000000E+01 0.  1.
         -5    1    3    3    0  502  0.43588286881E+01 -0.34779018435E+02 -0.38468200046E+01  0.35508448783E+02  0.41800000000E+01 0.  1.
        -11    1    4    4    0    0 -0.20812147263E+01  0.26031950704E+02 -0.30251819196E+00  0.26116765294E+02  0.00000000000E+00 0.  1.
         11    1    4    4    0    0 -0.76000617579E+02 -0.59011629494E+02 -0.43133847844E+02  0.10544664583E+03  0.00000000000E+00 0. -1.
</event>
<event>
 8    1  0.6380238E-009  0.1224678E+03  0.7561462E-02  0.1239081E+00
          1   -1    0    0  501    0  0.00000000000E+00  0.00000000000E+00  0.36854299639E+02  0.36854299639E+02  0.00000000000E+00 0. -1.
         -1   -1    0    0    0  501 -0.00000000000E+00 -0.00000000000E+00 -0.48752604640E+03  0.48752604640E+03  0.00000000000E+00 0.  1.
         25    2    1    2    0    0 -0.20407311585E+02 -0.69374545587E+02 -0.18551319110E+03  0.23514100595E+03  0.12508742009E+03 0.  0.
         23    2    1    2    0    0  0.20407311585E+02  0.69374545587E+02 -0.26515855565E+03  0.28923934009E+03  0.90116870094E+02 0.  0.
          5    1    3    3  502    0  0.16459592142E+02  0.23857066045E+02 -0.66129358540E+01  0.30021343980E+02  0.41800000000E+01 0. -1.
         -5    1    3    3    0  502 -0.36866903728E+02 -0.93231611631E+02 -0.17890025525E+03  0.20511966197E+03  0.41800000000E+01 0. -1.
        -11    1    4    4    0    0  0.21493239873E+02 -0.17934233687E+02 -0.72565474289E+02  0.77777529898E+02  0.00000000000E+00 0.  1.
         11    1    4    4    0    0 -0.10859282881E+01  0.87308779274E+02 -0.19259308137E+03  0.21146181019E+03  0.00000000000E+00 0. -1.
</event>
<event>
 8    1  0.6380238E-009  0.1469310E+03  0.7561462E-02  0.1204296E+00
         -2   -1    0    0    0  501 -0.00000000000E+00  0.00000000000E+00  0.12933374786E+03  0.12933374786E+03  0.00000000000E+00 0. -1.
          2   -1    0    0  501    0  0.00000000000E+00 -0.00000000000E+00 -0.38101053767E+03  0.38101053767E+03  0.00000000000E+00 0.  1.
         25    2    1    2    0    0 -0.91002558190E+02 -0.78946219262E+02 -0.30728091045E+03  0.35296342426E+03  0.12509056641E+03 0.  0.
         23    2    1    2    0    0  0.91002558190E+02  0.78946219262E+02  0.55604120645E+02  0.15738086127E+03  0.84634190075E+02 0.  0.
          5    1    3    3  502    0 -0.65218298265E+01 -0.87834194415E+02 -0.14375869736E+03  0.16864582841E+03  0.41800000000E+01 0. -1.
         -5    1    3    3    0  502 -0.84480728363E+02  0.88879751522E+01 -0.16352221309E+03  0.18431759585E+03  0.41800000000E+01 0. -1.
        -11    1    4    4    0    0  0.23704707544E+02  0.24295898542E+02 -0.22475034472E+02  0.40710330632E+02  0.00000000000E+00 0.  1.
         11    1    4    4    0    0  0.67297850646E+02  0.54650320721E+02  0.78079155116E+02  0.11667053064E+03  0.00000000000E+00 0. -1.
</event>
<event>
 8    1  0.6380238E-009  0.1142861E+03  0.7561462E-02  0.1252832E+00
         -1   -1    0    0    0  501 -0.00000000000E+00  0.00000000000E+00  0.83579211417E+02  0.83579211417E+02  0.00000000000E+00 0.  1.
          1   -1    0    0  501    0  0.00000000000E+00 -0.00000000000E+00 -0.21822488419E+03  0.21822488419E+03  0.00000000000E+00 0. -1.
         25    2    1    2    0    0  0.72451555870E+02  0.39645439074E+02 -0.51199974990E+02  0.15839701512E+03  0.12508872121E+03 0.  0.
         23    2    1    2    0    0 -0.72451555870E+02 -0.39645439074E+02 -0.83445697782E+02  0.14340708048E+03  0.82349362272E+02 0.  0.
          5    1    3    3  502    0  0.82047092725E+02  0.62220039956E+02 -0.17857997223E+01  0.10307143289E+03  0.41800000000E+01 0. -1.
         -5    1    3    3    0  502 -0.95955368551E+01 -0.22574600883E+02 -0.49414175267E+02  0.55325582237E+02  0.41800000000E+01 0. -1.
        -11    1    4    4    0    0 -0.46696842512E+02 -0.53804832492E+02 -0.88471264138E+02  0.11359013900E+03  0.00000000000E+00 0. -1.
         11    1    4    4    0    0 -0.25754713358E+02  0.14159393418E+02  0.50255663552E+01  0.29816941481E+02  0.00000000000E+00 0.  1.
</event>
<event>
 8    1  0.6380238E-009  0.1051618E+03  0.7561462E-02  0.1269801E+00
          2   -1    0    0  501    0  0.00000000000E+00  0.00000000000E+00  0.44658852309E+02  0.44658852309E+02  0.00000000000E+00 0. -1.
         -2   -1    0    0    0  501 -0.00000000000E+00 -0.00000000000E+00 -0.35139840299E+03  0.35139840299E+03  0.00000000000E+00 0.  1.
         25    2    1    2    0    0  0.36560506248E+02 -0.36321267594E+02 -0.22840730786E+03  0.26546749838E+03  0.12508872577E+03 0.  0.
         23    2    1    2    0    0 -0.36560506248E+02  0.36321267594E+02 -0.78332242820E+02  0.13058975692E+03  0.90894660188E+02 0.  0.
          5    1    3    3  502    0  0.63712584000E+02  0.24193142246E+02 -0.10376537358E+03  0.12421484068E+03  0.41800000000E+01 0.  1.
         -5    1    3    3    0  502 -0.27152077752E+02 -0.60514409840E+02 -0.12464193428E+03  0.14125265770E+03  0.41800000000E+01 0.  1.
        -11    1    4    4    0    0  0.93585813026E+01  0.27206387959E+02  0.10131217026E+02  0.30502658051E+02  0.00000000000E+00 0.  1.
         11    1    4    4    0    0 -0.45919087550E+02  0.91148796349E+01 -0.88463459846E+02  0.10008709887E+03  0.00000000000E+00 0. -1.
</event>
<event>
 8    1  0.6380238E-009  0.7210978E+02  0.7561462E-02  0.1353062E+00
         -1   -1    0    0    0  501 -0.00000000000E+00  0.00000000000E+00  0.18001940850E+03  0.18001940850E+03  0.00000000000E+00 0.  1.
          1   -1    0    0  501    0  0.00000000000E+00 -0.00000000000E+00 -0.93811902588E+02  0.93811902588E+02  0.00000000000E+00 0. -1.
         25    2    1    2    0    0  0.19022180846E+02 -0.54488996087E+02  0.92149616310E+02  0.16574024709E+03  0.12508950260E+03 0.  0.
         23    2    1    2    0    0 -0.19022180846E+02  0.54488996087E+02 -0.59421103985E+01  0.10809106400E+03  0.91200193978E+02 0.  0.
          5    1    3    3  502    0  0.13765520324E+02 -0.10525059813E+02 -0.30471907895E+02  0.35302634528E+02  0.41800000000E+01 0. -1.
         -5    1    3    3    0  502  0.52566605223E+01 -0.43963936274E+02  0.12262152420E+03  0.13043761256E+03  0.41800000000E+01 0. -1.
        -11    1    4    4    0    0  0.10697003549E+02 -0.75752035563E+01  0.28330490297E+02  0.31215801677E+02  0.00000000000E+00 0.  1.
         11    1    4    4    0    0 -0.29719184395E+02  0.62064199644E+02 -0.34272600696E+02  0.76875262321E+02  0.00000000000E+00 0. -1.
</event>
<event>
 8    1  0.6380238E-009  0.1104372E+03  0.7561462E-02  0.1259762E+00
         -2   -1    0    0    0  501 -0.00000000000E+00  0.00000000000E+00  0.38665364589E+02  0.38665364589E+02  0.00000000000E+00 0.  1.
          2   -1    0    0  501    0  0.00000000000E+00 -0.00000000000E+00 -0.51665084213E+03  0.51665084213E+03  0.00000000000E+00 0. -1.
         25    2    1    2    0    0 -0.17531657649E+02 -0.22407443118E+02 -0.42861963499E+03  0.44740677703E+03  0.12509428485E+03 0.  0.
         23    2    1    2    0    0  0.17531657649E+02  0.22407443118E+02 -0.49365842554E+02  0.10790942970E+03  0.91640635527E+02 0.  0.
          5    1    3    3  502    0  0.37504554503E+02  0.32897012050E+02 -0.17568530935E+03  0.18267896795E+03  0.41800000000E+01 0. -1.
         -5    1    3    3    0  502 -0.55036212152E+02 -0.55304455169E+02 -0.25293432564E+03  0.26472780908E+03  0.41800000000E+01 0. -1.
        -11    1    4    4    0    0  0.48331775427E+02 -0.84654683590E+01 -0.39999484659E+02  0.63305477200E+02  0.00000000000E+00 0.  1.
         11    1    4    4    0    0 -0.30800117779E+02  0.30872911477E+02 -0.93663578944E+01  0.44603952498E+02  0.00000000000E+00 0. -1.
</event>
<event>
 8    1  0.6380238E-009  0.7927542E+02  0.7561462E-02  0.1331120E+00
          1   -1    0    0  501    0  0.00000000000E+00  0.00000000000E+00  0.30525392841E+03  0.30525392841E+03  0.00000000000E+00 0. -1.
         -1   -1    0    0    0  501 -0.00000000000E+00 -0.00000000000E+00 -0.53459797193E+02  0.53459797193E+02  0.00000000000E+00 0.  1.
         25    2    1    2    0    0 -0.93617238849E+01 -0.59164052538E+02  0.17817884948E+03  0.22578845925E+03  0.12507877094E+03 0.  0.
         23    2    1    2    0    0  0.93617238849E+01  0.59164052538E+02  0.73615281738E+02  0.13292526636E+03  0.93069273897E+02 0.  0.
          5    1    3    3  502    0 -0.25183714840E+02  0.99744147012E+01  0.14465354922E+03  0.14722713793E+03  0.41800000000E+01 0.  1.
         -5    1    3    3    0  502  0.15821990955E+02 -0.69138467239E+02  0.33525300267E+02  0.78561321323E+02  0.41800000000E+01 0.  1.
        -11    1    4    4    0    0  0.77341333362E+01  0.33605149092E+02 -0.17223160383E+02  0.38545558986E+02  0.00000000000E+00 0.  1.
         11    1    4    4    0    0  0.16275905488E+01  0.25558903446E+02  0.90838442121E+02  0.94379707370E+02  0.00000000000E+00 0. -1.
</event>
<event>
 8    1  0.6380238E-009  0.9489095E+02  0.7561462E-02  0.1291422E+00
          1   -1    0    0  501    0  0.00000000000E+00  0.00000000000E+00  0.53210841183E+03  0.53210841183E+03  0.00000000000E+00 0. -1.
         -1   -1    0    0    0  501 -0.00000000000E+00 -0.00000000000E+00 -0.26126028068E+02  0.26126028068E+02  0.00000000000E+00 0.  1.
         25    2    1    2    0    0  0.83746672413E+01  0.38456868782E+02  0.23497791862E+03  0.26909195760E+03  0.12508714401E+03 0.  0.
         23    2    1    2    0    0 -0.83746672413E+01 -0.38456868782E+02  0.27100446514E+03  0.28914248230E+03  0.92794876668E+02 0.  0.
          5    1    3    3  502    0  0.41827079838E+02  0.63839295475E+01  0.21376614913E+03  0.21795343098E+03  0.41800000000E+01 0. -1.
         -5    1    3    3    0  502 -0.33452412597E+02  0.32072939234E+02  0.21211769496E+02  0.51138526619E+02  0.41800000000E+01 0. -1.
        -11    1    4    4    0    0 -0.35887122121E+02  0.16328406217E+02  0.10108346424E+03  0.10850054897E+03  0.00000000000E+00 0. -1.
         11    1    4    4    0    0  0.27512454879E+02 -0.54785274999E+02  0.16992100090E+03  0.18064193333E+03  0.00000000000E+00 0.  1.
</event>
<event>
 8    1  0.6380238E-009  0.9540233E+02  0.7561462E-02  0.1290273E+00
          1   -1    0    0  501    0  0.00000000000E+00  0.00000000000E+00  0.24804567953E+03  0.24804567953E+03  0.00000000000E+00 0. -1.
         -1   -1    0    0    0  501 -0.00000000000E+00 -0.00000000000E+00 -0.55614157864E+02  0.55614157864E+02  0.00000000000E+00 0.  1.
         25    2    1    2    0    0 -0.56400857484E+02 -0.74790629647E+01  0.98734830318E+02  0.16921328135E+03  0.12509026644E+03 0.  0.
         23    2    1    2    0    0  0.56400857484E+02  0.74790629647E+01  0.93696691347E+02  0.13444655605E+03  0.77844803013E+02 0.  0.
          5    1    3    3  502    0  0.16401414616E+02 -0.23213452211E+02  0.89555035500E+02  0.94050239491E+02  0.41800000000E+01 0.  1.
         -5    1    3    3    0  502 -0.72802272100E+02  0.15734389246E+02  0.91797948184E+01  0.75163041854E+02  0.41800000000E+01 0.  1.
        -11    1    4    4    0    0  0.70053749747E+02  0.15350733712E+02  0.48487110176E+02  0.86568890095E+02  0.00000000000E+00 0.  1.
         11    1    4    4    0    0 -0.13652892263E+02 -0.78716707476E+01  0.45209581171E+02  0.47877665953E+02  0.00000000000E+00 0. -1.
</event>
<event>
 8    1  0.6380238E-009  0.1059649E+03  0.7561462E-02  0.1268230E+00
         -1   -1    0    0    0  501 -0.00000000000E+00  0.00000000000E+00  0.23021663034E+02  0.23021663034E+02  0.00000000000E+00 0.  1.
          1   -1    0    0  501    0  0.00000000000E+00 -0.00000000000E+00 -0.55372550378E+03  0.55372550378E+03  0.00000000000E+00 0. -1.
         25    2    1    2    0    0 -0.14004219521E+02  0.44372677198E+02 -0.29029986944E+03  0.31950547470E+03  0.12507870131E+03 0.  0.
         23    2    1    2    0    0  0.14004219521E+02 -0.44372677198E+02 -0.24040397130E+03  0.25724169211E+03  0.78829982210E+02 0.  0.
          5    1    3    3  502    0  0.41785526830E+02 -0.95369303593E+01 -0.17674692767E+03  0.18191737722E+03  0.41800000000E+01 0. -1.
         -5    1    3    3    0  502 -0.55789746351E+02  0.53909607557E+02 -0.11355294178E+03  0.13758809749E+03  0.41800000000E+01 0. -1.
        -11    1    4    4    0    0  0.25302306458E+02 -0.63836503996E+02 -0.19048332049E+03  0.20248259515E+03  0.00000000000E+00 0. -1.
         11    1    4    4    0    0 -0.11298086937E+02  0.19463826798E+02 -0.49920650813E+02  0.54759096958E+02  0.00000000000E+00 0.  1.
</event>
<event>
 8    1  0.6380238E-009  0.1105132E+03  0.7561462E-02  0.1259623E+00
          1   -1    0    0  501    0  0.00000000000E+00  0.00000000000E+00  0.64542012832E+02  0.64542012832E+02  0.00000000000E+00 0. -1.
         -1   -1    0    0    0  501 -0.00000000000E+00 -0.00000000000E+00 -0.21950280353E+03  0.21950280353E+03  0.00000000000E+00 0.  1.
         25    2    1    2    0    0  0.29802774920E+01  0.32895008277E+02 -0.46203529557E+02  0.13737906983E+03  0.12508908450E+03 0.  0.
         23    2    1    2    0    0 -0.29802774920E+01 -0.32895008277E+02 -0.10875726114E+03  0.14666574653E+03  0.92691616288E+02 0.  0.
          5    1    3    3  502    0 -0.30562491492E+02 -0.38091444868E+02 -0.28807739517E+02  0.56854043959E+02  0.41800000000E+01 0.  1.
         -5    1    3    3    0  502  0.33542768984E+02  0.70986453146E+02 -0.17395790039E+02  0.80525025876E+02  0.41800000000E+01 0.  1.
        -11    1    4    4    0    0  0.13520630970E+02  0.27572395239E+02 -0.59466489574E+02  0.66927631240E+02  0.00000000000E+00 0.  1.
         11    1    4    4    0    0 -0.16500908462E+02 -0.60467403516E+02 -0.49290771569E+02  0.79738115290E+02  0.00000000000E+00 0. -1.
</event>
<event>
 8    1  0.6380238E-009  0.1100121E+03  0.7561462E-02  0.1260548E+00
         -4   -1    0    0    0  501 -0.00000000000E+00  0.00000000000E+00  0.79189818018E+03  0.79189818018E+03  0.00000000000E+00 0.  1.
          4   -1    0    0  501    0  0.00000000000E+00 -0.00000000000E+00 -0.17773097010E+02  0.17773097010E+02  0.00000000000E+00 0. -1.
         25    2    1    2    0    0 -0.46572569477E+02 -0.25211962063E+02  0.43784973523E+03  0.45843787029E+03  0.12509293752E+03 0.  0.
         23    2    1    2    0    0  0.46572569477E+02  0.25211962063E+02  0.33627534794E+03  0.35123340690E+03  0.86482074625E+02 0.  0.
          5    1    3    3  502    0 -0.82934829433E+02 -0.95448416771E+01  0.19229295393E+03  0.20967437246E+03  0.41800000000E+01 0. -1.
         -5    1    3    3    0  502  0.36362259955E+02 -0.15667120386E+02  0.24555678130E+03  0.24876349783E+03  0.41800000000E+01 0. -1.
        -11    1    4    4    0    0  0.11997665034E+02  0.51696534234E+02  0.13009615273E+03  0.14050439343E+03  0.00000000000E+00 0. -1.
         11    1    4    4    0    0  0.34574904443E+02 -0.26484572171E+02  0.20617919521E+03  0.21072901347E+03  0.00000000000E+00 0.  1.
</event>
<event>
 8    1  0.6380238E-009  0.1221564E+03  0.7561462E-02  0.1239581E+00
         -1   -1    0    0    0  501 -0.00000000000E+00  0.00000000000E+00  0.93184714158E+02  0.93184714158E+02  0.00000000000E+00 0.  1.
          1   -1    0    0  501    0  0.00000000000E+00 -0.00000000000E+00 -0.27326418027E+03  0.27326418027E+03  0.00000000000E+00 0. -1.
         25    2    1    2    0    0  0.57187554894E+02  0.79380780580E+02 -0.23292599033E+02  0.16050428908E+03  0.12508939556E+03 0.  0.
         23    2    1    2    0    0 -0.57187554894E+02 -0.79380780580E+02 -0.15678686708E+03  0.20594460535E+03  0.90880878206E+02 0.  0.
          5    1    3    3  502    0  0.75612896815E+02  0.64047118092E+02  0.28572949595E+02  0.10321448226E+03  0.41800000000E+01 0.  1.
         -5    1    3    3    0  502 -0.18425341921E+02  0.15333662488E+02 -0.51865548628E+02  0.57289806813E+02  0.41800000000E+01 0.  1.
        -11    1    4    4    0    0 -0.21948418590E+02 -0.82549966936E+02 -0.64280394695E+02  0.10690275610E+03  0.00000000000E+00 0.  1.
         11    1    4    4    0    0 -0.35239136304E+02  0.31691863562E+01 -0.92506472382E+02  0.99041849246E+02  0.00000000000E+00 0. -1.
</event>
<event>
 8    1  0.6380238E-009  0.1328535E+03  0.7561462E-02  0.1223282E+00
          1   -1    0    0  501    0  0.00000000000E+00  0.00000000000E+00  0.87905948923E+03  0.87905948923E+03  0.00000000000E+00 0. -1.
         -1   -1    0    0    0  501 -0.00000000000E+00 -0.00000000000E+00 -0.24262809229E+02  0.24262809229E+02  0.00000000000E+00 0.  1.
         25    2    1    2    0    0  0.49368173225E+02 -0.80007797055E+02  0.52774191639E+03  0.55045209106E+03  0.12509000810E+03 0.  0.
         23    2    1    2    0    0 -0.49368173225E+02  0.80007797055E+02  0.32705476362E+03  0.35287020740E+03  0.93349347872E+02 0.  0.
          5    1    3    3  502    0  0.63205919214E+01 -0.10580239129E+03  0.36419998933E+03  0.37933257244E+03  0.41800000000E+01 0. -1.
         -5    1    3    3    0  502  0.43047581303E+02  0.25794594240E+02  0.16354192706E+03  0.17111951862E+03  0.41800000000E+01 0. -1.
        -11    1    4    4    0    0 -0.61796270857E+02  0.69506123275E+02  0.32296987077E+03  0.33609435832E+03  0.00000000000E+00 0. -1.
         11    1    4    4    0    0  0.12428097632E+02  0.10501673780E+02  0.40848928450E+01  0.16775849084E+02  0.00000000000E+00 0.  1.
</event>
<event>
 8    1  0.6380238E-009  0.1185207E+03  0.7561462E-02  0.1245558E+00
          3   -1    0    0  501    0  0.00000000000E+00  0.00000000000E+00  0.81053099763E+02  0.81053099763E+02  0.00000000000E+00 0. -1.
         -3   -1    0    0    0  501 -0.00000000000E+00 -0.00000000000E+00 -0.33190185744E+03  0.33190185744E+03  0.00000000000E+00 0.  1.
         25    2    1    2    0    0  0.89989877872E+02  0.44392702429E+02 -0.46694131846E+02  0.16702197564E+03  0.12508840174E+03 0.  0.
         23    2    1    2    0    0 -0.89989877872E+02 -0.44392702429E+02 -0.20415462583E+03  0.24593298156E+03  0.93461382522E+02 0.  0.
          5    1    3    3  502    0  0.22509464137E+02 -0.18794597355E+02  0.33394096354E+02  0.44637998799E+02  0.41800000000E+01 0. -1.
         -5    1    3    3    0  502  0.67480413734E+02  0.63187299784E+02 -0.80088228200E+02  0.12238397684E+03  0.41800000000E+01 0. -1.
        -11    1    4    4    0    0  0.21391926760E+01 -0.19268491986E+02  0.12382865724E+01  0.19426381092E+02  0.00000000000E+00 0. -1.
         11    1    4    4    0    0 -0.92129070547E+02 -0.25124210443E+02 -0.20539291240E+03  0.22650660047E+03  0.00000000000E+00 0.  1.
</event>
<event>
 8    1  0.6380238E-009  0.7167672E+02  0.7561462E-02  0.1354482E+00
         -1   -1    0    0    0  501 -0.00000000000E+00  0.00000000000E+00  0.88258688255E+02  0.88258688255E+02  0.00000000000E+00 0.  1.
          1   -1    0    0  501    0  0.00000000000E+00 -0.00000000000E+00 -0.15379621152E+03  0.15379621152E+03  0.00000000000E+00 0. -1.
         25    2    1    2    0    0 -0.17648301646E+01  0.41680593683E+02 -0.45654586033E+02  0.13956393588E+03  0.12511340639E+03 0.  0.
         23    2    1    2    0    0  0.17648301646E+01 -0.41680593683E+02 -0.19882937230E+02  0.10249096389E+03  0.91480489563E+02 0.  0.
          5    1    3    3  502    0  0.22353593318E+02  0.58762055695E+02 -0.74830126674E+02  0.97824754443E+02  0.41800000000E+01 0.  1.
         -5    1    3    3    0  502 -0.24118423483E+02 -0.17081462012E+02  0.29175540641E+02  0.41739181442E+02  0.41800000000E+01 0.  1.
        -11    1    4    4    0    0 -0.10608123831E+02 -0.34708833545E+02  0.32192406312E+02  0.48513775790E+02  0.00000000000E+00 0.  1.
         11    1    4    4    0    0  0.12372953995E+02 -0.69717601380E+01 -0.52075343542E+02  0.53977188098E+02  0.00000000000E+00 0. -1.
</event>
<event>
 8    1  0.6380238E-009  0.1461875E+03  0.7561462E-02  0.1205238E+00
          3   -1    0    0  501    0  0.00000000000E+00  0.00000000000E+00  0.56943160752E+03  0.56943160752E+03  0.00000000000E+00 0. -1.
         -3   -1    0    0    0  501 -0.00000000000E+00 -0.00000000000E+00 -0.59787024278E+02  0.59787024278E+02  0.00000000000E+00 0.  1.
         25    2    1    2    0    0  0.93654681695E+02  0.89379552996E+02  0.14323795757E+03  0.23005297580E+03  0.12508938920E+03 0.  0.
         23    2    1    2    0    0 -0.93654681695E+02 -0.89379552996E+02  0.36640662568E+03  0.39916565599E+03  0.91211302415E+02 0.  0.
          5    1    3    3  502    0  0.86815188735E+02  0.43568502467E+02  0.15418136118E+03  0.18227576893E+03  0.41800000000E+01 0.  1.
         -5    1    3    3    0  502  0.68394929598E+01  0.45811050529E+02 -0.10943403613E+02  0.47777206879E+02  0.41800000000E+01 0.  1.
        -11    1    4    4    0    0  0.65994647795E+01 -0.32939591810E+02  0.15380047444E+03  0.15742666731E+03  0.00000000000E+00 0. -1.
         11    1    4    4    0    0 -0.10025414647E+03 -0.56439961186E+02  0.21260615124E+03  0.24173898868E+03  0.00000000000E+00 0.  1.
</event>
<event>
 8    1  0.6380238E-009  0.8599060E+02  0.7561462E-02  0.1312862E+00
          2   -1    0    0  501    0  0.00000000000E+00  0.00000000000E+00  0.12152004864E+03  0.12152004864E+03  0.00000000000E+00 0. -1.
         -2   -1    0    0    0  501 -0.00000000000E+00 -0.00000000000E+00 -0.12572209902E+03  0.12572209902E+03  0.00000000000E+00 0.  1.
         25    2    1    2    0    0  0.29893859009E+01 -0.47469216533E+02 -0.38229211731E+02  0.13918302719E+03  0.12509268357E+03 0.  0.
         23    2    1    2    0    0 -0.29893859009E+01  0.47469216533E+02  0.34027161351E+02  0.10805912047E+03  0.90866181061E+02 0.  0.
          5    1    3    3  502    0  0.19069699527E+02 -0.52213634192E+02 -0.77970627813E+02  0.95847838980E+02  0.41800000000E+01 0.  1.
         -5    1    3    3    0  502 -0.16080313626E+02  0.47444176595E+01  0.39741416081E+02  0.43335188212E+02  0.41800000000E+01 0.  1.
        -11    1    4    4    0    0 -0.44882958448E+02  0.22817106516E+02  0.31486096395E+02  0.59384127298E+02  0.00000000000E+00 0. -1.
         11    1    4    4    0    0  0.41893572547E+02  0.24652110017E+02  0.25410649559E+01  0.48674993170E+02  0.00000000000E+00 0.  1.
</event>
<event>
 8    1  0.6380238E-009  0.3701136E+03  0.7561462E-02  0.1054650E+00
         -2   -1    0    0    0  501 -0.00000000000E+00  0.00000000000E+00  0.20620336753E+03  0.20620336753E+03  0.00000000000E+00 0.  1.
          2   -1    0    0  501    0  0.00000000000E+00 -0.00000000000E+00 -0.68695016611E+03  0.68695016611E+03  0.00000000000E+00 0. -1.
         25    2    1    2    0    0 -0.14678121608E+03  0.32815734740E+03 -0.24844895367E+03  0.45453941917E+03  0.12508889221E+03 0.  0.
         23    2    1    2    0    0  0.14678121608E+03 -0.32815734740E+03 -0.23229784491E+03  0.43861411447E+03  0.95854486685E+02 0.  0.
          5    1    3    3  502    0 -0.31947751609E+02  0.22019193555E+03 -0.15589257457E+03  0.27170777413E+03  0.41800000000E+01 0.  1.
         -5    1    3    3    0  502 -0.11483346447E+03  0.10796541184E+03 -0.92556379101E+02  0.18283164504E+03  0.41800000000E+01 0.  1.
        -11    1    4    4    0    0  0.11152682101E+03 -0.22752851754E+03 -0.21131903808E+03  0.32994422855E+03  0.00000000000E+00 0.  1.
         11    1    4    4    0    0  0.35254395060E+02 -0.10062882986E+03 -0.20978806837E+02  0.10866988592E+03  0.00000000000E+00 0. -1.
</event>
<event>
 8    1  0.6380238E-009  0.1100099E+03  0.7561462E-02  0.1260552E+00
          1   -1    0    0  501    0  0.00000000000E+00  0.00000000000E+00  0.13380860863E+03  0.13380860863E+03  0.00000000000E+00 0. -1.
         -1   -1    0    0    0  501 -0.00000000000E+00 -0.00000000000E+00 -0.14503083362E+03  0.14503083362E+03  0.00000000000E+00 0.  1.
         25    2    1    2    0    0  0.58588990201E+02  0.48872073363E+02  0.36856030518E+02  0.15108393238E+03  0.12508732274E+03 0.  0.
         23    2    1    2    0    0 -0.58588990201E+02 -0.48872073363E+02 -0.48078255514E+02  0.12775550987E+03  0.90492001425E+02 0.  0.
          5    1    3    3  502    0  0.15953945641E+02 -0.19961917917E+02  0.61183051239E+02  0.66436772252E+02  0.41800000000E+01 0.  1.
         -5    1    3    3    0  502  0.42635044560E+02  0.68833991280E+02 -0.24327020721E+02  0.84647160125E+02  0.41800000000E+01 0.  1.
        -11    1    4    4    0    0 -0.64709328678E+02 -0.92700998066E+00 -0.84747454928E+01  0.65268506009E+02  0.00000000000E+00 0.  1.
         11    1    4    4    0    0  0.61203384769E+01 -0.47945063382E+02 -0.39603510022E+02  0.62487003864E+02  0.00000000000E+00 0. -1.
</event>
<event>
 8    1  0.6380238E-009  0.1237700E+03  0.7561462E-02  0.1237004E+00
          1   -1    0    0  501    0  0.00000000000E+00  0.00000000000E+00  0.54253783006E+03  0.54253783006E+03  0.00000000000E+00 0.  1.
         -1   -1    0    0    0  501 -0.00000000000E+00 -0.00000000000E+00 -0.45116552097E+02  0.45116552097E+02  0.00000000000E+00 0. -1.
         25    2    1    2    0    0  0.79879809610E+02 -0.52204338650E+02  0.15662235917E+03  0.22200443308E+03  0.12509727398E+03 0.  0.
         23    2    1    2    0    0 -0.79879809610E+02  0.52204338650E+02  0.34079891880E+03  0.36564994908E+03  0.91923366199E+02 0.  0.
          5    1    3    3  502    0 -0.30853816875E+02 -0.45164912418E+01  0.58806240578E+02  0.66693350792E+02  0.41800000000E+01 0. -1.
         -5    1    3    3    0  502  0.11073362648E+03 -0.47687847409E+02  0.97816118592E+02  0.15531108229E+03  0.41800000000E+01 0. -1.
        -11    1    4    4    0    0 -0.12498584929E+02  0.74494028172E+01 -0.83120962784E+00  0.14573919755E+02  0.00000000000E+00 0. -1.
         11    1    4    4    0    0 -0.67381224680E+02  0.44754935833E+02  0.34163012842E+03  0.35107602933E+03  0.00000000000E+00 0.  1.
</event>
<event>
 8    1  0.6380238E-009  0.1019492E+03  0.7561462E-02  0.1276250E+00
         -1   -1    0    0    0  501 -0.00000000000E+00  0.00000000000E+00  0.27817190802E+02  0.27817190802E+02  0.00000000000E+00 0.  1.
          1   -1    0    0  501    0  0.00000000000E+00 -0.00000000000E+00 -0.54562372980E+03  0.54562372980E+03  0.00000000000E+00 0. -1.
         25    2    1    2    0    0 -0.25064126159E+02  0.31296701714E+01 -0.14633729275E+03  0.19416491833E+03  0.12508959592E+03 0.  0.
         23    2    1    2    0    0  0.25064126159E+02 -0.31296701714E+01 -0.37146924625E+03  0.37927600226E+03  0.72269493775E+02 0.  0.
          5    1    3    3  502    0  0.12432765369E+01  0.62311692755E+02 -0.65704371288E+02  0.90657760820E+02  0.41800000000E+01 0.  1.
         -5    1    3    3    0  502 -0.26307402696E+02 -0.59182022584E+02 -0.80632921459E+02  0.10350715751E+03  0.41800000000E+01 0.  1.
        -11    1    4    4    0    0  0.20761809199E+02 -0.36980846528E+02 -0.21041487556E+03  0.21464635005E+03  0.00000000000E+00 0.  1.
         11    1    4    4    0    0  0.43023169603E+01  0.33851176357E+02 -0.16105437069E+03  0.16462965222E+03  0.00000000000E+00 0. -1.
</event>
<event>
 8    1  0.6380238E-009  0.1212662E+03  0.7561462E-02  0.1241023E+00
         -1   -1    0    0    0  501 -0.00000000000E+00  0.00000000000E+00  0.33817705250E+03  0.33817705250E+03  0.00000000000E+00 0.  1.
          1   -1    0    0  501    0  0.00000000000E+00 -0.00000000000E+00 -0.54853267499E+02  0.54853267499E+02  0.00000000000E+00 0. -1.
         25    2    1    2    0    0 -0.25475638138E+02  0.69506346161E+02  0.20722274953E+03  0.25311704616E+03  0.12508729286E+03 0.  0.
         23    2    1    2    0    0  0.25475638138E+02 -0.69506346161E+02  0.76101035466E+02  0.13991327384E+03  0.91127472818E+02 0.  0.
          5    1    3    3  502    0 -0.65827775892E+02  0.36072745326E+02  0.58143216671E+02  0.95040228741E+02  0.41800000000E+01 0. -1.
         -5    1    3    3    0  502  0.40352137754E+02  0.33433600835E+02  0.14907953286E+03  0.15807681741E+03  0.41800000000E+01 0. -1.
        -11    1    4    4    0    0 -0.32449450927E+02 -0.33177980091E+02  0.45538115659E+02  0.65018960359E+02  0.00000000000E+00 0.  1.
         11    1    4    4    0    0  0.57925089065E+02 -0.36328366070E+02  0.30562919807E+02  0.74894313481E+02  0.00000000000E+00 0. -1.
</event>
<event>
 8    1  0.6380238E-009  0.1381073E+03  0.7561462E-02  0.1215899E+00
          2   -1    0    0  501    0  0.00000000000E+00  0.00000000000E+00  0.38292998491E+03  0.38292998491E+03  0.00000000000E+00 0. -1.
         -2   -1    0    0    0  501 -0.00000000000E+00 -0.00000000000E+00 -0.60046535737E+02  0.60046535737E+02  0.00000000000E+00 0.  1.
         25    2    1    2    0    0  0.45521511027E+02 -0.89354173415E+02  0.12490587481E+03  0.20323756644E+03  0.12509058548E+03 0.  0.
         23    2    1    2    0    0 -0.45521511027E+02  0.89354173415E+02  0.19797757437E+03  0.23973895421E+03  0.90682247123E+02 0.  0.
          5    1    3    3  502    0 -0.16704124517E+02  0.15160511903E+02  0.62261559897E+02  0.66353923304E+02  0.41800000000E+01 0. -1.
         -5    1    3    3    0  502  0.62225635544E+02 -0.10451468532E+03  0.62644314913E+02  0.13688364313E+03  0.41800000000E+01 0. -1.
        -11    1    4    4    0    0  0.25226082937E+02  0.30163851157E+02  0.86699963373E+02  0.95200298455E+02  0.00000000000E+00 0. -1.
         11    1    4    4    0    0 -0.70747593964E+02  0.59190322258E+02  0.11127761099E+03  0.14453865576E+03  0.00000000000E+00 0.  1.
</event>
<event>
 8    1  0.6380238E-009  0.1406734E+03  0.7561462E-02  0.1212426E+00
         -2   -1    0    0    0  501 -0.00000000000E+00  0.00000000000E+00  0.12760229743E+02  0.12760229743E+02  0.00000000000E+00 0.  1.
          2   -1    0    0  501    0  0.00000000000E+00 -0.00000000000E+00 -0.15649575288E+04  0.15649575288E+04  0.00000000000E+00 0. -1.
         25    2    1    2    0    0 -0.78776378872E+02  0.37882876226E+02 -0.85823884716E+03  0.87170035611E+03  0.12508701727E+03 0.  0.
         23    2    1    2    0    0  0.78776378872E+02 -0.37882876226E+02 -0.69395845195E+03  0.70601740248E+03  0.96132249526E+02 0.  0.
          5    1    3    3  502    0  0.33428629207E+02  0.15680148295E+02 -0.17050227755E+03  0.17450455396E+03  0.41800000000E+01 0. -1.
         -5    1    3    3    0  502 -0.11220500808E+03  0.22202727932E+02 -0.68773656960E+03  0.69719580215E+03  0.41800000000E+01 0. -1.
        -11    1    4    4    0    0  0.62051034013E+02  0.23316225920E+02 -0.37419299891E+03  0.38001891748E+03  0.00000000000E+00 0.  1.
         11    1    4    4    0    0  0.16725344859E+02 -0.61199102146E+02 -0.31976545304E+03  0.32599848500E+03  0.00000000000E+00 0. -1.
</event>
<event>
 8    1  0.6380238E-009  0.7623520E+02  0.7561462E-02  0.1340088E+00
         -2   -1    0    0    0  501 -0.00000000000E+00  0.00000000000E+00  0.18735793934E+03  0.18735793934E+03  0.00000000000E+00 0.  1.
          2   -1    0    0  501    0  0.00000000000E+00 -0.00000000000E+00 -0.64893412206E+02  0.64893412206E+02  0.00000000000E+00 0. -1.
         25    2    1    2    0    0 -0.20056254531E+02 -0.52650714786E+01  0.72404040927E+02  0.14600894204E+03  0.12508513777E+03 0.  0.
         23    2    1    2    0    0  0.20056254531E+02  0.52650714786E+01  0.50060486206E+02  0.10624240950E+03  0.91386120251E+02 0.  0.
          5    1    3    3  502    0 -0.57654605532E+02 -0.20569504379E+02 -0.17345981275E+01  0.61381098720E+02  0.41800000000E+01 0.  1.
         -5    1    3    3    0  502  0.37598351000E+02  0.15304432901E+02  0.74138639055E+02  0.84627843321E+02  0.41800000000E+01 0.  1.
        -11    1    4    4    0    0  0.14836132885E+02  0.25448709373E+02  0.70893274850E+02  0.76769812210E+02  0.00000000000E+00 0.  1.
         11    1    4    4    0    0  0.52201216460E+01 -0.20183637894E+02 -0.20832788644E+02  0.29472597295E+02  0.00000000000E+00 0. -1.
</event>
<event>
 8    1  0.6380238E-009  0.8185523E+02  0.7561462E-02  0.1323868E+00
          3   -1    0    0  501    0  0.00000000000E+00  0.00000000000E+00  0.33652184297E+03  0.33652184297E+03  0.00000000000E+00 0. -1.
         -3   -1    0    0    0  501 -0.00000000000E+00 -0.00000000000E+00 -0.45946698343E+02  0.45946698343E+02  0.00000000000E+00 0.  1.
         25    2    1    2    0    0 -0.46518555717E+02  0.31361000499E+02  0.19687528012E+03  0.23990618566E+03  0.12509042176E+03 0.  0.
         23    2    1    2    0    0  0.46518555717E+02 -0.31361000499E+02  0.93699864499E+02  0.14256235565E+03  0.91634449102E+02 0.  0.
          5    1    3    3  502    0 -0.14539225377E+02  0.61569695049E+02  0.35653985359E+02  0.72738542019E+02  0.41800000000E+01 0. -1.
         -5    1    3    3    0  502 -0.31979330340E+02 -0.30208694550E+02  0.16122129476E+03  0.16716764364E+03  0.41800000000E+01 0. -1.
        -11    1    4    4    0    0  0.26172386187E+02 -0.16806351895E+02 -0.12451189558E+02  0.33503423469E+02  0.00000000000E+00 0.  1.
         11    1    4    4    0    0  0.20346169530E+02 -0.14554648604E+02  0.10615105406E+03  0.10905893218E+03  0.00000000000E+00 0. -1.
</event>
<event>
 8    1  0.6380238E-009  0.1107622E+03  0.7561462E-02  0.1259165E+00
          2   -1    0    0  501    0  0.00000000000E+00  0.00000000000E+00  0.85196557665E+02  0.85196557665E+02  0.00000000000E+00 0. -1.
         -2   -1    0    0    0  501 -0.00000000000E+00 -0.00000000000E+00 -0.15536533512E+03  0.15536533512E+03  0.00000000000E+00 0.  1.
         25    2    1    2    0    0 -0.81584555742E+01  0.28884789569E+02 -0.15228415393E+02  0.12953890668E+03  0.12509009650E+03 0.  0.
         23    2    1    2    0    0  0.81584555742E+01 -0.28884789569E+02 -0.54940362060E+02  0.11102298610E+03  0.91688432173E+02 0.  0.
          5    1    3    3  502    0 -0.64881961596E+02  0.21376570552E+02 -0.21714619088E+02  0.71802672592E+02  0.41800000000E+01 0. -1.
         -5    1    3    3    0  502  0.56723506022E+02  0.75082190173E+01  0.64862036954E+01  0.57736234088E+02  0.41800000000E+01 0. -1.
        -11    1    4    4    0    0  0.22719972593E+02 -0.58475154893E+02 -0.42503969378E+02  0.75776832259E+02  0.00000000000E+00 0.  1.
         11    1    4    4    0    0 -0.14561517019E+02  0.29590365324E+02 -0.12436392682E+02  0.35246153845E+02  0.00000000000E+00 0. -1.
</event>
<event>
 8    1  0.6380238E-009  0.9732277E+02  0.7561462E-02  0.1286029E+00
         -1   -1    0    0    0  501 -0.00000000000E+00  0.00000000000E+00  0.12017639407E+03  0.12017639407E+03  0.00000000000E+00 0.  1.
          1   -1    0    0  501    0  0.00000000000E+00 -0.00000000000E+00 -0.12619730419E+03  0.12619730419E+03  0.00000000000E+00 0. -1.
         25    2    1    2    0    0 -0.33788372488E+02 -0.38844038136E+02 -0.26010295379E+02  0.13775354783E+03  0.12509592744E+03 0.  0.
         23    2    1    2    0    0  0.33788372488E+02  0.38844038136E+02  0.19989385263E+02  0.10862015043E+03  0.93532070122E+02 0.  0.
          5    1    3    3  502    0 -0.40237629141E+02  0.14280359084E+02 -0.60340485633E+02  0.74036761551E+02  0.41800000000E+01 0. -1.
         -5    1    3    3    0  502  0.64492566531E+01 -0.53124397220E+02  0.34330190254E+02  0.63716786283E+02  0.41800000000E+01 0. -1.
        -11    1    4    4    0    0  0.31074791254E+02  0.64854989404E+02 -0.54686804760E+01  0.72122942037E+02  0.00000000000E+00 0. -1.
         11    1    4    4    0    0  0.27135812345E+01 -0.26010951268E+02  0.25458065739E+02  0.36497208388E+02  0.00000000000E+00 0.  1.
</event>
<event>
 8    1  0.6380238E-009  0.7454663E+02  0.7561462E-02  0.1345281E+00
         -1   -1    0    0    0  501 -0.00000000000E+00  0.00000000000E+00  0.18203389098E+03  0.18203389098E+03  0.00000000000E+00 0.  1.
          1   -1    0    0  501    0  0.00000000000E+00 -0.00000000000E+00 -0.55846425484E+02  0.55846425484E+02  0.00000000000E+00 0. -1.
         25    2    1    2    0    0 -0.65824990415E+01  0.18716994408E+02  0.93943903743E+02  0.15769312784E+03  0.12509200751E+03 0.  0.
         23    2    1    2    0    0  0.65824990415E+01 -0.18716994408E+02  0.32243561749E+02  0.80187188621E+02  0.70687217878E+02 0.  0.
          5    1    3    3  502    0  0.33453596382E+02  0.74657559794E+01 -0.17469313393E+02  0.38697931904E+02  0.41800000000E+01 0.  1.
         -5    1    3    3    0  502 -0.40036095424E+02  0.11251238429E+02  0.11141321714E+03  0.11899519593E+03  0.41800000000E+01 0.  1.
        -11    1    4    4    0    0 -0.10750219902E+02  0.24200564715E+02  0.16948040261E+02  0.31439952754E+02  0.00000000000E+00 0. -1.
         11    1    4    4    0    0  0.17332718944E+02 -0.42917559123E+02  0.15295521488E+02  0.48747235867E+02  0.00000000000E+00 0.  1.
</event>
<event>
 8    1  0.6380238E-009  0.1329328E+03  0.7561462E-02  0.1223168E+00
          2   -1    0    0  501    0  0.00000000000E+00  0.00000000000E+00  0.34647374592E+03  0.34647374592E+03  0.00000000000E+00 0. -1.
         -2   -1    0    0    0  501 -0.00000000000E+00 -0.00000000000E+00 -0.85567657090E+02  0.85567657090E+02  0.00000000000E+00 0.  1.
         25    2    1    2    0    0 -0.58159278238E+02 -0.95508129490E+02  0.22977622237E+03  0.28451291911E+03  0.12508470862E+03 0.  0.
         23    2    1    2    0    0  0.58159278238E+02  0.95508129490E+02  0.31129866465E+02  0.14752848391E+03  0.91056468927E+02 0.  0.
          5    1    3    3  502    0  0.10457230443E+02 -0.55547390457E+02  0.19884334604E+02  0.60064343980E+02  0.41800000000E+01 0. -1.
         -5    1    3    3    0  502 -0.68616508681E+02 -0.39960739033E+02  0.20989188777E+03  0.22444857513E+03  0.41800000000E+01 0. -1.
        -11    1    4    4    0    0  0.46900215555E+02  0.10496717758E+03  0.48491277451E+02  0.12477637027E+03  0.00000000000E+00 0. -1.
         11    1    4    4    0    0  0.11259062683E+02 -0.94590480950E+01 -0.17361410986E+02  0.22752113634E+02  0.00000000000E+00 0.  1.
</event>
<event>
 8    1  0.6380238E-009  0.1010064E+03  0.7561462E-02  0.1278194E+00
          3   -1    0    0  501    0  0.00000000000E+00  0.00000000000E+00  0.13799583304E+03  0.13799583304E+03  0.00000000000E+00 0. -1.
         -3   -1    0    0    0  501 -0.00000000000E+00 -0.00000000000E+00 -0.14439001864E+03  0.14439001864E+03  0.00000000000E+00 0.  1.
         25    2    1    2    0    0  0.36383608684E+02  0.49156330789E+02  0.64068317335E+02  0.15327547771E+03  0.12509400842E+03 0.  0.
         23    2    1    2    0    0 -0.36383608684E+02 -0.49156330789E+02 -0.70462502939E+02  0.12911037398E+03  0.89243557252E+02 0.  0.
          5    1    3    3  502    0 -0.32397017120E+02  0.47952717019E+01  0.63216739034E+02  0.71318930468E+02  0.41800000000E+01 0.  1.
         -5    1    3    3    0  502  0.68780625804E+02  0.44361059087E+02  0.85157830032E+00  0.81956547237E+02  0.41800000000E+01 0.  1.
        -11    1    4    4    0    0  0.16467836371E+02 -0.22413337500E+02  0.96848046810E+01  0.29450683767E+02  0.00000000000E+00 0. -1.
         11    1    4    4    0    0 -0.52851445055E+02 -0.26742993288E+02 -0.80147307620E+02  0.99659690212E+02  0.00000000000E+00 0.  1.
</event>
<event>
 8    1  0.6380238E-009  0.1133361E+03  0.7561462E-02  0.1254514E+00
          1   -1    0    0  501    0  0.00000000000E+00  0.00000000000E+00  0.17931206595E+03  0.17931206595E+03  0.00000000000E+00 0. -1.
         -1   -1    0    0    0  501 -0.00000000000E+00 -0.00000000000E+00 -0.87198803683E+02  0.87198803683E+02  0.00000000000E+00 0.  1.
         25    2    1    2    0    0 -0.54972382532E+02  0.23585814582E+02  0.64772073386E+02  0.15303588699E+03  0.12508520187E+03 0.  0.
         23    2    1    2    0    0  0.54972382532E+02 -0.23585814582E+02  0.27341188883E+02  0.11347498264E+03  0.92470414649E+02 0.  0.
          5    1    3    3  502    0  0.24731369208E+02 -0.15853340890E+02 -0.15223151090E+02  0.33349449311E+02  0.41800000000E+01 0. -1.
         -5    1    3    3    0  502 -0.79703751740E+02  0.39439155472E+02  0.79995224476E+02  0.11968643768E+03  0.41800000000E+01 0. -1.
        -11    1    4    4    0    0  0.13608222873E+01 -0.48736944197E+02  0.12714620957E+01  0.48772514625E+02  0.00000000000E+00 0. -1.
         11    1    4    4    0    0  0.53611560245E+02  0.25151129615E+02  0.26069726788E+02  0.64702468018E+02  0.00000000000E+00 0.  1.
</event>
<event>
 8    1  0.6380238E-009  0.7723103E+02  0.7561462E-02  0.1337098E+00
          2   -1    0    0  501    0  0.00000000000E+00  0.00000000000E+00  0.74726101709E+03  0.74726101709E+03  0.00000000000E+00 0. -1.
         -2   -1    0    0    0  501 -0.00000000000E+00 -0.00000000000E+00 -0.21645805568E+02  0.21645805568E+02  0.00000000000E+00 0.  1.
         25    2    1    2    0    0  0.10097520668E+02  0.50263995931E+02  0.53780071255E+03  0.55453393562E+03  0.12509936103E+03 0.  0.
         23    2    1    2    0    0 -0.10097520668E+02 -0.50263995931E+02  0.18781449898E+03  0.21437288704E+03  0.89738617443E+02 0.  0.
          5    1    3    3  502    0  0.35804061169E+01  0.38532478627E+02  0.53902140211E+03  0.54042493979E+03  0.41800000000E+01 0.  1.
         -5    1    3    3    0  502  0.65171145511E+01  0.11731517304E+02 -0.12206895629E+01  0.14108995830E+02  0.41800000000E+01 0.  1.
        -11    1    4    4    0    0 -0.15428163420E+02  0.23180145976E+02  0.34861425953E+02  0.44616884847E+02  0.00000000000E+00 0. -1.
         11    1    4    4    0    0  0.53306427518E+01 -0.73444141906E+02  0.15295307303E+03  0.16975600219E+03  0.00000000000E+00 0.  1.
</event>
<event>
 8    1  0.6380238E-009  0.1543892E+03  0.7561462E-02  0.1195181E+00
         -1   -1    0    0    0  501 -0.00000000000E+00  0.00000000000E+00  0.10357987006E+03  0.10357987006E+03  0.00000000000E+00 0.  1.
          1   -1    0    0  501    0  0.00000000000E+00 -0.00000000000E+00 -0.29747693770E+03  0.29747693770E+03  0.00000000000E+00 0. -1.
         25    2    1    2    0    0 -0.34190420721E+02 -0.12574841050E+03 -0.52626600161E+02  0.18814374329E+03  0.12508741538E+03 0.  0.
         23    2    1    2    0    0  0.34190420721E+02  0.12574841050E+03 -0.14127046748E+03  0.21291306447E+03  0.91613210988E+02 0.  0.
          5    1    3    3  502    0 -0.41272840563E+02 -0.16851690633E+01 -0.48356821494E+02  0.63734933497E+02  0.41800000000E+01 0.  1.
         -5    1    3    3    0  502  0.70824198424E+01 -0.12406324143E+03 -0.42697786670E+01  0.12440880980E+03  0.41800000000E+01 0.  1.
        -11    1    4    4    0    0  0.47054351794E+02  0.61689167687E+02 -0.12237501764E+03  0.14489758581E+03  0.00000000000E+00 0. -1.
         11    1    4    4    0    0 -0.12863931074E+02  0.64059242808E+02 -0.18895449845E+02  0.68015478655E+02  0.00000000000E+00 0.  1.
</event>
<event>
 7    1  0.6380238E-009  0.1525554E+03  0.7561462E-02  0.1197368E+00
         -2   -1    0    0    0  501 -0.00000000000E+00  0.00000000000E+00  0.23797842602E+02  0.23797842602E+02  0.00000000000E+00 0. -1.
          2   -1    0    0  501    0  0.00000000000E+00 -0.00000000000E+00 -0.11269351262E+04  0.11269351262E+04  0.00000000000E+00 0.  1.
         23    2    1    2    0    0 -0.12056731929E+03 -0.16081478010E+02 -0.47793753955E+03  0.50166360793E+03  0.91907515444E+02 0.  0.
          5    1    1    2  502    0  0.25990875867E+02  0.48677050958E+02 -0.98893911784E+02  0.11332457415E+03  0.41800000000E+01 0. -1.
         -5    1    1    2    0  502  0.94576443420E+02 -0.32595572948E+02 -0.52630583230E+03  0.53574478676E+03  0.41800000000E+01 0. -1.
        -11    1    3    3    0    0 -0.44933673103E+02  0.36201773692E+02 -0.23295445918E+03  0.23999454879E+03  0.00000000000E+00 0. -1.
         11    1    3    3    0    0 -0.75633646184E+02 -0.52283251702E+02 -0.24498308037E+03  0.26166905914E+03  0.00000000000E+00 0.  1.
</event>
<event>
 8    1  0.6380238E-009  0.1081700E+03  0.7561462E-02  0.1263997E+00
          1   -1    0    0  501    0  0.00000000000E+00  0.00000000000E+00  0.15412052362E+03  0.15412052362E+03  0.00000000000E+00 0. -1.
         -1   -1    0    0    0  501 -0.00000000000E+00 -0.00000000000E+00 -0.16428808461E+03  0.16428808461E+03  0.00000000000E+00 0.  1.
         25    2    1    2    0    0  0.67466674689E+02 -0.93859727041E+01 -0.99886219220E+02  0.17396362812E+03  0.12508492492E+03 0.  0.
         23    2    1    2    0    0 -0.67466674689E+02  0.93859727041E+01  0.89718658235E+02  0.14444498010E+03  0.90416071385E+02 0.  0.
          5    1    3    3  502    0  0.76364185666E+02  0.26401996709E+02 -0.16334628809E+02  0.82539970808E+02  0.41800000000E+01 0.  1.
         -5    1    3    3    0  502 -0.88975109763E+01 -0.35787969413E+02 -0.83551590411E+02  0.91423657313E+02  0.41800000000E+01 0.  1.
        -11    1    4    4    0    0 -0.82432399604E+02  0.11405071263E+02  0.39711254429E+02  0.92207157441E+02  0.00000000000E+00 0.  1.
         11    1    4    4    0    0  0.14965724915E+02 -0.20190985593E+01  0.50007403806E+02  0.52237822664E+02  0.00000000000E+00 0. -1.
</event>
<event>
 8    1  0.6380238E-009  0.9270656E+02  0.7561462E-02  0.1296427E+00
         -1   -1    0    0    0  501 -0.00000000000E+00  0.00000000000E+00  0.41415786795E+03  0.41415786795E+03  0.00000000000E+00 0.  1.
          1   -1    0    0  501    0  0.00000000000E+00 -0.00000000000E+00 -0.31846703571E+02  0.31846703571E+02  0.00000000000E+00 0. -1.
         25    2    1    2    0    0  0.13088180443E+02 -0.43095915932E+02  0.30638754403E+03  0.33398500529E+03  0.12507636943E+03 0.  0.
         23    2    1    2    0    0 -0.13088180443E+02  0.43095915932E+02  0.75923620352E+02  0.11201956622E+03  0.68959616097E+02 0.  0.
          5    1    3    3  502    0  0.43962834787E+01 -0.80735329204E+02  0.26554154807E+03  0.27760999053E+03  0.41800000000E+01 0. -1.
         -5    1    3    3    0  502  0.86918969644E+01  0.37639413272E+02  0.40845995958E+02  0.56375014768E+02  0.41800000000E+01 0. -1.
        -11    1    4    4    0    0 -0.12141398560E+02 -0.79677152435E+01 -0.58098756736E+01  0.15641377834E+02  0.00000000000E+00 0. -1.
         11    1    4    4    0    0 -0.94678188296E+00  0.51063631176E+02  0.81733496025E+02  0.96378188390E+02  0.00000000000E+00 0.  1.
</event>
<event>
 8    1  0.6380238E-009  0.1479213E+03  0.7561462E-02  0.1203051E+00
          2   -1    0    0  501    0  0.00000000000E+00  0.00000000000E+00  0.55537754692E+03  0.55537754692E+03  0.00000000000E+00 0.  1.
         -2   -1    0    0    0  501 -0.00000000000E+00 -0.00000000000E+00 -0.59104285942E+02  0.59104285942E+02  0.00000000000E+00 0. -1.
         25    2    1    2    0    0 -0.59101033802E+02 -0.13161719018E+03  0.27947207844E+03  0.33848076683E+03  0.12509424423E+03 0.  0.
         23    2    1    2    0    0  0.59101033802E+02  0.13161719018E+03  0.21680118254E+03  0.27600106603E+03  0.91421106721E+02 0.  0.
          5    1    3    3  502    0  0.57848619066E+01 -0.14518085917E+02 -0.10350311188E+02  0.19205228133E+02  0.41800000000E+01 0. -1.
         -5    1    3    3    0  502 -0.64885895708E+02 -0.11709910426E+03  0.28982238963E+03  0.31927553870E+03  0.41800000000E+01 0. -1.
        -11    1    4    4    0    0  0.13960582135E+02  0.55507002956E+02  0.16224656619E+03  0.17204613762E+03  0.00000000000E+00 0.  1.
         11    1    4    4    0    0  0.45140451666E+02  0.76110187222E+02  0.54554616350E+02  0.10395492841E+03  0.00000000000E+00 0. -1.
</event>
<event>
 8    1  0.6380238E-009  0.1341419E+03  0.7561462E-02  0.1221436E+00
         -1   -1    0    0    0  501 -0.00000000000E+00  0.00000000000E+00  0.58858122481E+02  0.58858122481E+02  0.00000000000E+00 0.  1.
          1   -1    0    0  501    0  0.00000000000E+00 -0.00000000000E+00 -0.36708050638E+03  0.36708050638E+03  0.00000000000E+00 0. -1.
         25    2    1    2    0    0  0.32400386035E+02  0.93652952898E+02 -0.16573954598E+03  0.23008757390E+03  0.12510009577E+03 0.  0.
         23    2    1    2    0    0 -0.32400386035E+02 -0.93652952898E+02 -0.14248283792E+03  0.19585105496E+03  0.90750294903E+02 0.  0.
          5    1    3    3  502    0 -0.37209621502E+02  0.52320597427E+02 -0.27792017189E+02  0.70084730626E+02  0.41800000000E+01 0. -1.
         -5    1    3    3    0  502  0.69610007537E+02  0.41332355471E+02 -0.13794752879E+03  0.16000284328E+03  0.41800000000E+01 0. -1.
        -11    1    4    4    0    0 -0.49004783688E+02 -0.30819407805E+02 -0.28228965095E+02  0.64406359873E+02  0.00000000000E+00 0.  1.
         11    1    4    4    0    0  0.16604397654E+02 -0.62833545093E+02 -0.11425387283E+03  0.13144469509E+03  0.00000000000E+00 0. -1.
</event>
<event>
 8    1  0.6380238E-009  0.2460920E+03  0.7561462E-02  0.1115800E+00
          2   -1    0    0  501    0  0.00000000000E+00  0.00000000000E+00  0.81746959721E+03  0.81746959721E+03  0.00000000000E+00 0.  1.
         -2   -1    0    0    0  501 -0.00000000000E+00 -0.00000000000E+00 -0.82229183059E+02  0.82229183059E+02  0.00000000000E+00 0. -1.
         25    2    1    2    0    0  0.18272347814E+03  0.14750791917E+03  0.35873007961E+03  0.44663209238E+03  0.12508597142E+03 0.  0.
         23    2    1    2    0    0 -0.18272347814E+03 -0.14750791917E+03  0.37651033454E+03  0.45306668789E+03  0.91449089523E+02 0.  0.
          5    1    3    3  502    0  0.19043659464E+03  0.11398225403E+03  0.34302498668E+03  0.40858495408E+03  0.41800000000E+01 0.  1.
         -5    1    3    3    0  502 -0.77131164979E+01  0.33525665140E+02  0.15705092930E+02  0.38047138305E+02  0.41800000000E+01 0.  1.
        -11    1    4    4    0    0 -0.55069781951E+02 -0.33939263861E+02  0.41087702112E+02  0.76633894462E+02  0.00000000000E+00 0. -1.
         11    1    4    4    0    0 -0.12765369619E+03 -0.11356865531E+03  0.33542263243E+03  0.37643279343E+03  0.00000000000E+00 0.  1.
</event>
<event>
 8    1  0.6380238E-009  0.1382699E+03  0.7561462E-02  0.1215676E+00
         -2   -1    0    0    0  501 -0.00000000000E+00  0.00000000000E+00  0.10892352911E+03  0.10892352911E+03  0.00000000000E+00 0.  1.
          2   -1    0    0  501    0  0.00000000000E+00 -0.00000000000E+00 -0.19725362861E+03  0.19725362861E+03  0.00000000000E+00 0. -1.
         25    2    1    2    0    0  0.85993062428E+02 -0.44353003790E+02 -0.31651771533E+02  0.16127916387E+03  0.12508852197E+03 0.  0.
         23    2    1    2    0    0 -0.85993062428E+02  0.44353003790E+02 -0.56678327974E+02  0.14489799385E+03  0.91766006931E+02 0.  0.
          5    1    3    3  502    0  0.43076373641E+02  0.37376945521E+02 -0.37991866677E+02  0.68654674686E+02  0.41800000000E+01 0.  1.
         -5    1    3    3    0  502  0.42916688786E+02 -0.81729949311E+02  0.63400951447E+01  0.92624489188E+02  0.41800000000E+01 0.  1.
        -11    1    4    4    0    0 -0.10121703365E+03  0.28915012841E+02 -0.62533642381E+02  0.12243946381E+03  0.00000000000E+00 0.  1.
         11    1    4    4    0    0  0.15223971227E+02  0.15437990949E+02  0.58553144068E+01  0.22458530034E+02  0.00000000000E+00 0. -1.
</event>
<event>
 8    1  0.6380238E-009  0.1010557E+03  0.7561462E-02  0.1278091E+00
         -1   -1    0    0    0  501 -0.00000000000E+00  0.00000000000E+00  0.67347054117E+02  0.67347054117E+02  0.00000000000E+00 0.  1.
          1   -1    0    0  501    0  0.00000000000E+00 -0.00000000000E+00 -0.34637867413E+03  0.34637867413E+03  0.00000000000E+00 0. -1.
         25    2    1    2    0    0  0.32686335907E+02  0.43880309838E+02 -0.25124575439E+02  0.13881163797E+03  0.12507417159E+03 0.  0.
         23    2    1    2    0    0 -0.32686335907E+02 -0.43880309838E+02 -0.25390704458E+03  0.27491409028E+03  0.90083803210E+02 0.  0.
          5    1    3    3  502    0 -0.13545819226E+02  0.58683856865E+02 -0.54990920175E+02  0.81662463695E+02  0.41800000000E+01 0.  1.
         -5    1    3    3    0  502  0.46232155133E+02 -0.14803547026E+02  0.29866344735E+02  0.57149174278E+02  0.41800000000E+01 0.  1.
        -11    1    4    4    0    0 -0.49844175416E+02 -0.44844299533E+01 -0.69974775586E+02  0.86029187798E+02  0.00000000000E+00 0.  1.
         11    1    4    4    0    0  0.17157839509E+02 -0.39395879885E+02 -0.18393226899E+03  0.18888490248E+03  0.00000000000E+00 0. -1.
</event>
<event>
 8    1  0.6380238E-009  0.7965321E+02  0.7561462E-02  0.1330038E+00
         -1   -1    0    0    0  501 -0.00000000000E+00  0.00000000000E+00  0.12973067137E+03  0.12973067137E+03  0.00000000000E+00 0.  1.
          1   -1    0    0  501    0  0.00000000000E+00 -0.00000000000E+00 -0.11132016325E+03  0.11132016325E+03  0.00000000000E+00 0. -1.
         25    2    1    2    0    0  0.17838072550E+02 -0.42089117122E+02 -0.11882649104E+02  0.13371192389E+03  0.12509192871E+03 0.  0.
         23    2    1    2    0    0 -0.17838072550E+02  0.42089117122E+02  0.30293157223E+02  0.10733891073E+03  0.92272833329E+02 0.  0.
          5    1    3    3  502    0  0.27705948733E+02 -0.61171153588E+02  0.39388992631E+02  0.77964702058E+02  0.41800000000E+01 0.  1.
         -5    1    3    3    0  502 -0.98678761830E+01  0.19082036466E+02 -0.51271641735E+02  0.55747221834E+02  0.41800000000E+01 0.  1.
        -11    1    4    4    0    0 -0.23798404222E+02 -0.35935116338E+01 -0.25445847310E+02  0.35025255384E+02  0.00000000000E+00 0. -1.
         11    1    4    4    0    0  0.59603316720E+01  0.45682628756E+02  0.55739004533E+02  0.72313655349E+02  0.00000000000E+00 0.  1.
</event>
<event>
 8    1  0.6380238E-009  0.1912315E+03  0.7561462E-02  0.1157355E+00
          1   -1    0    0  501    0  0.00000000000E+00  0.00000000000E+00  0.83737359789E+03  0.83737359789E+03  0.00000000000E+00 0. -1.
         -1   -1    0    0    0  501 -0.00000000000E+00 -0.00000000000E+00 -0.58212364781E+02  0.58212364781E+02  0.00000000000E+00 0.  1.
         25    2    1    2    0    0  0.17446058457E+03 -0.77225351194E+02  0.42301025429E+03  0.48060968115E+03  0.12509092673E+03 0.  0.
         23    2    1    2    0    0 -0.17446058457E+03  0.77225351194E+02  0.35615097882E+03  0.41497628152E+03  0.94665432300E+02 0.  0.
          5    1    3    3  502    0  0.42206567265E+02 -0.12966682969E+02  0.24825914499E+03  0.25218962044E+03  0.41800000000E+01 0. -1.
         -5    1    3    3    0  502  0.13225401730E+03 -0.64258668225E+02  0.17475110930E+03  0.22842006071E+03  0.41800000000E+01 0. -1.
        -11    1    4    4    0    0 -0.82297058527E+02  0.41502168965E+02  0.81336721610E+02  0.12292639323E+03  0.00000000000E+00 0.  1.
         11    1    4    4    0    0 -0.92163526040E+02  0.35723182229E+02  0.27481425721E+03  0.29204988828E+03  0.00000000000E+00 0. -1.
</event>
<event>
 8    1  0.6380238E-009  0.1032877E+03  0.7561462E-02  0.1273530E+00
         -3   -1    0    0    0  501 -0.00000000000E+00  0.00000000000E+00  0.22846627632E+03  0.22846627632E+03  0.00000000000E+00 0.  1.
          3   -1    0    0  501    0  0.00000000000E+00 -0.00000000000E+00 -0.64148934783E+02  0.64148934783E+02  0.00000000000E+00 0. -1.
         25    2    1    2    0    0  0.25703947552E+02 -0.12532325723E+02  0.15058161155E+03  0.19783270321E+03  0.12508079235E+03 0.  0.
         23    2    1    2    0    0 -0.25703947552E+02  0.12532325723E+02  0.13735729983E+02  0.94782507887E+02  0.89315740021E+02 0.  0.
          5    1    3    3  502    0 -0.38343428940E+02  0.17956824420E+02  0.10530897652E+03  0.11357869088E+03  0.41800000000E+01 0.  1.
         -5    1    3    3    0  502  0.64047376492E+02 -0.30489150143E+02  0.45272635036E+02  0.84254012338E+02  0.41800000000E+01 0.  1.
        -11    1    4    4    0    0  0.28740368422E+02 -0.14495145049E+02 -0.11251440140E+01  0.32208445416E+02  0.00000000000E+00 0. -1.
         11    1    4    4    0    0 -0.54444315974E+02  0.27027470772E+02  0.14860873997E+02  0.62574062472E+02  0.00000000000E+00 0.  1.
</event>
<event>
 8    1  0.6380238E-009  0.1365289E+03  0.7561462E-02  0.1218077E+00
         -1   -1    0    0    0  501 -0.00000000000E+00  0.00000000000E+00  0.24799906320E+02  0.24799906320E+02  0.00000000000E+00 0.  1.
          1   -1    0    0  501    0  0.00000000000E+00 -0.00000000000E+00 -0.99667589166E+03  0.99667589166E+03  0.00000000000E+00 0. -1.
         25    2    1    2    0    0  0.10428211022E+03  0.30269178378E+02 -0.61735701065E+03  0.63919373231E+03  0.12509183490E+03 0.  0.
         23    2    1    2    0    0 -0.10428211022E+03 -0.30269178378E+02 -0.35451897469E+03  0.38228206567E+03  0.93085405096E+02 0.  0.
          5    1    3    3  502    0  0.11438680859E+03 -0.38104637167E+01 -0.32368336715E+03  0.34334713656E+03  0.41800000000E+01 0. -1.
         -5    1    3    3    0  502 -0.10104698365E+02  0.34079642095E+02 -0.29367364350E+03  0.29584659575E+03  0.41800000000E+01 0. -1.
        -11    1    4    4    0    0 -0.74842609929E+02  0.70875644928E+01 -0.11035434526E+03  0.13352801709E+03  0.00000000000E+00 0.  1.
         11    1    4    4    0    0 -0.29439500294E+02 -0.37356742871E+02 -0.24416462943E+03  0.24875404858E+03  0.00000000000E+00 0. -1.
</event>
<event>
 8    1  0.6380238E-009  0.1581120E+03  0.7561462E-02  0.1190845E+00
         -3   -1    0    0    0  501 -0.00000000000E+00  0.00000000000E+00  0.87786527620E+02  0.87786527620E+02  0.00000000000E+00 0.  1.
          3   -1    0    0  501    0  0.00000000000E+00 -0.00000000000E+00 -0.31665894622E+03  0.31665894622E+03  0.00000000000E+00 0. -1.
         25    2    1    2    0    0  0.12506373386E+03 -0.14705125948E+02 -0.11705626915E+03  0.21261969702E+03  0.12509111542E+03 0.  0.
         23    2    1    2    0    0 -0.12506373386E+03  0.14705125948E+02 -0.11181614945E+03  0.19182577682E+03  0.91853683214E+02 0.  0.
          5    1    3    3  502    0 -0.11578913949E+02  0.17593858735E+02  0.95619909369E+01  0.23505726624E+02  0.41800000000E+01 0.  1.
         -5    1    3    3    0  502  0.13664264781E+03 -0.32298984683E+02 -0.12661826009E+03  0.18911397039E+03  0.41800000000E+01 0.  1.
        -11    1    4    4    0    0 -0.11804519615E+03 -0.19252951320E+02 -0.74619822498E+02  0.14097326831E+03  0.00000000000E+00 0. -1.
         11    1    4    4    0    0 -0.70185377100E+01  0.33958077268E+02 -0.37196326955E+02  0.50852508515E+02  0.00000000000E+00 0.  1.
</event>
<event>
 8    1  0.6380238E-009  0.3073248E+03  0.7561462E-02  0.1081635E+00
          1   -1    0    0  501    0  0.00000000000E+00  0.00000000000E+00  0.55271709723E+03  0.55271709723E+03  0.00000000000E+00 0. -1.
         -1   -1    0    0    0  501 -0.00000000000E+00 -0.00000000000E+00 -0.19108188238E+03  0.19108188238E+03  0.00000000000E+00 0.  1.
         25    2    1    2    0    0 -0.21668691303E+03  0.21403069622E+03  0.14419379143E+03  0.35944143426E+03  0.12507572896E+03 0.  0.
         23    2    1    2    0    0  0.21668691303E+03 -0.21403069622E+03  0.21744142342E+03  0.38435754535E+03  0.87678919042E+02 0.  0.
          5    1    3    3  502    0 -0.10711218292E+03  0.13752976963E+03  0.14335879809E+03  0.22573585150E+03  0.41800000000E+01 0.  1.
         -5    1    3    3    0  502 -0.10957473011E+03  0.76500926587E+02  0.83499334762E+00  0.13370558276E+03  0.41800000000E+01 0.  1.
        -11    1    4    4    0    0  0.18761440251E+03 -0.16640416371E+03  0.13499423920E+03  0.28480336084E+03  0.00000000000E+00 0.  1.
         11    1    4    4    0    0  0.29072510520E+02 -0.47626532512E+02  0.82447184225E+02  0.99554184512E+02  0.00000000000E+00 0. -1.
</event>
<event>
 8    1  0.6380238E-009  0.9949176E+02  0.7561462E-02  0.1281368E+00
         -1   -1    0    0    0  501 -0.00000000000E+00  0.00000000000E+00  0.43977534940E+02  0.43977534940E+02  0.00000000000E+00 0.  1.
          1   -1    0    0  501    0  0.00000000000E+00 -0.00000000000E+00 -0.33727170179E+03  0.33727170179E+03  0.00000000000E+00 0. -1.
         25    2    1    2    0    0 -0.23868252589E+02 -0.39029969171E+02 -0.11467919628E+03  0.17575773408E+03  0.12508569483E+03 0.  0.
         23    2    1    2    0    0  0.23868252589E+02  0.39029969171E+02 -0.17861497056E+03  0.20549150265E+03  0.90721651092E+02 0.  0.
          5    1    3    3  502    0 -0.33190418841E+02  0.25072373122E+02  0.24149860069E+01  0.41875199751E+02  0.41800000000E+01 0. -1.
         -5    1    3    3    0  502  0.93221662514E+01 -0.64102342293E+02 -0.11709418229E+03  0.13388253433E+03  0.41800000000E+01 0. -1.
        -11    1    4    4    0    0  0.53666469691E+02  0.27637370991E+02 -0.70723443336E+02  0.92982362207E+02  0.00000000000E+00 0.  1.
         11    1    4    4    0    0 -0.29798217101E+02  0.11392598180E+02 -0.10789152723E+03  0.11250914044E+03  0.00000000000E+00 0. -1.
</event>
<event>
 8    1  0.6380238E-009  0.9135560E+02  0.7561462E-02  0.1299602E+00
          2   -1    0    0  501    0  0.00000000000E+00  0.00000000000E+00  0.13792904597E+03  0.13792904597E+03  0.00000000000E+00 0. -1.
         -2   -1    0    0    0  501 -0.00000000000E+00 -0.00000000000E+00 -0.12675274648E+03  0.12675274648E+03  0.00000000000E+00 0.  1.
         25    2    1    2    0    0  0.48379282231E+02  0.56926353110E+02  0.26113048801E+02  0.14802372985E+03  0.12509184087E+03 0.  0.
         23    2    1    2    0    0 -0.48379282231E+02 -0.56926353110E+02 -0.14936749312E+02  0.11665806261E+03  0.88344962865E+02 0.  0.
          5    1    3    3  502    0  0.53849111483E+02  0.63673353367E+02  0.66350128093E+02  0.10664818158E+03  0.41800000000E+01 0. -1.
         -5    1    3    3    0  502 -0.54698292522E+01 -0.67470002571E+01 -0.40237079292E+02  0.41375548268E+02  0.41800000000E+01 0. -1.
        -11    1    4    4    0    0 -0.38859955319E+02 -0.79258862591E+01  0.29815688900E+02  0.49617447586E+02  0.00000000000E+00 0.  1.
         11    1    4    4    0    0 -0.95193269121E+01 -0.49000466851E+02 -0.44752438212E+02  0.67040615021E+02  0.00000000000E+00 0. -1.
</event>
<event>
 8    1  0.6380238E-009  0.1384022E+03  0.7561462E-02  0.1215495E+00
         -1   -1    0    0    0  501 -0.00000000000E+00  0.00000000000E+00  0.47106958929E+02  0.47106958929E+02  0.00000000000E+00 0.  1.
          1   -1    0    0  501    0  0.00000000000E+00 -0.00000000000E+00 -0.60111219542E+03  0.60111219542E+03  0.00000000000E+00 0. -1.
         25    2    1    2    0    0 -0.86295075215E+02  0.50739706525E+02 -0.45255870227E+03  0.48008174213E+03  0.12509093611E+03 0.  0.
         23    2    1    2    0    0  0.86295075215E+02 -0.50739706525E+02 -0.10144653423E+03  0.16813741223E+03  0.89204440806E+02 0.  0.
          5    1    3    3  502    0 -0.79700251943E+02 -0.25035900631E+02 -0.25361662663E+03  0.26705391250E+03  0.41800000000E+01 0.  1.
         -5    1    3    3    0  502 -0.65948232723E+01  0.75775607156E+02 -0.19894207564E+03  0.21302782963E+03  0.41800000000E+01 0.  1.
        -11    1    4    4    0    0  0.84095875669E+02 -0.20361861702E+02 -0.10654781640E+03  0.13725581553E+03  0.00000000000E+00 0. -1.
         11    1    4    4    0    0  0.21991995462E+01 -0.30377844823E+02  0.51012821777E+01  0.30881596698E+02  0.00000000000E+00 0.  1.
</event>
<event>
 8    1  0.6380238E-009  0.9954311E+02  0.7561462E-02  0.1281260E+00
         -1   -1    0    0    0  501 -0.00000000000E+00  0.00000000000E+00  0.26249090977E+03  0.26249090977E+03  0.00000000000E+00 0.  1.
          1   -1    0    0  501    0  0.00000000000E+00 -0.00000000000E+00 -0.58225516017E+02  0.58225516017E+02  0.00000000000E+00 0. -1.
         25    2    1    2    0    0  0.10777931962E+02 -0.57933890040E+02  0.11396815192E+03  0.17918640476E+03  0.12508608462E+03 0.  0.
         23    2    1    2    0    0 -0.10777931962E+02  0.57933890040E+02  0.90297241829E+02  0.14153002102E+03  0.91676908415E+02 0.  0.
          5    1    3    3  502    0 -0.40804404804E+01 -0.79644874940E+02  0.21136888635E+02  0.82608695426E+02  0.41800000000E+01 0.  1.
         -5    1    3    3    0  502  0.14858372442E+02  0.21710984900E+02  0.92831263285E+02  0.96577709333E+02  0.41800000000E+01 0.  1.
        -11    1    4    4    0    0  0.30583989485E+02  0.28677201308E+02  0.79279258238E+02  0.89682568398E+02  0.00000000000E+00 0.  1.
         11    1    4    4    0    0 -0.41361921447E+02  0.29256688732E+02  0.11017983591E+02  0.51847452626E+02  0.00000000000E+00 0. -1.
</event>
<event>
 8    1  0.6380238E-009  0.9258838E+02  0.7561462E-02  0.1296702E+00
         -2   -1    0    0    0  501 -0.00000000000E+00  0.00000000000E+00  0.10097226070E+03  0.10097226070E+03  0.00000000000E+00 0.  1.
          2   -1    0    0  501    0  0.00000000000E+00 -0.00000000000E+00 -0.15250262177E+03  0.15250262177E+03  0.00000000000E+00 0. -1.
         25    2    1    2    0    0  0.40430104555E+02  0.31922494899E+02  0.10584296914E+02  0.13569499204E+03  0.12508982568E+03 0.  0.
         23    2    1    2    0    0 -0.40430104555E+02 -0.31922494899E+02 -0.62114657984E+02  0.11777989043E+03  0.85791799248E+02 0.  0.
          5    1    3    3  502    0  0.74556653653E+02  0.46284554957E+02 -0.16809224590E+02  0.89448180880E+02  0.41800000000E+01 0. -1.
         -5    1    3    3    0  502 -0.34126549098E+02 -0.14362060058E+02  0.27393521504E+02  0.46246811164E+02  0.41800000000E+01 0. -1.
        -11    1    4    4    0    0 -0.37388812605E+02 -0.11076883336E+02  0.11943984101E+02  0.40783322677E+02  0.00000000000E+00 0.  1.
         11    1    4    4    0    0 -0.30412919501E+01 -0.20845611563E+02 -0.74058642084E+02  0.76996567752E+02  0.00000000000E+00 0. -1.
</event>
<event>
 8    1  0.6380238E-009  0.8978076E+02  0.7561462E-02  0.1303383E+00
         -1   -1    0    0    0  501 -0.00000000000E+00  0.00000000000E+00  0.10613342758E+03  0.10613342758E+03  0.00000000000E+00 0.  1.
          1   -1    0    0  501    0  0.00000000000E+00 -0.00000000000E+00 -0.23704336948E+03  0.23704336948E+03  0.00000000000E+00 0. -1.
         25    2    1    2    0    0 -0.37609560487E+02 -0.17362905794E+02  0.40147168970E+02  0.13774966749E+03  0.12508887313E+03 0.  0.
         23    2    1    2    0    0  0.37609560487E+02  0.17362905794E+02 -0.17105711086E+03  0.20542712957E+03  0.10594253559E+03 0.  0.
          5    1    3    3  502    0 -0.76291851826E+01  0.22428905936E+02  0.73707178999E+02  0.77533740552E+02  0.41800000000E+01 0. -1.
         -5    1    3    3    0  502 -0.29980375305E+02 -0.39791811731E+02 -0.33560010029E+02  0.60215926941E+02  0.41800000000E+01 0. -1.
        -11    1    4    4    0    0 -0.54544250755E+01  0.50734534146E+02 -0.44744841556E+02  0.67866372776E+02  0.00000000000E+00 0.  1.
         11    1    4    4    0    0  0.43063985563E+02 -0.33371628352E+02 -0.12631226931E+03  0.13756075679E+03  0.00000000000E+00 0. -1.
</event>
<event>
 8    1  0.6380238E-009  0.1002226E+03  0.7561462E-02  0.1279829E+00
          1   -1    0    0  501    0  0.00000000000E+00  0.00000000000E+00  0.30354620373E+03  0.30354620373E+03  0.00000000000E+00 0. -1.
         -1   -1    0    0    0  501 -0.00000000000E+00 -0.00000000000E+00 -0.53121382453E+02  0.53121382453E+02  0.00000000000E+00 0.  1.
         25    2    1    2    0    0  0.42791717194E+02 -0.46332563314E+02  0.12258416037E+03  0.18615001713E+03  0.12508842881E+03 0.  0.
         23    2    1    2    0    0 -0.42791717194E+02  0.46332563314E+02  0.12784066091E+03  0.17051756905E+03  0.93569061598E+02 0.  0.
          5    1    3    3  502    0 -0.87480862761E+01 -0.33390050291E+02 -0.15549919856E+02  0.38088014906E+02  0.41800000000E+01 0.  1.
         -5    1    3    3    0  502  0.51539803470E+02 -0.12942513023E+02  0.13813408022E+03  0.14806200223E+03  0.41800000000E+01 0.  1.
        -11    1    4    4    0    0 -0.72482407879E+02  0.36037827779E+02  0.84880673846E+02  0.11729089170E+03  0.00000000000E+00 0.  1.
         11    1    4    4    0    0  0.29690690685E+02  0.10294735535E+02  0.42959987063E+02  0.53226677348E+02  0.00000000000E+00 0. -1.
</event>
<event>
 8    1  0.6380238E-009  0.1296594E+03  0.7561462E-02  0.1227962E+00
          3   -1    0    0  501    0  0.00000000000E+00  0.00000000000E+00  0.24107881913E+03  0.24107881913E+03  0.00000000000E+00 0. -1.
         -3   -1    0    0    0  501 -0.00000000000E+00 -0.00000000000E+00 -0.85871715542E+02  0.85871715542E+02  0.00000000000E+00 0.  1.
         25    2    1    2    0    0  0.55028431565E+02 -0.70145382273E+02  0.87594670596E+02  0.17683030064E+03  0.12509047115E+03 0.  0.
         23    2    1    2    0    0 -0.55028431565E+02  0.70145382273E+02  0.67612432993E+02  0.15012023404E+03  0.10008067065E+03 0.  0.
          5    1    3    3  502    0  0.27293014217E+02 -0.10515763881E+03  0.60513684147E+02  0.12442835687E+03  0.41800000000E+01 0. -1.
         -5    1    3    3    0  502  0.27735417348E+02  0.35012256535E+02  0.27080986449E+02  0.52401943764E+02  0.41800000000E+01 0. -1.
        -11    1    4    4    0    0 -0.10734690864E+02 -0.96730350745E+01 -0.19278423405E+02  0.24092712684E+02  0.00000000000E+00 0.  1.
         11    1    4    4    0    0 -0.44293740701E+02  0.79818417347E+02  0.86890856399E+02  0.12602752135E+03  0.00000000000E+00 0. -1.
</event>
<event>
 8    1  0.6380238E-009  0.8374232E+02  0.7561462E-02  0.1318755E+00
          2   -1    0    0  501    0  0.00000000000E+00  0.00000000000E+00  0.24423897085E+03  0.24423897085E+03  0.00000000000E+00 0. -1.
         -2   -1    0    0    0  501 -0.00000000000E+00 -0.00000000000E+00 -0.57505464188E+02  0.57505464188E+02  0.00000000000E+00 0.  1.
         25    2    1    2    0    0  0.57971430630E+00 -0.37782260358E+02  0.69597396072E+02  0.14805909761E+03  0.12509941478E+03 0.  0.
         23    2    1    2    0    0 -0.57971430630E+00  0.37782260358E+02  0.11713611059E+03  0.15368533743E+03  0.92035206686E+02 0.  0.
          5    1    3    3  502    0 -0.36072483490E+02 -0.48245703919E+02  0.87038299712E+02  0.10593398901E+03  0.41800000000E+01 0. -1.
         -5    1    3    3    0  502  0.36652197796E+02  0.10463443561E+02 -0.17440903639E+02  0.42125108596E+02  0.41800000000E+01 0. -1.
        -11    1    4    4    0    0  0.24375638761E+02  0.11152971071E+01  0.10486367440E+03  0.10766524909E+03  0.00000000000E+00 0. -1.
         11    1    4    4    0    0 -0.24955353067E+02  0.36666963251E+02  0.12272436191E+02  0.46020088340E+02  0.00000000000E+00 0.  1.
</event>
<event>
 8    1  0.6380238E-009  0.2034152E+03  0.7561462E-02  0.1146889E+00
          1   -1    0    0  501    0  0.00000000000E+00  0.00000000000E+00  0.54316485455E+03  0.54316485455E+03  0.00000000000E+00 0. -1.
         -1   -1    0    0    0  501 -0.00000000000E+00 -0.00000000000E+00 -0.87638359233E+02  0.87638359233E+02  0.00000000000E+00 0.  1.
         25    2    1    2    0    0 -0.10929343694E+03  0.15105055012E+03  0.20210782120E+03  0.30208687840E+03  0.12509031403E+03 0.  0.
         23    2    1    2    0    0  0.10929343694E+03 -0.15105055012E+03  0.25341867412E+03  0.32871633538E+03  0.95247470850E+02 0.  0.
          5    1    3    3  502    0 -0.13433064032E+03  0.12176701062E+03  0.18698840949E+03  0.26048812543E+03  0.41800000000E+01 0. -1.
         -5    1    3    3    0  502  0.25037203382E+02  0.29283539501E+02  0.15119411707E+02  0.41598752978E+02  0.41800000000E+01 0. -1.
        -11    1    4    4    0    0  0.53091575748E+02 -0.64731283442E+02  0.42273078213E+02  0.93786286914E+02  0.00000000000E+00 0.  1.
         11    1    4    4    0    0  0.56201861188E+02 -0.86319266682E+02  0.21114559591E+03  0.23493004847E+03  0.00000000000E+00 0. -1.
</event>
<event>
 8    1  0.6380238E-009  0.1037494E+03  0.7561462E-02  0.1272603E+00
         -2   -1    0    0    0  501 -0.00000000000E+00  0.00000000000E+00  0.25441577292E+02  0.25441577292E+02  0.00000000000E+00 0.  1.
          2   -1    0    0  501    0  0.00000000000E+00 -0.00000000000E+00 -0.63674187339E+03  0.63674187339E+03  0.00000000000E+00 0. -1.
         25    2    1    2    0    0 -0.22006172285E+02  0.61933819071E+02 -0.32233786084E+03  0.35195034477E+03  0.12508908461E+03 0.  0.
         23    2    1    2    0    0  0.22006172285E+02 -0.61933819071E+02 -0.28896243525E+03  0.31023310591E+03  0.91789005074E+02 0.  0.
          5    1    3    3  502    0  0.32836897592E+01  0.94879469663E+02 -0.17903559814E+03  0.20269216607E+03  0.41800000000E+01 0.  1.
         -5    1    3    3    0  502 -0.25289862045E+02 -0.32945650592E+02 -0.14330226269E+03  0.14925817870E+03  0.41800000000E+01 0.  1.
        -11    1    4    4    0    0  0.17277516191E+02 -0.13143284051E+02 -0.52729293048E+01  0.22339701539E+02  0.00000000000E+00 0.  1.
         11    1    4    4    0    0  0.47286560944E+01 -0.48790535020E+02 -0.28368950595E+03  0.28789340437E+03  0.00000000000E+00 0. -1.
</event>
<event>
 8    1  0.6380238E-009  0.9508731E+02  0.7561462E-02  0.1290980E+00
         -1   -1    0    0    0  501 -0.00000000000E+00  0.00000000000E+00  0.36800984695E+02  0.36800984695E+02  0.00000000000E+00 0.  1.
          1   -1    0    0  501    0  0.00000000000E+00 -0.00000000000E+00 -0.44013624788E+03  0.44013624788E+03  0.00000000000E+00 0. -1.
         25    2    1    2    0    0  0.56064398590E+02  0.33912419529E+02 -0.22334294898E+03  0.26424288469E+03  0.12509580432E+03 0.  0.
         23    2    1    2    0    0 -0.56064398590E+02 -0.33912419529E+02 -0.17999231420E+03  0.21269434789E+03  0.92457468409E+02 0.  0.
          5    1    3    3  502    0 -0.63777819025E+01  0.50010296529E+01  0.14212748861E+02  0.16886711633E+02  0.41800000000E+01 0. -1.
         -5    1    3    3    0  502  0.62442180493E+02  0.28911389876E+02 -0.23755569784E+03  0.24735617305E+03  0.41800000000E+01 0. -1.
        -11    1    4    4    0    0 -0.28535803676E+02  0.30682872756E+02 -0.52783586859E+02  0.67393158508E+02  0.00000000000E+00 0.  1.
         11    1    4    4    0    0 -0.27528594914E+02 -0.64595292285E+02 -0.12720872734E+03  0.14530118938E+03  0.00000000000E+00 0. -1.
</event>
<event>
 8    1  0.6380238E-009  0.8697183E+02  0.7561462E-02  0.1310355E+00
          3   -1    0    0  501    0  0.00000000000E+00  0.00000000000E+00  0.25810521292E+03  0.25810521292E+03  0.00000000000E+00 0. -1.
         -3   -1    0    0    0  501 -0.00000000000E+00 -0.00000000000E+00 -0.46207362105E+02  0.46207362105E+02  0.00000000000E+00 0.  1.
         25    2    1    2    0    0 -0.14378173732E+02  0.21084490547E+02  0.10485843769E+03  0.16520531682E+03  0.12508483973E+03 0.  0.
         23    2    1    2    0    0  0.14378173732E+02 -0.21084490547E+02  0.10703941313E+03  0.13910725821E+03  0.85100562289E+02 0.  0.
          5    1    3    3  502    0 -0.40795072558E+02 -0.41735355379E+02  0.38824038517E+02  0.70220055542E+02  0.41800000000E+01 0.  1.
         -5    1    3    3    0  502  0.26416898827E+02  0.62819845926E+02  0.66034399170E+02  0.94985261275E+02  0.41800000000E+01 0.  1.
        -11    1    4    4    0    0  0.27684706854E+02 -0.19259919297E+02  0.11739774777E+03  0.12214589091E+03  0.00000000000E+00 0. -1.
         11    1    4    4    0    0 -0.13306533122E+02 -0.18245712492E+01 -0.10358334643E+02  0.16961367296E+02  0.00000000000E+00 0.  1.
</event>
<event>
 8    1  0.6380238E-009  0.1073621E+03  0.7561462E-02  0.1265534E+00
         -1   -1    0    0    0  501 -0.00000000000E+00  0.00000000000E+00  0.18804681044E+02  0.18804681044E+02  0.00000000000E+00 0.  1.
          1   -1    0    0  501    0  0.00000000000E+00 -0.00000000000E+00 -0.72296580882E+03  0.72296580882E+03  0.00000000000E+00 0. -1.
         25    2    1    2    0    0  0.21142906885E+02  0.23211207603E+02 -0.30257147654E+03  0.32891186453E+03  0.12509090110E+03 0.  0.
         23    2    1    2    0    0 -0.21142906885E+02 -0.23211207603E+02 -0.40158965123E+03  0.41285862534E+03  0.90510849461E+02 0.  0.
          5    1    3    3  502    0 -0.12600115347E+02 -0.45314391817E+02 -0.73088893141E+02  0.87015031536E+02  0.41800000000E+01 0. -1.
         -5    1    3    3    0  502  0.33743022232E+02  0.68525599420E+02 -0.22948258340E+03  0.24189683299E+03  0.41800000000E+01 0. -1.
        -11    1    4    4    0    0  0.33077021289E+02 -0.14404857623E+02 -0.10003615885E+03  0.10634294682E+03  0.00000000000E+00 0.  1.
         11    1    4    4    0    0 -0.54219928174E+02 -0.88063499796E+01 -0.30155349238E+03  0.30651567852E+03  0.00000000000E+00 0. -1.
</event>
<event>
 8    1  0.6380238E-009  0.1192215E+03  0.7561462E-02  0.1244387E+00
          2   -1    0    0  501    0  0.00000000000E+00  0.00000000000E+00  0.68755753655E+03  0.68755753655E+03  0.00000000000E+00 0. -1.
         -2   -1    0    0    0  501 -0.00000000000E+00 -0.00000000000E+00 -0.27344676874E+02  0.27344676874E+02  0.00000000000E+00 0.  1.
         25    2    1    2    0    0  0.61394105821E+02 -0.60789265931E+02  0.41186483763E+03  0.43902689110E+03  0.12508955014E+03 0.  0.
         23    2    1    2    0    0 -0.61394105821E+02  0.60789265931E+02  0.24834802205E+03  0.27587532232E+03  0.83461861522E+02 0.  0.
          5    1    3    3  502    0  0.51176593782E+02  0.30662818409E+02  0.17014730321E+03  0.18035195972E+03  0.41800000000E+01 0. -1.
         -5    1    3    3    0  502  0.10217512039E+02 -0.91452084340E+02  0.24171753442E+03  0.25867493138E+03  0.41800000000E+01 0. -1.
        -11    1    4    4    0    0 -0.14981645834E+02  0.12130000101E+02  0.73147718259E+00  0.19290455495E+02  0.00000000000E+00 0.  1.
         11    1    4    4    0    0 -0.46412459988E+02  0.48659265829E+02  0.24761654486E+03  0.25658486682E+03  0.00000000000E+00 0. -1.
</event>
<event>
 8    1  0.6380238E-009  0.1389276E+03  0.7561462E-02  0.1214779E+00
         -1   -1    0    0    0  501 -0.00000000000E+00  0.00000000000E+00  0.76336677426E+03  0.76336677426E+03  0.00000000000E+00 0.  1.
          1   -1    0    0  501    0  0.00000000000E+00 -0.00000000000E+00 -0.39971157300E+02  0.39971157300E+02  0.00000000000E+00 0. -1.
         25    2    1    2    0    0 -0.75851861362E+02 -0.10994970441E+03  0.44797596400E+03  0.48391315757E+03  0.12508811846E+03 0.  0.
         23    2    1    2    0    0  0.75851861362E+02  0.10994970441E+03  0.27541965296E+03  0.31942477399E+03  0.91289422315E+02 0.  0.
          5    1    3    3  502    0 -0.82418513361E+02 -0.87384512196E+02  0.44366431541E+03  0.45965678662E+03  0.41800000000E+01 0.  1.
         -5    1    3    3    0  502  0.65666519985E+01 -0.22565192216E+02  0.43116485841E+01  0.24256370951E+02  0.41800000000E+01 0.  1.
        -11    1    4    4    0    0  0.14957329305E+02  0.27342200468E+02  0.16798024040E+03  0.17084694551E+03  0.00000000000E+00 0.  1.
         11    1    4    4    0    0  0.60894532058E+02  0.82607503945E+02  0.10743941256E+03  0.14857782848E+03  0.00000000000E+00 0. -1.
</event>
<event>
 8    1  0.6380238E-009  0.1618367E+03  0.7561462E-02  0.1186639E+00
         -1   -1    0    0    0  501 -0.00000000000E+00  0.00000000000E+00  0.21917488108E+03  0.21917488108E+03  0.00000000000E+00 0.  1.
          1   -1    0    0  501    0  0.00000000000E+00 -0.00000000000E+00 -0.19991829126E+03  0.19991829126E+03  0.00000000000E+00 0. -1.
         25    2    1    2    0    0 -0.15429535941E+03 -0.40997021563E+02  0.89711965495E+02  0.22177352722E+03  0.12508975541E+03 0.  0.
         23    2    1    2    0    0  0.15429535941E+03  0.40997021563E+02 -0.70455375676E+02  0.19731964511E+03  0.92104661512E+02 0.  0.
          5    1    3    3  502    0 -0.31018548282E+02 -0.13897024316E+02 -0.31643838716E+02  0.46627058143E+02  0.41800000000E+01 0.  1.
         -5    1    3    3    0  502 -0.12327681113E+03 -0.27099997247E+02  0.12135580421E+03  0.17514646908E+03  0.41800000000E+01 0.  1.
        -11    1    4    4    0    0  0.71455308211E+02  0.17627591431E+01  0.13823683534E+02  0.72801528952E+02  0.00000000000E+00 0.  1.
         11    1    4    4    0    0  0.82840051204E+02  0.39234262420E+02 -0.84279059211E+02  0.12451811616E+03  0.00000000000E+00 0. -1.
</event>
<event>
 8    1  0.6380238E-009  0.9087049E+02  0.7561462E-02  0.1300757E+00
          2   -1    0    0  501    0  0.00000000000E+00  0.00000000000E+00  0.61816325868E+03  0.61816325868E+03  0.00000000000E+00 0. -1.
         -2   -1    0    0    0  501 -0.00000000000E+00 -0.00000000000E+00 -0.22999489966E+02  0.22999489966E+02  0.00000000000E+00 0.  1.
         25    2    1    2    0    0 -0.81264163718E+01 -0.45508573926E+02  0.36175354089E+03  0.38555231301E+03  0.12509153759E+03 0.  0.
         23    2    1    2    0    0  0.81264163718E+01  0.45508573926E+02  0.23341022783E+03  0.25561043564E+03  0.93377146075E+02 0.  0.
          5    1    3    3  502    0 -0.45054534585E+02 -0.17080986037E+02  0.31745818887E+03  0.32112123139E+03  0.41800000000E+01 0.  1.
         -5    1    3    3    0  502  0.36928118213E+02 -0.28427587889E+02  0.44295352024E+02  0.64431081621E+02  0.41800000000E+01 0.  1.
        -11    1    4    4    0    0 -0.14374628094E+02 -0.15751572695E+02  0.11346431347E+02  0.24155402699E+02  0.00000000000E+00 0.  1.
         11    1    4    4    0    0  0.22501044466E+02  0.61260146621E+02  0.22206379648E+03  0.23145503294E+03  0.00000000000E+00 0. -1.
</event>
<event>
 8    1  0.6380238E-009  0.1367547E+03  0.7561462E-02  0.1217764E+00
          1   -1    0    0  501    0  0.00000000000E+00  0.00000000000E+00  0.11171838508E+03  0.11171838508E+03  0.00000000000E+00 0. -1.
         -1   -1    0    0    0  501 -0.00000000000E+00 -0.00000000000E+00 -0.18574888235E+03  0.18574888235E+03  0.00000000000E+00 0.  1.
         25    2    1    2    0    0  0.89626830323E+01  0.90893961993E+02 -0.17445076831E+02  0.15586718402E+03  0.12509279090E+03 0.  0.
         23    2    1    2    0    0 -0.89626830323E+01 -0.90893961993E+02 -0.56585420445E+02  0.14160008341E+03  0.92231403549E+02 0.  0.
          5    1    3    3  502    0 -0.53649418776E+02  0.24141290762E+02 -0.24745244320E+02  0.63959843426E+02  0.41800000000E+01 0.  1.
         -5    1    3    3    0  502  0.62612101808E+02  0.66752671231E+02  0.73001674889E+01  0.91907340592E+02  0.41800000000E+01 0.  1.
        -11    1    4    4    0    0 -0.45742491133E+02 -0.45924086350E+02 -0.52408571403E+02  0.83354997202E+02  0.00000000000E+00 0. -1.
         11    1    4    4    0    0  0.36779808100E+02 -0.44969875643E+02 -0.41768490414E+01  0.58245086206E+02  0.00000000000E+00 0.  1.
</event>
<event>
 7    1  0.6380238E-009  0.1036384E+03  0.7561462E-02  0.1272826E+00
         -2   -1    0    0    0  501 -0.00000000000E+00  0.00000000000E+00  0.17377158252E+03  0.17377158252E+03  0.00000000000E+00 0.  1.
          2   -1    0    0  501    0  0.00000000000E+00 -0.00000000000E+00 -0.89162360417E+02  0.89162360417E+02  0.00000000000E+00 0. -1.
         25    2    1    2    0    0 -0.60473255885E+02 -0.23861613798E+02 -0.15617389018E+02  0.14184019202E+03  0.12509334892E+03 0.  0.
          5    1    3    3  502    0  0.11471379225E+02  0.41730938417E+02 -0.30643424012E+01  0.43588144682E+02  0.41800000000E+01 0.  1.
         -5    1    3    3    0  502 -0.71944635110E+02 -0.65592552215E+02 -0.12553046617E+02  0.98252047340E+02  0.41800000000E+01 0.  1.
        -11    1    1    2    0    0  0.42048974382E+02  0.98088473240E+01  0.77031764970E+02  0.88307545243E+02  0.00000000000E+00 0. -1.
         11    1    1    2    0    0  0.18424281503E+02  0.14052766474E+02  0.23194846153E+02  0.32786205675E+02  0.00000000000E+00 0.  1.
</event>
<event>
 8    1  0.6380238E-009  0.9013782E+02  0.7561462E-02  0.1302518E+00
         -1   -1    0    0    0  501 -0.00000000000E+00  0.00000000000E+00  0.80995559845E+02  0.80995559845E+02  0.00000000000E+00 0.  1.
          1   -1    0    0  501    0  0.00000000000E+00 -0.00000000000E+00 -0.16422263706E+03  0.16422263706E+03  0.00000000000E+00 0. -1.
         25    2    1    2    0    0 -0.14360610817E+02 -0.25813456275E+01 -0.81711373553E+01  0.12618273690E+03  0.12506968105E+03 0.  0.
         23    2    1    2    0    0  0.14360610817E+02  0.25813456275E+01 -0.75055939855E+02  0.11903546000E+03  0.91231333112E+02 0.  0.
          5    1    3    3  502    0 -0.11095692449E+02  0.44002042409E+02  0.38774410577E+02  0.59834951681E+02  0.41800000000E+01 0.  1.
         -5    1    3    3    0  502 -0.32649183678E+01 -0.46583388037E+02 -0.46945547932E+02  0.66347785220E+02  0.41800000000E+01 0.  1.
        -11    1    4    4    0    0 -0.36575229414E+02 -0.23191862961E+01 -0.50180200735E+02  0.62138382482E+02  0.00000000000E+00 0. -1.
         11    1    4    4    0    0  0.50935840231E+02  0.49005319236E+01 -0.24875739120E+02  0.56897077516E+02  0.00000000000E+00 0.  1.
</event>
<event>
 7    1  0.6380238E-009  0.9986906E+02  0.7561462E-02  0.1280572E+00
          1   -1    0    0  501    0  0.00000000000E+00  0.00000000000E+00  0.80463441961E+02  0.80463441961E+02  0.00000000000E+00 0. -1.
         -1   -1    0    0    0  501 -0.00000000000E+00 -0.00000000000E+00 -0.19984873209E+03  0.19984873209E+03  0.00000000000E+00 0.  1.
         23    2    1    2    0    0  0.25534831897E+01 -0.61827065527E+02 -0.74522815326E+02  0.13355097398E+03  0.91940776263E+02 0.  0.
          5    1    1    2  502    0  0.53512097765E+02  0.60620185358E+02 -0.40021362971E+02  0.90319064290E+02  0.41800000000E+01 0.  1.
         -5    1    1    2    0  502 -0.56065580955E+02  0.12068801687E+01 -0.48411118322E+01  0.56442135779E+02  0.41800000000E+01 0.  1.
        -11    1    3    3    0    0 -0.24649873559E+01 -0.42385029235E+02 -0.95500269358E+02  0.10451252706E+03  0.00000000000E+00 0.  1.
         11    1    3    3    0    0  0.50184705456E+01 -0.19442036292E+02  0.20977454032E+02  0.29038446919E+02  0.00000000000E+00 0. -1.
</event>
<event>
 8    1  0.6380238E-009  0.5752434E+02  0.7561462E-02  0.1408525E+00
          2   -1    0    0  501    0  0.00000000000E+00  0.00000000000E+00  0.51184874685E+03  0.51184874685E+03  0.00000000000E+00 0.  1.
         -2   -1    0    0    0  501 -0.00000000000E+00 -0.00000000000E+00 -0.43911770796E+02  0.43911770796E+02  0.00000000000E+00 0. -1.
         25    2    1    2    0    0 -0.10028139648E+02 -0.31415799608E+02  0.43333440103E+03  0.45223206262E+03  0.12509044446E+03 0.  0.
         23    2    1    2    0    0  0.10028139648E+02  0.31415799608E+02  0.34602575021E+02  0.10352845502E+03  0.91832928472E+02 0.  0.
          5    1    3    3  502    0  0.14928459469E+01  0.60035145878E+01 -0.69441556237E+01  0.10196297061E+02  0.41800000000E+01 0. -1.
         -5    1    3    3    0  502 -0.11520985595E+02 -0.37419314196E+02  0.44027855665E+03  0.44203576556E+03  0.41800000000E+01 0. -1.
        -11    1    4    4    0    0  0.34797378297E+02  0.24279381113E+02  0.55838674556E+02  0.70130617135E+02  0.00000000000E+00 0.  1.
         11    1    4    4    0    0 -0.24769238649E+02  0.71364184950E+01 -0.21236099535E+02  0.33397837889E+02  0.00000000000E+00 0. -1.
</event>
<event>
 8    1  0.6380238E-009  0.1269508E+03  0.7561462E-02  0.1232052E+00
         -2   -1    0    0    0  501 -0.00000000000E+00  0.00000000000E+00  0.58403975955E+03  0.58403975955E+03  0.00000000000E+00 0.  1.
          2   -1    0    0  501    0  0.00000000000E+00 -0.00000000000E+00 -0.38757282674E+02  0.38757282674E+02  0.00000000000E+00 0. -1.
         25    2    1    2    0    0  0.44588700784E+02 -0.84926276297E+02  0.37917006264E+03  0.41063102627E+03  0.12508908302E+03 0.  0.
         23    2    1    2    0    0 -0.44588700784E+02  0.84926276297E+02  0.16611241423E+03  0.21216601595E+03  0.90666749797E+02 0.  0.
          5    1    3    3  502    0 -0.11978039166E+02 -0.97859773354E+02  0.21838400265E+03  0.23964359719E+03  0.41800000000E+01 0. -1.
         -5    1    3    3    0  502  0.56566739950E+02  0.12933497057E+02  0.16078605999E+03  0.17098742908E+03  0.41800000000E+01 0. -1.
        -11    1    4    4    0    0 -0.12755486794E+02  0.40003672662E+02  0.14855718088E+03  0.15437691621E+03  0.00000000000E+00 0.  1.
         11    1    4    4    0    0 -0.31833213990E+02  0.44922603635E+02  0.17555233358E+02  0.57789099738E+02  0.00000000000E+00 0. -1.
</event>
<event>
 8    1  0.6380238E-009  0.8201458E+02  0.7561462E-02  0.1323430E+00
         -1   -1    0    0    0  501 -0.00000000000E+00  0.00000000000E+00  0.60888699852E+03  0.60888699852E+03  0.00000000000E+00 0.  1.
          1   -1    0    0  501    0  0.00000000000E+00 -0.00000000000E+00 -0.22114882753E+02  0.22114882753E+02  0.00000000000E+00 0. -1.
         25    2    1    2    0    0  0.14539499045E+02  0.34105131413E+02  0.44950911684E+03  0.46806040584E+03  0.12509012900E+03 0.  0.
         23    2    1    2    0    0 -0.14539499045E+02 -0.34105131413E+02  0.13726299892E+03  0.16294147543E+03  0.79587916920E+02 0.  0.
          5    1    3    3  502    0 -0.31838892674E+02 -0.54889713838E+01  0.30534297648E+02  0.44650415747E+02  0.41800000000E+01 0.  1.
         -5    1    3    3    0  502  0.46378391719E+02  0.39594102797E+02  0.41897481919E+03  0.42340999009E+03  0.41800000000E+01 0.  1.
        -11    1    4    4    0    0 -0.37698584186E+02 -0.25983346796E+02  0.34608157179E+02  0.57393746207E+02  0.00000000000E+00 0. -1.
         11    1    4    4    0    0  0.23159085141E+02 -0.81217846176E+01  0.10265484174E+03  0.10554772922E+03  0.00000000000E+00 0.  1.
</event>
<event>
 7    1  0.6380238E-009  0.5274680E+02  0.7561462E-02  0.1431065E+00
          2   -1    0    0  501    0  0.00000000000E+00  0.00000000000E+00  0.13055491560E+03  0.13055491560E+03  0.00000000000E+00 0. -1.
         -2   -1    0    0    0  501 -0.00000000000E+00 -0.00000000000E+00 -0.11041749167E+03  0.11041749167E+03  0.00000000000E+00 0.  1.
         23    2    1    2    0    0 -0.41387177650E+02  0.56643322271E+01 -0.28350710561E+02  0.10091603735E+03  0.87380207551E+02 0.  0.
          5    1    1    2  502    0  0.46593386325E+01  0.54881832645E+01 -0.41398906580E+02  0.42227614876E+02  0.41800000000E+01 0. -1.
         -5    1    1    2    0  502  0.36727839017E+02 -0.11152515492E+02  0.89887041074E+02  0.97828755045E+02  0.41800000000E+01 0. -1.
        -11    1    3    3    0    0 -0.46632280663E+02 -0.47740811037E+01  0.20153577926E+02  0.51024779798E+02  0.00000000000E+00 0. -1.
         11    1    3    3    0    0  0.52451030135E+01  0.10438413331E+02 -0.48504288487E+02  0.49891257552E+02  0.00000000000E+00 0.  1.
</event>
<event>
 8    1  0.6380238E-009  0.7944533E+02  0.7561462E-02  0.1330633E+00
         -1   -1    0    0    0  501 -0.00000000000E+00  0.00000000000E+00  0.33019269863E+03  0.33019269863E+03  0.00000000000E+00 0.  1.
          1   -1    0    0  501    0  0.00000000000E+00 -0.00000000000E+00 -0.40906614016E+02  0.40906614016E+02  0.00000000000E+00 0. -1.
         25    2    1    2    0    0  0.87914172999E+01  0.33745294072E+02  0.17943568265E+03  0.22149968461E+03  0.12509561217E+03 0.  0.
         23    2    1    2    0    0 -0.87914172999E+01 -0.33745294072E+02  0.10985040196E+03  0.14959962804E+03  0.95377691350E+02 0.  0.
          5    1    3    3  502    0 -0.18208575683E+02 -0.17444520069E+01  0.17554252296E+03  0.17654247395E+03  0.41800000000E+01 0.  1.
         -5    1    3    3    0  502  0.26999992983E+02  0.35489746079E+02  0.38931596899E+01  0.44957210659E+02  0.41800000000E+01 0.  1.
        -11    1    4    4    0    0  0.33779564617E+02 -0.39951268213E+02  0.33990761758E+02  0.62390181138E+02  0.00000000000E+00 0. -1.
         11    1    4    4    0    0 -0.42570981917E+02  0.62059741412E+01  0.75859640206E+02  0.87209446900E+02  0.00000000000E+00 0.  1.
</event>
<event>
 8    1  0.6380238E-009  0.1092185E+03  0.7561462E-02  0.1262024E+00
          2   -1    0    0  501    0  0.00000000000E+00  0.00000000000E+00  0.75663311014E+03  0.75663311014E+03  0.00000000000E+00 0. -1.
         -2   -1    0    0    0  501 -0.00000000000E+00 -0.00000000000E+00 -0.36865949148E+02  0.36865949148E+02  0.00000000000E+00 0.  1.
         25    2    1    2    0    0  0.74059961332E+02 -0.40954715979E+02  0.60839874197E+03  0.62686427160E+03  0.12509044387E+03 0.  0.
         23    2    1    2    0    0 -0.74059961332E+02  0.40954715979E+02  0.11136841902E+03  0.16663478768E+03  0.90565231065E+02 0.  0.
          5    1    3    3  502    0  0.53931517564E+02 -0.68728744745E+02  0.56329912132E+03  0.57004878863E+03  0.41800000000E+01 0. -1.
         -5    1    3    3    0  502  0.20128443767E+02  0.27774028767E+02  0.45099620656E+02  0.56815482975E+02  0.41800000000E+01 0. -1.
        -11    1    4    4    0    0 -0.33033732872E+02 -0.65231977495E+01 -0.53738504280E+01  0.34097769498E+02  0.00000000000E+00 0.  1.
         11    1    4    4    0    0 -0.41026228460E+02  0.47477913728E+02  0.11674226945E+03  0.13253701818E+03  0.00000000000E+00 0. -1.
</event>
<event>
 8    1  0.6380238E-009  0.8482632E+02  0.7561462E-02  0.1315887E+00
         -2   -1    0    0    0  501 -0.00000000000E+00  0.00000000000E+00  0.18060722793E+03  0.18060722793E+03  0.00000000000E+00 0.  1.
          2   -1    0    0  501    0  0.00000000000E+00 -0.00000000000E+00 -0.73221623002E+02  0.73221623002E+02  0.00000000000E+00 0. -1.
         25    2    1    2    0    0 -0.19419538169E+02 -0.35592178139E+02  0.54887324093E+02  0.14249322925E+03  0.12509108853E+03 0.  0.
         23    2    1    2    0    0  0.19419538169E+02  0.35592178139E+02  0.52498280838E+02  0.11133562168E+03  0.89418284243E+02 0.  0.
          5    1    3    3  502    0 -0.47549674396E+02  0.56003723743E+01 -0.20296470900E+02  0.52170440260E+02  0.41800000000E+01 0. -1.
         -5    1    3    3    0  502  0.28130136227E+02 -0.41192550513E+02  0.75183794994E+02  0.90322788993E+02  0.41800000000E+01 0. -1.
        -11    1    4    4    0    0  0.40646094285E+02  0.20758327411E+02  0.67444573785E+02  0.81435764076E+02  0.00000000000E+00 0.  1.
         11    1    4    4    0    0 -0.21226556117E+02  0.14833850727E+02 -0.14946292947E+02  0.29899857606E+02  0.00000000000E+00 0. -1.
</event>
<event>
 8    1  0.6380238E-009  0.1362678E+03  0.7561462E-02  0.1218441E+00
          2   -1    0    0  501    0  0.00000000000E+00  0.00000000000E+00  0.23810091367E+02  0.23810091367E+02  0.00000000000E+00 0. -1.
         -2   -1    0    0    0  501 -0.00000000000E+00 -0.00000000000E+00 -0.84181027478E+03  0.84181027478E+03  0.00000000000E+00 0.  1.
         25    2    1    2    0    0 -0.76013599291E+02  0.47238291408E+02 -0.40117080929E+03  0.42964502125E+03  0.12508917862E+03 0.  0.
         23    2    1    2    0    0  0.76013599291E+02 -0.47238291408E+02 -0.41682937413E+03  0.43597534490E+03  0.91204444908E+02 0.  0.
          5    1    3    3  502    0 -0.70135032004E+02 -0.29835842314E+02 -0.19294210018E+03  0.20749271462E+03  0.41800000000E+01 0.  1.
         -5    1    3    3    0  502 -0.58785672872E+01  0.77074133722E+02 -0.20822870911E+03  0.22215230663E+03  0.41800000000E+01 0.  1.
        -11    1    4    4    0    0  0.91406569353E+02 -0.31255099956E+02 -0.38653337628E+03  0.39842200388E+03  0.00000000000E+00 0.  1.
         11    1    4    4    0    0 -0.15392970062E+02 -0.15983191452E+02 -0.30295997846E+02  0.37553341021E+02  0.00000000000E+00 0. -1.
</event>
<event>
 8    1  0.6380238E-009  0.8082960E+02  0.7561462E-02  0.1326714E+00
          4   -1    0    0  501    0  0.00000000000E+00  0.00000000000E+00  0.83373246065E+02  0.83373246065E+02  0.00000000000E+00 0. -1.
         -4   -1    0    0    0  501 -0.00000000000E+00 -0.00000000000E+00 -0.15548533320E+03  0.15548533320E+03  0.00000000000E+00 0.  1.
         25    2    1    2    0    0  0.23755725978E+02 -0.10037107805E+02 -0.60499539648E+02  0.14133660903E+03  0.12510301637E+03 0.  0.
         23    2    1    2    0    0 -0.23755725978E+02  0.10037107805E+02 -0.11612547485E+02  0.97521970236E+02  0.93330623966E+02 0.  0.
          5    1    3    3  502    0  0.34476171872E+02  0.45554678275E+02 -0.62177103048E+02  0.84541703810E+02  0.41800000000E+01 0.  1.
         -5    1    3    3    0  502 -0.10720445893E+02 -0.55591786080E+02  0.16775633994E+01  0.56794905217E+02  0.41800000000E+01 0.  1.
        -11    1    4    4    0    0 -0.17727962014E+01  0.22343140329E+02  0.36718661730E+02  0.43018819665E+02  0.00000000000E+00 0. -1.
         11    1    4    4    0    0 -0.21982929777E+02 -0.12306032524E+02 -0.48331209215E+02  0.54503150571E+02  0.00000000000E+00 0.  1.
</event>
<event>
 8    1  0.6380238E-009  0.1104925E+03  0.7561462E-02  0.1259661E+00
         -1   -1    0    0    0  501 -0.00000000000E+00  0.00000000000E+00  0.23852376898E+02  0.23852376898E+02  0.00000000000E+00 0.  1.
          1   -1    0    0  501    0  0.00000000000E+00 -0.00000000000E+00 -0.12175930194E+04  0.12175930194E+04  0.00000000000E+00 0. -1.
         25    2    1    2    0    0  0.10113868888E+02  0.92042991775E+02 -0.98128620195E+03  0.99355143984E+03  0.12509057034E+03 0.  0.
         23    2    1    2    0    0 -0.10113868888E+02 -0.92042991775E+02 -0.21245444058E+03  0.24789395649E+03  0.87979097872E+02 0.  0.
          5    1    3    3  502    0 -0.18793541376E+02  0.71281666482E+01 -0.22074755371E+02  0.30145898260E+02  0.41800000000E+01 0.  1.
         -5    1    3    3    0  502  0.28907410264E+02  0.84914825126E+02 -0.95921144658E+03  0.96340554158E+03  0.41800000000E+01 0.  1.
        -11    1    4    4    0    0 -0.35640678582E+02 -0.58564568436E+02 -0.64728084081E+02  0.94285690933E+02  0.00000000000E+00 0.  1.
         11    1    4    4    0    0  0.25526809693E+02 -0.33478423338E+02 -0.14772635650E+03  0.15360826556E+03  0.00000000000E+00 0. -1.
</event>
<event>
 8    1  0.6380238E-009  0.8345681E+02  0.7561462E-02  0.1319518E+00
          2   -1    0    0  501    0  0.00000000000E+00  0.00000000000E+00  0.23839477329E+03  0.23839477329E+03  0.00000000000E+00 0.  1.
         -2   -1    0    0    0  501 -0.00000000000E+00 -0.00000000000E+00 -0.61034792221E+02  0.61034792221E+02  0.00000000000E+00 0. -1.
         25    2    1    2    0    0 -0.14675291572E+01  0.39690586357E+02  0.58356079536E+02  0.14362827228E+03  0.12508458055E+03 0.  0.
         23    2    1    2    0    0  0.14675291572E+01 -0.39690586357E+02  0.11900390154E+03  0.15580129324E+03  0.92382996846E+02 0.  0.
          5    1    3    3  502    0  0.33849318022E+02  0.14491017298E+02  0.84872439251E+02  0.92609768692E+02  0.41800000000E+01 0. -1.
         -5    1    3    3    0  502 -0.35316847179E+02  0.25199569059E+02 -0.26516359715E+02  0.51018503584E+02  0.41800000000E+01 0. -1.
        -11    1    4    4    0    0 -0.22373622262E+02 -0.54008880235E+02  0.36938973324E+02  0.69152193512E+02  0.00000000000E+00 0. -1.
         11    1    4    4    0    0  0.23841151419E+02  0.14318293878E+02  0.82064928212E+02  0.86649099724E+02  0.00000000000E+00 0.  1.
</event>
<event>
 8    1  0.6380238E-009  0.8968339E+02  0.7561462E-02  0.1303620E+00
          2   -1    0    0  501    0  0.00000000000E+00  0.00000000000E+00  0.10888628239E+04  0.10888628239E+04  0.00000000000E+00 0. -1.
         -2   -1    0    0    0  501 -0.00000000000E+00 -0.00000000000E+00 -0.27431735182E+02  0.27431735182E+02  0.00000000000E+00 0.  1.
         25    2    1    2    0    0  0.26008096181E+02 -0.14381115768E+02  0.98901357730E+03  0.99733592229E+03  0.12509135961E+03 0.  0.
         23    2    1    2    0    0 -0.26008096181E+02  0.14381115768E+02  0.72417511424E+02  0.11895863680E+03  0.89574682530E+02 0.  0.
          5    1    3    3  502    0  0.60096396065E+02 -0.75712569816E+01  0.24192952176E+03  0.24943188780E+03  0.41800000000E+01 0. -1.
         -5    1    3    3    0  502 -0.34088299884E+02 -0.68098587865E+01  0.74708405554E+03  0.74790403449E+03  0.41800000000E+01 0. -1.
        -11    1    4    4    0    0  0.28188000149E+02  0.55160607939E+01  0.53773514546E+02  0.60963769123E+02  0.00000000000E+00 0. -1.
         11    1    4    4    0    0 -0.54196096330E+02  0.88650549742E+01  0.18643996878E+02  0.57994867675E+02  0.00000000000E+00 0.  1.
</event>
<event>
 8    1  0.6380238E-009  0.1278278E+03  0.7561462E-02  0.1230715E+00
         -2   -1    0    0    0  501 -0.00000000000E+00  0.00000000000E+00  0.41547141025E+02  0.41547141025E+02  0.00000000000E+00 0.  1.
          2   -1    0    0  501    0  0.00000000000E+00 -0.00000000000E+00 -0.46412151231E+03  0.46412151231E+03  0.00000000000E+00 0. -1.
         25    2    1    2    0    0  0.68111715685E+02  0.20631888633E+02 -0.32049591769E+03  0.35132612148E+03  0.12509008646E+03 0.  0.
         23    2    1    2    0    0 -0.68111715685E+02 -0.20631888633E+02 -0.10207845359E+03  0.15434253186E+03  0.91305672392E+02 0.  0.
          5    1    3    3  502    0 -0.27721359383E+02  0.33519847190E+02 -0.13800028983E+03  0.14475360553E+03  0.41800000000E+01 0. -1.
         -5    1    3    3    0  502  0.95833075068E+02 -0.12887958558E+02 -0.18249562787E+03  0.20657251594E+03  0.41800000000E+01 0. -1.
        -11    1    4    4    0    0  0.18798528788E+02 -0.21100461283E+02 -0.32044792860E+02  0.42725670274E+02  0.00000000000E+00 0. -1.
         11    1    4    4    0    0 -0.86910244473E+02  0.46857265003E+00 -0.70033660727E+02  0.11161686158E+03  0.00000000000E+00 0.  1.
</event>
<event>
 8    1  0.6380238E-009  0.9937092E+02  0.7561462E-02  0.1281624E+00
         -2   -1    0    0    0  501 -0.00000000000E+00  0.00000000000E+00  0.74506576382E+02  0.74506576382E+02  0.00000000000E+00 0.  1.
          2   -1    0    0  501    0  0.00000000000E+00 -0.00000000000E+00 -0.18957631537E+03  0.18957631537E+03  0.00000000000E+00 0. -1.
         25    2    1    2    0    0  0.25536991077E+02 -0.22158676854E+02 -0.97689208217E+02  0.16227556799E+03  0.12508810372E+03 0.  0.
         23    2    1    2    0    0 -0.25536991077E+02  0.22158676854E+02 -0.17380530773E+02  0.10180732376E+03  0.94443122825E+02 0.  0.
          5    1    3    3  502    0 -0.23222520043E+02  0.22957180713E+02  0.11097794336E+02  0.34741200649E+02  0.41800000000E+01 0.  1.
         -5    1    3    3    0  502  0.48759511119E+02 -0.45115857566E+02 -0.10878700255E+03  0.12753436734E+03  0.41800000000E+01 0.  1.
        -11    1    4    4    0    0 -0.59908092255E+02  0.31697026887E+01 -0.32687234293E+01  0.60080871213E+02  0.00000000000E+00 0.  1.
         11    1    4    4    0    0  0.34371101179E+02  0.18988974165E+02 -0.14111807344E+02  0.41726452552E+02  0.00000000000E+00 0. -1.
</event>
<event>
 7    1  0.6380238E-009  0.3058761E+03  0.7561462E-02  0.1082340E+00
         -1   -1    0    0    0  501 -0.00000000000E+00  0.00000000000E+00  0.70906831417E+02  0.70906831417E+02  0.00000000000E+00 0.  1.
          1   -1    0    0  501    0  0.00000000000E+00 -0.00000000000E+00 -0.20724822102E+04  0.20724822102E+04  0.00000000000E+00 0. -1.
         25    2    1    2    0    0  0.27105059568E+03 -0.92765223561E+02 -0.15823774961E+04  0.16129598401E+04  0.12508834328E+03 0.  0.
          5    1    3    3  502    0  0.83772692359E+02 -0.51070046627E+02 -0.85765818797E+03  0.86326186841E+03  0.41800000000E+01 0.  1.
         -5    1    3    3    0  502  0.18727790332E+03 -0.41695176933E+02 -0.72471930811E+03  0.74969797171E+03  0.41800000000E+01 0.  1.
        -11    1    1    2    0    0 -0.63784647680E+01  0.53729754910E+02 -0.44683136680E+02  0.70172317042E+02  0.00000000000E+00 0.  1.
         11    1    1    2    0    0 -0.26467213091E+03  0.39035468651E+02 -0.37451474599E+03  0.46025688442E+03  0.00000000000E+00 0. -1.
</event>
<event>
 8    1  0.6380238E-009  0.8681242E+02  0.7561462E-02  0.1310760E+00
          1   -1    0    0  501    0  0.00000000000E+00  0.00000000000E+00  0.10382030919E+04  0.10382030919E+04  0.00000000000E+00 0. -1.
         -1   -1    0    0    0  501 -0.00000000000E+00 -0.00000000000E+00 -0.14966895278E+02  0.14966895278E+02  0.00000000000E+00 0.  1.
         25    2    1    2    0    0 -0.13103189337E+02  0.42362514690E+02  0.75298090481E+03  0.76458694316E+03  0.12508666766E+03 0.  0.
         23    2    1    2    0    0  0.13103189337E+02 -0.42362514690E+02  0.27025529180E+03  0.28858304401E+03  0.90972382169E+02 0.  0.
          5    1    3    3  502    0  0.45404411102E+02  0.26020624408E+02  0.15789520298E+03  0.16639411337E+03  0.41800000000E+01 0.  1.
         -5    1    3    3    0  502 -0.58507600439E+02  0.16341890282E+02  0.59508570183E+03  0.59819282979E+03  0.41800000000E+01 0.  1.
        -11    1    4    4    0    0  0.40132904951E+01 -0.48883868262E+02  0.27274663818E+03  0.27712175612E+03  0.00000000000E+00 0. -1.
         11    1    4    4    0    0  0.90898988423E+01  0.65213535714E+01 -0.24913463703E+01  0.11461287890E+02  0.00000000000E+00 0.  1.
</event>
<event>
 8    1  0.6380238E-009  0.2335586E+03  0.7561462E-02  0.1124160E+00
         -2   -1    0    0    0  501 -0.00000000000E+00  0.00000000000E+00  0.40202975466E+02  0.40202975466E+02  0.00000000000E+00 0.  1.
          2   -1    0    0  501    0  0.00000000000E+00 -0.00000000000E+00 -0.16057399051E+04  0.16057399051E+04  0.00000000000E+00 0. -1.
         25    2    1    2    0    0 -0.22271901434E+03 -0.28396899731E+02 -0.96481439440E+03  0.99846165105E+03  0.12509480287E+03 0.  0.
         23    2    1    2    0    0  0.22271901434E+03  0.28396899731E+02 -0.60072253523E+03  0.64748122952E+03  0.89186517942E+02 0.  0.
          5    1    3    3  502    0 -0.25404296373E+02  0.24877745035E+02 -0.32055930290E+03  0.32255235164E+03  0.41800000000E+01 0. -1.
         -5    1    3    3    0  502 -0.19731471796E+03 -0.53274644766E+02 -0.64425509150E+03  0.67590929941E+03  0.41800000000E+01 0. -1.
        -11    1    4    4    0    0  0.18661042771E+03  0.35850206891E+02 -0.39320388198E+03  0.43671269946E+03  0.00000000000E+00 0.  1.
         11    1    4    4    0    0  0.36108586623E+02 -0.74533071599E+01 -0.20751865326E+03  0.21076853007E+03  0.00000000000E+00 0. -1.
</event>
<event>
 8    1  0.6380238E-009  0.1397214E+03  0.7561462E-02  0.1213704E+00
         -2   -1    0    0    0  501 -0.00000000000E+00  0.00000000000E+00  0.97764562581E+02  0.97764562581E+02  0.00000000000E+00 0.  1.
          2   -1    0    0  501    0  0.00000000000E+00 -0.00000000000E+00 -0.20968624369E+03  0.20968624369E+03  0.00000000000E+00 0. -1.
         25    2    1    2    0    0  0.91443766195E+02 -0.15171810301E+02 -0.63778705137E+02  0.16824802559E+03  0.12509008227E+03 0.  0.
         23    2    1    2    0    0 -0.91443766195E+02  0.15171810301E+02 -0.48142975967E+02  0.13920278067E+03  0.92019138274E+02 0.  0.
          5    1    3    3  502    0  0.11324049142E+03 -0.35731691436E+02 -0.29298011812E+02  0.12237650333E+03  0.41800000000E+01 0. -1.
         -5    1    3    3    0  502 -0.21796725225E+02  0.20559881136E+02 -0.34480693325E+02  0.45871522266E+02  0.41800000000E+01 0. -1.
        -11    1    4    4    0    0  0.11683411871E+02 -0.18505317105E+02 -0.49764483741E+01  0.22443571742E+02  0.00000000000E+00 0.  1.
         11    1    4    4    0    0 -0.10312717807E+03  0.33677127405E+02 -0.43166527593E+02  0.11675920893E+03  0.00000000000E+00 0. -1.
</event>
<event>
 8    1  0.6380238E-009  0.9854873E+02  0.7561462E-02  0.1283378E+00
         -2   -1    0    0    0  501 -0.00000000000E+00  0.00000000000E+00  0.12381936710E+03  0.12381936710E+03  0.00000000000E+00 0.  1.
          2   -1    0    0  501    0  0.00000000000E+00 -0.00000000000E+00 -0.14144752808E+03  0.14144752808E+03  0.00000000000E+00 0. -1.
         25    2    1    2    0    0  0.71823729730E+02  0.23361810957E+02 -0.95849071500E+00  0.14612629643E+03  0.12509018123E+03 0.  0.
         23    2    1    2    0    0 -0.71823729730E+02 -0.23361810957E+02 -0.16669670263E+02  0.11914059876E+03  0.90621090277E+02 0.  0.
          5    1    3    3  502    0  0.34689915114E+02  0.49293691014E+02 -0.50590769121E+02  0.78804546218E+02  0.41800000000E+01 0. -1.
         -5    1    3    3    0  502  0.37133814616E+02 -0.25931880057E+02  0.49632278406E+02  0.67321750207E+02  0.41800000000E+01 0. -1.
        -11    1    4    4    0    0  0.40751336815E+01 -0.14162550293E+02 -0.37170504090E+02  0.39985383825E+02  0.00000000000E+00 0. -1.
         11    1    4    4    0    0 -0.75898863411E+02 -0.91992606644E+01  0.20500833827E+02  0.79155214936E+02  0.00000000000E+00 0.  1.
</event>
<event>
 8    1  0.6380238E-009  0.7620931E+02  0.7561462E-02  0.1340167E+00
          1   -1    0    0  501    0  0.00000000000E+00  0.00000000000E+00  0.22937054393E+03  0.22937054393E+03  0.00000000000E+00 0. -1.
         -1   -1    0    0    0  501 -0.00000000000E+00 -0.00000000000E+00 -0.66161749559E+02  0.66161749559E+02  0.00000000000E+00 0.  1.
         25    2    1    2    0    0  0.39721742001E+02  0.18668407957E+02  0.13598196910E+03  0.18990759026E+03  0.12508985040E+03 0.  0.
         23    2    1    2    0    0 -0.39721742001E+02 -0.18668407957E+02  0.27226825275E+02  0.10562470324E+03  0.92135507139E+02 0.  0.
          5    1    3    3  502    0  0.32228149432E+02 -0.37881819597E+02  0.12083666566E+03  0.13073889260E+03  0.41800000000E+01 0.  1.
         -5    1    3    3    0  502  0.74935925689E+01  0.56550227554E+02  0.15145303445E+02  0.59168697657E+02  0.41800000000E+01 0.  1.
        -11    1    4    4    0    0 -0.15097528877E+02 -0.12534193926E+01  0.59531806563E+02  0.61429165964E+02  0.00000000000E+00 0. -1.
         11    1    4    4    0    0 -0.24624213124E+02 -0.17414988564E+02 -0.32304981288E+02  0.44195537271E+02  0.00000000000E+00 0.  1.
</event>
<event>
 8    1  0.6380238E-009  0.1036663E+03  0.7561462E-02  0.1272770E+00
          1   -1    0    0  501    0  0.00000000000E+00  0.00000000000E+00  0.19394816126E+03  0.19394816126E+03  0.00000000000E+00 0. -1.
         -1   -1    0    0    0  501 -0.00000000000E+00 -0.00000000000E+00 -0.68733376407E+02  0.68733376407E+02  0.00000000000E+00 0.  1.
         25    2    1    2    0    0  0.75342885298E+01  0.27515540171E+02  0.40568869898E+02  0.13456802958E+03  0.12509536732E+03 0.  0.
         23    2    1    2    0    0 -0.75342885298E+01 -0.27515540171E+02  0.84645914953E+02  0.12811350809E+03  0.91838279502E+02 0.  0.
          5    1    3    3  502    0  0.58960155029E+02  0.21179792170E+01  0.48535592079E+02  0.76511187518E+02  0.41800000000E+01 0. -1.
         -5    1    3    3    0  502 -0.51425866499E+02  0.25397560954E+02 -0.79667221803E+01  0.58056842059E+02  0.41800000000E+01 0. -1.
        -11    1    4    4    0    0 -0.42245103811E+02  0.57100002648E+01  0.61369968617E+02  0.74722994769E+02  0.00000000000E+00 0.  1.
         11    1    4    4    0    0  0.34710815282E+02 -0.33225540436E+02  0.23275946336E+02  0.53390513320E+02  0.00000000000E+00 0. -1.
</event>
<event>
 8    1  0.6380238E-009  0.8216662E+02  0.7561462E-02  0.1323013E+00
         -1   -1    0    0    0  501 -0.00000000000E+00  0.00000000000E+00  0.14301092099E+03  0.14301092099E+03  0.00000000000E+00 0.  1.
          1   -1    0    0  501    0  0.00000000000E+00 -0.00000000000E+00 -0.98825921976E+02  0.98825921976E+02  0.00000000000E+00 0. -1.
         25    2    1    2    0    0  0.97032062900E+01 -0.77899167840E+01 -0.21912751324E+02  0.12760606449E+03  0.12509318130E+03 0.  0.
         23    2    1    2    0    0 -0.97032062900E+01  0.77899167840E+01  0.66097750342E+02  0.11423077848E+03  0.92330510324E+02 0.  0.
          5    1    3    3  502    0 -0.33861613033E+01  0.55889855810E+02  0.65215978896E+01  0.56525619943E+02  0.41800000000E+01 0. -1.
         -5    1    3    3    0  502  0.13089367593E+02 -0.63679772594E+02 -0.28434349213E+02  0.71080444546E+02  0.41800000000E+01 0. -1.
        -11    1    4    4    0    0  0.74425658167E+01 -0.13674063370E+02 -0.19141961455E+02  0.24673598913E+02  0.00000000000E+00 0. -1.
         11    1    4    4    0    0 -0.17145772107E+02  0.21463980154E+02  0.85239711797E+02  0.89557179570E+02  0.00000000000E+00 0.  1.
</event>
<event>
 8    1  0.6380238E-009  0.1138273E+03  0.7561462E-02  0.1253642E+00
         -1   -1    0    0    0  501 -0.00000000000E+00  0.00000000000E+00  0.14774382860E+03  0.14774382860E+03  0.00000000000E+00 0.  1.
          1   -1    0    0  501    0  0.00000000000E+00 -0.00000000000E+00 -0.12441018548E+03  0.12441018548E+03  0.00000000000E+00 0. -1.
         25    2    1    2    0    0  0.80048795298E+02 -0.48887717985E+01  0.20064081182E+02  0.14993923827E+03  0.12508996003E+03 0.  0.
         23    2    1    2    0    0 -0.80048795298E+02  0.48887717985E+01  0.32695619346E+01  0.12221477580E+03  0.92163179584E+02 0.  0.
          5    1    3    3  502    0 -0.10472261976E+02  0.43292599593E+02 -0.26867565457E+01  0.44817502286E+02  0.41800000000E+01 0. -1.
         -5    1    3    3    0  502  0.90521057274E+02 -0.48181371392E+02  0.22750837727E+02  0.10512173598E+03  0.41800000000E+01 0. -1.
        -11    1    4    4    0    0 -0.68517042474E+02  0.28467581689E+01  0.42900502227E+02  0.80889691758E+02  0.00000000000E+00 0.  1.
         11    1    4    4    0    0 -0.11531752824E+02  0.20420136296E+01 -0.39630940293E+02  0.41325084045E+02  0.00000000000E+00 0. -1.
</event>
<event>
 8    1  0.6380238E-009  0.9829876E+02  0.7561462E-02  0.1283915E+00
          4   -1    0    0  501    0  0.00000000000E+00  0.00000000000E+00  0.64615070152E+03  0.64615070152E+03  0.00000000000E+00 0. -1.
         -4   -1    0    0    0  501 -0.00000000000E+00 -0.00000000000E+00 -0.19099499601E+02  0.19099499601E+02  0.00000000000E+00 0.  1.
         25    2    1    2    0    0  0.19326530061E+02 -0.11896065305E+02  0.30270009590E+03  0.32831476479E+03  0.12509278792E+03 0.  0.
         23    2    1    2    0    0 -0.19326530061E+02  0.11896065305E+02  0.32435110602E+03  0.33693543633E+03  0.88356194710E+02 0.  0.
          5    1    3    3  502    0 -0.36753726482E+02 -0.36083657364E+02  0.65981308053E+02  0.83808544621E+02  0.41800000000E+01 0.  1.
         -5    1    3    3    0  502  0.56080256543E+02  0.24187592059E+02  0.23671878784E+03  0.24450622017E+03  0.41800000000E+01 0.  1.
        -11    1    4    4    0    0 -0.11484997498E+02 -0.34649760832E+02  0.78211189699E+02  0.86310493495E+02  0.00000000000E+00 0.  1.
         11    1    4    4    0    0 -0.78415325638E+01  0.46545826137E+02  0.24613991632E+03  0.25062494283E+03  0.00000000000E+00 0. -1.
</event>
<event>
 8    1  0.6380238E-009  0.1128483E+03  0.7561462E-02  0.1255384E+00
         -1   -1    0    0    0  501 -0.00000000000E+00  0.00000000000E+00  0.55891870090E+03  0.55891870090E+03  0.00000000000E+00 0.  1.
          1   -1    0    0  501    0  0.00000000000E+00 -0.00000000000E+00 -0.34081986168E+02  0.34081986168E+02  0.00000000000E+00 0. -1.
         25    2    1    2    0    0  0.21344189119E+02  0.69896845378E+02  0.35149556127E+03  0.38018194418E+03  0.12509211680E+03 0.  0.
         23    2    1    2    0    0 -0.21344189119E+02 -0.69896845378E+02  0.17334115347E+03  0.21281874289E+03  0.99516422954E+02 0.  0.
          5    1    3    3  502    0  0.20930931561E+02 -0.98793764694E+01  0.24959090368E+03  0.25069662457E+03  0.41800000000E+01 0.  1.
         -5    1    3    3    0  502  0.41325755752E+00  0.79776221848E+02  0.10190465759E+03  0.12948531960E+03  0.41800000000E+01 0.  1.
        -11    1    4    4    0    0  0.21841073900E+02 -0.75634998255E+02  0.97053065755E+02  0.12496792806E+03  0.00000000000E+00 0. -1.
         11    1    4    4    0    0 -0.43185263019E+02  0.57381528765E+01  0.76288087715E+02  0.87850814838E+02  0.00000000000E+00 0.  1.
</event>
<event>
 8    1  0.6380238E-009  0.2069805E+03  0.7561462E-02  0.1143980E+00
          3   -1    0    0  501    0  0.00000000000E+00  0.00000000000E+00  0.37639397202E+03  0.37639397202E+03  0.00000000000E+00 0. -1.
         -3   -1    0    0    0  501 -0.00000000000E+00 -0.00000000000E+00 -0.15049050818E+03  0.15049050818E+03  0.00000000000E+00 0.  1.
         25    2    1    2    0    0  0.38036343078E+02  0.20084484070E+03  0.17683532586E+03  0.29783055468E+03  0.12508754295E+03 0.  0.
         23    2    1    2    0    0 -0.38036343078E+02 -0.20084484070E+03  0.49068137982E+02  0.22905392552E+03  0.90953863029E+02 0.  0.
          5    1    3    3  502    0  0.43806773774E+02  0.19563778120E+03  0.10670830781E+03  0.22715041320E+03  0.41800000000E+01 0.  1.
         -5    1    3    3    0  502 -0.57704306957E+01  0.52070594964E+01  0.70127018055E+02  0.70680141485E+02  0.41800000000E+01 0.  1.
        -11    1    4    4    0    0 -0.12719929194E+02 -0.46759477783E+02 -0.26877721113E+02  0.55413511470E+02  0.00000000000E+00 0.  1.
         11    1    4    4    0    0 -0.25316413885E+02 -0.15408536291E+03  0.75945859095E+02  0.17364041405E+03  0.00000000000E+00 0. -1.
</event>
<event>
 8    1  0.6380238E-009  0.1435169E+03  0.7561462E-02  0.1208673E+00
          1   -1    0    0  501    0  0.00000000000E+00  0.00000000000E+00  0.50014661578E+03  0.50014661578E+03  0.00000000000E+00 0. -1.
         -1   -1    0    0    0  501 -0.00000000000E+00 -0.00000000000E+00 -0.43100015961E+02  0.43100015961E+02  0.00000000000E+00 0.  1.
         25    2    1    2    0    0  0.58173510403E+02  0.75292677229E+02  0.20846299554E+03  0.26107079294E+03  0.12509194164E+03 0.  0.
         23    2    1    2    0    0 -0.58173510403E+02 -0.75292677229E+02  0.24858360429E+03  0.28217583880E+03  0.93681647762E+02 0.  0.
          5    1    3    3  502    0  0.59974888538E+02  0.10735255548E+03  0.14784921332E+03  0.19234973538E+03  0.41800000000E+01 0.  1.
         -5    1    3    3    0  502 -0.18013781350E+01 -0.32059878254E+02  0.60613782218E+02  0.68721057556E+02  0.41800000000E+01 0.  1.
        -11    1    4    4    0    0  0.61793968732E+01 -0.66353874341E+02  0.14963152376E+03  0.16380053263E+03  0.00000000000E+00 0.  1.
         11    1    4    4    0    0 -0.64352907276E+02 -0.89388028873E+01  0.98952080522E+02  0.11837530617E+03  0.00000000000E+00 0. -1.
</event>
<event>
 8    1  0.6380238E-009  0.1285764E+03  0.7561462E-02  0.1229583E+00
         -2   -1    0    0    0  501 -0.00000000000E+00  0.00000000000E+00  0.13810085894E+03  0.13810085894E+03  0.00000000000E+00 0.  1.
          2   -1    0    0  501    0  0.00000000000E+00 -0.00000000000E+00 -0.18385913164E+03  0.18385913164E+03  0.00000000000E+00 0. -1.
         25    2    1    2    0    0  0.70693078670E+02 -0.36681710577E+02  0.61420577202E+02  0.16050918795E+03  0.12509057857E+03 0.  0.
         23    2    1    2    0    0 -0.70693078670E+02  0.36681710577E+02 -0.10717884989E+03  0.16145080264E+03  0.90752391396E+02 0.  0.
          5    1    3    3  502    0 -0.22009636136E+02 -0.42418329941E+02 -0.19200773371E+01  0.48009352160E+02  0.41800000000E+01 0.  1.
         -5    1    3    3    0  502  0.92702714806E+02  0.57366193640E+01  0.63340654539E+02  0.11249983579E+03  0.41800000000E+01 0.  1.
        -11    1    4    4    0    0 -0.89846956548E+02  0.23227272790E+02 -0.10116810207E+03  0.13728425503E+03  0.00000000000E+00 0. -1.
         11    1    4    4    0    0  0.19153877877E+02  0.13454437787E+02 -0.60107478272E+01  0.24166547609E+02  0.00000000000E+00 0.  1.
</event>
<event>
 8    1  0.6380238E-009  0.8796513E+02  0.7561462E-02  0.1307856E+00
         -1   -1    0    0    0  501 -0.00000000000E+00  0.00000000000E+00  0.12989274688E+03  0.12989274688E+03  0.00000000000E+00 0. -1.
          1   -1    0    0  501    0  0.00000000000E+00 -0.00000000000E+00 -0.14825069442E+03  0.14825069442E+03  0.00000000000E+00 0.  1.
         25    2    1    2    0    0 -0.96618777525E+01  0.84082718233E+02 -0.26204595819E+02  0.15329181708E+03  0.12509374466E+03 0.  0.
         23    2    1    2    0    0  0.96618777525E+01 -0.84082718233E+02  0.78466482782E+01  0.12485162423E+03  0.91450001619E+02 0.  0.
          5    1    3    3  502    0 -0.87034228300E+01  0.61368171387E+02  0.46114580180E+02  0.77368139008E+02  0.41800000000E+01 0.  1.
         -5    1    3    3    0  502 -0.95845492249E+00  0.22714546846E+02 -0.72319175999E+02  0.75923678068E+02  0.41800000000E+01 0.  1.
        -11    1    4    4    0    0 -0.11479525296E+02 -0.42765065120E+02 -0.38928132845E+02  0.58957864807E+02  0.00000000000E+00 0.  1.
         11    1    4    4    0    0  0.21141403049E+02 -0.41317653113E+02  0.46774781123E+02  0.65893759422E+02  0.00000000000E+00 0. -1.
</event>
<event>
 8    1  0.6380238E-009  0.1824905E+03  0.7561462E-02  0.1165414E+00
          1   -1    0    0  501    0  0.00000000000E+00  0.00000000000E+00  0.77534572468E+03  0.77534572468E+03  0.00000000000E+00 0. -1.
         -1   -1    0    0    0  501 -0.00000000000E+00 -0.00000000000E+00 -0.44252368401E+02  0.44252368401E+02  0.00000000000E+00 0.  1.
         25    2    1    2    0    0 -0.14115760462E+03 -0.43003579730E+02  0.44237090992E+03  0.48281934460E+03  0.12509084842E+03 0.  0.
         23    2    1    2    0    0  0.14115760462E+03  0.43003579730E+02  0.28872244636E+03  0.33677874849E+03  0.91019213299E+02 0.  0.
          5    1    3    3  502    0 -0.14145103380E+03 -0.74665487972E+02  0.38902144075E+03  0.42064056369E+03  0.41800000000E+01 0. -1.
         -5    1    3    3    0  502  0.29342917688E+00  0.31661908242E+02  0.53349469176E+02  0.62178780911E+02  0.41800000000E+01 0. -1.
        -11    1    4    4    0    0  0.12284108210E+03 -0.36758069042E+01  0.21432672451E+03  0.24706150620E+03  0.00000000000E+00 0. -1.
         11    1    4    4    0    0  0.18316522520E+02  0.46679386634E+02  0.74395721855E+02  0.89717242290E+02  0.00000000000E+00 0.  1.
</event>
<event>
 8    1  0.6380238E-009  0.1224169E+03  0.7561462E-02  0.1239162E+00
          2   -1    0    0  501    0  0.00000000000E+00  0.00000000000E+00  0.97605277309E+02  0.97605277309E+02  0.00000000000E+00 0. -1.
         -2   -1    0    0    0  501 -0.00000000000E+00 -0.00000000000E+00 -0.22910694184E+03  0.22910694184E+03  0.00000000000E+00 0.  1.
         25    2    1    2    0    0 -0.80632939890E+02  0.50224078208E+02 -0.11351496343E+03  0.19379280322E+03  0.12508347065E+03 0.  0.
         23    2    1    2    0    0  0.80632939890E+02 -0.50224078208E+02 -0.17986701099E+02  0.13291941593E+03  0.91213599244E+02 0.  0.
          5    1    3    3  502    0  0.22234522139E+02  0.26555891636E+02 -0.72528067838E+02  0.80482186723E+02  0.41800000000E+01 0.  1.
         -5    1    3    3    0  502 -0.10286746203E+03  0.23668186572E+02 -0.40986895590E+02  0.11331061649E+03  0.41800000000E+01 0.  1.
        -11    1    4    4    0    0  0.23757571478E+02  0.58212308860E+01  0.30811116853E+02  0.39339977800E+02  0.00000000000E+00 0. -1.
         11    1    4    4    0    0  0.56875368413E+02 -0.56045309094E+02 -0.48797817952E+02  0.93579438128E+02  0.00000000000E+00 0.  1.
</event>
<event>
 8    1  0.6380238E-009  0.9045586E+02  0.7561462E-02  0.1301752E+00
          2   -1    0    0  501    0  0.00000000000E+00  0.00000000000E+00  0.35002956013E+03  0.35002956013E+03  0.00000000000E+00 0. -1.
         -2   -1    0    0    0  501 -0.00000000000E+00 -0.00000000000E+00 -0.41732748630E+02  0.41732748630E+02  0.00000000000E+00 0.  1.
         25    2    1    2    0    0 -0.18635332120E+02 -0.25685023289E+02  0.24371041986E+03  0.27578113104E+03  0.12511381803E+03 0.  0.
         23    2    1    2    0    0  0.18635332120E+02  0.25685023289E+02  0.64586391633E+02  0.11598117772E+03  0.90957328328E+02 0.  0.
          5    1    3    3  502    0  0.17796428892E+02 -0.68450833708E+02  0.11199384671E+03  0.13252291733E+03  0.41800000000E+01 0.  1.
         -5    1    3    3    0  502 -0.36431761012E+02  0.42765810419E+02  0.13171657315E+03  0.14325821371E+03  0.41800000000E+01 0.  1.
        -11    1    4    4    0    0  0.15235901774E+02  0.38005532117E+02 -0.84722110367E+01  0.41813054591E+02  0.00000000000E+00 0.  1.
         11    1    4    4    0    0  0.33994303456E+01 -0.12320508828E+02  0.73058602669E+02  0.74168123129E+02  0.00000000000E+00 0. -1.
</event>
<event>
 8    1  0.6380238E-009  0.1050606E+03  0.7561462E-02  0.1270000E+00
          2   -1    0    0  501    0  0.00000000000E+00  0.00000000000E+00  0.11440724475E+04  0.11440724475E+04  0.00000000000E+00 0. -1.
         -2   -1    0    0    0  501 -0.00000000000E+00 -0.00000000000E+00 -0.14415527922E+02  0.14415527922E+02  0.00000000000E+00 0.  1.
         25    2    1    2    0    0 -0.27563001703E+02  0.23859045394E+02  0.88803857474E+03  0.89754658814E+03  0.12509354315E+03 0.  0.
         23    2    1    2    0    0  0.27563001703E+02 -0.23859045394E+02  0.24161834485E+03  0.26094138730E+03  0.91553317401E+02 0.  0.
          5    1    3    3  502    0  0.36094920108E+02 -0.24500701683E+02  0.46028727284E+03  0.46236887177E+03  0.41800000000E+01 0.  1.
         -5    1    3    3    0  502 -0.63657921812E+02  0.48359747077E+02  0.42775130190E+03  0.43517771637E+03  0.41800000000E+01 0.  1.
        -11    1    4    4    0    0  0.30704165278E+02  0.23571827630E+02  0.17420836822E+03  0.17845708834E+03  0.00000000000E+00 0. -1.
         11    1    4    4    0    0 -0.31411635748E+01 -0.47430873024E+02  0.67409976637E+02  0.82484298958E+02  0.00000000000E+00 0.  1.
</event>
<event>
 8    1  0.6380238E-009  0.7695509E+02  0.7561462E-02  0.1337921E+00
         -1   -1    0    0    0  501 -0.00000000000E+00  0.00000000000E+00  0.16975085447E+03  0.16975085447E+03  0.00000000000E+00 0.  1.
          1   -1    0    0  501    0  0.00000000000E+00 -0.00000000000E+00 -0.77255605864E+02  0.77255605864E+02  0.00000000000E+00 0. -1.
         25    2    1    2    0    0 -0.45589362073E+01 -0.16270553704E+02  0.87984517429E+02  0.15386270958E+03  0.12508774230E+03 0.  0.
         23    2    1    2    0    0  0.45589362073E+01  0.16270553704E+02  0.45107311732E+01  0.93143750756E+02  0.91487140036E+02 0.  0.
          5    1    3    3  502    0  0.52827495986E+02 -0.13074710288E+02  0.78266625550E+01  0.55140016576E+02  0.41800000000E+01 0. -1.
         -5    1    3    3    0  502 -0.57386432193E+02 -0.31958434152E+01  0.80157854874E+02  0.98722692999E+02  0.41800000000E+01 0. -1.
        -11    1    4    4    0    0 -0.16831478387E+02  0.52032322434E+01  0.43715743441E+02  0.47132138877E+02  0.00000000000E+00 0.  1.
         11    1    4    4    0    0  0.21390414595E+02  0.11067321460E+02 -0.39205012268E+02  0.46011611879E+02  0.00000000000E+00 0. -1.
</event>
<event>
 8    1  0.6380238E-009  0.1654260E+03  0.7561462E-02  0.1182703E+00
         -2   -1    0    0    0  501 -0.00000000000E+00  0.00000000000E+00  0.41064463778E+02  0.41064463778E+02  0.00000000000E+00 0.  1.
          2   -1    0    0  501    0  0.00000000000E+00 -0.00000000000E+00 -0.80967212238E+03  0.80967212238E+03  0.00000000000E+00 0. -1.
         25    2    1    2    0    0  0.30923691884E+02  0.12272559701E+03 -0.56427965683E+03  0.59167293529E+03  0.12508990512E+03 0.  0.
         23    2    1    2    0    0 -0.30923691884E+02 -0.12272559701E+03 -0.20432800177E+03  0.25906365086E+03  0.96675726068E+02 0.  0.
          5    1    3    3  502    0  0.38027162831E+02  0.14398723549E+03 -0.42085547282E+03  0.44644729868E+03  0.41800000000E+01 0. -1.
         -5    1    3    3    0  502 -0.71034709475E+01 -0.21261638476E+02 -0.14342418401E+03  0.14522563661E+03  0.41800000000E+01 0. -1.
        -11    1    4    4    0    0 -0.66059245786E+02 -0.80251024222E+02 -0.12734420311E+03  0.16437942970E+03  0.00000000000E+00 0. -1.
         11    1    4    4    0    0  0.35135553903E+02 -0.42474572788E+02 -0.76983798662E+02  0.94684221167E+02  0.00000000000E+00 0.  1.
</event>
<event>
 8    1  0.6380238E-009  0.1260162E+03  0.7561462E-02  0.1233490E+00
          2   -1    0    0  501    0  0.00000000000E+00  0.00000000000E+00  0.21449751273E+03  0.21449751273E+03  0.00000000000E+00 0. -1.
         -2   -1    0    0    0  501 -0.00000000000E+00 -0.00000000000E+00 -0.97341566728E+02  0.97341566728E+02  0.00000000000E+00 0.  1.
         25    2    1    2    0    0  0.74187755277E+02  0.44999681620E+02  0.10957127609E+03  0.18756835179E+03  0.12508887908E+03 0.  0.
         23    2    1    2    0    0 -0.74187755277E+02 -0.44999681620E+02  0.75846699096E+01  0.12427072767E+03  0.88639111906E+02 0.  0.
          5    1    3    3  502    0 -0.24451756988E+02  0.24671755901E+02  0.71899110136E+02  0.79959604785E+02  0.41800000000E+01 0. -1.
         -5    1    3    3    0  502  0.98639512264E+02  0.20327925719E+02  0.37672165958E+02  0.10760874700E+03  0.41800000000E+01 0. -1.
        -11    1    4    4    0    0  0.16342069434E+02 -0.37741244066E+01 -0.14732032511E+02  0.22323530866E+02  0.00000000000E+00 0.  1.
         11    1    4    4    0    0 -0.90529824710E+02 -0.41225557214E+02  0.22316702421E+02  0.10194719681E+03  0.00000000000E+00 0. -1.
</event>
<event>
 8    1  0.6380238E-009  0.8614823E+02  0.7561462E-02  0.1312457E+00
         -1   -1    0    0    0  501 -0.00000000000E+00  0.00000000000E+00  0.10253255689E+03  0.10253255689E+03  0.00000000000E+00 0.  1.
          1   -1    0    0  501    0  0.00000000000E+00 -0.00000000000E+00 -0.17975313645E+03  0.17975313645E+03  0.00000000000E+00 0. -1.
         25    2    1    2    0    0  0.26190299277E+02 -0.57469290015E+02 -0.96419563443E+02  0.17009966862E+03  0.12509402056E+03 0.  0.
         23    2    1    2    0    0 -0.26190299277E+02  0.57469290015E+02  0.19198983881E+02  0.11218602472E+03  0.90710815726E+02 0.  0.
          5    1    3    3  502    0  0.26544032484E+02 -0.25637450059E+02 -0.12295796502E+03  0.12844453304E+03  0.41800000000E+01 0. -1.
         -5    1    3    3    0  502 -0.35373320688E+00 -0.31831839956E+02  0.26538401575E+02  0.41655135582E+02  0.41800000000E+01 0. -1.
        -11    1    4    4    0    0 -0.18286448460E+02 -0.18885060269E+02 -0.12534368574E+02  0.29123016571E+02  0.00000000000E+00 0. -1.
         11    1    4    4    0    0 -0.79038508174E+01  0.76354350283E+02  0.31733352455E+02  0.83063008150E+02  0.00000000000E+00 0.  1.
</event>
<event>
 8    1  0.6380238E-009  0.2159618E+03  0.7561462E-02  0.1136930E+00
          1   -1    0    0  501    0  0.00000000000E+00  0.00000000000E+00  0.27133501991E+03  0.27133501991E+03  0.00000000000E+00 0. -1.
         -1   -1    0    0    0  501 -0.00000000000E+00 -0.00000000000E+00 -0.20789856928E+03  0.20789856928E+03  0.00000000000E+00 0.  1.
         25    2    1    2    0    0  0.20979745614E+03 -0.16031960657E+02  0.43541999576E+02  0.24862900476E+03  0.12509388439E+03 0.  0.
         23    2    1    2    0    0 -0.20979745614E+03  0.16031960657E+02  0.19894451051E+02  0.23060458444E+03  0.92253394588E+02 0.  0.
          5    1    3    3  502    0  0.48250842495E+02  0.14721870603E+02  0.65379233075E+02  0.82684906682E+02  0.41800000000E+01 0.  1.
         -5    1    3    3    0  502  0.16154661365E+03 -0.30753831260E+02 -0.21837233499E+02  0.16594409807E+03  0.41800000000E+01 0.  1.
        -11    1    4    4    0    0 -0.11868343419E+02  0.14669177606E+02 -0.21272354897E+02  0.28435109109E+02  0.00000000000E+00 0.  1.
         11    1    4    4    0    0 -0.19792911273E+03  0.13627830506E+01  0.41166805948E+02  0.20216947533E+03  0.00000000000E+00 0. -1.
</event>
<event>
 8    1  0.6380238E-009  0.9627623E+02  0.7561462E-02  0.1288327E+00
          1   -1    0    0  501    0  0.00000000000E+00  0.00000000000E+00  0.63683601544E+02  0.63683601544E+02  0.00000000000E+00 0. -1.
         -1   -1    0    0    0  501 -0.00000000000E+00 -0.00000000000E+00 -0.20292661450E+03  0.20292661450E+03  0.00000000000E+00 0.  1.
         25    2    1    2    0    0 -0.27060682596E+02 -0.51646009334E-01 -0.96517695040E+02  0.16029304804E+03  0.12508362237E+03 0.  0.
         23    2    1    2    0    0  0.27060682596E+02  0.51646009334E-01 -0.42725317913E+02  0.10631716800E+03  0.93517935233E+02 0.  0.
          5    1    3    3  502    0 -0.23492989079E+02  0.60330637133E+02 -0.65482349081E+02  0.92179806649E+02  0.41800000000E+01 0. -1.
         -5    1    3    3    0  502 -0.35676935170E+01 -0.60382283142E+02 -0.31035345959E+02  0.68113241395E+02  0.41800000000E+01 0. -1.
        -11    1    4    4    0    0  0.12013398217E+01  0.28541490815E+02  0.18479833908E+02  0.34022994821E+02  0.00000000000E+00 0. -1.
         11    1    4    4    0    0  0.25859342775E+02 -0.28489844805E+02 -0.61205151821E+02  0.72294173176E+02  0.00000000000E+00 0.  1.
</event>
<event>
 8    1  0.6380238E-009  0.7088609E+02  0.7561462E-02  0.1357106E+00
         -1   -1    0    0    0  501 -0.00000000000E+00  0.00000000000E+00  0.65759601193E+02  0.65759601193E+02  0.00000000000E+00 0.  1.
          1   -1    0    0  501    0  0.00000000000E+00 -0.00000000000E+00 -0.19225722561E+03  0.19225722561E+03  0.00000000000E+00 0. -1.
         25    2    1    2    0    0 -0.18775807834E+02  0.14082402029E+02 -0.89561550511E+02  0.15562559298E+03  0.12508880387E+03 0.  0.
         23    2    1    2    0    0  0.18775807834E+02 -0.14082402029E+02 -0.36936073906E+02  0.10239123382E+03  0.92568062534E+02 0.  0.
          5    1    3    3  502    0 -0.24490503465E+02 -0.17395303983E+02  0.23298107842E+02  0.38244680540E+02  0.41800000000E+01 0.  1.
         -5    1    3    3    0  502  0.57146956307E+01  0.31477706012E+02 -0.11285965835E+03  0.11738091244E+03  0.41800000000E+01 0.  1.
        -11    1    4    4    0    0  0.26443517335E+02  0.26761036398E+02  0.10760261518E+02  0.39130498413E+02  0.00000000000E+00 0.  1.
         11    1    4    4    0    0 -0.76677095014E+01 -0.40843438427E+02 -0.47696335423E+02  0.63260735408E+02  0.00000000000E+00 0. -1.
</event>
<event>
 8    1  0.6380238E-009  0.7728974E+02  0.7561462E-02  0.1336924E+00
          2   -1    0    0  501    0  0.00000000000E+00  0.00000000000E+00  0.50880636720E+03  0.50880636720E+03  0.00000000000E+00 0. -1.
         -2   -1    0    0    0  501 -0.00000000000E+00 -0.00000000000E+00 -0.35033974895E+02  0.35033974895E+02  0.00000000000E+00 0.  1.
         25    2    1    2    0    0 -0.71795714100E+01  0.26830385327E+02  0.41778612062E+03  0.43699492574E+03  0.12509159330E+03 0.  0.
         23    2    1    2    0    0  0.71795714100E+01 -0.26830385327E+02  0.55986271683E+02  0.10684541636E+03  0.86660628643E+02 0.  0.
          5    1    3    3  502    0  0.82123086672E+01  0.49905717780E+02  0.62076399365E+02  0.80180885745E+02  0.41800000000E+01 0. -1.
         -5    1    3    3    0  502 -0.15391880077E+02 -0.23075332452E+02  0.35570972125E+03  0.35681403999E+03  0.41800000000E+01 0. -1.
        -11    1    4    4    0    0  0.33195175108E+02 -0.35264719383E+02  0.62168836945E+02  0.78806626439E+02  0.00000000000E+00 0. -1.
         11    1    4    4    0    0 -0.26015603698E+02  0.84343340556E+01 -0.61825652624E+01  0.28038789916E+02  0.00000000000E+00 0.  1.
</event>
<event>
 8    1  0.6380238E-009  0.5447550E+02  0.7561462E-02  0.1422596E+00
         -2   -1    0    0    0  501 -0.00000000000E+00  0.00000000000E+00  0.97270846970E+03  0.97270846970E+03  0.00000000000E+00 0.  1.
          2   -1    0    0  501    0  0.00000000000E+00 -0.00000000000E+00 -0.11787773372E+02  0.11787773372E+02  0.00000000000E+00 0. -1.
         25    2    1    2    0    0  0.22188043353E+02 -0.86743256462E+01  0.70257862929E+03  0.71402481773E+03  0.12508859586E+03 0.  0.
         23    2    1    2    0    0 -0.22188043353E+02  0.86743256462E+01  0.25834206703E+03  0.27047142533E+03  0.76463161908E+02 0.  0.
          5    1    3    3  502    0  0.12491410403E+02 -0.14540098435E+02  0.11300552109E+02  0.22641216273E+02  0.41800000000E+01 0. -1.
         -5    1    3    3    0  502  0.96966329498E+01  0.58657727883E+01  0.69127807718E+03  0.69138360146E+03  0.41800000000E+01 0. -1.
        -11    1    4    4    0    0  0.27174419951E+02  0.59291622093E+01  0.12987278054E+03  0.13281770661E+03  0.00000000000E+00 0. -1.
         11    1    4    4    0    0 -0.49362463304E+02  0.27451634369E+01  0.12846928649E+03  0.13765371872E+03  0.00000000000E+00 0.  1.
</event>
<event>
 8    1  0.6380238E-009  0.1626463E+03  0.7561462E-02  0.1185741E+00
          2   -1    0    0  501    0  0.00000000000E+00  0.00000000000E+00  0.26067125353E+04  0.26067125353E+04  0.00000000000E+00 0. -1.
         -2   -1    0    0    0  501 -0.00000000000E+00 -0.00000000000E+00 -0.13262806761E+02  0.13262806761E+02  0.00000000000E+00 0.  1.
         25    2    1    2    0    0 -0.47346397649E+02  0.13006395627E+03  0.18005676007E+04  0.18102063072E+04  0.12507947744E+03 0.  0.
         23    2    1    2    0    0  0.47346397649E+02 -0.13006395627E+03  0.79288212780E+03  0.80976903487E+03  0.88912918935E+02 0.  0.
          5    1    3    3  502    0  0.34442977463E+02  0.24772112723E+02  0.22507337764E+03  0.22907525835E+03  0.41800000000E+01 0. -1.
         -5    1    3    3    0  502 -0.81789375112E+02  0.10529184355E+03  0.15754942231E+04  0.15811310488E+04  0.41800000000E+01 0. -1.
        -11    1    4    4    0    0  0.23913351357E+02 -0.12225137218E+03  0.75005824455E+03  0.76033191213E+03  0.00000000000E+00 0. -1.
         11    1    4    4    0    0  0.23433046292E+02 -0.78125840919E+01  0.42823883248E+02  0.49437122744E+02  0.00000000000E+00 0.  1.
</event>
<event>
 8    1  0.6380238E-009  0.1260571E+03  0.7561462E-02  0.1233426E+00
         -2   -1    0    0    0  501 -0.00000000000E+00  0.00000000000E+00  0.23248003254E+02  0.23248003254E+02  0.00000000000E+00 0.  1.
          2   -1    0    0  501    0  0.00000000000E+00 -0.00000000000E+00 -0.71900907830E+03  0.71900907830E+03  0.00000000000E+00 0. -1.
         25    2    1    2    0    0  0.42558565218E+02 -0.55240663004E+02 -0.36484182014E+03  0.39194504865E+03  0.12509438480E+03 0.  0.
         23    2    1    2    0    0 -0.42558565218E+02  0.55240663004E+02 -0.33091925490E+03  0.35031203291E+03  0.91368511061E+02 0.  0.
          5    1    3    3  502    0 -0.42706876402E+02 -0.35159950732E+02 -0.13664571251E+03  0.14747753244E+03  0.41800000000E+01 0. -1.
         -5    1    3    3    0  502  0.85265441620E+02 -0.20080712272E+02 -0.22819610764E+03  0.24446751621E+03  0.41800000000E+01 0. -1.
        -11    1    4    4    0    0  0.23603970931E+02  0.29893446397E+02 -0.67229675491E+02  0.77269624354E+02  0.00000000000E+00 0.  1.
         11    1    4    4    0    0 -0.66162536150E+02  0.25347216607E+02 -0.26368957941E+03  0.27304240856E+03  0.00000000000E+00 0. -1.
</event>
<event>
 8    1  0.6380238E-009  0.1043414E+03  0.7561462E-02  0.1271423E+00
         -2   -1    0    0    0  501 -0.00000000000E+00  0.00000000000E+00  0.18386656082E+03  0.18386656082E+03  0.00000000000E+00 0. -1.
          2   -1    0    0  501    0  0.00000000000E+00 -0.00000000000E+00 -0.87757795394E+02  0.87757795394E+02  0.00000000000E+00 0.  1.
         25    2    1    2    0    0 -0.59352949970E+01 -0.12595140306E+02  0.12176244414E+03  0.17512199922E+03  0.12509099296E+03 0.  0.
         23    2    1    2    0    0  0.59352949970E+01  0.12595140306E+02 -0.25653678721E+02  0.96502356994E+02  0.91982217779E+02 0.  0.
          5    1    3    3  502    0 -0.38644131696E+02 -0.55399835141E+02  0.45081943396E+02  0.81316447712E+02  0.41800000000E+01 0.  1.
         -5    1    3    3    0  502  0.32708836699E+02  0.42804694835E+02  0.76680500749E+02  0.93805551505E+02  0.41800000000E+01 0.  1.
        -11    1    4    4    0    0  0.28408288452E+02  0.41542679631E+02  0.23480817920E+01  0.50381927035E+02  0.00000000000E+00 0. -1.
         11    1    4    4    0    0 -0.22472993455E+02 -0.28947539325E+02 -0.28001760513E+02  0.46120429959E+02  0.00000000000E+00 0.  1.
</event>
<event>
 8    1  0.6380238E-009  0.1603861E+03  0.7561462E-02  0.1188262E+00
         -1   -1    0    0    0  501 -0.00000000000E+00  0.00000000000E+00  0.34468549425E+02  0.34468549425E+02  0.00000000000E+00 0.  1.
          1   -1    0    0  501    0  0.00000000000E+00 -0.00000000000E+00 -0.92131346126E+03  0.92131346126E+03  0.00000000000E+00 0. -1.
         25    2    1    2    0    0 -0.66994797068E+02 -0.12255197257E+03 -0.50495879010E+03  0.53864512941E+03  0.12509159413E+03 0.  0.
         23    2    1    2    0    0  0.66994797068E+02  0.12255197257E+03 -0.38188612174E+03  0.41713688128E+03  0.93053097388E+02 0.  0.
          5    1    3    3  502    0 -0.29974820588E+02 -0.12917708394E+03 -0.27199701793E+03  0.30263023485E+03  0.41800000000E+01 0.  1.
         -5    1    3    3    0  502 -0.37019976480E+02  0.66251113716E+01 -0.23296177217E+03  0.23601489455E+03  0.41800000000E+01 0.  1.
        -11    1    4    4    0    0  0.66728697140E+02  0.66507596167E+02 -0.32029334390E+03  0.33386195578E+03  0.00000000000E+00 0. -1.
         11    1    4    4    0    0  0.26609992793E+00  0.56044376400E+02 -0.61592777834E+02  0.83274925497E+02  0.00000000000E+00 0.  1.
</event>
<event>
 8    1  0.6380238E-009  0.9258720E+02  0.7561462E-02  0.1296705E+00
          1   -1    0    0  501    0  0.00000000000E+00  0.00000000000E+00  0.58886706845E+03  0.58886706845E+03  0.00000000000E+00 0. -1.
         -1   -1    0    0    0  501 -0.00000000000E+00 -0.00000000000E+00 -0.20812259808E+02  0.20812259808E+02  0.00000000000E+00 0.  1.
         25    2    1    2    0    0 -0.46820510611E+01  0.17481264249E+02  0.38186056285E+03  0.40223386871E+03  0.12508828672E+03 0.  0.
         23    2    1    2    0    0  0.46820510611E+01 -0.17481264249E+02  0.18619424579E+03  0.20744545955E+03  0.89653808170E+02 0.  0.
          5    1    3    3  502    0  0.41594614487E+02  0.53274772228E+02  0.20811840335E+03  0.21885852856E+03  0.41800000000E+01 0. -1.
         -5    1    3    3    0  502 -0.46276665548E+02 -0.35793507979E+02  0.17374215950E+03  0.18337534015E+03  0.41800000000E+01 0. -1.
        -11    1    4    4    0    0 -0.17721735022E+02  0.12273440193E+02  0.45628227508E+01  0.22034440720E+02  0.00000000000E+00 0.  1.
         11    1    4    4    0    0  0.22403786083E+02 -0.29754704442E+02  0.18163142304E+03  0.18541101883E+03  0.00000000000E+00 0. -1.
</event>
<event>
 8    1  0.6380238E-009  0.3248062E+03  0.7561462E-02  0.1073458E+00
          2   -1    0    0  501    0  0.00000000000E+00  0.00000000000E+00  0.95571286576E+03  0.95571286576E+03  0.00000000000E+00 0. -1.
         -2   -1    0    0    0  501 -0.00000000000E+00 -0.00000000000E+00 -0.12087132085E+03  0.12087132085E+03  0.00000000000E+00 0.  1.
         25    2    1    2    0    0  0.17197063383E+03 -0.26016724169E+03  0.32044520982E+03  0.46432099765E+03  0.12509182157E+03 0.  0.
         23    2    1    2    0    0 -0.17197063383E+03  0.26016724169E+03  0.51439633510E+03  0.61226318896E+03  0.11402513076E+03 0.  0.
          5    1    3    3  502    0  0.14505036922E+03 -0.10696717998E+03  0.17868202985E+03  0.25382341774E+03  0.41800000000E+01 0.  1.
         -5    1    3    3    0  502  0.26920264605E+02 -0.15320006171E+03  0.14176317996E+03  0.21049757991E+03  0.41800000000E+01 0.  1.
        -11    1    4    4    0    0 -0.84395206706E+02  0.97196283031E+02  0.31484354350E+03  0.34014133127E+03  0.00000000000E+00 0. -1.
         11    1    4    4    0    0 -0.87575427120E+02  0.16297095865E+03  0.19955279159E+03  0.27212185769E+03  0.00000000000E+00 0.  1.
</event>
<event>
 8    1  0.6380238E-009  0.1688474E+03  0.7561462E-02  0.1179055E+00
         -3   -1    0    0    0  501 -0.00000000000E+00  0.00000000000E+00  0.62640093735E+03  0.62640093735E+03  0.00000000000E+00 0.  1.
          3   -1    0    0  501    0  0.00000000000E+00 -0.00000000000E+00 -0.53700179367E+02  0.53700179367E+02  0.00000000000E+00 0. -1.
         25    2    1    2    0    0  0.13769178905E+03 -0.50279576112E+02  0.32150016189E+03  0.37482865834E+03  0.12508838664E+03 0.  0.
         23    2    1    2    0    0 -0.13769178905E+03  0.50279576112E+02  0.25120059610E+03  0.30527245838E+03  0.92749500372E+02 0.  0.
          5    1    3    3  502    0  0.14664691800E+03 -0.74542688113E+02  0.25651321777E+03  0.30475963348E+03  0.41800000000E+01 0. -1.
         -5    1    3    3    0  502 -0.89551289483E+01  0.24263112001E+02  0.64986944117E+02  0.70069024855E+02  0.41800000000E+01 0. -1.
        -11    1    4    4    0    0 -0.10193739012E+02  0.98099471664E+00 -0.74888199337E+01  0.12686886524E+02  0.00000000000E+00 0. -1.
         11    1    4    4    0    0 -0.12749805004E+03  0.49298581396E+02  0.25868941603E+03  0.29258557185E+03  0.00000000000E+00 0.  1.
</event>
<event>
 8    1  0.6380238E-009  0.1010163E+03  0.7561462E-02  0.1278173E+00
          2   -1    0    0  501    0  0.00000000000E+00  0.00000000000E+00  0.37513244460E+03  0.37513244460E+03  0.00000000000E+00 0. -1.
         -2   -1    0    0    0  501 -0.00000000000E+00 -0.00000000000E+00 -0.34186562389E+02  0.34186562389E+02  0.00000000000E+00 0.  1.
         25    2    1    2    0    0 -0.24899487716E+02  0.16782164042E+02  0.21438584581E+03  0.25002118087E+03  0.12509066506E+03 0.  0.
         23    2    1    2    0    0  0.24899487716E+02 -0.16782164042E+02  0.12656003640E+03  0.15929782611E+03  0.91960475596E+02 0.  0.
          5    1    3    3  502    0  0.65625455149E+01 -0.40185062185E+02  0.21138653702E+02  0.46067573268E+02  0.41800000000E+01 0.  1.
         -5    1    3    3    0  502 -0.31462033231E+02  0.56967226226E+02  0.19324719211E+03  0.20395360761E+03  0.41800000000E+01 0.  1.
        -11    1    4    4    0    0  0.86917765049E+01 -0.54315203277E+02  0.62018984795E+02  0.82897785018E+02  0.00000000000E+00 0.  1.
         11    1    4    4    0    0  0.16207711211E+02  0.37533039235E+02  0.64541051603E+02  0.76400041092E+02  0.00000000000E+00 0. -1.
</event>
<event>
 8    1  0.6380238E-009  0.9411154E+02  0.7561462E-02  0.1293190E+00
          3   -1    0    0  501    0  0.00000000000E+00  0.00000000000E+00  0.37848532684E+03  0.37848532684E+03  0.00000000000E+00 0. -1.
         -3   -1    0    0    0  501 -0.00000000000E+00 -0.00000000000E+00 -0.41092855447E+02  0.41092855447E+02  0.00000000000E+00 0.  1.
         25    2    1    2    0    0  0.20685799944E+02  0.47413736462E+00  0.90561713273E+02  0.15585129009E+03  0.12514021571E+03 0.  0.
         23    2    1    2    0    0 -0.20685799944E+02 -0.47413736462E+00  0.24683075812E+03  0.26372689219E+03  0.90544593354E+02 0.  0.
          5    1    3    3  502    0 -0.13008604157E+02  0.51410666182E+02  0.76272133119E+02  0.92990274061E+02  0.41800000000E+01 0.  1.
         -5    1    3    3    0  502  0.33694404101E+02 -0.50936528818E+02  0.14289580154E+02  0.62861016033E+02  0.41800000000E+01 0.  1.
        -11    1    4    4    0    0 -0.66993422079E+01 -0.35484620276E+02  0.20176362305E+03  0.20496975154E+03  0.00000000000E+00 0. -1.
         11    1    4    4    0    0 -0.13986457736E+02  0.35010482912E+02  0.45067135073E+02  0.58757140650E+02  0.00000000000E+00 0.  1.
</event>
<event>
 8    1  0.6380238E-009  0.9028204E+02  0.7561462E-02  0.1302170E+00
          1   -1    0    0  501    0  0.00000000000E+00  0.00000000000E+00  0.13848592336E+03  0.13848592336E+03  0.00000000000E+00 0. -1.
         -1   -1    0    0    0  501 -0.00000000000E+00 -0.00000000000E+00 -0.10884898613E+03  0.10884898613E+03  0.00000000000E+00 0.  1.
         25    2    1    2    0    0  0.11333159175E+02 -0.35658422533E+02  0.56256537935E+02  0.14216954761E+03  0.12508964231E+03 0.  0.
         23    2    1    2    0    0 -0.11333159175E+02  0.35658422533E+02 -0.26619600707E+02  0.10516536188E+03  0.94610710829E+02 0.  0.
          5    1    3    3  502    0  0.52774083555E+02 -0.56951254866E+02  0.55239135499E+02  0.95380206628E+02  0.41800000000E+01 0. -1.
         -5    1    3    3    0  502 -0.41440924380E+02  0.21292832332E+02  0.10174024365E+01  0.46789340986E+02  0.41800000000E+01 0. -1.
        -11    1    4    4    0    0 -0.21061738792E+02  0.40131069034E+02 -0.57075827083E+02  0.72881750665E+02  0.00000000000E+00 0.  1.
         11    1    4    4    0    0  0.97285796178E+01 -0.44726465005E+01  0.30456226376E+02  0.32283611217E+02  0.00000000000E+00 0. -1.
</event>
<event>
 8    1  0.6380238E-009  0.7986396E+02  0.7561462E-02  0.1329438E+00
          1   -1    0    0  501    0  0.00000000000E+00  0.00000000000E+00  0.25405519743E+03  0.25405519743E+03  0.00000000000E+00 0. -1.
         -1   -1    0    0    0  501 -0.00000000000E+00 -0.00000000000E+00 -0.61170186963E+02  0.61170186963E+02  0.00000000000E+00 0.  1.
         25    2    1    2    0    0  0.52018308957E+02 -0.28233447046E+02  0.12693993444E+03  0.18778672789E+03  0.12508827370E+03 0.  0.
         23    2    1    2    0    0 -0.52018308957E+02  0.28233447046E+02  0.65945076028E+02  0.12743865650E+03  0.91590535103E+02 0.  0.
          5    1    3    3  502    0  0.37894823150E+02 -0.18758909103E+01  0.14677724589E+03  0.15165938447E+03  0.41800000000E+01 0. -1.
         -5    1    3    3    0  502  0.14123485807E+02 -0.26357556136E+02 -0.19837311448E+02  0.36127343416E+02  0.41800000000E+01 0. -1.
        -11    1    4    4    0    0 -0.31044817595E+02  0.51440863567E+02  0.67161110125E+01  0.60457003656E+02  0.00000000000E+00 0.  1.
         11    1    4    4    0    0 -0.20973491362E+02 -0.23207416520E+02  0.59228965015E+02  0.66981652848E+02  0.00000000000E+00 0. -1.
</event>
<event>
 8    1  0.6380238E-009  0.1781422E+03  0.7561462E-02  0.1169613E+00
         -3   -1    0    0    0  501 -0.00000000000E+00  0.00000000000E+00  0.49362437592E+03  0.49362437592E+03  0.00000000000E+00 0.  1.
          3   -1    0    0  501    0  0.00000000000E+00 -0.00000000000E+00 -0.88058187445E+02  0.88058187445E+02  0.00000000000E+00 0. -1.
         25    2    1    2    0    0 -0.13167825322E+03  0.11558445790E+03  0.24689063377E+03  0.32756929925E+03  0.12509089290E+03 0.  0.
         23    2    1    2    0    0  0.13167825322E+03 -0.11558445790E+03  0.15867555470E+03  0.25411326411E+03  0.93256045711E+02 0.  0.
          5    1    3    3  502    0 -0.88812207168E+02  0.63143927809E+02  0.23445993559E+03  0.25858015693E+03  0.41800000000E+01 0. -1.
         -5    1    3    3    0  502 -0.42866046052E+02  0.52440530088E+02  0.12430698181E+02  0.68989142315E+02  0.41800000000E+01 0. -1.
        -11    1    4    4    0    0  0.24719664939E+02 -0.44631632718E+02  0.10150056034E+03  0.11360197280E+03  0.00000000000E+00 0.  1.
         11    1    4    4    0    0  0.10695858828E+03 -0.70952825179E+02  0.57174994355E+02  0.14051129132E+03  0.00000000000E+00 0. -1.
</event>
<event>
 8    1  0.6380238E-009  0.1793370E+03  0.7561462E-02  0.1168446E+00
         -2   -1    0    0    0  501 -0.00000000000E+00  0.00000000000E+00  0.34964184188E+03  0.34964184188E+03  0.00000000000E+00 0.  1.
          2   -1    0    0  501    0  0.00000000000E+00 -0.00000000000E+00 -0.13169044127E+03  0.13169044127E+03  0.00000000000E+00 0. -1.
         25    2    1    2    0    0 -0.14445058970E+03 -0.65443809440E+02  0.21976879843E+03  0.29848926157E+03  0.12509456205E+03 0.  0.
         23    2    1    2    0    0  0.14445058970E+03  0.65443809440E+02 -0.18173978160E+01  0.18284302158E+03  0.90991222360E+02 0.  0.
          5    1    3    3  502    0 -0.64613617297E+02 -0.94813595433E+02  0.10512428648E+03  0.15566992461E+03  0.41800000000E+01 0. -1.
         -5    1    3    3    0  502 -0.79836972406E+02  0.29369785993E+02  0.11464451194E+03  0.14281933696E+03  0.41800000000E+01 0. -1.
        -11    1    4    4    0    0  0.52660848875E+02  0.26947474601E+02 -0.45017979919E+02  0.74336733232E+02  0.00000000000E+00 0. -1.
         11    1    4    4    0    0  0.91789740827E+02  0.38496334839E+02  0.43200582103E+02  0.10850628835E+03  0.00000000000E+00 0.  1.
</event>
<event>
 8    1  0.6380238E-009  0.7223920E+02  0.7561462E-02  0.1352640E+00
          2   -1    0    0  501    0  0.00000000000E+00  0.00000000000E+00  0.29474424114E+03  0.29474424114E+03  0.00000000000E+00 0. -1.
         -2   -1    0    0    0  501 -0.00000000000E+00 -0.00000000000E+00 -0.59128316905E+02  0.59128316905E+02  0.00000000000E+00 0.  1.
         25    2    1    2    0    0 -0.16152388553E+02 -0.26348515954E+02  0.22082101802E+03  0.25566565192E+03  0.12509140507E+03 0.  0.
         23    2    1    2    0    0  0.16152388553E+02  0.26348515954E+02  0.14794906206E+02  0.98206906116E+02  0.92035662709E+02 0.  0.
          5    1    3    3  502    0  0.30404089836E+02 -0.27421850681E+02  0.20050702707E+03  0.20468733932E+03  0.41800000000E+01 0. -1.
         -5    1    3    3    0  502 -0.46556478390E+02  0.10733347267E+01  0.20313990956E+02  0.50978312605E+02  0.41800000000E+01 0. -1.
        -11    1    4    4    0    0  0.51040658917E+01 -0.13911144137E+02 -0.32139985732E+02  0.35391384583E+02  0.00000000000E+00 0.  1.
         11    1    4    4    0    0  0.11048322661E+02  0.40259660091E+02  0.46934891938E+02  0.62815521533E+02  0.00000000000E+00 0. -1.
</event>
<event>
 8    1  0.6380238E-009  0.9774734E+02  0.7561462E-02  0.1285106E+00
         -2   -1    0    0    0  501 -0.00000000000E+00  0.00000000000E+00  0.29144564031E+02  0.29144564031E+02  0.00000000000E+00 0.  1.
          2   -1    0    0  501    0  0.00000000000E+00 -0.00000000000E+00 -0.41455710010E+03  0.41455710010E+03  0.00000000000E+00 0. -1.
         25    2    1    2    0    0  0.47396691630E+01  0.16618053451E+02 -0.24533289062E+03  0.27592446032E+03  0.12508979341E+03 0.  0.
         23    2    1    2    0    0 -0.47396691630E+01 -0.16618053451E+02 -0.14007964545E+03  0.16777720382E+03  0.90709750784E+02 0.  0.
          5    1    3    3  502    0 -0.25260124606E+02 -0.34998773514E+02 -0.30771738252E+02  0.53172928428E+02  0.41800000000E+01 0.  1.
         -5    1    3    3    0  502  0.29999793769E+02  0.51616826965E+02 -0.21456115237E+03  0.22275153189E+03  0.41800000000E+01 0.  1.
        -11    1    4    4    0    0  0.75261783596E+01  0.36755319815E+02 -0.59899930255E+02  0.70679548244E+02  0.00000000000E+00 0. -1.
         11    1    4    4    0    0 -0.12265847523E+02 -0.53373373266E+02 -0.80179715194E+02  0.97097655573E+02  0.00000000000E+00 0.  1.
</event>
<event>
 8    1  0.6380238E-009  0.1434230E+03  0.7561462E-02  0.1208796E+00
         -1   -1    0    0    0  501 -0.00000000000E+00  0.00000000000E+00  0.13908621632E+03  0.13908621632E+03  0.00000000000E+00 0.  1.
          1   -1    0    0  501    0  0.00000000000E+00 -0.00000000000E+00 -0.18379415951E+03  0.18379415951E+03  0.00000000000E+00 0. -1.
         25    2    1    2    0    0  0.67309316003E+02  0.92608917949E+02  0.26447377106E-01  0.16956448785E+03  0.12508061056E+03 0.  0.
         23    2    1    2    0    0 -0.67309316003E+02 -0.92608917949E+02 -0.44734390565E+02  0.15331588797E+03  0.91638638693E+02 0.  0.
          5    1    3    3  502    0  0.74018150701E+02  0.29880278331E+02 -0.45202781592E+02  0.91827455208E+02  0.41800000000E+01 0. -1.
         -5    1    3    3    0  502 -0.67088346980E+01  0.62728639618E+02  0.45229228969E+02  0.77737032645E+02  0.41800000000E+01 0. -1.
        -11    1    4    4    0    0 -0.75859127381E+02 -0.31753188415E+02 -0.40628758817E+02  0.91725504766E+02  0.00000000000E+00 0. -1.
         11    1    4    4    0    0  0.85498113781E+01 -0.60855729534E+02 -0.41056317489E+01  0.61590383208E+02  0.00000000000E+00 0.  1.
</event>
<event>
 8    1  0.6380238E-009  0.1162491E+03  0.7561462E-02  0.1249416E+00
          1   -1    0    0  501    0  0.00000000000E+00  0.00000000000E+00  0.54838261223E+03  0.54838261223E+03  0.00000000000E+00 0. -1.
         -1   -1    0    0    0  501 -0.00000000000E+00 -0.00000000000E+00 -0.44019643048E+02  0.44019643048E+02  0.00000000000E+00 0.  1.
         25    2    1    2    0    0  0.98019995626E+02  0.21187898024E+02  0.18714401677E+03  0.24643091981E+03  0.12509383941E+03 0.  0.
         23    2    1    2    0    0 -0.98019995626E+02 -0.21187898024E+02  0.31721895241E+03  0.34597133547E+03  0.94928681820E+02 0.  0.
          5    1    3    3  502    0  0.63045827876E+02 -0.40074713265E+01  0.19263994300E+03  0.20277686327E+03  0.41800000000E+01 0. -1.
         -5    1    3    3    0  502  0.34974167749E+02  0.25195369351E+02 -0.54959262357E+01  0.43654056532E+02  0.41800000000E+01 0. -1.
        -11    1    4    4    0    0 -0.88272642185E+01 -0.34579045979E+02  0.36200907078E+02  0.50834404567E+02  0.00000000000E+00 0.  1.
         11    1    4    4    0    0 -0.89192731407E+02  0.13391147954E+02  0.28101804533E+03  0.29513693090E+03  0.00000000000E+00 0. -1.
</event>
<event>
 8    1  0.6380238E-009  0.1140669E+03  0.7561462E-02  0.1253219E+00
         -1   -1    0    0    0  501 -0.00000000000E+00  0.00000000000E+00  0.66657601232E+03  0.66657601232E+03  0.00000000000E+00 0.  1.
          1   -1    0    0  501    0  0.00000000000E+00 -0.00000000000E+00 -0.22229861629E+02  0.22229861629E+02  0.00000000000E+00 0. -1.
         25    2    1    2    0    0  0.33370063620E+02  0.50602116337E+02  0.40363973647E+03  0.42690344739E+03  0.12508949281E+03 0.  0.
         23    2    1    2    0    0 -0.33370063620E+02 -0.50602116337E+02  0.24070641421E+03  0.26190242655E+03  0.83541414086E+02 0.  0.
          5    1    3    3  502    0 -0.18001012622E+02  0.68048559128E+02  0.31579228171E+03  0.32356897324E+03  0.41800000000E+01 0. -1.
         -5    1    3    3    0  502  0.51371076242E+02 -0.17446442791E+02  0.87847454765E+02  0.10333447416E+03  0.41800000000E+01 0. -1.
        -11    1    4    4    0    0 -0.58476302177E+02 -0.51732791778E+02  0.18070060488E+03  0.19684630620E+03  0.00000000000E+00 0.  1.
         11    1    4    4    0    0  0.25106238557E+02  0.11306754409E+01  0.60005809331E+02  0.65056120349E+02  0.00000000000E+00 0. -1.
</event>
<event>
 8    1  0.6380238E-009  0.1149680E+03  0.7561462E-02  0.1251637E+00
          1   -1    0    0  501    0  0.00000000000E+00  0.00000000000E+00  0.71633910735E+03  0.71633910735E+03  0.00000000000E+00 0. -1.
         -1   -1    0    0    0  501 -0.00000000000E+00 -0.00000000000E+00 -0.19197150512E+02  0.19197150512E+02  0.00000000000E+00 0.  1.
         25    2    1    2    0    0 -0.77834137412E+01  0.45880040793E+02  0.42254831797E+03  0.44312547705E+03  0.12509015839E+03 0.  0.
         23    2    1    2    0    0  0.77834137412E+01 -0.45880040793E+02  0.27459363887E+03  0.29241078080E+03  0.89088936194E+02 0.  0.
          5    1    3    3  502    0 -0.47783565932E+02 -0.20518616911E+02  0.22270835742E+03  0.22873733337E+03  0.41800000000E+01 0.  1.
         -5    1    3    3    0  502  0.40000152191E+02  0.66398657704E+02  0.19983996055E+03  0.21438814368E+03  0.41800000000E+01 0.  1.
        -11    1    4    4    0    0  0.33364337861E+02  0.13102999329E+02  0.86494264245E+02  0.93627588774E+02  0.00000000000E+00 0. -1.
         11    1    4    4    0    0 -0.25580924120E+02 -0.58983040122E+02  0.18809937462E+03  0.19878319203E+03  0.00000000000E+00 0.  1.
</event>
<event>
 8    1  0.6380238E-009  0.1255376E+03  0.7561462E-02  0.1234231E+00
          1   -1    0    0  501    0  0.00000000000E+00  0.00000000000E+00  0.10654518121E+04  0.10654518121E+04  0.00000000000E+00 0. -1.
         -1   -1    0    0    0  501 -0.00000000000E+00 -0.00000000000E+00 -0.19614846504E+02  0.19614846504E+02  0.00000000000E+00 0.  1.
         25    2    1    2    0    0 -0.80333440212E+02  0.35489887295E+02  0.42734330737E+03  0.45385359982E+03  0.12509114277E+03 0.  0.
         23    2    1    2    0    0  0.80333440212E+02 -0.35489887295E+02  0.61849365821E+03  0.63121305877E+03  0.90457319198E+02 0.  0.
          5    1    3    3  502    0 -0.29100192676E+02 -0.30393927784E+02  0.42168203808E+02  0.59718019662E+02  0.41800000000E+01 0. -1.
         -5    1    3    3    0  502 -0.51233247536E+02  0.65883815079E+02  0.38517510356E+03  0.39413558015E+03  0.41800000000E+01 0. -1.
        -11    1    4    4    0    0 -0.25661878945E+01  0.23398281039E+02  0.90110390273E+02  0.93134028749E+02  0.00000000000E+00 0. -1.
         11    1    4    4    0    0  0.82899628106E+02 -0.58888168334E+02  0.52838326794E+03  0.53807903002E+03  0.00000000000E+00 0.  1.
</event>
<event>
 8    1  0.6380238E-009  0.1238865E+03  0.7561462E-02  0.1236820E+00
          1   -1    0    0  501    0  0.00000000000E+00  0.00000000000E+00  0.94528678257E+03  0.94528678257E+03  0.00000000000E+00 0. -1.
         -1   -1    0    0    0  501 -0.00000000000E+00 -0.00000000000E+00 -0.46026420583E+02  0.46026420583E+02  0.00000000000E+00 0.  1.
         25    2    1    2    0    0 -0.47128687519E+02 -0.56827555948E+02  0.85831519819E+03  0.87051851150E+03  0.12508802947E+03 0.  0.
         23    2    1    2    0    0  0.47128687519E+02  0.56827555948E+02  0.40945163798E+02  0.12079469165E+03  0.86396567009E+02 0.  0.
          5    1    3    3  502    0  0.68856783541E+01  0.35098582350E+02  0.15319403418E+03  0.15736965259E+03  0.41800000000E+01 0. -1.
         -5    1    3    3    0  502 -0.54014365873E+02 -0.91926138298E+02  0.70512116401E+03  0.71314885891E+03  0.41800000000E+01 0. -1.
        -11    1    4    4    0    0  0.26230558788E+02 -0.15025337303E+02 -0.81352403359E+01  0.31304713874E+02  0.00000000000E+00 0.  1.
         11    1    4    4    0    0  0.20898128731E+02  0.71852893251E+02  0.49080404134E+02  0.89489977780E+02  0.00000000000E+00 0. -1.
</event>
<event>
 8    1  0.6380238E-009  0.2860125E+03  0.7561462E-02  0.1092450E+00
          2   -1    0    0  501    0  0.00000000000E+00  0.00000000000E+00  0.41352560941E+03  0.41352560941E+03  0.00000000000E+00 0.  1.
         -2   -1    0    0    0  501 -0.00000000000E+00 -0.00000000000E+00 -0.24037982855E+03  0.24037982855E+03  0.00000000000E+00 0. -1.
         25    2    1    2    0    0  0.26008279233E+03 -0.64778295785E+02 -0.39267875004E+02  0.29837727133E+03  0.12509094118E+03 0.  0.
         23    2    1    2    0    0 -0.26008279233E+03  0.64778295785E+02  0.21241365586E+03  0.35552816663E+03  0.97167019114E+02 0.  0.
          5    1    3    3  502    0  0.13953812702E+02 -0.40441602632E+02  0.14257933514E+02  0.45287892206E+02  0.41800000000E+01 0.  1.
         -5    1    3    3    0  502  0.24612897963E+03 -0.24336693153E+02 -0.53525808518E+02  0.25308937912E+03  0.41800000000E+01 0.  1.
        -11    1    4    4    0    0 -0.16655735390E+03  0.83467000298E+02  0.16569955524E+03  0.24932796651E+03  0.00000000000E+00 0. -1.
         11    1    4    4    0    0 -0.93525438427E+02 -0.18688704513E+02  0.46714100618E+02  0.10620020012E+03  0.00000000000E+00 0.  1.
</event>
<event>
 8    1  0.6380238E-009  0.2028649E+03  0.7561462E-02  0.1147344E+00
         -2   -1    0    0    0  501 -0.00000000000E+00  0.00000000000E+00  0.21016371930E+03  0.21016371930E+03  0.00000000000E+00 0.  1.
          2   -1    0    0  501    0  0.00000000000E+00 -0.00000000000E+00 -0.25499735534E+03  0.25499735534E+03  0.00000000000E+00 0. -1.
         25    2    1    2    0    0 -0.16049771743E+03  0.93565273977E+02  0.59934765901E+02  0.23184843644E+03  0.12509014158E+03 0.  0.
         23    2    1    2    0    0  0.16049771743E+03 -0.93565273977E+02 -0.10476840195E+03  0.23331263820E+03  0.94574792108E+02 0.  0.
          5    1    3    3  502    0 -0.38344929612E+02 -0.25102828438E+02 -0.10995534039E+02  0.47316591079E+02  0.41800000000E+01 0. -1.
         -5    1    3    3    0  502 -0.12215278782E+03  0.11866810242E+03  0.70930299940E+02  0.18453184536E+03  0.41800000000E+01 0. -1.
        -11    1    4    4    0    0  0.36101561668E+02 -0.40092538120E+02 -0.78710714996E+02  0.95425945230E+02  0.00000000000E+00 0. -1.
         11    1    4    4    0    0  0.12439615577E+03 -0.53472735857E+02 -0.26057686950E+02  0.13788669297E+03  0.00000000000E+00 0.  1.
</event>
<event>
 8    1  0.6380238E-009  0.1334924E+03  0.7561462E-02  0.1222364E+00
         -1   -1    0    0    0  501 -0.00000000000E+00  0.00000000000E+00  0.25398279354E+03  0.25398279354E+03  0.00000000000E+00 0.  1.
          1   -1    0    0  501    0  0.00000000000E+00 -0.00000000000E+00 -0.90705768991E+02  0.90705768991E+02  0.00000000000E+00 0. -1.
         25    2    1    2    0    0  0.32099559499E+02  0.88805281473E+02  0.34584829394E+02  0.16050172674E+03  0.12509170287E+03 0.  0.
         23    2    1    2    0    0 -0.32099559499E+02 -0.88805281473E+02  0.12869219516E+03  0.18418683579E+03  0.91904024099E+02 0.  0.
          5    1    3    3  502    0  0.70851667879E+02  0.70617260207E+02 -0.74020517272E+01  0.10039431782E+03  0.41800000000E+01 0. -1.
         -5    1    3    3    0  502 -0.38752108380E+02  0.18188021266E+02  0.41986881121E+02  0.60107408926E+02  0.41800000000E+01 0. -1.
        -11    1    4    4    0    0 -0.24837481474E+02 -0.10404607345E+03  0.12863988778E+03  0.16730423370E+03  0.00000000000E+00 0.  1.
         11    1    4    4    0    0 -0.72620780250E+01  0.15240791975E+02  0.52307379876E-01  0.16882602090E+02  0.00000000000E+00 0. -1.
</event>
<event>
 8    1  0.6380238E-009  0.9837906E+02  0.7561462E-02  0.1283742E+00
         -1   -1    0    0    0  501 -0.00000000000E+00  0.00000000000E+00  0.16240445559E+02  0.16240445559E+02  0.00000000000E+00 0.  1.
          1   -1    0    0  501    0  0.00000000000E+00 -0.00000000000E+00 -0.84498913491E+03  0.84498913491E+03  0.00000000000E+00 0. -1.
         25    2    1    2    0    0 -0.32266356626E+02 -0.27499812318E+02 -0.49585089678E+03  0.51313947445E+03  0.12508657384E+03 0.  0.
         23    2    1    2    0    0  0.32266356626E+02  0.27499812318E+02 -0.33289779258E+03  0.34809010602E+03  0.92457688496E+02 0.  0.
          5    1    3    3  502    0 -0.48130881386E+02 -0.49193913753E+02 -0.47186206802E+03  0.47687305074E+03  0.41800000000E+01 0. -1.
         -5    1    3    3    0  502  0.15864524760E+02  0.21694101434E+02 -0.23988828759E+02  0.36266423702E+02  0.41800000000E+01 0. -1.
        -11    1    4    4    0    0  0.23956601444E+02 -0.32311232277E+02 -0.10873493278E+03  0.11593627599E+03  0.00000000000E+00 0.  1.
         11    1    4    4    0    0  0.83097551827E+01  0.59811044596E+02 -0.22416285979E+03  0.23215383003E+03  0.00000000000E+00 0. -1.
</event>
<event>
 8    1  0.6380238E-009  0.1157382E+03  0.7561462E-02  0.1250298E+00
          2   -1    0    0  501    0  0.00000000000E+00  0.00000000000E+00  0.13853703780E+04  0.13853703780E+04  0.00000000000E+00 0. -1.
         -2   -1    0    0    0  501 -0.00000000000E+00 -0.00000000000E+00 -0.39028567127E+02  0.39028567127E+02  0.00000000000E+00 0.  1.
         25    2    1    2    0    0 -0.23604547672E+02 -0.55275552175E+02  0.12993586625E+04  0.13067489625E+04  0.12508939176E+03 0.  0.
         23    2    1    2    0    0  0.23604547672E+02  0.55275552175E+02  0.46983148453E+02  0.11764998267E+03  0.89563055135E+02 0.  0.
          5    1    3    3  502    0  0.13947056056E+02  0.36541448411E+02  0.34127544926E+03  0.34353486357E+03  0.41800000000E+01 0.  1.
         -5    1    3    3    0  502 -0.37551603728E+02 -0.91817000586E+02  0.95808321320E+03  0.96321409892E+03  0.41800000000E+01 0.  1.
        -11    1    4    4    0    0 -0.22352750862E+02  0.37342906179E+02  0.52291233337E+02  0.68033162479E+02  0.00000000000E+00 0. -1.
         11    1    4    4    0    0  0.45957298533E+02  0.17932645996E+02 -0.53080848844E+01  0.49616820193E+02  0.00000000000E+00 0.  1.
</event>
<event>
 8    1  0.6380238E-009  0.1243743E+03  0.7561462E-02  0.1236050E+00
          1   -1    0    0  501    0  0.00000000000E+00  0.00000000000E+00  0.42412230981E+03  0.42412230981E+03  0.00000000000E+00 0. -1.
         -1   -1    0    0    0  501 -0.00000000000E+00 -0.00000000000E+00 -0.45446644685E+02  0.45446644685E+02  0.00000000000E+00 0.  1.
         25    2    1    2    0    0 -0.77577800731E+02  0.26138278211E+02  0.15772029598E+03  0.21731197782E+03  0.12508908500E+03 0.  0.
         23    2    1    2    0    0  0.77577800731E+02 -0.26138278211E+02  0.22095536914E+03  0.25225697668E+03  0.90059882162E+02 0.  0.
          5    1    3    3  502    0  0.28196847751E+02 -0.19165062080E+02  0.35717579820E+02  0.49553806471E+02  0.41800000000E+01 0.  1.
         -5    1    3    3    0  502 -0.10577464848E+03  0.45303340291E+02  0.12200271616E+03  0.16775817135E+03  0.41800000000E+01 0.  1.
        -11    1    4    4    0    0  0.62055640949E+02  0.72091488759E+01  0.20084204142E+03  0.21033402008E+03  0.00000000000E+00 0. -1.
         11    1    4    4    0    0  0.15522159781E+02 -0.33347427087E+02  0.20113327718E+02  0.41922956593E+02  0.00000000000E+00 0.  1.
</event>
<event>
 8    1  0.6380238E-009  0.7660520E+02  0.7561462E-02  0.1338971E+00
         -1   -1    0    0    0  501 -0.00000000000E+00  0.00000000000E+00  0.42177086388E+03  0.42177086388E+03  0.00000000000E+00 0.  1.
          1   -1    0    0  501    0  0.00000000000E+00 -0.00000000000E+00 -0.29941225511E+02  0.29941225511E+02  0.00000000000E+00 0. -1.
         25    2    1    2    0    0  0.51323515366E+01  0.28981385431E+02  0.21425370213E+03  0.24983368046E+03  0.12508380104E+03 0.  0.
         23    2    1    2    0    0 -0.51323515366E+01 -0.28981385431E+02  0.17757593624E+03  0.20187840893E+03  0.91407970801E+02 0.  0.
          5    1    3    3  502    0  0.39085815370E+02  0.36066830802E+01  0.20156031677E+03  0.20538924709E+03  0.41800000000E+01 0.  1.
         -5    1    3    3    0  502 -0.33953463833E+02  0.25374702351E+02  0.12693385362E+02  0.44444433371E+02  0.41800000000E+01 0.  1.
        -11    1    4    4    0    0  0.10930386710E+02 -0.46270539297E+02  0.17084628619E+03  0.17733834798E+03  0.00000000000E+00 0.  1.
         11    1    4    4    0    0 -0.16062738247E+02  0.17289153866E+02  0.67296500495E+01  0.24540060945E+02  0.00000000000E+00 0. -1.
</event>
<event>
 8    1  0.6380238E-009  0.9201741E+02  0.7561462E-02  0.1298039E+00
         -2   -1    0    0    0  501 -0.00000000000E+00  0.00000000000E+00  0.31955706681E+02  0.31955706681E+02  0.00000000000E+00 0.  1.
          2   -1    0    0  501    0  0.00000000000E+00 -0.00000000000E+00 -0.66253743288E+03  0.66253743288E+03  0.00000000000E+00 0. -1.
         25    2    1    2    0    0 -0.58877356845E+02  0.64026294639E+02 -0.24115340345E+03  0.28525419193E+03  0.12509628477E+03 0.  0.
         23    2    1    2    0    0  0.58877356845E+02 -0.64026294639E+02 -0.38942832275E+03  0.40923894763E+03  0.90863568847E+02 0.  0.
          5    1    3    3  502    0 -0.34898047216E+02  0.28846187711E+02 -0.23805913197E+03  0.24236253622E+03  0.41800000000E+01 0.  1.
         -5    1    3    3    0  502 -0.23979309629E+02  0.35180106927E+02 -0.30942714720E+01  0.42891655711E+02  0.41800000000E+01 0.  1.
        -11    1    4    4    0    0  0.28637265070E+02 -0.44593506350E+01 -0.23640985345E+02  0.37401536691E+02  0.00000000000E+00 0.  1.
         11    1    4    4    0    0  0.30240091776E+02 -0.59566944004E+02 -0.36578733741E+03  0.37183741094E+03  0.00000000000E+00 0. -1.
</event>
<event>
 8    1  0.6380238E-009  0.1583766E+03  0.7561462E-02  0.1190542E+00
          1   -1    0    0  501    0  0.00000000000E+00  0.00000000000E+00  0.89253111365E+03  0.89253111365E+03  0.00000000000E+00 0. -1.
         -1   -1    0    0    0  501 -0.00000000000E+00 -0.00000000000E+00 -0.39288429785E+02  0.39288429785E+02  0.00000000000E+00 0.  1.
         25    2    1    2    0    0 -0.12725495474E+03  0.26342001257E+02  0.64196659561E+03  0.66682969940E+03  0.12511200419E+03 0.  0.
         23    2    1    2    0    0  0.12725495474E+03 -0.26342001257E+02  0.21127608826E+03  0.26498984403E+03  0.93243270193E+02 0.  0.
          5    1    3    3  502    0  0.21211239965E+02  0.21612400158E+02  0.83097933352E+02  0.88542371037E+02  0.41800000000E+01 0. -1.
         -5    1    3    3    0  502 -0.14846619470E+03  0.47296010983E+01  0.55886866226E+03  0.57828732836E+03  0.41800000000E+01 0. -1.
        -11    1    4    4    0    0  0.62937519353E+02 -0.36060155939E+02  0.42399578866E+02  0.84018988786E+02  0.00000000000E+00 0.  1.
         11    1    4    4    0    0  0.64317435384E+02  0.97181546823E+01  0.16887650939E+03  0.18097085525E+03  0.00000000000E+00 0. -1.
</event>
<event>
 8    1  0.6380238E-009  0.1095700E+03  0.7561462E-02  0.1261368E+00
          2   -1    0    0  501    0  0.00000000000E+00  0.00000000000E+00  0.22094310517E+03  0.22094310517E+03  0.00000000000E+00 0. -1.
         -2   -1    0    0    0  501 -0.00000000000E+00 -0.00000000000E+00 -0.86406888863E+02  0.86406888863E+02  0.00000000000E+00 0.  1.
         25    2    1    2    0    0  0.50495692476E+02 -0.59048170892E+02  0.35567161267E+02  0.15148928981E+03  0.12508988977E+03 0.  0.
         23    2    1    2    0    0 -0.50495692476E+02  0.59048170892E+02  0.98969055036E+02  0.15586070422E+03  0.91984693404E+02 0.  0.
          5    1    3    3  502    0 -0.23570774083E+02  0.92399794010E+01  0.43333731466E+02  0.50361128789E+02  0.41800000000E+01 0. -1.
         -5    1    3    3    0  502  0.74066466559E+02 -0.68288150293E+02 -0.77665701989E+01  0.10112816102E+03  0.41800000000E+01 0. -1.
        -11    1    4    4    0    0 -0.17905391342E+02 -0.68204517689E+01  0.76720027433E+02  0.79076445360E+02  0.00000000000E+00 0. -1.
         11    1    4    4    0    0 -0.32590301135E+02  0.65868622661E+02  0.22249027603E+02  0.76784258859E+02  0.00000000000E+00 0.  1.
</event>
<event>
 8    1  0.6380238E-009  0.8956512E+02  0.7561462E-02  0.1303908E+00
          1   -1    0    0  501    0  0.00000000000E+00  0.00000000000E+00  0.12935484514E+04  0.12935484514E+04  0.00000000000E+00 0. -1.
         -1   -1    0    0    0  501 -0.00000000000E+00 -0.00000000000E+00 -0.12011869733E+02  0.12011869733E+02  0.00000000000E+00 0.  1.
         25    2    1    2    0    0  0.19033715431E+02 -0.19237363183E+02  0.10024135706E+04  0.10105505601E+04  0.12508840695E+03 0.  0.
         23    2    1    2    0    0 -0.19033715431E+02  0.19237363183E+02  0.27912301111E+03  0.29500976106E+03  0.91590094041E+02 0.  0.
          5    1    3    3  502    0  0.55607374870E+02 -0.37157426897E+02  0.85303391376E+03  0.85566184030E+03  0.41800000000E+01 0. -1.
         -5    1    3    3    0  502 -0.36573659439E+02  0.17920063714E+02  0.14937965681E+03  0.15488871978E+03  0.41800000000E+01 0. -1.
        -11    1    4    4    0    0 -0.33569831337E+01 -0.24493581484E+02  0.20124536411E+02  0.31877920814E+02  0.00000000000E+00 0.  1.
         11    1    4    4    0    0 -0.15676732298E+02  0.43730944667E+02  0.25899847470E+03  0.26313184025E+03  0.00000000000E+00 0. -1.
</event>
<event>
 8    1  0.6380238E-009  0.9070055E+02  0.7561462E-02  0.1301164E+00
         -1   -1    0    0    0  501 -0.00000000000E+00  0.00000000000E+00  0.47967551035E+03  0.47967551035E+03  0.00000000000E+00 0.  1.
          1   -1    0    0  501    0  0.00000000000E+00 -0.00000000000E+00 -0.31782565606E+02  0.31782565606E+02  0.00000000000E+00 0. -1.
         25    2    1    2    0    0  0.11324111505E+02  0.64015618607E+00  0.39226481629E+03  0.41188248381E+03  0.12508736572E+03 0.  0.
         23    2    1    2    0    0 -0.11324111505E+02 -0.64015618607E+00  0.55628128453E+02  0.99575592152E+02  0.81805651247E+02 0.  0.
          5    1    3    3  502    0 -0.22192920372E+02 -0.48134497511E+02  0.96043178499E+02  0.10977804927E+03  0.41800000000E+01 0.  1.
         -5    1    3    3    0  502  0.33517031877E+02  0.48774653697E+02  0.29622163779E+03  0.30210443454E+03  0.41800000000E+01 0.  1.
        -11    1    4    4    0    0  0.27311362107E+02  0.95746767950E+01 -0.24852057582E+01  0.29047567600E+02  0.00000000000E+00 0. -1.
         11    1    4    4    0    0 -0.38635473612E+02 -0.10214832981E+02  0.58113334211E+02  0.70528024552E+02  0.00000000000E+00 0.  1.
</event>
<event>
 8    1  0.6380238E-009  0.9312739E+02  0.7561462E-02  0.1295450E+00
         -1   -1    0    0    0  501 -0.00000000000E+00  0.00000000000E+00  0.57336920717E+02  0.57336920717E+02  0.00000000000E+00 0.  1.
          1   -1    0    0  501    0  0.00000000000E+00 -0.00000000000E+00 -0.21876340484E+03  0.21876340484E+03  0.00000000000E+00 0. -1.
         25    2    1    2    0    0 -0.10569699708E+02 -0.17703638996E+02 -0.12092593395E+03  0.17520405276E+03  0.12509293032E+03 0.  0.
         23    2    1    2    0    0  0.10569699708E+02  0.17703638996E+02 -0.40500550169E+02  0.10089627279E+03  0.90081218432E+02 0.  0.
          5    1    3    3  502    0  0.28564852698E+01 -0.54432850856E+02 -0.75329996342E+01  0.55184356877E+02  0.41800000000E+01 0.  1.
         -5    1    3    3    0  502 -0.13426184977E+02  0.36729211860E+02 -0.11339293432E+03  0.12001969588E+03  0.41800000000E+01 0.  1.
        -11    1    4    4    0    0  0.50471152740E+02  0.70699596083E+01 -0.19481460735E+02  0.54560506780E+02  0.00000000000E+00 0.  1.
         11    1    4    4    0    0 -0.39901453033E+02  0.10633679388E+02 -0.21019089434E+02  0.46335766014E+02  0.00000000000E+00 0. -1.
</event>
<event>
 8    1  0.6380238E-009  0.1294499E+03  0.7561462E-02  0.1228274E+00
          2   -1    0    0  501    0  0.00000000000E+00  0.00000000000E+00  0.42883736194E+03  0.42883736194E+03  0.00000000000E+00 0. -1.
         -2   -1    0    0    0  501 -0.00000000000E+00 -0.00000000000E+00 -0.66923141536E+02  0.66923141536E+02  0.00000000000E+00 0.  1.
         25    2    1    2    0    0  0.33439948990E+02 -0.84294565085E+02  0.56213440114E+02  0.16441086947E+03  0.12508868557E+03 0.  0.
         23    2    1    2    0    0 -0.33439948990E+02  0.84294565085E+02  0.30570078029E+03  0.33134963401E+03  0.90087784951E+02 0.  0.
          5    1    3    3  502    0 -0.34558744003E+02 -0.25291361748E+02 -0.18987801756E+02  0.47031572179E+02  0.41800000000E+01 0. -1.
         -5    1    3    3    0  502  0.67998692992E+02 -0.59003203337E+02  0.75201241870E+02  0.11737929729E+03  0.41800000000E+01 0. -1.
        -11    1    4    4    0    0 -0.62717434659E+02  0.47226727405E+02  0.16077171894E+03  0.17891726021E+03  0.00000000000E+00 0. -1.
         11    1    4    4    0    0  0.29277485669E+02  0.37067837680E+02  0.14492906135E+03  0.15243237379E+03  0.00000000000E+00 0.  1.
</event>
<event>
 8    1  0.6380238E-009  0.8406990E+02  0.7561462E-02  0.1317883E+00
         -2   -1    0    0    0  501 -0.00000000000E+00  0.00000000000E+00  0.14904022783E+02  0.14904022783E+02  0.00000000000E+00 0. -1.
          2   -1    0    0  501    0  0.00000000000E+00 -0.00000000000E+00 -0.97395770057E+03  0.97395770057E+03  0.00000000000E+00 0.  1.
         25    2    1    2    0    0  0.39183446368E+02 -0.15442868500E+02 -0.71871060968E+03  0.73073039242E+03  0.12509253086E+03 0.  0.
         23    2    1    2    0    0 -0.39183446368E+02  0.15442868500E+02 -0.24034306811E+03  0.25813133094E+03  0.84220953257E+02 0.  0.
          5    1    3    3  502    0  0.16519268032E+01 -0.40741106332E+02 -0.75440210709E+02  0.85856067923E+02  0.41800000000E+01 0. -1.
         -5    1    3    3    0  502  0.37531519565E+02  0.25298237832E+02 -0.64327039897E+03  0.64487432449E+03  0.41800000000E+01 0. -1.
        -11    1    4    4    0    0 -0.18677483400E+02  0.43271032545E+02 -0.19768695528E+03  0.20322736757E+03  0.00000000000E+00 0.  1.
         11    1    4    4    0    0 -0.20505962968E+02 -0.27828164045E+02 -0.42656112831E+02  0.54903963366E+02  0.00000000000E+00 0. -1.
</event>
<event>
 8    1  0.6380238E-009  0.1793052E+03  0.7561462E-02  0.1168477E+00
          1   -1    0    0  501    0  0.00000000000E+00  0.00000000000E+00  0.68039193811E+03  0.68039193811E+03  0.00000000000E+00 0. -1.
         -1   -1    0    0    0  501 -0.00000000000E+00 -0.00000000000E+00 -0.58318722763E+02  0.58318722763E+02  0.00000000000E+00 0.  1.
         25    2    1    2    0    0 -0.66923086784E+01 -0.14424765050E+03  0.17264694743E+03  0.25750438995E+03  0.12509744488E+03 0.  0.
         23    2    1    2    0    0  0.66923086784E+01  0.14424765050E+03  0.44942626792E+03  0.48120627092E+03  0.93398785911E+02 0.  0.
          5    1    3    3  502    0  0.26979802515E+02 -0.15243590846E+03  0.15177300526E+03  0.21683434566E+03  0.41800000000E+01 0. -1.
         -5    1    3    3    0  502 -0.33672111194E+02  0.81882579574E+01  0.20873942162E+02  0.40670044283E+02  0.41800000000E+01 0. -1.
        -11    1    4    4    0    0  0.26630317960E+02  0.36960555800E+01  0.11105301450E+03  0.11426113377E+03  0.00000000000E+00 0. -1.
         11    1    4    4    0    0 -0.19938009281E+02  0.14055159492E+03  0.33837325342E+03  0.36694513715E+03  0.00000000000E+00 0.  1.
</event>
<event>
 8    1  0.6380238E-009  0.2002355E+03  0.7561462E-02  0.1149540E+00
          1   -1    0    0  501    0  0.00000000000E+00  0.00000000000E+00  0.14069981580E+04  0.14069981580E+04  0.00000000000E+00 0. -1.
         -1   -1    0    0    0  501 -0.00000000000E+00 -0.00000000000E+00 -0.29418385143E+02  0.29418385143E+02  0.00000000000E+00 0.  1.
         25    2    1    2    0    0  0.91294102269E+02 -0.14640127409E+03  0.63833669226E+03  0.67297034035E+03  0.12508956848E+03 0.  0.
         23    2    1    2    0    0 -0.91294102269E+02  0.14640127409E+03  0.73924308063E+03  0.76344620283E+03  0.81251622660E+02 0.  0.
          5    1    3    3  502    0  0.34883823520E+02 -0.15100843620E+03  0.49858059688E+03  0.52213074314E+03  0.41800000000E+01 0.  1.
         -5    1    3    3    0  502  0.56410278749E+02  0.46071621056E+01  0.13975609538E+03  0.15083959721E+03  0.41800000000E+01 0.  1.
        -11    1    4    4    0    0 -0.31637254094E+02  0.11880769654E+03  0.42633166484E+03  0.44370584068E+03  0.00000000000E+00 0.  1.
         11    1    4    4    0    0 -0.59656848175E+02  0.27593577548E+02  0.31291141579E+03  0.31974036215E+03  0.00000000000E+00 0. -1.
</event>
<event>
 8    1  0.6380238E-009  0.1486938E+03  0.7561462E-02  0.1202087E+00
          1   -1    0    0  501    0  0.00000000000E+00  0.00000000000E+00  0.29202998125E+03  0.29202998125E+03  0.00000000000E+00 0. -1.
         -1   -1    0    0    0  501 -0.00000000000E+00 -0.00000000000E+00 -0.99371022216E+02  0.99371022216E+02  0.00000000000E+00 0.  1.
         25    2    1    2    0    0 -0.76898364075E+02  0.83216265356E+02  0.27265534975E+02  0.17096692943E+03  0.12509187162E+03 0.  0.
         23    2    1    2    0    0  0.76898364075E+02 -0.83216265356E+02  0.16539342406E+03  0.22043407403E+03  0.91640007939E+02 0.  0.
          5    1    3    3  502    0  0.21736165443E+02  0.49287558434E+02  0.37957704047E+02  0.66030174929E+02  0.41800000000E+01 0.  1.
         -5    1    3    3    0  502 -0.98634529518E+02  0.33928706921E+02 -0.10692169072E+02  0.10493675451E+03  0.41800000000E+01 0.  1.
        -11    1    4    4    0    0 -0.14672152303E+01 -0.55986696031E+02  0.35504695663E+02  0.66311735516E+02  0.00000000000E+00 0.  1.
         11    1    4    4    0    0  0.78365579305E+02 -0.27229569325E+02  0.12988872839E+03  0.15412233851E+03  0.00000000000E+00 0. -1.
</event>
<event>
 8    1  0.6380238E-009  0.1139344E+03  0.7561462E-02  0.1253453E+00
         -1   -1    0    0    0  501 -0.00000000000E+00  0.00000000000E+00  0.14903881291E+03  0.14903881291E+03  0.00000000000E+00 0.  1.
          1   -1    0    0  501    0  0.00000000000E+00 -0.00000000000E+00 -0.10612726135E+03  0.10612726135E+03  0.00000000000E+00 0. -1.
         25    2    1    2    0    0 -0.48705805540E+00 -0.63112039852E+02  0.14559608771E+02  0.14086399254E+03  0.12508922970E+03 0.  0.
         23    2    1    2    0    0  0.48705805540E+00  0.63112039852E+02  0.28351942786E+02  0.11430208171E+03  0.90982231368E+02 0.  0.
          5    1    3    3  502    0  0.56145333524E+02 -0.42550606896E+02  0.32735082461E+02  0.77794027068E+02  0.41800000000E+01 0. -1.
         -5    1    3    3    0  502 -0.56632391580E+02 -0.20561432956E+02 -0.18175473689E+02  0.63069965475E+02  0.41800000000E+01 0. -1.
        -11    1    4    4    0    0  0.23576325230E+02  0.69132219909E+02  0.44463411068E+02  0.85510828932E+02  0.00000000000E+00 0.  1.
         11    1    4    4    0    0 -0.23089267174E+02 -0.60201800576E+01 -0.16111468281E+02  0.28791252782E+02  0.00000000000E+00 0. -1.
</event>
<event>
 8    1  0.6380238E-009  0.1508622E+03  0.7561462E-02  0.1199418E+00
          1   -1    0    0  501    0  0.00000000000E+00  0.00000000000E+00  0.29447034429E+03  0.29447034429E+03  0.00000000000E+00 0. -1.
         -1   -1    0    0    0  501 -0.00000000000E+00 -0.00000000000E+00 -0.10559540797E+03  0.10559540797E+03  0.00000000000E+00 0.  1.
         25    2    1    2    0    0 -0.55046954249E+01 -0.13805833402E+03  0.97058488679E+02  0.21013984796E+03  0.12509196701E+03 0.  0.
         23    2    1    2    0    0  0.55046954249E+01  0.13805833402E+03  0.91816447641E+02  0.18992590429E+03  0.92472611070E+02 0.  0.
          5    1    3    3  502    0 -0.49031309252E+01 -0.13120027681E+03  0.20249795834E+02  0.13291004461E+03  0.41800000000E+01 0. -1.
         -5    1    3    3    0  502 -0.60156449970E+00 -0.68580572141E+01  0.76808692845E+02  0.77229803348E+02  0.41800000000E+01 0. -1.
        -11    1    4    4    0    0 -0.28761462717E+02  0.12035290504E+03  0.86530541122E+02  0.15099529144E+03  0.00000000000E+00 0. -1.
         11    1    4    4    0    0  0.34266158142E+02  0.17705428979E+02  0.52859065191E+01  0.38930612850E+02  0.00000000000E+00 0.  1.
</event>
<event>
 8    1  0.6380238E-009  0.6289880E+02  0.7561462E-02  0.1386054E+00
          3   -1    0    0  501    0  0.00000000000E+00  0.00000000000E+00  0.58083217715E+03  0.58083217715E+03  0.00000000000E+00 0. -1.
         -3   -1    0    0    0  501 -0.00000000000E+00 -0.00000000000E+00 -0.24887509379E+02  0.24887509379E+02  0.00000000000E+00 0.  1.
         25    2    1    2    0    0  0.15146506529E+02  0.21937740685E+02  0.43360176127E+03  0.45207648659E+03  0.12510787835E+03 0.  0.
         23    2    1    2    0    0 -0.15146506529E+02 -0.21937740685E+02  0.12234290651E+03  0.15364319994E+03  0.89037997451E+02 0.  0.
          5    1    3    3  502    0  0.31251660881E+02  0.28007881751E+00  0.19497311928E+02  0.37072393022E+02  0.41800000000E+01 0.  1.
         -5    1    3    3    0  502 -0.16105154353E+02  0.21657661867E+02  0.41410444934E+03  0.41500409356E+03  0.41800000000E+01 0.  1.
        -11    1    4    4    0    0  0.19368578139E+02 -0.25759907011E+02  0.67255140415E+01  0.32923352919E+02  0.00000000000E+00 0.  1.
         11    1    4    4    0    0 -0.34515084667E+02  0.38221663264E+01  0.11561739247E+03  0.12071984703E+03  0.00000000000E+00 0. -1.
</event>
<event>
 8    1  0.6380238E-009  0.8484586E+02  0.7561462E-02  0.1315836E+00
         -2   -1    0    0    0  501 -0.00000000000E+00  0.00000000000E+00  0.48922514135E+02  0.48922514135E+02  0.00000000000E+00 0.  1.
          2   -1    0    0  501    0  0.00000000000E+00 -0.00000000000E+00 -0.22877799080E+03  0.22877799080E+03  0.00000000000E+00 0. -1.
         25    2    1    2    0    0 -0.11364236879E+02  0.13196153935E+02 -0.13415487989E+03  0.18424709258E+03  0.12508467119E+03 0.  0.
         23    2    1    2    0    0  0.11364236879E+02 -0.13196153935E+02 -0.45700596776E+02  0.93453412360E+02  0.79634862827E+02 0.  0.
          5    1    3    3  502    0  0.17758317171E+01 -0.51023510885E+02 -0.94584729167E+02  0.10756530869E+03  0.41800000000E+01 0. -1.
         -5    1    3    3    0  502 -0.13140068596E+02  0.64219664819E+02 -0.39570150722E+02  0.76681783889E+02  0.41800000000E+01 0. -1.
        -11    1    4    4    0    0 -0.17907022962E+02 -0.15137042772E+02  0.13733702680E+02  0.27173629213E+02  0.00000000000E+00 0.  1.
         11    1    4    4    0    0  0.29271259842E+02  0.19408888378E+01 -0.59434299456E+02  0.66279783147E+02  0.00000000000E+00 0. -1.
</event>
<event>
 8    1  0.6380238E-009  0.1297623E+03  0.7561462E-02  0.1227809E+00
         -1   -1    0    0    0  501 -0.00000000000E+00  0.00000000000E+00  0.26302464722E+02  0.26302464722E+02  0.00000000000E+00 0.  1.
          1   -1    0    0  501    0  0.00000000000E+00 -0.00000000000E+00 -0.67623807673E+03  0.67623807673E+03  0.00000000000E+00 0. -1.
         25    2    1    2    0    0 -0.68033120105E+02 -0.31838647745E+02 -0.38019463369E+03  0.40723165003E+03  0.12508977729E+03 0.  0.
         23    2    1    2    0    0  0.68033120105E+02  0.31838647745E+02 -0.26974097832E+03  0.29530889142E+03  0.93834647359E+02 0.  0.
          5    1    3    3  502    0 -0.42249102966E+02  0.43371329194E+02 -0.11098651223E+03  0.12649718256E+03  0.41800000000E+01 0. -1.
         -5    1    3    3    0  502 -0.25784017139E+02 -0.75209976939E+02 -0.26920812145E+03  0.28073446747E+03  0.41800000000E+01 0. -1.
        -11    1    4    4    0    0  0.17130964094E+01  0.50335513233E+02 -0.13289360896E+03  0.14211723996E+03  0.00000000000E+00 0.  1.
         11    1    4    4    0    0  0.66320023696E+02 -0.18496865488E+02 -0.13684736936E+03  0.15319165146E+03  0.00000000000E+00 0. -1.
</event>
<event>
 8    1  0.6380238E-009  0.1060568E+03  0.7561462E-02  0.1268051E+00
         -2   -1    0    0    0  501 -0.00000000000E+00  0.00000000000E+00  0.14849420674E+02  0.14849420674E+02  0.00000000000E+00 0.  1.
          2   -1    0    0  501    0  0.00000000000E+00 -0.00000000000E+00 -0.91624747898E+03  0.91624747898E+03  0.00000000000E+00 0. -1.
         25    2    1    2    0    0  0.24522201609E+01  0.44084706562E+02 -0.57222701390E+03  0.58740145666E+03  0.12508893281E+03 0.  0.
         23    2    1    2    0    0 -0.24522201609E+01 -0.44084706562E+02 -0.32917104441E+03  0.34369544300E+03  0.88450586903E+02 0.  0.
          5    1    3    3  502    0  0.53131803463E+02  0.41575795995E+02 -0.18733741661E+03  0.19915902042E+03  0.41800000000E+01 0. -1.
         -5    1    3    3    0  502 -0.50679583302E+02  0.25089105674E+01 -0.38488959728E+03  0.38824243624E+03  0.41800000000E+01 0. -1.
        -11    1    4    4    0    0  0.37368507662E+02 -0.48125868072E+01 -0.19013556123E+03  0.19383265463E+03  0.00000000000E+00 0. -1.
         11    1    4    4    0    0 -0.39820727823E+02 -0.39272119755E+02 -0.13903548318E+03  0.14986278837E+03  0.00000000000E+00 0.  1.
</event>
<event>
 8    1  0.6380238E-009  0.1411639E+03  0.7561462E-02  0.1211771E+00
          2   -1    0    0  501    0  0.00000000000E+00  0.00000000000E+00  0.90575898957E+03  0.90575898957E+03  0.00000000000E+00 0. -1.
         -2   -1    0    0    0  501 -0.00000000000E+00 -0.00000000000E+00 -0.31327927824E+02  0.31327927824E+02  0.00000000000E+00 0.  1.
         25    2    1    2    0    0  0.87553314030E+02 -0.44937165601E+02  0.69657537250E+03  0.71452790398E+03  0.12509174372E+03 0.  0.
         23    2    1    2    0    0 -0.87553314030E+02  0.44937165601E+02  0.17785568925E+03  0.22255901341E+03  0.90636287455E+02 0.  0.
          5    1    3    3  502    0  0.96017059179E+02  0.10273514334E+02  0.33592311226E+03  0.34955204262E+03  0.41800000000E+01 0. -1.
         -5    1    3    3    0  502 -0.84637451486E+01 -0.55210679934E+02  0.36065226024E+03  0.36497586136E+03  0.41800000000E+01 0. -1.
        -11    1    4    4    0    0  0.14900299068E+02  0.18681509457E+02  0.14491745563E+02  0.27946885289E+02  0.00000000000E+00 0.  1.
         11    1    4    4    0    0 -0.10245361310E+03  0.26255656143E+02  0.16336394368E+03  0.19461212812E+03  0.00000000000E+00 0. -1.
</event>
<event>
 8    1  0.6380238E-009  0.1321000E+03  0.7561462E-02  0.1224373E+00
          1   -1    0    0  501    0  0.00000000000E+00  0.00000000000E+00  0.29073074718E+03  0.29073074718E+03  0.00000000000E+00 0. -1.
         -1   -1    0    0    0  501 -0.00000000000E+00 -0.00000000000E+00 -0.79883788660E+02  0.79883788660E+02  0.00000000000E+00 0.  1.
         25    2    1    2    0    0 -0.85039247089E+02  0.47541755000E+02  0.16760596344E+03  0.23071863388E+03  0.12508971590E+03 0.  0.
         23    2    1    2    0    0  0.85039247089E+02 -0.47541755000E+02  0.43240995075E+02  0.13989590196E+03  0.90604567852E+02 0.  0.
          5    1    3    3  502    0 -0.63309505961E+02 -0.24435280032E+02  0.12964065703E+03  0.14638766618E+03  0.41800000000E+01 0.  1.
         -5    1    3    3    0  502 -0.21729741128E+02  0.71977035033E+02  0.37965306410E+02  0.84330967695E+02  0.41800000000E+01 0.  1.
        -11    1    4    4    0    0  0.41792690556E+01  0.16963705300E+02  0.31201985235E+02  0.35760277823E+02  0.00000000000E+00 0.  1.
         11    1    4    4    0    0  0.80859978033E+02 -0.64505460300E+02  0.12039009839E+02  0.10413562414E+03  0.00000000000E+00 0. -1.
</event>
<event>
 8    1  0.6380238E-009  0.1189548E+03  0.7561462E-02  0.1244831E+00
          3   -1    0    0  501    0  0.00000000000E+00  0.00000000000E+00  0.26174013195E+03  0.26174013195E+03  0.00000000000E+00 0. -1.
         -3   -1    0    0    0  501 -0.00000000000E+00 -0.00000000000E+00 -0.63844124218E+02  0.63844124218E+02  0.00000000000E+00 0.  1.
         25    2    1    2    0    0  0.59136936793E+02 -0.24149460442E+02  0.14477139349E+03  0.20170668444E+03  0.12508579633E+03 0.  0.
         23    2    1    2    0    0 -0.59136936793E+02  0.24149460442E+02  0.53124614243E+02  0.12387757173E+03  0.91886094735E+02 0.  0.
          5    1    3    3  502    0 -0.31744458616E+01  0.46119155534E+02  0.49668947827E+02  0.67981838693E+02  0.41800000000E+01 0. -1.
         -5    1    3    3    0  502  0.62311382654E+02 -0.70268615976E+02  0.95102445661E+02  0.13372484575E+03  0.41800000000E+01 0. -1.
        -11    1    4    4    0    0 -0.37944478962E+02 -0.23985165240E+02 -0.53771215528E+01  0.45210453122E+02  0.00000000000E+00 0.  1.
         11    1    4    4    0    0 -0.21192457831E+02  0.48134625682E+02  0.58501735796E+02  0.78667118605E+02  0.00000000000E+00 0. -1.
</event>
<event>
 8    1  0.6380238E-009  0.1071681E+03  0.7561462E-02  0.1265906E+00
          1   -1    0    0  501    0  0.00000000000E+00  0.00000000000E+00  0.10256815244E+04  0.10256815244E+04  0.00000000000E+00 0. -1.
         -1   -1    0    0    0  501 -0.00000000000E+00 -0.00000000000E+00 -0.14988447227E+02  0.14988447227E+02  0.00000000000E+00 0.  1.
         25    2    1    2    0    0 -0.44752536910E+02  0.33195611985E+02  0.65121787794E+03  0.66545936778E+03  0.12508679949E+03 0.  0.
         23    2    1    2    0    0  0.44752536910E+02 -0.33195611985E+02  0.35947519926E+03  0.37521060388E+03  0.91955642348E+02 0.  0.
          5    1    3    3  502    0  0.61043194522E+01 -0.31442514707E+02  0.39529997622E+03  0.39661749589E+03  0.41800000000E+01 0. -1.
         -5    1    3    3    0  502 -0.50856856363E+02  0.64638126692E+02  0.25591790172E+03  0.26884187189E+03  0.41800000000E+01 0. -1.
        -11    1    4    4    0    0  0.13942279813E+02 -0.58297130022E+02  0.14198034399E+03  0.15411476443E+03  0.00000000000E+00 0.  1.
         11    1    4    4    0    0  0.30810257097E+02  0.25101518037E+02  0.21749485528E+03  0.22109583945E+03  0.00000000000E+00 0. -1.
</event>
<event>
 8    1  0.6380238E-009  0.1219269E+03  0.7561462E-02  0.1239952E+00
         -2   -1    0    0    0  501 -0.00000000000E+00  0.00000000000E+00  0.34977744087E+02  0.34977744087E+02  0.00000000000E+00 0.  1.
          2   -1    0    0  501    0  0.00000000000E+00 -0.00000000000E+00 -0.56152252238E+03  0.56152252238E+03  0.00000000000E+00 0. -1.
         25    2    1    2    0    0  0.61098477837E+02  0.38477952765E+01 -0.15262610852E+03  0.20661568898E+03  0.12508990530E+03 0.  0.
         23    2    1    2    0    0 -0.61098477837E+02 -0.38477952765E+01 -0.37391866977E+03  0.38988457749E+03  0.91907467789E+02 0.  0.
          5    1    3    3  502    0  0.38185703403E+02 -0.59149304056E+02 -0.62652473581E+02  0.94337653991E+02  0.41800000000E+01 0. -1.
         -5    1    3    3    0  502  0.22912774434E+02  0.62997099332E+02 -0.89973634938E+02  0.11227803499E+03  0.41800000000E+01 0. -1.
        -11    1    4    4    0    0 -0.53809788542E+02  0.36589667181E+02 -0.17359103726E+03  0.18538647551E+03  0.00000000000E+00 0.  1.
         11    1    4    4    0    0 -0.72886892957E+01 -0.40437462457E+02 -0.20032763251E+03  0.20449810197E+03  0.00000000000E+00 0. -1.
</event>
<event>
 8    1  0.6380238E-009  0.7170519E+02  0.7561462E-02  0.1354389E+00
          3   -1    0    0  501    0  0.00000000000E+00  0.00000000000E+00  0.42380357681E+02  0.42380357681E+02  0.00000000000E+00 0. -1.
         -3   -1    0    0    0  501 -0.00000000000E+00 -0.00000000000E+00 -0.29338678325E+03  0.29338678325E+03  0.00000000000E+00 0.  1.
         25    2    1    2    0    0 -0.11768376390E+02  0.24234166368E+02 -0.14886685707E+03  0.19630653906E+03  0.12509646934E+03 0.  0.
         23    2    1    2    0    0  0.11768376390E+02 -0.24234166368E+02 -0.10213956850E+03  0.13946060188E+03  0.91054810524E+02 0.  0.
          5    1    3    3  502    0  0.14222723299E+02  0.61449271029E+02 -0.13433024371E+03  0.14846004696E+03  0.41800000000E+01 0. -1.
         -5    1    3    3    0  502 -0.25991099689E+02 -0.37215104661E+02 -0.14536613357E+02  0.47846492096E+02  0.41800000000E+01 0. -1.
        -11    1    4    4    0    0 -0.59951723123E+01 -0.10761328609E+02  0.15459251487E+02  0.19767062023E+02  0.00000000000E+00 0. -1.
         11    1    4    4    0    0  0.17763548702E+02 -0.13472837759E+02 -0.11759881999E+03  0.11969353986E+03  0.00000000000E+00 0.  1.
</event>
<event>
 8    1  0.6380238E-009  0.1311529E+03  0.7561462E-02  0.1225755E+00
         -2   -1    0    0    0  501 -0.00000000000E+00  0.00000000000E+00  0.20423360415E+02  0.20423360415E+02  0.00000000000E+00 0.  1.
          2   -1    0    0  501    0  0.00000000000E+00 -0.00000000000E+00 -0.14782801871E+04  0.14782801871E+04  0.00000000000E+00 0. -1.
         25    2    1    2    0    0 -0.34126665810E+01 -0.92480174772E+02 -0.11906019313E+04  0.12007267473E+04  0.12509010257E+03 0.  0.
         23    2    1    2    0    0  0.34126665810E+01  0.92480174772E+02 -0.26725489540E+03  0.29797680027E+03  0.93812394508E+02 0.  0.
          5    1    3    3  502    0  0.49529787060E+02 -0.75845270608E+02 -0.52247326966E+03  0.53028435277E+03  0.41800000000E+01 0.  1.
         -5    1    3    3    0  502 -0.52942453641E+02 -0.16634904163E+02 -0.66812866164E+03  0.67044239449E+03  0.41800000000E+01 0.  1.
        -11    1    4    4    0    0 -0.12443591447E+02 -0.76417775566E+01 -0.29479391101E+01  0.14897317790E+02  0.00000000000E+00 0.  1.
         11    1    4    4    0    0  0.15856258028E+02  0.10012195233E+03 -0.26430695629E+03  0.28307948248E+03  0.00000000000E+00 0. -1.
</event>
<event>
 8    1  0.6380238E-009  0.1724363E+03  0.7561462E-02  0.1175331E+00
         -4   -1    0    0    0  501 -0.00000000000E+00  0.00000000000E+00  0.68566499476E+03  0.68566499476E+03  0.00000000000E+00 0.  1.
          4   -1    0    0  501    0  0.00000000000E+00 -0.00000000000E+00 -0.59236970391E+02  0.59236970391E+02  0.00000000000E+00 0. -1.
         25    2    1    2    0    0 -0.66781238359E+02 -0.13319067170E+03  0.47590033764E+03  0.51412783329E+03  0.12508720469E+03 0.  0.
         23    2    1    2    0    0  0.66781238359E+02  0.13319067170E+03  0.15052768672E+03  0.23077413185E+03  0.91644021292E+02 0.  0.
          5    1    3    3  502    0  0.32219405299E+02 -0.67049687894E+02  0.15958407342E+03  0.17612012836E+03  0.41800000000E+01 0.  1.
         -5    1    3    3    0  502 -0.99000643659E+02 -0.66140983802E+02  0.31631626423E+03  0.33800770494E+03  0.41800000000E+01 0.  1.
        -11    1    4    4    0    0  0.43664588104E+02  0.11060523759E+03  0.57093135967E+02  0.13190807788E+03  0.00000000000E+00 0.  1.
         11    1    4    4    0    0  0.23116650256E+02  0.22585434110E+02  0.93434550757E+02  0.98866053973E+02  0.00000000000E+00 0. -1.
</event>
<event>
 8    1  0.6380238E-009  0.1390107E+03  0.7561462E-02  0.1214666E+00
         -2   -1    0    0    0  501 -0.00000000000E+00  0.00000000000E+00  0.21867243431E+02  0.21867243431E+02  0.00000000000E+00 0.  1.
          2   -1    0    0  501    0  0.00000000000E+00 -0.00000000000E+00 -0.91150576437E+03  0.91150576437E+03  0.00000000000E+00 0. -1.
         25    2    1    2    0    0  0.87569228270E+02 -0.21851643942E+01 -0.40733228961E+03  0.43501652519E+03  0.12508652344E+03 0.  0.
         23    2    1    2    0    0 -0.87569228270E+02  0.21851643942E+01 -0.48230623133E+03  0.49835648261E+03  0.89815022674E+02 0.  0.
          5    1    3    3  502    0  0.11748028376E+03 -0.17292286915E+02 -0.30987391161E+03  0.33187340020E+03  0.41800000000E+01 0. -1.
         -5    1    3    3    0  502 -0.29911055493E+02  0.15107122521E+02 -0.97458377995E+02  0.10314312499E+03  0.41800000000E+01 0. -1.
        -11    1    4    4    0    0 -0.46364076303E+02  0.45981894405E+02 -0.25618110444E+03  0.26437231409E+03  0.00000000000E+00 0.  1.
         11    1    4    4    0    0 -0.41205151968E+02 -0.43796730011E+02 -0.22612512689E+03  0.23398416852E+03  0.00000000000E+00 0. -1.
</event>
<event>
 8    1  0.6380238E-009  0.7711138E+02  0.7561462E-02  0.1337455E+00
         -4   -1    0    0    0  501 -0.00000000000E+00  0.00000000000E+00  0.47518789491E+02  0.47518789491E+02  0.00000000000E+00 0.  1.
          4   -1    0    0  501    0  0.00000000000E+00 -0.00000000000E+00 -0.33766185273E+03  0.33766185273E+03  0.00000000000E+00 0. -1.
         25    2    1    2    0    0 -0.24336936635E+02  0.62299130825E+02 -0.17393675933E+03  0.22444071365E+03  0.12508464939E+03 0.  0.
         23    2    1    2    0    0  0.24336936635E+02 -0.62299130825E+02 -0.11620630391E+03  0.16073992857E+03  0.88656366839E+02 0.  0.
          5    1    3    3  502    0 -0.18321764550E+02  0.54389518216E+02 -0.79347938534E+01  0.58089070413E+02  0.41800000000E+01 0. -1.
         -5    1    3    3    0  502 -0.60151720852E+01  0.79096126096E+01 -0.16600196548E+03  0.16635164324E+03  0.41800000000E+01 0. -1.
        -11    1    4    4    0    0  0.34855639194E+02 -0.66088922554E+02 -0.12559541239E+03  0.14613989490E+03  0.00000000000E+00 0. -1.
         11    1    4    4    0    0 -0.10518702559E+02  0.37897917284E+01  0.93891084840E+01  0.14600033664E+02  0.00000000000E+00 0.  1.
</event>
<event>
 8    1  0.6380238E-009  0.8403741E+02  0.7561462E-02  0.1317969E+00
          1   -1    0    0  501    0  0.00000000000E+00  0.00000000000E+00  0.31513083529E+03  0.31513083529E+03  0.00000000000E+00 0. -1.
         -1   -1    0    0    0  501 -0.00000000000E+00 -0.00000000000E+00 -0.81820107977E+02  0.81820107977E+02  0.00000000000E+00 0.  1.
         25    2    1    2    0    0  0.41833206505E+02 -0.55517819342E+02  0.24203541864E+03  0.28117756783E+03  0.12508970920E+03 0.  0.
         23    2    1    2    0    0 -0.41833206505E+02  0.55517819342E+02 -0.87246913215E+01  0.11577337544E+03  0.92168914447E+02 0.  0.
          5    1    3    3  502    0  0.45110523946E+02 -0.54590351227E+02  0.25629547729E+03  0.26593215280E+03  0.41800000000E+01 0. -1.
         -5    1    3    3    0  502 -0.32773174411E+01 -0.92746811502E+00 -0.14260058649E+02  0.15245415029E+02  0.41800000000E+01 0. -1.
        -11    1    4    4    0    0 -0.29183612743E+02  0.67983560708E+02 -0.36740016567E+02  0.82603127039E+02  0.00000000000E+00 0.  1.
         11    1    4    4    0    0 -0.12649593761E+02 -0.12465741366E+02  0.28015325246E+02  0.33170248398E+02  0.00000000000E+00 0. -1.
</event>
<event>
 8    1  0.6380238E-009  0.1049432E+03  0.7561462E-02  0.1270232E+00
         -2   -1    0    0    0  501 -0.00000000000E+00  0.00000000000E+00  0.36773164429E+02  0.36773164429E+02  0.00000000000E+00 0.  1.
          2   -1    0    0  501    0  0.00000000000E+00 -0.00000000000E+00 -0.37835728472E+03  0.37835728472E+03  0.00000000000E+00 0. -1.
         25    2    1    2    0    0  0.20786760781E+02  0.26214410490E+02 -0.24912500025E+03  0.28076620518E+03  0.12508841465E+03 0.  0.
         23    2    1    2    0    0 -0.20786760781E+02 -0.26214410490E+02 -0.92459120046E+02  0.13436424398E+03  0.91573885135E+02 0.  0.
          5    1    3    3  502    0  0.58179368389E+02 -0.12710094843E+02 -0.62424634325E+02  0.86375301954E+02  0.41800000000E+01 0. -1.
         -5    1    3    3    0  502 -0.37392607608E+02  0.38924505334E+02 -0.18670036592E+03  0.19439090322E+03  0.41800000000E+01 0. -1.
        -11    1    4    4    0    0  0.35554451095E+02 -0.52683750965E+01 -0.46094438912E+02  0.58451450516E+02  0.00000000000E+00 0. -1.
         11    1    4    4    0    0 -0.56341211876E+02 -0.20946035394E+02 -0.46364681134E+02  0.75912793461E+02  0.00000000000E+00 0.  1.
</event>
<event>
 7    1  0.6380238E-009  0.1318810E+03  0.7561462E-02  0.1224691E+00
          2   -1    0    0  501    0  0.00000000000E+00  0.00000000000E+00  0.67775711790E+02  0.67775711790E+02  0.00000000000E+00 0. -1.
         -2   -1    0    0    0  501 -0.00000000000E+00 -0.00000000000E+00 -0.38394050609E+03  0.38394050609E+03  0.00000000000E+00 0.  1.
         25    2    1    2    0    0 -0.51750483032E+02  0.12302064588E+02 -0.59068244347E+02  0.14820685074E+03  0.12508700903E+03 0.  0.
          5    1    3    3  502    0 -0.92631601685E+02  0.15505187229E+02 -0.34049856596E+02  0.99989447423E+02  0.41800000000E+01 0.  1.
         -5    1    3    3    0  502  0.40881118653E+02 -0.32031226407E+01 -0.25018387750E+02  0.48217403317E+02  0.41800000000E+01 0.  1.
        -11    1    1    2    0    0  0.33850734368E+02 -0.64775571076E+02 -0.23089680290E+03  0.24218810956E+03  0.00000000000E+00 0.  1.
         11    1    1    2    0    0  0.17899748664E+02  0.52473506488E+02 -0.26199747058E+02  0.61321257580E+02  0.00000000000E+00 0. -1.
</event>
<event>
 8    1  0.6380238E-009  0.8572494E+02  0.7561462E-02  0.1313548E+00
         -2   -1    0    0    0  501 -0.00000000000E+00  0.00000000000E+00  0.26144436738E+02  0.26144436738E+02  0.00000000000E+00 0.  1.
          2   -1    0    0  501    0  0.00000000000E+00 -0.00000000000E+00 -0.54853405331E+03  0.54853405331E+03  0.00000000000E+00 0. -1.
         25    2    1    2    0    0  0.49039490466E+02 -0.14412599931E+02 -0.26737243913E+03  0.29958230452E+03  0.12509572860E+03 0.  0.
         23    2    1    2    0    0 -0.49039490466E+02  0.14412599931E+02 -0.25501717745E+03  0.27509618553E+03  0.89618947987E+02 0.  0.
          5    1    3    3  502    0  0.51660898372E+02  0.12651592496E+01 -0.27613270082E+03  0.28095763010E+03  0.41800000000E+01 0. -1.
         -5    1    3    3    0  502 -0.26214079061E+01 -0.15677759181E+02  0.87602616929E+01  0.18624674420E+02  0.41800000000E+01 0. -1.
        -11    1    4    4    0    0 -0.54937551166E+02 -0.27086991419E+02 -0.15215953412E+03  0.16402549636E+03  0.00000000000E+00 0.  1.
         11    1    4    4    0    0  0.58980606997E+01  0.41499591350E+02 -0.10285764333E+03  0.11107068917E+03  0.00000000000E+00 0. -1.
</event>
<event>
 8    1  0.6380238E-009  0.3175422E+03  0.7561462E-02  0.1076786E+00
          2   -1    0    0  501    0  0.00000000000E+00  0.00000000000E+00  0.13614239545E+04  0.13614239545E+04  0.00000000000E+00 0. -1.
         -2   -1    0    0    0  501 -0.00000000000E+00 -0.00000000000E+00 -0.78775634099E+02  0.78775634099E+02  0.00000000000E+00 0.  1.
         25    2    1    2    0    0  0.17024876477E+03 -0.25720724101E+03  0.65237591624E+03  0.73238146430E+03  0.12509223172E+03 0.  0.
         23    2    1    2    0    0 -0.17024876477E+03  0.25720724101E+03  0.63027240418E+03  0.70781812431E+03  0.92860039286E+02 0.  0.
          5    1    3    3  502    0 -0.12926257259E+02 -0.26462706897E+02  0.23516111978E+02  0.37918899056E+02  0.41800000000E+01 0.  1.
         -5    1    3    3    0  502  0.18317502203E+03 -0.23074453412E+03  0.62885980426E+03  0.69446256525E+03  0.41800000000E+01 0.  1.
        -11    1    4    4    0    0 -0.12375048803E+03  0.15447175510E+03  0.48559472134E+03  0.52438339010E+03  0.00000000000E+00 0. -1.
         11    1    4    4    0    0 -0.46498276737E+02  0.10273548591E+03  0.14467768284E+03  0.18343473421E+03  0.00000000000E+00 0.  1.
</event>
<event>
 8    1  0.6380238E-009  0.2958111E+03  0.7561462E-02  0.1087354E+00
          2   -1    0    0  501    0  0.00000000000E+00  0.00000000000E+00  0.12955273925E+04  0.12955273925E+04  0.00000000000E+00 0.  1.
         -2   -1    0    0    0  501 -0.00000000000E+00 -0.00000000000E+00 -0.95123871898E+02  0.95123871898E+02  0.00000000000E+00 0. -1.
         25    2    1    2    0    0  0.17539412450E+02 -0.27920281297E+03  0.97439273219E+03  0.10214451393E+04  0.12508850618E+03 0.  0.
         23    2    1    2    0    0 -0.17539412450E+02  0.27920281297E+03  0.22601078846E+03  0.36920612511E+03  0.83489188249E+02 0.  0.
          5    1    3    3  502    0 -0.17330005073E+02 -0.26292111868E+03  0.78236248158E+03  0.82555215989E+03  0.41800000000E+01 0.  1.
         -5    1    3    3    0  502  0.34869417523E+02 -0.16281694298E+02  0.19203025060E+03  0.19589297944E+03  0.41800000000E+01 0.  1.
        -11    1    4    4    0    0  0.29040248768E+02  0.91854955630E+02  0.98903795744E+02  0.13806748254E+03  0.00000000000E+00 0.  1.
         11    1    4    4    0    0 -0.46579661218E+02  0.18734785734E+03  0.12710699272E+03  0.23113864257E+03  0.00000000000E+00 0. -1.
</event>
<event>
 8    1  0.6380238E-009  0.1234464E+03  0.7561462E-02  0.1237517E+00
         -2   -1    0    0    0  501 -0.00000000000E+00  0.00000000000E+00  0.32580691113E+02  0.32580691113E+02  0.00000000000E+00 0.  1.
          2   -1    0    0  501    0  0.00000000000E+00 -0.00000000000E+00 -0.59584186138E+03  0.59584186138E+03  0.00000000000E+00 0. -1.
         25    2    1    2    0    0  0.62172290061E+02  0.57039701963E+02 -0.34188692934E+03  0.37370259302E+03  0.12509210337E+03 0.  0.
         23    2    1    2    0    0 -0.62172290061E+02 -0.57039701963E+02 -0.22137424093E+03  0.25471995947E+03  0.93577678725E+02 0.  0.
          5    1    3    3  502    0  0.87438761712E+02  0.60702958826E+02 -0.32686788626E+03  0.34378841418E+03  0.41800000000E+01 0.  1.
         -5    1    3    3    0  502 -0.25266471651E+02 -0.36632568635E+01 -0.15019043085E+02  0.29914178841E+02  0.41800000000E+01 0.  1.
        -11    1    4    4    0    0 -0.72213184099E+02 -0.18327232995E+02 -0.87103392801E+02  0.11461951171E+03  0.00000000000E+00 0.  1.
         11    1    4    4    0    0  0.10040894038E+02 -0.38712468967E+02 -0.13427084813E+03  0.14010044776E+03  0.00000000000E+00 0. -1.
</event>
<event>
 8    1  0.6380238E-009  0.9683865E+02  0.7561462E-02  0.1287088E+00
          2   -1    0    0  501    0  0.00000000000E+00  0.00000000000E+00  0.48196587160E+03  0.48196587160E+03  0.00000000000E+00 0. -1.
         -2   -1    0    0    0  501 -0.00000000000E+00 -0.00000000000E+00 -0.25950982490E+02  0.25950982490E+02  0.00000000000E+00 0.  1.
         25    2    1    2    0    0  0.25282456599E+02 -0.12947202671E+02  0.25406150713E+03  0.28460632039E+03  0.12508667210E+03 0.  0.
         23    2    1    2    0    0 -0.25282456599E+02  0.12947202671E+02  0.20195338198E+03  0.22331053370E+03  0.90970287988E+02 0.  0.
          5    1    3    3  502    0  0.55918756265E+02  0.21348531527E+02  0.21774290139E+03  0.22585860755E+03  0.41800000000E+01 0.  1.
         -5    1    3    3    0  502 -0.30636299665E+02 -0.34295734198E+02  0.36318605738E+02  0.58747712842E+02  0.41800000000E+01 0.  1.
        -11    1    4    4    0    0 -0.44094707123E+02  0.36580779106E+02  0.16974735614E+03  0.17915541162E+03  0.00000000000E+00 0. -1.
         11    1    4    4    0    0  0.18812250524E+02 -0.23633576435E+02  0.32206025841E+02  0.44155122074E+02  0.00000000000E+00 0.  1.
</event>
<event>
 8    1  0.6380238E-009  0.1584183E+03  0.7561462E-02  0.1190494E+00
         -2   -1    0    0    0  501 -0.00000000000E+00  0.00000000000E+00  0.12708429237E+04  0.12708429237E+04  0.00000000000E+00 0.  1.
          2   -1    0    0  501    0  0.00000000000E+00 -0.00000000000E+00 -0.21475393183E+02  0.21475393183E+02  0.00000000000E+00 0. -1.
         25    2    1    2    0    0  0.60958801134E+02 -0.10113460823E+03  0.81607981992E+03  0.83401270861E+03  0.12508693468E+03 0.  0.
         23    2    1    2    0    0 -0.60958801134E+02  0.10113460823E+03  0.43328771060E+03  0.45830560827E+03  0.91441817569E+02 0.  0.
          5    1    3    3  502    0  0.67642483438E+02 -0.12515332323E+03  0.74734878085E+03  0.76078021302E+03  0.41800000000E+01 0. -1.
         -5    1    3    3    0  502 -0.66836823038E+01  0.24018714998E+02  0.68731039063E+02  0.73232495588E+02  0.41800000000E+01 0. -1.
        -11    1    4    4    0    0  0.15714294951E+02 -0.65631656463E+01  0.55524686233E+02  0.58077577346E+02  0.00000000000E+00 0.  1.
         11    1    4    4    0    0 -0.76673096085E+02  0.10769777388E+03  0.37776302437E+03  0.40022803093E+03  0.00000000000E+00 0. -1.
</event>
<event>
 8    1  0.6380238E-009  0.1092846E+03  0.7561462E-02  0.1261900E+00
          4   -1    0    0  501    0  0.00000000000E+00  0.00000000000E+00  0.10680808969E+04  0.10680808969E+04  0.00000000000E+00 0. -1.
         -4   -1    0    0    0  501 -0.00000000000E+00 -0.00000000000E+00 -0.17625330097E+02  0.17625330097E+02  0.00000000000E+00 0.  1.
         25    2    1    2    0    0 -0.20984670408E+02  0.73771011029E+02  0.71400186158E+03  0.72892365262E+03  0.12509402283E+03 0.  0.
         23    2    1    2    0    0  0.20984670408E+02 -0.73771011029E+02  0.33645370527E+03  0.35678257443E+03  0.90610105192E+02 0.  0.
          5    1    3    3  502    0 -0.61945656802E+02  0.75006877752E+02  0.59686597093E+03  0.60475594727E+03  0.41800000000E+01 0.  1.
         -5    1    3    3    0  502  0.40960986394E+02 -0.12358667231E+01  0.11713589065E+03  0.12416770535E+03  0.41800000000E+01 0.  1.
        -11    1    4    4    0    0  0.25974138817E+02 -0.62428119215E+02  0.33763096864E+03  0.34433500684E+03  0.00000000000E+00 0. -1.
         11    1    4    4    0    0 -0.49894684089E+01 -0.11342891814E+02 -0.11772633638E+01  0.12447567583E+02  0.00000000000E+00 0.  1.
</event>
<event>
 8    1  0.6380238E-009  0.1177626E+03  0.7561462E-02  0.1246834E+00
         -1   -1    0    0    0  501 -0.00000000000E+00  0.00000000000E+00  0.79892524284E+02  0.79892524284E+02  0.00000000000E+00 0.  1.
          1   -1    0    0  501    0  0.00000000000E+00 -0.00000000000E+00 -0.20911611619E+03  0.20911611619E+03  0.00000000000E+00 0. -1.
         25    2    1    2    0    0 -0.38358242313E+02 -0.60417267460E+02 -0.10315893736E+03  0.17723187864E+03  0.12509105279E+03 0.  0.
         23    2    1    2    0    0  0.38358242313E+02  0.60417267460E+02 -0.26064654542E+02  0.11177676183E+03  0.81811229721E+02 0.  0.
          5    1    3    3  502    0 -0.54228381132E+02  0.17109331084E+02 -0.15547481890E+02  0.59098588168E+02  0.41800000000E+01 0. -1.
         -5    1    3    3    0  502  0.15870138819E+02 -0.77526598544E+02 -0.87611455473E+02  0.11813329047E+03  0.41800000000E+01 0. -1.
        -11    1    4    4    0    0  0.50230594652E+02  0.68469258790E+02 -0.38078606937E+02  0.93065204800E+02  0.00000000000E+00 0. -1.
         11    1    4    4    0    0 -0.11872352338E+02 -0.80519913291E+01  0.12013952395E+02  0.18711557032E+02  0.00000000000E+00 0.  1.
</event>
<event>
 8    1  0.6380238E-009  0.8220638E+02  0.7561462E-02  0.1322904E+00
          2   -1    0    0  501    0  0.00000000000E+00  0.00000000000E+00  0.41536481032E+02  0.41536481032E+02  0.00000000000E+00 0. -1.
         -2   -1    0    0    0  501 -0.00000000000E+00 -0.00000000000E+00 -0.28325274732E+03  0.28325274732E+03  0.00000000000E+00 0.  1.
         25    2    1    2    0    0  0.12144286281E+01  0.48449192012E+01 -0.15358470239E+03  0.19812459626E+03  0.12506057235E+03 0.  0.
         23    2    1    2    0    0 -0.12144286281E+01 -0.48449192012E+01 -0.88131563903E+02  0.12666463210E+03  0.90839464932E+02 0.  0.
          5    1    3    3  502    0 -0.35260203170E+02  0.22040597120E+02 -0.26893527114E+01  0.41878095313E+02  0.41800000000E+01 0.  1.
         -5    1    3    3    0  502  0.36474631798E+02 -0.17195677919E+02 -0.15089534967E+03  0.15624650094E+03  0.41800000000E+01 0.  1.
        -11    1    4    4    0    0 -0.37252011309E+02 -0.20803437732E+02 -0.72785237559E+02  0.84369343807E+02  0.00000000000E+00 0.  1.
         11    1    4    4    0    0  0.36037582681E+02  0.15958518531E+02 -0.15346326344E+02  0.42295288289E+02  0.00000000000E+00 0. -1.
</event>
<event>
 8    1  0.6380238E-009  0.1095431E+03  0.7561462E-02  0.1261418E+00
         -1   -1    0    0    0  501 -0.00000000000E+00  0.00000000000E+00  0.60989032596E+02  0.60989032596E+02  0.00000000000E+00 0.  1.
          1   -1    0    0  501    0  0.00000000000E+00 -0.00000000000E+00 -0.27314609869E+03  0.27314609869E+03  0.00000000000E+00 0. -1.
         25    2    1    2    0    0  0.44472281701E+02  0.36460957025E+02 -0.15022204367E+03  0.20376825205E+03  0.12509057884E+03 0.  0.
         23    2    1    2    0    0 -0.44472281701E+02 -0.36460957025E+02 -0.61935022420E+02  0.13036687923E+03  0.99259211015E+02 0.  0.
          5    1    3    3  502    0  0.73360714395E+02  0.30766767703E+02 -0.15439783346E+03  0.17373701905E+03  0.41800000000E+01 0. -1.
         -5    1    3    3    0  502 -0.28888432695E+02  0.56941893221E+01  0.41757897841E+01  0.30031233007E+02  0.41800000000E+01 0. -1.
        -11    1    4    4    0    0 -0.26472114759E+02  0.30477735514E+02 -0.41967201459E+02  0.58231531150E+02  0.00000000000E+00 0. -1.
         11    1    4    4    0    0 -0.18000166942E+02 -0.66938692538E+02 -0.19967820961E+02  0.72135348080E+02  0.00000000000E+00 0.  1.
</event>
<event>
 8    1  0.6380238E-009  0.8870702E+02  0.7561462E-02  0.1306013E+00
         -2   -1    0    0    0  501 -0.00000000000E+00  0.00000000000E+00  0.11448230301E+02  0.11448230301E+02  0.00000000000E+00 0. -1.
          2   -1    0    0  501    0  0.00000000000E+00 -0.00000000000E+00 -0.12357380598E+04  0.12357380598E+04  0.00000000000E+00 0.  1.
         25    2    1    2    0    0  0.48608106757E+02  0.15013831114E+01 -0.10081777865E+04  0.10170711472E+04  0.12508503959E+03 0.  0.
         23    2    1    2    0    0 -0.48608106757E+02 -0.15013831114E+01 -0.21611204299E+03  0.23011514287E+03  0.62318228942E+02 0.  0.
          5    1    3    3  502    0 -0.82345818522E+01 -0.31288066549E+02 -0.74806017208E+03  0.74877115656E+03  0.41800000000E+01 0. -1.
         -5    1    3    3    0  502  0.56842688610E+02  0.32789449660E+02 -0.26011761442E+03  0.26829999066E+03  0.41800000000E+01 0. -1.
        -11    1    4    4    0    0  0.10133617999E+02  0.14926209465E+02 -0.47721158518E+02  0.51017554949E+02  0.00000000000E+00 0.  1.
         11    1    4    4    0    0 -0.58741724757E+02 -0.16427592577E+02 -0.16839088447E+03  0.17909758792E+03  0.00000000000E+00 0. -1.
</event>
<event>
 8    1  0.6380238E-009  0.2044431E+03  0.7561462E-02  0.1146044E+00
          1   -1    0    0  501    0  0.00000000000E+00  0.00000000000E+00  0.18529789935E+04  0.18529789935E+04  0.00000000000E+00 0. -1.
         -1   -1    0    0    0  501 -0.00000000000E+00 -0.00000000000E+00 -0.26990848708E+02  0.26990848708E+02  0.00000000000E+00 0.  1.
         25    2    1    2    0    0  0.13118213545E+03  0.13794851721E+03  0.11313617667E+04  0.11540646548E+04  0.12508890545E+03 0.  0.
         23    2    1    2    0    0 -0.13118213545E+03 -0.13794851721E+03  0.69462637811E+03  0.72590518742E+03  0.90520660019E+02 0.  0.
          5    1    3    3  502    0  0.47519812743E+02 -0.97763675370E+01  0.41508888402E+03  0.41793535864E+03  0.41800000000E+01 0.  1.
         -5    1    3    3    0  502  0.83662322709E+02  0.14772488475E+03  0.71627288267E+03  0.73612929616E+03  0.41800000000E+01 0.  1.
        -11    1    4    4    0    0 -0.61555341551E+02 -0.65749914162E+02  0.17642131436E+03  0.19808228453E+03  0.00000000000E+00 0.  1.
         11    1    4    4    0    0 -0.69626793900E+02 -0.72198603046E+02  0.51820506375E+03  0.52782290288E+03  0.00000000000E+00 0. -1.
</event>
<event>
 8    1  0.6380238E-009  0.1442744E+03  0.7561462E-02  0.1207690E+00
          2   -1    0    0  501    0  0.00000000000E+00  0.00000000000E+00  0.24234685137E+04  0.24234685137E+04  0.00000000000E+00 0. -1.
         -2   -1    0    0    0  501 -0.00000000000E+00 -0.00000000000E+00 -0.11993880727E+02  0.11993880727E+02  0.00000000000E+00 0.  1.
         25    2    1    2    0    0  0.17674066854E+02  0.99486328358E+02  0.18777831306E+04  0.18846555146E+04  0.12508805186E+03 0.  0.
         23    2    1    2    0    0 -0.17674066854E+02 -0.99486328358E+02  0.53369150235E+03  0.55080687987E+03  0.91387619867E+02 0.  0.
          5    1    3    3  502    0 -0.48984328829E+02  0.63142930911E+02  0.73447366564E+03  0.73882036525E+03  0.41800000000E+01 0. -1.
         -5    1    3    3    0  502  0.66658395683E+02  0.36343397447E+02  0.11433094650E+04  0.11458351493E+04  0.41800000000E+01 0. -1.
        -11    1    4    4    0    0 -0.52034990414E+02 -0.69912860192E+02  0.28538666971E+03  0.29839738521E+03  0.00000000000E+00 0. -1.
         11    1    4    4    0    0  0.34360923560E+02 -0.29573468167E+02  0.24830483263E+03  0.25240949467E+03  0.00000000000E+00 0.  1.
</event>
<event>
 8    1  0.6380238E-009  0.2348381E+03  0.7561462E-02  0.1123280E+00
          2   -1    0    0  501    0  0.00000000000E+00  0.00000000000E+00  0.50992706548E+03  0.50992706548E+03  0.00000000000E+00 0. -1.
         -2   -1    0    0    0  501 -0.00000000000E+00 -0.00000000000E+00 -0.12283986431E+03  0.12283986431E+03  0.00000000000E+00 0.  1.
         25    2    1    2    0    0  0.18174338826E+03 -0.11629600074E+03  0.28083675832E+03  0.37559667654E+03  0.12509260425E+03 0.  0.
         23    2    1    2    0    0 -0.18174338826E+03  0.11629600074E+03  0.10625044286E+03  0.25717025325E+03  0.91060219524E+02 0.  0.
          5    1    3    3  502    0  0.13102939146E+03 -0.10395226087E+02  0.13758941556E+03  0.19032887806E+03  0.41800000000E+01 0.  1.
         -5    1    3    3    0  502  0.50713996807E+02 -0.10590077466E+03  0.14324734276E+03  0.18526779848E+03  0.41800000000E+01 0.  1.
        -11    1    4    4    0    0 -0.16573602109E+03  0.86735031569E+02  0.53397019862E+02  0.19453183832E+03  0.00000000000E+00 0.  1.
         11    1    4    4    0    0 -0.16007367173E+02  0.29560969175E+02  0.52853422997E+02  0.62638414930E+02  0.00000000000E+00 0. -1.
</event>
<event>
 8    1  0.6380238E-009  0.1099858E+03  0.7561462E-02  0.1260596E+00
         -4   -1    0    0    0  501 -0.00000000000E+00  0.00000000000E+00  0.78932369612E+02  0.78932369612E+02  0.00000000000E+00 0.  1.
          4   -1    0    0  501    0  0.00000000000E+00 -0.00000000000E+00 -0.23481903595E+03  0.23481903595E+03  0.00000000000E+00 0. -1.
         25    2    1    2    0    0 -0.56589866136E+02  0.48178278960E+02 -0.50678054326E+02  0.15407586423E+03  0.12509015643E+03 0.  0.
         23    2    1    2    0    0  0.56589866136E+02 -0.48178278960E+02 -0.10520861202E+03  0.15967554133E+03  0.94360303864E+02 0.  0.
          5    1    3    3  502    0 -0.83484646152E+02 -0.70176740428E+01 -0.26737957897E+02  0.88041607690E+02  0.41800000000E+01 0.  1.
         -5    1    3    3    0  502  0.26894780016E+02  0.55195953002E+02 -0.23940096429E+02  0.66034256541E+02  0.41800000000E+01 0.  1.
        -11    1    4    4    0    0  0.33798208623E+02 -0.24997484287E+02  0.72092419290E+01  0.42651685734E+02  0.00000000000E+00 0.  1.
         11    1    4    4    0    0  0.22791657513E+02 -0.23180794672E+02 -0.11241785395E+03  0.11702385560E+03  0.00000000000E+00 0. -1.
</event>
<event>
 8    1  0.6380238E-009  0.1072160E+03  0.7561462E-02  0.1265814E+00
         -1   -1    0    0    0  501 -0.00000000000E+00  0.00000000000E+00  0.22052106163E+02  0.22052106163E+02  0.00000000000E+00 0.  1.
          1   -1    0    0  501    0  0.00000000000E+00 -0.00000000000E+00 -0.65496469107E+03  0.65496469107E+03  0.00000000000E+00 0. -1.
         25    2    1    2    0    0  0.11497431483E+02 -0.52130813369E+02 -0.35127139131E+03  0.37668107052E+03  0.12508887202E+03 0.  0.
         23    2    1    2    0    0 -0.11497431483E+02  0.52130813369E+02 -0.28164119359E+03  0.30033572671E+03  0.89610123181E+02 0.  0.
          5    1    3    3  502    0  0.38078547450E+02  0.30582511941E+02 -0.12490413823E+03  0.13417817244E+03  0.41800000000E+01 0.  1.
         -5    1    3    3    0  502 -0.26581115967E+02 -0.82713325310E+02 -0.22636725309E+03  0.24250289809E+03  0.41800000000E+01 0.  1.
        -11    1    4    4    0    0 -0.19411585734E+02  0.62468463213E+02 -0.27960874760E+03  0.28715878933E+03  0.00000000000E+00 0. -1.
         11    1    4    4    0    0  0.79141542506E+01 -0.10337649844E+02 -0.20324459873E+01  0.13176937371E+02  0.00000000000E+00 0.  1.
</event>
<event>
 8    1  0.6380238E-009  0.2785067E+03  0.7561462E-02  0.1096507E+00
          1   -1    0    0  501    0  0.00000000000E+00  0.00000000000E+00  0.23357009461E+04  0.23357009461E+04  0.00000000000E+00 0. -1.
         -1   -1    0    0    0  501 -0.00000000000E+00 -0.00000000000E+00 -0.38877758843E+02  0.38877758843E+02  0.00000000000E+00 0.  1.
         25    2    1    2    0    0  0.25285686151E+03  0.82818016855E+02  0.15256166857E+04  0.15536893568E+04  0.12509568180E+03 0.  0.
         23    2    1    2    0    0 -0.25285686151E+03 -0.82818016855E+02  0.77120650159E+03  0.82088934812E+03  0.91128686067E+02 0.  0.
          5    1    3    3  502    0  0.60580046585E+02  0.77448348513E+02  0.41330550120E+03  0.42486126965E+03  0.41800000000E+01 0. -1.
         -5    1    3    3    0  502  0.19227681493E+03  0.53696683421E+01  0.11123111845E+04  0.11288280872E+04  0.41800000000E+01 0. -1.
        -11    1    4    4    0    0 -0.14312501862E+03 -0.42596146826E+02  0.55929044541E+03  0.57888254855E+03  0.00000000000E+00 0. -1.
         11    1    4    4    0    0 -0.10973184289E+03 -0.40221870029E+02  0.21191605618E+03  0.24200679957E+03  0.00000000000E+00 0.  1.
</event>
<event>
 8    1  0.6380238E-009  0.1625356E+03  0.7561462E-02  0.1185863E+00
         -2   -1    0    0    0  501 -0.00000000000E+00  0.00000000000E+00  0.33450259017E+02  0.33450259017E+02  0.00000000000E+00 0.  1.
          2   -1    0    0  501    0  0.00000000000E+00 -0.00000000000E+00 -0.90267818970E+03  0.90267818970E+03  0.00000000000E+00 0. -1.
         25    2    1    2    0    0 -0.58552375199E+02  0.11994509551E+03 -0.54152170988E+03  0.57158433885E+03  0.12509071734E+03 0.  0.
         23    2    1    2    0    0  0.58552375199E+02 -0.11994509551E+03 -0.32770622080E+03  0.36454410987E+03  0.87668890215E+02 0.  0.
          5    1    3    3  502    0 -0.51295229091E+02 -0.53830386968E+01 -0.22882386283E+03  0.23460181208E+03  0.41800000000E+01 0.  1.
         -5    1    3    3    0  502 -0.72571461073E+01  0.12532813420E+03 -0.31269784706E+03  0.33698252677E+03  0.41800000000E+01 0.  1.
        -11    1    4    4    0    0  0.43298261704E+02 -0.21953600272E+02 -0.50127555273E+02  0.69781600936E+02  0.00000000000E+00 0.  1.
         11    1    4    4    0    0  0.15254113494E+02 -0.97991495234E+02 -0.27757866553E+03  0.29476250893E+03  0.00000000000E+00 0. -1.
</event>
<event>
 8    1  0.6380238E-009  0.1687735E+03  0.7561462E-02  0.1179133E+00
          2   -1    0    0  501    0  0.00000000000E+00  0.00000000000E+00  0.10405954434E+03  0.10405954434E+03  0.00000000000E+00 0. -1.
         -2   -1    0    0    0  501 -0.00000000000E+00 -0.00000000000E+00 -0.35660459083E+03  0.35660459083E+03  0.00000000000E+00 0.  1.
         25    2    1    2    0    0 -0.64205016195E+02  0.14456394279E+03 -0.14448934918E+03  0.24808467571E+03  0.12509123326E+03 0.  0.
         23    2    1    2    0    0  0.64205016195E+02 -0.14456394279E+03 -0.10805569731E+03  0.21257945946E+03  0.92157339398E+02 0.  0.
          5    1    3    3  502    0 -0.37323302653E+02  0.67937314823E+02  0.51311523166E+01  0.77796585982E+02  0.41800000000E+01 0.  1.
         -5    1    3    3    0  502 -0.26881713541E+02  0.76626627964E+02 -0.14962050150E+03  0.17028808973E+03  0.41800000000E+01 0.  1.
        -11    1    4    4    0    0  0.79494572878E+02 -0.14250712831E+03 -0.11034036971E+03  0.19698392301E+03  0.00000000000E+00 0. -1.
         11    1    4    4    0    0 -0.15289556683E+02 -0.20568144822E+01  0.22846723991E+01  0.15595536456E+02  0.00000000000E+00 0.  1.
</event>
<event>
 8    1  0.6380238E-009  0.1144848E+03  0.7561462E-02  0.1252483E+00
         -2   -1    0    0    0  501 -0.00000000000E+00  0.00000000000E+00  0.47917289608E+02  0.47917289608E+02  0.00000000000E+00 0.  1.
          2   -1    0    0  501    0  0.00000000000E+00 -0.00000000000E+00 -0.30920684485E+03  0.30920684485E+03  0.00000000000E+00 0. -1.
         25    2    1    2    0    0  0.22664383127E+02 -0.41537874425E+02 -0.19587102205E+03  0.23717556507E+03  0.12509085543E+03 0.  0.
         23    2    1    2    0    0 -0.22664383127E+02  0.41537874425E+02 -0.65418533192E+02  0.11994856939E+03  0.88707415355E+02 0.  0.
          5    1    3    3  502    0 -0.36371705404E+01  0.41329152510E+02 -0.35750204705E+02  0.54926108484E+02  0.41800000000E+01 0. -1.
         -5    1    3    3    0  502  0.26301553667E+02 -0.82867026935E+02 -0.16012081734E+03  0.18224945658E+03  0.41800000000E+01 0. -1.
        -11    1    4    4    0    0 -0.15297580044E+02 -0.27141725294E+02 -0.24765974730E+02  0.39800034063E+02  0.00000000000E+00 0.  1.
         11    1    4    4    0    0 -0.73668030830E+01  0.68679599718E+02 -0.40652558462E+02  0.80148535324E+02  0.00000000000E+00 0. -1.
</event>
<event>
 8    1  0.6380238E-009  0.1898266E+03  0.7561462E-02  0.1158618E+00
          2   -1    0    0  501    0  0.00000000000E+00  0.00000000000E+00  0.11504981718E+04  0.11504981718E+04  0.00000000000E+00 0.  1.
         -2   -1    0    0    0  501 -0.00000000000E+00 -0.00000000000E+00 -0.35796857788E+02  0.35796857788E+02  0.00000000000E+00 0. -1.
         25    2    1    2    0    0 -0.16662570217E+03  0.38528739195E+02  0.57885114308E+03  0.61641061513E+03  0.12507922381E+03 0.  0.
         23    2    1    2    0    0  0.16662570217E+03 -0.38528739195E+02  0.53585017094E+03  0.56988441446E+03  0.91565560067E+02 0.  0.
          5    1    3    3  502    0 -0.42015516171E+01 -0.14032945484E+02  0.20315163955E+03  0.20372196162E+03  0.41800000000E+01 0.  1.
         -5    1    3    3    0  502 -0.16242415055E+03  0.52561684679E+02  0.37569950353E+03  0.41268865350E+03  0.41800000000E+01 0.  1.
        -11    1    4    4    0    0  0.13199050798E+03 -0.67725962171E+02  0.39571400593E+03  0.42260841761E+03  0.00000000000E+00 0. -1.
         11    1    4    4    0    0  0.34635194195E+02  0.29197222975E+02  0.14013616501E+03  0.14727599686E+03  0.00000000000E+00 0.  1.
</event>
<event>
 8    1  0.6380238E-009  0.2801464E+03  0.7561462E-02  0.1095609E+00
          1   -1    0    0  501    0  0.00000000000E+00  0.00000000000E+00  0.17103420689E+03  0.17103420689E+03  0.00000000000E+00 0. -1.
         -1   -1    0    0    0  501 -0.00000000000E+00 -0.00000000000E+00 -0.64355350107E+03  0.64355350107E+03  0.00000000000E+00 0.  1.
         25    2    1    2    0    0  0.17829713851E+03 -0.21476217428E+03 -0.41372229057E+03  0.51451576007E+03  0.12509065727E+03 0.  0.
         23    2    1    2    0    0 -0.17829713851E+03  0.21476217428E+03 -0.58797003605E+02  0.30007194789E+03  0.93131225566E+02 0.  0.
          5    1    3    3  502    0  0.27553489980E+02 -0.50805743328E+02 -0.19065575909E+03  0.19926743145E+03  0.41800000000E+01 0. -1.
         -5    1    3    3    0  502  0.15074364853E+03 -0.16395643096E+03 -0.22306653149E+03  0.31524832861E+03  0.41800000000E+01 0. -1.
        -11    1    4    4    0    0 -0.13326510054E+03  0.14926110178E+03  0.18265986993E+01  0.20010447268E+03  0.00000000000E+00 0. -1.
         11    1    4    4    0    0 -0.45032037972E+02  0.65501072505E+02 -0.60623602304E+02  0.99967475209E+02  0.00000000000E+00 0.  1.
</event>
<event>
 8    1  0.6380238E-009  0.1985283E+03  0.7561462E-02  0.1150987E+00
         -1   -1    0    0    0  501 -0.00000000000E+00  0.00000000000E+00  0.37770442738E+02  0.37770442738E+02  0.00000000000E+00 0.  1.
          1   -1    0    0  501    0  0.00000000000E+00 -0.00000000000E+00 -0.11593128676E+04  0.11593128676E+04  0.00000000000E+00 0. -1.
         25    2    1    2    0    0 -0.43997365537E+02 -0.17291559572E+03 -0.59930705166E+03  0.63769403457E+03  0.12509663522E+03 0.  0.
         23    2    1    2    0    0  0.43997365537E+02  0.17291559572E+03 -0.52223537316E+03  0.55938927573E+03  0.91383835552E+02 0.  0.
          5    1    3    3  502    0  0.24337484009E+02  0.39279075523E+01 -0.40601136334E+02  0.47682976598E+02  0.41800000000E+01 0.  1.
         -5    1    3    3    0  502 -0.68334849545E+02 -0.17684350327E+03 -0.55870591532E+03  0.59001105797E+03  0.41800000000E+01 0.  1.
        -11    1    4    4    0    0  0.11294250987E+02  0.11773569865E+03 -0.21361145924E+03  0.24417024872E+03  0.00000000000E+00 0.  1.
         11    1    4    4    0    0  0.32703114550E+02  0.55179897066E+02 -0.30862391392E+03  0.31521902700E+03  0.00000000000E+00 0. -1.
</event>
<event>
 8    1  0.6380238E-009  0.1534049E+03  0.7561462E-02  0.1196350E+00
         -2   -1    0    0    0  501 -0.00000000000E+00  0.00000000000E+00  0.33223707641E+03  0.33223707641E+03  0.00000000000E+00 0.  1.
          2   -1    0    0  501    0  0.00000000000E+00 -0.00000000000E+00 -0.73437740587E+02  0.73437740587E+02  0.00000000000E+00 0. -1.
         25    2    1    2    0    0  0.10344971409E+03  0.29546631981E+02  0.16773541907E+03  0.23528139412E+03  0.12508923536E+03 0.  0.
         23    2    1    2    0    0 -0.10344971409E+03 -0.29546631981E+02  0.91063916752E+02  0.17039342287E+03  0.95741499973E+02 0.  0.
          5    1    3    3  502    0  0.13226946714E+03  0.17806088100E+02  0.13317900977E+03  0.18859053464E+03  0.41800000000E+01 0. -1.
         -5    1    3    3    0  502 -0.28819753045E+02  0.11740543881E+02  0.34556409297E+02  0.46690859488E+02  0.41800000000E+01 0. -1.
        -11    1    4    4    0    0 -0.57310755307E+02 -0.62792117220E+02  0.39962776026E+02  0.93938256991E+02  0.00000000000E+00 0. -1.
         11    1    4    4    0    0 -0.46138958785E+02  0.33245485239E+02  0.51101140727E+02  0.76455165882E+02  0.00000000000E+00 0.  1.
</event>
<event>
 8    1  0.6380238E-009  0.2419709E+03  0.7561462E-02  0.1118487E+00
         -1   -1    0    0    0  501 -0.00000000000E+00  0.00000000000E+00  0.37972711031E+02  0.37972711031E+02  0.00000000000E+00 0.  1.
          1   -1    0    0  501    0  0.00000000000E+00 -0.00000000000E+00 -0.15962682535E+04  0.15962682535E+04  0.00000000000E+00 0. -1.
         25    2    1    2    0    0  0.17486973441E+03 -0.13336392363E+03 -0.83439894972E+03  0.87191440288E+03  0.12509100092E+03 0.  0.
         23    2    1    2    0    0 -0.17486973441E+03  0.13336392363E+03 -0.72389659271E+03  0.76232656162E+03  0.93542233616E+02 0.  0.
          5    1    3    3  502    0  0.17998276550E+03 -0.86613854764E+02 -0.58744490066E+03  0.62048750142E+03  0.41800000000E+01 0. -1.
         -5    1    3    3    0  502 -0.51130310889E+01 -0.46750068864E+02 -0.24695404906E+03  0.25142690145E+03  0.41800000000E+01 0. -1.
        -11    1    4    4    0    0 -0.18898899338E+02  0.63115075853E+02 -0.24868681304E+03  0.25726603386E+03  0.00000000000E+00 0.  1.
         11    1    4    4    0    0 -0.15597083507E+03  0.70248847776E+02 -0.47520977967E+03  0.50506052776E+03  0.00000000000E+00 0. -1.
</event>
<event>
 8    1  0.6380238E-009  0.9133734E+02  0.7561462E-02  0.1299645E+00
         -1   -1    0    0    0  501 -0.00000000000E+00  0.00000000000E+00  0.21813936313E+03  0.21813936313E+03  0.00000000000E+00 0.  1.
          1   -1    0    0  501    0  0.00000000000E+00 -0.00000000000E+00 -0.76681967170E+02  0.76681967170E+02  0.00000000000E+00 0. -1.
         25    2    1    2    0    0  0.59585893936E+02  0.34679976901E+02  0.96054710136E+02  0.17211840145E+03  0.12508020316E+03 0.  0.
         23    2    1    2    0    0 -0.59585893936E+02 -0.34679976901E+02  0.45402685824E+02  0.12270292885E+03  0.90782296264E+02 0.  0.
          5    1    3    3  502    0  0.32515123527E+02  0.12968063095E+02 -0.26866206556E+02  0.44324591065E+02  0.41800000000E+01 0. -1.
         -5    1    3    3    0  502  0.27070770409E+02  0.21711913807E+02  0.12292091669E+03  0.12779381038E+03  0.41800000000E+01 0. -1.
        -11    1    4    4    0    0 -0.23906228577E+02 -0.62698376170E+02  0.36795146585E+02  0.76527622146E+02  0.00000000000E+00 0.  1.
         11    1    4    4    0    0 -0.35679665359E+02  0.28018399269E+02  0.86075392393E+01  0.46175306707E+02  0.00000000000E+00 0. -1.
</event>
<event>
 8    1  0.6380238E-009  0.9127249E+02  0.7561462E-02  0.1299799E+00
         -2   -1    0    0    0  501 -0.00000000000E+00  0.00000000000E+00  0.57228874299E+02  0.57228874299E+02  0.00000000000E+00 0.  1.
          2   -1    0    0  501    0  0.00000000000E+00 -0.00000000000E+00 -0.29516593890E+03  0.29516593890E+03  0.00000000000E+00 0. -1.
         25    2    1    2    0    0 -0.34101188394E+02  0.54150021693E+02 -0.10136216459E+03  0.17325345508E+03  0.12508938959E+03 0.  0.
         23    2    1    2    0    0  0.34101188394E+02 -0.54150021693E+02 -0.13657490001E+03  0.17914135812E+03  0.96663369362E+02 0.  0.
          5    1    3    3  502    0  0.44942151466E+01  0.52167832570E+02 -0.11936784328E+03  0.13041409101E+03  0.41800000000E+01 0. -1.
         -5    1    3    3    0  502 -0.38595403541E+02  0.19821891233E+01  0.18005678695E+02  0.42839364065E+02  0.41800000000E+01 0. -1.
        -11    1    4    4    0    0 -0.18353131017E+02 -0.44489549334E+01  0.55652999780E+01  0.19687640335E+02  0.00000000000E+00 0.  1.
         11    1    4    4    0    0  0.52454319411E+02 -0.49701066760E+02 -0.14214019999E+03  0.15945371779E+03  0.00000000000E+00 0. -1.
</event>
<event>
 8    1  0.6380238E-009  0.1176861E+03  0.7561462E-02  0.1246964E+00
          1   -1    0    0  501    0  0.00000000000E+00  0.00000000000E+00  0.12997590278E+03  0.12997590278E+03  0.00000000000E+00 0. -1.
         -1   -1    0    0    0  501 -0.00000000000E+00 -0.00000000000E+00 -0.12490847227E+03  0.12490847227E+03  0.00000000000E+00 0.  1.
         25    2    1    2    0    0  0.22166833690E+02  0.62802089127E+02  0.88262026969E+01  0.14198874413E+03  0.12508969059E+03 0.  0.
         23    2    1    2    0    0 -0.22166833690E+02 -0.62802089127E+02 -0.37587721878E+01  0.11289563093E+03  0.91081415228E+02 0.  0.
          5    1    3    3  502    0  0.27629589429E+02 -0.33866610636E+02  0.10157476705E+02  0.45066487116E+02  0.41800000000E+01 0. -1.
         -5    1    3    3    0  502 -0.54627557391E+01  0.96668699763E+02 -0.13312740078E+01  0.96922257013E+02  0.41800000000E+01 0. -1.
        -11    1    4    4    0    0  0.20465479774E+02 -0.23792904951E+01 -0.28278101172E+02  0.34987824904E+02  0.00000000000E+00 0.  1.
         11    1    4    4    0    0 -0.42632313464E+02 -0.60422798632E+02  0.24519328984E+02  0.77907806025E+02  0.00000000000E+00 0. -1.
</event>
<event>
 8    1  0.6380238E-009  0.2210757E+03  0.7561462E-02  0.1133084E+00
         -1   -1    0    0    0  501 -0.00000000000E+00  0.00000000000E+00  0.64012368462E+02  0.64012368462E+02  0.00000000000E+00 0.  1.
          1   -1    0    0  501    0  0.00000000000E+00 -0.00000000000E+00 -0.93782126569E+03  0.93782126569E+03  0.00000000000E+00 0. -1.
         25    2    1    2    0    0 -0.16046457274E+03 -0.10965138059E+03 -0.24219808182E+03  0.33478230426E+03  0.12508787325E+03 0.  0.
         23    2    1    2    0    0  0.16046457274E+03  0.10965138059E+03 -0.63161081541E+03  0.66705132990E+03  0.90845749542E+02 0.  0.
          5    1    3    3  502    0 -0.10065239823E+03  0.45322017391E+01 -0.12415454708E+03  0.15994771046E+03  0.41800000000E+01 0.  1.
         -5    1    3    3    0  502 -0.59812174512E+02 -0.11418358233E+03 -0.11804353475E+03  0.17483459380E+03  0.41800000000E+01 0.  1.
        -11    1    4    4    0    0  0.93186605881E+02  0.11115291002E+03 -0.47342323016E+03  0.49514469378E+03  0.00000000000E+00 0. -1.
         11    1    4    4    0    0  0.67277966859E+02 -0.15015294375E+01 -0.15818758525E+03  0.17190663612E+03  0.00000000000E+00 0.  1.
</event>
<event>
 8    1  0.6380238E-009  0.9897600E+02  0.7561462E-02  0.1282464E+00
          2   -1    0    0  501    0  0.00000000000E+00  0.00000000000E+00  0.58040943036E+03  0.58040943036E+03  0.00000000000E+00 0.  1.
         -2   -1    0    0    0  501 -0.00000000000E+00 -0.00000000000E+00 -0.32385287060E+02  0.32385287060E+02  0.00000000000E+00 0. -1.
         25    2    1    2    0    0  0.15210069334E+02 -0.48545012808E+02  0.44634497028E+03  0.46632561785E+03  0.12509110639E+03 0.  0.
         23    2    1    2    0    0 -0.15210069334E+02  0.48545012808E+02  0.10167917303E+03  0.14646909957E+03  0.92339473809E+02 0.  0.
          5    1    3    3  502    0  0.51941913608E+02 -0.47433084625E+02  0.40401453917E+03  0.41011349669E+03  0.41800000000E+01 0.  1.
         -5    1    3    3    0  502 -0.36731844274E+02 -0.11119281830E+01  0.42330431103E+02  0.56212121161E+02  0.41800000000E+01 0.  1.
        -11    1    4    4    0    0  0.30195285796E+02  0.13170872731E+02  0.77174576727E+02  0.83911515692E+02  0.00000000000E+00 0.  1.
         11    1    4    4    0    0 -0.45405355129E+02  0.35374140077E+02  0.24504596299E+02  0.62557583876E+02  0.00000000000E+00 0. -1.
</event>
<event>
 8    1  0.6380238E-009  0.1284071E+03  0.7561462E-02  0.1229839E+00
          1   -1    0    0  501    0  0.00000000000E+00  0.00000000000E+00  0.42955390952E+02  0.42955390952E+02  0.00000000000E+00 0. -1.
         -1   -1    0    0    0  501 -0.00000000000E+00 -0.00000000000E+00 -0.59949788820E+03  0.59949788820E+03  0.00000000000E+00 0.  1.
         25    2    1    2    0    0 -0.63923968461E+02  0.35836014935E+02 -0.11286981760E+03  0.18372312060E+03  0.12507635910E+03 0.  0.
         23    2    1    2    0    0  0.63923968461E+02 -0.35836014935E+02 -0.44367267965E+03  0.45873015855E+03  0.90649975129E+02 0.  0.
          5    1    3    3  502    0 -0.12978037888E+02  0.76932639936E+02 -0.73238455704E+02  0.10709063614E+03  0.41800000000E+01 0. -1.
         -5    1    3    3    0  502 -0.50945930573E+02 -0.41096625000E+02 -0.39631361896E+02  0.76632484457E+02  0.41800000000E+01 0. -1.
        -11    1    4    4    0    0  0.82814590205E+02 -0.42473382254E+02 -0.40001845498E+03  0.41070306655E+03  0.00000000000E+00 0.  1.
         11    1    4    4    0    0 -0.18890621744E+02  0.66373673185E+01 -0.43654224665E+02  0.48027091999E+02  0.00000000000E+00 0. -1.
</event>
<event>
 8    1  0.6380238E-009  0.1750712E+03  0.7561462E-02  0.1172660E+00
         -2   -1    0    0    0  501 -0.00000000000E+00  0.00000000000E+00  0.33473695439E+02  0.33473695439E+02  0.00000000000E+00 0. -1.
          2   -1    0    0  501    0  0.00000000000E+00 -0.00000000000E+00 -0.11573094054E+04  0.11573094054E+04  0.00000000000E+00 0.  1.
         25    2    1    2    0    0  0.12687253290E+03  0.10460018191E+03 -0.53152887145E+03  0.57027009226E+03  0.12508876560E+03 0.  0.
         23    2    1    2    0    0 -0.12687253290E+03 -0.10460018191E+03 -0.59230683853E+03  0.62051300860E+03  0.84682732682E+02 0.  0.
          5    1    3    3  502    0 -0.77505860544E+01  0.29535099954E+02 -0.21854749868E+02  0.37782220756E+02  0.41800000000E+01 0. -1.
         -5    1    3    3    0  502  0.13462311895E+03  0.75065081952E+02 -0.50967412158E+03  0.53248787150E+03  0.41800000000E+01 0. -1.
        -11    1    4    4    0    0 -0.88782087660E+02 -0.81893547580E+02 -0.53269050094E+03  0.54621239643E+03  0.00000000000E+00 0.  1.
         11    1    4    4    0    0 -0.38090445238E+02 -0.22706634327E+02 -0.59616337585E+02  0.74300612164E+02  0.00000000000E+00 0. -1.
</event>
<event>
 8    1  0.6380238E-009  0.1731680E+03  0.7561462E-02  0.1174584E+00
          1   -1    0    0  501    0  0.00000000000E+00  0.00000000000E+00  0.10149178161E+04  0.10149178161E+04  0.00000000000E+00 0. -1.
         -1   -1    0    0    0  501 -0.00000000000E+00 -0.00000000000E+00 -0.49925258395E+02  0.49925258395E+02  0.00000000000E+00 0.  1.
         25    2    1    2    0    0 -0.29957866115E+02  0.16550574643E+03  0.74328284938E+03  0.77227393901E+03  0.12509203354E+03 0.  0.
         23    2    1    2    0    0  0.29957866115E+02 -0.16550574643E+03  0.22170970833E+03  0.29256913549E+03  0.90287753472E+02 0.  0.
          5    1    3    3  502    0  0.78296345698E+01  0.10614764326E+03  0.62933452415E+03  0.63828523485E+03  0.41800000000E+01 0.  1.
         -5    1    3    3    0  502 -0.37787500685E+02  0.59358103166E+02  0.11394832523E+03  0.13398870416E+03  0.41800000000E+01 0.  1.
        -11    1    4    4    0    0  0.27373437117E+02 -0.97390894945E+02  0.19438143529E+03  0.21913108831E+03  0.00000000000E+00 0.  1.
         11    1    4    4    0    0  0.25844289980E+01 -0.68114851485E+02  0.27328273045E+02  0.73438047181E+02  0.00000000000E+00 0. -1.
</event>
<event>
 8    1  0.6380238E-009  0.1117743E+03  0.7561462E-02  0.1257319E+00
          2   -1    0    0  501    0  0.00000000000E+00  0.00000000000E+00  0.93953359311E+03  0.93953359311E+03  0.00000000000E+00 0. -1.
         -2   -1    0    0    0  501 -0.00000000000E+00 -0.00000000000E+00 -0.16718307694E+02  0.16718307694E+02  0.00000000000E+00 0.  1.
         25    2    1    2    0    0 -0.30603461149E+02  0.48996519498E+02  0.62474507222E+03  0.63975869113E+03  0.12509015488E+03 0.  0.
         23    2    1    2    0    0  0.30603461149E+02 -0.48996519498E+02  0.29807021319E+03  0.31649320967E+03  0.89358094329E+02 0.  0.
          5    1    3    3  502    0  0.77231258278E+01 -0.29123582261E+02  0.50579929906E+02  0.59022296003E+02  0.41800000000E+01 0. -1.
         -5    1    3    3    0  502 -0.38326586976E+02  0.78120101759E+02  0.57416514232E+03  0.58073639512E+03  0.41800000000E+01 0. -1.
        -11    1    4    4    0    0  0.29763717940E+02  0.20737102447E+02  0.11520778314E+03  0.12078385496E+03  0.00000000000E+00 0. -1.
         11    1    4    4    0    0  0.83974320877E+00 -0.69733621945E+02  0.18286243005E+03  0.19570935471E+03  0.00000000000E+00 0.  1.
</event>
<event>
 8    1  0.6380238E-009  0.1070763E+03  0.7561462E-02  0.1266082E+00
         -1   -1    0    0    0  501 -0.00000000000E+00  0.00000000000E+00  0.94138629835E+03  0.94138629835E+03  0.00000000000E+00 0.  1.
          1   -1    0    0  501    0  0.00000000000E+00 -0.00000000000E+00 -0.17943791651E+02  0.17943791651E+02  0.00000000000E+00 0. -1.
         25    2    1    2    0    0  0.14575371556E+02 -0.60469579655E+02  0.65580496300E+03  0.67051977607E+03  0.12509040364E+03 0.  0.
         23    2    1    2    0    0 -0.14575371556E+02  0.60469579655E+02  0.26763754370E+03  0.28881031393E+03  0.88952409286E+02 0.  0.
          5    1    3    3  502    0  0.40630672860E+02  0.99029265006E+01  0.85368054315E+02  0.95153016915E+02  0.41800000000E+01 0.  1.
         -5    1    3    3    0  502 -0.26055301304E+02 -0.70372506155E+02  0.57043690868E+03  0.57536675915E+03  0.41800000000E+01 0.  1.
        -11    1    4    4    0    0 -0.35316273912E+02  0.25072429404E+01  0.42032666978E+02  0.54956988304E+02  0.00000000000E+00 0. -1.
         11    1    4    4    0    0  0.20740902356E+02  0.57962336714E+02  0.22560487672E+03  0.23385332563E+03  0.00000000000E+00 0.  1.
</event>
<event>
 8    1  0.6380238E-009  0.8009766E+02  0.7561462E-02  0.1328775E+00
         -1   -1    0    0    0  501 -0.00000000000E+00  0.00000000000E+00  0.12943113593E+03  0.12943113593E+03  0.00000000000E+00 0.  1.
          1   -1    0    0  501    0  0.00000000000E+00 -0.00000000000E+00 -0.99819926219E+02  0.99819926219E+02  0.00000000000E+00 0. -1.
         25    2    1    2    0    0  0.11828873471E+02  0.26279132841E+02  0.37497499499E+02  0.13373019649E+03  0.12508872018E+03 0.  0.
         23    2    1    2    0    0 -0.11828873471E+02 -0.26279132841E+02 -0.78862897922E+01  0.95520865650E+02  0.90727763873E+02 0.  0.
          5    1    3    3  502    0  0.33890947513E+02  0.41470247528E+02 -0.29619498041E+02  0.61344639680E+02  0.41800000000E+01 0.  1.
         -5    1    3    3    0  502 -0.22062074042E+02 -0.15191114687E+02  0.67116997539E+02  0.72385556813E+02  0.41800000000E+01 0.  1.
        -11    1    4    4    0    0 -0.43337390465E+02 -0.13904606817E+02 -0.30520710509E+02  0.54799464168E+02  0.00000000000E+00 0. -1.
         11    1    4    4    0    0  0.31508516994E+02 -0.12374526023E+02  0.22634420717E+02  0.40721401482E+02  0.00000000000E+00 0.  1.
</event>
<event>
 8    1  0.6380238E-009  0.1813985E+03  0.7561462E-02  0.1166456E+00
          1   -1    0    0  501    0  0.00000000000E+00  0.00000000000E+00  0.64492955351E+03  0.64492955351E+03  0.00000000000E+00 0.  1.
         -1   -1    0    0    0  501 -0.00000000000E+00 -0.00000000000E+00 -0.53107072041E+02  0.53107072041E+02  0.00000000000E+00 0. -1.
         25    2    1    2    0    0  0.10477977856E+03 -0.10426877702E+03  0.34998641816E+03  0.39999171612E+03  0.12510835388E+03 0.  0.
         23    2    1    2    0    0 -0.10477977856E+03  0.10426877702E+03  0.24183606331E+03  0.29804490943E+03  0.92169987862E+02 0.  0.
          5    1    3    3  502    0 -0.24934936563E+02 -0.31411716543E+02  0.43715411144E+02  0.59472317670E+02  0.41800000000E+01 0.  1.
         -5    1    3    3    0  502  0.12971471513E+03 -0.72857060482E+02  0.30627100702E+03  0.34051939845E+03  0.41800000000E+01 0.  1.
        -11    1    4    4    0    0 -0.58639030007E+02  0.11241149695E+03  0.18683905841E+03  0.22579573564E+03  0.00000000000E+00 0.  1.
         11    1    4    4    0    0 -0.46140748557E+02 -0.81427199263E+01  0.54997004902E+02  0.72249173790E+02  0.00000000000E+00 0. -1.
</event>
<event>
 8    1  0.6380238E-009  0.1252078E+03  0.7561462E-02  0.1234745E+00
         -2   -1    0    0    0  501 -0.00000000000E+00  0.00000000000E+00  0.13317084817E+03  0.13317084817E+03  0.00000000000E+00 0.  1.
          2   -1    0    0  501    0  0.00000000000E+00 -0.00000000000E+00 -0.19888295331E+03  0.19888295331E+03  0.00000000000E+00 0. -1.
         25    2    1    2    0    0 -0.51426723651E+02 -0.48601170947E+02 -0.13798432864E+03  0.19923409528E+03  0.12509103904E+03 0.  0.
         23    2    1    2    0    0  0.51426723651E+02  0.48601170947E+02  0.72272223499E+02  0.13281970620E+03  0.86087271657E+02 0.  0.
          5    1    3    3  502    0 -0.24744674088E+01 -0.82899946634E+02 -0.69959935395E+02  0.10858355815E+03  0.41800000000E+01 0.  1.
         -5    1    3    3    0  502 -0.48952256243E+02  0.34298775687E+02 -0.68024393245E+02  0.90650537126E+02  0.41800000000E+01 0.  1.
        -11    1    4    4    0    0  0.65839839086E+02  0.60001100411E+02  0.71840569710E+02  0.11443812266E+03  0.00000000000E+00 0.  1.
         11    1    4    4    0    0 -0.14413115434E+02 -0.11399929465E+02  0.43165378909E+00  0.18381583537E+02  0.00000000000E+00 0. -1.
</event>
<event>
 8    1  0.6380238E-009  0.1766060E+03  0.7561462E-02  0.1171129E+00
          4   -1    0    0  501    0  0.00000000000E+00  0.00000000000E+00  0.19202029711E+03  0.19202029711E+03  0.00000000000E+00 0. -1.
         -4   -1    0    0    0  501 -0.00000000000E+00 -0.00000000000E+00 -0.18339340226E+03  0.18339340226E+03  0.00000000000E+00 0.  1.
         25    2    1    2    0    0  0.10068380909E+03  0.10716640257E+03  0.35870392293E+02  0.19635704984E+03  0.12509012241E+03 0.  0.
         23    2    1    2    0    0 -0.10068380909E+03 -0.10716640257E+03 -0.27243497443E+02  0.17905664953E+03  0.98474404475E+02 0.  0.
          5    1    3    3  502    0  0.68043710238E+01  0.89412482774E+02 -0.99388594914E+01  0.90316913526E+02  0.41800000000E+01 0.  1.
         -5    1    3    3    0  502  0.93879438068E+02  0.17753919794E+02  0.45809251785E+02  0.10604013631E+03  0.41800000000E+01 0.  1.
        -11    1    4    4    0    0  0.12918856195E+02 -0.23160455346E+02 -0.26889828329E+02  0.37767266313E+02  0.00000000000E+00 0.  1.
         11    1    4    4    0    0 -0.11360266529E+03 -0.84005947222E+02 -0.35366911365E+00  0.14128938322E+03  0.00000000000E+00 0. -1.
</event>
<event>
 8    1  0.6380238E-009  0.1072924E+03  0.7561462E-02  0.1265668E+00
         -1   -1    0    0    0  501 -0.00000000000E+00  0.00000000000E+00  0.32844176488E+02  0.32844176488E+02  0.00000000000E+00 0.  1.
          1   -1    0    0  501    0  0.00000000000E+00 -0.00000000000E+00 -0.48551699204E+03  0.48551699204E+03  0.00000000000E+00 0. -1.
         25    2    1    2    0    0 -0.52135796268E+02 -0.20335029132E+02 -0.31916548611E+03  0.34734048685E+03  0.12508857507E+03 0.  0.
         23    2    1    2    0    0  0.52135796268E+02  0.20335029132E+02 -0.13350732944E+03  0.17102068168E+03  0.91061582941E+02 0.  0.
          5    1    3    3  502    0  0.40415480461E+02 -0.98737647042E+01 -0.12789005795E+03  0.13455200338E+03  0.41800000000E+01 0. -1.
         -5    1    3    3    0  502 -0.92551276729E+02 -0.10461264428E+02 -0.19127542816E+03  0.21278848347E+03  0.41800000000E+01 0. -1.
        -11    1    4    4    0    0 -0.11613806795E+02  0.92131615470E+01  0.69500692782E+01  0.16372730894E+02  0.00000000000E+00 0.  1.
         11    1    4    4    0    0  0.63749603063E+02  0.11121867585E+02 -0.14045739872E+03  0.15464795079E+03  0.00000000000E+00 0. -1.
</event>
<event>
 8    1  0.6380238E-009  0.1265555E+03  0.7561462E-02  0.1232658E+00
         -2   -1    0    0    0  501 -0.00000000000E+00  0.00000000000E+00  0.14776494603E+03  0.14776494603E+03  0.00000000000E+00 0.  1.
          2   -1    0    0  501    0  0.00000000000E+00 -0.00000000000E+00 -0.13009488144E+03  0.13009488144E+03  0.00000000000E+00 0. -1.
         25    2    1    2    0    0 -0.79756876302E+02  0.76676788707E+01  0.43360843023E+02  0.15475255589E+03  0.12509291838E+03 0.  0.
         23    2    1    2    0    0  0.79756876302E+02 -0.76676788707E+01 -0.25690778435E+02  0.12310727158E+03  0.89863405246E+02 0.  0.
          5    1    3    3  502    0 -0.68767419392E+02  0.62116556983E+02  0.24518570343E+02  0.95948201197E+02  0.41800000000E+01 0.  1.
         -5    1    3    3    0  502 -0.10989456910E+02 -0.54448878112E+02  0.18842272680E+02  0.58804354690E+02  0.41800000000E+01 0.  1.
        -11    1    4    4    0    0 -0.77616269033E+01 -0.14928293146E+02  0.18322616896E+02  0.24875994018E+02  0.00000000000E+00 0.  1.
         11    1    4    4    0    0  0.87518503205E+02  0.72606142756E+01 -0.44013395331E+02  0.98231277562E+02  0.00000000000E+00 0. -1.
</event>
<event>
 8    1  0.6380238E-009  0.1741376E+03  0.7561462E-02  0.1173600E+00
          2   -1    0    0  501    0  0.00000000000E+00  0.00000000000E+00  0.83384106425E+03  0.83384106425E+03  0.00000000000E+00 0. -1.
         -2   -1    0    0    0  501 -0.00000000000E+00 -0.00000000000E+00 -0.41076082408E+02  0.41076082408E+02  0.00000000000E+00 0.  1.
         25    2    1    2    0    0  0.36354058789E+02 -0.14544425943E+03  0.41794388012E+03  0.46131462704E+03  0.12513372047E+03 0.  0.
         23    2    1    2    0    0 -0.36354058789E+02  0.14544425943E+03  0.37482110172E+03  0.41360251962E+03  0.90002976330E+02 0.  0.
          5    1    3    3  502    0 -0.15596260440E+02 -0.14213351328E+03  0.30807149531E+03  0.33966262315E+03  0.41800000000E+01 0.  1.
         -5    1    3    3    0  502  0.51950319228E+02 -0.33107461492E+01  0.10987238481E+03  0.12165200389E+03  0.41800000000E+01 0.  1.
        -11    1    4    4    0    0 -0.39521141042E+02  0.10114793576E+03  0.34073014503E+03  0.35761691407E+03  0.00000000000E+00 0. -1.
         11    1    4    4    0    0  0.31670822537E+01  0.44296323665E+02  0.34090956691E+02  0.55985605546E+02  0.00000000000E+00 0.  1.
</event>
<event>
 8    1  0.6380238E-009  0.1498110E+03  0.7561462E-02  0.1200705E+00
         -4   -1    0    0    0  501 -0.00000000000E+00  0.00000000000E+00  0.47216234008E+03  0.47216234008E+03  0.00000000000E+00 0.  1.
          4   -1    0    0  501    0  0.00000000000E+00 -0.00000000000E+00 -0.61355544938E+02  0.61355544938E+02  0.00000000000E+00 0. -1.
         25    2    1    2    0    0  0.64434517503E+02  0.82331837466E+02  0.95120269349E+02  0.18874829362E+03  0.12509082379E+03 0.  0.
         23    2    1    2    0    0 -0.64434517503E+02 -0.82331837466E+02  0.31568652579E+03  0.34476959139E+03  0.90982141540E+02 0.  0.
          5    1    3    3  502    0  0.98065452418E+02  0.80750675508E+02  0.86498967253E+02  0.15374344958E+03  0.41800000000E+01 0.  1.
         -5    1    3    3    0  502 -0.33630934915E+02  0.15811619581E+01  0.86213020964E+01  0.35004844040E+02  0.41800000000E+01 0.  1.
        -11    1    4    4    0    0  0.23410776887E+02 -0.21067306374E+02  0.71941541816E+02  0.78533313385E+02  0.00000000000E+00 0.  1.
         11    1    4    4    0    0 -0.87845294390E+02 -0.61264531092E+02  0.24374498397E+03  0.26623627801E+03  0.00000000000E+00 0. -1.
</event>
<event>
 8    1  0.6380238E-009  0.1284724E+03  0.7561462E-02  0.1229740E+00
         -1   -1    0    0    0  501 -0.00000000000E+00  0.00000000000E+00  0.26713912283E+02  0.26713912283E+02  0.00000000000E+00 0.  1.
          1   -1    0    0  501    0  0.00000000000E+00 -0.00000000000E+00 -0.93416697136E+03  0.93416697136E+03  0.00000000000E+00 0. -1.
         25    2    1    2    0    0 -0.64466583342E+02 -0.74576220483E+02 -0.44085991977E+03  0.46874535126E+03  0.12508869827E+03 0.  0.
         23    2    1    2    0    0  0.64466583342E+02  0.74576220483E+02 -0.46659313931E+03  0.49213553239E+03  0.12153465169E+03 0.  0.
          5    1    3    3  502    0 -0.95338416102E+02 -0.23448299105E+02 -0.30016253306E+03  0.31583897000E+03  0.41800000000E+01 0. -1.
         -5    1    3    3    0  502  0.30871832760E+02 -0.51127921378E+02 -0.14069738671E+03  0.15290638126E+03  0.41800000000E+01 0. -1.
        -11    1    4    4    0    0  0.49593541500E+02  0.61465091342E+02 -0.46563509522E+03  0.47228542082E+03  0.00000000000E+00 0. -1.
         11    1    4    4    0    0  0.14873041842E+02  0.13111129141E+02 -0.95804408450E+00  0.19850111573E+02  0.00000000000E+00 0.  1.
</event>
<event>
 8    1  0.6380238E-009  0.1173765E+03  0.7561462E-02  0.1247489E+00
          2   -1    0    0  501    0  0.00000000000E+00  0.00000000000E+00  0.10195689312E+03  0.10195689312E+03  0.00000000000E+00 0. -1.
         -2   -1    0    0    0  501 -0.00000000000E+00 -0.00000000000E+00 -0.18951184961E+03  0.18951184961E+03  0.00000000000E+00 0.  1.
         25    2    1    2    0    0  0.46097950985E+01  0.80825260412E+02 -0.13778836964E+02  0.14963674606E+03  0.12508927409E+03 0.  0.
         23    2    1    2    0    0 -0.46097950985E+01 -0.80825260412E+02 -0.73776119526E+02  0.14183199667E+03  0.90107860561E+02 0.  0.
          5    1    3    3  502    0  0.21185778239E+02 -0.29772333782E+02  0.74923253216E+00  0.36786720536E+02  0.41800000000E+01 0.  1.
         -5    1    3    3    0  502 -0.16575983140E+02  0.11059759419E+03 -0.14528069497E+02  0.11285002553E+03  0.41800000000E+01 0.  1.
        -11    1    4    4    0    0  0.11401610216E+02 -0.50490004998E+02 -0.90049497718E+02  0.10386601638E+03  0.00000000000E+00 0.  1.
         11    1    4    4    0    0 -0.16011405314E+02 -0.30335255414E+02  0.16273378191E+02  0.37965980284E+02  0.00000000000E+00 0. -1.
</event>
<event>
 8    1  0.6380238E-009  0.8482199E+02  0.7561462E-02  0.1315899E+00
          1   -1    0    0  501    0  0.00000000000E+00  0.00000000000E+00  0.49487943892E+03  0.49487943892E+03  0.00000000000E+00 0. -1.
         -1   -1    0    0    0  501 -0.00000000000E+00 -0.00000000000E+00 -0.31784612236E+02  0.31784612236E+02  0.00000000000E+00 0.  1.
         25    2    1    2    0    0 -0.45501259957E+02 -0.22405846337E+02  0.31442593887E+03  0.34217219239E+03  0.12508297887E+03 0.  0.
         23    2    1    2    0    0  0.45501259957E+02  0.22405846337E+02  0.14866888782E+03  0.18449185877E+03  0.96759604894E+02 0.  0.
          5    1    3    3  502    0 -0.14942317530E+02 -0.25023059069E+02  0.30941760299E+03  0.31081530171E+03  0.41800000000E+01 0. -1.
         -5    1    3    3    0  502 -0.30558942427E+02  0.26172127314E+01  0.50083358812E+01  0.31356890679E+02  0.41800000000E+01 0. -1.
        -11    1    4    4    0    0  0.65545777298E+02 -0.14607807682E+02  0.91464000583E+02  0.11346938076E+03  0.00000000000E+00 0. -1.
         11    1    4    4    0    0 -0.20044517341E+02  0.37013654019E+02  0.57204887236E+02  0.71022478012E+02  0.00000000000E+00 0.  1.
</event>
<event>
 8    1  0.6380238E-009  0.1737854E+03  0.7561462E-02  0.1173957E+00
         -1   -1    0    0    0  501 -0.00000000000E+00  0.00000000000E+00  0.11704233278E+03  0.11704233278E+03  0.00000000000E+00 0.  1.
          1   -1    0    0  501    0  0.00000000000E+00 -0.00000000000E+00 -0.46852555316E+03  0.46852555316E+03  0.00000000000E+00 0. -1.
         25    2    1    2    0    0  0.14975288406E+03 -0.60395331143E+02 -0.19229937216E+02  0.20515963043E+03  0.12508861325E+03 0.  0.
         23    2    1    2    0    0 -0.14975288406E+03  0.60395331143E+02 -0.33225328316E+03  0.38040825551E+03  0.90800189342E+02 0.  0.
          5    1    3    3  502    0  0.14921997297E+03 -0.76110974096E+02  0.14014724718E+02  0.16814685730E+03  0.41800000000E+01 0.  1.
         -5    1    3    3    0  502  0.53291108992E+00  0.15715642953E+02 -0.33244661934E+02  0.37012773130E+02  0.41800000000E+01 0.  1.
        -11    1    4    4    0    0 -0.79183108926E+02  0.46456514454E+02 -0.93425835925E+02  0.13098304964E+03  0.00000000000E+00 0.  1.
         11    1    4    4    0    0 -0.70569775132E+02  0.13938816689E+02 -0.23882744723E+03  0.24942520587E+03  0.00000000000E+00 0. -1.
</event>
<event>
 8    1  0.6380238E-009  0.1033400E+03  0.7561462E-02  0.1273425E+00
         -1   -1    0    0    0  501 -0.00000000000E+00  0.00000000000E+00  0.13872679093E+03  0.13872679093E+03  0.00000000000E+00 0.  1.
          1   -1    0    0  501    0  0.00000000000E+00 -0.00000000000E+00 -0.81518843881E+02  0.81518843881E+02  0.00000000000E+00 0. -1.
         25    2    1    2    0    0  0.67996260990E+01 -0.23197290780E+02  0.59095044023E+02  0.14042598737E+03  0.12507151748E+03 0.  0.
         23    2    1    2    0    0 -0.67996260990E+01  0.23197290780E+02 -0.18870969741E+01  0.79819647443E+02  0.76047786085E+02 0.  0.
          5    1    3    3  502    0 -0.15770695334E+02  0.48726251276E+02  0.17853541506E+02  0.54398379930E+02  0.41800000000E+01 0.  1.
         -5    1    3    3    0  502  0.22570321433E+02 -0.71923542056E+02  0.41241502517E+02  0.86027607437E+02  0.41800000000E+01 0.  1.
        -11    1    4    4    0    0 -0.39944001266E+02  0.24080424880E+02 -0.11714701569E+01  0.46655786799E+02  0.00000000000E+00 0.  1.
         11    1    4    4    0    0  0.33144375167E+02 -0.88313409980E+00 -0.71562681722E+00  0.33163860644E+02  0.00000000000E+00 0. -1.
</event>
<event>
 8    1  0.6380238E-009  0.6632201E+02  0.7561462E-02  0.1373067E+00
         -2   -1    0    0    0  501 -0.00000000000E+00  0.00000000000E+00  0.14172267458E+03  0.14172267458E+03  0.00000000000E+00 0.  1.
          2   -1    0    0  501    0  0.00000000000E+00 -0.00000000000E+00 -0.11898121344E+03  0.11898121344E+03  0.00000000000E+00 0. -1.
         25    2    1    2    0    0  0.20419399766E+02  0.45309393867E+02  0.65628112601E+02  0.14974887696E+03  0.12509110251E+03 0.  0.
         23    2    1    2    0    0 -0.20419399766E+02 -0.45309393867E+02 -0.42886651460E+02  0.11095501107E+03  0.89453096918E+02 0.  0.
          5    1    3    3  502    0 -0.18127624469E+02  0.24080465901E+02  0.92935361402E+02  0.97790252101E+02  0.41800000000E+01 0. -1.
         -5    1    3    3    0  502  0.38547024235E+02  0.21228927966E+02 -0.27307248801E+02  0.51958624857E+02  0.41800000000E+01 0. -1.
        -11    1    4    4    0    0  0.53328578293E+01 -0.23998279225E+02  0.25138326699E+02  0.35160947763E+02  0.00000000000E+00 0.  1.
         11    1    4    4    0    0 -0.25752257595E+02 -0.21311114643E+02 -0.68024978160E+02  0.75794063305E+02  0.00000000000E+00 0. -1.
</event>
<event>
 8    1  0.6380238E-009  0.1025369E+03  0.7561462E-02  0.1275050E+00
         -2   -1    0    0    0  501 -0.00000000000E+00  0.00000000000E+00  0.95026999782E+02  0.95026999782E+02  0.00000000000E+00 0.  1.
          2   -1    0    0  501    0  0.00000000000E+00 -0.00000000000E+00 -0.15541571835E+03  0.15541571835E+03  0.00000000000E+00 0. -1.
         25    2    1    2    0    0 -0.75382149105E+01  0.56266155570E+02 -0.50944946320E+02  0.14651196236E+03  0.12509061761E+03 0.  0.
         23    2    1    2    0    0  0.75382149105E+01 -0.56266155570E+02 -0.94437722427E+01  0.10393075576E+03  0.86543123429E+02 0.  0.
          5    1    3    3  502    0  0.39750225259E+02  0.57104756856E+02 -0.66711111319E+02  0.96482529181E+02  0.41800000000E+01 0. -1.
         -5    1    3    3    0  502 -0.47288440170E+02 -0.83860128636E+00  0.15766164999E+02  0.50029433183E+02  0.41800000000E+01 0. -1.
        -11    1    4    4    0    0 -0.21902054661E+02  0.26169463580E+01  0.21841911360E+02  0.31042189009E+02  0.00000000000E+00 0.  1.
         11    1    4    4    0    0  0.29440269571E+02 -0.58883101928E+02 -0.31285683603E+02  0.72888566755E+02  0.00000000000E+00 0. -1.
</event>
<event>
 8    1  0.6380238E-009  0.1222262E+03  0.7561462E-02  0.1239469E+00
         -3   -1    0    0    0  501 -0.00000000000E+00  0.00000000000E+00  0.57262563546E+03  0.57262563546E+03  0.00000000000E+00 0.  1.
          3   -1    0    0  501    0  0.00000000000E+00 -0.00000000000E+00 -0.36223741227E+02  0.36223741227E+02  0.00000000000E+00 0. -1.
         25    2    1    2    0    0  0.51226929528E+02  0.78909443140E+02  0.32226853408E+03  0.35827217581E+03  0.12510413815E+03 0.  0.
         23    2    1    2    0    0 -0.51226929528E+02 -0.78909443140E+02  0.21413336016E+03  0.25057720088E+03  0.89916289622E+02 0.  0.
          5    1    3    3  502    0 -0.60524588057E+01  0.91058285440E+02  0.14349481521E+03  0.17010725440E+03  0.41800000000E+01 0.  1.
         -5    1    3    3    0  502  0.57279388333E+02 -0.12148842300E+02  0.17877371886E+03  0.18816492142E+03  0.41800000000E+01 0.  1.
        -11    1    4    4    0    0 -0.18514619744E+02 -0.35520441397E+02  0.18426919961E+03  0.18857261420E+03  0.00000000000E+00 0.  1.
         11    1    4    4    0    0 -0.32712309783E+02 -0.43389001744E+02  0.29864160555E+02  0.62004586680E+02  0.00000000000E+00 0. -1.
</event>
<event>
 8    1  0.6380238E-009  0.2974966E+03  0.7561462E-02  0.1086499E+00
         -1   -1    0    0    0  501 -0.00000000000E+00  0.00000000000E+00  0.15162437581E+03  0.15162437581E+03  0.00000000000E+00 0.  1.
          1   -1    0    0  501    0  0.00000000000E+00 -0.00000000000E+00 -0.66564553774E+03  0.66564553774E+03  0.00000000000E+00 0. -1.
         25    2    1    2    0    0  0.10604376532E+03  0.27241985752E+03 -0.34080990600E+03  0.46610791411E+03  0.12508931464E+03 0.  0.
         23    2    1    2    0    0 -0.10604376532E+03 -0.27241985752E+03 -0.17321125593E+03  0.35116199944E+03  0.88627037282E+02 0.  0.
          5    1    3    3  502    0  0.16985575203E+02  0.19323520396E+02 -0.10721135532E+03  0.11033428894E+03  0.41800000000E+01 0.  1.
         -5    1    3    3    0  502  0.89058190121E+02  0.25309633712E+03 -0.23359855068E+03  0.35577362517E+03  0.41800000000E+01 0.  1.
        -11    1    4    4    0    0 -0.41489246149E+02 -0.19696259215E+03 -0.14453202965E+03  0.24780058081E+03  0.00000000000E+00 0. -1.
         11    1    4    4    0    0 -0.64554519175E+02 -0.75457265368E+02 -0.28679226280E+02  0.10336141864E+03  0.00000000000E+00 0.  1.
</event>
<event>
 8    1  0.6380238E-009  0.1118453E+03  0.7561462E-02  0.1257190E+00
          2   -1    0    0  501    0  0.00000000000E+00  0.00000000000E+00  0.11497079333E+04  0.11497079333E+04  0.00000000000E+00 0. -1.
         -2   -1    0    0    0  501 -0.00000000000E+00 -0.00000000000E+00 -0.18603583698E+02  0.18603583698E+02  0.00000000000E+00 0.  1.
         25    2    1    2    0    0  0.47815180344E+02 -0.22466606727E+02  0.94689931293E+03  0.95658737286E+03  0.12510017266E+03 0.  0.
         23    2    1    2    0    0 -0.47815180344E+02  0.22466606727E+02  0.18420503663E+03  0.21172414410E+03  0.90025428543E+02 0.  0.
          5    1    3    3  502    0  0.85161140945E+02 -0.15691696291E+01  0.46352498295E+03  0.47130432253E+03  0.41800000000E+01 0. -1.
         -5    1    3    3    0  502 -0.37345960601E+02 -0.20897437097E+02  0.48337432998E+03  0.48528305032E+03  0.41800000000E+01 0. -1.
        -11    1    4    4    0    0 -0.94549234842E+01  0.48266846660E+02  0.13739896774E+03  0.14593683702E+03  0.00000000000E+00 0. -1.
         11    1    4    4    0    0 -0.38360256860E+02 -0.25800239934E+02  0.46806068895E+02  0.65787307076E+02  0.00000000000E+00 0.  1.
</event>
<event>
 8    1  0.6380238E-009  0.7756376E+02  0.7561462E-02  0.1336111E+00
          1   -1    0    0  501    0  0.00000000000E+00  0.00000000000E+00  0.24090190038E+03  0.24090190038E+03  0.00000000000E+00 0. -1.
         -1   -1    0    0    0  501 -0.00000000000E+00 -0.00000000000E+00 -0.58838361330E+02  0.58838361330E+02  0.00000000000E+00 0.  1.
         25    2    1    2    0    0 -0.16060730048E+02 -0.46027877910E+02  0.11541691564E+03  0.17704322665E+03  0.12508687818E+03 0.  0.
         23    2    1    2    0    0  0.16060730048E+02  0.46027877910E+02  0.66646623412E+02  0.12269703506E+03  0.90753938789E+02 0.  0.
          5    1    3    3  502    0 -0.22037935985E+02 -0.49864001530E+02 -0.63080948741E+01  0.55039565150E+02  0.41800000000E+01 0. -1.
         -5    1    3    3    0  502  0.59772059372E+01  0.38361236199E+01  0.12172501051E+03  0.12200366150E+03  0.41800000000E+01 0. -1.
        -11    1    4    4    0    0 -0.23211516661E+02  0.47544572002E+02  0.10146656813E+02  0.53872214332E+02  0.00000000000E+00 0.  1.
         11    1    4    4    0    0  0.39272246709E+02 -0.15166940926E+01  0.56499966599E+02  0.68824820728E+02  0.00000000000E+00 0. -1.
</event>
<event>
 8    1  0.6380238E-009  0.1005068E+03  0.7561462E-02  0.1279234E+00
         -4   -1    0    0    0  501 -0.00000000000E+00  0.00000000000E+00  0.97101750455E+02  0.97101750455E+02  0.00000000000E+00 0. -1.
          4   -1    0    0  501    0  0.00000000000E+00 -0.00000000000E+00 -0.26598662821E+03  0.26598662821E+03  0.00000000000E+00 0.  1.
         25    2    1    2    0    0  0.75695792677E+02  0.12524142376E+02 -0.19131455013E+03  0.24111231610E+03  0.12508870739E+03 0.  0.
         23    2    1    2    0    0 -0.75695792677E+02 -0.12524142376E+02  0.22429672375E+02  0.12197606255E+03  0.92132309546E+02 0.  0.
          5    1    3    3  502    0  0.27003918959E+02  0.16879402291E+02 -0.18930094611E+03  0.19200637088E+03  0.41800000000E+01 0. -1.
         -5    1    3    3    0  502  0.48691873718E+02 -0.43552599153E+01 -0.20136040143E+01  0.49105945223E+02  0.41800000000E+01 0. -1.
        -11    1    4    4    0    0 -0.23723843572E+02  0.39638774342E+02  0.66849386908E+01  0.46676992088E+02  0.00000000000E+00 0.  1.
         11    1    4    4    0    0 -0.51971949105E+02 -0.52162916718E+02  0.15744733684E+02  0.75299070466E+02  0.00000000000E+00 0. -1.
</event>
<event>
 8    1  0.6380238E-009  0.2014137E+03  0.7561462E-02  0.1148552E+00
         -1   -1    0    0    0  501 -0.00000000000E+00  0.00000000000E+00  0.18398042383E+02  0.18398042383E+02  0.00000000000E+00 0.  1.
          1   -1    0    0  501    0  0.00000000000E+00 -0.00000000000E+00 -0.33875718142E+04  0.33875718142E+04  0.00000000000E+00 0. -1.
         25    2    1    2    0    0 -0.17376217919E+03  0.76751681236E+02 -0.25346774532E+04  0.25448617255E+04  0.12508914645E+03 0.  0.
         23    2    1    2    0    0  0.17376217919E+03 -0.76751681236E+02 -0.83449631861E+03  0.86110813109E+03  0.95073614514E+02 0.  0.
          5    1    3    3  502    0 -0.48993482381E+02  0.72593688896E+02 -0.62719476476E+03  0.63329373148E+03  0.41800000000E+01 0.  1.
         -5    1    3    3    0  502 -0.12476869681E+03  0.41579923398E+01 -0.19074826885E+04  0.19115679940E+04  0.41800000000E+01 0.  1.
        -11    1    4    4    0    0  0.34594881882E+02 -0.19884932085E+02 -0.59343980072E+02  0.71511707763E+02  0.00000000000E+00 0.  1.
         11    1    4    4    0    0  0.13916729731E+03 -0.56866749150E+02 -0.77515233854E+03  0.78959642333E+03  0.00000000000E+00 0. -1.
</event>
<event>
 8    1  0.6380238E-009  0.9893767E+02  0.7561462E-02  0.1282546E+00
         -2   -1    0    0    0  501 -0.00000000000E+00  0.00000000000E+00  0.43288735996E+02  0.43288735996E+02  0.00000000000E+00 0.  1.
          2   -1    0    0  501    0  0.00000000000E+00 -0.00000000000E+00 -0.40820104818E+03  0.40820104818E+03  0.00000000000E+00 0. -1.
         25    2    1    2    0    0  0.21276781178E+02  0.59179630568E+02 -0.12701334490E+03  0.18903672585E+03  0.12509022283E+03 0.  0.
         23    2    1    2    0    0 -0.21276781178E+02 -0.59179630568E+02 -0.23789896729E+03  0.26245305832E+03  0.91272992148E+02 0.  0.
          5    1    3    3  502    0 -0.23548068111E+02 -0.27693712041E+01 -0.10728991787E+03  0.10995808203E+03  0.41800000000E+01 0.  1.
         -5    1    3    3    0  502  0.44824849289E+02  0.61949001772E+02 -0.19723427030E+02  0.79078643819E+02  0.41800000000E+01 0.  1.
        -11    1    4    4    0    0 -0.24399991060E+02  0.11145780960E+02 -0.19985624021E+02  0.33451654136E+02  0.00000000000E+00 0.  1.
         11    1    4    4    0    0  0.31232098814E+01 -0.70325411528E+02 -0.21791334327E+03  0.22900140419E+03  0.00000000000E+00 0. -1.
</event>
<event>
 8    1  0.6380238E-009  0.1560487E+03  0.7561462E-02  0.1193231E+00
         -1   -1    0    0    0  501 -0.00000000000E+00  0.00000000000E+00  0.22767201210E+02  0.22767201210E+02  0.00000000000E+00 0.  1.
          1   -1    0    0  501    0  0.00000000000E+00 -0.00000000000E+00 -0.12341490796E+04  0.12341490796E+04  0.00000000000E+00 0. -1.
         25    2    1    2    0    0  0.26456755432E+01 -0.12424024989E+03 -0.75628112006E+03  0.77655629339E+03  0.12504361223E+03 0.  0.
         23    2    1    2    0    0 -0.26456755432E+01  0.12424024989E+03 -0.45510075835E+03  0.48035998744E+03  0.90478605144E+02 0.  0.
          5    1    3    3  502    0 -0.43538164445E+02 -0.28249180389E+02 -0.43374492826E+03  0.43685892820E+03  0.41800000000E+01 0. -1.
         -5    1    3    3    0  502  0.46183839989E+02 -0.95991069497E+02 -0.32253619180E+03  0.33969736519E+03  0.41800000000E+01 0. -1.
        -11    1    4    4    0    0 -0.24457321834E+02  0.12883329374E+03 -0.39883595975E+03  0.41984080430E+03  0.00000000000E+00 0. -1.
         11    1    4    4    0    0  0.21811646291E+02 -0.45930438554E+01 -0.56264798604E+02  0.60519183138E+02  0.00000000000E+00 0.  1.
</event>
<event>
 8    1  0.6380238E-009  0.1016427E+03  0.7561462E-02  0.1276879E+00
         -1   -1    0    0    0  501 -0.00000000000E+00  0.00000000000E+00  0.16219554984E+02  0.16219554984E+02  0.00000000000E+00 0.  1.
          1   -1    0    0  501    0  0.00000000000E+00 -0.00000000000E+00 -0.75967874614E+03  0.75967874614E+03  0.00000000000E+00 0. -1.
         25    2    1    2    0    0 -0.10633883938E+02  0.96835640347E+01 -0.47753543546E+03  0.49385568408E+03  0.12508594518E+03 0.  0.
         23    2    1    2    0    0  0.10633883938E+02 -0.96835640347E+01 -0.26592375570E+03  0.28204261704E+03  0.92874878645E+02 0.  0.
          5    1    3    3  502    0  0.50618769595E+02 -0.23614735522E+02 -0.21973860423E+03  0.22676516964E+03  0.41800000000E+01 0. -1.
         -5    1    3    3    0  502 -0.61252653533E+02  0.33298299557E+02 -0.25779683123E+03  0.26709051445E+03  0.41800000000E+01 0. -1.
        -11    1    4    4    0    0 -0.32938895032E+02 -0.76137532377E+01 -0.42032341863E+02  0.53941244024E+02  0.00000000000E+00 0.  1.
         11    1    4    4    0    0  0.43572778970E+02 -0.20698107970E+01 -0.22389141383E+03  0.22810137302E+03  0.00000000000E+00 0. -1.
</event>
<event>
 8    1  0.6380238E-009  0.1025986E+03  0.7561462E-02  0.1274925E+00
          2   -1    0    0  501    0  0.00000000000E+00  0.00000000000E+00  0.42020815013E+03  0.42020815013E+03  0.00000000000E+00 0. -1.
         -2   -1    0    0    0  501 -0.00000000000E+00 -0.00000000000E+00 -0.30851246111E+02  0.30851246111E+02  0.00000000000E+00 0.  1.
         25    2    1    2    0    0 -0.20024875574E+02  0.29261607434E+02  0.21782411994E+03  0.25367440329E+03  0.12508444487E+03 0.  0.
         23    2    1    2    0    0  0.20024875574E+02 -0.29261607434E+02  0.17153278408E+03  0.19738499294E+03  0.90995066427E+02 0.  0.
          5    1    3    3  502    0  0.25650091525E+02 -0.25398428002E+02  0.16179921796E+02  0.39777752696E+02  0.41800000000E+01 0. -1.
         -5    1    3    3    0  502 -0.45674967099E+02  0.54660035436E+02  0.20164419814E+03  0.21389665060E+03  0.41800000000E+01 0. -1.
        -11    1    4    4    0    0 -0.32527611072E+02  0.74869259071E+01  0.64073787272E+02  0.72246451518E+02  0.00000000000E+00 0. -1.
         11    1    4    4    0    0  0.52552486646E+02 -0.36748533341E+02  0.10745899681E+03  0.12513854142E+03  0.00000000000E+00 0.  1.
</event>
<event>
 8    1  0.6380238E-009  0.1520885E+03  0.7561462E-02  0.1197930E+00
          3   -1    0    0  501    0  0.00000000000E+00  0.00000000000E+00  0.75519407114E+03  0.75519407114E+03  0.00000000000E+00 0. -1.
         -3   -1    0    0    0  501 -0.00000000000E+00 -0.00000000000E+00 -0.12220592411E+03  0.12220592411E+03  0.00000000000E+00 0.  1.
         25    2    1    2    0    0  0.10312884166E+03  0.34707095528E+02  0.69972268473E+03  0.71909559709E+03  0.12508597746E+03 0.  0.
         23    2    1    2    0    0 -0.10312884166E+03 -0.34707095528E+02 -0.66734537706E+02  0.15830439816E+03  0.93630355621E+02 0.  0.
          5    1    3    3  502    0  0.13117049248E+03  0.18490674142E+02  0.53554413087E+03  0.55169972960E+03  0.41800000000E+01 0.  1.
         -5    1    3    3    0  502 -0.28041650828E+02  0.16216421386E+02  0.16417855386E+03  0.16739586749E+03  0.41800000000E+01 0.  1.
        -11    1    4    4    0    0 -0.47251202000E+02  0.28053109893E+02 -0.46222354225E+02  0.71806400100E+02  0.00000000000E+00 0.  1.
         11    1    4    4    0    0 -0.55877639655E+02 -0.62760205421E+02 -0.20512183481E+02  0.86497998064E+02  0.00000000000E+00 0. -1.
</event>
<event>
 8    1  0.6380238E-009  0.7695656E+02  0.7561462E-02  0.1337917E+00
          2   -1    0    0  501    0  0.00000000000E+00  0.00000000000E+00  0.19486778862E+03  0.19486778862E+03  0.00000000000E+00 0. -1.
         -2   -1    0    0    0  501 -0.00000000000E+00 -0.00000000000E+00 -0.96901285659E+02  0.96901285659E+02  0.00000000000E+00 0.  1.
         25    2    1    2    0    0  0.12078098111E+02 -0.86883950055E+01  0.14331462521E+03  0.19080950807E+03  0.12509123834E+03 0.  0.
         23    2    1    2    0    0 -0.12078098111E+02  0.86883950055E+01 -0.45348122257E+02  0.10095956620E+03  0.88966359677E+02 0.  0.
          5    1    3    3  502    0 -0.25790652003E+02 -0.34388993263E+01  0.14954522861E+03  0.15184937128E+03  0.41800000000E+01 0.  1.
         -5    1    3    3    0  502  0.37868750114E+02 -0.52494956791E+01 -0.62306033929E+01  0.38960136791E+02  0.41800000000E+01 0.  1.
        -11    1    4    4    0    0 -0.36689562049E+01 -0.39760101938E+02 -0.28196882217E+02  0.48881398431E+02  0.00000000000E+00 0.  1.
         11    1    4    4    0    0 -0.84091419065E+01  0.48448496944E+02 -0.17151240040E+02  0.52078167773E+02  0.00000000000E+00 0. -1.
</event>
<event>
 8    1  0.6380238E-009  0.7189498E+02  0.7561462E-02  0.1353765E+00
          3   -1    0    0  501    0  0.00000000000E+00  0.00000000000E+00  0.19656619034E+03  0.19656619034E+03  0.00000000000E+00 0. -1.
         -3   -1    0    0    0  501 -0.00000000000E+00 -0.00000000000E+00 -0.80522016985E+02  0.80522016985E+02  0.00000000000E+00 0.  1.
         25    2    1    2    0    0  0.34238153954E+01 -0.37806498011E+02  0.80235582796E+01  0.13096659531E+03  0.12508724074E+03 0.  0.
         23    2    1    2    0    0 -0.34238153954E+01  0.37806498011E+02  0.10802061508E+03  0.14612161202E+03  0.90785562798E+02 0.  0.
          5    1    3    3  502    0  0.15857458777E+02 -0.64405129894E+01 -0.55874618963E+02  0.58586556911E+02  0.41800000000E+01 0. -1.
         -5    1    3    3    0  502 -0.12433643381E+02 -0.31365985022E+02  0.63898177242E+02  0.72380038402E+02  0.41800000000E+01 0. -1.
        -11    1    4    4    0    0 -0.93656277292E+01  0.64321837463E+02  0.49841506512E+02  0.81909642465E+02  0.00000000000E+00 0.  1.
         11    1    4    4    0    0  0.59418123338E+01 -0.26515339451E+02  0.58179108566E+02  0.64211969551E+02  0.00000000000E+00 0. -1.
</event>
<event>
 8    1  0.6380238E-009  0.1932653E+03  0.7561462E-02  0.1155549E+00
         -2   -1    0    0    0  501 -0.00000000000E+00  0.00000000000E+00  0.12684469353E+03  0.12684469353E+03  0.00000000000E+00 0. -1.
          2   -1    0    0  501    0  0.00000000000E+00 -0.00000000000E+00 -0.67769219604E+03  0.67769219604E+03  0.00000000000E+00 0.  1.
         25    2    1    2    0    0 -0.13675317988E+03 -0.12760236282E+03 -0.55301695195E+03  0.59704107642E+03  0.12508598077E+03 0.  0.
         23    2    1    2    0    0  0.13675317988E+03  0.12760236282E+03  0.21694494424E+01  0.20749581315E+03  0.89810972374E+02 0.  0.
          5    1    3    3  502    0 -0.43752133616E+01  0.43492907360E+01  0.47083865656E+01  0.88147674908E+01  0.41800000000E+01 0.  1.
         -5    1    3    3    0  502 -0.13237796652E+03 -0.13195165355E+03 -0.55772533852E+03  0.58822630893E+03  0.41800000000E+01 0.  1.
        -11    1    4    4    0    0  0.69526016664E+02  0.94131415617E+02 -0.37081454635E+02  0.12275839962E+03  0.00000000000E+00 0.  1.
         11    1    4    4    0    0  0.67227163215E+02  0.33470947201E+02  0.39250904077E+02  0.84737413528E+02  0.00000000000E+00 0. -1.
</event>
<event>
 8    1  0.6380238E-009  0.1382274E+03  0.7561462E-02  0.1215734E+00
          2   -1    0    0  501    0  0.00000000000E+00  0.00000000000E+00  0.29297269895E+03  0.29297269895E+03  0.00000000000E+00 0. -1.
         -2   -1    0    0    0  501 -0.00000000000E+00 -0.00000000000E+00 -0.80562767875E+02  0.80562767875E+02  0.00000000000E+00 0.  1.
         25    2    1    2    0    0 -0.59823654485E+02 -0.72799434277E+02  0.47762833173E+02  0.16373424884E+03  0.12509591817E+03 0.  0.
         23    2    1    2    0    0  0.59823654485E+02  0.72799434277E+02  0.16464709790E+03  0.20980121798E+03  0.89606121181E+02 0.  0.
          5    1    3    3  502    0 -0.83906658994E+01 -0.92736884535E+02  0.54550929485E+02  0.10799911729E+03  0.41800000000E+01 0.  1.
         -5    1    3    3    0  502 -0.51432988585E+02  0.19937450258E+02 -0.67880963122E+01  0.55735131552E+02  0.41800000000E+01 0.  1.
        -11    1    4    4    0    0  0.39273185617E+01  0.71914638798E+02  0.11101780382E+03  0.13233326063E+03  0.00000000000E+00 0. -1.
         11    1    4    4    0    0  0.55896335923E+02  0.88479547965E+00  0.53629294085E+02  0.77467957354E+02  0.00000000000E+00 0.  1.
</event>
<event>
 8    1  0.6380238E-009  0.1290909E+03  0.7561462E-02  0.1228811E+00
          4   -1    0    0  501    0  0.00000000000E+00  0.00000000000E+00  0.41745075644E+03  0.41745075644E+03  0.00000000000E+00 0.  1.
         -4   -1    0    0    0  501 -0.00000000000E+00 -0.00000000000E+00 -0.46360462243E+02  0.46360462243E+02  0.00000000000E+00 0. -1.
         25    2    1    2    0    0 -0.43340237776E+02 -0.65759832659E+02  0.14289826337E+03  0.20560195836E+03  0.12509804078E+03 0.  0.
         23    2    1    2    0    0  0.43340237776E+02  0.65759832659E+02  0.22819203083E+03  0.25820926032E+03  0.91638896643E+02 0.  0.
          5    1    3    3  502    0  0.42786674652E+02 -0.31410451811E+02  0.37292229413E+02  0.65003836697E+02  0.41800000000E+01 0. -1.
         -5    1    3    3    0  502 -0.86126912427E+02 -0.34349380848E+02  0.10560603395E+03  0.14059812167E+03  0.41800000000E+01 0. -1.
        -11    1    4    4    0    0  0.27407822387E+02 -0.14006274221E+02  0.26079139395E+02  0.40342111461E+02  0.00000000000E+00 0. -1.
         11    1    4    4    0    0  0.15932415389E+02  0.79766106881E+02  0.20211289143E+03  0.21786714886E+03  0.00000000000E+00 0.  1.
</event>
<event>
 8    1  0.6380238E-009  0.9805615E+02  0.7561462E-02  0.1284438E+00
         -1   -1    0    0    0  501 -0.00000000000E+00  0.00000000000E+00  0.28712851471E+02  0.28712851471E+02  0.00000000000E+00 0.  1.
          1   -1    0    0  501    0  0.00000000000E+00 -0.00000000000E+00 -0.48909060141E+03  0.48909060141E+03  0.00000000000E+00 0. -1.
         25    2    1    2    0    0 -0.21279854707E+02 -0.44028077924E+02 -0.26643008148E+03  0.29836892350E+03  0.12509085632E+03 0.  0.
         23    2    1    2    0    0  0.21279854707E+02  0.44028077924E+02 -0.19394766847E+03  0.21943452938E+03  0.90246942992E+02 0.  0.
          5    1    3    3  502    0  0.37823036746E+02 -0.24903341308E+01 -0.23277307589E+02  0.44677615440E+02  0.41800000000E+01 0. -1.
         -5    1    3    3    0  502 -0.59102891453E+02 -0.41537743794E+02 -0.24315277389E+03  0.25369130806E+03  0.41800000000E+01 0. -1.
        -11    1    4    4    0    0  0.21794518560E+02  0.62987186286E+02 -0.80960226069E+02  0.10486631910E+03  0.00000000000E+00 0.  1.
         11    1    4    4    0    0 -0.51466385377E+00 -0.18959108362E+02 -0.11298744240E+03  0.11456821029E+03  0.00000000000E+00 0. -1.
</event>
<event>
 8    1  0.6380238E-009  0.1678246E+03  0.7561462E-02  0.1180136E+00
         -2   -1    0    0    0  501 -0.00000000000E+00  0.00000000000E+00  0.50726344199E+02  0.50726344199E+02  0.00000000000E+00 0. -1.
          2   -1    0    0  501    0  0.00000000000E+00 -0.00000000000E+00 -0.75160862340E+03  0.75160862340E+03  0.00000000000E+00 0.  1.
         25    2    1    2    0    0 -0.14617359318E+03 -0.27880434482E+02 -0.23414187803E+03  0.30432605298E+03  0.12509152450E+03 0.  0.
         23    2    1    2    0    0  0.14617359318E+03  0.27880434482E+02 -0.46674040116E+03  0.49800891462E+03  0.89566952556E+02 0.  0.
          5    1    3    3  502    0 -0.30798230891E+02 -0.49692872368E+02 -0.14636601641E+03  0.15766545516E+03  0.41800000000E+01 0.  1.
         -5    1    3    3    0  502 -0.11537536229E+03  0.21812437886E+02 -0.87775861622E+02  0.14666059782E+03  0.41800000000E+01 0.  1.
        -11    1    4    4    0    0  0.11346365262E+03 -0.44518808068E+01 -0.40741753453E+03  0.42294546593E+03  0.00000000000E+00 0.  1.
         11    1    4    4    0    0  0.32709940557E+02  0.32332315289E+02 -0.59322866638E+02  0.75063448691E+02  0.00000000000E+00 0. -1.
</event>
<event>
 8    1  0.6380238E-009  0.1595792E+03  0.7561462E-02  0.1189173E+00
          1   -1    0    0  501    0  0.00000000000E+00  0.00000000000E+00  0.91553411584E+03  0.91553411584E+03  0.00000000000E+00 0. -1.
         -1   -1    0    0    0  501 -0.00000000000E+00 -0.00000000000E+00 -0.38530335319E+02  0.38530335319E+02  0.00000000000E+00 0.  1.
         25    2    1    2    0    0  0.10833774395E+03  0.54507092666E+02  0.70011330894E+03  0.72146930696E+03  0.12510485851E+03 0.  0.
         23    2    1    2    0    0 -0.10833774395E+03 -0.54507092666E+02  0.17689047159E+03  0.23259514420E+03  0.90012067264E+02 0.  0.
          5    1    3    3  502    0  0.80742438631E+02  0.92833738461E+02  0.56567831804E+03  0.57891871302E+03  0.41800000000E+01 0.  1.
         -5    1    3    3    0  502  0.27595305318E+02 -0.38326645795E+02  0.13443499090E+03  0.14255059394E+03  0.41800000000E+01 0.  1.
        -11    1    4    4    0    0 -0.11435520460E+03 -0.23103065000E+02  0.12019429544E+03  0.16750383007E+03  0.00000000000E+00 0.  1.
         11    1    4    4    0    0  0.60174606474E+01 -0.31404027666E+02  0.56696176141E+02  0.65091314131E+02  0.00000000000E+00 0. -1.
</event>
<event>
 8    1  0.6380238E-009  0.1077543E+03  0.7561462E-02  0.1264786E+00
         -3   -1    0    0    0  501 -0.00000000000E+00  0.00000000000E+00  0.41451599128E+02  0.41451599128E+02  0.00000000000E+00 0.  1.
          3   -1    0    0  501    0  0.00000000000E+00 -0.00000000000E+00 -0.50604187812E+03  0.50604187812E+03  0.00000000000E+00 0. -1.
         25    2    1    2    0    0  0.15222020399E+02  0.87502960276E+02 -0.18450198054E+03  0.23995229935E+03  0.12509055592E+03 0.  0.
         23    2    1    2    0    0 -0.15222020399E+02 -0.87502960276E+02 -0.28008829845E+03  0.30754117789E+03  0.90794510900E+02 0.  0.
          5    1    3    3  502    0  0.11191781681E+02  0.14882514025E+02 -0.16283049863E+03  0.16394507887E+03  0.41800000000E+01 0. -1.
         -5    1    3    3    0  502  0.40302387185E+01  0.72620446251E+02 -0.21671481912E+02  0.76007220487E+02  0.41800000000E+01 0. -1.
        -11    1    4    4    0    0 -0.50013578653E+01 -0.10402441249E+03 -0.25740840161E+03  0.27767818999E+03  0.00000000000E+00 0. -1.
         11    1    4    4    0    0 -0.10220662534E+02  0.16521452218E+02 -0.22679896840E+02  0.29862987907E+02  0.00000000000E+00 0.  1.
</event>
<event>
 8    1  0.6380238E-009  0.2277982E+03  0.7561462E-02  0.1128199E+00
         -2   -1    0    0    0  501 -0.00000000000E+00  0.00000000000E+00  0.70969281002E+02  0.70969281002E+02  0.00000000000E+00 0. -1.
          2   -1    0    0  501    0  0.00000000000E+00 -0.00000000000E+00 -0.87106789180E+03  0.87106789180E+03  0.00000000000E+00 0.  1.
         25    2    1    2    0    0  0.16923758608E+03 -0.11097673588E+03 -0.23437248131E+03  0.33396926638E+03  0.12509122450E+03 0.  0.
         23    2    1    2    0    0 -0.16923758608E+03  0.11097673588E+03 -0.56572612949E+03  0.60806790642E+03  0.93505768702E+02 0.  0.
          5    1    3    3  502    0  0.17571250489E+03 -0.66262065763E+02 -0.15949927503E+03  0.24642044734E+03  0.41800000000E+01 0.  1.
         -5    1    3    3    0  502 -0.64749188098E+01 -0.44714670112E+02 -0.74873206279E+02  0.87548819040E+02  0.41800000000E+01 0.  1.
        -11    1    4    4    0    0 -0.77941770181E+02  0.10517166857E+03 -0.35379507615E+03  0.37723594118E+03  0.00000000000E+00 0.  1.
         11    1    4    4    0    0 -0.91295815900E+02  0.58050673084E+01 -0.21193105334E+03  0.23083196525E+03  0.00000000000E+00 0. -1.
</event>
<event>
 8    1  0.6380238E-009  0.1118145E+03  0.7561462E-02  0.1257246E+00
         -3   -1    0    0    0  501 -0.00000000000E+00  0.00000000000E+00  0.11583504991E+03  0.11583504991E+03  0.00000000000E+00 0.  1.
          3   -1    0    0  501    0  0.00000000000E+00 -0.00000000000E+00 -0.20720939908E+03  0.20720939908E+03  0.00000000000E+00 0. -1.
         25    2    1    2    0    0 -0.66107054863E+02 -0.82643682062E+02 -0.82064299303E+02  0.18325295449E+03  0.12508787001E+03 0.  0.
         23    2    1    2    0    0  0.66107054863E+02  0.82643682062E+02 -0.93100498736E+01  0.13979149450E+03  0.90856282217E+02 0.  0.
          5    1    3    3  502    0 -0.58954609821E+02 -0.35922249917E+02  0.18896121363E+02  0.71697906949E+02  0.41800000000E+01 0. -1.
         -5    1    3    3    0  502 -0.71524450422E+01 -0.46721432145E+02 -0.10096042067E+03  0.11155504754E+03  0.41800000000E+01 0. -1.
        -11    1    4    4    0    0  0.44204238847E+02  0.66309046230E+02  0.35552564236E+02  0.87263332321E+02  0.00000000000E+00 0.  1.
         11    1    4    4    0    0  0.21902816016E+02  0.16334635833E+02 -0.44862614109E+02  0.52528162179E+02  0.00000000000E+00 0. -1.
</event>
<event>
 8    1  0.6380238E-009  0.9823535E+02  0.7561462E-02  0.1284051E+00
          1   -1    0    0  501    0  0.00000000000E+00  0.00000000000E+00  0.51083518440E+03  0.51083518440E+03  0.00000000000E+00 0. -1.
         -1   -1    0    0    0  501 -0.00000000000E+00 -0.00000000000E+00 -0.25870446866E+02  0.25870446866E+02  0.00000000000E+00 0.  1.
         25    2    1    2    0    0  0.24520220351E+02  0.28991363340E+02  0.29730168826E+03  0.32477133304E+03  0.12508550903E+03 0.  0.
         23    2    1    2    0    0 -0.24520220351E+02 -0.28991363340E+02  0.18766304928E+03  0.21193429823E+03  0.90867961059E+02 0.  0.
          5    1    3    3  502    0 -0.35194738027E+02  0.25138868414E+02  0.23226892702E+03  0.23629845355E+03  0.41800000000E+01 0. -1.
         -5    1    3    3    0  502  0.59714958378E+02  0.38524949262E+01  0.65032761233E+02  0.88472879488E+02  0.41800000000E+01 0. -1.
        -11    1    4    4    0    0 -0.39340453094E+02  0.18362311617E+02  0.53558235247E+02  0.68944400065E+02  0.00000000000E+00 0.  1.
         11    1    4    4    0    0  0.14820232743E+02 -0.47353674957E+02  0.13410481403E+03  0.14298989816E+03  0.00000000000E+00 0. -1.
</event>
<event>
 8    1  0.6380238E-009  0.1003056E+03  0.7561462E-02  0.1279655E+00
         -2   -1    0    0    0  501 -0.00000000000E+00  0.00000000000E+00  0.39005601733E+02  0.39005601733E+02  0.00000000000E+00 0.  1.
          2   -1    0    0  501    0  0.00000000000E+00 -0.00000000000E+00 -0.37286108595E+03  0.37286108595E+03  0.00000000000E+00 0. -1.
         25    2    1    2    0    0 -0.94061612747E+01 -0.11435667769E+02 -0.10633369120E+03  0.16481913117E+03  0.12505695401E+03 0.  0.
         23    2    1    2    0    0  0.94061612747E+01  0.11435667769E+02 -0.22752179301E+03  0.24704755651E+03  0.95116131731E+02 0.  0.
          5    1    3    3  502    0 -0.49481840380E+02 -0.32044538222E+02 -0.12163974480E+02  0.60338541849E+02  0.41800000000E+01 0.  1.
         -5    1    3    3    0  502  0.40075679106E+02  0.20608870453E+02 -0.94169716718E+02  0.10448058932E+03  0.41800000000E+01 0.  1.
        -11    1    4    4    0    0  0.52113054759E+02  0.12272477639E+02 -0.12813908019E+03  0.13887407265E+03  0.00000000000E+00 0.  1.
         11    1    4    4    0    0 -0.42706893484E+02 -0.83680987043E+00 -0.99382712826E+02  0.10817348386E+03  0.00000000000E+00 0. -1.
</event>
<event>
 8    1  0.6380238E-009  0.1049396E+03  0.7561462E-02  0.1270239E+00
          1   -1    0    0  501    0  0.00000000000E+00  0.00000000000E+00  0.58605234689E+03  0.58605234689E+03  0.00000000000E+00 0. -1.
         -1   -1    0    0    0  501 -0.00000000000E+00 -0.00000000000E+00 -0.34421983176E+02  0.34421983176E+02  0.00000000000E+00 0.  1.
         25    2    1    2    0    0  0.47818484500E+02 -0.22718129813E+02  0.13394939514E+03  0.19077093179E+03  0.12509351333E+03 0.  0.
         23    2    1    2    0    0 -0.47818484500E+02  0.22718129813E+02  0.41768096858E+03  0.42970339828E+03  0.85935429811E+02 0.  0.
          5    1    3    3  502    0  0.56229191746E+02  0.24551049782E+02  0.12826226015E+03  0.14224329801E+03  0.41800000000E+01 0.  1.
         -5    1    3    3    0  502 -0.84107072456E+01 -0.47269179595E+02  0.56871349859E+01  0.48527633780E+02  0.41800000000E+01 0.  1.
        -11    1    4    4    0    0 -0.44028230223E+02  0.53435830403E+02  0.26336162257E+03  0.27231088350E+03  0.00000000000E+00 0. -1.
         11    1    4    4    0    0 -0.37902542773E+01 -0.30717700590E+02  0.15431934600E+03  0.15739251478E+03  0.00000000000E+00 0.  1.
</event>
<event>
 8    1  0.6380238E-009  0.1019718E+03  0.7561462E-02  0.1276203E+00
         -1   -1    0    0    0  501 -0.00000000000E+00  0.00000000000E+00  0.90092236142E+02  0.90092236142E+02  0.00000000000E+00 0.  1.
          1   -1    0    0  501    0  0.00000000000E+00 -0.00000000000E+00 -0.16228221229E+03  0.16228221229E+03  0.00000000000E+00 0. -1.
         25    2    1    2    0    0  0.53882515517E+01 -0.34725688443E+02 -0.30467097496E+02  0.13345863527E+03  0.12509219242E+03 0.  0.
         23    2    1    2    0    0 -0.53882515517E+01  0.34725688443E+02 -0.41722878653E+02  0.11891581317E+03  0.10566581910E+03 0.  0.
          5    1    3    3  502    0  0.60921253058E+02  0.40152494434E+01 -0.66375421055E+01  0.61555265148E+02  0.41800000000E+01 0. -1.
         -5    1    3    3    0  502 -0.55533001506E+02 -0.38740937887E+02 -0.23829555390E+02  0.71903370120E+02  0.41800000000E+01 0. -1.
        -11    1    4    4    0    0 -0.24188910720E+02 -0.10165628337E+02  0.25058201600E+02  0.36281632664E+02  0.00000000000E+00 0.  1.
         11    1    4    4    0    0  0.18800659168E+02  0.44891316780E+02 -0.66781080254E+02  0.82634180502E+02  0.00000000000E+00 0. -1.
</event>
<event>
 8    1  0.6380238E-009  0.1130251E+03  0.7561462E-02  0.1255068E+00
          2   -1    0    0  501    0  0.00000000000E+00  0.00000000000E+00  0.98910209195E+02  0.98910209195E+02  0.00000000000E+00 0.  1.
         -2   -1    0    0    0  501 -0.00000000000E+00 -0.00000000000E+00 -0.17646752083E+03  0.17646752083E+03  0.00000000000E+00 0. -1.
         25    2    1    2    0    0  0.72100083698E+02 -0.12244443766E+02 -0.58646371396E+02  0.15632286790E+03  0.12509633759E+03 0.  0.
         23    2    1    2    0    0 -0.72100083698E+02  0.12244443766E+02 -0.18910940242E+02  0.11905486213E+03  0.92022215055E+02 0.  0.
          5    1    3    3  502    0 -0.32833975911E+02 -0.66504084407E+01 -0.34803737014E+02  0.48487837822E+02  0.41800000000E+01 0. -1.
         -5    1    3    3    0  502  0.10493405961E+03 -0.55940353258E+01 -0.23842634382E+02  0.10783503008E+03  0.41800000000E+01 0. -1.
        -11    1    4    4    0    0 -0.17601489166E+02  0.25548250458E+02  0.31079404384E+02  0.43914176517E+02  0.00000000000E+00 0.  1.
         11    1    4    4    0    0 -0.54498594532E+02 -0.13303806691E+02 -0.49990344627E+02  0.75140685613E+02  0.00000000000E+00 0. -1.
</event>
<event>
 8    1  0.6380238E-009  0.1718436E+03  0.7561462E-02  0.1175939E+00
          1   -1    0    0  501    0  0.00000000000E+00  0.00000000000E+00  0.16896949605E+03  0.16896949605E+03  0.00000000000E+00 0. -1.
         -1   -1    0    0    0  501 -0.00000000000E+00 -0.00000000000E+00 -0.20354129953E+03  0.20354129953E+03  0.00000000000E+00 0.  1.
         25    2    1    2    0    0 -0.12810877982E+03 -0.57654834298E+02  0.33686087143E+02  0.19109546064E+03  0.12508710256E+03 0.  0.
         23    2    1    2    0    0  0.12810877982E+03  0.57654834298E+02 -0.68257890626E+02  0.18141533494E+03  0.92284585564E+02 0.  0.
          5    1    3    3  502    0 -0.17199994763E+02  0.29814985509E+02  0.35702566255E+02  0.49768652965E+02  0.41800000000E+01 0.  1.
         -5    1    3    3    0  502 -0.11090878506E+03 -0.87469819807E+02 -0.20164791121E+01  0.14132680768E+03  0.41800000000E+01 0.  1.
        -11    1    4    4    0    0  0.99298664746E+02 -0.42829022679E+01 -0.34410147234E+02  0.10517902027E+03  0.00000000000E+00 0. -1.
         11    1    4    4    0    0  0.28810115076E+02  0.61937736566E+02 -0.33847743392E+02  0.76236314669E+02  0.00000000000E+00 0.  1.
</event>
<event>
 8    1  0.6380238E-009  0.1351150E+03  0.7561462E-02  0.1220057E+00
         -2   -1    0    0    0  501 -0.00000000000E+00  0.00000000000E+00  0.61314577702E+02  0.61314577702E+02  0.00000000000E+00 0.  1.
          2   -1    0    0  501    0  0.00000000000E+00 -0.00000000000E+00 -0.42030349810E+03  0.42030349810E+03  0.00000000000E+00 0. -1.
         25    2    1    2    0    0 -0.15595820348E+02  0.10848302173E+03 -0.20686652017E+03  0.26543206982E+03  0.12509448790E+03 0.  0.
         23    2    1    2    0    0  0.15595820348E+02 -0.10848302173E+03 -0.15212240023E+03  0.21618600599E+03  0.10762606059E+03 0.  0.
          5    1    3    3  502    0 -0.61103259174E+02  0.91345475639E+02 -0.17646816354E+03  0.20793289626E+03  0.41800000000E+01 0.  1.
         -5    1    3    3    0  502  0.45507438827E+02  0.17137546090E+02 -0.30398356630E+02  0.57499173562E+02  0.41800000000E+01 0.  1.
        -11    1    4    4    0    0  0.18538850714E+00 -0.69881073991E+02 -0.15934860923E+03  0.17399821302E+03  0.00000000000E+00 0. -1.
         11    1    4    4    0    0  0.15410431840E+02 -0.38601947738E+02  0.72262090019E+01  0.42187792965E+02  0.00000000000E+00 0.  1.
</event>
<event>
 8    1  0.6380238E-009  0.9794737E+02  0.7561462E-02  0.1284673E+00
          1   -1    0    0  501    0  0.00000000000E+00  0.00000000000E+00  0.39819724266E+02  0.39819724266E+02  0.00000000000E+00 0. -1.
         -1   -1    0    0    0  501 -0.00000000000E+00 -0.00000000000E+00 -0.43249994662E+03  0.43249994662E+03  0.00000000000E+00 0.  1.
         25    2    1    2    0    0 -0.58122814035E+02  0.37348404491E+02 -0.17950045673E+03  0.22943621358E+03  0.12508955715E+03 0.  0.
         23    2    1    2    0    0  0.58122814035E+02 -0.37348404491E+02 -0.21317976563E+03  0.24288345731E+03  0.93667478503E+02 0.  0.
          5    1    3    3  502    0  0.99880287073E+01  0.17771746596E+02 -0.15181904493E+03  0.15323867168E+03  0.41800000000E+01 0.  1.
         -5    1    3    3    0  502 -0.68110842743E+02  0.19576657894E+02 -0.27681411800E+02  0.76197541907E+02  0.41800000000E+01 0.  1.
        -11    1    4    4    0    0  0.46718921455E+02  0.16120068288E+02 -0.15656653159E+03  0.16418158557E+03  0.00000000000E+00 0. -1.
         11    1    4    4    0    0  0.11403892580E+02 -0.53468472779E+02 -0.56613234038E+02  0.78701871741E+02  0.00000000000E+00 0.  1.
</event>
<event>
 8    1  0.6380238E-009  0.9437430E+02  0.7561462E-02  0.1292592E+00
         -1   -1    0    0    0  501 -0.00000000000E+00  0.00000000000E+00  0.18219831601E+03  0.18219831601E+03  0.00000000000E+00 0.  1.
          1   -1    0    0  501    0  0.00000000000E+00 -0.00000000000E+00 -0.77615669595E+02  0.77615669595E+02  0.00000000000E+00 0. -1.
         25    2    1    2    0    0 -0.16777114963E+02 -0.45699263388E+02  0.59423667951E+02  0.14679359255E+03  0.12508913718E+03 0.  0.
         23    2    1    2    0    0  0.16777114963E+02  0.45699263388E+02  0.45158978468E+02  0.11302039305E+03  0.91456993441E+02 0.  0.
          5    1    3    3  502    0  0.20304625725E+02 -0.43058320433E+02  0.87716411245E+02  0.99889629021E+02  0.41800000000E+01 0.  1.
         -5    1    3    3    0  502 -0.37081740687E+02 -0.26409429548E+01 -0.28292743293E+02  0.46903963533E+02  0.41800000000E+01 0.  1.
        -11    1    4    4    0    0  0.54773502897E+02  0.29863487183E+02  0.25375931166E+02  0.67349108152E+02  0.00000000000E+00 0.  1.
         11    1    4    4    0    0 -0.37996387935E+02  0.15835776205E+02  0.19783047301E+02  0.45671284902E+02  0.00000000000E+00 0. -1.
</event>
<event>
 8    1  0.6380238E-009  0.1390672E+03  0.7561462E-02  0.1214590E+00
         -1   -1    0    0    0  501 -0.00000000000E+00  0.00000000000E+00  0.10122492025E+03  0.10122492025E+03  0.00000000000E+00 0.  1.
          1   -1    0    0  501    0  0.00000000000E+00 -0.00000000000E+00 -0.28662073200E+03  0.28662073200E+03  0.00000000000E+00 0. -1.
         25    2    1    2    0    0  0.12368715589E+03 -0.10986738877E+02 -0.47298866865E+02  0.18249286859E+03  0.12508894162E+03 0.  0.
         23    2    1    2    0    0 -0.12368715589E+03  0.10986738877E+02 -0.13809694489E+03  0.20535278366E+03  0.87634346050E+02 0.  0.
          5    1    3    3  502    0  0.20315016712E+02 -0.33442814183E+02 -0.64185735613E+02  0.75288795850E+02  0.41800000000E+01 0.  1.
         -5    1    3    3    0  502  0.10337213917E+03  0.22456075305E+02  0.16886868748E+02  0.10720407274E+03  0.41800000000E+01 0.  1.
        -11    1    4    4    0    0 -0.10511852681E+03  0.26851113923E+02 -0.60970722063E+02  0.12445206284E+03  0.00000000000E+00 0.  1.
         11    1    4    4    0    0 -0.18568629078E+02 -0.15864375046E+02 -0.77126222826E+02  0.80900720818E+02  0.00000000000E+00 0. -1.
</event>
<event>
 8    1  0.6380238E-009  0.2511734E+03  0.7561462E-02  0.1112566E+00
         -2   -1    0    0    0  501 -0.00000000000E+00  0.00000000000E+00  0.84140711506E+02  0.84140711506E+02  0.00000000000E+00 0.  1.
          2   -1    0    0  501    0  0.00000000000E+00 -0.00000000000E+00 -0.10614107606E+04  0.10614107606E+04  0.00000000000E+00 0. -1.
         25    2    1    2    0    0  0.56480364560E+02 -0.23830619194E+03 -0.74985420467E+03  0.79869116396E+03  0.12508546847E+03 0.  0.
         23    2    1    2    0    0 -0.56480364560E+02  0.23830619194E+03 -0.22741584443E+03  0.34686030815E+03  0.92812899862E+02 0.  0.
          5    1    3    3  502    0  0.24730325128E+02 -0.64753605189E+02 -0.79791604115E+02  0.10577708094E+03  0.41800000000E+01 0.  1.
         -5    1    3    3    0  502  0.31750039432E+02 -0.17355258675E+03 -0.67006260056E+03  0.69291408301E+03  0.41800000000E+01 0.  1.
        -11    1    4    4    0    0 -0.44969123472E+02  0.48018623385E+02 -0.91667649491E+02  0.11283159230E+03  0.00000000000E+00 0. -1.
         11    1    4    4    0    0 -0.11511241088E+02  0.19028756855E+03 -0.13574819494E+03  0.23402871586E+03  0.00000000000E+00 0.  1.
</event>
<event>
 8    1  0.6380238E-009  0.3116918E+03  0.7561462E-02  0.1079538E+00
          1   -1    0    0  501    0  0.00000000000E+00  0.00000000000E+00  0.79238407792E+03  0.79238407792E+03  0.00000000000E+00 0. -1.
         -1   -1    0    0    0  501 -0.00000000000E+00 -0.00000000000E+00 -0.14266297697E+03  0.14266297697E+03  0.00000000000E+00 0.  1.
         25    2    1    2    0    0  0.33580304848E+02  0.30940063222E+03  0.23810490879E+03  0.41133732321E+03  0.12509219715E+03 0.  0.
         23    2    1    2    0    0 -0.33580304848E+02 -0.30940063222E+03  0.41161619216E+03  0.52370973168E+03  0.89373403837E+02 0.  0.
          5    1    3    3  502    0  0.12640875001E+02  0.18720347838E+03  0.65495250870E+02  0.19877634247E+03  0.41800000000E+01 0. -1.
         -5    1    3    3    0  502  0.20939429847E+02  0.12219715383E+03  0.17260965791E+03  0.21256098074E+03  0.41800000000E+01 0. -1.
        -11    1    4    4    0    0  0.19299111538E+01 -0.17349665548E+02 -0.37097466476E+00  0.17460614935E+02  0.00000000000E+00 0.  1.
         11    1    4    4    0    0 -0.35510216002E+02 -0.29205096667E+03  0.41198716683E+03  0.50624911674E+03  0.00000000000E+00 0. -1.
</event>
<event>
 8    1  0.6380238E-009  0.5646549E+02  0.7561462E-02  0.1413293E+00
         -2   -1    0    0    0  501 -0.00000000000E+00  0.00000000000E+00  0.26651689936E+02  0.26651689936E+02  0.00000000000E+00 0.  1.
          2   -1    0    0  501    0  0.00000000000E+00 -0.00000000000E+00 -0.56554155375E+03  0.56554155375E+03  0.00000000000E+00 0. -1.
         25    2    1    2    0    0 -0.63469018174E+01  0.24542113954E+02 -0.42790699117E+03  0.44653596092E+03  0.12508945911E+03 0.  0.
         23    2    1    2    0    0  0.63469018174E+01 -0.24542113954E+02 -0.11098287264E+03  0.14565728277E+03  0.90863895377E+02 0.  0.
          5    1    3    3  502    0 -0.31638193538E+02  0.12101361591E+02 -0.41294451381E+03  0.41435258190E+03  0.41800000000E+01 0. -1.
         -5    1    3    3    0  502  0.25291291721E+02  0.12440752363E+02 -0.14962477364E+02  0.32183379020E+02  0.41800000000E+01 0. -1.
        -11    1    4    4    0    0 -0.13586087959E+02  0.51626209132E+01  0.11197818658E+02  0.18347359031E+02  0.00000000000E+00 0.  1.
         11    1    4    4    0    0  0.19932989776E+02 -0.29704734868E+02 -0.12218069130E+03  0.12730992374E+03  0.00000000000E+00 0. -1.
</event>
<event>
 8    1  0.6380238E-009  0.9932006E+02  0.7561462E-02  0.1281732E+00
         -1   -1    0    0    0  501 -0.00000000000E+00  0.00000000000E+00  0.40748936531E+02  0.40748936531E+02  0.00000000000E+00 0.  1.
          1   -1    0    0  501    0  0.00000000000E+00 -0.00000000000E+00 -0.34260152680E+03  0.34260152680E+03  0.00000000000E+00 0. -1.
         25    2    1    2    0    0  0.43911028963E+02 -0.16473000584E+02 -0.17820266709E+03  0.22272091425E+03  0.12509547104E+03 0.  0.
         23    2    1    2    0    0 -0.43911028963E+02  0.16473000584E+02 -0.12364992318E+03  0.16062954908E+03  0.91175711256E+02 0.  0.
          5    1    3    3  502    0  0.74025989989E+02  0.26325159185E+02 -0.12694069208E+03  0.14934615129E+03  0.41800000000E+01 0. -1.
         -5    1    3    3    0  502 -0.30114961026E+02 -0.42798159770E+02 -0.51261975010E+02  0.73374762958E+02  0.41800000000E+01 0. -1.
        -11    1    4    4    0    0 -0.36874064462E+02 -0.11494430436E+02 -0.55033909529E+01  0.39014175282E+02  0.00000000000E+00 0.  1.
         11    1    4    4    0    0 -0.70369645015E+01  0.27967431021E+02 -0.11814653223E+03  0.12161537380E+03  0.00000000000E+00 0. -1.
</event>
<event>
 8    1  0.6380238E-009  0.1335292E+03  0.7561462E-02  0.1222311E+00
          2   -1    0    0  501    0  0.00000000000E+00  0.00000000000E+00  0.19737479998E+04  0.19737479998E+04  0.00000000000E+00 0. -1.
         -2   -1    0    0    0  501 -0.00000000000E+00 -0.00000000000E+00 -0.22304245140E+02  0.22304245140E+02  0.00000000000E+00 0.  1.
         25    2    1    2    0    0  0.69596589457E+02  0.10486883536E+03  0.16188616760E+04  0.16285582393E+04  0.12509058620E+03 0.  0.
         23    2    1    2    0    0 -0.69596589457E+02 -0.10486883536E+03  0.33258207866E+03  0.36749400568E+03  0.92735361476E+02 0.  0.
          5    1    3    3  502    0  0.66735229800E+02  0.10476235111E+03  0.16187256541E+04  0.16234897464E+04  0.41800000000E+01 0. -1.
         -5    1    3    3    0  502  0.28613596569E+01  0.10648424843E+00  0.13602192970E+00  0.50684928674E+01  0.41800000000E+01 0. -1.
        -11    1    4    4    0    0 -0.77860417554E+02 -0.80571529318E+02  0.31972549330E+03  0.33878962059E+03  0.00000000000E+00 0. -1.
         11    1    4    4    0    0  0.82638280966E+01 -0.24297306042E+02  0.12856585363E+02  0.28704385081E+02  0.00000000000E+00 0.  1.
</event>
<event>
 8    1  0.6380238E-009  0.1164063E+03  0.7561462E-02  0.1249146E+00
         -1   -1    0    0    0  501 -0.00000000000E+00  0.00000000000E+00  0.24522579341E+02  0.24522579341E+02  0.00000000000E+00 0.  1.
          1   -1    0    0  501    0  0.00000000000E+00 -0.00000000000E+00 -0.60970126632E+03  0.60970126632E+03  0.00000000000E+00 0. -1.
         25    2    1    2    0    0  0.44351471271E+02 -0.31972922298E+02 -0.29473710125E+03  0.32481796004E+03  0.12508967802E+03 0.  0.
         23    2    1    2    0    0 -0.44351471271E+02  0.31972922298E+02 -0.29044158573E+03  0.30940588562E+03  0.91577107252E+02 0.  0.
          5    1    3    3  502    0  0.88213717956E+02 -0.17630815261E+02 -0.18794714907E+03  0.20840851452E+03  0.41800000000E+01 0.  1.
         -5    1    3    3    0  502 -0.43862246684E+02 -0.14342107038E+02 -0.10678995218E+03  0.11640944551E+03  0.41800000000E+01 0.  1.
        -11    1    4    4    0    0 -0.61870209749E+02  0.22403325627E+01 -0.24286055143E+03  0.25062759103E+03  0.00000000000E+00 0. -1.
         11    1    4    4    0    0  0.17518738478E+02  0.29732589735E+02 -0.47581034297E+02  0.58778294591E+02  0.00000000000E+00 0.  1.
</event>
<event>
 8    1  0.6380238E-009  0.1139791E+03  0.7561462E-02  0.1253374E+00
          2   -1    0    0  501    0  0.00000000000E+00  0.00000000000E+00  0.41572201137E+03  0.41572201137E+03  0.00000000000E+00 0. -1.
         -2   -1    0    0    0  501 -0.00000000000E+00 -0.00000000000E+00 -0.33941364324E+02  0.33941364324E+02  0.00000000000E+00 0.  1.
         25    2    1    2    0    0  0.35978400882E+02 -0.15573431488E+02  0.16251004176E+03  0.20879145216E+03  0.12508948687E+03 0.  0.
         23    2    1    2    0    0 -0.35978400882E+02  0.15573431488E+02  0.21927060528E+03  0.24087192353E+03  0.91666286634E+02 0.  0.
          5    1    3    3  502    0  0.69375593419E+02  0.28514136475E+02  0.84394025414E+02  0.11298607377E+03  0.41800000000E+01 0. -1.
         -5    1    3    3    0  502 -0.33397192537E+02 -0.44087567964E+02  0.78116016349E+02  0.95805378390E+02  0.41800000000E+01 0. -1.
        -11    1    4    4    0    0  0.16837335723E+02 -0.25433793694E+02  0.94681433499E+02  0.99473351132E+02  0.00000000000E+00 0.  1.
         11    1    4    4    0    0 -0.52815736606E+02  0.41007225182E+02  0.12458917178E+03  0.14139857240E+03  0.00000000000E+00 0. -1.
</event>
<event>
 8    1  0.6380238E-009  0.1137450E+03  0.7561462E-02  0.1253788E+00
          2   -1    0    0  501    0  0.00000000000E+00  0.00000000000E+00  0.85176866185E+03  0.85176866185E+03  0.00000000000E+00 0. -1.
         -2   -1    0    0    0  501 -0.00000000000E+00 -0.00000000000E+00 -0.18553080614E+02  0.18553080614E+02  0.00000000000E+00 0.  1.
         25    2    1    2    0    0  0.47058235853E+02  0.10550373034E+02  0.60559845379E+03  0.62026027171E+03  0.12509008553E+03 0.  0.
         23    2    1    2    0    0 -0.47058235853E+02 -0.10550373034E+02  0.22761712745E+03  0.25006147075E+03  0.91626385473E+02 0.  0.
          5    1    3    3  502    0  0.89491768130E+02  0.16165032489E+02  0.41645624237E+03  0.42629022866E+03  0.41800000000E+01 0. -1.
         -5    1    3    3    0  502 -0.42433532278E+02 -0.56146594553E+01  0.18914221142E+03  0.19397004306E+03  0.41800000000E+01 0. -1.
        -11    1    4    4    0    0 -0.50342608735E+02 -0.39699971252E+02  0.97585418476E+02  0.11676206520E+03  0.00000000000E+00 0.  1.
         11    1    4    4    0    0  0.32843728821E+01  0.29149598218E+02  0.13003170897E+03  0.13329940555E+03  0.00000000000E+00 0. -1.
</event>
<event>
 8    1  0.6380238E-009  0.1193025E+03  0.7561462E-02  0.1244252E+00
         -1   -1    0    0    0  501 -0.00000000000E+00  0.00000000000E+00  0.22222299086E+02  0.22222299086E+02  0.00000000000E+00 0.  1.
          1   -1    0    0  501    0  0.00000000000E+00 -0.00000000000E+00 -0.92251707575E+03  0.92251707575E+03  0.00000000000E+00 0. -1.
         25    2    1    2    0    0 -0.51845717101E+02  0.58388219236E+02 -0.66822504306E+03  0.68430228456E+03  0.12509095072E+03 0.  0.
         23    2    1    2    0    0  0.51845717101E+02 -0.58388219236E+02 -0.23206973361E+03  0.26043709028E+03  0.88735304197E+02 0.  0.
          5    1    3    3  502    0 -0.39653591230E+02  0.83683397109E+02 -0.62948457732E+03  0.63627323041E+03  0.41800000000E+01 0.  1.
         -5    1    3    3    0  502 -0.12192125871E+02 -0.25295177873E+02 -0.38740465742E+02  0.48029054153E+02  0.41800000000E+01 0.  1.
        -11    1    4    4    0    0 -0.23784487025E+02 -0.26019752255E+02 -0.82958948215E+02  0.90138318264E+02  0.00000000000E+00 0. -1.
         11    1    4    4    0    0  0.75630204126E+02 -0.32368466981E+02 -0.14911078539E+03  0.17029877202E+03  0.00000000000E+00 0.  1.
</event>
<event>
 8    1  0.6380238E-009  0.1042086E+03  0.7561462E-02  0.1271687E+00
         -2   -1    0    0    0  501 -0.00000000000E+00  0.00000000000E+00  0.23643564185E+02  0.23643564185E+02  0.00000000000E+00 0.  1.
          2   -1    0    0  501    0  0.00000000000E+00 -0.00000000000E+00 -0.59494257598E+03  0.59494257598E+03  0.00000000000E+00 0. -1.
         25    2    1    2    0    0  0.36284551081E+02 -0.30116977970E+02 -0.36220163439E+03  0.38608218880E+03  0.12508329840E+03 0.  0.
         23    2    1    2    0    0 -0.36284551081E+02  0.30116977970E+02 -0.20909737740E+03  0.23250395137E+03  0.90070934035E+02 0.  0.
          5    1    3    3  502    0 -0.27996188873E+01  0.38441455962E+02 -0.22006009702E+03  0.22344910405E+03  0.41800000000E+01 0.  1.
         -5    1    3    3    0  502  0.39084169969E+02 -0.68558433931E+02 -0.14214153738E+03  0.16263308474E+03  0.41800000000E+01 0.  1.
        -11    1    4    4    0    0 -0.60121106813E+02  0.13655213034E+02 -0.18441009651E+03  0.19444304056E+03  0.00000000000E+00 0.  1.
         11    1    4    4    0    0  0.23836555731E+02  0.16461764936E+02 -0.24687280890E+02  0.38060910810E+02  0.00000000000E+00 0. -1.
</event>
<event>
 8    1  0.6380238E-009  0.2935276E+03  0.7561462E-02  0.1088522E+00
         -2   -1    0    0    0  501 -0.00000000000E+00  0.00000000000E+00  0.12300473268E+03  0.12300473268E+03  0.00000000000E+00 0. -1.
          2   -1    0    0  501    0  0.00000000000E+00 -0.00000000000E+00 -0.73470862238E+03  0.73470862238E+03  0.00000000000E+00 0.  1.
         25    2    1    2    0    0 -0.26633318046E+03 -0.84432924917E+02 -0.33728484225E+03  0.45549022957E+03  0.12509197657E+03 0.  0.
         23    2    1    2    0    0  0.26633318046E+03  0.84432924917E+02 -0.27441904746E+03  0.40222312549E+03  0.91735201781E+02 0.  0.
          5    1    3    3  502    0 -0.26813685747E+03 -0.53058333608E+02 -0.31288898088E+03  0.41548712116E+03  0.41800000000E+01 0.  1.
         -5    1    3    3    0  502  0.18036770058E+01 -0.31374591309E+02 -0.24395861369E+02  0.40003108411E+02  0.41800000000E+01 0.  1.
        -11    1    4    4    0    0  0.11725844127E+03  0.57108331935E+02 -0.18467219377E+03  0.22608565363E+03  0.00000000000E+00 0.  1.
         11    1    4    4    0    0  0.14907473919E+03  0.27324592982E+02 -0.89746853688E+02  0.17613747186E+03  0.00000000000E+00 0. -1.
</event>
<event>
 8    1  0.6380238E-009  0.1063827E+03  0.7561462E-02  0.1267419E+00
         -1   -1    0    0    0  501 -0.00000000000E+00  0.00000000000E+00  0.19397703444E+02  0.19397703444E+02  0.00000000000E+00 0.  1.
          1   -1    0    0  501    0  0.00000000000E+00 -0.00000000000E+00 -0.65260742128E+03  0.65260742128E+03  0.00000000000E+00 0. -1.
         25    2    1    2    0    0 -0.23609100477E+02  0.13919133155E+02 -0.40324161704E+03  0.42307910429E+03  0.12506396316E+03 0.  0.
         23    2    1    2    0    0  0.23609100477E+02 -0.13919133155E+02 -0.22996810079E+03  0.24892602043E+03  0.91256256614E+02 0.  0.
          5    1    3    3  502    0 -0.12945556861E+01 -0.50764689306E+02 -0.25093799407E+03  0.25605874096E+03  0.41800000000E+01 0.  1.
         -5    1    3    3    0  502 -0.22314544791E+02  0.64683822461E+02 -0.15230362297E+03  0.16702036333E+03  0.41800000000E+01 0.  1.
        -11    1    4    4    0    0 -0.30091360619E+02 -0.24162376025E+02 -0.70851388270E+02  0.80679796844E+02  0.00000000000E+00 0.  1.
         11    1    4    4    0    0  0.53700461096E+02  0.10243242870E+02 -0.15911671252E+03  0.16824622358E+03  0.00000000000E+00 0. -1.
</event>
<event>
 8    1  0.6380238E-009  0.6750812E+02  0.7561462E-02  0.1368778E+00
          2   -1    0    0  501    0  0.00000000000E+00  0.00000000000E+00  0.14692428449E+03  0.14692428449E+03  0.00000000000E+00 0. -1.
         -2   -1    0    0    0  501 -0.00000000000E+00 -0.00000000000E+00 -0.11738165117E+03  0.11738165117E+03  0.00000000000E+00 0.  1.
         25    2    1    2    0    0  0.47051236669E+02  0.23827843122E+02 -0.35746974450E+02  0.14037864062E+03  0.12508689612E+03 0.  0.
         23    2    1    2    0    0 -0.47051236669E+02 -0.23827843122E+02  0.65289607774E+02  0.12392729503E+03  0.91179255269E+02 0.  0.
          5    1    3    3  502    0 -0.89353787608E+01 -0.11389510768E+02  0.38208878017E+02  0.41072529852E+02  0.41800000000E+01 0.  1.
         -5    1    3    3    0  502  0.55986615429E+02  0.35217353891E+02 -0.73955852467E+02  0.99306110771E+02  0.41800000000E+01 0.  1.
        -11    1    4    4    0    0 -0.24315199760E+02 -0.17856328923E+02 -0.19512149467E+02  0.35927724654E+02  0.00000000000E+00 0.  1.
         11    1    4    4    0    0 -0.22736036908E+02 -0.59715141995E+01  0.84801757241E+02  0.87999570381E+02  0.00000000000E+00 0. -1.
</event>
<event>
 8    1  0.6380238E-009  0.2718644E+03  0.7561462E-02  0.1100217E+00
         -2   -1    0    0    0  501 -0.00000000000E+00  0.00000000000E+00  0.24827791096E+03  0.24827791096E+03  0.00000000000E+00 0.  1.
          2   -1    0    0  501    0  0.00000000000E+00 -0.00000000000E+00 -0.30791082050E+03  0.30791082050E+03  0.00000000000E+00 0. -1.
         25    2    1    2    0    0 -0.24686301627E+03  0.62359719560E+02 -0.42106454947E+02  0.28679310001E+03  0.12508894931E+03 0.  0.
         23    2    1    2    0    0  0.24686301627E+03 -0.62359719560E+02 -0.17526454587E+02  0.26939563145E+03  0.86236571191E+02 0.  0.
          5    1    3    3  502    0 -0.69962140521E+02  0.77036514455E+02 -0.31977337362E+02  0.10894653813E+03  0.41800000000E+01 0. -1.
         -5    1    3    3    0  502 -0.17690087575E+03 -0.14676794895E+02 -0.10129117585E+02  0.17784656188E+03  0.41800000000E+01 0. -1.
        -11    1    4    4    0    0  0.23976883376E+03 -0.71731582203E+02 -0.30230485365E+02  0.25208807146E+03  0.00000000000E+00 0. -1.
         11    1    4    4    0    0  0.70941825099E+01  0.93718626433E+01  0.12704030778E+02  0.17307559992E+02  0.00000000000E+00 0.  1.
</event>
<event>
 8    1  0.6380238E-009  0.1067303E+03  0.7561462E-02  0.1266748E+00
         -3   -1    0    0    0  501 -0.00000000000E+00  0.00000000000E+00  0.18135583053E+03  0.18135583053E+03  0.00000000000E+00 0.  1.
          3   -1    0    0  501    0  0.00000000000E+00 -0.00000000000E+00 -0.12060903106E+03  0.12060903106E+03  0.00000000000E+00 0. -1.
         25    2    1    2    0    0 -0.70333919998E+02  0.49672451231E+02  0.84285833182E+02  0.17368735573E+03  0.12509589582E+03 0.  0.
         23    2    1    2    0    0  0.70333919998E+02 -0.49672451231E+02 -0.23539033710E+02  0.12827750587E+03  0.92123936574E+02 0.  0.
          5    1    3    3  502    0 -0.91001447517E+02  0.46880138298E+02  0.10305784370E+03  0.14531827953E+03  0.41800000000E+01 0. -1.
         -5    1    3    3    0  502  0.20667527519E+02  0.27923129325E+01 -0.18772010522E+02  0.28369076198E+02  0.41800000000E+01 0. -1.
        -11    1    4    4    0    0  0.35585682016E+02 -0.99261455365E+01 -0.55419249059E+02  0.66604521588E+02  0.00000000000E+00 0. -1.
         11    1    4    4    0    0  0.34748237982E+02 -0.39746305694E+02  0.31880215349E+02  0.61672984279E+02  0.00000000000E+00 0.  1.
</event>
<event>
 8    1  0.6380238E-009  0.1030470E+03  0.7561462E-02  0.1274016E+00
         -1   -1    0    0    0  501 -0.00000000000E+00  0.00000000000E+00  0.84752694831E+02  0.84752694831E+02  0.00000000000E+00 0.  1.
          1   -1    0    0  501    0  0.00000000000E+00 -0.00000000000E+00 -0.24327685682E+03  0.24327685682E+03  0.00000000000E+00 0. -1.
         25    2    1    2    0    0  0.48266894973E+02 -0.60344294133E+02 -0.75403589446E+02  0.16524060655E+03  0.12509048631E+03 0.  0.
         23    2    1    2    0    0 -0.48266894973E+02  0.60344294133E+02 -0.83120572543E+02  0.16278894510E+03  0.11670511592E+03 0.  0.
          5    1    3    3  502    0 -0.61512889400E+01 -0.34298291770E+02  0.28372409897E+02  0.45129560349E+02  0.41800000000E+01 0.  1.
         -5    1    3    3    0  502  0.54418183913E+02 -0.26046002363E+02 -0.10377599934E+03  0.12011104620E+03  0.41800000000E+01 0.  1.
        -11    1    4    4    0    0 -0.94445179854E+01 -0.19541541884E+02 -0.69650356895E+02  0.72953704462E+02  0.00000000000E+00 0. -1.
         11    1    4    4    0    0 -0.38822376988E+02  0.79885836017E+02 -0.13470215648E+02  0.89835240640E+02  0.00000000000E+00 0.  1.
</event>
<event>
 8    1  0.6380238E-009  0.7595339E+02  0.7561462E-02  0.1340944E+00
          2   -1    0    0  501    0  0.00000000000E+00  0.00000000000E+00  0.49429576267E+03  0.49429576267E+03  0.00000000000E+00 0.  1.
         -2   -1    0    0    0  501 -0.00000000000E+00 -0.00000000000E+00 -0.32843112099E+02  0.32843112099E+02  0.00000000000E+00 0. -1.
         25    2    1    2    0    0  0.25574652534E+02 -0.61386885360E+02  0.24674022808E+03  0.28452081825E+03  0.12509573660E+03 0.  0.
         23    2    1    2    0    0 -0.25574652534E+02  0.61386885360E+02  0.21471242249E+03  0.24261805652E+03  0.91321872696E+02 0.  0.
          5    1    3    3  502    0  0.17500149914E+02 -0.52343851055E+02  0.26014609627E+03  0.26596916700E+03  0.41800000000E+01 0. -1.
         -5    1    3    3    0  502  0.80745026195E+01 -0.90430343049E+01 -0.13405868190E+02  0.18551651245E+02  0.41800000000E+01 0. -1.
        -11    1    4    4    0    0 -0.39514242037E+02  0.30733528121E+02  0.19946890453E+03  0.20565448925E+03  0.00000000000E+00 0.  1.
         11    1    4    4    0    0  0.13939589503E+02  0.30653357239E+02  0.15243517956E+02  0.36963567269E+02  0.00000000000E+00 0. -1.
</event>
<event>
 8    1  0.6380238E-009  0.1311894E+03  0.7561462E-02  0.1225701E+00
         -1   -1    0    0    0  501 -0.00000000000E+00  0.00000000000E+00  0.12970982194E+04  0.12970982194E+04  0.00000000000E+00 0.  1.
          1   -1    0    0  501    0  0.00000000000E+00 -0.00000000000E+00 -0.21166284655E+02  0.21166284655E+02  0.00000000000E+00 0. -1.
         25    2    1    2    0    0 -0.10429545103E+02  0.89270509149E+02  0.10487587074E+04  0.10600104598E+04  0.12509735875E+03 0.  0.
         23    2    1    2    0    0  0.10429545103E+02 -0.89270509149E+02  0.22717322730E+03  0.25825404428E+03  0.83722619244E+02 0.  0.
          5    1    3    3  502    0 -0.29379684138E+02  0.11668813167E+03  0.80935078100E+03  0.81825756643E+03  0.41800000000E+01 0.  1.
         -5    1    3    3    0  502  0.18950139035E+02 -0.27417622521E+02  0.23940792644E+03  0.24175289334E+03  0.41800000000E+01 0.  1.
        -11    1    4    4    0    0  0.35727827355E+02 -0.45760828200E+02  0.18052524887E+03  0.18963094823E+03  0.00000000000E+00 0.  1.
         11    1    4    4    0    0 -0.25298282252E+02 -0.43509680949E+02  0.46647978426E+02  0.68623096056E+02  0.00000000000E+00 0. -1.
</event>
<event>
 8    1  0.6380238E-009  0.1035546E+03  0.7561462E-02  0.1272994E+00
          4   -1    0    0  501    0  0.00000000000E+00  0.00000000000E+00  0.10884557394E+03  0.10884557394E+03  0.00000000000E+00 0.  1.
         -4   -1    0    0    0  501 -0.00000000000E+00 -0.00000000000E+00 -0.13041332375E+03  0.13041332375E+03  0.00000000000E+00 0. -1.
         25    2    1    2    0    0 -0.21055245125E+02  0.81364855431E+01 -0.56617403508E+02  0.13914000088E+03  0.12507950960E+03 0.  0.
         23    2    1    2    0    0  0.21055245125E+02 -0.81364855431E+01  0.35049653694E+02  0.10011889681E+03  0.91026312293E+02 0.  0.
          5    1    3    3  502    0  0.39984651898E+02 -0.27707051656E+02 -0.46658917901E+02  0.67535028827E+02  0.41800000000E+01 0. -1.
         -5    1    3    3    0  502 -0.61039897023E+02  0.35843537199E+02 -0.99584856071E+01  0.71604972056E+02  0.41800000000E+01 0. -1.
        -11    1    4    4    0    0  0.35873340876E+02  0.29806711002E+02  0.36704685475E+02  0.59351247183E+02  0.00000000000E+00 0.  1.
         11    1    4    4    0    0 -0.14818095751E+02 -0.37943196545E+02 -0.16550317813E+01  0.40767649625E+02  0.00000000000E+00 0. -1.
</event>
<event>
 8    1  0.6380238E-009  0.1319584E+03  0.7561462E-02  0.1224578E+00
         -2   -1    0    0    0  501 -0.00000000000E+00  0.00000000000E+00  0.10772179247E+02  0.10772179247E+02  0.00000000000E+00 0. -1.
          2   -1    0    0  501    0  0.00000000000E+00 -0.00000000000E+00 -0.20411801493E+04  0.20411801493E+04  0.00000000000E+00 0.  1.
         25    2    1    2    0    0  0.14631698030E+02  0.92738187806E+02 -0.13395461987E+04  0.13486457302E+04  0.12508728571E+03 0.  0.
         23    2    1    2    0    0 -0.14631698030E+02 -0.92738187806E+02 -0.69086177141E+03  0.70330659841E+03  0.92388993443E+02 0.  0.
          5    1    3    3  502    0  0.17708883373E+02  0.11163023908E+03 -0.12956307998E+04  0.13005581712E+04  0.41800000000E+01 0.  1.
         -5    1    3    3    0  502 -0.30771853428E+01 -0.18892051278E+02 -0.43915398875E+02  0.48087558988E+02  0.41800000000E+01 0.  1.
        -11    1    4    4    0    0  0.35759618816E+01  0.18327478431E+02 -0.78731932828E+02  0.80916013346E+02  0.00000000000E+00 0.  1.
         11    1    4    4    0    0 -0.18207659911E+02 -0.11106566624E+03 -0.61212983858E+03  0.62239058506E+03  0.00000000000E+00 0. -1.
</event>
<event>
 8    1  0.6380238E-009  0.1203301E+03  0.7561462E-02  0.1242553E+00
         -1   -1    0    0    0  501 -0.00000000000E+00  0.00000000000E+00  0.11314845164E+03  0.11314845164E+03  0.00000000000E+00 0.  1.
          1   -1    0    0  501    0  0.00000000000E+00 -0.00000000000E+00 -0.15864757915E+03  0.15864757915E+03  0.00000000000E+00 0. -1.
         25    2    1    2    0    0 -0.17269476919E+02  0.75505049347E+02 -0.56971288079E+01  0.14723748695E+03  0.12508866046E+03 0.  0.
         23    2    1    2    0    0  0.17269476919E+02 -0.75505049347E+02 -0.39801998702E+02  0.12455854384E+03  0.89058320399E+02 0.  0.
          5    1    3    3  502    0  0.29517678112E+02  0.79033814918E+02  0.28366967099E+02  0.89105524206E+02  0.41800000000E+01 0.  1.
         -5    1    3    3    0  502 -0.46787155031E+02 -0.35287655705E+01 -0.34064095907E+02  0.58131962742E+02  0.41800000000E+01 0.  1.
        -11    1    4    4    0    0  0.46677363906E+02 -0.59433320342E+02 -0.42355576166E+01  0.75690394479E+02  0.00000000000E+00 0.  1.
         11    1    4    4    0    0 -0.29407886987E+02 -0.16071729005E+02 -0.35566441086E+02  0.48868149359E+02  0.00000000000E+00 0. -1.
</event>
<event>
 8    1  0.6380238E-009  0.1101627E+03  0.7561462E-02  0.1260269E+00
          1   -1    0    0  501    0  0.00000000000E+00  0.00000000000E+00  0.66292494214E+02  0.66292494214E+02  0.00000000000E+00 0. -1.
         -1   -1    0    0    0  501 -0.00000000000E+00 -0.00000000000E+00 -0.26580002145E+03  0.26580002145E+03  0.00000000000E+00 0.  1.
         25    2    1    2    0    0  0.52022189658E+02 -0.49803000533E+02 -0.14262370972E+03  0.20291460405E+03  0.12508463888E+03 0.  0.
         23    2    1    2    0    0 -0.52022189658E+02  0.49803000533E+02 -0.56883817519E+02  0.12917791161E+03  0.90909389364E+02 0.  0.
          5    1    3    3  502    0  0.56837318078E+02 -0.66608814430E+02 -0.15705481986E+03  0.17986356976E+03  0.41800000000E+01 0. -1.
         -5    1    3    3    0  502 -0.48151284198E+01  0.16805813897E+02  0.14431110134E+02  0.23051034296E+02  0.41800000000E+01 0. -1.
        -11    1    4    4    0    0 -0.64108514721E+02  0.67606724643E+02 -0.53374243865E+02  0.10737495418E+03  0.00000000000E+00 0.  1.
         11    1    4    4    0    0  0.12086325063E+02 -0.17803724110E+02 -0.35095736536E+01  0.21802957436E+02  0.00000000000E+00 0. -1.
</event>
<event>
 8    1  0.6380238E-009  0.1314105E+03  0.7561462E-02  0.1225378E+00
         -1   -1    0    0    0  501 -0.00000000000E+00  0.00000000000E+00  0.94592722032E+03  0.94592722032E+03  0.00000000000E+00 0.  1.
          1   -1    0    0  501    0  0.00000000000E+00 -0.00000000000E+00 -0.20676487712E+02  0.20676487712E+02  0.00000000000E+00 0. -1.
         25    2    1    2    0    0 -0.80110188834E+02  0.32371363594E+02  0.56677518024E+03  0.58681112232E+03  0.12509053044E+03 0.  0.
         23    2    1    2    0    0  0.80110188834E+02 -0.32371363594E+02  0.35847555237E+03  0.37979258572E+03  0.90951300052E+02 0.  0.
          5    1    3    3  502    0 -0.63879859181E+02  0.77870616914E+02  0.32712826404E+03  0.34230811109E+03  0.41800000000E+01 0.  1.
         -5    1    3    3    0  502 -0.16230329653E+02 -0.45499253320E+02  0.23964691620E+03  0.24450301122E+03  0.41800000000E+01 0.  1.
        -11    1    4    4    0    0  0.30588650489E+02  0.23716166293E+02  0.20992280591E+03  0.21346125298E+03  0.00000000000E+00 0.  1.
         11    1    4    4    0    0  0.49521538345E+02 -0.56087529887E+02  0.14855274646E+03  0.16633133274E+03  0.00000000000E+00 0. -1.
</event>
<event>
 8    1  0.6380238E-009  0.1654902E+03  0.7561462E-02  0.1182634E+00
         -1   -1    0    0    0  501 -0.00000000000E+00  0.00000000000E+00  0.63167069363E+02  0.63167069363E+02  0.00000000000E+00 0.  1.
          1   -1    0    0  501    0  0.00000000000E+00 -0.00000000000E+00 -0.54447334546E+03  0.54447334546E+03  0.00000000000E+00 0. -1.
         25    2    1    2    0    0 -0.96525734201E+02 -0.10946822908E+03 -0.27742439914E+03  0.33750878635E+03  0.12508946031E+03 0.  0.
         23    2    1    2    0    0  0.96525734201E+02  0.10946822908E+03 -0.20388187695E+03  0.27013162847E+03  0.10051251868E+03 0.  0.
          5    1    3    3  502    0 -0.40892868457E+02 -0.10720723217E+03 -0.25041700174E+03  0.27548459935E+03  0.41800000000E+01 0. -1.
         -5    1    3    3    0  502 -0.55632865744E+02 -0.22609969149E+01 -0.27007397403E+02  0.62024186996E+02  0.41800000000E+01 0. -1.
        -11    1    4    4    0    0  0.73179667959E+02  0.11502365583E+03 -0.11590493277E+03  0.17894037734E+03  0.00000000000E+00 0.  1.
         11    1    4    4    0    0  0.23346066242E+02 -0.55554267486E+01 -0.87976944183E+02  0.91191251133E+02  0.00000000000E+00 0. -1.
</event>
<event>
 8    1  0.6380238E-009  0.1202994E+03  0.7561462E-02  0.1242604E+00
          2   -1    0    0  501    0  0.00000000000E+00  0.00000000000E+00  0.31839516799E+02  0.31839516799E+02  0.00000000000E+00 0.  1.
         -2   -1    0    0    0  501 -0.00000000000E+00 -0.00000000000E+00 -0.75903686868E+03  0.75903686868E+03  0.00000000000E+00 0. -1.
         25    2    1    2    0    0 -0.87740183461E+02 -0.44433815865E+02 -0.26505230318E+03  0.30914783311E+03  0.12508779120E+03 0.  0.
         23    2    1    2    0    0  0.87740183461E+02  0.44433815865E+02 -0.46214504870E+03  0.48172855237E+03  0.93870380562E+02 0.  0.
          5    1    3    3  502    0 -0.96347769526E+02 -0.34643593798E+02 -0.27417381923E+03  0.29269750056E+03  0.41800000000E+01 0. -1.
         -5    1    3    3    0  502  0.86075860651E+01 -0.97902220668E+01  0.91215160448E+01  0.16450332548E+02  0.41800000000E+01 0. -1.
        -11    1    4    4    0    0 -0.14954881764E+01 -0.16380670417E+02 -0.16932128807E+02  0.23606351564E+02  0.00000000000E+00 0.  1.
         11    1    4    4    0    0  0.89235671637E+02  0.60814486282E+02 -0.44521291989E+03  0.45812220081E+03  0.00000000000E+00 0. -1.
</event>
<event>
 8    1  0.6380238E-009  0.1082096E+03  0.7561462E-02  0.1263922E+00
          1   -1    0    0  501    0  0.00000000000E+00  0.00000000000E+00  0.47831370022E+02  0.47831370022E+02  0.00000000000E+00 0. -1.
         -1   -1    0    0    0  501 -0.00000000000E+00 -0.00000000000E+00 -0.27705448194E+03  0.27705448194E+03  0.00000000000E+00 0.  1.
         25    2    1    2    0    0  0.30308100012E+02 -0.17228148208E+02 -0.14870608449E+03  0.19742633073E+03  0.12509303131E+03 0.  0.
         23    2    1    2    0    0 -0.30308100012E+02  0.17228148208E+02 -0.80517027422E+02  0.12745952123E+03  0.92452949280E+02 0.  0.
          5    1    3    3  502    0  0.66456415655E+02 -0.38109951227E+02 -0.13115717479E+03  0.15194900612E+03  0.41800000000E+01 0.  1.
         -5    1    3    3    0  502 -0.36148315642E+02  0.20881803019E+02 -0.17548909706E+02  0.45477324602E+02  0.41800000000E+01 0.  1.
        -11    1    4    4    0    0 -0.15359807658E+02 -0.37756696095E+02 -0.24513562503E+02  0.47564761514E+02  0.00000000000E+00 0. -1.
         11    1    4    4    0    0 -0.14948292354E+02  0.54984844303E+02 -0.56003464919E+02  0.79894759717E+02  0.00000000000E+00 0.  1.
</event>
<event>
 8    1  0.6380238E-009  0.9409315E+02  0.7561462E-02  0.1293232E+00
          1   -1    0    0  501    0  0.00000000000E+00  0.00000000000E+00  0.66641393458E+03  0.66641393458E+03  0.00000000000E+00 0. -1.
         -1   -1    0    0    0  501 -0.00000000000E+00 -0.00000000000E+00 -0.19903989913E+02  0.19903989913E+02  0.00000000000E+00 0.  1.
         25    2    1    2    0    0  0.77973566589E+01  0.33177724781E+02  0.42252084999E+03  0.44196320079E+03  0.12508413963E+03 0.  0.
         23    2    1    2    0    0 -0.77973566589E+01 -0.33177724781E+02  0.22398909468E+03  0.24435472370E+03  0.91523528489E+02 0.  0.
          5    1    3    3  502    0  0.72209486904E+01  0.80201789413E+02  0.22954605482E+03  0.24329679983E+03  0.41800000000E+01 0.  1.
         -5    1    3    3    0  502  0.57640796854E+00 -0.47024064633E+02  0.19297479516E+03  0.19866640096E+03  0.41800000000E+01 0.  1.
        -11    1    4    4    0    0 -0.67377481185E+01  0.12738279795E+02 -0.12651589345E+01  0.14465878783E+02  0.00000000000E+00 0.  1.
         11    1    4    4    0    0 -0.10596085405E+01 -0.45916004575E+02  0.22525425362E+03  0.22988884492E+03  0.00000000000E+00 0. -1.
</event>
<event>
 8    1  0.6380238E-009  0.7844848E+02  0.7561462E-02  0.1333513E+00
          1   -1    0    0  501    0  0.00000000000E+00  0.00000000000E+00  0.49977907079E+03  0.49977907079E+03  0.00000000000E+00 0. -1.
         -1   -1    0    0    0  501 -0.00000000000E+00 -0.00000000000E+00 -0.24385966812E+02  0.24385966812E+02  0.00000000000E+00 0.  1.
         25    2    1    2    0    0  0.28671497189E+01 -0.19824303684E+02  0.29186467209E+03  0.31817255912E+03  0.12509023541E+03 0.  0.
         23    2    1    2    0    0 -0.28671497189E+01  0.19824303684E+02  0.18352843189E+03  0.20599247848E+03  0.91372820451E+02 0.  0.
          5    1    3    3  502    0 -0.22494985971E+02 -0.41440378946E+02  0.27772823355E+03  0.28173351507E+03  0.41800000000E+01 0.  1.
         -5    1    3    3    0  502  0.25362135690E+02  0.21616075262E+02  0.14136438538E+02  0.36439044047E+02  0.41800000000E+01 0.  1.
        -11    1    4    4    0    0  0.87638871749E+01  0.46265571886E+02  0.16520495672E+03  0.17178470999E+03  0.00000000000E+00 0. -1.
         11    1    4    4    0    0 -0.11631036894E+02 -0.26441268202E+02  0.18323475165E+02  0.34207768496E+02  0.00000000000E+00 0.  1.
</event>
<event>
 8    1  0.6380238E-009  0.6882788E+02  0.7561462E-02  0.1364125E+00
         -1   -1    0    0    0  501 -0.00000000000E+00  0.00000000000E+00  0.20121248701E+03  0.20121248701E+03  0.00000000000E+00 0.  1.
          1   -1    0    0  501    0  0.00000000000E+00 -0.00000000000E+00 -0.63434562058E+02  0.63434562058E+02  0.00000000000E+00 0. -1.
         25    2    1    2    0    0  0.27048347054E+02  0.29363231474E+02  0.91296142422E+02  0.15992697222E+03  0.12509132016E+03 0.  0.
         23    2    1    2    0    0 -0.27048347054E+02 -0.29363231474E+02  0.46481782532E+02  0.10472007686E+03  0.84923058990E+02 0.  0.
          5    1    3    3  502    0  0.22406392767E+02  0.11589830916E+01 -0.28605650056E+02  0.36594334175E+02  0.41800000000E+01 0.  1.
         -5    1    3    3    0  502  0.46419542873E+01  0.28204248382E+02  0.11990179248E+03  0.12333263804E+03  0.41800000000E+01 0.  1.
        -11    1    4    4    0    0 -0.25522733627E+02 -0.54805836688E+02  0.50678566462E+02  0.78888571831E+02  0.00000000000E+00 0.  1.
         11    1    4    4    0    0 -0.15256134277E+01  0.25442605215E+02 -0.41967839305E+01  0.25831505024E+02  0.00000000000E+00 0. -1.
</event>
<event>
 8    1  0.6380238E-009  0.1370850E+03  0.7561462E-02  0.1217306E+00
         -1   -1    0    0    0  501 -0.00000000000E+00  0.00000000000E+00  0.38755804064E+02  0.38755804064E+02  0.00000000000E+00 0.  1.
          1   -1    0    0  501    0  0.00000000000E+00 -0.00000000000E+00 -0.82947759170E+03  0.82947759170E+03  0.00000000000E+00 0. -1.
         25    2    1    2    0    0  0.82050023645E+02  0.24986071002E+01 -0.69200250031E+03  0.70798458056E+03  0.12504501774E+03 0.  0.
         23    2    1    2    0    0 -0.82050023645E+02 -0.24986071002E+01 -0.98719287323E+02  0.16024881520E+03  0.95894398510E+02 0.  0.
          5    1    3    3  502    0  0.38306268490E+02  0.63235962298E+02 -0.31319556384E+03  0.32183084182E+03  0.41800000000E+01 0.  1.
         -5    1    3    3    0  502  0.43743755155E+02 -0.60737355198E+02 -0.37880693647E+03  0.38615373875E+03  0.41800000000E+01 0.  1.
        -11    1    4    4    0    0  0.14228276100E+02  0.21635406279E+02 -0.12411210105E+02  0.28715375358E+02  0.00000000000E+00 0. -1.
         11    1    4    4    0    0 -0.96278299744E+02 -0.24134013380E+02 -0.86308077218E+02  0.13153343984E+03  0.00000000000E+00 0.  1.
</event>
<event>
 8    1  0.6380238E-009  0.9706482E+02  0.7561462E-02  0.1286592E+00
          1   -1    0    0  501    0  0.00000000000E+00  0.00000000000E+00  0.11376789679E+03  0.11376789679E+03  0.00000000000E+00 0. -1.
         -1   -1    0    0    0  501 -0.00000000000E+00 -0.00000000000E+00 -0.12228180896E+03  0.12228180896E+03  0.00000000000E+00 0.  1.
         25    2    1    2    0    0  0.31956316320E+02  0.32443057558E+02 -0.47599667092E+01  0.13321459601E+03  0.12509881362E+03 0.  0.
         23    2    1    2    0    0 -0.31956316320E+02 -0.32443057558E+02 -0.37539454602E+01  0.10283510974E+03  0.92126052512E+02 0.  0.
          5    1    3    3  502    0 -0.33297271839E+01 -0.40495586630E+02 -0.27152213263E+02  0.49047881756E+02  0.41800000000E+01 0.  1.
         -5    1    3    3    0  502  0.35286043504E+02  0.72938644189E+02  0.22392246554E+02  0.84166714252E+02  0.41800000000E+01 0.  1.
        -11    1    4    4    0    0  0.11335226546E+02 -0.26023018524E+02  0.34522580219E+02  0.44693326112E+02  0.00000000000E+00 0. -1.
         11    1    4    4    0    0 -0.43291542867E+02 -0.64200390339E+01 -0.38276525679E+02  0.58141783624E+02  0.00000000000E+00 0.  1.
</event>
<event>
 8    1  0.6380238E-009  0.4210121E+03  0.7561462E-02  0.1036737E+00
         -2   -1    0    0    0  501 -0.00000000000E+00  0.00000000000E+00  0.10852222784E+03  0.10852222784E+03  0.00000000000E+00 0.  1.
          2   -1    0    0  501    0  0.00000000000E+00 -0.00000000000E+00 -0.17037327393E+04  0.17037327393E+04  0.00000000000E+00 0. -1.
         25    2    1    2    0    0  0.39837025745E+03  0.81931768678E+02 -0.98422217465E+03  0.10722654325E+04  0.12509273334E+03 0.  0.
         23    2    1    2    0    0 -0.39837025745E+03 -0.81931768678E+02 -0.61098833677E+03  0.73998953459E+03  0.94159900668E+02 0.  0.
          5    1    3    3  502    0  0.16293292052E+03 -0.27250395330E+02 -0.41335255355E+03  0.44516011339E+03  0.41800000000E+01 0.  1.
         -5    1    3    3    0  502  0.23543733693E+03  0.10918216401E+03 -0.57086962110E+03  0.62710531911E+03  0.41800000000E+01 0.  1.
        -11    1    4    4    0    0 -0.85948510488E+02 -0.58402604207E+02 -0.16333887598E+03  0.19359131964E+03  0.00000000000E+00 0.  1.
         11    1    4    4    0    0 -0.31242174696E+03 -0.23529164471E+02 -0.44764946080E+03  0.54639821495E+03  0.00000000000E+00 0. -1.
</event>
<event>
 8    1  0.6380238E-009  0.1065384E+03  0.7561462E-02  0.1267118E+00
         -2   -1    0    0    0  501 -0.00000000000E+00  0.00000000000E+00  0.66753979559E+02  0.66753979559E+02  0.00000000000E+00 0. -1.
          2   -1    0    0  501    0  0.00000000000E+00 -0.00000000000E+00 -0.18149349987E+03  0.18149349987E+03  0.00000000000E+00 0.  1.
         25    2    1    2    0    0  0.74929252232E+01 -0.49734562166E+01 -0.51026973566E+02  0.13539471836E+03  0.12508836291E+03 0.  0.
         23    2    1    2    0    0 -0.74929252232E+01  0.49734562166E+01 -0.63712546747E+02  0.11285276107E+03  0.92712339374E+02 0.  0.
          5    1    3    3  502    0 -0.70797455713E+01 -0.63610776916E+02 -0.19066787383E+02  0.66913888830E+02  0.41800000000E+01 0. -1.
         -5    1    3    3    0  502  0.14572670795E+02  0.58637320699E+02 -0.31960186182E+02  0.68480829534E+02  0.41800000000E+01 0. -1.
        -11    1    4    4    0    0  0.72694448991E+01  0.45065455839E+02 -0.14977658534E+02  0.48042381230E+02  0.00000000000E+00 0. -1.
         11    1    4    4    0    0 -0.14762370122E+02 -0.40091999623E+02 -0.48734888213E+02  0.64810379836E+02  0.00000000000E+00 0.  1.
</event>
<event>
 8    1  0.6380238E-009  0.1054866E+03  0.7561462E-02  0.1269164E+00
         -4   -1    0    0    0  501 -0.00000000000E+00  0.00000000000E+00  0.14885102876E+03  0.14885102876E+03  0.00000000000E+00 0. -1.
          4   -1    0    0  501    0  0.00000000000E+00 -0.00000000000E+00 -0.11943638167E+03  0.11943638167E+03  0.00000000000E+00 0.  1.
         25    2    1    2    0    0  0.19998313322E+01  0.76443526953E+02  0.72789347758E+01  0.14680136068E+03  0.12510013776E+03 0.  0.
         23    2    1    2    0    0 -0.19998313322E+01 -0.76443526953E+02  0.22135712312E+02  0.12148604974E+03  0.91767414607E+02 0.  0.
          5    1    3    3  502    0 -0.33855571545E+02  0.86812411068E+02  0.35521944233E+02  0.99809194778E+02  0.41800000000E+01 0. -1.
         -5    1    3    3    0  502  0.35855402877E+02 -0.10368884115E+02 -0.28243009457E+02  0.46992165905E+02  0.41800000000E+01 0. -1.
        -11    1    4    4    0    0  0.95638127583E+01 -0.54543421010E+02 -0.30568961013E+02  0.63252768061E+02  0.00000000000E+00 0.  1.
         11    1    4    4    0    0 -0.11563644091E+02 -0.21900105943E+02  0.52704673325E+02  0.58233281681E+02  0.00000000000E+00 0. -1.
</event>
<event>
 8    1  0.6380238E-009  0.1423404E+03  0.7561462E-02  0.1210214E+00
          3   -1    0    0  501    0  0.00000000000E+00  0.00000000000E+00  0.19096322359E+03  0.19096322359E+03  0.00000000000E+00 0. -1.
         -3   -1    0    0    0  501 -0.00000000000E+00 -0.00000000000E+00 -0.14115329735E+03  0.14115329735E+03  0.00000000000E+00 0.  1.
         25    2    1    2    0    0 -0.10080418250E+03 -0.64184280070E+02  0.15296981610E+02  0.17367523094E+03  0.12509189894E+03 0.  0.
         23    2    1    2    0    0  0.10080418250E+03  0.64184280070E+02  0.34512944626E+02  0.15844129000E+03  0.98139665854E+02 0.  0.
          5    1    3    3  502    0 -0.94004545888E+02 -0.31305674293E+02 -0.41550527991E+02  0.10752124751E+03  0.41800000000E+01 0.  1.
         -5    1    3    3    0  502 -0.67996366072E+01 -0.32878605776E+02  0.56847509600E+02  0.66153983429E+02  0.41800000000E+01 0.  1.
        -11    1    4    4    0    0  0.97597503321E+02  0.85725298867E+02  0.40116072204E+02  0.13595366405E+03  0.00000000000E+00 0. -1.
         11    1    4    4    0    0  0.32066791743E+01 -0.21541018797E+02 -0.56031275783E+01  0.22487625949E+02  0.00000000000E+00 0.  1.
</event>
<event>
 8    1  0.6380238E-009  0.1034148E+03  0.7561462E-02  0.1273275E+00
         -1   -1    0    0    0  501 -0.00000000000E+00  0.00000000000E+00  0.71881125434E+02  0.71881125434E+02  0.00000000000E+00 0.  1.
          1   -1    0    0  501    0  0.00000000000E+00 -0.00000000000E+00 -0.16596965326E+03  0.16596965326E+03  0.00000000000E+00 0. -1.
         25    2    1    2    0    0 -0.24141580869E+02  0.81315351493E+01 -0.54418725627E+02  0.13877500949E+03  0.12509263675E+03 0.  0.
         23    2    1    2    0    0  0.24141580869E+02 -0.81315351493E+01 -0.39669802197E+02  0.99075769207E+02  0.87139985350E+02 0.  0.
          5    1    3    3  502    0  0.73675647745E+01 -0.53569124952E+02 -0.69266219781E+01  0.54675247149E+02  0.41800000000E+01 0.  1.
         -5    1    3    3    0  502 -0.31509145644E+02  0.61700660101E+02 -0.47492103649E+02  0.84099762337E+02  0.41800000000E+01 0.  1.
        -11    1    4    4    0    0 -0.10752830826E+02 -0.36604560814E+02  0.13260306893E+01  0.38174279306E+02  0.00000000000E+00 0.  1.
         11    1    4    4    0    0  0.34894411696E+02  0.28473025665E+02 -0.40995832886E+02  0.60901489901E+02  0.00000000000E+00 0. -1.
</event>
<event>
 8    1  0.6380238E-009  0.1120677E+03  0.7561462E-02  0.1256788E+00
         -2   -1    0    0    0  501 -0.00000000000E+00  0.00000000000E+00  0.19364178246E+03  0.19364178246E+03  0.00000000000E+00 0. -1.
          2   -1    0    0  501    0  0.00000000000E+00 -0.00000000000E+00 -0.95336568151E+02  0.95336568151E+02  0.00000000000E+00 0.  1.
         25    2    1    2    0    0 -0.31081572379E+02 -0.13398283301E+02  0.13202256256E+03  0.18499353115E+03  0.12508825446E+03 0.  0.
         23    2    1    2    0    0  0.31081572379E+02  0.13398283301E+02 -0.33717348251E+02  0.10398481946E+03  0.92360191473E+02 0.  0.
          5    1    3    3  502    0 -0.78747831156E+02 -0.19811479178E+02  0.82683893151E+02  0.11596471104E+03  0.41800000000E+01 0. -1.
         -5    1    3    3    0  502  0.47666258777E+02  0.64131958771E+01  0.49338669413E+02  0.69028820115E+02  0.41800000000E+01 0. -1.
        -11    1    4    4    0    0  0.23680837508E+02 -0.36825800293E+02 -0.30015839754E+02  0.53083634658E+02  0.00000000000E+00 0. -1.
         11    1    4    4    0    0  0.74007348714E+01  0.50224083595E+02 -0.37015084964E+01  0.50901184807E+02  0.00000000000E+00 0.  1.
</event>
<event>
 8    1  0.6380238E-009  0.1258112E+03  0.7561462E-02  0.1233807E+00
         -1   -1    0    0    0  501 -0.00000000000E+00  0.00000000000E+00  0.33453711953E+02  0.33453711953E+02  0.00000000000E+00 0.  1.
          1   -1    0    0  501    0  0.00000000000E+00 -0.00000000000E+00 -0.60825680281E+03  0.60825680281E+03  0.00000000000E+00 0. -1.
         25    2    1    2    0    0  0.70214950428E+02  0.58571101314E+02 -0.35527876295E+03  0.38759760449E+03  0.12509272733E+03 0.  0.
         23    2    1    2    0    0 -0.70214950428E+02 -0.58571101314E+02 -0.21952432790E+03  0.25411291027E+03  0.89564096886E+02 0.  0.
          5    1    3    3  502    0 -0.23212062997E+02  0.51164039207E+02 -0.18243075238E+03  0.19093195277E+03  0.41800000000E+01 0. -1.
         -5    1    3    3    0  502  0.93427013425E+02  0.74070621072E+01 -0.17284801057E+03  0.19666565172E+03  0.41800000000E+01 0. -1.
        -11    1    4    4    0    0 -0.62164106748E+02 -0.25092466946E+02 -0.57040273275E+02  0.88020456944E+02  0.00000000000E+00 0.  1.
         11    1    4    4    0    0 -0.80508436798E+01 -0.33478634369E+02 -0.16248405463E+03  0.16609245333E+03  0.00000000000E+00 0. -1.
</event>
<event>
 8    1  0.6380238E-009  0.9703618E+02  0.7561462E-02  0.1286655E+00
          1   -1    0    0  501    0  0.00000000000E+00  0.00000000000E+00  0.21390645689E+03  0.21390645689E+03  0.00000000000E+00 0. -1.
         -1   -1    0    0    0  501 -0.00000000000E+00 -0.00000000000E+00 -0.75474399334E+02  0.75474399334E+02  0.00000000000E+00 0.  1.
         25    2    1    2    0    0  0.52610592617E+02 -0.38763308167E+02  0.91062131081E+02  0.16795276877E+03  0.12508138273E+03 0.  0.
         23    2    1    2    0    0 -0.52610592617E+02  0.38763308167E+02  0.47369926477E+02  0.12142808746E+03  0.90721562889E+02 0.  0.
          5    1    3    3  502    0  0.66563665945E+02 -0.62723756766E+02  0.23087764538E+02  0.94421970739E+02  0.41800000000E+01 0. -1.
         -5    1    3    3    0  502 -0.13953073328E+02  0.23960448599E+02  0.67974366543E+02  0.73530798032E+02  0.41800000000E+01 0. -1.
        -11    1    4    4    0    0 -0.32599438556E+02  0.20506161722E+01 -0.22737785765E+02  0.39798684933E+02  0.00000000000E+00 0.  1.
         11    1    4    4    0    0 -0.20011154061E+02  0.36712691995E+02  0.70107712242E+02  0.81629402522E+02  0.00000000000E+00 0. -1.
</event>
<event>
 8    1  0.6380238E-009  0.1023140E+03  0.7561462E-02  0.1275504E+00
          2   -1    0    0  501    0  0.00000000000E+00  0.00000000000E+00  0.34866305733E+03  0.34866305733E+03  0.00000000000E+00 0. -1.
         -2   -1    0    0    0  501 -0.00000000000E+00 -0.00000000000E+00 -0.37067788129E+02  0.37067788129E+02  0.00000000000E+00 0.  1.
         25    2    1    2    0    0  0.10973250964E+02 -0.31814902962E+02  0.16143297699E+03  0.20698084250E+03  0.12509141783E+03 0.  0.
         23    2    1    2    0    0 -0.10973250964E+02  0.31814902962E+02  0.15016229221E+03  0.17875000295E+03  0.90940910862E+02 0.  0.
          5    1    3    3  502    0  0.33932875697E+02 -0.71208948911E+02  0.12751475200E+03  0.14999879612E+03  0.41800000000E+01 0.  1.
         -5    1    3    3    0  502 -0.22959624732E+02  0.39394045948E+02  0.33918224991E+02  0.56982046388E+02  0.41800000000E+01 0.  1.
        -11    1    4    4    0    0 -0.16098705558E+02 -0.21181695754E+02  0.93378390090E+01  0.28196237214E+02  0.00000000000E+00 0.  1.
         11    1    4    4    0    0  0.51254545937E+01  0.52996598717E+02  0.14082445320E+03  0.15055376574E+03  0.00000000000E+00 0. -1.
</event>
<event>
 8    1  0.6380238E-009  0.8460902E+02  0.7561462E-02  0.1316458E+00
          1   -1    0    0  501    0  0.00000000000E+00  0.00000000000E+00  0.92881959065E+03  0.92881959065E+03  0.00000000000E+00 0. -1.
         -1   -1    0    0    0  501 -0.00000000000E+00 -0.00000000000E+00 -0.23853938182E+02  0.23853938182E+02  0.00000000000E+00 0.  1.
         25    2    1    2    0    0 -0.12779198078E+02 -0.57793736278E+02  0.72804538737E+03  0.74108082489E+03  0.12508908461E+03 0.  0.
         23    2    1    2    0    0  0.12779198078E+02  0.57793736278E+02  0.17692026510E+03  0.21159270395E+03  0.99836207382E+02 0.  0.
          5    1    3    3  502    0 -0.50655589975E+01 -0.31182039576E+02  0.70231834541E+03  0.70304090221E+03  0.41800000000E+01 0.  1.
         -5    1    3    3    0  502 -0.77136390809E+01 -0.26611696702E+02  0.25727041958E+02  0.38039922675E+02  0.41800000000E+01 0.  1.
        -11    1    4    4    0    0  0.52626219503E+02  0.37451960733E+02  0.67729893180E+02  0.93592236708E+02  0.00000000000E+00 0.  1.
         11    1    4    4    0    0 -0.39847021425E+02  0.20341775545E+02  0.10919037192E+03  0.11800046724E+03  0.00000000000E+00 0. -1.
</event>
<event>
 8    1  0.6380238E-009  0.1028057E+03  0.7561462E-02  0.1274504E+00
          1   -1    0    0  501    0  0.00000000000E+00  0.00000000000E+00  0.75340411132E+02  0.75340411132E+02  0.00000000000E+00 0. -1.
         -1   -1    0    0    0  501 -0.00000000000E+00 -0.00000000000E+00 -0.28151213666E+03  0.28151213666E+03  0.00000000000E+00 0.  1.
         25    2    1    2    0    0 -0.89468536872E+02 -0.15823671407E+02 -0.15194851331E+03  0.21677393014E+03  0.12509028110E+03 0.  0.
         23    2    1    2    0    0  0.89468536872E+02  0.15823671407E+02 -0.54223212220E+02  0.14007861765E+03  0.91797901461E+02 0.  0.
          5    1    3    3  502    0 -0.80768556724E+02  0.28597485253E+01 -0.20270450817E+02  0.83427222734E+02  0.41800000000E+01 0.  1.
         -5    1    3    3    0  502 -0.86999801479E+01 -0.18683419933E+02 -0.13167806249E+03  0.13334670741E+03  0.41800000000E+01 0.  1.
        -11    1    4    4    0    0  0.37206854292E+02 -0.18072137781E+02  0.17646857323E+02  0.44970698723E+02  0.00000000000E+00 0. -1.
         11    1    4    4    0    0  0.52261682580E+02  0.33895809188E+02 -0.71870069543E+02  0.95107918928E+02  0.00000000000E+00 0.  1.
</event>
<event>
 8    1  0.6380238E-009  0.1275198E+03  0.7561462E-02  0.1231183E+00
          1   -1    0    0  501    0  0.00000000000E+00  0.00000000000E+00  0.30825460914E+03  0.30825460914E+03  0.00000000000E+00 0. -1.
         -1   -1    0    0    0  501 -0.00000000000E+00 -0.00000000000E+00 -0.75122013205E+02  0.75122013205E+02  0.00000000000E+00 0.  1.
         25    2    1    2    0    0 -0.91585737252E+02  0.36327992037E+02  0.16593641638E+03  0.22997949963E+03  0.12509198893E+03 0.  0.
         23    2    1    2    0    0  0.91585737252E+02 -0.36327992037E+02  0.67196179560E+02  0.15339712272E+03  0.96476320608E+02 0.  0.
          5    1    3    3  502    0 -0.49481794054E+00 -0.18522760068E+02 -0.12131430799E+02  0.22538444902E+02  0.41800000000E+01 0. -1.
         -5    1    3    3    0  502 -0.91090919312E+02  0.54850752106E+02  0.17806784718E+03  0.20744105473E+03  0.41800000000E+01 0. -1.
        -11    1    4    4    0    0 -0.13479698745E+02  0.79145304041E+01 -0.72608316230E+01  0.17235479269E+02  0.00000000000E+00 0.  1.
         11    1    4    4    0    0  0.10506543600E+03 -0.44242522441E+02  0.74457011183E+02  0.13616164345E+03  0.00000000000E+00 0. -1.
</event>
<event>
 7    1  0.6380238E-009  0.2505524E+03  0.7561462E-02  0.1112956E+00
          1   -1    0    0  501    0  0.00000000000E+00  0.00000000000E+00  0.56469670663E+03  0.56469670663E+03  0.00000000000E+00 0. -1.
         -1   -1    0    0    0  501 -0.00000000000E+00 -0.00000000000E+00 -0.17038434340E+03  0.17038434340E+03  0.00000000000E+00 0.  1.
         23    2    1    2    0    0 -0.16856618134E+03  0.18307830732E+03  0.37109758329E+03  0.45566068490E+03  0.89336550948E+02 0.  0.
          5    1    1    2  502    0  0.78101076824E+02 -0.65788112709E+02 -0.50405535149E+02  0.11395632650E+03  0.41800000000E+01 0. -1.
         -5    1    1    2    0  502  0.90465104517E+02 -0.11729019461E+03  0.73620315089E+02  0.16546403863E+03  0.41800000000E+01 0. -1.
        -11    1    3    3    0    0 -0.10766970251E+03  0.13757862725E+03  0.18407754387E+03  0.25378176781E+03  0.00000000000E+00 0.  1.
         11    1    3    3    0    0 -0.60896478832E+02  0.45499680064E+02  0.18702003942E+03  0.20187891709E+03  0.00000000000E+00 0. -1.
</event>
<event>
 8    1  0.6380238E-009  0.1940270E+03  0.7561462E-02  0.1154879E+00
         -2   -1    0    0    0  501 -0.00000000000E+00  0.00000000000E+00  0.35258836177E+02  0.35258836177E+02  0.00000000000E+00 0. -1.
          2   -1    0    0  501    0  0.00000000000E+00 -0.00000000000E+00 -0.11587774310E+04  0.11587774310E+04  0.00000000000E+00 0.  1.
         25    2    1    2    0    0 -0.16496668820E+03 -0.11823090816E+02 -0.71170321162E+03  0.74129558160E+03  0.12507551391E+03 0.  0.
         23    2    1    2    0    0  0.16496668820E+03  0.11823090816E+02 -0.41181538322E+03  0.45274068560E+03  0.89601477914E+02 0.  0.
          5    1    3    3  502    0 -0.72997786097E+01 -0.42179026737E+02 -0.99999520788E+02  0.10885648176E+03  0.41800000000E+01 0. -1.
         -5    1    3    3    0  502 -0.15766690959E+03  0.30355935921E+02 -0.61170369083E+03  0.63243909983E+03  0.41800000000E+01 0. -1.
        -11    1    4    4    0    0  0.48112723344E+02  0.41861161717E+02 -0.18729996380E+03  0.19785971659E+03  0.00000000000E+00 0.  1.
         11    1    4    4    0    0  0.11685396485E+03 -0.30038070901E+02 -0.22451541942E+03  0.25488096901E+03  0.00000000000E+00 0. -1.
</event>
<event>
 8    1  0.6380238E-009  0.1176271E+03  0.7561462E-02  0.1247064E+00
         -2   -1    0    0    0  501 -0.00000000000E+00  0.00000000000E+00  0.85407115254E+02  0.85407115254E+02  0.00000000000E+00 0.  1.
          2   -1    0    0  501    0  0.00000000000E+00 -0.00000000000E+00 -0.29780748222E+03  0.29780748222E+03  0.00000000000E+00 0. -1.
         25    2    1    2    0    0  0.34835627726E+01 -0.49877757291E+02  0.99188253661E+01  0.13506498068E+03  0.12507693643E+03 0.  0.
         23    2    1    2    0    0 -0.34835627726E+01  0.49877757291E+02 -0.22231919233E+03  0.24814961679E+03  0.98247051636E+02 0.  0.
          5    1    3    3  502    0  0.90476771634E+01 -0.91397905791E+02  0.57651947747E+00  0.91941516301E+02  0.41800000000E+01 0. -1.
         -5    1    3    3    0  502 -0.55641143908E+01  0.41520148500E+02  0.93423058886E+01  0.43123464375E+02  0.41800000000E+01 0. -1.
        -11    1    4    4    0    0  0.25961223265E+02 -0.14989478351E+02 -0.27371505825E+02  0.40593951591E+02  0.00000000000E+00 0.  1.
         11    1    4    4    0    0 -0.29444786038E+02  0.64867235642E+02 -0.19494768650E+03  0.20755566520E+03  0.00000000000E+00 0. -1.
</event>
<event>
 8    1  0.6380238E-009  0.9434427E+02  0.7561462E-02  0.1292660E+00
          1   -1    0    0  501    0  0.00000000000E+00  0.00000000000E+00  0.10472187011E+04  0.10472187011E+04  0.00000000000E+00 0. -1.
         -1   -1    0    0    0  501 -0.00000000000E+00 -0.00000000000E+00 -0.17204063662E+02  0.17204063662E+02  0.00000000000E+00 0.  1.
         25    2    1    2    0    0  0.18982725054E+02  0.71513989608E+02  0.67365957776E+03  0.68915819525E+03  0.12508875573E+03 0.  0.
         23    2    1    2    0    0 -0.18982725054E+02 -0.71513989608E+02  0.35635505968E+03  0.37526456952E+03  0.91432893498E+02 0.  0.
          5    1    3    3  502    0  0.31164442423E+02  0.25707645032E+02  0.53471358274E+02  0.67147330850E+02  0.41800000000E+01 0.  1.
         -5    1    3    3    0  502 -0.12181717368E+02  0.45806344576E+02  0.62018821949E+03  0.62201086440E+03  0.41800000000E+01 0.  1.
        -11    1    4    4    0    0  0.24429562094E+01  0.13038921153E+02  0.66380205348E+01  0.14833907661E+02  0.00000000000E+00 0.  1.
         11    1    4    4    0    0 -0.21425681264E+02 -0.84552910761E+02  0.34971703915E+03  0.36043066186E+03  0.00000000000E+00 0. -1.
</event>
<event>
 8    1  0.6380238E-009  0.1320238E+03  0.7561462E-02  0.1224483E+00
         -1   -1    0    0    0  501 -0.00000000000E+00  0.00000000000E+00  0.30480563113E+03  0.30480563113E+03  0.00000000000E+00 0.  1.
          1   -1    0    0  501    0  0.00000000000E+00 -0.00000000000E+00 -0.59374387115E+02  0.59374387115E+02  0.00000000000E+00 0. -1.
         25    2    1    2    0    0 -0.13518596854E+02 -0.79965318434E+02  0.10613758396E+03  0.18300155460E+03  0.12508867912E+03 0.  0.
         23    2    1    2    0    0  0.13518596854E+02  0.79965318434E+02  0.13929366006E+03  0.18117846365E+03  0.82738789847E+02 0.  0.
          5    1    3    3  502    0  0.50342073084E+02 -0.66780797009E+02  0.60150971323E+02  0.10310000447E+03  0.41800000000E+01 0. -1.
         -5    1    3    3    0  502 -0.63860669938E+02 -0.13184521425E+02  0.45986612635E+02  0.79901550121E+02  0.41800000000E+01 0. -1.
        -11    1    4    4    0    0 -0.17620823882E+02  0.81898211298E+02  0.11097111019E+03  0.13904099304E+03  0.00000000000E+00 0.  1.
         11    1    4    4    0    0  0.31139420737E+02 -0.19328928644E+01  0.28322549871E+02  0.42137470615E+02  0.00000000000E+00 0. -1.
</event>
<event>
 8    1  0.6380238E-009  0.1635927E+03  0.7561462E-02  0.1184699E+00
          1   -1    0    0  501    0  0.00000000000E+00  0.00000000000E+00  0.40153499614E+03  0.40153499614E+03  0.00000000000E+00 0. -1.
         -1   -1    0    0    0  501 -0.00000000000E+00 -0.00000000000E+00 -0.99796443438E+02  0.99796443438E+02  0.00000000000E+00 0.  1.
         25    2    1    2    0    0  0.13256593048E+03  0.35183968817E+02  0.36826668017E+02  0.18924257930E+03  0.12507962567E+03 0.  0.
         23    2    1    2    0    0 -0.13256593048E+03 -0.35183968817E+02  0.26491188468E+03  0.31208886028E+03  0.91703394032E+02 0.  0.
          5    1    3    3  502    0  0.16133938036E+02  0.62440545619E+02  0.21343263210E+01  0.64661839153E+02  0.41800000000E+01 0. -1.
         -5    1    3    3    0  502  0.11643199244E+03 -0.27256576803E+02  0.34692341696E+02  0.12458074015E+03  0.41800000000E+01 0. -1.
        -11    1    4    4    0    0 -0.95890031696E+02 -0.43505683589E+02  0.10840461176E+03  0.15112644552E+03  0.00000000000E+00 0.  1.
         11    1    4    4    0    0 -0.36675898783E+02  0.83217147719E+01  0.15650727292E+03  0.16096241476E+03  0.00000000000E+00 0. -1.
</event>
<event>
 8    1  0.6380238E-009  0.1114682E+03  0.7561462E-02  0.1257875E+00
         -2   -1    0    0    0  501 -0.00000000000E+00  0.00000000000E+00  0.36558316971E+02  0.36558316971E+02  0.00000000000E+00 0. -1.
          2   -1    0    0  501    0  0.00000000000E+00 -0.00000000000E+00 -0.47160162000E+03  0.47160162000E+03  0.00000000000E+00 0.  1.
         25    2    1    2    0    0  0.70484809782E+02 -0.21422236250E+02 -0.25192047444E+03  0.29075631887E+03  0.12509312892E+03 0.  0.
         23    2    1    2    0    0 -0.70484809782E+02  0.21422236250E+02 -0.18312282859E+03  0.21740361810E+03  0.91122676638E+02 0.  0.
          5    1    3    3  502    0 -0.22802051512E+02 -0.35298093545E+02 -0.37513802373E+02  0.56485809984E+02  0.41800000000E+01 0. -1.
         -5    1    3    3    0  502  0.93286861295E+02  0.13875857295E+02 -0.21440667207E+03  0.23427050889E+03  0.41800000000E+01 0. -1.
        -11    1    4    4    0    0 -0.12709232519E+02 -0.13699975750E+02  0.34090146753E+01  0.18995665501E+02  0.00000000000E+00 0. -1.
         11    1    4    4    0    0 -0.57775577263E+02  0.35122212000E+02 -0.18653184326E+03  0.19840795260E+03  0.00000000000E+00 0.  1.
</event>
<event>
 8    1  0.6380238E-009  0.2091746E+03  0.7561462E-02  0.1142221E+00
          1   -1    0    0  501    0  0.00000000000E+00  0.00000000000E+00  0.17473810685E+04  0.17473810685E+04  0.00000000000E+00 0. -1.
         -1   -1    0    0    0  501 -0.00000000000E+00 -0.00000000000E+00 -0.31518387153E+02  0.31518387153E+02  0.00000000000E+00 0.  1.
         25    2    1    2    0    0 -0.17297733197E+03 -0.11482583913E+03  0.86256507590E+03  0.89597533849E+03  0.12508863380E+03 0.  0.
         23    2    1    2    0    0  0.17297733197E+03  0.11482583913E+03  0.85329760549E+03  0.88292411721E+03  0.91280132056E+02 0.  0.
          5    1    3    3  502    0 -0.31460455503E+02 -0.16523100512E+02  0.32937562342E+02  0.48632587058E+02  0.41800000000E+01 0. -1.
         -5    1    3    3    0  502 -0.14151687646E+03 -0.98302738620E+02  0.82962751356E+03  0.84734275143E+03  0.41800000000E+01 0. -1.
        -11    1    4    4    0    0  0.10232188106E+03  0.48245275123E+02  0.61994649621E+03  0.63018333212E+03  0.00000000000E+00 0. -1.
         11    1    4    4    0    0  0.70655450911E+02  0.66580564009E+02  0.23335110928E+03  0.25274078510E+03  0.00000000000E+00 0.  1.
</event>
<event>
 8    1  0.6380238E-009  0.8581697E+02  0.7561462E-02  0.1313310E+00
         -1   -1    0    0    0  501 -0.00000000000E+00  0.00000000000E+00  0.24470050427E+03  0.24470050427E+03  0.00000000000E+00 0.  1.
          1   -1    0    0  501    0  0.00000000000E+00 -0.00000000000E+00 -0.69942589062E+02  0.69942589062E+02  0.00000000000E+00 0. -1.
         25    2    1    2    0    0 -0.66776389369E+02  0.21604517551E+02  0.74689940919E+02  0.16171547523E+03  0.12508983291E+03 0.  0.
         23    2    1    2    0    0  0.66776389369E+02 -0.21604517551E+02  0.10006797429E+03  0.15292761810E+03  0.91909822898E+02 0.  0.
          5    1    3    3  502    0 -0.35718205727E+02  0.48256117777E+02  0.97573347080E+02  0.11464062798E+03  0.41800000000E+01 0.  1.
         -5    1    3    3    0  502 -0.31058183642E+02 -0.26651600225E+02 -0.22883406161E+02  0.47074847246E+02  0.41800000000E+01 0.  1.
        -11    1    4    4    0    0  0.37994227295E+02 -0.10074684586E+02 -0.83319227246E+01  0.40180611164E+02  0.00000000000E+00 0. -1.
         11    1    4    4    0    0  0.28782162074E+02 -0.11529832965E+02  0.10839989701E+03  0.11274700694E+03  0.00000000000E+00 0.  1.
</event>
<event>
 8    1  0.6380238E-009  0.1101626E+03  0.7561462E-02  0.1260269E+00
         -1   -1    0    0    0  501 -0.00000000000E+00  0.00000000000E+00  0.69359593802E+02  0.69359593802E+02  0.00000000000E+00 0.  1.
          1   -1    0    0  501    0  0.00000000000E+00 -0.00000000000E+00 -0.46511951906E+03  0.46511951906E+03  0.00000000000E+00 0. -1.
         25    2    1    2    0    0 -0.26513012871E+02 -0.38995923270E+02 -0.80443048774E+01  0.13391825992E+03  0.12508304288E+03 0.  0.
         23    2    1    2    0    0  0.26513012871E+02  0.38995923270E+02 -0.38771562039E+03  0.40056085295E+03  0.88893041013E+02 0.  0.
          5    1    3    3  502    0  0.47788092604E+01 -0.74005982027E+02  0.22661870394E+02  0.77657936899E+02  0.41800000000E+01 0.  1.
         -5    1    3    3    0  502 -0.31291822132E+02  0.35010058757E+02 -0.30706175271E+02  0.56260323019E+02  0.41800000000E+01 0.  1.
        -11    1    4    4    0    0  0.41956637599E+02  0.59766159925E+02 -0.25054170657E+03  0.26096647302E+03  0.00000000000E+00 0. -1.
         11    1    4    4    0    0 -0.15443624728E+02 -0.20770236654E+02 -0.13717391382E+03  0.13959437993E+03  0.00000000000E+00 0.  1.
</event>
<event>
 8    1  0.6380238E-009  0.1353707E+03  0.7561462E-02  0.1219697E+00
          4   -1    0    0  501    0  0.00000000000E+00  0.00000000000E+00  0.27498089951E+02  0.27498089951E+02  0.00000000000E+00 0. -1.
         -4   -1    0    0    0  501 -0.00000000000E+00 -0.00000000000E+00 -0.10166389748E+04  0.10166389748E+04  0.00000000000E+00 0.  1.
         25    2    1    2    0    0 -0.11716161724E+03 -0.40955444305E+01 -0.56773183687E+03  0.59305241357E+03  0.12509240028E+03 0.  0.
         23    2    1    2    0    0  0.11716161724E+03  0.40955444305E+01 -0.42140904797E+03  0.45108465117E+03  0.11021868614E+03 0.  0.
          5    1    3    3  502    0 -0.28480863991E+02 -0.25935827307E+02 -0.40126609969E+03  0.40313246200E+03  0.41800000000E+01 0. -1.
         -5    1    3    3    0  502 -0.88680753245E+02  0.21840282877E+02 -0.16646573718E+03  0.18991995158E+03  0.41800000000E+01 0. -1.
        -11    1    4    4    0    0  0.38414901765E+02  0.38722687547E+02 -0.67052762325E+02  0.86436243231E+02  0.00000000000E+00 0. -1.
         11    1    4    4    0    0  0.78746715472E+02 -0.34627143116E+02 -0.35435628565E+03  0.36464840794E+03  0.00000000000E+00 0.  1.
</event>
<event>
 8    1  0.6380238E-009  0.1319843E+03  0.7561462E-02  0.1224541E+00
         -1   -1    0    0    0  501 -0.00000000000E+00  0.00000000000E+00  0.39800197760E+02  0.39800197760E+02  0.00000000000E+00 0.  1.
          1   -1    0    0  501    0  0.00000000000E+00 -0.00000000000E+00 -0.58154845330E+03  0.58154845330E+03  0.00000000000E+00 0. -1.
         25    2    1    2    0    0 -0.36803873599E+02  0.97666629323E+02 -0.33352104564E+03  0.37118074840E+03  0.12508223099E+03 0.  0.
         23    2    1    2    0    0  0.36803873599E+02 -0.97666629323E+02 -0.20822720991E+03  0.25016790266E+03  0.91280408523E+02 0.  0.
          5    1    3    3  502    0 -0.61848185809E+02  0.39922618734E+02 -0.27645449992E+03  0.28611811635E+03  0.41800000000E+01 0. -1.
         -5    1    3    3    0  502  0.25044312209E+02  0.57744010588E+02 -0.57066545714E+02  0.85062632057E+02  0.41800000000E+01 0. -1.
        -11    1    4    4    0    0  0.20418450977E+02  0.67166356328E+01 -0.85791693870E+02  0.88443434305E+02  0.00000000000E+00 0. -1.
         11    1    4    4    0    0  0.16385422622E+02 -0.10438326496E+03 -0.12243551604E+03  0.16172446835E+03  0.00000000000E+00 0.  1.
</event>
<event>
 8    1  0.6380238E-009  0.7188315E+02  0.7561462E-02  0.1353804E+00
          2   -1    0    0  501    0  0.00000000000E+00  0.00000000000E+00  0.34809336067E+03  0.34809336067E+03  0.00000000000E+00 0. -1.
         -2   -1    0    0    0  501 -0.00000000000E+00 -0.00000000000E+00 -0.39269746985E+02  0.39269746985E+02  0.00000000000E+00 0.  1.
         25    2    1    2    0    0  0.29751642377E+01 -0.38723566941E+02  0.18946504250E+03  0.23032673023E+03  0.12508011068E+03 0.  0.
         23    2    1    2    0    0 -0.29751642377E+01  0.38723566941E+02  0.11935857119E+03  0.15703637743E+03  0.94369428751E+02 0.  0.
          5    1    3    3  502    0 -0.10156165985E+01 -0.53343954482E+02  0.20278096232E+03  0.20972410457E+03  0.41800000000E+01 0.  1.
         -5    1    3    3    0  502  0.39907808362E+01  0.14620387542E+02 -0.13315919816E+02  0.20602625660E+02  0.41800000000E+01 0.  1.
        -11    1    4    4    0    0  0.84415620457E+01 -0.16287329360E+02 -0.62944193291E+01  0.19394761719E+02  0.00000000000E+00 0.  1.
         11    1    4    4    0    0 -0.11416726283E+02  0.55010896301E+02  0.12565299051E+03  0.13764161571E+03  0.00000000000E+00 0. -1.
</event>
<event>
 8    1  0.6380238E-009  0.1353140E+03  0.7561462E-02  0.1219777E+00
         -1   -1    0    0    0  501 -0.00000000000E+00  0.00000000000E+00  0.14765114098E+03  0.14765114098E+03  0.00000000000E+00 0.  1.
          1   -1    0    0  501    0  0.00000000000E+00 -0.00000000000E+00 -0.15765462332E+03  0.15765462332E+03  0.00000000000E+00 0. -1.
         25    2    1    2    0    0 -0.14348755521E+02 -0.88143771699E+02  0.54216727477E+02  0.16297901650E+03  0.12508994767E+03 0.  0.
         23    2    1    2    0    0  0.14348755521E+02  0.88143771699E+02 -0.64220209816E+02  0.14232674780E+03  0.90318638805E+02 0.  0.
          5    1    3    3  502    0  0.98453716017E+01  0.29945198267E+02  0.29945774879E+01  0.31938787322E+02  0.41800000000E+01 0. -1.
         -5    1    3    3    0  502 -0.24194127123E+02 -0.11808896997E+03  0.51222149989E+02  0.13104022918E+03  0.41800000000E+01 0. -1.
        -11    1    4    4    0    0  0.39556509470E+02  0.17585276201E+02  0.53955655068E+00  0.43292614864E+02  0.00000000000E+00 0.  1.
         11    1    4    4    0    0 -0.25207753949E+02  0.70558495498E+02 -0.64759766367E+02  0.99034132934E+02  0.00000000000E+00 0. -1.
</event>
<event>
 8    1  0.6380238E-009  0.1335018E+03  0.7561462E-02  0.1222350E+00
          2   -1    0    0  501    0  0.00000000000E+00  0.00000000000E+00  0.90087204583E+02  0.90087204583E+02  0.00000000000E+00 0. -1.
         -2   -1    0    0    0  501 -0.00000000000E+00 -0.00000000000E+00 -0.21206071224E+03  0.21206071224E+03  0.00000000000E+00 0.  1.
         25    2    1    2    0    0  0.91006797495E+01  0.85204915134E+02 -0.70303509335E+02  0.16713325478E+03  0.12509293142E+03 0.  0.
         23    2    1    2    0    0 -0.91006797495E+01 -0.85204915134E+02 -0.51669998321E+02  0.13501466205E+03  0.90644747813E+02 0.  0.
          5    1    3    3  502    0 -0.44727714978E+02  0.74947875882E+02 -0.14070333785E+02  0.88505362997E+02  0.41800000000E+01 0. -1.
         -5    1    3    3    0  502  0.53828394728E+02  0.10257039252E+02 -0.56233175549E+02  0.78627891779E+02  0.41800000000E+01 0. -1.
        -11    1    4    4    0    0  0.32129779660E+02 -0.75871181192E+02 -0.32018280215E+02  0.88396431740E+02  0.00000000000E+00 0.  1.
         11    1    4    4    0    0 -0.41230459409E+02 -0.93337339422E+01 -0.19651718106E+02  0.46618230306E+02  0.00000000000E+00 0. -1.
</event>
<event>
 8    1  0.6380238E-009  0.8687532E+02  0.7561462E-02  0.1310600E+00
         -1   -1    0    0    0  501 -0.00000000000E+00  0.00000000000E+00  0.15191921128E+02  0.15191921128E+02  0.00000000000E+00 0.  1.
          1   -1    0    0  501    0  0.00000000000E+00 -0.00000000000E+00 -0.84055988826E+03  0.84055988826E+03  0.00000000000E+00 0. -1.
         25    2    1    2    0    0 -0.23552647352E+02  0.10015206614E+01 -0.38463042385E+03  0.40514154624E+03  0.12507349558E+03 0.  0.
         23    2    1    2    0    0  0.23552647352E+02 -0.10015206614E+01 -0.44073754329E+03  0.45061026315E+03  0.90798110974E+02 0.  0.
          5    1    3    3  502    0 -0.50962243797E+02  0.69243793553E+01 -0.36934410148E+03  0.37293113978E+03  0.41800000000E+01 0. -1.
         -5    1    3    3    0  502  0.27409596445E+02 -0.59228586939E+01 -0.15286322371E+02  0.32210406455E+02  0.41800000000E+01 0. -1.
        -11    1    4    4    0    0  0.19685072410E+01  0.43918149106E+02 -0.20329366920E+03  0.20799277578E+03  0.00000000000E+00 0.  1.
         11    1    4    4    0    0  0.21584140111E+02 -0.44919669767E+02 -0.23744387409E+03  0.24261748737E+03  0.00000000000E+00 0. -1.
</event>
<event>
 8    1  0.6380238E-009  0.1350991E+03  0.7561462E-02  0.1220080E+00
          2   -1    0    0  501    0  0.00000000000E+00  0.00000000000E+00  0.96839985511E+03  0.96839985511E+03  0.00000000000E+00 0. -1.
         -2   -1    0    0    0  501 -0.00000000000E+00 -0.00000000000E+00 -0.20627559236E+02  0.20627559236E+02  0.00000000000E+00 0.  1.
         25    2    1    2    0    0  0.58066466716E+02  0.67289884658E+02  0.59651024718E+03  0.61593189659E+03  0.12509189871E+03 0.  0.
         23    2    1    2    0    0 -0.58066466716E+02 -0.67289884658E+02  0.35126204870E+03  0.37309551775E+03  0.88969631767E+02 0.  0.
          5    1    3    3  502    0  0.59327844398E+02  0.99196711945E+02  0.38544798915E+03  0.40242689463E+03  0.41800000000E+01 0.  1.
         -5    1    3    3    0  502 -0.12613776822E+01 -0.31906827287E+02  0.21106225803E+03  0.21350500197E+03  0.41800000000E+01 0.  1.
        -11    1    4    4    0    0 -0.78280875957E+02 -0.65447793178E+02  0.31953476470E+03  0.33543073059E+03  0.00000000000E+00 0. -1.
         11    1    4    4    0    0  0.20214409241E+02 -0.18420914798E+01  0.31727283995E+02  0.37664787158E+02  0.00000000000E+00 0.  1.
</event>
<event>
 8    1  0.6380238E-009  0.1707703E+03  0.7561462E-02  0.1177047E+00
         -4   -1    0    0    0  501 -0.00000000000E+00  0.00000000000E+00  0.18581346321E+03  0.18581346321E+03  0.00000000000E+00 0.  1.
          4   -1    0    0  501    0  0.00000000000E+00 -0.00000000000E+00 -0.19343444308E+03  0.19343444308E+03  0.00000000000E+00 0. -1.
         25    2    1    2    0    0 -0.73120139329E+02 -0.13139233528E+03  0.33391612338E+02  0.19842228985E+03  0.12508359120E+03 0.  0.
         23    2    1    2    0    0  0.73120139329E+02  0.13139233528E+03 -0.41012592213E+02  0.18082561645E+03  0.91680806589E+02 0.  0.
          5    1    3    3  502    0 -0.88343940742E+02 -0.78378441432E+02 -0.21927951245E+02  0.12019209372E+03  0.41800000000E+01 0. -1.
         -5    1    3    3    0  502  0.15223801413E+02 -0.53013893852E+02  0.55319563584E+02  0.78230196126E+02  0.41800000000E+01 0. -1.
        -11    1    4    4    0    0  0.70949496597E+02  0.50397541322E+02  0.58533547690E+01  0.87223878616E+02  0.00000000000E+00 0.  1.
         11    1    4    4    0    0  0.21706427324E+01  0.80994793961E+02 -0.46865946982E+02  0.93601737832E+02  0.00000000000E+00 0. -1.
</event>
<event>
 8    1  0.6380238E-009  0.1996903E+03  0.7561462E-02  0.1150001E+00
         -2   -1    0    0    0  501 -0.00000000000E+00  0.00000000000E+00  0.11755951308E+03  0.11755951308E+03  0.00000000000E+00 0.  1.
          2   -1    0    0  501    0  0.00000000000E+00 -0.00000000000E+00 -0.40440855986E+03  0.40440855986E+03  0.00000000000E+00 0. -1.
         25    2    1    2    0    0  0.16538951457E+03  0.47730582170E+02 -0.54375500834E+02  0.21962765319E+03  0.12509081081E+03 0.  0.
         23    2    1    2    0    0 -0.16538951457E+03 -0.47730582170E+02 -0.23247354595E+03  0.30234041975E+03  0.87942480308E+02 0.  0.
          5    1    3    3  502    0  0.95811634001E+02 -0.35813040636E+02 -0.39872463940E+02  0.10986231779E+03  0.41800000000E+01 0. -1.
         -5    1    3    3    0  502  0.69577880573E+02  0.83543622806E+02 -0.14503036895E+02  0.10976533540E+03  0.41800000000E+01 0. -1.
        -11    1    4    4    0    0 -0.14673068117E+03 -0.67070250054E+02 -0.21973214031E+03  0.27259956846E+03  0.00000000000E+00 0.  1.
         11    1    4    4    0    0 -0.18658833407E+02  0.19339667885E+02 -0.12741405645E+02  0.29740851296E+02  0.00000000000E+00 0. -1.
</event>
<event>
 8    1  0.6380238E-009  0.2318789E+03  0.7561462E-02  0.1125324E+00
         -2   -1    0    0    0  501 -0.00000000000E+00  0.00000000000E+00  0.91339163198E+02  0.91339163198E+02  0.00000000000E+00 0.  1.
          2   -1    0    0  501    0  0.00000000000E+00 -0.00000000000E+00 -0.77800753335E+03  0.77800753335E+03  0.00000000000E+00 0. -1.
         25    2    1    2    0    0 -0.22758184796E+03  0.41736831792E+01 -0.49023412326E+03  0.55478648050E+03  0.12509047202E+03 0.  0.
         23    2    1    2    0    0  0.22758184796E+03 -0.41736831792E+01 -0.19643424690E+03  0.31456021605E+03  0.92470530513E+02 0.  0.
          5    1    3    3  502    0 -0.15708073024E+02 -0.16926631450E+01  0.41543482989E+01  0.16862374579E+02  0.41800000000E+01 0. -1.
         -5    1    3    3    0  502 -0.21187377494E+03  0.58663463242E+01 -0.49438847156E+03  0.53792410592E+03  0.41800000000E+01 0. -1.
        -11    1    4    4    0    0  0.80286614920E+02 -0.30320408399E+02 -0.11723672803E+03  0.14529183769E+03  0.00000000000E+00 0. -1.
         11    1    4    4    0    0  0.14729523304E+03  0.26146725220E+02 -0.79197518868E+02  0.16926837836E+03  0.00000000000E+00 0.  1.
</event>
<event>
 8    1  0.6380238E-009  0.1591865E+03  0.7561462E-02  0.1189618E+00
         -3   -1    0    0    0  501 -0.00000000000E+00  0.00000000000E+00  0.10634617571E+03  0.10634617571E+03  0.00000000000E+00 0.  1.
          3   -1    0    0  501    0  0.00000000000E+00 -0.00000000000E+00 -0.28284944541E+03  0.28284944541E+03  0.00000000000E+00 0. -1.
         25    2    1    2    0    0  0.87626791533E+02  0.95446545508E+02 -0.54963782415E+02  0.18829949519E+03  0.12508870799E+03 0.  0.
         23    2    1    2    0    0 -0.87626791533E+02 -0.95446545508E+02 -0.12153948728E+03  0.20089612593E+03  0.93802498907E+02 0.  0.
          5    1    3    3  502    0 -0.11413336473E+02  0.74466967153E+02 -0.57921435889E+01  0.75674399726E+02  0.41800000000E+01 0.  1.
         -5    1    3    3    0  502  0.99040128006E+02  0.20979578354E+02 -0.49171638826E+02  0.11262509546E+03  0.41800000000E+01 0.  1.
        -11    1    4    4    0    0 -0.23823732134E+02 -0.68160049195E+02 -0.14991953127E+02  0.73743617877E+02  0.00000000000E+00 0.  1.
         11    1    4    4    0    0 -0.63803059399E+02 -0.27286496313E+02 -0.10654753415E+03  0.12715250805E+03  0.00000000000E+00 0. -1.
</event>
<event>
 8    1  0.6380238E-009  0.1061723E+03  0.7561462E-02  0.1267827E+00
          1   -1    0    0  501    0  0.00000000000E+00  0.00000000000E+00  0.54686434839E+02  0.54686434839E+02  0.00000000000E+00 0. -1.
         -1   -1    0    0    0  501 -0.00000000000E+00 -0.00000000000E+00 -0.35181867186E+03  0.35181867186E+03  0.00000000000E+00 0.  1.
         25    2    1    2    0    0  0.28599958962E+02 -0.72571495833E+02 -0.10886331283E+03  0.18325937619E+03  0.12509275927E+03 0.  0.
         23    2    1    2    0    0 -0.28599958962E+02  0.72571495833E+02 -0.18826892419E+03  0.22324573051E+03  0.91153105895E+02 0.  0.
          5    1    3    3  502    0 -0.35048324459E+01 -0.61259793173E+02  0.74904912769E+01  0.61956645888E+02  0.41800000000E+01 0.  1.
         -5    1    3    3    0  502  0.32104791408E+02 -0.11311702660E+02 -0.11635380411E+03  0.12130273030E+03  0.41800000000E+01 0.  1.
        -11    1    4    4    0    0  0.30067662787E+02  0.37979835467E+02 -0.10526947445E+03  0.11588008672E+03  0.00000000000E+00 0.  1.
         11    1    4    4    0    0 -0.58667621749E+02  0.34591660365E+02 -0.82999449737E+02  0.10736564378E+03  0.00000000000E+00 0. -1.
</event>
<event>
 8    1  0.6380238E-009  0.1581912E+03  0.7561462E-02  0.1190754E+00
         -2   -1    0    0    0  501 -0.00000000000E+00  0.00000000000E+00  0.99092540270E+02  0.99092540270E+02  0.00000000000E+00 0.  1.
          2   -1    0    0  501    0  0.00000000000E+00 -0.00000000000E+00 -0.33128025677E+03  0.33128025677E+03  0.00000000000E+00 0. -1.
         25    2    1    2    0    0 -0.10056078978E+03 -0.82573688611E+02 -0.19019948384E+03  0.26221049560E+03  0.12509042272E+03 0.  0.
         23    2    1    2    0    0  0.10056078978E+03  0.82573688611E+02 -0.41988232654E+02  0.16816230144E+03  0.97901284216E+02 0.  0.
          5    1    3    3  502    0  0.73841980581E+00 -0.78480340997E+02 -0.74084016022E+02  0.10800751371E+03  0.41800000000E+01 0. -1.
         -5    1    3    3    0  502 -0.10129920959E+03 -0.40933476144E+01 -0.11611546782E+03  0.15420298189E+03  0.41800000000E+01 0. -1.
        -11    1    4    4    0    0  0.73278172668E+02  0.34387366444E+02  0.21664375500E+02  0.83794550696E+02  0.00000000000E+00 0.  1.
         11    1    4    4    0    0  0.27282617114E+02  0.48186322167E+02 -0.63652608154E+02  0.84367750742E+02  0.00000000000E+00 0. -1.
</event>
<event>
 8    1  0.6380238E-009  0.1372646E+03  0.7561462E-02  0.1217058E+00
          1   -1    0    0  501    0  0.00000000000E+00  0.00000000000E+00  0.10422392988E+03  0.10422392988E+03  0.00000000000E+00 0. -1.
         -1   -1    0    0    0  501 -0.00000000000E+00 -0.00000000000E+00 -0.24143802063E+03  0.24143802063E+03  0.00000000000E+00 0.  1.
         25    2    1    2    0    0 -0.39891318237E+02 -0.10808669917E+03 -0.65866514913E+02  0.18237377151E+03  0.12509093868E+03 0.  0.
         23    2    1    2    0    0  0.39891318237E+02  0.10808669917E+03 -0.71347575839E+02  0.16328817900E+03  0.91096108667E+02 0.  0.
          5    1    3    3  502    0  0.34217730614E+02 -0.45907470692E+02 -0.63376567834E+02  0.85512634763E+02  0.41800000000E+01 0. -1.
         -5    1    3    3    0  502 -0.74109048851E+02 -0.62179228474E+02 -0.24899470791E+01  0.96861136746E+02  0.41800000000E+01 0. -1.
        -11    1    4    4    0    0  0.39494193614E+02  0.57811106674E+02 -0.86022223955E+02  0.11091320209E+03  0.00000000000E+00 0.  1.
         11    1    4    4    0    0  0.39712462279E+00  0.50275592492E+02  0.14674648115E+02  0.52374976904E+02  0.00000000000E+00 0. -1.
</event>
<event>
 8    1  0.6380238E-009  0.1063213E+03  0.7561462E-02  0.1267538E+00
         -3   -1    0    0    0  501 -0.00000000000E+00  0.00000000000E+00  0.73223157636E+02  0.73223157636E+02  0.00000000000E+00 0.  1.
          3   -1    0    0  501    0  0.00000000000E+00 -0.00000000000E+00 -0.27171256403E+03  0.27171256403E+03  0.00000000000E+00 0. -1.
         25    2    1    2    0    0 -0.71277262344E+02  0.14337064497E+02 -0.17638356970E+03  0.22813215968E+03  0.12508844501E+03 0.  0.
         23    2    1    2    0    0  0.71277262344E+02 -0.14337064497E+02 -0.22105836695E+02  0.11680356199E+03  0.88704027706E+02 0.  0.
          5    1    3    3  502    0  0.10155596924E+02 -0.79570557697E+01  0.14204157608E+02  0.19638772333E+02  0.41800000000E+01 0.  1.
         -5    1    3    3    0  502 -0.81432859267E+02  0.22294120266E+02 -0.19058772731E+03  0.20849338735E+03  0.41800000000E+01 0.  1.
        -11    1    4    4    0    0  0.35531198826E+02 -0.51769160545E+02 -0.91953128959E+01  0.63459166814E+02  0.00000000000E+00 0.  1.
         11    1    4    4    0    0  0.35746063518E+02  0.37432096048E+02 -0.12910523800E+02  0.53344395173E+02  0.00000000000E+00 0. -1.
</event>
<event>
 8    1  0.6380238E-009  0.6406133E+02  0.7561462E-02  0.1381538E+00
          1   -1    0    0  501    0  0.00000000000E+00  0.00000000000E+00  0.32258944552E+03  0.32258944552E+03  0.00000000000E+00 0. -1.
         -1   -1    0    0    0  501 -0.00000000000E+00 -0.00000000000E+00 -0.40047784178E+02  0.40047784178E+02  0.00000000000E+00 0.  1.
         25    2    1    2    0    0 -0.19681923861E+02  0.17988082833E+02  0.18659124592E+03  0.22622316633E+03  0.12509867577E+03 0.  0.
         23    2    1    2    0    0  0.19681923861E+02 -0.17988082833E+02  0.95950415426E+02  0.13641406337E+03  0.93227491732E+02 0.  0.
          5    1    3    3  502    0 -0.17179678163E+02  0.66835158297E+01  0.20401555452E+03  0.20488931063E+03  0.41800000000E+01 0. -1.
         -5    1    3    3    0  502 -0.25022456978E+01  0.11304567003E+02 -0.17424308600E+02  0.21333855696E+02  0.41800000000E+01 0. -1.
        -11    1    4    4    0    0  0.15476912889E+02  0.37861904508E+02  0.38248832218E+02  0.56000284031E+02  0.00000000000E+00 0.  1.
         11    1    4    4    0    0  0.42050109714E+01 -0.55849987341E+02  0.57701583208E+02  0.80413779342E+02  0.00000000000E+00 0. -1.
</event>
<event>
 8    1  0.6380238E-009  0.6599664E+02  0.7561462E-02  0.1374261E+00
          1   -1    0    0  501    0  0.00000000000E+00  0.00000000000E+00  0.43388481460E+02  0.43388481460E+02  0.00000000000E+00 0. -1.
         -1   -1    0    0    0  501 -0.00000000000E+00 -0.00000000000E+00 -0.40394110570E+03  0.40394110570E+03  0.00000000000E+00 0.  1.
         25    2    1    2    0    0 -0.99175378232E+01 -0.19598247282E+02 -0.32035175841E+03  0.34461198417E+03  0.12509884758E+03 0.  0.
         23    2    1    2    0    0  0.99175378232E+01  0.19598247282E+02 -0.40200865830E+02  0.10271760299E+03  0.91936649368E+02 0.  0.
          5    1    3    3  502    0 -0.18173758108E+02  0.17583510588E+02 -0.39913705163E+01  0.25939714088E+02  0.41800000000E+01 0.  1.
         -5    1    3    3    0  502  0.82562202849E+01 -0.37181757870E+02 -0.31636038789E+03  0.31867227008E+03  0.41800000000E+01 0.  1.
        -11    1    4    4    0    0  0.31643576369E+02 -0.82734876869E+01  0.15936455518E+02  0.36383198573E+02  0.00000000000E+00 0. -1.
         11    1    4    4    0    0 -0.21726038546E+02  0.27871734969E+02 -0.56137321347E+02  0.66334404415E+02  0.00000000000E+00 0.  1.
</event>
<event>
 8    1  0.6380238E-009  0.9338196E+02  0.7561462E-02  0.1294862E+00
         -2   -1    0    0    0  501 -0.00000000000E+00  0.00000000000E+00  0.68534051292E+02  0.68534051292E+02  0.00000000000E+00 0.  1.
          2   -1    0    0  501    0  0.00000000000E+00 -0.00000000000E+00 -0.19206717430E+03  0.19206717430E+03  0.00000000000E+00 0. -1.
         25    2    1    2    0    0  0.22202038076E+02 -0.31453396475E+02 -0.59264216332E+02  0.14367527231E+03  0.12509232547E+03 0.  0.
         23    2    1    2    0    0 -0.22202038076E+02  0.31453396475E+02 -0.64268906674E+02  0.11692595328E+03  0.89771596511E+02 0.  0.
          5    1    3    3  502    0  0.59625202377E+02 -0.38067426561E+02 -0.74223861940E+02  0.10262040638E+03  0.41800000000E+01 0. -1.
         -5    1    3    3    0  502 -0.37423164301E+02  0.66140300864E+01  0.14959645608E+02  0.41054865936E+02  0.41800000000E+01 0. -1.
        -11    1    4    4    0    0  0.18295843244E+02  0.32343344108E+02 -0.66692293392E+02  0.76345869475E+02  0.00000000000E+00 0. -1.
         11    1    4    4    0    0 -0.40497881320E+02 -0.88994763282E+00  0.24233867172E+01  0.40580083802E+02  0.00000000000E+00 0.  1.
</event>
<event>
 8    1  0.6380238E-009  0.1318308E+03  0.7561462E-02  0.1224764E+00
         -1   -1    0    0    0  501 -0.00000000000E+00  0.00000000000E+00  0.20875101572E+02  0.20875101572E+02  0.00000000000E+00 0.  1.
          1   -1    0    0  501    0  0.00000000000E+00 -0.00000000000E+00 -0.94365040620E+03  0.94365040620E+03  0.00000000000E+00 0. -1.
         25    2    1    2    0    0  0.18979207079E+01  0.89402841729E+02 -0.50054635026E+03  0.52363226212E+03  0.12509047507E+03 0.  0.
         23    2    1    2    0    0 -0.18979207079E+01 -0.89402841729E+02 -0.42222895436E+03  0.44089324565E+03  0.90072714785E+02 0.  0.
          5    1    3    3  502    0 -0.24662523778E+02 -0.23098780306E+02 -0.17150109685E+03  0.17484819802E+03  0.41800000000E+01 0.  1.
         -5    1    3    3    0  502  0.26560444486E+02  0.11250162203E+03 -0.32904525341E+03  0.34878406409E+03  0.41800000000E+01 0.  1.
        -11    1    4    4    0    0  0.15740795352E+02 -0.94326277446E+02 -0.40358289932E+03  0.41475821376E+03  0.00000000000E+00 0. -1.
         11    1    4    4    0    0 -0.17638716060E+02  0.49234357174E+01 -0.18646055035E+02  0.26135031890E+02  0.00000000000E+00 0.  1.
</event>
<event>
 8    1  0.6380238E-009  0.1312831E+03  0.7561462E-02  0.1225564E+00
          1   -1    0    0  501    0  0.00000000000E+00  0.00000000000E+00  0.22325620574E+03  0.22325620574E+03  0.00000000000E+00 0. -1.
         -1   -1    0    0    0  501 -0.00000000000E+00 -0.00000000000E+00 -0.82554613912E+02  0.82554613912E+02  0.00000000000E+00 0.  1.
         25    2    1    2    0    0  0.72669048559E+02  0.38366165601E+02  0.11072076911E+03  0.18617067082E+03  0.12509067383E+03 0.  0.
         23    2    1    2    0    0 -0.72669048559E+02 -0.38366165601E+02  0.29980822717E+02  0.11964014883E+03  0.81622069317E+02 0.  0.
          5    1    3    3  502    0  0.18058034577E+02  0.77869934798E+02  0.75378138924E+02  0.10995069616E+03  0.41800000000E+01 0.  1.
         -5    1    3    3    0  502  0.54611013982E+02 -0.39503769197E+02  0.35342630183E+02  0.76219974660E+02  0.41800000000E+01 0.  1.
        -11    1    4    4    0    0 -0.88721099586E+02 -0.20667827550E+02  0.17794102900E+02  0.92818223994E+02  0.00000000000E+00 0.  1.
         11    1    4    4    0    0  0.16052051027E+02 -0.17698338051E+02  0.12186719817E+02  0.26821924835E+02  0.00000000000E+00 0. -1.
</event>
<event>
 8    1  0.6380238E-009  0.1145800E+03  0.7561462E-02  0.1252316E+00
         -2   -1    0    0    0  501 -0.00000000000E+00  0.00000000000E+00  0.38015763957E+02  0.38015763957E+02  0.00000000000E+00 0.  1.
          2   -1    0    0  501    0  0.00000000000E+00 -0.00000000000E+00 -0.49176494651E+03  0.49176494651E+03  0.00000000000E+00 0. -1.
         25    2    1    2    0    0  0.70040543437E+02  0.41991832071E+02 -0.23475227966E+03  0.27825373817E+03  0.12509004083E+03 0.  0.
         23    2    1    2    0    0 -0.70040543437E+02 -0.41991832071E+02 -0.21899690289E+03  0.25152697229E+03  0.92936444031E+02 0.  0.
          5    1    3    3  502    0  0.99763268176E+02  0.55879292628E+02 -0.19899640704E+03  0.22954791970E+03  0.41800000000E+01 0. -1.
         -5    1    3    3    0  502 -0.29722724738E+02 -0.13887460556E+02 -0.35755872617E+02  0.48705818474E+02  0.41800000000E+01 0. -1.
        -11    1    4    4    0    0 -0.11623002286E+02 -0.68316501292E+01  0.71952271470E+01  0.15281914779E+02  0.00000000000E+00 0.  1.
         11    1    4    4    0    0 -0.58417541152E+02 -0.35160181942E+02 -0.22619213004E+03  0.23624505751E+03  0.00000000000E+00 0. -1.
</event>
<event>
 8    1  0.6380238E-009  0.1236794E+03  0.7561462E-02  0.1237148E+00
          3   -1    0    0  501    0  0.00000000000E+00  0.00000000000E+00  0.83653900291E+02  0.83653900291E+02  0.00000000000E+00 0. -1.
         -3   -1    0    0    0  501 -0.00000000000E+00 -0.00000000000E+00 -0.18558559232E+03  0.18558559232E+03  0.00000000000E+00 0.  1.
         25    2    1    2    0    0  0.96284874120E+00  0.58002641100E+02 -0.56603263999E+02  0.14908418519E+03  0.12512766012E+03 0.  0.
         23    2    1    2    0    0 -0.96284874120E+00 -0.58002641100E+02 -0.45328428030E+02  0.12015530742E+03  0.94959981368E+02 0.  0.
          5    1    3    3  502    0  0.11289419194E+02  0.96790781410E+02 -0.38665424918E+02  0.10492089323E+03  0.41800000000E+01 0. -1.
         -5    1    3    3    0  502 -0.10326570453E+02 -0.38788140310E+02 -0.17937839081E+02  0.44163291962E+02  0.41800000000E+01 0. -1.
        -11    1    4    4    0    0 -0.22061343299E+01  0.25679764977E+02 -0.18420039433E+01  0.25840091650E+02  0.00000000000E+00 0. -1.
         11    1    4    4    0    0  0.12432855887E+01 -0.83682406077E+02 -0.43486424086E+02  0.94315215770E+02  0.00000000000E+00 0.  1.
</event>
<event>
 8    1  0.6380238E-009  0.1714794E+03  0.7561462E-02  0.1176314E+00
         -1   -1    0    0    0  501 -0.00000000000E+00  0.00000000000E+00  0.59149459422E+02  0.59149459422E+02  0.00000000000E+00 0.  1.
          1   -1    0    0  501    0  0.00000000000E+00 -0.00000000000E+00 -0.57940272736E+03  0.57940272736E+03  0.00000000000E+00 0. -1.
         25    2    1    2    0    0 -0.81932637755E+02 -0.10181876505E+03 -0.38596296443E+03  0.42625721983E+03  0.12509112478E+03 0.  0.
         23    2    1    2    0    0  0.81932637755E+02  0.10181876505E+03 -0.13429030351E+03  0.21229496696E+03  0.99775995781E+02 0.  0.
          5    1    3    3  502    0 -0.47875703385E+02  0.20855138437E+02 -0.13520751386E+03  0.14500194474E+03  0.41800000000E+01 0. -1.
         -5    1    3    3    0  502 -0.34056934370E+02 -0.12267390348E+03 -0.25075545058E+03  0.28125527509E+03  0.41800000000E+01 0. -1.
        -11    1    4    4    0    0  0.61060580444E+02  0.18756118324E+01 -0.37947176823E+02  0.71915927532E+02  0.00000000000E+00 0. -1.
         11    1    4    4    0    0  0.20872057311E+02  0.99943153213E+02 -0.96343126683E+02  0.14037903942E+03  0.00000000000E+00 0.  1.
</event>
<event>
 8    1  0.6380238E-009  0.2115382E+03  0.7561462E-02  0.1140354E+00
          1   -1    0    0  501    0  0.00000000000E+00  0.00000000000E+00  0.49539538273E+03  0.49539538273E+03  0.00000000000E+00 0. -1.
         -1   -1    0    0    0  501 -0.00000000000E+00 -0.00000000000E+00 -0.10547483176E+03  0.10547483176E+03  0.00000000000E+00 0.  1.
         25    2    1    2    0    0 -0.62845461295E+02  0.17333991476E+03  0.30518660457E+03  0.37786566433E+03  0.12508924259E+03 0.  0.
         23    2    1    2    0    0  0.62845461295E+02 -0.17333991476E+03  0.84733946397E+02  0.22300455016E+03  0.92492754669E+02 0.  0.
          5    1    3    3  502    0 -0.83405573746E+01 -0.16659921998E+02  0.75167098139E+01  0.20520507419E+02  0.41800000000E+01 0.  1.
         -5    1    3    3    0  502 -0.54504903920E+02  0.18999983676E+03  0.29766989476E+03  0.35734515691E+03  0.41800000000E+01 0.  1.
        -11    1    4    4    0    0 -0.24116234658E+02 -0.28499341601E+02  0.14770442737E+02  0.40149361445E+02  0.00000000000E+00 0. -1.
         11    1    4    4    0    0  0.86961695953E+02 -0.14484057316E+03  0.69963503659E+02  0.18285518872E+03  0.00000000000E+00 0.  1.
</event>
<event>
 8    1  0.6380238E-009  0.1168424E+03  0.7561462E-02  0.1248399E+00
         -2   -1    0    0    0  501 -0.00000000000E+00  0.00000000000E+00  0.43187613220E+02  0.43187613220E+02  0.00000000000E+00 0. -1.
          2   -1    0    0  501    0  0.00000000000E+00 -0.00000000000E+00 -0.35796962312E+03  0.35796962312E+03  0.00000000000E+00 0.  1.
         25    2    1    2    0    0 -0.49483923548E+02 -0.25470433219E+02 -0.21259148494E+03  0.25286363840E+03  0.12508988168E+03 0.  0.
         23    2    1    2    0    0  0.49483923548E+02  0.25470433219E+02 -0.10219052496E+03  0.14829359794E+03  0.91927613590E+02 0.  0.
          5    1    3    3  502    0 -0.80635508379E+02  0.70142188453E+01 -0.84747944867E+02  0.11726453444E+03  0.41800000000E+01 0. -1.
         -5    1    3    3    0  502  0.31151584831E+02 -0.32484652064E+02 -0.12784354007E+03  0.13559910396E+03  0.41800000000E+01 0. -1.
        -11    1    4    4    0    0  0.73201300308E+02  0.35895059927E+02 -0.76131040563E+02  0.11154739365E+03  0.00000000000E+00 0.  1.
         11    1    4    4    0    0 -0.23717376760E+02 -0.10424626708E+02 -0.26059484402E+02  0.36746204289E+02  0.00000000000E+00 0. -1.
</event>
<event>
 8    1  0.6380238E-009  0.1288753E+03  0.7561462E-02  0.1229134E+00
         -1   -1    0    0    0  501 -0.00000000000E+00  0.00000000000E+00  0.26729929439E+03  0.26729929439E+03  0.00000000000E+00 0.  1.
          1   -1    0    0  501    0  0.00000000000E+00 -0.00000000000E+00 -0.74276693795E+02  0.74276693795E+02  0.00000000000E+00 0. -1.
         25    2    1    2    0    0  0.18326239029E+02 -0.82814020400E+02  0.67720071970E+02  0.16561423314E+03  0.12509217825E+03 0.  0.
         23    2    1    2    0    0 -0.18326239029E+02  0.82814020400E+02  0.12530252863E+03  0.17596175504E+03  0.89820947143E+02 0.  0.
          5    1    3    3  502    0  0.30481339081E+02 -0.10549475566E+03  0.20658824303E+02  0.11181464540E+03  0.41800000000E+01 0.  1.
         -5    1    3    3    0  502 -0.12155100052E+02  0.22680735263E+02  0.47061247667E+02  0.53799587743E+02  0.41800000000E+01 0.  1.
        -11    1    4    4    0    0 -0.39281304442E+01 -0.18777730369E+02  0.31819004198E+02  0.37154843489E+02  0.00000000000E+00 0.  1.
         11    1    4    4    0    0 -0.14398108584E+02  0.10159175077E+03  0.93483524428E+02  0.13880691155E+03  0.00000000000E+00 0. -1.
</event>
<event>
 8    1  0.6380238E-009  0.1738521E+03  0.7561462E-02  0.1173889E+00
          2   -1    0    0  501    0  0.00000000000E+00  0.00000000000E+00  0.15886128133E+03  0.15886128133E+03  0.00000000000E+00 0. -1.
         -2   -1    0    0    0  501 -0.00000000000E+00 -0.00000000000E+00 -0.24417164257E+03  0.24417164257E+03  0.00000000000E+00 0.  1.
         25    2    1    2    0    0 -0.61035358171E+02  0.15092608748E+03 -0.45977088866E+02  0.21038717528E+03  0.12507946272E+03 0.  0.
         23    2    1    2    0    0  0.61035358171E+02 -0.15092608748E+03 -0.39333272375E+02  0.19264574861E+03  0.95190752243E+02 0.  0.
          5    1    3    3  502    0 -0.79157761083E+00  0.75638680865E+02  0.35888609267E+02  0.83829000431E+02  0.41800000000E+01 0.  1.
         -5    1    3    3    0  502 -0.60243780560E+02  0.75287406617E+02 -0.81865698133E+02  0.12655817485E+03  0.41800000000E+01 0.  1.
        -11    1    4    4    0    0  0.63479608617E+02 -0.70108544598E+02 -0.56249891081E+02  0.11004053336E+03  0.00000000000E+00 0. -1.
         11    1    4    4    0    0 -0.24442504461E+01 -0.80817542885E+02  0.16916618705E+02  0.82605215250E+02  0.00000000000E+00 0.  1.
</event>
<event>
 8    1  0.6380238E-009  0.2177929E+03  0.7561462E-02  0.1135539E+00
         -2   -1    0    0    0  501 -0.00000000000E+00  0.00000000000E+00  0.33821696833E+02  0.33821696833E+02  0.00000000000E+00 0.  1.
          2   -1    0    0  501    0  0.00000000000E+00 -0.00000000000E+00 -0.18417911573E+04  0.18417911573E+04  0.00000000000E+00 0. -1.
         25    2    1    2    0    0  0.19710223335E+03  0.63562159447E+02 -0.12549519483E+04  0.12780613035E+04  0.12508742732E+03 0.  0.
         23    2    1    2    0    0 -0.19710223335E+03 -0.63562159447E+02 -0.55301751217E+03  0.59755155063E+03  0.91378599161E+02 0.  0.
          5    1    3    3  502    0  0.96160241368E+02  0.64805678310E+02 -0.94404570407E+03  0.95115000486E+03  0.41800000000E+01 0. -1.
         -5    1    3    3    0  502  0.10094199199E+03 -0.12435188632E+01 -0.31090624421E+03  0.32691129863E+03  0.41800000000E+01 0. -1.
        -11    1    4    4    0    0 -0.91479627070E+02 -0.66100541425E+02 -0.36295250442E+03  0.38009515152E+03  0.00000000000E+00 0. -1.
         11    1    4    4    0    0 -0.10562260628E+03  0.25383819784E+01 -0.19006500775E+03  0.21745639911E+03  0.00000000000E+00 0.  1.
</event>
<event>
 8    1  0.6380238E-009  0.1238378E+03  0.7561462E-02  0.1236897E+00
         -2   -1    0    0    0  501 -0.00000000000E+00  0.00000000000E+00  0.43601297451E+02  0.43601297451E+02  0.00000000000E+00 0.  1.
          2   -1    0    0  501    0  0.00000000000E+00 -0.00000000000E+00 -0.47976935575E+03  0.47976935575E+03  0.00000000000E+00 0. -1.
         25    2    1    2    0    0 -0.48840089568E+02  0.44469912144E+02 -0.17437494034E+03  0.22450929005E+03  0.12503949003E+03 0.  0.
         23    2    1    2    0    0  0.48840089568E+02 -0.44469912144E+02 -0.26179311797E+03  0.29886136315E+03  0.12813879325E+03 0.  0.
          5    1    3    3  502    0  0.31520004634E+02  0.33467093739E+02 -0.11495074466E+03  0.12387373876E+03  0.41800000000E+01 0. -1.
         -5    1    3    3    0  502 -0.80360094201E+02  0.11002818406E+02 -0.59424195673E+02  0.10063555129E+03  0.41800000000E+01 0. -1.
        -11    1    4    4    0    0  0.54988400001E+02  0.17742209308E+02 -0.20961365431E+03  0.21743135514E+03  0.00000000000E+00 0. -1.
         11    1    4    4    0    0 -0.61483104335E+01 -0.62212121452E+02 -0.52179463654E+02  0.81430008007E+02  0.00000000000E+00 0.  1.
</event>
<event>
 8    1  0.6380238E-009  0.9075143E+02  0.7561462E-02  0.1301042E+00
          1   -1    0    0  501    0  0.00000000000E+00  0.00000000000E+00  0.29462344604E+03  0.29462344604E+03  0.00000000000E+00 0. -1.
         -1   -1    0    0    0  501 -0.00000000000E+00 -0.00000000000E+00 -0.42379169137E+02  0.42379169137E+02  0.00000000000E+00 0.  1.
         25    2    1    2    0    0 -0.81705229199E+01 -0.29973768068E+02  0.13112400535E+03  0.18386409451E+03  0.12508923316E+03 0.  0.
         23    2    1    2    0    0  0.81705229199E+01  0.29973768068E+02  0.12112027156E+03  0.15313852067E+03  0.88408721938E+02 0.  0.
          5    1    3    3  502    0 -0.61004689964E+02 -0.86396946024E+00  0.35456539906E+02  0.70689159444E+02  0.41800000000E+01 0.  1.
         -5    1    3    3    0  502  0.52834167044E+02 -0.29109798607E+02  0.95667465444E+02  0.11317493506E+03  0.41800000000E+01 0.  1.
        -11    1    4    4    0    0  0.29206490314E+02  0.99926568373E+01  0.12021117643E+03  0.12411123723E+03  0.00000000000E+00 0. -1.
         11    1    4    4    0    0 -0.21035967394E+02  0.19981111230E+02  0.90909512521E+00  0.29027283444E+02  0.00000000000E+00 0.  1.
</event>
<event>
 8    1  0.6380238E-009  0.1523195E+03  0.7561462E-02  0.1197651E+00
          2   -1    0    0  501    0  0.00000000000E+00  0.00000000000E+00  0.57925148084E+03  0.57925148084E+03  0.00000000000E+00 0. -1.
         -2   -1    0    0    0  501 -0.00000000000E+00 -0.00000000000E+00 -0.52963929918E+02  0.52963929918E+02  0.00000000000E+00 0.  1.
         25    2    1    2    0    0  0.25316359628E+02  0.11887227664E+03  0.16684464858E+03  0.24136709376E+03  0.12509756580E+03 0.  0.
         23    2    1    2    0    0 -0.25316359628E+02 -0.11887227664E+03  0.35944290233E+03  0.39084831700E+03  0.93763909068E+02 0.  0.
          5    1    3    3  502    0  0.60236439469E+02  0.87547606496E+02  0.16231453884E+03  0.19405281230E+03  0.41800000000E+01 0.  1.
         -5    1    3    3    0  502 -0.34920079841E+02  0.31324670140E+02  0.45301097451E+01  0.47314281457E+02  0.41800000000E+01 0.  1.
        -11    1    4    4    0    0  0.32022333268E+02 -0.65258753963E+02  0.20678897159E+03  0.21919355275E+03  0.00000000000E+00 0.  1.
         11    1    4    4    0    0 -0.57338692897E+02 -0.53613522672E+02  0.15265393074E+03  0.17165476424E+03  0.00000000000E+00 0. -1.
</event>
<event>
 8    1  0.6380238E-009  0.1431556E+03  0.7561462E-02  0.1209145E+00
          2   -1    0    0  501    0  0.00000000000E+00  0.00000000000E+00  0.10620218758E+04  0.10620218758E+04  0.00000000000E+00 0. -1.
         -2   -1    0    0    0  501 -0.00000000000E+00 -0.00000000000E+00 -0.22073162114E+02  0.22073162114E+02  0.00000000000E+00 0.  1.
         25    2    1    2    0    0  0.24127744131E+02 -0.96940401662E+02  0.67969671239E+03  0.69829430706E+03  0.12509088268E+03 0.  0.
         23    2    1    2    0    0 -0.24127744131E+02  0.96940401662E+02  0.36025200125E+03  0.38580073080E+03  0.95294858072E+02 0.  0.
          5    1    3    3  502    0 -0.12107342992E+02 -0.11616187577E+03  0.54678303691E+03  0.55913265957E+03  0.41800000000E+01 0.  1.
         -5    1    3    3    0  502  0.36235087123E+02  0.19221474103E+02  0.13291367548E+03  0.13916164750E+03  0.41800000000E+01 0.  1.
        -11    1    4    4    0    0  0.71784590564E+01  0.96641434590E+02  0.32255748131E+03  0.33680027598E+03  0.00000000000E+00 0. -1.
         11    1    4    4    0    0 -0.31306203187E+02  0.29896707203E+00  0.37694519941E+02  0.49000454823E+02  0.00000000000E+00 0.  1.
</event>
<event>
 8    1  0.6380238E-009  0.2333497E+03  0.7561462E-02  0.1124304E+00
          1   -1    0    0  501    0  0.00000000000E+00  0.00000000000E+00  0.45089949207E+03  0.45089949207E+03  0.00000000000E+00 0.  1.
         -1   -1    0    0    0  501 -0.00000000000E+00 -0.00000000000E+00 -0.12867740927E+03  0.12867740927E+03  0.00000000000E+00 0. -1.
         25    2    1    2    0    0  0.21030031731E+03 -0.42066565238E+02  0.17329720794E+03  0.30277914404E+03  0.12508984138E+03 0.  0.
         23    2    1    2    0    0 -0.21030031731E+03  0.42066565238E+02  0.14892487487E+03  0.27679775730E+03  0.91883408302E+02 0.  0.
          5    1    3    3  502    0  0.20434874181E+03  0.11815522502E+01  0.14086230867E+03  0.24823268671E+03  0.41800000000E+01 0. -1.
         -5    1    3    3    0  502  0.59515754952E+01 -0.43248117488E+02  0.32434899267E+02  0.54546457333E+02  0.41800000000E+01 0. -1.
        -11    1    4    4    0    0 -0.95897686829E+01 -0.69457172640E+01 -0.10504708362E+02  0.15828946569E+02  0.00000000000E+00 0. -1.
         11    1    4    4    0    0 -0.20071054862E+03  0.49012282502E+02  0.15942958323E+03  0.26096881073E+03  0.00000000000E+00 0.  1.
</event>
<event>
 8    1  0.6380238E-009  0.1075996E+03  0.7561462E-02  0.1265081E+00
          3   -1    0    0  501    0  0.00000000000E+00  0.00000000000E+00  0.58279616031E+02  0.58279616031E+02  0.00000000000E+00 0.  1.
         -3   -1    0    0    0  501 -0.00000000000E+00 -0.00000000000E+00 -0.21872978230E+03  0.21872978230E+03  0.00000000000E+00 0. -1.
         25    2    1    2    0    0  0.25700552700E+02  0.18690189375E+02 -0.98099810047E+02  0.16211445858E+03  0.12509070053E+03 0.  0.
         23    2    1    2    0    0 -0.25700552700E+02 -0.18690189375E+02 -0.62350356225E+02  0.11489493976E+03  0.91123206005E+02 0.  0.
          5    1    3    3  502    0 -0.29685617716E+02  0.54985527585E+02 -0.50597231597E+02  0.80512088460E+02  0.41800000000E+01 0. -1.
         -5    1    3    3    0  502  0.55386170416E+02 -0.36295338210E+02 -0.47502578450E+02  0.81602370115E+02  0.41800000000E+01 0. -1.
        -11    1    4    4    0    0 -0.35647751122E+02  0.23616570724E+02 -0.51692553664E+01  0.43072331883E+02  0.00000000000E+00 0.  1.
         11    1    4    4    0    0  0.99471984216E+01 -0.42306760100E+02 -0.57181100859E+02  0.71822607875E+02  0.00000000000E+00 0. -1.
</event>
<event>
 7    1  0.6380238E-009  0.1825354E+03  0.7561462E-02  0.1165372E+00
         -2   -1    0    0    0  501 -0.00000000000E+00  0.00000000000E+00  0.48801323536E+02  0.48801323536E+02  0.00000000000E+00 0.  1.
          2   -1    0    0  501    0  0.00000000000E+00 -0.00000000000E+00 -0.72994295913E+03  0.72994295913E+03  0.00000000000E+00 0. -1.
         23    2    1    2    0    0  0.54210486488E+02  0.14419270303E+03 -0.34289740442E+03  0.38655019190E+03  0.90067244040E+02 0.  0.
          5    1    1    2  502    0 -0.33842099276E+02  0.14865872498E+02 -0.79262580994E+02  0.87557472521E+02  0.41800000000E+01 0. -1.
         -5    1    1    2    0  502 -0.20368387212E+02 -0.15905857552E+03 -0.25898165018E+03  0.30463661824E+03  0.41800000000E+01 0. -1.
        -11    1    3    3    0    0 -0.11330406789E+02  0.58443119511E+02 -0.19207233930E+03  0.20108644872E+03  0.00000000000E+00 0. -1.
         11    1    3    3    0    0  0.65540893277E+02  0.85749583514E+02 -0.15082506512E+03  0.18546374317E+03  0.00000000000E+00 0.  1.
</event>
<event>
 8    1  0.6380238E-009  0.1524563E+03  0.7561462E-02  0.1197487E+00
         -2   -1    0    0    0  501 -0.00000000000E+00  0.00000000000E+00  0.41524810505E+02  0.41524810505E+02  0.00000000000E+00 0.  1.
          2   -1    0    0  501    0  0.00000000000E+00 -0.00000000000E+00 -0.67657795554E+03  0.67657795554E+03  0.00000000000E+00 0. -1.
         25    2    1    2    0    0  0.12145848788E+03  0.20043402507E+02 -0.40032854903E+03  0.43710894113E+03  0.12508947590E+03 0.  0.
         23    2    1    2    0    0 -0.12145848788E+03 -0.20043402507E+02 -0.23472459600E+03  0.28099382491E+03  0.93316619156E+02 0.  0.
          5    1    3    3  502    0  0.85662969755E+01 -0.36203278029E+02 -0.17393407394E+03  0.17791737762E+03  0.41800000000E+01 0. -1.
         -5    1    3    3    0  502  0.11289219090E+03  0.56246680536E+02 -0.22639447510E+03  0.25919156351E+03  0.41800000000E+01 0. -1.
        -11    1    4    4    0    0 -0.75785097225E+02 -0.46089845950E+02 -0.87219753758E+02  0.12439831312E+03  0.00000000000E+00 0.  1.
         11    1    4    4    0    0 -0.45673390654E+02  0.26046443443E+02 -0.14750484224E+03  0.15659551179E+03  0.00000000000E+00 0. -1.
</event>
<event>
 8    1  0.6380238E-009  0.1466945E+03  0.7561462E-02  0.1204595E+00
          1   -1    0    0  501    0  0.00000000000E+00  0.00000000000E+00  0.11574686258E+03  0.11574686258E+03  0.00000000000E+00 0. -1.
         -1   -1    0    0    0  501 -0.00000000000E+00 -0.00000000000E+00 -0.22707885110E+03  0.22707885110E+03  0.00000000000E+00 0.  1.
         25    2    1    2    0    0  0.15641101329E+02  0.11770370378E+03 -0.41416365310E+02  0.17736755837E+03  0.12508049214E+03 0.  0.
         23    2    1    2    0    0 -0.15641101329E+02 -0.11770370378E+03 -0.69915623206E+02  0.16545815531E+03  0.91593672567E+02 0.  0.
          5    1    3    3  502    0  0.35877288519E+02  0.11834599134E+03  0.78047117083E+01  0.12398120592E+03  0.41800000000E+01 0. -1.
         -5    1    3    3    0  502 -0.20236187190E+02 -0.64228755472E+00 -0.49221077018E+02  0.53386352452E+02  0.41800000000E+01 0. -1.
        -11    1    4    4    0    0 -0.17107207566E+02 -0.13275753861E+03 -0.56685245551E+02  0.14536312349E+03  0.00000000000E+00 0. -1.
         11    1    4    4    0    0  0.14661062368E+01  0.15053834830E+02 -0.13230377655E+02  0.20095031811E+02  0.00000000000E+00 0.  1.
</event>
<event>
 8    1  0.6380238E-009  0.1434355E+03  0.7561462E-02  0.1208780E+00
         -2   -1    0    0    0  501 -0.00000000000E+00  0.00000000000E+00  0.22569976917E+02  0.22569976917E+02  0.00000000000E+00 0.  1.
          2   -1    0    0  501    0  0.00000000000E+00 -0.00000000000E+00 -0.10625800389E+04  0.10625800389E+04  0.00000000000E+00 0. -1.
         25    2    1    2    0    0  0.43665162503E+01 -0.11007568101E+03 -0.52235906070E+03  0.54830937237E+03  0.12509379491E+03 0.  0.
         23    2    1    2    0    0 -0.43665162503E+01  0.11007568101E+03 -0.51765100127E+03  0.53684064343E+03  0.89997751673E+02 0.  0.
          5    1    3    3  502    0 -0.38244223442E+02 -0.91330083393E+02 -0.20693716572E+03  0.22944338673E+03  0.41800000000E+01 0. -1.
         -5    1    3    3    0  502  0.42610739693E+02 -0.18745597617E+02 -0.31542189498E+03  0.31886598564E+03  0.41800000000E+01 0. -1.
        -11    1    4    4    0    0  0.39310265766E+02  0.28696492969E+02 -0.14661212850E+03  0.15447945471E+03  0.00000000000E+00 0.  1.
         11    1    4    4    0    0 -0.43676782016E+02  0.81379188042E+02 -0.37103887277E+03  0.38236118872E+03  0.00000000000E+00 0. -1.
</event>
<event>
 8    1  0.6380238E-009  0.2165897E+03  0.7561462E-02  0.1136451E+00
         -1   -1    0    0    0  501 -0.00000000000E+00  0.00000000000E+00  0.10047298074E+03  0.10047298074E+03  0.00000000000E+00 0.  1.
          1   -1    0    0  501    0  0.00000000000E+00 -0.00000000000E+00 -0.76958266981E+03  0.76958266981E+03  0.00000000000E+00 0. -1.
         25    2    1    2    0    0  0.15450397801E+03 -0.13118726066E+03 -0.58575772907E+03  0.63232972258E+03  0.12508870577E+03 0.  0.
         23    2    1    2    0    0 -0.15450397801E+03  0.13118726066E+03 -0.83351959997E+02  0.23772592797E+03  0.92111296888E+02 0.  0.
          5    1    3    3  502    0  0.10420516769E+03 -0.35684549850E+02 -0.42197391828E+03  0.43613250759E+03  0.41800000000E+01 0. -1.
         -5    1    3    3    0  502  0.50298810318E+02 -0.95502710808E+02 -0.16378381079E+03  0.19619721499E+03  0.41800000000E+01 0. -1.
        -11    1    4    4    0    0 -0.12375053165E+03  0.60291801218E+02 -0.82415501831E+02  0.16044192195E+03  0.00000000000E+00 0. -1.
         11    1    4    4    0    0 -0.30753446360E+02  0.70895459440E+02 -0.93645816554E+00  0.77284006018E+02  0.00000000000E+00 0.  1.
</event>
<event>
 8    1  0.6380238E-009  0.1367164E+03  0.7561462E-02  0.1217817E+00
         -1   -1    0    0    0  501 -0.00000000000E+00  0.00000000000E+00  0.32507454102E+03  0.32507454102E+03  0.00000000000E+00 0.  1.
          1   -1    0    0  501    0  0.00000000000E+00 -0.00000000000E+00 -0.63644964658E+02  0.63644964658E+02  0.00000000000E+00 0. -1.
         25    2    1    2    0    0  0.16553857168E+02 -0.90944222490E+02  0.11932872994E+03  0.19604004791E+03  0.12508985893E+03 0.  0.
         23    2    1    2    0    0 -0.16553857168E+02  0.90944222490E+02  0.14210084643E+03  0.19267945777E+03  0.91585157628E+02 0.  0.
          5    1    3    3  502    0  0.70492746694E+02 -0.41677936081E+02  0.69780411673E+02  0.10767105435E+03  0.41800000000E+01 0. -1.
         -5    1    3    3    0  502 -0.53938889527E+02 -0.49266286409E+02  0.49548318262E+02  0.88368993558E+02  0.41800000000E+01 0. -1.
        -11    1    4    4    0    0  0.23387233444E+02  0.68642806528E+02  0.12366446049E+03  0.14335862850E+03  0.00000000000E+00 0.  1.
         11    1    4    4    0    0 -0.39941090612E+02  0.22301415963E+02  0.18436385935E+02  0.49320829266E+02  0.00000000000E+00 0. -1.
</event>
<event>
 8    1  0.6380238E-009  0.8771254E+02  0.7561462E-02  0.1308488E+00
          2   -1    0    0  501    0  0.00000000000E+00  0.00000000000E+00  0.17431109883E+03  0.17431109883E+03  0.00000000000E+00 0. -1.
         -2   -1    0    0    0  501 -0.00000000000E+00 -0.00000000000E+00 -0.75809587685E+02  0.75809587685E+02  0.00000000000E+00 0.  1.
         25    2    1    2    0    0 -0.54898704853E+01 -0.22917940118E+02  0.83958427953E+02  0.15248583750E+03  0.12509013693E+03 0.  0.
         23    2    1    2    0    0  0.54898704853E+01  0.22917940118E+02  0.14543083189E+02  0.97634849011E+02  0.93625273380E+02 0.  0.
          5    1    3    3  502    0  0.73751000824E+01  0.32152062182E+02  0.89530569942E+02  0.95505720027E+02  0.41800000000E+01 0.  1.
         -5    1    3    3    0  502 -0.12864970568E+02 -0.55070002300E+02 -0.55721419889E+01  0.56980117474E+02  0.41800000000E+01 0.  1.
        -11    1    4    4    0    0  0.42055158384E+02  0.24854618777E+02 -0.14435285182E+02  0.50938844505E+02  0.00000000000E+00 0.  1.
         11    1    4    4    0    0 -0.36565287899E+02 -0.19366786590E+01  0.28978368371E+02  0.46696004505E+02  0.00000000000E+00 0. -1.
</event>
<event>
 8    1  0.6380238E-009  0.1007649E+03  0.7561462E-02  0.1278696E+00
         -2   -1    0    0    0  501 -0.00000000000E+00  0.00000000000E+00  0.72385014446E+02  0.72385014446E+02  0.00000000000E+00 0.  1.
          2   -1    0    0  501    0  0.00000000000E+00 -0.00000000000E+00 -0.20905924040E+03  0.20905924040E+03  0.00000000000E+00 0. -1.
         25    2    1    2    0    0  0.25500318173E+02 -0.13050830156E+02 -0.13786997977E+02  0.12906317938E+03  0.12508650032E+03 0.  0.
         23    2    1    2    0    0 -0.25500318173E+02  0.13050830156E+02 -0.12288722798E+03  0.15238107547E+03  0.85429099060E+02 0.  0.
          5    1    3    3  502    0  0.71580411384E+02 -0.14043448475E+02  0.14961791284E+02  0.74580837602E+02  0.41800000000E+01 0.  1.
         -5    1    3    3    0  502 -0.46080093211E+02  0.99261831875E+00 -0.28748789262E+02  0.54482341777E+02  0.41800000000E+01 0.  1.
        -11    1    4    4    0    0 -0.36810653636E+02 -0.23668644629E+02 -0.33587873897E+02  0.55166785593E+02  0.00000000000E+00 0.  1.
         11    1    4    4    0    0  0.11310335463E+02  0.36719474785E+02 -0.89299354082E+02  0.97214289877E+02  0.00000000000E+00 0. -1.
</event>
<event>
 7    1  0.6380238E-009  0.1281985E+03  0.7561462E-02  0.1230154E+00
          2   -1    0    0  501    0  0.00000000000E+00  0.00000000000E+00  0.55996375721E+03  0.55996375721E+03  0.00000000000E+00 0. -1.
         -2   -1    0    0    0  501 -0.00000000000E+00 -0.00000000000E+00 -0.50493681700E+02  0.50493681700E+02  0.00000000000E+00 0.  1.
         23    2    1    2    0    0  0.10422158113E+03 -0.31051120510E+02  0.14480313788E+03  0.20992999060E+03  0.10619012269E+03 0.  0.
          5    1    1    2  502    0 -0.29390538702E+02  0.34788351224E+02  0.29371629374E+03  0.29725538978E+03  0.41800000000E+01 0.  1.
         -5    1    1    2    0  502 -0.74831042425E+02 -0.37372307137E+01  0.70950643884E+02  0.10327205852E+03  0.41800000000E+01 0.  1.
        -11    1    3    3    0    0  0.72927953971E+02  0.20110457099E+02  0.31928417783E+02  0.82111758093E+02  0.00000000000E+00 0.  1.
         11    1    3    3    0    0  0.31293627157E+02 -0.51161577609E+02  0.11287472010E+03  0.12781823251E+03  0.00000000000E+00 0. -1.
</event>
<event>
 8    1  0.6380238E-009  0.2481506E+03  0.7561462E-02  0.1114479E+00
          2   -1    0    0  501    0  0.00000000000E+00  0.00000000000E+00  0.84708887880E+03  0.84708887880E+03  0.00000000000E+00 0. -1.
         -2   -1    0    0    0  501 -0.00000000000E+00 -0.00000000000E+00 -0.84153049982E+02  0.84153049982E+02  0.00000000000E+00 0.  1.
         25    2    1    2    0    0 -0.23665501700E+03 -0.17470144987E+02  0.48547508841E+03  0.55465875886E+03  0.12509785881E+03 0.  0.
         23    2    1    2    0    0  0.23665501700E+03  0.17470144987E+02  0.27746074041E+03  0.37658316992E+03  0.92301778759E+02 0.  0.
          5    1    3    3  502    0 -0.94354386850E+02 -0.43084868572E+02  0.10517050231E+03  0.14777470410E+03  0.41800000000E+01 0. -1.
         -5    1    3    3    0  502 -0.14230063015E+03  0.25614723586E+02  0.38030458610E+03  0.40688405476E+03  0.41800000000E+01 0. -1.
        -11    1    4    4    0    0  0.21064363209E+03  0.38821237822E+02  0.20405585969E+03  0.29583208433E+03  0.00000000000E+00 0.  1.
         11    1    4    4    0    0  0.26011384906E+02 -0.21351092835E+02  0.73404880721E+02  0.80751085588E+02  0.00000000000E+00 0. -1.
</event>
<event>
 8    1  0.6380238E-009  0.1550910E+03  0.7561462E-02  0.1194353E+00
          1   -1    0    0  501    0  0.00000000000E+00  0.00000000000E+00  0.28550606091E+02  0.28550606091E+02  0.00000000000E+00 0. -1.
         -1   -1    0    0    0  501 -0.00000000000E+00 -0.00000000000E+00 -0.11097761803E+04  0.11097761803E+04  0.00000000000E+00 0.  1.
         25    2    1    2    0    0  0.13573275156E+03  0.28758500025E+02 -0.49254681013E+03  0.52678365109E+03  0.12509286035E+03 0.  0.
         23    2    1    2    0    0 -0.13573275156E+03 -0.28758500025E+02 -0.58867876410E+03  0.61154313533E+03  0.90509048698E+02 0.  0.
          5    1    3    3  502    0  0.51522402004E+02 -0.88581673552E+01 -0.36816370459E+03  0.37188037165E+03  0.41800000000E+01 0.  1.
         -5    1    3    3    0  502  0.84210349556E+02  0.37616667380E+02 -0.12438310554E+03  0.15490327944E+03  0.41800000000E+01 0.  1.
        -11    1    4    4    0    0 -0.11129316488E+02  0.26773277207E+02 -0.11641218469E+03  0.11996860757E+03  0.00000000000E+00 0.  1.
         11    1    4    4    0    0 -0.12460343507E+03 -0.55531777232E+02 -0.47226657941E+03  0.49157452776E+03  0.00000000000E+00 0. -1.
</event>
<event>
 8    1  0.6380238E-009  0.1300441E+03  0.7561462E-02  0.1227390E+00
         -3   -1    0    0    0  501 -0.00000000000E+00  0.00000000000E+00  0.88706845379E+02  0.88706845379E+02  0.00000000000E+00 0.  1.
          3   -1    0    0  501    0  0.00000000000E+00 -0.00000000000E+00 -0.22649300469E+03  0.22649300469E+03  0.00000000000E+00 0. -1.
         25    2    1    2    0    0 -0.19352900754E+02 -0.81789045801E+02 -0.36079398516E+02  0.15496574668E+03  0.12509467161E+03 0.  0.
         23    2    1    2    0    0  0.19352900754E+02  0.81789045801E+02 -0.10170676080E+03  0.16023410339E+03  0.90921504151E+02 0.  0.
          5    1    3    3  502    0  0.45382003188E+02 -0.51896266209E+01 -0.29154878626E+02  0.54350140620E+02  0.41800000000E+01 0.  1.
         -5    1    3    3    0  502 -0.64734903941E+02 -0.76599419180E+02 -0.69245198903E+01  0.10061560606E+03  0.41800000000E+01 0.  1.
        -11    1    4    4    0    0  0.26251002757E+02 -0.50479724268E+01 -0.54810736859E+00  0.26737568944E+02  0.00000000000E+00 0.  1.
         11    1    4    4    0    0 -0.68981020028E+01  0.86837018228E+02 -0.10115865343E+03  0.13349653445E+03  0.00000000000E+00 0. -1.
</event>
<event>
 8    1  0.6380238E-009  0.1786702E+03  0.7561462E-02  0.1169096E+00
          2   -1    0    0  501    0  0.00000000000E+00  0.00000000000E+00  0.16353100339E+04  0.16353100339E+04  0.00000000000E+00 0. -1.
         -2   -1    0    0    0  501 -0.00000000000E+00 -0.00000000000E+00 -0.23932821286E+02  0.23932821286E+02  0.00000000000E+00 0.  1.
         25    2    1    2    0    0  0.14624888070E+03 -0.43252098107E+02  0.11174183328E+04  0.11346943034E+04  0.12509177738E+03 0.  0.
         23    2    1    2    0    0 -0.14624888070E+03  0.43252098107E+02  0.49395887985E+03  0.52454855174E+03  0.88861291118E+02 0.  0.
          5    1    3    3  502    0  0.15434799348E+03 -0.15133832426E+02  0.10453458810E+04  0.10567960159E+04  0.41800000000E+01 0.  1.
         -5    1    3    3    0  502 -0.80991127837E+01 -0.28118265681E+02  0.72072451768E+02  0.77898287507E+02  0.41800000000E+01 0.  1.
        -11    1    4    4    0    0 -0.62949063796E+02  0.60791430269E+02  0.30487662951E+03  0.31718754996E+03  0.00000000000E+00 0. -1.
         11    1    4    4    0    0 -0.83299816902E+02 -0.17539332162E+02  0.18908225034E+03  0.20736100179E+03  0.00000000000E+00 0.  1.
</event>
<event>
 8    1  0.6380238E-009  0.1195221E+03  0.7561462E-02  0.1243888E+00
         -1   -1    0    0    0  501 -0.00000000000E+00  0.00000000000E+00  0.67114361163E+02  0.67114361163E+02  0.00000000000E+00 0.  1.
          1   -1    0    0  501    0  0.00000000000E+00 -0.00000000000E+00 -0.29654503683E+03  0.29654503683E+03  0.00000000000E+00 0. -1.
         25    2    1    2    0    0  0.10017539767E+02 -0.62172538927E+02 -0.41958764985E+02  0.14619757452E+03  0.12508963640E+03 0.  0.
         23    2    1    2    0    0 -0.10017539767E+02  0.62172538927E+02 -0.18747191068E+03  0.21746182348E+03  0.90433133728E+02 0.  0.
          5    1    3    3  502    0 -0.24713994661E+02 -0.89559411723E+02 -0.41316888343E+02  0.10176555126E+03  0.41800000000E+01 0. -1.
         -5    1    3    3    0  502  0.34731534428E+02  0.27386872796E+02 -0.64187664187E+00  0.44432023259E+02  0.41800000000E+01 0. -1.
        -11    1    4    4    0    0 -0.43044677797E+02  0.18476464861E+02 -0.12947718088E+03  0.13769010280E+03  0.00000000000E+00 0. -1.
         11    1    4    4    0    0  0.33027138030E+02  0.43696074066E+02 -0.57994729807E+02  0.79771720682E+02  0.00000000000E+00 0.  1.
</event>
<event>
 8    1  0.6380238E-009  0.1234517E+03  0.7561462E-02  0.1237509E+00
         -1   -1    0    0    0  501 -0.00000000000E+00  0.00000000000E+00  0.17188134681E+03  0.17188134681E+03  0.00000000000E+00 0.  1.
          1   -1    0    0  501    0  0.00000000000E+00 -0.00000000000E+00 -0.11179998260E+03  0.11179998260E+03  0.00000000000E+00 0. -1.
         25    2    1    2    0    0  0.45804738004E+02 -0.45104939046E+02 -0.27171354491E+02  0.14324080911E+03  0.12508843807E+03 0.  0.
         23    2    1    2    0    0 -0.45804738004E+02  0.45104939046E+02  0.87252718696E+02  0.14044052030E+03  0.89319501081E+02 0.  0.
          5    1    3    3  502    0  0.87279251456E+02 -0.46382003894E+02 -0.18349904856E+02  0.10061386300E+03  0.41800000000E+01 0. -1.
         -5    1    3    3    0  502 -0.41474513452E+02  0.12770648477E+01 -0.88214496353E+01  0.42626946107E+02  0.41800000000E+01 0. -1.
        -11    1    4    4    0    0 -0.28281736287E+02  0.70189929620E+02  0.77516815538E+02  0.10832977208E+03  0.00000000000E+00 0. -1.
         11    1    4    4    0    0 -0.17523001717E+02 -0.25084990574E+02  0.97359031582E+01  0.32110748225E+02  0.00000000000E+00 0.  1.
</event>
<event>
 8    1  0.6380238E-009  0.1336159E+03  0.7561462E-02  0.1222187E+00
          1   -1    0    0  501    0  0.00000000000E+00  0.00000000000E+00  0.29860743984E+03  0.29860743984E+03  0.00000000000E+00 0. -1.
         -1   -1    0    0    0  501 -0.00000000000E+00 -0.00000000000E+00 -0.82235410777E+02  0.82235410777E+02  0.00000000000E+00 0.  1.
         25    2    1    2    0    0 -0.10813975831E+03  0.32759113962E+02  0.12151001514E+03  0.20779060943E+03  0.12507952156E+03 0.  0.
         23    2    1    2    0    0  0.10813975831E+03 -0.32759113962E+02  0.94862013921E+02  0.17305224118E+03  0.90448380956E+02 0.  0.
          5    1    3    3  502    0 -0.26023868286E+02 -0.21932812454E+02  0.10136297902E+03  0.10700568162E+03  0.41800000000E+01 0.  1.
         -5    1    3    3    0  502 -0.82115890026E+02  0.54691926416E+02  0.20147036117E+02  0.10078492781E+03  0.41800000000E+01 0. -1.
        -11    1    4    4    0    0  0.29881008418E+02  0.23328942363E+02  0.28937102606E-01  0.37909300352E+02  0.00000000000E+00 0.  1.
         11    1    4    4    0    0  0.78258749893E+02 -0.56088056325E+02  0.94833076818E+02  0.13514294083E+03  0.00000000000E+00 0. -1.
</event>
<event>
 8    1  0.6380238E-009  0.2183649E+03  0.7561462E-02  0.1135108E+00
         -1   -1    0    0    0  501 -0.00000000000E+00  0.00000000000E+00  0.11282020056E+04  0.11282020056E+04  0.00000000000E+00 0.  1.
          1   -1    0    0  501    0  0.00000000000E+00 -0.00000000000E+00 -0.45119698705E+02  0.45119698705E+02  0.00000000000E+00 0. -1.
         25    2    1    2    0    0  0.12904246066E+03 -0.14705359641E+03  0.49338961285E+03  0.54530453415E+03  0.12508800113E+03 0.  0.
         23    2    1    2    0    0 -0.12904246066E+03  0.14705359641E+03  0.58969269400E+03  0.62801717010E+03  0.91604452526E+02 0.  0.
          5    1    3    3  502    0  0.18732372289E+02 -0.10117286825E+03  0.30758408224E+03  0.32436444178E+03  0.41800000000E+01 0. -1.
         -5    1    3    3    0  502  0.11031008837E+03 -0.45880728167E+02  0.18580553061E+03  0.22094009238E+03  0.41800000000E+01 0. -1.
        -11    1    4    4    0    0 -0.53550166080E+02  0.12432707840E+03  0.33209762360E+03  0.35862748683E+03  0.00000000000E+00 0.  1.
         11    1    4    4    0    0 -0.75492294581E+02  0.22726518017E+02  0.25759507039E+03  0.26938968327E+03  0.00000000000E+00 0. -1.
</event>
<event>
 8    1  0.6380238E-009  0.3170761E+03  0.7561462E-02  0.1077003E+00
          1   -1    0    0  501    0  0.00000000000E+00  0.00000000000E+00  0.71803155408E+03  0.71803155408E+03  0.00000000000E+00 0. -1.
         -1   -1    0    0    0  501 -0.00000000000E+00 -0.00000000000E+00 -0.14681813310E+03  0.14681813310E+03  0.00000000000E+00 0.  1.
         25    2    1    2    0    0  0.15899034145E+03  0.26017599378E+03  0.26069527580E+03  0.42021282618E+03  0.12508923236E+03 0.  0.
         23    2    1    2    0    0 -0.15899034145E+03 -0.26017599378E+03  0.31051814518E+03  0.44463686100E+03  0.91164374930E+02 0.  0.
          5    1    3    3  502    0  0.12242384437E+03  0.82932146355E+02  0.13007261927E+03  0.19698146424E+03  0.41800000000E+01 0. -1.
         -5    1    3    3    0  502  0.36566497081E+02  0.17724384742E+03  0.13062265653E+03  0.22323136194E+03  0.41800000000E+01 0. -1.
        -11    1    4    4    0    0 -0.32244729584E+02 -0.43051026081E+02  0.13415364155E+02  0.55435416730E+02  0.00000000000E+00 0.  1.
         11    1    4    4    0    0 -0.12674561186E+03 -0.21712496770E+03  0.29710278103E+03  0.38920144427E+03  0.00000000000E+00 0. -1.
</event>
<event>
 8    1  0.6380238E-009  0.1069910E+03  0.7561462E-02  0.1266246E+00
          2   -1    0    0  501    0  0.00000000000E+00  0.00000000000E+00  0.81211183767E+02  0.81211183767E+02  0.00000000000E+00 0. -1.
         -2   -1    0    0    0  501 -0.00000000000E+00 -0.00000000000E+00 -0.19993244342E+03  0.19993244342E+03  0.00000000000E+00 0.  1.
         25    2    1    2    0    0 -0.85162462388E+01  0.50871089243E+02 -0.17294956334E+02  0.13640652799E+03  0.12508889316E+03 0.  0.
         23    2    1    2    0    0  0.85162462388E+01 -0.50871089243E+02 -0.10142630331E+03  0.14473709919E+03  0.89449084446E+02 0.  0.
          5    1    3    3  502    0 -0.41596280830E+02  0.69049160808E+02  0.20021192988E+02  0.83164642462E+02  0.41800000000E+01 0. -1.
         -5    1    3    3    0  502  0.33080034591E+02 -0.18178071565E+02 -0.37316149321E+02  0.53241885528E+02  0.41800000000E+01 0. -1.
        -11    1    4    4    0    0 -0.32331022871E+02 -0.42818337102E+02 -0.28474692283E+02  0.60741362618E+02  0.00000000000E+00 0. -1.
         11    1    4    4    0    0  0.40847269110E+02 -0.80527521404E+01 -0.72951611031E+02  0.83995736575E+02  0.00000000000E+00 0.  1.
</event>
<event>
 8    1  0.6380238E-009  0.8279779E+02  0.7561462E-02  0.1321294E+00
          1   -1    0    0  501    0  0.00000000000E+00  0.00000000000E+00  0.65610360465E+03  0.65610360465E+03  0.00000000000E+00 0. -1.
         -1   -1    0    0    0  501 -0.00000000000E+00 -0.00000000000E+00 -0.20801406643E+02  0.20801406643E+02  0.00000000000E+00 0.  1.
         25    2    1    2    0    0 -0.38260670933E+02  0.37367280041E+01  0.42090473078E+03  0.44077876910E+03  0.12508912349E+03 0.  0.
         23    2    1    2    0    0  0.38260670933E+02 -0.37367280041E+01  0.21439746723E+03  0.23612624220E+03  0.91167352843E+02 0.  0.
          5    1    3    3  502    0 -0.55726698978E+01 -0.29719257529E+02  0.37099816312E+03  0.37225179429E+03  0.41800000000E+01 0.  1.
         -5    1    3    3    0  502 -0.32688001036E+02  0.33455985533E+02  0.49906567662E+02  0.68526974802E+02  0.41800000000E+01 0.  1.
        -11    1    4    4    0    0  0.56104628855E+02 -0.24076765581E+02  0.89559869809E+02  0.10838999170E+03  0.00000000000E+00 0.  1.
         11    1    4    4    0    0 -0.17843957921E+02  0.20340037577E+02  0.12483759742E+03  0.12773625050E+03  0.00000000000E+00 0. -1.
</event>
<event>
 8    1  0.6380238E-009  0.1074388E+03  0.7561462E-02  0.1265388E+00
          1   -1    0    0  501    0  0.00000000000E+00  0.00000000000E+00  0.10098569999E+04  0.10098569999E+04  0.00000000000E+00 0. -1.
         -1   -1    0    0    0  501 -0.00000000000E+00 -0.00000000000E+00 -0.18019338291E+02  0.18019338291E+02  0.00000000000E+00 0.  1.
         25    2    1    2    0    0 -0.20096656960E+02  0.18929533974E+02  0.83679010771E+03  0.84653197388E+03  0.12504597382E+03 0.  0.
         23    2    1    2    0    0  0.20096656960E+02 -0.18929533974E+02  0.15504755394E+03  0.18134436435E+03  0.89910130800E+02 0.  0.
          5    1    3    3  502    0  0.31507622606E+02  0.50876332401E+02  0.55601147415E+03  0.55923819904E+03  0.41800000000E+01 0.  1.
         -5    1    3    3    0  502 -0.51604279566E+02 -0.31946798428E+02  0.28077863356E+03  0.28729377484E+03  0.41800000000E+01 0.  1.
        -11    1    4    4    0    0  0.49746131320E+02  0.12035875535E+02  0.84702465425E+02  0.98964880287E+02  0.00000000000E+00 0. -1.
         11    1    4    4    0    0 -0.29649474360E+02 -0.30965409508E+02  0.70345088512E+02  0.82379484058E+02  0.00000000000E+00 0.  1.
</event>
<event>
 8    1  0.6380238E-009  0.1743084E+03  0.7561462E-02  0.1173428E+00
          1   -1    0    0  501    0  0.00000000000E+00  0.00000000000E+00  0.77030308467E+03  0.77030308467E+03  0.00000000000E+00 0. -1.
         -1   -1    0    0    0  501 -0.00000000000E+00 -0.00000000000E+00 -0.41556840171E+02  0.41556840171E+02  0.00000000000E+00 0.  1.
         25    2    1    2    0    0  0.11486009775E+03  0.84427430688E+02  0.34907455635E+03  0.39726716744E+03  0.12508926143E+03 0.  0.
         23    2    1    2    0    0 -0.11486009775E+03 -0.84427430688E+02  0.37967168815E+03  0.41459275740E+03  0.86114636384E+02 0.  0.
          5    1    3    3  502    0 -0.20140462064E+02 -0.43549497851E+01  0.14041528523E+02  0.25283210299E+02  0.41800000000E+01 0.  1.
         -5    1    3    3    0  502  0.13500055982E+03  0.88782380473E+02  0.33503302783E+03  0.37198395714E+03  0.41800000000E+01 0.  1.
        -11    1    4    4    0    0 -0.28809444977E+02 -0.73838068200E+02  0.19870997750E+03  0.21393386734E+03  0.00000000000E+00 0. -1.
         11    1    4    4    0    0 -0.86050652778E+02 -0.10589362488E+02  0.18096171064E+03  0.20065889006E+03  0.00000000000E+00 0.  1.
</event>
<event>
 7    1  0.6380238E-009  0.9709783E+02  0.7561462E-02  0.1286520E+00
         -2   -1    0    0    0  501 -0.00000000000E+00  0.00000000000E+00  0.21463217348E+02  0.21463217348E+02  0.00000000000E+00 0.  1.
          2   -1    0    0  501    0  0.00000000000E+00 -0.00000000000E+00 -0.10662789058E+04  0.10662789058E+04  0.00000000000E+00 0. -1.
         23    2    1    2    0    0 -0.45216098023E+02  0.76447704086E+02 -0.27469259128E+03  0.30249862469E+03  0.90336323015E+02 0.  0.
          5    1    1    2  502    0  0.42248411320E+02 -0.69103191981E+02 -0.21102169893E+03  0.22607036343E+03  0.41800000000E+01 0. -1.
         -5    1    1    2    0  502  0.29676867026E+01 -0.73445121053E+01 -0.55910139824E+03  0.55917313503E+03  0.41800000000E+01 0. -1.
        -11    1    3    3    0    0 -0.49228769326E+02  0.30282601282E+02 -0.61776078467E+02  0.84597822316E+02  0.00000000000E+00 0.  1.
         11    1    3    3    0    0  0.40126713027E+01  0.46165102804E+02 -0.21291651281E+03  0.21790080238E+03  0.00000000000E+00 0. -1.
</event>
<event>
 8    1  0.6380238E-009  0.1008649E+03  0.7561462E-02  0.1278488E+00
         -1   -1    0    0    0  501 -0.00000000000E+00  0.00000000000E+00  0.53963133693E+02  0.53963133693E+02  0.00000000000E+00 0.  1.
          1   -1    0    0  501    0  0.00000000000E+00 -0.00000000000E+00 -0.23147268725E+03  0.23147268725E+03  0.00000000000E+00 0. -1.
         25    2    1    2    0    0 -0.11767747349E+02  0.10340619192E+02 -0.78451265151E+02  0.14848133713E+03  0.12508676264E+03 0.  0.
         23    2    1    2    0    0  0.11767747349E+02 -0.10340619192E+02 -0.99058288408E+02  0.13695448382E+03  0.93266166708E+02 0.  0.
          5    1    3    3  502    0 -0.28565712004E+02  0.63150524177E+02 -0.53018738336E+02  0.87363880528E+02  0.41800000000E+01 0.  1.
         -5    1    3    3    0  502  0.16797964655E+02 -0.52809904985E+02 -0.25432526815E+02  0.61117456600E+02  0.41800000000E+01 0.  1.
        -11    1    4    4    0    0 -0.26564386683E+00 -0.42438355690E+02 -0.13102927223E+02  0.44415890199E+02  0.00000000000E+00 0.  1.
         11    1    4    4    0    0  0.12033391216E+02  0.32097736498E+02 -0.85955361184E+02  0.92538593618E+02  0.00000000000E+00 0. -1.
</event>
<event>
 8    1  0.6380238E-009  0.1142681E+03  0.7561462E-02  0.1252864E+00
          1   -1    0    0  501    0  0.00000000000E+00  0.00000000000E+00  0.55035440964E+03  0.55035440964E+03  0.00000000000E+00 0. -1.
         -1   -1    0    0    0  501 -0.00000000000E+00 -0.00000000000E+00 -0.30251511658E+02  0.30251511658E+02  0.00000000000E+00 0.  1.
         25    2    1    2    0    0 -0.24895618230E+02  0.44060333032E+02  0.18257817268E+03  0.22703183070E+03  0.12509020050E+03 0.  0.
         23    2    1    2    0    0  0.24895618230E+02 -0.44060333032E+02  0.33752472530E+03  0.35357409059E+03  0.92361207187E+02 0.  0.
          5    1    3    3  502    0  0.47044150088E+02  0.37553729113E+02  0.10383621716E+03  0.12009524146E+03  0.41800000000E+01 0.  1.
         -5    1    3    3    0  502 -0.71939768317E+02  0.65066039191E+01  0.78741955513E+02  0.10693658924E+03  0.41800000000E+01 0.  1.
        -11    1    4    4    0    0 -0.30085978680E+02 -0.17102477299E+02  0.59028947822E+02  0.68425708062E+02  0.00000000000E+00 0.  1.
         11    1    4    4    0    0  0.54981596909E+02 -0.26957855733E+02  0.27849577748E+03  0.28514838253E+03  0.00000000000E+00 0. -1.
</event>
<event>
 8    1  0.6380238E-009  0.9704027E+02  0.7561462E-02  0.1286646E+00
          2   -1    0    0  501    0  0.00000000000E+00  0.00000000000E+00  0.15094591515E+03  0.15094591515E+03  0.00000000000E+00 0. -1.
         -2   -1    0    0    0  501 -0.00000000000E+00 -0.00000000000E+00 -0.87721583449E+02  0.87721583449E+02  0.00000000000E+00 0.  1.
         25    2    1    2    0    0 -0.14020598432E+02  0.16056958686E+02  0.32786856236E+01  0.12690521789E+03  0.12505911181E+03 0.  0.
         23    2    1    2    0    0  0.14020598432E+02 -0.16056958686E+02  0.59945646073E+02  0.11176228070E+03  0.91885384051E+02 0.  0.
          5    1    3    3  502    0 -0.36709428858E+01 -0.49487527801E+02  0.26584398104E+02  0.56450809136E+02  0.41800000000E+01 0. -1.
         -5    1    3    3    0  502 -0.10349655546E+02  0.65544486488E+02 -0.23305712480E+02  0.70454408755E+02  0.41800000000E+01 0. -1.
        -11    1    4    4    0    0  0.42894724253E+02 -0.22160688216E+02  0.65861813929E+02  0.81662916951E+02  0.00000000000E+00 0.  1.
         11    1    4    4    0    0 -0.28874125822E+02  0.61037295294E+01 -0.59161678565E+01  0.30099363752E+02  0.00000000000E+00 0. -1.
</event>
<event>
 8    1  0.6380238E-009  0.8886923E+02  0.7561462E-02  0.1305613E+00
          1   -1    0    0  501    0  0.00000000000E+00  0.00000000000E+00  0.58919677682E+03  0.58919677682E+03  0.00000000000E+00 0. -1.
         -1   -1    0    0    0  501 -0.00000000000E+00 -0.00000000000E+00 -0.22125153031E+02  0.22125153031E+02  0.00000000000E+00 0.  1.
         25    2    1    2    0    0 -0.17408062103E+02 -0.33711587818E+02  0.31591027499E+03  0.34188716145E+03  0.12509203628E+03 0.  0.
         23    2    1    2    0    0  0.17408062103E+02  0.33711587818E+02  0.25116134880E+03  0.26943476840E+03  0.89852988344E+02 0.  0.
          5    1    3    3  502    0 -0.22433172774E+02 -0.61936831270E+02  0.77831858688E+02  0.10205238329E+03  0.41800000000E+01 0. -1.
         -5    1    3    3    0  502  0.50251106711E+01  0.28225243451E+02  0.23807841631E+03  0.23983477816E+03  0.41800000000E+01 0. -1.
        -11    1    4    4    0    0  0.44548118234E+02  0.33296170653E+02  0.88503253003E+02  0.10452748734E+03  0.00000000000E+00 0.  1.
         11    1    4    4    0    0 -0.27140056131E+02  0.41541716519E+00  0.16265809579E+03  0.16490728106E+03  0.00000000000E+00 0. -1.
</event>
<event>
 8    1  0.6380238E-009  0.1044067E+03  0.7561462E-02  0.1271293E+00
          1   -1    0    0  501    0  0.00000000000E+00  0.00000000000E+00  0.38415854981E+03  0.38415854981E+03  0.00000000000E+00 0. -1.
         -1   -1    0    0    0  501 -0.00000000000E+00 -0.00000000000E+00 -0.48676395402E+02  0.48676395402E+02  0.00000000000E+00 0.  1.
         25    2    1    2    0    0  0.57921210291E+02  0.44025994567E+02  0.24860836940E+03  0.28765612960E+03  0.12508706073E+03 0.  0.
         23    2    1    2    0    0 -0.57921210291E+02 -0.44025994567E+02  0.86873785010E+02  0.14517881561E+03  0.90756152308E+02 0.  0.
          5    1    3    3  502    0 -0.11419580587E+02  0.30541871798E+01 -0.10457658678E+02  0.16326968645E+02  0.41800000000E+01 0. -1.
         -5    1    3    3    0  502  0.69340790878E+02  0.40971807387E+02  0.25906602808E+03  0.27132916095E+03  0.41800000000E+01 0. -1.
        -11    1    4    4    0    0 -0.77861001204E+02 -0.13287978651E+02  0.51793114428E+02  0.94453335501E+02  0.00000000000E+00 0.  1.
         11    1    4    4    0    0  0.19939790913E+02 -0.30738015916E+02  0.35080670581E+02  0.50725480112E+02  0.00000000000E+00 0. -1.
</event>
<event>
 8    1  0.6380238E-009  0.9096923E+02  0.7561462E-02  0.1300521E+00
         -4   -1    0    0    0  501 -0.00000000000E+00  0.00000000000E+00  0.13320215490E+03  0.13320215490E+03  0.00000000000E+00 0.  1.
          4   -1    0    0  501    0  0.00000000000E+00 -0.00000000000E+00 -0.11166967717E+03  0.11166967717E+03  0.00000000000E+00 0. -1.
         25    2    1    2    0    0  0.26946605367E+02  0.45014516410E+02 -0.94802040370E+01  0.13597369007E+03  0.12508614589E+03 0.  0.
         23    2    1    2    0    0 -0.26946605367E+02 -0.45014516410E+02  0.31012681767E+02  0.10889814200E+03  0.90247397045E+02 0.  0.
          5    1    3    3  502    0  0.22067302444E+02  0.80261596110E+02 -0.36611962307E+02  0.91031850642E+02  0.41800000000E+01 0. -1.
         -5    1    3    3    0  502  0.48793029228E+01 -0.35247079700E+02  0.27131758270E+02  0.44941839429E+02  0.41800000000E+01 0. -1.
        -11    1    4    4    0    0  0.28030416928E+01 -0.28699564518E+02  0.58506941186E+02  0.65227173886E+02  0.00000000000E+00 0.  1.
         11    1    4    4    0    0 -0.29749647060E+02 -0.16314951892E+02 -0.27494259419E+02  0.43670968119E+02  0.00000000000E+00 0. -1.
</event>
<event>
 8    1  0.6380238E-009  0.8828226E+02  0.7561462E-02  0.1307066E+00
          2   -1    0    0  501    0  0.00000000000E+00  0.00000000000E+00  0.81845104178E+02  0.81845104178E+02  0.00000000000E+00 0. -1.
         -2   -1    0    0    0  501 -0.00000000000E+00 -0.00000000000E+00 -0.15879170520E+03  0.15879170520E+03  0.00000000000E+00 0.  1.
         25    2    1    2    0    0  0.33684663831E+02 -0.18918581666E+02 -0.65697857298E+02  0.14648082127E+03  0.12509137955E+03 0.  0.
         23    2    1    2    0    0 -0.33684663831E+02  0.18918581666E+02 -0.11248743723E+02  0.94155988103E+02  0.85124887963E+02 0.  0.
          5    1    3    3  502    0 -0.44550605707E+02  0.38781634515E+01 -0.42052143959E+02  0.61527650956E+02  0.41800000000E+01 0. -1.
         -5    1    3    3    0  502  0.78235269538E+02 -0.22796745117E+02 -0.23645713339E+02  0.84953170317E+02  0.41800000000E+01 0. -1.
        -11    1    4    4    0    0  0.33531952540E+01  0.11892289552E+02 -0.43079636454E+02  0.44816576690E+02  0.00000000000E+00 0.  1.
         11    1    4    4    0    0 -0.37037859084E+02  0.70262921136E+01  0.31830892732E+02  0.49339411412E+02  0.00000000000E+00 0. -1.
</event>
<event>
 8    1  0.6380238E-009  0.1044455E+03  0.7561462E-02  0.1271216E+00
          1   -1    0    0  501    0  0.00000000000E+00  0.00000000000E+00  0.80391993729E+03  0.80391993729E+03  0.00000000000E+00 0. -1.
         -1   -1    0    0    0  501 -0.00000000000E+00 -0.00000000000E+00 -0.13779352636E+02  0.13779352636E+02  0.00000000000E+00 0.  1.
         25    2    1    2    0    0  0.30302874431E+02 -0.17874235698E+02  0.45777358682E+03  0.47585948015E+03  0.12509130886E+03 0.  0.
         23    2    1    2    0    0 -0.30302874431E+02  0.17874235698E+02  0.33236699783E+03  0.34183980977E+03  0.71755709187E+02 0.  0.
          5    1    3    3  502    0 -0.48967945804E+02 -0.99052278547E+01  0.18168546571E+03  0.18847560613E+03  0.41800000000E+01 0.  1.
         -5    1    3    3    0  502  0.79270820235E+02 -0.79690078431E+01  0.27608812112E+03  0.28738387402E+03  0.41800000000E+01 0.  1.
        -11    1    4    4    0    0 -0.48190770664E+00  0.41146668015E+02  0.19912274546E+03  0.20333014603E+03  0.00000000000E+00 0. -1.
         11    1    4    4    0    0 -0.29820966724E+02 -0.23272432317E+02  0.13324425237E+03  0.13850966375E+03  0.00000000000E+00 0.  1.
</event>
<event>
 8    1  0.6380238E-009  0.1031184E+03  0.7561462E-02  0.1273872E+00
          1   -1    0    0  501    0  0.00000000000E+00  0.00000000000E+00  0.63679248303E+02  0.63679248303E+02  0.00000000000E+00 0. -1.
         -1   -1    0    0    0  501 -0.00000000000E+00 -0.00000000000E+00 -0.23612210885E+03  0.23612210885E+03  0.00000000000E+00 0.  1.
         25    2    1    2    0    0 -0.29994944356E+02 -0.42704521541E+02 -0.12272971886E+03  0.18284931520E+03  0.12509162774E+03 0.  0.
         23    2    1    2    0    0  0.29994944356E+02  0.42704521541E+02 -0.49713141690E+02  0.11695204196E+03  0.92103261694E+02 0.  0.
          5    1    3    3  502    0 -0.51456405616E+02  0.27198124217E+02 -0.76587393291E+02  0.96283959469E+02  0.41800000000E+01 0. -1.
         -5    1    3    3    0  502  0.21461461260E+02 -0.69902645758E+02 -0.46142325567E+02  0.86565355727E+02  0.41800000000E+01 0. -1.
        -11    1    4    4    0    0 -0.14275881386E+02  0.20855266758E+02  0.19509942573E+02  0.31927743424E+02  0.00000000000E+00 0. -1.
         11    1    4    4    0    0  0.44270825743E+02  0.21849254782E+02 -0.69223084263E+02  0.85024298535E+02  0.00000000000E+00 0.  1.
</event>
<event>
 8    1  0.6380238E-009  0.9998603E+02  0.7561462E-02  0.1280325E+00
          2   -1    0    0  501    0  0.00000000000E+00  0.00000000000E+00  0.40798687156E+03  0.40798687156E+03  0.00000000000E+00 0. -1.
         -2   -1    0    0    0  501 -0.00000000000E+00 -0.00000000000E+00 -0.43113689469E+02  0.43113689469E+02  0.00000000000E+00 0.  1.
         25    2    1    2    0    0 -0.45607439850E+02  0.59656604462E+02  0.18437523170E+03  0.23511704104E+03  0.12508736106E+03 0.  0.
         23    2    1    2    0    0  0.45607439850E+02 -0.59656604462E+02  0.18049795038E+03  0.21598351998E+03  0.91817328356E+02 0.  0.
          5    1    3    3  502    0  0.12589436751E+02  0.56832129424E+02  0.21686440253E+02  0.62258806152E+02  0.41800000000E+01 0.  1.
         -5    1    3    3    0  502 -0.58196876601E+02  0.28244750377E+01  0.16268879145E+03  0.17285823489E+03  0.41800000000E+01 0.  1.
        -11    1    4    4    0    0  0.13260496875E+02  0.21539218397E+01 -0.75511349714E+01  0.15411028390E+02  0.00000000000E+00 0.  1.
         11    1    4    4    0    0  0.32346942975E+02 -0.61810526301E+02  0.18804908535E+03  0.20057249159E+03  0.00000000000E+00 0. -1.
</event>
<event>
 8    1  0.6380238E-009  0.9859794E+02  0.7561462E-02  0.1283272E+00
         -1   -1    0    0    0  501 -0.00000000000E+00  0.00000000000E+00  0.37856788701E+02  0.37856788701E+02  0.00000000000E+00 0.  1.
          1   -1    0    0  501    0  0.00000000000E+00 -0.00000000000E+00 -0.54975589694E+03  0.54975589694E+03  0.00000000000E+00 0. -1.
         25    2    1    2    0    0 -0.67199855789E+02 -0.65213669829E+02 -0.25161710625E+03  0.29618948430E+03  0.12509356138E+03 0.  0.
         23    2    1    2    0    0  0.67199855789E+02  0.65213669829E+02 -0.26028200198E+03  0.29142320134E+03  0.91717601211E+02 0.  0.
          5    1    3    3  502    0 -0.59740726595E+02 -0.58168178396E+02 -0.56613659344E+02  0.10087155306E+03  0.41800000000E+01 0. -1.
         -5    1    3    3    0  502 -0.74591291937E+01 -0.70454914328E+01 -0.19500344691E+03  0.19531793124E+03  0.41800000000E+01 0. -1.
        -11    1    4    4    0    0  0.55776397267E+02  0.25541757336E+02 -0.56167588104E+02  0.83175632328E+02  0.00000000000E+00 0.  1.
         11    1    4    4    0    0  0.11423458522E+02  0.39671912493E+02 -0.20411441388E+03  0.20824756901E+03  0.00000000000E+00 0. -1.
</event>
<event>
 8    1  0.6380238E-009  0.2384938E+03  0.7561462E-02  0.1120800E+00
         -2   -1    0    0    0  501 -0.00000000000E+00  0.00000000000E+00  0.56412308496E+02  0.56412308496E+02  0.00000000000E+00 0.  1.
          2   -1    0    0  501    0  0.00000000000E+00 -0.00000000000E+00 -0.17901997605E+04  0.17901997605E+04  0.00000000000E+00 0. -1.
         25    2    1    2    0    0 -0.75697651751E+02  0.20485792238E+03 -0.14727639593E+04  0.14941145758E+04  0.12509109955E+03 0.  0.
         23    2    1    2    0    0  0.75697651751E+02 -0.20485792238E+03 -0.26102349276E+03  0.35249749318E+03  0.91784073128E+02 0.  0.
          5    1    3    3  502    0  0.23930405117E+02  0.58010152890E+02 -0.21912854423E+03  0.22797507193E+03  0.41800000000E+01 0. -1.
         -5    1    3    3    0  502 -0.99628056868E+02  0.14684776949E+03 -0.12536354150E+04  0.12661395039E+04  0.41800000000E+01 0. -1.
        -11    1    4    4    0    0  0.96588309424E+02 -0.17853164943E+03 -0.21743847848E+03  0.29745981794E+03  0.00000000000E+00 0.  1.
         11    1    4    4    0    0 -0.20890657673E+02 -0.26326272953E+02 -0.43585014284E+02  0.55037675240E+02  0.00000000000E+00 0. -1.
</event>
<event>
 8    1  0.6380238E-009  0.1135893E+03  0.7561462E-02  0.1254064E+00
         -2   -1    0    0    0  501 -0.00000000000E+00  0.00000000000E+00  0.10896245598E+02  0.10896245598E+02  0.00000000000E+00 0.  1.
          2   -1    0    0  501    0  0.00000000000E+00 -0.00000000000E+00 -0.16180142232E+04  0.16180142232E+04  0.00000000000E+00 0. -1.
         25    2    1    2    0    0  0.90963101814E+01 -0.59035147955E+02 -0.12088513386E+04  0.12167727110E+04  0.12508549011E+03 0.  0.
         23    2    1    2    0    0 -0.90963101814E+01  0.59035147955E+02 -0.39826663899E+03  0.41213775779E+03  0.87597512014E+02 0.  0.
          5    1    3    3  502    0  0.52955634919E+02 -0.67711411455E+02 -0.58366253277E+03  0.58997335454E+03  0.41800000000E+01 0. -1.
         -5    1    3    3    0  502 -0.43859324738E+02  0.86762635003E+01 -0.62518880585E+03  0.62679935647E+03  0.41800000000E+01 0. -1.
        -11    1    4    4    0    0  0.23352090517E+02 -0.54894768658E+01 -0.39822231042E+02  0.46489402803E+02  0.00000000000E+00 0.  1.
         11    1    4    4    0    0 -0.32448400698E+02  0.64524624820E+02 -0.35844440795E+03  0.36564835499E+03  0.00000000000E+00 0. -1.
</event>
<event>
 8    1  0.6380238E-009  0.1353356E+03  0.7561462E-02  0.1219747E+00
         -1   -1    0    0    0  501 -0.00000000000E+00  0.00000000000E+00  0.12145283285E+03  0.12145283285E+03  0.00000000000E+00 0.  1.
          1   -1    0    0  501    0  0.00000000000E+00 -0.00000000000E+00 -0.24851475905E+03  0.24851475905E+03  0.00000000000E+00 0. -1.
         25    2    1    2    0    0  0.82009773438E+02  0.55132174330E+02  0.30580033668E+02  0.16232075276E+03  0.12509088189E+03 0.  0.
         23    2    1    2    0    0 -0.82009773438E+02 -0.55132174330E+02 -0.15764195987E+03  0.20764683914E+03  0.92201207733E+02 0.  0.
          5    1    3    3  502    0 -0.32279071978E+02  0.43002177841E+01 -0.23268607838E+01  0.32913781944E+02  0.41800000000E+01 0.  1.
         -5    1    3    3    0  502  0.11428884542E+03  0.50831956546E+02  0.32906894452E+02  0.12940697081E+03  0.41800000000E+01 0.  1.
        -11    1    4    4    0    0 -0.63238379388E+02 -0.10284897496E+02 -0.29388791882E+02  0.70488104191E+02  0.00000000000E+00 0.  1.
         11    1    4    4    0    0 -0.18771394050E+02 -0.44847276833E+02 -0.12825316799E+03  0.13715873495E+03  0.00000000000E+00 0. -1.
</event>
<event>
 8    1  0.6380238E-009  0.1077563E+03  0.7561462E-02  0.1264782E+00
         -3   -1    0    0    0  501 -0.00000000000E+00  0.00000000000E+00  0.20580707340E+03  0.20580707340E+03  0.00000000000E+00 0.  1.
          3   -1    0    0  501    0  0.00000000000E+00 -0.00000000000E+00 -0.10400559705E+03  0.10400559705E+03  0.00000000000E+00 0. -1.
         25    2    1    2    0    0 -0.10112850283E+02 -0.95895918390E+02  0.78273010401E+02  0.17627312658E+03  0.12508898470E+03 0.  0.
         23    2    1    2    0    0  0.10112850283E+02  0.95895918390E+02  0.23528465953E+02  0.13353954387E+03  0.89336018279E+02 0.  0.
          5    1    3    3  502    0  0.66062296060E+01 -0.40992967249E+02 -0.31531027046E+02  0.52304337297E+02  0.41800000000E+01 0.  1.
         -5    1    3    3    0  502 -0.16719079889E+02 -0.54902951141E+02  0.10980403745E+03  0.12396878928E+03  0.41800000000E+01 0.  1.
        -11    1    4    4    0    0  0.36429913593E+02  0.38007766891E+02 -0.20174304902E+02  0.56380240570E+02  0.00000000000E+00 0.  1.
         11    1    4    4    0    0 -0.26317063309E+02  0.57888151499E+02  0.43702770856E+02  0.77159303299E+02  0.00000000000E+00 0. -1.
</event>
<event>
 8    1  0.6380238E-009  0.1272025E+03  0.7561462E-02  0.1231667E+00
         -1   -1    0    0    0  501 -0.00000000000E+00  0.00000000000E+00  0.36407407669E+02  0.36407407669E+02  0.00000000000E+00 0.  1.
          1   -1    0    0  501    0  0.00000000000E+00 -0.00000000000E+00 -0.51623066703E+03  0.51623066703E+03  0.00000000000E+00 0. -1.
         25    2    1    2    0    0 -0.75991813340E+02  0.18460920343E+02 -0.20313565795E+03  0.25105285558E+03  0.12509148448E+03 0.  0.
         23    2    1    2    0    0  0.75991813340E+02 -0.18460920343E+02 -0.27668760142E+03  0.30158521913E+03  0.91005792904E+02 0.  0.
          5    1    3    3  502    0 -0.65319624886E+02 -0.44874283567E+02 -0.13979181238E+03  0.16074693755E+03  0.41800000000E+01 0.  1.
         -5    1    3    3    0  502 -0.10672188454E+02  0.63335203911E+02 -0.63343845563E+02  0.90305918031E+02  0.41800000000E+01 0.  1.
        -11    1    4    4    0    0  0.34926655363E+01  0.25604611471E+02 -0.24891234404E+02  0.35879916266E+02  0.00000000000E+00 0. -1.
         11    1    4    4    0    0  0.72499147803E+02 -0.44065531814E+02 -0.25179636701E+03  0.26570530286E+03  0.00000000000E+00 0.  1.
</event>
<event>
 8    1  0.6380238E-009  0.5905879E+02  0.7561462E-02  0.1401825E+00
          1   -1    0    0  501    0  0.00000000000E+00  0.00000000000E+00  0.86064736405E+03  0.86064736405E+03  0.00000000000E+00 0. -1.
         -1   -1    0    0    0  501 -0.00000000000E+00 -0.00000000000E+00 -0.15693691733E+02  0.15693691733E+02  0.00000000000E+00 0.  1.
         25    2    1    2    0    0 -0.25803207038E+02 -0.11777915029E+02  0.61798332269E+03  0.63116348524E+03  0.12513765704E+03 0.  0.
         23    2    1    2    0    0  0.25803207038E+02  0.11777915029E+02  0.22697034963E+03  0.24517757054E+03  0.88272174030E+02 0.  0.
          5    1    3    3  502    0 -0.11599699822E+02  0.17907806866E+02  0.13125627064E+02  0.25396792485E+02  0.41800000000E+01 0. -1.
         -5    1    3    3    0  502 -0.14203507215E+02 -0.29685721895E+02  0.60485769562E+03  0.60576669276E+03  0.41800000000E+01 0. -1.
        -11    1    4    4    0    0  0.14459770928E+02 -0.22695682096E+02  0.16424665687E+02  0.31526950440E+02  0.00000000000E+00 0.  1.
         11    1    4    4    0    0  0.11343436110E+02  0.34473597125E+02  0.21054568395E+03  0.21365062010E+03  0.00000000000E+00 0. -1.
</event>
<event>
 8    1  0.6380238E-009  0.1830435E+03  0.7561462E-02  0.1164890E+00
          2   -1    0    0  501    0  0.00000000000E+00  0.00000000000E+00  0.16252883519E+03  0.16252883519E+03  0.00000000000E+00 0. -1.
         -2   -1    0    0    0  501 -0.00000000000E+00 -0.00000000000E+00 -0.24076161399E+03  0.24076161399E+03  0.00000000000E+00 0.  1.
         25    2    1    2    0    0 -0.42794255234E+01 -0.16103176128E+03 -0.54845288387E+01  0.20402788422E+03  0.12509099032E+03 0.  0.
         23    2    1    2    0    0  0.42794255234E+01  0.16103176128E+03 -0.72748249969E+02  0.19926256496E+03  0.91998479873E+02 0.  0.
          5    1    3    3  502    0 -0.61257770125E+02 -0.84849384747E+02  0.17201436403E+02  0.10613809074E+03  0.41800000000E+01 0. -1.
         -5    1    3    3    0  502  0.56978344601E+02 -0.76182376529E+02 -0.22685965242E+02  0.97889793473E+02  0.41800000000E+01 0. -1.
        -11    1    4    4    0    0  0.22510135583E+02  0.83485851566E+02  0.67375201525E+01  0.86729394057E+02  0.00000000000E+00 0. -1.
         11    1    4    4    0    0 -0.18230710060E+02  0.77545909710E+02 -0.79485770122E+02  0.11253317090E+03  0.00000000000E+00 0.  1.
</event>
<event>
 8    1  0.6380238E-009  0.9011019E+02  0.7561462E-02  0.1302585E+00
          1   -1    0    0  501    0  0.00000000000E+00  0.00000000000E+00  0.29722332059E+02  0.29722332059E+02  0.00000000000E+00 0. -1.
         -1   -1    0    0    0  501 -0.00000000000E+00 -0.00000000000E+00 -0.42741558880E+03  0.42741558880E+03  0.00000000000E+00 0.  1.
         25    2    1    2    0    0  0.37644766961E+02  0.15581881604E+01 -0.23247282762E+03  0.26665753630E+03  0.12507225773E+03 0.  0.
         23    2    1    2    0    0 -0.37644766961E+02 -0.15581881604E+01 -0.16522042912E+03  0.19048038456E+03  0.86979481911E+02 0.  0.
          5    1    3    3  502    0 -0.34252442862E+02 -0.28019272076E+02 -0.13366531537E+03  0.14086233841E+03  0.41800000000E+01 0. -1.
         -5    1    3    3    0  502  0.71897209823E+02  0.29577460236E+02 -0.98807512249E+02  0.12579519789E+03  0.41800000000E+01 0. -1.
        -11    1    4    4    0    0  0.85772541425E+01 -0.73961015650E+01  0.61514901081E+01  0.12888461411E+02  0.00000000000E+00 0. -1.
         11    1    4    4    0    0 -0.46222021104E+02  0.58379134046E+01 -0.17137191923E+03  0.17759192315E+03  0.00000000000E+00 0.  1.
</event>
<event>
 8    1  0.6380238E-009  0.1673054E+03  0.7561462E-02  0.1180687E+00
         -2   -1    0    0    0  501 -0.00000000000E+00  0.00000000000E+00  0.56720677412E+02  0.56720677412E+02  0.00000000000E+00 0.  1.
          2   -1    0    0  501    0  0.00000000000E+00 -0.00000000000E+00 -0.57827205354E+03  0.57827205354E+03  0.00000000000E+00 0. -1.
         25    2    1    2    0    0 -0.11809120600E+03 -0.80969178029E+02 -0.23696887989E+03  0.30381513275E+03  0.12509134313E+03 0.  0.
         23    2    1    2    0    0  0.11809120600E+03  0.80969178029E+02 -0.28458249624E+03  0.33117759820E+03  0.90497865492E+02 0.  0.
          5    1    3    3  502    0 -0.38210896800E+01 -0.56422234391E+02 -0.14285532764E+03  0.15369836139E+03  0.41800000000E+01 0. -1.
         -5    1    3    3    0  502 -0.11427011632E+03 -0.24546943639E+02 -0.94113552254E+02  0.15011677136E+03  0.41800000000E+01 0. -1.
        -11    1    4    4    0    0  0.11005501952E+03  0.36778087080E+02 -0.15223722341E+03  0.19141814753E+03  0.00000000000E+00 0. -1.
         11    1    4    4    0    0  0.80361864810E+01  0.44191090949E+02 -0.13234527283E+03  0.13975945067E+03  0.00000000000E+00 0.  1.
</event>
<event>
 8    1  0.6380238E-009  0.1468553E+03  0.7561462E-02  0.1204391E+00
          1   -1    0    0  501    0  0.00000000000E+00  0.00000000000E+00  0.75822003479E+03  0.75822003479E+03  0.00000000000E+00 0. -1.
         -1   -1    0    0    0  501 -0.00000000000E+00 -0.00000000000E+00 -0.37154530402E+02  0.37154530402E+02  0.00000000000E+00 0.  1.
         25    2    1    2    0    0 -0.12008687989E+03 -0.13706535415E+02  0.48187985865E+03  0.51231238910E+03  0.12508820097E+03 0.  0.
         23    2    1    2    0    0  0.12008687989E+03  0.13706535415E+02  0.23918564574E+03  0.28306217609E+03  0.91135583442E+02 0.  0.
          5    1    3    3  502    0 -0.15676888159E+02 -0.55813685373E+02  0.12062243539E+03  0.13389614116E+03  0.41800000000E+01 0.  1.
         -5    1    3    3    0  502 -0.10440999173E+03  0.42107149958E+02  0.36125742326E+03  0.37841624795E+03  0.41800000000E+01 0.  1.
        -11    1    4    4    0    0  0.94085011908E+02  0.19973161200E+02  0.23753031349E+03  0.25626464146E+03  0.00000000000E+00 0. -1.
         11    1    4    4    0    0  0.26001867981E+02 -0.62666257856E+01  0.16553322438E+01  0.26797534627E+02  0.00000000000E+00 0.  1.
</event>
